PSF EXT

      31 !NTITLE
 REMARKS original generated structure x-plor psf file
 REMARKS topology top_all36_cgenff.rtf 
 REMARKS segment SHT { first ; last ; auto none  }
 REMARKS segment ION { first ; last ; auto none  }
 REMARKS segment WT1 { first NONE; last NONE; auto angles dihedrals }
 REMARKS segment WT2 { first NONE; last NONE; auto angles dihedrals }
 REMARKS segment WT3 { first NONE; last NONE; auto angles dihedrals }
 REMARKS segment WT4 { first NONE; last NONE; auto angles dihedrals }
 REMARKS segment WT5 { first NONE; last NONE; auto angles dihedrals }
 REMARKS segment WT6 { first NONE; last NONE; auto angles dihedrals }
 REMARKS segment WT7 { first NONE; last NONE; auto angles dihedrals }
 REMARKS segment WT8 { first NONE; last NONE; auto angles dihedrals }
 REMARKS segment WT9 { first NONE; last NONE; auto angles dihedrals }
 REMARKS segment WT10 { first NONE; last NONE; auto angles dihedrals }
 REMARKS segment WT11 { first NONE; last NONE; auto angles dihedrals }
 REMARKS segment WT12 { first NONE; last NONE; auto angles dihedrals }
 REMARKS segment WT13 { first NONE; last NONE; auto angles dihedrals }
 REMARKS segment WT14 { first NONE; last NONE; auto angles dihedrals }
 REMARKS segment WT15 { first NONE; last NONE; auto angles dihedrals }
 REMARKS segment WT16 { first NONE; last NONE; auto angles dihedrals }
 REMARKS segment WT17 { first NONE; last NONE; auto angles dihedrals }
 REMARKS segment WT18 { first NONE; last NONE; auto angles dihedrals }
 REMARKS segment WT19 { first NONE; last NONE; auto angles dihedrals }
 REMARKS segment WT20 { first NONE; last NONE; auto angles dihedrals }
 REMARKS segment WT21 { first NONE; last NONE; auto angles dihedrals }
 REMARKS segment WT22 { first NONE; last NONE; auto angles dihedrals }
 REMARKS segment WT23 { first NONE; last NONE; auto angles dihedrals }
 REMARKS segment WT24 { first NONE; last NONE; auto angles dihedrals }
 REMARKS segment WT25 { first NONE; last NONE; auto angles dihedrals }
 REMARKS segment WT26 { first NONE; last NONE; auto angles dihedrals }
 REMARKS segment WT27 { first NONE; last NONE; auto angles dihedrals }

   83471 !NATOM
         1 SHT      1        S        C        CA       0.007906       12.0107           0
         2 SHT      2        S        C        CA       0.007906       12.0107           0
         3 SHT      3        S        C        CA       0.007906       12.0107           0
         4 SHT      4        S        C        CA       0.007906       12.0107           0
         5 SHT      5        S        C        CA       0.007906       12.0107           0
         6 SHT      6        S        C        CA       0.007906       12.0107           0
         7 SHT      7        S        C        CA       0.007906       12.0107           0
         8 SHT      8        S        C        CA       0.007906       12.0107           0
         9 SHT      9        S        C        CA       0.007906       12.0107           0
        10 SHT      10       S        C        CA       0.007906       12.0107           0
        11 SHT      11       S        C        CA       0.007906       12.0107           0
        12 SHT      12       S        C        CA       0.007906       12.0107           0
        13 SHT      13       S        C        CA       0.007906       12.0107           0
        14 SHT      14       S        C        CA       0.007906       12.0107           0
        15 SHT      15       S        C        CA       0.007906       12.0107           0
        16 SHT      16       S        C        CA       0.007906       12.0107           0
        17 SHT      17       S        C        CA       0.007906       12.0107           0
        18 SHT      18       S        C        CA       0.007906       12.0107           0
        19 SHT      19       S        C        CA       0.007906       12.0107           0
        20 SHT      20       S        C        CA       0.007906       12.0107           0
        21 SHT      21       S        C        CA       0.007906       12.0107           0
        22 SHT      22       S        C        CA       0.007906       12.0107           0
        23 SHT      23       S        C        CA       0.007906       12.0107           0
        24 SHT      24       S        C        CA       0.007906       12.0107           0
        25 SHT      25       S        C        CA       0.007906       12.0107           0
        26 SHT      26       S        C        CA       0.007906       12.0107           0
        27 SHT      27       S        C        CA       0.007906       12.0107           0
        28 SHT      28       S        C        CA       0.007906       12.0107           0
        29 SHT      29       S        C        CA       0.007906       12.0107           0
        30 SHT      30       S        C        CA       0.007906       12.0107           0
        31 SHT      31       S        C        CA       0.007906       12.0107           0
        32 SHT      32       S        C        CA       0.007906       12.0107           0
        33 SHT      33       S        C        CA       0.007906       12.0107           0
        34 SHT      34       S        C        CA       0.007906       12.0107           0
        35 SHT      35       S        C        CA       0.007906       12.0107           0
        36 SHT      36       S        C        CA       0.007906       12.0107           0
        37 SHT      37       S        C        CA       0.007906       12.0107           0
        38 SHT      38       S        C        CA       0.007906       12.0107           0
        39 SHT      39       S        C        CA       0.007906       12.0107           0
        40 SHT      40       S        C        CA       0.007906       12.0107           0
        41 SHT      41       S        C        CA       0.007906       12.0107           0
        42 SHT      42       S        C        CA       0.007906       12.0107           0
        43 SHT      43       S        C        CA       0.007906       12.0107           0
        44 SHT      44       S        C        CA       0.007906       12.0107           0
        45 SHT      45       S        C        CA       0.007906       12.0107           0
        46 SHT      46       S        C        CA       0.007906       12.0107           0
        47 SHT      47       S        C        CA       0.007906       12.0107           0
        48 SHT      48       S        C        CA       0.007906       12.0107           0
        49 SHT      49       S        C        CA       0.007906       12.0107           0
        50 SHT      50       S        C        CA       0.007906       12.0107           0
        51 SHT      51       S        C        CA       0.007906       12.0107           0
        52 SHT      52       S        C        CA       0.007906       12.0107           0
        53 SHT      53       S        C        CA       0.007906       12.0107           0
        54 SHT      54       S        C        CA       0.007906       12.0107           0
        55 SHT      55       S        C        CA       0.007906       12.0107           0
        56 SHT      56       S        C        CA       0.007906       12.0107           0
        57 SHT      57       S        C        CA       0.007906       12.0107           0
        58 SHT      58       S        C        CA       0.007906       12.0107           0
        59 SHT      59       S        C        CA       0.007906       12.0107           0
        60 SHT      60       S        C        CA       0.007906       12.0107           0
        61 SHT      61       S        C        CA       0.007906       12.0107           0
        62 SHT      62       S        C        CA       0.007906       12.0107           0
        63 SHT      63       S        C        CA       0.007906       12.0107           0
        64 SHT      64       S        C        CA       0.007906       12.0107           0
        65 SHT      65       S        C        CA       0.007906       12.0107           0
        66 SHT      66       S        C        CA       0.007906       12.0107           0
        67 SHT      67       S        C        CA       0.007906       12.0107           0
        68 SHT      68       S        C        CA       0.007906       12.0107           0
        69 SHT      69       S        C        CA       0.007906       12.0107           0
        70 SHT      70       S        C        CA       0.007906       12.0107           0
        71 SHT      71       S        C        CA       0.007906       12.0107           0
        72 SHT      72       S        C        CA       0.007906       12.0107           0
        73 SHT      73       S        C        CA       0.007906       12.0107           0
        74 SHT      74       S        C        CA       0.007906       12.0107           0
        75 SHT      75       S        C        CA       0.007906       12.0107           0
        76 SHT      76       S        C        CA       0.007906       12.0107           0
        77 SHT      77       S        C        CA       0.007906       12.0107           0
        78 SHT      78       S        C        CA       0.007906       12.0107           0
        79 SHT      79       S        C        CA       0.007906       12.0107           0
        80 SHT      80       S        C        CA       0.007906       12.0107           0
        81 SHT      81       S        C        CA       0.007906       12.0107           0
        82 SHT      82       S        C        CA       0.007906       12.0107           0
        83 SHT      83       S        C        CA       0.007906       12.0107           0
        84 SHT      84       S        C        CA       0.007906       12.0107           0
        85 SHT      85       S        C        CA       0.007906       12.0107           0
        86 SHT      86       S        C        CA       0.007906       12.0107           0
        87 SHT      87       S        C        CA       0.007906       12.0107           0
        88 SHT      88       S        C        CA       0.007906       12.0107           0
        89 SHT      89       S        C        CA       0.007906       12.0107           0
        90 SHT      90       S        C        CA       0.007906       12.0107           0
        91 SHT      91       S        C        CA       0.007906       12.0107           0
        92 SHT      92       S        C        CA       0.007906       12.0107           0
        93 SHT      93       S        C        CA       0.007906       12.0107           0
        94 SHT      94       S        C        CA       0.007906       12.0107           0
        95 SHT      95       S        C        CA       0.007906       12.0107           0
        96 SHT      96       S        C        CA       0.007906       12.0107           0
        97 SHT      97       S        C        CA       0.007906       12.0107           0
        98 SHT      98       S        C        CA       0.007906       12.0107           0
        99 SHT      99       S        C        CA       0.007906       12.0107           0
       100 SHT      100      S        C        CA       0.007906       12.0107           0
       101 SHT      101      S        C        CA       0.007906       12.0107           0
       102 SHT      102      S        C        CA       0.007906       12.0107           0
       103 SHT      103      S        C        CA       0.007906       12.0107           0
       104 SHT      104      S        C        CA       0.007906       12.0107           0
       105 SHT      105      S        C        CA       0.007906       12.0107           0
       106 SHT      106      S        C        CA       0.007906       12.0107           0
       107 SHT      107      S        C        CA       0.007906       12.0107           0
       108 SHT      108      S        C        CA       0.007906       12.0107           0
       109 SHT      109      S        C        CA       0.007906       12.0107           0
       110 SHT      110      S        C        CA       0.007906       12.0107           0
       111 SHT      111      S        C        CA       0.007906       12.0107           0
       112 SHT      112      S        C        CA       0.007906       12.0107           0
       113 SHT      113      S        C        CA       0.007906       12.0107           0
       114 SHT      114      S        C        CA       0.007906       12.0107           0
       115 SHT      115      S        C        CA       0.007906       12.0107           0
       116 SHT      116      S        C        CA       0.007906       12.0107           0
       117 SHT      117      S        C        CA       0.007906       12.0107           0
       118 SHT      118      S        C        CA       0.007906       12.0107           0
       119 SHT      119      S        C        CA       0.007906       12.0107           0
       120 SHT      120      S        C        CA       0.007906       12.0107           0
       121 SHT      121      S        C        CA       0.007906       12.0107           0
       122 SHT      122      S        C        CA       0.007906       12.0107           0
       123 SHT      123      S        C        CA       0.007906       12.0107           0
       124 SHT      124      S        C        CA       0.007906       12.0107           0
       125 SHT      125      S        C        CA       0.007906       12.0107           0
       126 SHT      126      S        C        CA       0.007906       12.0107           0
       127 SHT      127      S        C        CA       0.007906       12.0107           0
       128 SHT      128      S        C        CA       0.007906       12.0107           0
       129 SHT      129      S        C        CA       0.007906       12.0107           0
       130 SHT      130      S        C        CA       0.007906       12.0107           0
       131 SHT      131      S        C        CA       0.007906       12.0107           0
       132 SHT      132      S        C        CA       0.007906       12.0107           0
       133 SHT      133      S        C        CA       0.007906       12.0107           0
       134 SHT      134      S        C        CA       0.007906       12.0107           0
       135 SHT      135      S        C        CA       0.007906       12.0107           0
       136 SHT      136      S        C        CA       0.007906       12.0107           0
       137 SHT      137      S        C        CA       0.007906       12.0107           0
       138 SHT      138      S        C        CA       0.007906       12.0107           0
       139 SHT      139      S        C        CA       0.007906       12.0107           0
       140 SHT      140      S        C        CA       0.007906       12.0107           0
       141 SHT      141      S        C        CA       0.007906       12.0107           0
       142 SHT      142      S        C        CA       0.007906       12.0107           0
       143 SHT      143      S        C        CA       0.007906       12.0107           0
       144 SHT      144      S        C        CA       0.007906       12.0107           0
       145 SHT      145      S        C        CA       0.007906       12.0107           0
       146 SHT      146      S        C        CA       0.007906       12.0107           0
       147 SHT      147      S        C        CA       0.007906       12.0107           0
       148 SHT      148      S        C        CA       0.007906       12.0107           0
       149 SHT      149      S        C        CA       0.007906       12.0107           0
       150 SHT      150      S        C        CA       0.007906       12.0107           0
       151 SHT      151      S        C        CA       0.007906       12.0107           0
       152 SHT      152      S        C        CA       0.007906       12.0107           0
       153 SHT      153      S        C        CA       0.007906       12.0107           0
       154 SHT      154      S        C        CA       0.007906       12.0107           0
       155 SHT      155      S        C        CA       0.007906       12.0107           0
       156 SHT      156      S        C        CA       0.007906       12.0107           0
       157 SHT      157      S        C        CA       0.007906       12.0107           0
       158 SHT      158      S        C        CA       0.007906       12.0107           0
       159 SHT      159      S        C        CA       0.007906       12.0107           0
       160 SHT      160      S        C        CA       0.007906       12.0107           0
       161 SHT      161      S        C        CA       0.007906       12.0107           0
       162 SHT      162      S        C        CA       0.007906       12.0107           0
       163 SHT      163      S        C        CA       0.007906       12.0107           0
       164 SHT      164      S        C        CA       0.007906       12.0107           0
       165 SHT      165      S        C        CA       0.007906       12.0107           0
       166 SHT      166      S        C        CA       0.007906       12.0107           0
       167 SHT      167      S        C        CA       0.007906       12.0107           0
       168 SHT      168      S        C        CA       0.007906       12.0107           0
       169 SHT      169      S        C        CA       0.007906       12.0107           0
       170 SHT      170      S        C        CA       0.007906       12.0107           0
       171 SHT      171      S        C        CA       0.007906       12.0107           0
       172 SHT      172      S        C        CA       0.007906       12.0107           0
       173 SHT      173      S        C        CA       0.007906       12.0107           0
       174 SHT      174      S        C        CA       0.007906       12.0107           0
       175 SHT      175      S        C        CA       0.007906       12.0107           0
       176 SHT      176      S        C        CA       0.007906       12.0107           0
       177 SHT      177      S        C        CA       0.007906       12.0107           0
       178 SHT      178      S        C        CA       0.007906       12.0107           0
       179 SHT      179      S        C        CA       0.007906       12.0107           0
       180 SHT      180      S        C        CA       0.007906       12.0107           0
       181 SHT      181      S        C        CA       0.007906       12.0107           0
       182 SHT      182      S        C        CA       0.007906       12.0107           0
       183 SHT      183      S        C        CA       0.007906       12.0107           0
       184 SHT      184      S        C        CA       0.007906       12.0107           0
       185 SHT      185      S        C        CA       0.007906       12.0107           0
       186 SHT      186      S        C        CA       0.007906       12.0107           0
       187 SHT      187      S        C        CA       0.007906       12.0107           0
       188 SHT      188      S        C        CA       0.007906       12.0107           0
       189 SHT      189      S        C        CA       0.007906       12.0107           0
       190 SHT      190      S        C        CA       0.007906       12.0107           0
       191 SHT      191      S        C        CA       0.007906       12.0107           0
       192 SHT      192      S        C        CA       0.007906       12.0107           0
       193 SHT      193      S        C        CA       0.007906       12.0107           0
       194 SHT      194      S        C        CA       0.007906       12.0107           0
       195 SHT      195      S        C        CA       0.007906       12.0107           0
       196 SHT      196      S        C        CA       0.007906       12.0107           0
       197 SHT      197      S        C        CA       0.007906       12.0107           0
       198 SHT      198      S        C        CA       0.007906       12.0107           0
       199 SHT      199      S        C        CA       0.007906       12.0107           0
       200 SHT      200      S        C        CA       0.007906       12.0107           0
       201 SHT      201      S        C        CA       0.007906       12.0107           0
       202 SHT      202      S        C        CA       0.007906       12.0107           0
       203 SHT      203      S        C        CA       0.007906       12.0107           0
       204 SHT      204      S        C        CA       0.007906       12.0107           0
       205 SHT      205      S        C        CA       0.007906       12.0107           0
       206 SHT      206      S        C        CA       0.007906       12.0107           0
       207 SHT      207      S        C        CA       0.007906       12.0107           0
       208 SHT      208      S        C        CA       0.007906       12.0107           0
       209 SHT      209      S        C        CA       0.007906       12.0107           0
       210 SHT      210      S        C        CA       0.007906       12.0107           0
       211 SHT      211      S        C        CA       0.007906       12.0107           0
       212 SHT      212      S        C        CA       0.007906       12.0107           0
       213 SHT      213      S        C        CA       0.007906       12.0107           0
       214 SHT      214      S        C        CA       0.007906       12.0107           0
       215 SHT      215      S        C        CA       0.007906       12.0107           0
       216 SHT      216      S        C        CA       0.007906       12.0107           0
       217 SHT      217      S        C        CA       0.007906       12.0107           0
       218 SHT      218      S        C        CA       0.007906       12.0107           0
       219 SHT      219      S        C        CA       0.007906       12.0107           0
       220 SHT      220      S        C        CA       0.007906       12.0107           0
       221 SHT      221      S        C        CA       0.007906       12.0107           0
       222 SHT      222      S        C        CA       0.007906       12.0107           0
       223 SHT      223      S        C        CA       0.007906       12.0107           0
       224 SHT      224      S        C        CA       0.007906       12.0107           0
       225 SHT      225      S        C        CA       0.007906       12.0107           0
       226 SHT      226      S        C        CA       0.007906       12.0107           0
       227 SHT      227      S        C        CA       0.007906       12.0107           0
       228 SHT      228      S        C        CA       0.007906       12.0107           0
       229 SHT      229      S        C        CA       0.007906       12.0107           0
       230 SHT      230      S        C        CA       0.007906       12.0107           0
       231 SHT      231      S        C        CA       0.007906       12.0107           0
       232 SHT      232      S        C        CA       0.007906       12.0107           0
       233 SHT      233      S        C        CA       0.007906       12.0107           0
       234 SHT      234      S        C        CA       0.007906       12.0107           0
       235 SHT      235      S        C        CA       0.007906       12.0107           0
       236 SHT      236      S        C        CA       0.007906       12.0107           0
       237 SHT      237      S        C        CA       0.007906       12.0107           0
       238 SHT      238      S        C        CA       0.007906       12.0107           0
       239 SHT      239      S        C        CA       0.007906       12.0107           0
       240 SHT      240      S        C        CA       0.007906       12.0107           0
       241 SHT      241      S        C        CA       0.007906       12.0107           0
       242 SHT      242      S        C        CA       0.007906       12.0107           0
       243 SHT      243      S        C        CA       0.007906       12.0107           0
       244 SHT      244      S        C        CA       0.007906       12.0107           0
       245 SHT      245      S        C        CA       0.007906       12.0107           0
       246 SHT      246      S        C        CA       0.007906       12.0107           0
       247 SHT      247      S        C        CA       0.007906       12.0107           0
       248 SHT      248      S        C        CA       0.007906       12.0107           0
       249 SHT      249      S        C        CA       0.007906       12.0107           0
       250 SHT      250      S        C        CA       0.007906       12.0107           0
       251 SHT      251      S        C        CA       0.007906       12.0107           0
       252 SHT      252      S        C        CA       0.007906       12.0107           0
       253 SHT      253      S        C        CA       0.007906       12.0107           0
       254 SHT      254      S        C        CA       0.007906       12.0107           0
       255 SHT      255      S        C        CA       0.007906       12.0107           0
       256 SHT      256      S        C        CA       0.007906       12.0107           0
       257 SHT      257      S        C        CA       0.007906       12.0107           0
       258 SHT      258      S        C        CA       0.007906       12.0107           0
       259 SHT      259      S        C        CA       0.007906       12.0107           0
       260 SHT      260      S        C        CA       0.007906       12.0107           0
       261 SHT      261      S        C        CA       0.007906       12.0107           0
       262 SHT      262      S        C        CA       0.007906       12.0107           0
       263 SHT      263      S        C        CA       0.007906       12.0107           0
       264 SHT      264      S        C        CA       0.007906       12.0107           0
       265 SHT      265      S        C        CA       0.007906       12.0107           0
       266 SHT      266      S        C        CA       0.007906       12.0107           0
       267 SHT      267      S        C        CA       0.007906       12.0107           0
       268 SHT      268      S        C        CA       0.007906       12.0107           0
       269 SHT      269      S        C        CA       0.007906       12.0107           0
       270 SHT      270      S        C        CA       0.007906       12.0107           0
       271 SHT      271      S        C        CA       0.007906       12.0107           0
       272 SHT      272      S        C        CA       0.007906       12.0107           0
       273 SHT      273      S        C        CA       0.007906       12.0107           0
       274 SHT      274      S        C        CA       0.007906       12.0107           0
       275 SHT      275      S        C        CA       0.007906       12.0107           0
       276 SHT      276      S        C        CA       0.007906       12.0107           0
       277 SHT      277      S        C        CA       0.007906       12.0107           0
       278 SHT      278      S        C        CA       0.007906       12.0107           0
       279 SHT      279      S        C        CA       0.007906       12.0107           0
       280 SHT      280      S        C        CA       0.007906       12.0107           0
       281 SHT      281      S        C        CA       0.007906       12.0107           0
       282 SHT      282      S        C        CA       0.007906       12.0107           0
       283 SHT      283      S        C        CA       0.007906       12.0107           0
       284 SHT      284      S        C        CA       0.007906       12.0107           0
       285 SHT      285      S        C        CA       0.007906       12.0107           0
       286 SHT      286      S        C        CA       0.007906       12.0107           0
       287 SHT      287      S        C        CA       0.007906       12.0107           0
       288 SHT      288      S        C        CA       0.007906       12.0107           0
       289 SHT      289      S        C        CA       0.007906       12.0107           0
       290 SHT      290      S        C        CA       0.007906       12.0107           0
       291 SHT      291      S        C        CA       0.007906       12.0107           0
       292 SHT      292      S        C        CA       0.007906       12.0107           0
       293 SHT      293      S        C        CA       0.007906       12.0107           0
       294 SHT      294      S        C        CA       0.007906       12.0107           0
       295 SHT      295      S        C        CA       0.007906       12.0107           0
       296 SHT      296      S        C        CA       0.007906       12.0107           0
       297 SHT      297      S        C        CA       0.007906       12.0107           0
       298 SHT      298      S        C        CA       0.007906       12.0107           0
       299 SHT      299      S        C        CA       0.007906       12.0107           0
       300 SHT      300      S        C        CA       0.007906       12.0107           0
       301 SHT      301      S        C        CA       0.007906       12.0107           0
       302 SHT      302      S        C        CA       0.007906       12.0107           0
       303 SHT      303      S        C        CA       0.007906       12.0107           0
       304 SHT      304      S        C        CA       0.007906       12.0107           0
       305 SHT      305      S        C        CA       0.007906       12.0107           0
       306 SHT      306      S        C        CA       0.007906       12.0107           0
       307 SHT      307      S        C        CA       0.007906       12.0107           0
       308 SHT      308      S        C        CA       0.007906       12.0107           0
       309 SHT      309      S        C        CA       0.007906       12.0107           0
       310 SHT      310      S        C        CA       0.007906       12.0107           0
       311 SHT      311      S        C        CA       0.007906       12.0107           0
       312 SHT      312      S        C        CA       0.007906       12.0107           0
       313 SHT      313      S        C        CA       0.007906       12.0107           0
       314 SHT      314      S        C        CA       0.007906       12.0107           0
       315 SHT      315      S        C        CA       0.007906       12.0107           0
       316 SHT      316      S        C        CA       0.007906       12.0107           0
       317 SHT      317      S        C        CA       0.007906       12.0107           0
       318 SHT      318      S        C        CA       0.007906       12.0107           0
       319 SHT      319      S        C        CA       0.007906       12.0107           0
       320 SHT      320      S        C        CA       0.007906       12.0107           0
       321 SHT      321      S        C        CA       0.007906       12.0107           0
       322 SHT      322      S        C        CA       0.007906       12.0107           0
       323 SHT      323      S        C        CA       0.007906       12.0107           0
       324 SHT      324      S        C        CA       0.007906       12.0107           0
       325 SHT      325      S        C        CA       0.007906       12.0107           0
       326 SHT      326      S        C        CA       0.007906       12.0107           0
       327 SHT      327      S        C        CA       0.007906       12.0107           0
       328 SHT      328      S        C        CA       0.007906       12.0107           0
       329 SHT      329      S        C        CA       0.007906       12.0107           0
       330 SHT      330      S        C        CA       0.007906       12.0107           0
       331 SHT      331      S        C        CA       0.007906       12.0107           0
       332 SHT      332      S        C        CA       0.007906       12.0107           0
       333 SHT      333      S        C        CA       0.007906       12.0107           0
       334 SHT      334      S        C        CA       0.007906       12.0107           0
       335 SHT      335      S        C        CA       0.007906       12.0107           0
       336 SHT      336      S        C        CA       0.007906       12.0107           0
       337 SHT      337      S        C        CA       0.007906       12.0107           0
       338 SHT      338      S        C        CA       0.007906       12.0107           0
       339 SHT      339      S        C        CA       0.007906       12.0107           0
       340 SHT      340      S        C        CA       0.007906       12.0107           0
       341 SHT      341      S        C        CA       0.007906       12.0107           0
       342 SHT      342      S        C        CA       0.007906       12.0107           0
       343 SHT      343      S        C        CA       0.007906       12.0107           0
       344 SHT      344      S        C        CA       0.007906       12.0107           0
       345 SHT      345      S        C        CA       0.007906       12.0107           0
       346 SHT      346      S        C        CA       0.007906       12.0107           0
       347 SHT      347      S        C        CA       0.007906       12.0107           0
       348 SHT      348      S        C        CA       0.007906       12.0107           0
       349 SHT      349      S        C        CA       0.007906       12.0107           0
       350 SHT      350      S        C        CA       0.007906       12.0107           0
       351 SHT      351      S        C        CA       0.007906       12.0107           0
       352 SHT      352      S        C        CA       0.007906       12.0107           0
       353 SHT      353      S        C        CA       0.007906       12.0107           0
       354 SHT      354      S        C        CA       0.007906       12.0107           0
       355 SHT      355      S        C        CA       0.007906       12.0107           0
       356 SHT      356      S        C        CA       0.007906       12.0107           0
       357 SHT      357      S        C        CA       0.007906       12.0107           0
       358 SHT      358      S        C        CA       0.007906       12.0107           0
       359 SHT      359      S        C        CA       0.007906       12.0107           0
       360 SHT      360      S        C        CA       0.007906       12.0107           0
       361 SHT      361      S        C        CA       0.007906       12.0107           0
       362 SHT      362      S        C        CA       0.007906       12.0107           0
       363 SHT      363      S        C        CA       0.007906       12.0107           0
       364 SHT      364      S        C        CA       0.007906       12.0107           0
       365 SHT      365      S        C        CA       0.007906       12.0107           0
       366 SHT      366      S        C        CA       0.007906       12.0107           0
       367 SHT      367      S        C        CA       0.007906       12.0107           0
       368 SHT      368      S        C        CA       0.007906       12.0107           0
       369 SHT      369      S        C        CA       0.007906       12.0107           0
       370 SHT      370      S        C        CA       0.007906       12.0107           0
       371 SHT      371      S        C        CA       0.007906       12.0107           0
       372 SHT      372      S        C        CA       0.007906       12.0107           0
       373 SHT      373      S        C        CA       0.007906       12.0107           0
       374 SHT      374      S        C        CA       0.007906       12.0107           0
       375 SHT      375      S        C        CA       0.007906       12.0107           0
       376 SHT      376      S        C        CA       0.007906       12.0107           0
       377 SHT      377      S        C        CA       0.007906       12.0107           0
       378 SHT      378      S        C        CA       0.007906       12.0107           0
       379 SHT      379      S        C        CA       0.007906       12.0107           0
       380 SHT      380      S        C        CA       0.007906       12.0107           0
       381 SHT      381      S        C        CA       0.007906       12.0107           0
       382 SHT      382      S        C        CA       0.007906       12.0107           0
       383 SHT      383      S        C        CA       0.007906       12.0107           0
       384 SHT      384      S        C        CA       0.007906       12.0107           0
       385 SHT      385      S        C        CA       0.007906       12.0107           0
       386 SHT      386      S        C        CA       0.007906       12.0107           0
       387 SHT      387      S        C        CA       0.007906       12.0107           0
       388 SHT      388      S        C        CA       0.007906       12.0107           0
       389 SHT      389      S        C        CA       0.007906       12.0107           0
       390 SHT      390      S        C        CA       0.007906       12.0107           0
       391 SHT      391      S        C        CA       0.007906       12.0107           0
       392 SHT      392      S        C        CA       0.007906       12.0107           0
       393 SHT      393      S        C        CA       0.007906       12.0107           0
       394 SHT      394      S        C        CA       0.007906       12.0107           0
       395 SHT      395      S        C        CA       0.007906       12.0107           0
       396 SHT      396      S        C        CA       0.007906       12.0107           0
       397 SHT      397      S        C        CA       0.007906       12.0107           0
       398 SHT      398      S        C        CA       0.007906       12.0107           0
       399 SHT      399      S        C        CA       0.007906       12.0107           0
       400 SHT      400      S        C        CA       0.007906       12.0107           0
       401 SHT      401      S        C        CA       0.007906       12.0107           0
       402 SHT      402      S        C        CA       0.007906       12.0107           0
       403 SHT      403      S        C        CA       0.007906       12.0107           0
       404 SHT      404      S        C        CA       0.007906       12.0107           0
       405 SHT      405      S        C        CA       0.007906       12.0107           0
       406 SHT      406      S        C        CA       0.007906       12.0107           0
       407 SHT      407      S        C        CA       0.007906       12.0107           0
       408 SHT      408      S        C        CA       0.007906       12.0107           0
       409 SHT      409      S        C        CA       0.007906       12.0107           0
       410 SHT      410      S        C        CA       0.007906       12.0107           0
       411 SHT      411      S        C        CA       0.007906       12.0107           0
       412 SHT      412      S        C        CA       0.007906       12.0107           0
       413 SHT      413      S        C        CA       0.007906       12.0107           0
       414 SHT      414      S        C        CA       0.007906       12.0107           0
       415 SHT      415      S        C        CA       0.007906       12.0107           0
       416 SHT      416      S        C        CA       0.007906       12.0107           0
       417 SHT      417      S        C        CA       0.007906       12.0107           0
       418 SHT      418      S        C        CA       0.007906       12.0107           0
       419 SHT      419      S        C        CA       0.007906       12.0107           0
       420 SHT      420      S        C        CA       0.007906       12.0107           0
       421 SHT      421      S        C        CA       0.007906       12.0107           0
       422 SHT      422      S        C        CA       0.007906       12.0107           0
       423 SHT      423      S        C        CA       0.007906       12.0107           0
       424 SHT      424      S        C        CA       0.007906       12.0107           0
       425 SHT      425      S        C        CA       0.007906       12.0107           0
       426 SHT      426      S        C        CA       0.007906       12.0107           0
       427 SHT      427      S        C        CA       0.007906       12.0107           0
       428 SHT      428      S        C        CA       0.007906       12.0107           0
       429 SHT      429      S        C        CA       0.007906       12.0107           0
       430 SHT      430      S        C        CA       0.007906       12.0107           0
       431 SHT      431      S        C        CA       0.007906       12.0107           0
       432 SHT      432      S        C        CA       0.007906       12.0107           0
       433 SHT      433      S        C        CA       0.007906       12.0107           0
       434 SHT      434      S        C        CA       0.007906       12.0107           0
       435 SHT      435      S        C        CA       0.007906       12.0107           0
       436 SHT      436      S        C        CA       0.007906       12.0107           0
       437 SHT      437      S        C        CA       0.007906       12.0107           0
       438 SHT      438      S        C        CA       0.007906       12.0107           0
       439 SHT      439      S        C        CA       0.007906       12.0107           0
       440 SHT      440      S        C        CA       0.007906       12.0107           0
       441 SHT      441      S        C        CA       0.007906       12.0107           0
       442 SHT      442      S        C        CA       0.007906       12.0107           0
       443 SHT      443      S        C        CA       0.007906       12.0107           0
       444 SHT      444      S        C        CA       0.007906       12.0107           0
       445 SHT      445      S        C        CA       0.007906       12.0107           0
       446 SHT      446      S        C        CA       0.007906       12.0107           0
       447 SHT      447      S        C        CA       0.007906       12.0107           0
       448 SHT      448      S        C        CA       0.007906       12.0107           0
       449 SHT      449      S        C        CA       0.007906       12.0107           0
       450 SHT      450      S        C        CA       0.007906       12.0107           0
       451 SHT      451      S        C        CA       0.007906       12.0107           0
       452 SHT      452      S        C        CA       0.007906       12.0107           0
       453 SHT      453      S        C        CA       0.007906       12.0107           0
       454 SHT      454      S        C        CA       0.007906       12.0107           0
       455 SHT      455      S        C        CA       0.007906       12.0107           0
       456 SHT      456      S        C        CA       0.007906       12.0107           0
       457 SHT      457      S        C        CA       0.007906       12.0107           0
       458 SHT      458      S        C        CA       0.007906       12.0107           0
       459 SHT      459      S        C        CA       0.007906       12.0107           0
       460 SHT      460      S        C        CA       0.007906       12.0107           0
       461 SHT      461      S        C        CA       0.007906       12.0107           0
       462 SHT      462      S        C        CA       0.007906       12.0107           0
       463 SHT      463      S        C        CA       0.007906       12.0107           0
       464 SHT      464      S        C        CA       0.007906       12.0107           0
       465 SHT      465      S        C        CA       0.007906       12.0107           0
       466 SHT      466      S        C        CA       0.007906       12.0107           0
       467 SHT      467      S        C        CA       0.007906       12.0107           0
       468 SHT      468      S        C        CA       0.007906       12.0107           0
       469 SHT      469      S        C        CA       0.007906       12.0107           0
       470 SHT      470      S        C        CA       0.007906       12.0107           0
       471 SHT      471      S        C        CA       0.007906       12.0107           0
       472 SHT      472      S        C        CA       0.007906       12.0107           0
       473 SHT      473      S        C        CA       0.007906       12.0107           0
       474 SHT      474      S        C        CA       0.007906       12.0107           0
       475 SHT      475      S        C        CA       0.007906       12.0107           0
       476 SHT      476      S        C        CA       0.007906       12.0107           0
       477 SHT      477      S        C        CA       0.007906       12.0107           0
       478 SHT      478      S        C        CA       0.007906       12.0107           0
       479 SHT      479      S        C        CA       0.007906       12.0107           0
       480 SHT      480      S        C        CA       0.007906       12.0107           0
       481 SHT      481      S        C        CA       0.007906       12.0107           0
       482 SHT      482      S        C        CA       0.007906       12.0107           0
       483 SHT      483      S        C        CA       0.007906       12.0107           0
       484 SHT      484      S        C        CA       0.007906       12.0107           0
       485 SHT      485      S        C        CA       0.007906       12.0107           0
       486 SHT      486      S        C        CA       0.007906       12.0107           0
       487 SHT      487      S        C        CA       0.007906       12.0107           0
       488 SHT      488      S        C        CA       0.007906       12.0107           0
       489 SHT      489      S        C        CA       0.007906       12.0107           0
       490 SHT      490      S        C        CA       0.007906       12.0107           0
       491 SHT      491      S        C        CA       0.007906       12.0107           0
       492 SHT      492      S        C        CA       0.007906       12.0107           0
       493 SHT      493      S        C        CA       0.007906       12.0107           0
       494 SHT      494      S        C        CA       0.007906       12.0107           0
       495 SHT      495      S        C        CA       0.007906       12.0107           0
       496 SHT      496      S        C        CA       0.007906       12.0107           0
       497 SHT      497      S        C        CA       0.007906       12.0107           0
       498 SHT      498      S        C        CA       0.007906       12.0107           0
       499 SHT      499      S        C        CA       0.007906       12.0107           0
       500 SHT      500      S        C        CA       0.007906       12.0107           0
       501 SHT      501      S        C        CA       0.007906       12.0107           0
       502 SHT      502      S        C        CA       0.007906       12.0107           0
       503 SHT      503      S        C        CA       0.007906       12.0107           0
       504 SHT      504      S        C        CA       0.007906       12.0107           0
       505 SHT      505      S        C        CA       0.007906       12.0107           0
       506 SHT      506      S        C        CA       0.007906       12.0107           0
       507 SHT      507      S        C        CA       0.007906       12.0107           0
       508 SHT      508      S        C        CA       0.007906       12.0107           0
       509 SHT      509      S        C        CA       0.007906       12.0107           0
       510 SHT      510      S        C        CA       0.007906       12.0107           0
       511 SHT      511      S        C        CA       0.007906       12.0107           0
       512 SHT      512      S        C        CA       0.007906       12.0107           0
       513 SHT      513      S        C        CA       0.007906       12.0107           0
       514 SHT      514      S        C        CA       0.007906       12.0107           0
       515 SHT      515      S        C        CA       0.007906       12.0107           0
       516 SHT      516      S        C        CA       0.007906       12.0107           0
       517 SHT      517      S        C        CA       0.007906       12.0107           0
       518 SHT      518      S        C        CA       0.007906       12.0107           0
       519 SHT      519      S        C        CA       0.007906       12.0107           0
       520 SHT      520      S        C        CA       0.007906       12.0107           0
       521 SHT      521      S        C        CA       0.007906       12.0107           0
       522 SHT      522      S        C        CA       0.007906       12.0107           0
       523 SHT      523      S        C        CA       0.007906       12.0107           0
       524 SHT      524      S        C        CA       0.007906       12.0107           0
       525 SHT      525      S        C        CA       0.007906       12.0107           0
       526 SHT      526      S        C        CA       0.007906       12.0107           0
       527 SHT      527      S        C        CA       0.007906       12.0107           0
       528 SHT      528      S        C        CA       0.007906       12.0107           0
       529 SHT      529      S        C        CA       0.007906       12.0107           0
       530 SHT      530      S        C        CA       0.007906       12.0107           0
       531 SHT      531      S        C        CA       0.007906       12.0107           0
       532 SHT      532      S        C        CA       0.007906       12.0107           0
       533 SHT      533      S        C        CA       0.007906       12.0107           0
       534 SHT      534      S        C        CA       0.007906       12.0107           0
       535 SHT      535      S        C        CA       0.007906       12.0107           0
       536 SHT      536      S        C        CA       0.007906       12.0107           0
       537 SHT      537      S        C        CA       0.007906       12.0107           0
       538 SHT      538      S        C        CA       0.007906       12.0107           0
       539 SHT      539      S        C        CA       0.007906       12.0107           0
       540 SHT      540      S        C        CA       0.007906       12.0107           0
       541 SHT      541      S        C        CA       0.007906       12.0107           0
       542 SHT      542      S        C        CA       0.007906       12.0107           0
       543 SHT      543      S        C        CA       0.007906       12.0107           0
       544 SHT      544      S        C        CA       0.007906       12.0107           0
       545 SHT      545      S        C        CA       0.007906       12.0107           0
       546 SHT      546      S        C        CA       0.007906       12.0107           0
       547 SHT      547      S        C        CA       0.007906       12.0107           0
       548 SHT      548      S        C        CA       0.007906       12.0107           0
       549 SHT      549      S        C        CA       0.007906       12.0107           0
       550 SHT      550      S        C        CA       0.007906       12.0107           0
       551 SHT      551      S        C        CA       0.007906       12.0107           0
       552 SHT      552      S        C        CA       0.007906       12.0107           0
       553 SHT      553      S        C        CA       0.007906       12.0107           0
       554 SHT      554      S        C        CA       0.007906       12.0107           0
       555 SHT      555      S        C        CA       0.007906       12.0107           0
       556 SHT      556      S        C        CA       0.007906       12.0107           0
       557 SHT      557      S        C        CA       0.007906       12.0107           0
       558 SHT      558      S        C        CA       0.007906       12.0107           0
       559 SHT      559      S        C        CA       0.007906       12.0107           0
       560 SHT      560      S        C        CA       0.007906       12.0107           0
       561 SHT      561      S        C        CA       0.007906       12.0107           0
       562 SHT      562      S        C        CA       0.007906       12.0107           0
       563 SHT      563      S        C        CA       0.007906       12.0107           0
       564 SHT      564      S        C        CA       0.007906       12.0107           0
       565 SHT      565      S        C        CA       0.007906       12.0107           0
       566 SHT      566      S        C        CA       0.007906       12.0107           0
       567 SHT      567      S        C        CA       0.007906       12.0107           0
       568 SHT      568      S        C        CA       0.007906       12.0107           0
       569 SHT      569      S        C        CA       0.007906       12.0107           0
       570 SHT      570      S        C        CA       0.007906       12.0107           0
       571 SHT      571      S        C        CA       0.007906       12.0107           0
       572 SHT      572      S        C        CA       0.007906       12.0107           0
       573 SHT      573      S        C        CA       0.007906       12.0107           0
       574 SHT      574      S        C        CA       0.007906       12.0107           0
       575 SHT      575      S        C        CA       0.007906       12.0107           0
       576 SHT      576      S        C        CA       0.007906       12.0107           0
       577 SHT      577      S        C        CA       0.007906       12.0107           0
       578 SHT      578      S        C        CA       0.007906       12.0107           0
       579 SHT      579      S        C        CA       0.007906       12.0107           0
       580 SHT      580      S        C        CA       0.007906       12.0107           0
       581 SHT      581      S        C        CA       0.007906       12.0107           0
       582 SHT      582      S        C        CA       0.007906       12.0107           0
       583 SHT      583      S        C        CA       0.007906       12.0107           0
       584 SHT      584      S        C        CA       0.007906       12.0107           0
       585 SHT      585      S        C        CA       0.007906       12.0107           0
       586 SHT      586      S        C        CA       0.007906       12.0107           0
       587 SHT      587      S        C        CA       0.007906       12.0107           0
       588 SHT      588      S        C        CA       0.007906       12.0107           0
       589 SHT      589      S        C        CA       0.007906       12.0107           0
       590 SHT      590      S        C        CA       0.007906       12.0107           0
       591 SHT      591      S        C        CA       0.007906       12.0107           0
       592 SHT      592      S        C        CA       0.007906       12.0107           0
       593 SHT      593      S        C        CA       0.007906       12.0107           0
       594 SHT      594      S        C        CA       0.007906       12.0107           0
       595 SHT      595      S        C        CA       0.007906       12.0107           0
       596 SHT      596      S        C        CA       0.007906       12.0107           0
       597 SHT      597      S        C        CA       0.007906       12.0107           0
       598 SHT      598      S        C        CA       0.007906       12.0107           0
       599 SHT      599      S        C        CA       0.007906       12.0107           0
       600 SHT      600      S        C        CA       0.007906       12.0107           0
       601 SHT      601      S        C        CA       0.007906       12.0107           0
       602 SHT      602      S        C        CA       0.007906       12.0107           0
       603 SHT      603      S        C        CA       0.007906       12.0107           0
       604 SHT      604      S        C        CA       0.007906       12.0107           0
       605 SHT      605      S        C        CA       0.007906       12.0107           0
       606 SHT      606      S        C        CA       0.007906       12.0107           0
       607 SHT      607      S        C        CA       0.007906       12.0107           0
       608 SHT      608      S        C        CA       0.007906       12.0107           0
       609 SHT      609      S        C        CA       0.007906       12.0107           0
       610 SHT      610      S        C        CA       0.007906       12.0107           0
       611 SHT      611      S        C        CA       0.007906       12.0107           0
       612 SHT      612      S        C        CA       0.007906       12.0107           0
       613 SHT      613      S        C        CA       0.007906       12.0107           0
       614 SHT      614      S        C        CA       0.007906       12.0107           0
       615 SHT      615      S        C        CA       0.007906       12.0107           0
       616 SHT      616      S        C        CA       0.007906       12.0107           0
       617 SHT      617      S        C        CA       0.007906       12.0107           0
       618 SHT      618      S        C        CA       0.007906       12.0107           0
       619 SHT      619      S        C        CA       0.007906       12.0107           0
       620 SHT      620      S        C        CA       0.007906       12.0107           0
       621 SHT      621      S        C        CA       0.007906       12.0107           0
       622 SHT      622      S        C        CA       0.007906       12.0107           0
       623 SHT      623      S        C        CA       0.007906       12.0107           0
       624 SHT      624      S        C        CA       0.007906       12.0107           0
       625 SHT      625      S        C        CA       0.007906       12.0107           0
       626 SHT      626      S        C        CA       0.007906       12.0107           0
       627 SHT      627      S        C        CA       0.007906       12.0107           0
       628 SHT      628      S        C        CA       0.007906       12.0107           0
       629 SHT      629      S        C        CA       0.007906       12.0107           0
       630 SHT      630      S        C        CA       0.007906       12.0107           0
       631 SHT      631      S        C        CA       0.007906       12.0107           0
       632 SHT      632      S        C        CA       0.007906       12.0107           0
       633 SHT      633      S        C        CA       0.007906       12.0107           0
       634 SHT      634      S        C        CA       0.007906       12.0107           0
       635 SHT      635      S        C        CA       0.007906       12.0107           0
       636 SHT      636      S        C        CA       0.007906       12.0107           0
       637 SHT      637      S        C        CA       0.007906       12.0107           0
       638 SHT      638      S        C        CA       0.007906       12.0107           0
       639 SHT      639      S        C        CA       0.007906       12.0107           0
       640 SHT      640      S        C        CA       0.007906       12.0107           0
       641 SHT      641      S        C        CA       0.007906       12.0107           0
       642 SHT      642      S        C        CA       0.007906       12.0107           0
       643 SHT      643      S        C        CA       0.007906       12.0107           0
       644 SHT      644      S        C        CA       0.007906       12.0107           0
       645 SHT      645      S        C        CA       0.007906       12.0107           0
       646 SHT      646      S        C        CA       0.007906       12.0107           0
       647 SHT      647      S        C        CA       0.007906       12.0107           0
       648 SHT      648      S        C        CA       0.007906       12.0107           0
       649 SHT      649      S        C        CA       0.007906       12.0107           0
       650 SHT      650      S        C        CA       0.007906       12.0107           0
       651 SHT      651      S        C        CA       0.007906       12.0107           0
       652 SHT      652      S        C        CA       0.007906       12.0107           0
       653 SHT      653      S        C        CA       0.007906       12.0107           0
       654 SHT      654      S        C        CA       0.007906       12.0107           0
       655 SHT      655      S        C        CA       0.007906       12.0107           0
       656 SHT      656      S        C        CA       0.007906       12.0107           0
       657 SHT      657      S        C        CA       0.007906       12.0107           0
       658 SHT      658      S        C        CA       0.007906       12.0107           0
       659 SHT      659      S        C        CA       0.007906       12.0107           0
       660 SHT      660      S        C        CA       0.007906       12.0107           0
       661 SHT      661      S        C        CA       0.007906       12.0107           0
       662 SHT      662      S        C        CA       0.007906       12.0107           0
       663 SHT      663      S        C        CA       0.007906       12.0107           0
       664 SHT      664      S        C        CA       0.007906       12.0107           0
       665 SHT      665      S        C        CA       0.007906       12.0107           0
       666 SHT      666      S        C        CA       0.007906       12.0107           0
       667 SHT      667      S        C        CA       0.007906       12.0107           0
       668 SHT      668      S        C        CA       0.007906       12.0107           0
       669 SHT      669      S        C        CA       0.007906       12.0107           0
       670 SHT      670      S        C        CA       0.007906       12.0107           0
       671 SHT      671      S        C        CA       0.007906       12.0107           0
       672 SHT      672      S        C        CA       0.007906       12.0107           0
       673 SHT      673      S        C        CA       0.007906       12.0107           0
       674 SHT      674      S        C        CA       0.007906       12.0107           0
       675 SHT      675      S        C        CA       0.007906       12.0107           0
       676 SHT      676      S        C        CA       0.007906       12.0107           0
       677 SHT      677      S        C        CA       0.007906       12.0107           0
       678 SHT      678      S        C        CA       0.007906       12.0107           0
       679 SHT      679      S        C        CA       0.007906       12.0107           0
       680 SHT      680      S        C        CA       0.007906       12.0107           0
       681 SHT      681      S        C        CA       0.007906       12.0107           0
       682 SHT      682      S        C        CA       0.007906       12.0107           0
       683 SHT      683      S        C        CA       0.007906       12.0107           0
       684 SHT      684      S        C        CA       0.007906       12.0107           0
       685 SHT      685      S        C        CA       0.007906       12.0107           0
       686 SHT      686      S        C        CA       0.007906       12.0107           0
       687 SHT      687      S        C        CA       0.007906       12.0107           0
       688 SHT      688      S        C        CA       0.007906       12.0107           0
       689 SHT      689      S        C        CA       0.007906       12.0107           0
       690 SHT      690      S        C        CA       0.007906       12.0107           0
       691 SHT      691      S        C        CA       0.007906       12.0107           0
       692 SHT      692      S        C        CA       0.007906       12.0107           0
       693 SHT      693      S        C        CA       0.007906       12.0107           0
       694 SHT      694      S        C        CA       0.007906       12.0107           0
       695 SHT      695      S        C        CA       0.007906       12.0107           0
       696 SHT      696      S        C        CA       0.007906       12.0107           0
       697 SHT      697      S        C        CA       0.007906       12.0107           0
       698 SHT      698      S        C        CA       0.007906       12.0107           0
       699 SHT      699      S        C        CA       0.007906       12.0107           0
       700 SHT      700      S        C        CA       0.007906       12.0107           0
       701 SHT      701      S        C        CA       0.007906       12.0107           0
       702 SHT      702      S        C        CA       0.007906       12.0107           0
       703 SHT      703      S        C        CA       0.007906       12.0107           0
       704 SHT      704      S        C        CA       0.007906       12.0107           0
       705 SHT      705      S        C        CA       0.007906       12.0107           0
       706 SHT      706      S        C        CA       0.007906       12.0107           0
       707 SHT      707      S        C        CA       0.007906       12.0107           0
       708 SHT      708      S        C        CA       0.007906       12.0107           0
       709 SHT      709      S        C        CA       0.007906       12.0107           0
       710 SHT      710      S        C        CA       0.007906       12.0107           0
       711 SHT      711      S        C        CA       0.007906       12.0107           0
       712 SHT      712      S        C        CA       0.007906       12.0107           0
       713 SHT      713      S        C        CA       0.007906       12.0107           0
       714 SHT      714      S        C        CA       0.007906       12.0107           0
       715 SHT      715      S        C        CA       0.007906       12.0107           0
       716 SHT      716      S        C        CA       0.007906       12.0107           0
       717 SHT      717      S        C        CA       0.007906       12.0107           0
       718 SHT      718      S        C        CA       0.007906       12.0107           0
       719 SHT      719      S        C        CA       0.007906       12.0107           0
       720 SHT      720      S        C        CA       0.007906       12.0107           0
       721 SHT      721      S        C        CA       0.007906       12.0107           0
       722 SHT      722      S        C        CA       0.007906       12.0107           0
       723 SHT      723      S        C        CA       0.007906       12.0107           0
       724 SHT      724      S        C        CA       0.007906       12.0107           0
       725 SHT      725      S        C        CA       0.007906       12.0107           0
       726 SHT      726      S        C        CA       0.007906       12.0107           0
       727 SHT      727      S        C        CA       0.007906       12.0107           0
       728 SHT      728      S        C        CA       0.007906       12.0107           0
       729 SHT      729      S        C        CA       0.007906       12.0107           0
       730 SHT      730      S        C        CA       0.007906       12.0107           0
       731 SHT      731      S        C        CA       0.007906       12.0107           0
       732 SHT      732      S        C        CA       0.007906       12.0107           0
       733 SHT      733      S        C        CA       0.007906       12.0107           0
       734 SHT      734      S        C        CA       0.007906       12.0107           0
       735 SHT      735      S        C        CA       0.007906       12.0107           0
       736 SHT      736      S        C        CA       0.007906       12.0107           0
       737 SHT      737      S        C        CA       0.007906       12.0107           0
       738 SHT      738      S        C        CA       0.007906       12.0107           0
       739 SHT      739      S        C        CA       0.007906       12.0107           0
       740 SHT      740      S        C        CA       0.007906       12.0107           0
       741 SHT      741      S        C        CA       0.007906       12.0107           0
       742 SHT      742      S        C        CA       0.007906       12.0107           0
       743 SHT      743      S        C        CA       0.007906       12.0107           0
       744 SHT      744      S        C        CA       0.007906       12.0107           0
       745 SHT      745      S        C        CA       0.007906       12.0107           0
       746 SHT      746      S        C        CA       0.007906       12.0107           0
       747 SHT      747      S        C        CA       0.007906       12.0107           0
       748 SHT      748      S        C        CA       0.007906       12.0107           0
       749 SHT      749      S        C        CA       0.007906       12.0107           0
       750 SHT      750      S        C        CA       0.007906       12.0107           0
       751 SHT      751      S        C        CA       0.007906       12.0107           0
       752 SHT      752      S        C        CA       0.007906       12.0107           0
       753 SHT      753      S        C        CA       0.007906       12.0107           0
       754 SHT      754      S        C        CA       0.007906       12.0107           0
       755 SHT      755      S        C        CA       0.007906       12.0107           0
       756 SHT      756      S        C        CA       0.007906       12.0107           0
       757 SHT      757      S        C        CA       0.007906       12.0107           0
       758 SHT      758      S        C        CA       0.007906       12.0107           0
       759 SHT      759      S        C        CA       0.007906       12.0107           0
       760 SHT      760      S        C        CA       0.007906       12.0107           0
       761 SHT      761      S        C        CA       0.007906       12.0107           0
       762 SHT      762      S        C        CA       0.007906       12.0107           0
       763 SHT      763      S        C        CA       0.007906       12.0107           0
       764 SHT      764      S        C        CA       0.007906       12.0107           0
       765 SHT      765      S        C        CA       0.007906       12.0107           0
       766 SHT      766      S        C        CA       0.007906       12.0107           0
       767 SHT      767      S        C        CA       0.007906       12.0107           0
       768 SHT      768      S        C        CA       0.007906       12.0107           0
       769 SHT      769      S        C        CA       0.007906       12.0107           0
       770 SHT      770      S        C        CA       0.007906       12.0107           0
       771 SHT      771      S        C        CA       0.007906       12.0107           0
       772 SHT      772      S        C        CA       0.007906       12.0107           0
       773 SHT      773      S        C        CA       0.007906       12.0107           0
       774 SHT      774      S        C        CA       0.007906       12.0107           0
       775 SHT      775      S        C        CA       0.007906       12.0107           0
       776 SHT      776      S        C        CA       0.007906       12.0107           0
       777 SHT      777      S        C        CA       0.007906       12.0107           0
       778 SHT      778      S        C        CA       0.007906       12.0107           0
       779 SHT      779      S        C        CA       0.007906       12.0107           0
       780 SHT      780      S        C        CA       0.007906       12.0107           0
       781 SHT      781      S        C        CA       0.007906       12.0107           0
       782 SHT      782      S        C        CA       0.007906       12.0107           0
       783 SHT      783      S        C        CA       0.007906       12.0107           0
       784 SHT      784      S        C        CA       0.007906       12.0107           0
       785 SHT      785      S        C        CA       0.007906       12.0107           0
       786 SHT      786      S        C        CA       0.007906       12.0107           0
       787 SHT      787      S        C        CA       0.007906       12.0107           0
       788 SHT      788      S        C        CA       0.007906       12.0107           0
       789 SHT      789      S        C        CA       0.007906       12.0107           0
       790 SHT      790      S        C        CA       0.007906       12.0107           0
       791 SHT      791      S        C        CA       0.007906       12.0107           0
       792 SHT      792      S        C        CA       0.007906       12.0107           0
       793 SHT      793      S        C        CA       0.007906       12.0107           0
       794 SHT      794      S        C        CA       0.007906       12.0107           0
       795 SHT      795      S        C        CA       0.007906       12.0107           0
       796 SHT      796      S        C        CA       0.007906       12.0107           0
       797 SHT      797      S        C        CA       0.007906       12.0107           0
       798 SHT      798      S        C        CA       0.007906       12.0107           0
       799 SHT      799      S        C        CA       0.007906       12.0107           0
       800 SHT      800      S        C        CA       0.007906       12.0107           0
       801 SHT      801      S        C        CA       0.007906       12.0107           0
       802 SHT      802      S        C        CA       0.007906       12.0107           0
       803 SHT      803      S        C        CA       0.007906       12.0107           0
       804 SHT      804      S        C        CA       0.007906       12.0107           0
       805 SHT      805      S        C        CA       0.007906       12.0107           0
       806 SHT      806      S        C        CA       0.007906       12.0107           0
       807 SHT      807      S        C        CA       0.007906       12.0107           0
       808 SHT      808      S        C        CA       0.007906       12.0107           0
       809 SHT      809      S        C        CA       0.007906       12.0107           0
       810 SHT      810      S        C        CA       0.007906       12.0107           0
       811 SHT      811      S        C        CA       0.007906       12.0107           0
       812 SHT      812      S        C        CA       0.007906       12.0107           0
       813 SHT      813      S        C        CA       0.007906       12.0107           0
       814 SHT      814      S        C        CA       0.007906       12.0107           0
       815 SHT      815      S        C        CA       0.007906       12.0107           0
       816 SHT      816      S        C        CA       0.007906       12.0107           0
       817 SHT      817      S        C        CA       0.007906       12.0107           0
       818 SHT      818      S        C        CA       0.007906       12.0107           0
       819 SHT      819      S        C        CA       0.007906       12.0107           0
       820 SHT      820      S        C        CA       0.007906       12.0107           0
       821 SHT      821      S        C        CA       0.007906       12.0107           0
       822 SHT      822      S        C        CA       0.007906       12.0107           0
       823 SHT      823      S        C        CA       0.007906       12.0107           0
       824 SHT      824      S        C        CA       0.007906       12.0107           0
       825 SHT      825      S        C        CA       0.007906       12.0107           0
       826 SHT      826      S        C        CA       0.007906       12.0107           0
       827 SHT      827      S        C        CA       0.007906       12.0107           0
       828 SHT      828      S        C        CA       0.007906       12.0107           0
       829 SHT      829      S        C        CA       0.007906       12.0107           0
       830 SHT      830      S        C        CA       0.007906       12.0107           0
       831 SHT      831      S        C        CA       0.007906       12.0107           0
       832 SHT      832      S        C        CA       0.007906       12.0107           0
       833 SHT      833      S        C        CA       0.007906       12.0107           0
       834 SHT      834      S        C        CA       0.007906       12.0107           0
       835 SHT      835      S        C        CA       0.007906       12.0107           0
       836 SHT      836      S        C        CA       0.007906       12.0107           0
       837 SHT      837      S        C        CA       0.007906       12.0107           0
       838 SHT      838      S        C        CA       0.007906       12.0107           0
       839 SHT      839      S        C        CA       0.007906       12.0107           0
       840 SHT      840      S        C        CA       0.007906       12.0107           0
       841 SHT      841      S        C        CA       0.007906       12.0107           0
       842 SHT      842      S        C        CA       0.007906       12.0107           0
       843 SHT      843      S        C        CA       0.007906       12.0107           0
       844 SHT      844      S        C        CA       0.007906       12.0107           0
       845 SHT      845      S        C        CA       0.007906       12.0107           0
       846 SHT      846      S        C        CA       0.007906       12.0107           0
       847 SHT      847      S        C        CA       0.007906       12.0107           0
       848 SHT      848      S        C        CA       0.007906       12.0107           0
       849 SHT      849      S        C        CA       0.007906       12.0107           0
       850 SHT      850      S        C        CA       0.007906       12.0107           0
       851 SHT      851      S        C        CA       0.007906       12.0107           0
       852 SHT      852      S        C        CA       0.007906       12.0107           0
       853 SHT      853      S        C        CA       0.007906       12.0107           0
       854 SHT      854      S        C        CA       0.007906       12.0107           0
       855 SHT      855      S        C        CA       0.007906       12.0107           0
       856 SHT      856      S        C        CA       0.007906       12.0107           0
       857 SHT      857      S        C        CA       0.007906       12.0107           0
       858 SHT      858      S        C        CA       0.007906       12.0107           0
       859 SHT      859      S        C        CA       0.007906       12.0107           0
       860 SHT      860      S        C        CA       0.007906       12.0107           0
       861 SHT      861      S        C        CA       0.007906       12.0107           0
       862 SHT      862      S        C        CA       0.007906       12.0107           0
       863 SHT      863      S        C        CA       0.007906       12.0107           0
       864 SHT      864      S        C        CA       0.007906       12.0107           0
       865 SHT      865      S        C        CA       0.007906       12.0107           0
       866 SHT      866      S        C        CA       0.007906       12.0107           0
       867 SHT      867      S        C        CA       0.007906       12.0107           0
       868 SHT      868      S        C        CA       0.007906       12.0107           0
       869 SHT      869      S        C        CA       0.007906       12.0107           0
       870 SHT      870      S        C        CA       0.007906       12.0107           0
       871 SHT      871      S        C        CA       0.007906       12.0107           0
       872 SHT      872      S        C        CA       0.007906       12.0107           0
       873 SHT      873      S        C        CA       0.007906       12.0107           0
       874 SHT      874      S        C        CA       0.007906       12.0107           0
       875 SHT      875      S        C        CA       0.007906       12.0107           0
       876 SHT      876      S        C        CA       0.007906       12.0107           0
       877 SHT      877      S        C        CA       0.007906       12.0107           0
       878 SHT      878      S        C        CA       0.007906       12.0107           0
       879 SHT      879      S        C        CA       0.007906       12.0107           0
       880 SHT      880      S        C        CA       0.007906       12.0107           0
       881 SHT      881      S        C        CA       0.007906       12.0107           0
       882 SHT      882      S        C        CA       0.007906       12.0107           0
       883 SHT      883      S        C        CA       0.007906       12.0107           0
       884 SHT      884      S        C        CA       0.007906       12.0107           0
       885 SHT      885      S        C        CA       0.007906       12.0107           0
       886 SHT      886      S        C        CA       0.007906       12.0107           0
       887 SHT      887      S        C        CA       0.007906       12.0107           0
       888 SHT      888      S        C        CA       0.007906       12.0107           0
       889 SHT      889      S        C        CA       0.007906       12.0107           0
       890 SHT      890      S        C        CA       0.007906       12.0107           0
       891 SHT      891      S        C        CA       0.007906       12.0107           0
       892 SHT      892      S        C        CA       0.007906       12.0107           0
       893 SHT      893      S        C        CA       0.007906       12.0107           0
       894 SHT      894      S        C        CA       0.007906       12.0107           0
       895 SHT      895      S        C        CA       0.007906       12.0107           0
       896 SHT      896      S        C        CA       0.007906       12.0107           0
       897 SHT      897      S        C        CA       0.007906       12.0107           0
       898 SHT      898      S        C        CA       0.007906       12.0107           0
       899 SHT      899      S        C        CA       0.007906       12.0107           0
       900 SHT      900      S        C        CA       0.007906       12.0107           0
       901 SHT      901      S        C        CA       0.007906       12.0107           0
       902 SHT      902      S        C        CA       0.007906       12.0107           0
       903 SHT      903      S        C        CA       0.007906       12.0107           0
       904 SHT      904      S        C        CA       0.007906       12.0107           0
       905 SHT      905      S        C        CA       0.007906       12.0107           0
       906 SHT      906      S        C        CA       0.007906       12.0107           0
       907 SHT      907      S        C        CA       0.007906       12.0107           0
       908 SHT      908      S        C        CA       0.007906       12.0107           0
       909 SHT      909      S        C        CA       0.007906       12.0107           0
       910 SHT      910      S        C        CA       0.007906       12.0107           0
       911 SHT      911      S        C        CA       0.007906       12.0107           0
       912 SHT      912      S        C        CA       0.007906       12.0107           0
       913 SHT      913      S        C        CA       0.007906       12.0107           0
       914 SHT      914      S        C        CA       0.007906       12.0107           0
       915 SHT      915      S        C        CA       0.007906       12.0107           0
       916 SHT      916      S        C        CA       0.007906       12.0107           0
       917 SHT      917      S        C        CA       0.007906       12.0107           0
       918 SHT      918      S        C        CA       0.007906       12.0107           0
       919 SHT      919      S        C        CA       0.007906       12.0107           0
       920 SHT      920      S        C        CA       0.007906       12.0107           0
       921 SHT      921      S        C        CA       0.007906       12.0107           0
       922 SHT      922      S        C        CA       0.007906       12.0107           0
       923 SHT      923      S        C        CA       0.007906       12.0107           0
       924 SHT      924      S        C        CA       0.007906       12.0107           0
       925 SHT      925      S        C        CA       0.007906       12.0107           0
       926 SHT      926      S        C        CA       0.007906       12.0107           0
       927 SHT      927      S        C        CA       0.007906       12.0107           0
       928 SHT      928      S        C        CA       0.007906       12.0107           0
       929 SHT      929      S        C        CA       0.007906       12.0107           0
       930 SHT      930      S        C        CA       0.007906       12.0107           0
       931 SHT      931      S        C        CA       0.007906       12.0107           0
       932 SHT      932      S        C        CA       0.007906       12.0107           0
       933 SHT      933      S        C        CA       0.007906       12.0107           0
       934 SHT      934      S        C        CA       0.007906       12.0107           0
       935 SHT      935      S        C        CA       0.007906       12.0107           0
       936 SHT      936      S        C        CA       0.007906       12.0107           0
       937 SHT      937      S        C        CA       0.007906       12.0107           0
       938 SHT      938      S        C        CA       0.007906       12.0107           0
       939 SHT      939      S        C        CA       0.007906       12.0107           0
       940 SHT      940      S        C        CA       0.007906       12.0107           0
       941 SHT      941      S        C        CA       0.007906       12.0107           0
       942 SHT      942      S        C        CA       0.007906       12.0107           0
       943 SHT      943      S        C        CA       0.007906       12.0107           0
       944 SHT      944      S        C        CA       0.007906       12.0107           0
       945 SHT      945      S        C        CA       0.007906       12.0107           0
       946 SHT      946      S        C        CA       0.007906       12.0107           0
       947 SHT      947      S        C        CA       0.007906       12.0107           0
       948 SHT      948      S        C        CA       0.007906       12.0107           0
       949 SHT      949      S        C        CA       0.007906       12.0107           0
       950 SHT      950      S        C        CA       0.007906       12.0107           0
       951 SHT      951      S        C        CA       0.007906       12.0107           0
       952 SHT      952      S        C        CA       0.007906       12.0107           0
       953 SHT      953      S        C        CA       0.007906       12.0107           0
       954 SHT      954      S        C        CA       0.007906       12.0107           0
       955 SHT      955      S        C        CA       0.007906       12.0107           0
       956 SHT      956      S        C        CA       0.007906       12.0107           0
       957 SHT      957      S        C        CA       0.007906       12.0107           0
       958 SHT      958      S        C        CA       0.007906       12.0107           0
       959 SHT      959      S        C        CA       0.007906       12.0107           0
       960 SHT      960      S        C        CA       0.007906       12.0107           0
       961 SHT      961      S        C        CA       0.007906       12.0107           0
       962 SHT      962      S        C        CA       0.007906       12.0107           0
       963 SHT      963      S        C        CA       0.007906       12.0107           0
       964 SHT      964      S        C        CA       0.007906       12.0107           0
       965 SHT      965      S        C        CA       0.007906       12.0107           0
       966 SHT      966      S        C        CA       0.007906       12.0107           0
       967 SHT      967      S        C        CA       0.007906       12.0107           0
       968 SHT      968      S        C        CA       0.007906       12.0107           0
       969 SHT      969      S        C        CA       0.007906       12.0107           0
       970 SHT      970      S        C        CA       0.007906       12.0107           0
       971 SHT      971      S        C        CA       0.007906       12.0107           0
       972 SHT      972      S        C        CA       0.007906       12.0107           0
       973 SHT      973      S        C        CA       0.007906       12.0107           0
       974 SHT      974      S        C        CA       0.007906       12.0107           0
       975 SHT      975      S        C        CA       0.007906       12.0107           0
       976 SHT      976      S        C        CA       0.007906       12.0107           0
       977 SHT      977      S        C        CA       0.007906       12.0107           0
       978 SHT      978      S        C        CA       0.007906       12.0107           0
       979 SHT      979      S        C        CA       0.007906       12.0107           0
       980 SHT      980      S        C        CA       0.007906       12.0107           0
       981 SHT      981      S        C        CA       0.007906       12.0107           0
       982 SHT      982      S        C        CA       0.007906       12.0107           0
       983 SHT      983      S        C        CA       0.007906       12.0107           0
       984 SHT      984      S        C        CA       0.007906       12.0107           0
       985 SHT      985      S        C        CA       0.007906       12.0107           0
       986 SHT      986      S        C        CA       0.007906       12.0107           0
       987 SHT      987      S        C        CA       0.007906       12.0107           0
       988 SHT      988      S        C        CA       0.007906       12.0107           0
       989 SHT      989      S        C        CA       0.007906       12.0107           0
       990 SHT      990      S        C        CA       0.007906       12.0107           0
       991 SHT      991      S        C        CA       0.007906       12.0107           0
       992 SHT      992      S        C        CA       0.007906       12.0107           0
       993 SHT      993      S        C        CA       0.007906       12.0107           0
       994 SHT      994      S        C        CA       0.007906       12.0107           0
       995 SHT      995      S        C        CA       0.007906       12.0107           0
       996 SHT      996      S        C        CA       0.007906       12.0107           0
       997 SHT      997      S        C        CA       0.007906       12.0107           0
       998 SHT      998      S        C        CA       0.007906       12.0107           0
       999 SHT      999      S        C        CA       0.007906       12.0107           0
      1000 SHT      1000     S        C        CA       0.007906       12.0107           0
      1001 SHT      1001     S        C        CA       0.007906       12.0107           0
      1002 SHT      1002     S        C        CA       0.007906       12.0107           0
      1003 SHT      1003     S        C        CA       0.007906       12.0107           0
      1004 SHT      1004     S        C        CA       0.007906       12.0107           0
      1005 SHT      1005     S        C        CA       0.007906       12.0107           0
      1006 SHT      1006     S        C        CA       0.007906       12.0107           0
      1007 SHT      1007     S        C        CA       0.007906       12.0107           0
      1008 SHT      1008     S        C        CA       0.007906       12.0107           0
      1009 SHT      1009     S        C        CA       0.007906       12.0107           0
      1010 SHT      1010     S        C        CA       0.007906       12.0107           0
      1011 SHT      1011     S        C        CA       0.007906       12.0107           0
      1012 SHT      1012     S        C        CA       0.007906       12.0107           0
      1013 SHT      1013     S        C        CA       0.007906       12.0107           0
      1014 SHT      1014     S        C        CA       0.007906       12.0107           0
      1015 SHT      1015     S        C        CA       0.007906       12.0107           0
      1016 SHT      1016     S        C        CA       0.007906       12.0107           0
      1017 SHT      1017     S        C        CA       0.007906       12.0107           0
      1018 SHT      1018     S        C        CA       0.007906       12.0107           0
      1019 SHT      1019     S        C        CA       0.007906       12.0107           0
      1020 SHT      1020     S        C        CA       0.007906       12.0107           0
      1021 SHT      1021     S        C        CA       0.007906       12.0107           0
      1022 SHT      1022     S        C        CA       0.007906       12.0107           0
      1023 SHT      1023     S        C        CA       0.007906       12.0107           0
      1024 SHT      1024     S        C        CA       0.007906       12.0107           0
      1025 SHT      1025     S        C        CA       0.007906       12.0107           0
      1026 SHT      1026     S        C        CA       0.007906       12.0107           0
      1027 SHT      1027     S        C        CA       0.007906       12.0107           0
      1028 SHT      1028     S        C        CA       0.007906       12.0107           0
      1029 SHT      1029     S        C        CA       0.007906       12.0107           0
      1030 SHT      1030     S        C        CA       0.007906       12.0107           0
      1031 SHT      1031     S        C        CA       0.007906       12.0107           0
      1032 SHT      1032     S        C        CA       0.007906       12.0107           0
      1033 SHT      1033     S        C        CA       0.007906       12.0107           0
      1034 SHT      1034     S        C        CA       0.007906       12.0107           0
      1035 SHT      1035     S        C        CA       0.007906       12.0107           0
      1036 SHT      1036     S        C        CA       0.007906       12.0107           0
      1037 SHT      1037     S        C        CA       0.007906       12.0107           0
      1038 SHT      1038     S        C        CA       0.007906       12.0107           0
      1039 SHT      1039     S        C        CA       0.007906       12.0107           0
      1040 SHT      1040     S        C        CA       0.007906       12.0107           0
      1041 SHT      1041     S        C        CA       0.007906       12.0107           0
      1042 SHT      1042     S        C        CA       0.007906       12.0107           0
      1043 SHT      1043     S        C        CA       0.007906       12.0107           0
      1044 SHT      1044     S        C        CA       0.007906       12.0107           0
      1045 SHT      1045     S        C        CA       0.007906       12.0107           0
      1046 SHT      1046     S        C        CA       0.007906       12.0107           0
      1047 SHT      1047     S        C        CA       0.007906       12.0107           0
      1048 SHT      1048     S        C        CA       0.007906       12.0107           0
      1049 SHT      1049     S        C        CA       0.007906       12.0107           0
      1050 SHT      1050     S        C        CA       0.007906       12.0107           0
      1051 SHT      1051     S        C        CA       0.007906       12.0107           0
      1052 SHT      1052     S        C        CA       0.007906       12.0107           0
      1053 SHT      1053     S        C        CA       0.007906       12.0107           0
      1054 SHT      1054     S        C        CA       0.007906       12.0107           0
      1055 SHT      1055     S        C        CA       0.007906       12.0107           0
      1056 SHT      1056     S        C        CA       0.007906       12.0107           0
      1057 SHT      1057     S        C        CA       0.007906       12.0107           0
      1058 SHT      1058     S        C        CA       0.007906       12.0107           0
      1059 SHT      1059     S        C        CA       0.007906       12.0107           0
      1060 SHT      1060     S        C        CA       0.007906       12.0107           0
      1061 SHT      1061     S        C        CA       0.007906       12.0107           0
      1062 SHT      1062     S        C        CA       0.007906       12.0107           0
      1063 SHT      1063     S        C        CA       0.007906       12.0107           0
      1064 SHT      1064     S        C        CA       0.007906       12.0107           0
      1065 SHT      1065     S        C        CA       0.007906       12.0107           0
      1066 SHT      1066     S        C        CA       0.007906       12.0107           0
      1067 SHT      1067     S        C        CA       0.007906       12.0107           0
      1068 SHT      1068     S        C        CA       0.007906       12.0107           0
      1069 SHT      1069     S        C        CA       0.007906       12.0107           0
      1070 SHT      1070     S        C        CA       0.007906       12.0107           0
      1071 SHT      1071     S        C        CA       0.007906       12.0107           0
      1072 SHT      1072     S        C        CA       0.007906       12.0107           0
      1073 SHT      1073     S        C        CA       0.007906       12.0107           0
      1074 SHT      1074     S        C        CA       0.007906       12.0107           0
      1075 SHT      1075     S        C        CA       0.007906       12.0107           0
      1076 SHT      1076     S        C        CA       0.007906       12.0107           0
      1077 SHT      1077     S        C        CA       0.007906       12.0107           0
      1078 SHT      1078     S        C        CA       0.007906       12.0107           0
      1079 SHT      1079     S        C        CA       0.007906       12.0107           0
      1080 SHT      1080     S        C        CA       0.007906       12.0107           0
      1081 SHT      1081     S        C        CA       0.007906       12.0107           0
      1082 SHT      1082     S        C        CA       0.007906       12.0107           0
      1083 SHT      1083     S        C        CA       0.007906       12.0107           0
      1084 SHT      1084     S        C        CA       0.007906       12.0107           0
      1085 SHT      1085     S        C        CA       0.007906       12.0107           0
      1086 SHT      1086     S        C        CA       0.007906       12.0107           0
      1087 SHT      1087     S        C        CA       0.007906       12.0107           0
      1088 SHT      1088     S        C        CA       0.007906       12.0107           0
      1089 SHT      1089     S        C        CA       0.007906       12.0107           0
      1090 SHT      1090     S        C        CA       0.007906       12.0107           0
      1091 SHT      1091     S        C        CA       0.007906       12.0107           0
      1092 SHT      1092     S        C        CA       0.007906       12.0107           0
      1093 SHT      1093     S        C        CA       0.007906       12.0107           0
      1094 SHT      1094     S        C        CA       0.007906       12.0107           0
      1095 SHT      1095     S        C        CA       0.007906       12.0107           0
      1096 SHT      1096     S        C        CA       0.007906       12.0107           0
      1097 SHT      1097     S        C        CA       0.007906       12.0107           0
      1098 SHT      1098     S        C        CA       0.007906       12.0107           0
      1099 SHT      1099     S        C        CA       0.007906       12.0107           0
      1100 SHT      1100     S        C        CA       0.007906       12.0107           0
      1101 SHT      1101     S        C        CA       0.007906       12.0107           0
      1102 SHT      1102     S        C        CA       0.007906       12.0107           0
      1103 SHT      1103     S        C        CA       0.007906       12.0107           0
      1104 SHT      1104     S        C        CA       0.007906       12.0107           0
      1105 SHT      1105     S        C        CA       0.007906       12.0107           0
      1106 SHT      1106     S        C        CA       0.007906       12.0107           0
      1107 SHT      1107     S        C        CA       0.007906       12.0107           0
      1108 SHT      1108     S        C        CA       0.007906       12.0107           0
      1109 SHT      1109     S        C        CA       0.007906       12.0107           0
      1110 SHT      1110     S        C        CA       0.007906       12.0107           0
      1111 SHT      1111     S        C        CA       0.007906       12.0107           0
      1112 SHT      1112     S        C        CA       0.007906       12.0107           0
      1113 SHT      1113     S        C        CA       0.007906       12.0107           0
      1114 SHT      1114     S        C        CA       0.007906       12.0107           0
      1115 SHT      1115     S        C        CA       0.007906       12.0107           0
      1116 SHT      1116     S        C        CA       0.007906       12.0107           0
      1117 SHT      1117     S        C        CA       0.007906       12.0107           0
      1118 SHT      1118     S        C        CA       0.007906       12.0107           0
      1119 SHT      1119     S        C        CA       0.007906       12.0107           0
      1120 SHT      1120     S        C        CA       0.007906       12.0107           0
      1121 SHT      1121     S        C        CA       0.007906       12.0107           0
      1122 SHT      1122     S        C        CA       0.007906       12.0107           0
      1123 SHT      1123     S        C        CA       0.007906       12.0107           0
      1124 SHT      1124     S        C        CA       0.007906       12.0107           0
      1125 SHT      1125     S        C        CA       0.007906       12.0107           0
      1126 SHT      1126     S        C        CA       0.007906       12.0107           0
      1127 SHT      1127     S        C        CA       0.007906       12.0107           0
      1128 SHT      1128     S        C        CA       0.007906       12.0107           0
      1129 SHT      1129     S        C        CA       0.007906       12.0107           0
      1130 SHT      1130     S        C        CA       0.007906       12.0107           0
      1131 SHT      1131     S        C        CA       0.007906       12.0107           0
      1132 SHT      1132     S        C        CA       0.007906       12.0107           0
      1133 SHT      1133     S        C        CA       0.007906       12.0107           0
      1134 SHT      1134     S        C        CA       0.007906       12.0107           0
      1135 SHT      1135     S        C        CA       0.007906       12.0107           0
      1136 SHT      1136     S        C        CA       0.007906       12.0107           0
      1137 SHT      1137     S        C        CA       0.007906       12.0107           0
      1138 SHT      1138     S        C        CA       0.007906       12.0107           0
      1139 SHT      1139     S        C        CA       0.007906       12.0107           0
      1140 SHT      1140     S        C        CA       0.007906       12.0107           0
      1141 SHT      1141     S        C        CA       0.007906       12.0107           0
      1142 SHT      1142     S        C        CA       0.007906       12.0107           0
      1143 SHT      1143     S        C        CA       0.007906       12.0107           0
      1144 SHT      1144     S        C        CA       0.007906       12.0107           0
      1145 SHT      1145     S        C        CA       0.007906       12.0107           0
      1146 SHT      1146     S        C        CA       0.007906       12.0107           0
      1147 SHT      1147     S        C        CA       0.007906       12.0107           0
      1148 SHT      1148     S        C        CA       0.007906       12.0107           0
      1149 SHT      1149     S        C        CA       0.007906       12.0107           0
      1150 SHT      1150     S        C        CA       0.007906       12.0107           0
      1151 SHT      1151     S        C        CA       0.007906       12.0107           0
      1152 SHT      1152     S        C        CA       0.007906       12.0107           0
      1153 SHT      1153     S        C        CA       0.007906       12.0107           0
      1154 SHT      1154     S        C        CA       0.007906       12.0107           0
      1155 SHT      1155     S        C        CA       0.007906       12.0107           0
      1156 SHT      1156     S        C        CA       0.007906       12.0107           0
      1157 SHT      1157     S        C        CA       0.007906       12.0107           0
      1158 SHT      1158     S        C        CA       0.007906       12.0107           0
      1159 SHT      1159     S        C        CA       0.007906       12.0107           0
      1160 SHT      1160     S        C        CA       0.007906       12.0107           0
      1161 SHT      1161     S        C        CA       0.007906       12.0107           0
      1162 SHT      1162     S        C        CA       0.007906       12.0107           0
      1163 SHT      1163     S        C        CA       0.007906       12.0107           0
      1164 SHT      1164     S        C        CA       0.007906       12.0107           0
      1165 SHT      1165     S        C        CA       0.007906       12.0107           0
      1166 SHT      1166     S        C        CA       0.007906       12.0107           0
      1167 SHT      1167     S        C        CA       0.007906       12.0107           0
      1168 SHT      1168     S        C        CA       0.007906       12.0107           0
      1169 SHT      1169     S        C        CA       0.007906       12.0107           0
      1170 SHT      1170     S        C        CA       0.007906       12.0107           0
      1171 SHT      1171     S        C        CA       0.007906       12.0107           0
      1172 SHT      1172     S        C        CA       0.007906       12.0107           0
      1173 SHT      1173     S        C        CA       0.007906       12.0107           0
      1174 SHT      1174     S        C        CA       0.007906       12.0107           0
      1175 SHT      1175     S        C        CA       0.007906       12.0107           0
      1176 SHT      1176     S        C        CA       0.007906       12.0107           0
      1177 SHT      1177     S        C        CA       0.007906       12.0107           0
      1178 SHT      1178     S        C        CA       0.007906       12.0107           0
      1179 SHT      1179     S        C        CA       0.007906       12.0107           0
      1180 SHT      1180     S        C        CA       0.007906       12.0107           0
      1181 SHT      1181     S        C        CA       0.007906       12.0107           0
      1182 SHT      1182     S        C        CA       0.007906       12.0107           0
      1183 SHT      1183     S        C        CA       0.007906       12.0107           0
      1184 SHT      1184     S        C        CA       0.007906       12.0107           0
      1185 SHT      1185     S        C        CA       0.007906       12.0107           0
      1186 SHT      1186     S        C        CA       0.007906       12.0107           0
      1187 SHT      1187     S        C        CA       0.007906       12.0107           0
      1188 SHT      1188     S        C        CA       0.007906       12.0107           0
      1189 SHT      1189     S        C        CA       0.007906       12.0107           0
      1190 SHT      1190     S        C        CA       0.007906       12.0107           0
      1191 SHT      1191     S        C        CA       0.007906       12.0107           0
      1192 SHT      1192     S        C        CA       0.007906       12.0107           0
      1193 SHT      1193     S        C        CA       0.007906       12.0107           0
      1194 SHT      1194     S        C        CA       0.007906       12.0107           0
      1195 SHT      1195     S        C        CA       0.007906       12.0107           0
      1196 SHT      1196     S        C        CA       0.007906       12.0107           0
      1197 SHT      1197     S        C        CA       0.007906       12.0107           0
      1198 SHT      1198     S        C        CA       0.007906       12.0107           0
      1199 SHT      1199     S        C        CA       0.007906       12.0107           0
      1200 SHT      1200     S        C        CA       0.007906       12.0107           0
      1201 SHT      1201     S        C        CA       0.007906       12.0107           0
      1202 SHT      1202     S        C        CA       0.007906       12.0107           0
      1203 SHT      1203     S        C        CA       0.007906       12.0107           0
      1204 SHT      1204     S        C        CA       0.007906       12.0107           0
      1205 SHT      1205     S        C        CA       0.007906       12.0107           0
      1206 SHT      1206     S        C        CA       0.007906       12.0107           0
      1207 SHT      1207     S        C        CA       0.007906       12.0107           0
      1208 SHT      1208     S        C        CA       0.007906       12.0107           0
      1209 SHT      1209     S        C        CA       0.007906       12.0107           0
      1210 SHT      1210     S        C        CA       0.007906       12.0107           0
      1211 SHT      1211     S        C        CA       0.007906       12.0107           0
      1212 SHT      1212     S        C        CA       0.007906       12.0107           0
      1213 SHT      1213     S        C        CA       0.007906       12.0107           0
      1214 SHT      1214     S        C        CA       0.007906       12.0107           0
      1215 SHT      1215     S        C        CA       0.007906       12.0107           0
      1216 SHT      1216     S        C        CA       0.007906       12.0107           0
      1217 SHT      1217     S        C        CA       0.007906       12.0107           0
      1218 SHT      1218     S        C        CA       0.007906       12.0107           0
      1219 SHT      1219     S        C        CA       0.007906       12.0107           0
      1220 SHT      1220     S        C        CA       0.007906       12.0107           0
      1221 SHT      1221     S        C        CA       0.007906       12.0107           0
      1222 SHT      1222     S        C        CA       0.007906       12.0107           0
      1223 SHT      1223     S        C        CA       0.007906       12.0107           0
      1224 SHT      1224     S        C        CA       0.007906       12.0107           0
      1225 SHT      1225     S        C        CA       0.007906       12.0107           0
      1226 SHT      1226     S        C        CA       0.007906       12.0107           0
      1227 SHT      1227     S        C        CA       0.007906       12.0107           0
      1228 SHT      1228     S        C        CA       0.007906       12.0107           0
      1229 SHT      1229     S        C        CA       0.007906       12.0107           0
      1230 SHT      1230     S        C        CA       0.007906       12.0107           0
      1231 SHT      1231     S        C        CA       0.007906       12.0107           0
      1232 SHT      1232     S        C        CA       0.007906       12.0107           0
      1233 SHT      1233     S        C        CA       0.007906       12.0107           0
      1234 SHT      1234     S        C        CA       0.007906       12.0107           0
      1235 SHT      1235     S        C        CA       0.007906       12.0107           0
      1236 SHT      1236     S        C        CA       0.007906       12.0107           0
      1237 SHT      1237     S        C        CA       0.007906       12.0107           0
      1238 SHT      1238     S        C        CA       0.007906       12.0107           0
      1239 SHT      1239     S        C        CA       0.007906       12.0107           0
      1240 SHT      1240     S        C        CA       0.007906       12.0107           0
      1241 SHT      1241     S        C        CA       0.007906       12.0107           0
      1242 SHT      1242     S        C        CA       0.007906       12.0107           0
      1243 SHT      1243     S        C        CA       0.007906       12.0107           0
      1244 SHT      1244     S        C        CA       0.007906       12.0107           0
      1245 SHT      1245     S        C        CA       0.007906       12.0107           0
      1246 SHT      1246     S        C        CA       0.007906       12.0107           0
      1247 SHT      1247     S        C        CA       0.007906       12.0107           0
      1248 SHT      1248     S        C        CA       0.007906       12.0107           0
      1249 SHT      1249     S        C        CA       0.007906       12.0107           0
      1250 SHT      1250     S        C        CA       0.007906       12.0107           0
      1251 SHT      1251     S        C        CA       0.007906       12.0107           0
      1252 SHT      1252     S        C        CA       0.007906       12.0107           0
      1253 SHT      1253     S        C        CA       0.007906       12.0107           0
      1254 SHT      1254     S        C        CA       0.007906       12.0107           0
      1255 SHT      1255     S        C        CA       0.007906       12.0107           0
      1256 SHT      1256     S        C        CA       0.007906       12.0107           0
      1257 SHT      1257     S        C        CA       0.007906       12.0107           0
      1258 SHT      1258     S        C        CA       0.007906       12.0107           0
      1259 SHT      1259     S        C        CA       0.007906       12.0107           0
      1260 SHT      1260     S        C        CA       0.007906       12.0107           0
      1261 SHT      1261     S        C        CA       0.007906       12.0107           0
      1262 SHT      1262     S        C        CA       0.007906       12.0107           0
      1263 SHT      1263     S        C        CA       0.007906       12.0107           0
      1264 SHT      1264     S        C        CA       0.007906       12.0107           0
      1265 SHT      1265     S        C        CA       0.007906       12.0107           0
      1266 SHT      1266     S        C        CA       0.007906       12.0107           0
      1267 SHT      1267     S        C        CA       0.007906       12.0107           0
      1268 SHT      1268     S        C        CA       0.007906       12.0107           0
      1269 SHT      1269     S        C        CA       0.007906       12.0107           0
      1270 SHT      1270     S        C        CA       0.007906       12.0107           0
      1271 SHT      1271     S        C        CA       0.007906       12.0107           0
      1272 SHT      1272     S        C        CA       0.007906       12.0107           0
      1273 SHT      1273     S        C        CA       0.007906       12.0107           0
      1274 SHT      1274     S        C        CA       0.007906       12.0107           0
      1275 SHT      1275     S        C        CA       0.007906       12.0107           0
      1276 SHT      1276     S        C        CA       0.007906       12.0107           0
      1277 SHT      1277     S        C        CA       0.007906       12.0107           0
      1278 SHT      1278     S        C        CA       0.007906       12.0107           0
      1279 SHT      1279     S        C        CA       0.007906       12.0107           0
      1280 SHT      1280     S        C        CA       0.007906       12.0107           0
      1281 SHT      1281     S        C        CA       0.007906       12.0107           0
      1282 SHT      1282     S        C        CA       0.007906       12.0107           0
      1283 SHT      1283     S        C        CA       0.007906       12.0107           0
      1284 SHT      1284     S        C        CA       0.007906       12.0107           0
      1285 SHT      1285     S        C        CA       0.007906       12.0107           0
      1286 SHT      1286     S        C        CA       0.007906       12.0107           0
      1287 SHT      1287     S        C        CA       0.007906       12.0107           0
      1288 SHT      1288     S        C        CA       0.007906       12.0107           0
      1289 SHT      1289     S        C        CA       0.007906       12.0107           0
      1290 SHT      1290     S        C        CA       0.007906       12.0107           0
      1291 SHT      1291     S        C        CA       0.007906       12.0107           0
      1292 SHT      1292     S        C        CA       0.007906       12.0107           0
      1293 SHT      1293     S        C        CA       0.007906       12.0107           0
      1294 SHT      1294     S        C        CA       0.007906       12.0107           0
      1295 SHT      1295     S        C        CA       0.007906       12.0107           0
      1296 SHT      1296     S        C        CA       0.007906       12.0107           0
      1297 SHT      1297     S        C        CA       0.007906       12.0107           0
      1298 SHT      1298     S        C        CA       0.007906       12.0107           0
      1299 SHT      1299     S        C        CA       0.007906       12.0107           0
      1300 SHT      1300     S        C        CA       0.007906       12.0107           0
      1301 SHT      1301     S        C        CA       0.007906       12.0107           0
      1302 SHT      1302     S        C        CA       0.007906       12.0107           0
      1303 SHT      1303     S        C        CA       0.007906       12.0107           0
      1304 SHT      1304     S        C        CA       0.007906       12.0107           0
      1305 SHT      1305     S        C        CA       0.007906       12.0107           0
      1306 SHT      1306     S        C        CA       0.007906       12.0107           0
      1307 SHT      1307     S        C        CA       0.007906       12.0107           0
      1308 SHT      1308     S        C        CA       0.007906       12.0107           0
      1309 SHT      1309     S        C        CA       0.007906       12.0107           0
      1310 SHT      1310     S        C        CA       0.007906       12.0107           0
      1311 SHT      1311     S        C        CA       0.007906       12.0107           0
      1312 SHT      1312     S        C        CA       0.007906       12.0107           0
      1313 SHT      1313     S        C        CA       0.007906       12.0107           0
      1314 SHT      1314     S        C        CA       0.007906       12.0107           0
      1315 SHT      1315     S        C        CA       0.007906       12.0107           0
      1316 SHT      1316     S        C        CA       0.007906       12.0107           0
      1317 SHT      1317     S        C        CA       0.007906       12.0107           0
      1318 SHT      1318     S        C        CA       0.007906       12.0107           0
      1319 SHT      1319     S        C        CA       0.007906       12.0107           0
      1320 SHT      1320     S        C        CA       0.007906       12.0107           0
      1321 SHT      1321     S        C        CA       0.007906       12.0107           0
      1322 SHT      1322     S        C        CA       0.007906       12.0107           0
      1323 SHT      1323     S        C        CA       0.007906       12.0107           0
      1324 SHT      1324     S        C        CA       0.007906       12.0107           0
      1325 SHT      1325     S        C        CA       0.007906       12.0107           0
      1326 SHT      1326     S        C        CA       0.007906       12.0107           0
      1327 SHT      1327     S        C        CA       0.007906       12.0107           0
      1328 SHT      1328     S        C        CA       0.007906       12.0107           0
      1329 SHT      1329     S        C        CA       0.007906       12.0107           0
      1330 SHT      1330     S        C        CA       0.007906       12.0107           0
      1331 SHT      1331     S        C        CA       0.007906       12.0107           0
      1332 SHT      1332     S        C        CA       0.007906       12.0107           0
      1333 SHT      1333     S        C        CA       0.007906       12.0107           0
      1334 SHT      1334     S        C        CA       0.007906       12.0107           0
      1335 SHT      1335     S        C        CA       0.007906       12.0107           0
      1336 SHT      1336     S        C        CA       0.007906       12.0107           0
      1337 SHT      1337     S        C        CA       0.007906       12.0107           0
      1338 SHT      1338     S        C        CA       0.007906       12.0107           0
      1339 SHT      1339     S        C        CA       0.007906       12.0107           0
      1340 SHT      1340     S        C        CA       0.007906       12.0107           0
      1341 SHT      1341     S        C        CA       0.007906       12.0107           0
      1342 SHT      1342     S        C        CA       0.007906       12.0107           0
      1343 SHT      1343     S        C        CA       0.007906       12.0107           0
      1344 SHT      1344     S        C        CA       0.007906       12.0107           0
      1345 SHT      1345     S        C        CA       0.007906       12.0107           0
      1346 SHT      1346     S        C        CA       0.007906       12.0107           0
      1347 SHT      1347     S        C        CA       0.007906       12.0107           0
      1348 SHT      1348     S        C        CA       0.007906       12.0107           0
      1349 SHT      1349     S        C        CA       0.007906       12.0107           0
      1350 SHT      1350     S        C        CA       0.007906       12.0107           0
      1351 SHT      1351     S        C        CA       0.007906       12.0107           0
      1352 SHT      1352     S        C        CA       0.007906       12.0107           0
      1353 SHT      1353     S        C        CA       0.007906       12.0107           0
      1354 SHT      1354     S        C        CA       0.007906       12.0107           0
      1355 SHT      1355     S        C        CA       0.007906       12.0107           0
      1356 SHT      1356     S        C        CA       0.007906       12.0107           0
      1357 SHT      1357     S        C        CA       0.007906       12.0107           0
      1358 SHT      1358     S        C        CA       0.007906       12.0107           0
      1359 SHT      1359     S        C        CA       0.007906       12.0107           0
      1360 SHT      1360     S        C        CA       0.007906       12.0107           0
      1361 SHT      1361     S        C        CA       0.007906       12.0107           0
      1362 SHT      1362     S        C        CA       0.007906       12.0107           0
      1363 SHT      1363     S        C        CA       0.007906       12.0107           0
      1364 SHT      1364     S        C        CA       0.007906       12.0107           0
      1365 SHT      1365     S        C        CA       0.007906       12.0107           0
      1366 SHT      1366     S        C        CA       0.007906       12.0107           0
      1367 SHT      1367     S        C        CA       0.007906       12.0107           0
      1368 SHT      1368     S        C        CA       0.007906       12.0107           0
      1369 SHT      1369     S        C        CA       0.007906       12.0107           0
      1370 SHT      1370     S        C        CA       0.007906       12.0107           0
      1371 SHT      1371     S        C        CA       0.007906       12.0107           0
      1372 SHT      1372     S        C        CA       0.007906       12.0107           0
      1373 SHT      1373     S        C        CA       0.007906       12.0107           0
      1374 SHT      1374     S        C        CA       0.007906       12.0107           0
      1375 SHT      1375     S        C        CA       0.007906       12.0107           0
      1376 SHT      1376     S        C        CA       0.007906       12.0107           0
      1377 SHT      1377     S        C        CA       0.007906       12.0107           0
      1378 SHT      1378     S        C        CA       0.007906       12.0107           0
      1379 SHT      1379     S        C        CA       0.007906       12.0107           0
      1380 SHT      1380     S        C        CA       0.007906       12.0107           0
      1381 SHT      1381     S        C        CA       0.007906       12.0107           0
      1382 SHT      1382     S        C        CA       0.007906       12.0107           0
      1383 SHT      1383     S        C        CA       0.007906       12.0107           0
      1384 SHT      1384     S        C        CA       0.007906       12.0107           0
      1385 SHT      1385     S        C        CA       0.007906       12.0107           0
      1386 SHT      1386     S        C        CA       0.007906       12.0107           0
      1387 SHT      1387     S        C        CA       0.007906       12.0107           0
      1388 SHT      1388     S        C        CA       0.007906       12.0107           0
      1389 SHT      1389     S        C        CA       0.007906       12.0107           0
      1390 SHT      1390     S        C        CA       0.007906       12.0107           0
      1391 SHT      1391     S        C        CA       0.007906       12.0107           0
      1392 SHT      1392     S        C        CA       0.007906       12.0107           0
      1393 SHT      1393     S        C        CA       0.007906       12.0107           0
      1394 SHT      1394     S        C        CA       0.007906       12.0107           0
      1395 SHT      1395     S        C        CA       0.007906       12.0107           0
      1396 SHT      1396     S        C        CA       0.007906       12.0107           0
      1397 SHT      1397     S        C        CA       0.007906       12.0107           0
      1398 SHT      1398     S        C        CA       0.007906       12.0107           0
      1399 SHT      1399     S        C        CA       0.007906       12.0107           0
      1400 SHT      1400     S        C        CA       0.007906       12.0107           0
      1401 SHT      1401     S        C        CA       0.007906       12.0107           0
      1402 SHT      1402     S        C        CA       0.007906       12.0107           0
      1403 SHT      1403     S        C        CA       0.007906       12.0107           0
      1404 SHT      1404     S        C        CA       0.007906       12.0107           0
      1405 SHT      1405     S        C        CA       0.007906       12.0107           0
      1406 SHT      1406     S        C        CA       0.007906       12.0107           0
      1407 SHT      1407     S        C        CA       0.007906       12.0107           0
      1408 SHT      1408     S        C        CA       0.007906       12.0107           0
      1409 SHT      1409     S        C        CA       0.007906       12.0107           0
      1410 SHT      1410     S        C        CA       0.007906       12.0107           0
      1411 SHT      1411     S        C        CA       0.007906       12.0107           0
      1412 SHT      1412     S        C        CA       0.007906       12.0107           0
      1413 SHT      1413     S        C        CA       0.007906       12.0107           0
      1414 SHT      1414     S        C        CA       0.007906       12.0107           0
      1415 SHT      1415     S        C        CA       0.007906       12.0107           0
      1416 SHT      1416     S        C        CA       0.007906       12.0107           0
      1417 SHT      1417     S        C        CA       0.007906       12.0107           0
      1418 SHT      1418     S        C        CA       0.007906       12.0107           0
      1419 SHT      1419     S        C        CA       0.007906       12.0107           0
      1420 SHT      1420     S        C        CA       0.007906       12.0107           0
      1421 SHT      1421     S        C        CA       0.007906       12.0107           0
      1422 SHT      1422     S        C        CA       0.007906       12.0107           0
      1423 SHT      1423     S        C        CA       0.007906       12.0107           0
      1424 SHT      1424     S        C        CA       0.007906       12.0107           0
      1425 SHT      1425     S        C        CA       0.007906       12.0107           0
      1426 SHT      1426     S        C        CA       0.007906       12.0107           0
      1427 SHT      1427     S        C        CA       0.007906       12.0107           0
      1428 SHT      1428     S        C        CA       0.007906       12.0107           0
      1429 SHT      1429     S        C        CA       0.007906       12.0107           0
      1430 SHT      1430     S        C        CA       0.007906       12.0107           0
      1431 SHT      1431     S        C        CA       0.007906       12.0107           0
      1432 SHT      1432     S        C        CA       0.007906       12.0107           0
      1433 SHT      1433     S        C        CA       0.007906       12.0107           0
      1434 SHT      1434     S        C        CA       0.007906       12.0107           0
      1435 SHT      1435     S        C        CA       0.007906       12.0107           0
      1436 SHT      1436     S        C        CA       0.007906       12.0107           0
      1437 SHT      1437     S        C        CA       0.007906       12.0107           0
      1438 SHT      1438     S        C        CA       0.007906       12.0107           0
      1439 SHT      1439     S        C        CA       0.007906       12.0107           0
      1440 SHT      1440     S        C        CA       0.007906       12.0107           0
      1441 SHT      1441     S        C        CA       0.007906       12.0107           0
      1442 SHT      1442     S        C        CA       0.007906       12.0107           0
      1443 SHT      1443     S        C        CA       0.007906       12.0107           0
      1444 SHT      1444     S        C        CA       0.007906       12.0107           0
      1445 SHT      1445     S        C        CA       0.007906       12.0107           0
      1446 SHT      1446     S        C        CA       0.007906       12.0107           0
      1447 SHT      1447     S        C        CA       0.007906       12.0107           0
      1448 SHT      1448     S        C        CA       0.007906       12.0107           0
      1449 SHT      1449     S        C        CA       0.007906       12.0107           0
      1450 SHT      1450     S        C        CA       0.007906       12.0107           0
      1451 SHT      1451     S        C        CA       0.007906       12.0107           0
      1452 SHT      1452     S        C        CA       0.007906       12.0107           0
      1453 SHT      1453     S        C        CA       0.007906       12.0107           0
      1454 SHT      1454     S        C        CA       0.007906       12.0107           0
      1455 SHT      1455     S        C        CA       0.007906       12.0107           0
      1456 SHT      1456     S        C        CA       0.007906       12.0107           0
      1457 SHT      1457     S        C        CA       0.007906       12.0107           0
      1458 SHT      1458     S        C        CA       0.007906       12.0107           0
      1459 SHT      1459     S        C        CA       0.007906       12.0107           0
      1460 SHT      1460     S        C        CA       0.007906       12.0107           0
      1461 SHT      1461     S        C        CA       0.007906       12.0107           0
      1462 SHT      1462     S        C        CA       0.007906       12.0107           0
      1463 SHT      1463     S        C        CA       0.007906       12.0107           0
      1464 SHT      1464     S        C        CA       0.007906       12.0107           0
      1465 SHT      1465     S        C        CA       0.007906       12.0107           0
      1466 SHT      1466     S        C        CA       0.007906       12.0107           0
      1467 SHT      1467     S        C        CA       0.007906       12.0107           0
      1468 SHT      1468     S        C        CA       0.007906       12.0107           0
      1469 SHT      1469     S        C        CA       0.007906       12.0107           0
      1470 SHT      1470     S        C        CA       0.007906       12.0107           0
      1471 SHT      1471     S        C        CA       0.007906       12.0107           0
      1472 SHT      1472     S        C        CA       0.007906       12.0107           0
      1473 SHT      1473     S        C        CA       0.007906       12.0107           0
      1474 SHT      1474     S        C        CA       0.007906       12.0107           0
      1475 SHT      1475     S        C        CA       0.007906       12.0107           0
      1476 SHT      1476     S        C        CA       0.007906       12.0107           0
      1477 SHT      1477     S        C        CA       0.007906       12.0107           0
      1478 SHT      1478     S        C        CA       0.007906       12.0107           0
      1479 SHT      1479     S        C        CA       0.007906       12.0107           0
      1480 SHT      1480     S        C        CA       0.007906       12.0107           0
      1481 SHT      1481     S        C        CA       0.007906       12.0107           0
      1482 SHT      1482     S        C        CA       0.007906       12.0107           0
      1483 SHT      1483     S        C        CA       0.007906       12.0107           0
      1484 SHT      1484     S        C        CA       0.007906       12.0107           0
      1485 SHT      1485     S        C        CA       0.007906       12.0107           0
      1486 SHT      1486     S        C        CA       0.007906       12.0107           0
      1487 SHT      1487     S        C        CA       0.007906       12.0107           0
      1488 SHT      1488     S        C        CA       0.007906       12.0107           0
      1489 SHT      1489     S        C        CA       0.007906       12.0107           0
      1490 SHT      1490     S        C        CA       0.007906       12.0107           0
      1491 SHT      1491     S        C        CA       0.007906       12.0107           0
      1492 SHT      1492     S        C        CA       0.007906       12.0107           0
      1493 SHT      1493     S        C        CA       0.007906       12.0107           0
      1494 SHT      1494     S        C        CA       0.007906       12.0107           0
      1495 SHT      1495     S        C        CA       0.007906       12.0107           0
      1496 SHT      1496     S        C        CA       0.007906       12.0107           0
      1497 SHT      1497     S        C        CA       0.007906       12.0107           0
      1498 SHT      1498     S        C        CA       0.007906       12.0107           0
      1499 SHT      1499     S        C        CA       0.007906       12.0107           0
      1500 SHT      1500     S        C        CA       0.007906       12.0107           0
      1501 SHT      1501     S        C        CA       0.007906       12.0107           0
      1502 SHT      1502     S        C        CA       0.007906       12.0107           0
      1503 SHT      1503     S        C        CA       0.007906       12.0107           0
      1504 SHT      1504     S        C        CA       0.007906       12.0107           0
      1505 SHT      1505     S        C        CA       0.007906       12.0107           0
      1506 SHT      1506     S        C        CA       0.007906       12.0107           0
      1507 SHT      1507     S        C        CA       0.007906       12.0107           0
      1508 SHT      1508     S        C        CA       0.007906       12.0107           0
      1509 SHT      1509     S        C        CA       0.007906       12.0107           0
      1510 SHT      1510     S        C        CA       0.007906       12.0107           0
      1511 SHT      1511     S        C        CA       0.007906       12.0107           0
      1512 SHT      1512     S        C        CA       0.007906       12.0107           0
      1513 SHT      1513     S        C        CA       0.007906       12.0107           0
      1514 SHT      1514     S        C        CA       0.007906       12.0107           0
      1515 SHT      1515     S        C        CA       0.007906       12.0107           0
      1516 SHT      1516     S        C        CA       0.007906       12.0107           0
      1517 SHT      1517     S        C        CA       0.007906       12.0107           0
      1518 SHT      1518     S        C        CA       0.007906       12.0107           0
      1519 SHT      1519     S        C        CA       0.007906       12.0107           0
      1520 SHT      1520     S        C        CA       0.007906       12.0107           0
      1521 SHT      1521     S        C        CA       0.007906       12.0107           0
      1522 SHT      1522     S        C        CA       0.007906       12.0107           0
      1523 SHT      1523     S        C        CA       0.007906       12.0107           0
      1524 SHT      1524     S        C        CA       0.007906       12.0107           0
      1525 SHT      1525     S        C        CA       0.007906       12.0107           0
      1526 SHT      1526     S        C        CA       0.007906       12.0107           0
      1527 SHT      1527     S        C        CA       0.007906       12.0107           0
      1528 SHT      1528     S        C        CA       0.007906       12.0107           0
      1529 SHT      1529     S        C        CA       0.007906       12.0107           0
      1530 SHT      1530     S        C        CA       0.007906       12.0107           0
      1531 SHT      1531     S        C        CA       0.007906       12.0107           0
      1532 SHT      1532     S        C        CA       0.007906       12.0107           0
      1533 SHT      1533     S        C        CA       0.007906       12.0107           0
      1534 SHT      1534     S        C        CA       0.007906       12.0107           0
      1535 SHT      1535     S        C        CA       0.007906       12.0107           0
      1536 SHT      1536     S        C        CA       0.007906       12.0107           0
      1537 SHT      1537     S        C        CA       0.007906       12.0107           0
      1538 SHT      1538     S        C        CA       0.007906       12.0107           0
      1539 SHT      1539     S        C        CA       0.007906       12.0107           0
      1540 SHT      1540     S        C        CA       0.007906       12.0107           0
      1541 SHT      1541     S        C        CA       0.007906       12.0107           0
      1542 SHT      1542     S        C        CA       0.007906       12.0107           0
      1543 SHT      1543     S        C        CA       0.007906       12.0107           0
      1544 SHT      1544     S        C        CA       0.007906       12.0107           0
      1545 SHT      1545     S        C        CA       0.007906       12.0107           0
      1546 SHT      1546     S        C        CA       0.007906       12.0107           0
      1547 SHT      1547     S        C        CA       0.007906       12.0107           0
      1548 SHT      1548     S        C        CA       0.007906       12.0107           0
      1549 SHT      1549     S        C        CA       0.007906       12.0107           0
      1550 SHT      1550     S        C        CA       0.007906       12.0107           0
      1551 SHT      1551     S        C        CA       0.007906       12.0107           0
      1552 SHT      1552     S        C        CA       0.007906       12.0107           0
      1553 SHT      1553     S        C        CA       0.007906       12.0107           0
      1554 SHT      1554     S        C        CA       0.007906       12.0107           0
      1555 SHT      1555     S        C        CA       0.007906       12.0107           0
      1556 SHT      1556     S        C        CA       0.007906       12.0107           0
      1557 SHT      1557     S        C        CA       0.007906       12.0107           0
      1558 SHT      1558     S        C        CA       0.007906       12.0107           0
      1559 SHT      1559     S        C        CA       0.007906       12.0107           0
      1560 SHT      1560     S        C        CA       0.007906       12.0107           0
      1561 SHT      1561     S        C        CA       0.007906       12.0107           0
      1562 SHT      1562     S        C        CA       0.007906       12.0107           0
      1563 SHT      1563     S        C        CA       0.007906       12.0107           0
      1564 SHT      1564     S        C        CA       0.007906       12.0107           0
      1565 SHT      1565     S        C        CA       0.007906       12.0107           0
      1566 SHT      1566     S        C        CA       0.007906       12.0107           0
      1567 SHT      1567     S        C        CA       0.007906       12.0107           0
      1568 SHT      1568     S        C        CA       0.007906       12.0107           0
      1569 SHT      1569     S        C        CA       0.007906       12.0107           0
      1570 SHT      1570     S        C        CA       0.007906       12.0107           0
      1571 SHT      1571     S        C        CA       0.007906       12.0107           0
      1572 SHT      1572     S        C        CA       0.007906       12.0107           0
      1573 SHT      1573     S        C        CA       0.007906       12.0107           0
      1574 SHT      1574     S        C        CA       0.007906       12.0107           0
      1575 SHT      1575     S        C        CA       0.007906       12.0107           0
      1576 SHT      1576     S        C        CA       0.007906       12.0107           0
      1577 SHT      1577     S        C        CA       0.007906       12.0107           0
      1578 SHT      1578     S        C        CA       0.007906       12.0107           0
      1579 SHT      1579     S        C        CA       0.007906       12.0107           0
      1580 SHT      1580     S        C        CA       0.007906       12.0107           0
      1581 SHT      1581     S        C        CA       0.007906       12.0107           0
      1582 SHT      1582     S        C        CA       0.007906       12.0107           0
      1583 SHT      1583     S        C        CA       0.007906       12.0107           0
      1584 SHT      1584     S        C        CA       0.007906       12.0107           0
      1585 SHT      1585     S        C        CA       0.007906       12.0107           0
      1586 SHT      1586     S        C        CA       0.007906       12.0107           0
      1587 SHT      1587     S        C        CA       0.007906       12.0107           0
      1588 SHT      1588     S        C        CA       0.007906       12.0107           0
      1589 SHT      1589     S        C        CA       0.007906       12.0107           0
      1590 SHT      1590     S        C        CA       0.007906       12.0107           0
      1591 SHT      1591     S        C        CA       0.007906       12.0107           0
      1592 SHT      1592     S        C        CA       0.007906       12.0107           0
      1593 SHT      1593     S        C        CA       0.007906       12.0107           0
      1594 SHT      1594     S        C        CA       0.007906       12.0107           0
      1595 SHT      1595     S        C        CA       0.007906       12.0107           0
      1596 SHT      1596     S        C        CA       0.007906       12.0107           0
      1597 SHT      1597     S        C        CA       0.007906       12.0107           0
      1598 SHT      1598     S        C        CA       0.007906       12.0107           0
      1599 SHT      1599     S        C        CA       0.007906       12.0107           0
      1600 SHT      1600     S        C        CA       0.007906       12.0107           0
      1601 SHT      1601     S        C        CA       0.007906       12.0107           0
      1602 SHT      1602     S        C        CA       0.007906       12.0107           0
      1603 SHT      1603     S        C        CA       0.007906       12.0107           0
      1604 SHT      1604     S        C        CA       0.007906       12.0107           0
      1605 SHT      1605     S        C        CA       0.007906       12.0107           0
      1606 SHT      1606     S        C        CA       0.007906       12.0107           0
      1607 SHT      1607     S        C        CA       0.007906       12.0107           0
      1608 SHT      1608     S        C        CA       0.007906       12.0107           0
      1609 SHT      1609     S        C        CA       0.007906       12.0107           0
      1610 SHT      1610     S        C        CA       0.007906       12.0107           0
      1611 SHT      1611     S        C        CA       0.007906       12.0107           0
      1612 SHT      1612     S        C        CA       0.007906       12.0107           0
      1613 SHT      1613     S        C        CA       0.007906       12.0107           0
      1614 SHT      1614     S        C        CA       0.007906       12.0107           0
      1615 SHT      1615     S        C        CA       0.007906       12.0107           0
      1616 SHT      1616     S        C        CA       0.007906       12.0107           0
      1617 SHT      1617     S        C        CA       0.007906       12.0107           0
      1618 SHT      1618     S        C        CA       0.007906       12.0107           0
      1619 SHT      1619     S        C        CA       0.007906       12.0107           0
      1620 SHT      1620     S        C        CA       0.007906       12.0107           0
      1621 SHT      1621     S        C        CA       0.007906       12.0107           0
      1622 SHT      1622     S        C        CA       0.007906       12.0107           0
      1623 SHT      1623     S        C        CA       0.007906       12.0107           0
      1624 SHT      1624     S        C        CA       0.007906       12.0107           0
      1625 SHT      1625     S        C        CA       0.007906       12.0107           0
      1626 SHT      1626     S        C        CA       0.007906       12.0107           0
      1627 SHT      1627     S        C        CA       0.007906       12.0107           0
      1628 SHT      1628     S        C        CA       0.007906       12.0107           0
      1629 SHT      1629     S        C        CA       0.007906       12.0107           0
      1630 SHT      1630     S        C        CA       0.007906       12.0107           0
      1631 SHT      1631     S        C        CA       0.007906       12.0107           0
      1632 SHT      1632     S        C        CA       0.007906       12.0107           0
      1633 SHT      1633     S        C        CA       0.007906       12.0107           0
      1634 SHT      1634     S        C        CA       0.007906       12.0107           0
      1635 SHT      1635     S        C        CA       0.007906       12.0107           0
      1636 SHT      1636     S        C        CA       0.007906       12.0107           0
      1637 SHT      1637     S        C        CA       0.007906       12.0107           0
      1638 SHT      1638     S        C        CA       0.007906       12.0107           0
      1639 SHT      1639     S        C        CA       0.007906       12.0107           0
      1640 SHT      1640     S        C        CA       0.007906       12.0107           0
      1641 SHT      1641     S        C        CA       0.007906       12.0107           0
      1642 SHT      1642     S        C        CA       0.007906       12.0107           0
      1643 SHT      1643     S        C        CA       0.007906       12.0107           0
      1644 SHT      1644     S        C        CA       0.007906       12.0107           0
      1645 SHT      1645     S        C        CA       0.007906       12.0107           0
      1646 SHT      1646     S        C        CA       0.007906       12.0107           0
      1647 SHT      1647     S        C        CA       0.007906       12.0107           0
      1648 SHT      1648     S        C        CA       0.007906       12.0107           0
      1649 SHT      1649     S        C        CA       0.007906       12.0107           0
      1650 SHT      1650     S        C        CA       0.007906       12.0107           0
      1651 SHT      1651     S        C        CA       0.007906       12.0107           0
      1652 SHT      1652     S        C        CA       0.007906       12.0107           0
      1653 SHT      1653     S        C        CA       0.007906       12.0107           0
      1654 SHT      1654     S        C        CA       0.007906       12.0107           0
      1655 SHT      1655     S        C        CA       0.007906       12.0107           0
      1656 SHT      1656     S        C        CA       0.007906       12.0107           0
      1657 SHT      1657     S        C        CA       0.007906       12.0107           0
      1658 SHT      1658     S        C        CA       0.007906       12.0107           0
      1659 SHT      1659     S        C        CA       0.007906       12.0107           0
      1660 SHT      1660     S        C        CA       0.007906       12.0107           0
      1661 SHT      1661     S        C        CA       0.007906       12.0107           0
      1662 SHT      1662     S        C        CA       0.007906       12.0107           0
      1663 SHT      1663     S        C        CA       0.007906       12.0107           0
      1664 SHT      1664     S        C        CA       0.007906       12.0107           0
      1665 SHT      1665     S        C        CA       0.007906       12.0107           0
      1666 SHT      1666     S        C        CA       0.007906       12.0107           0
      1667 SHT      1667     S        C        CA       0.007906       12.0107           0
      1668 SHT      1668     S        C        CA       0.007906       12.0107           0
      1669 SHT      1669     S        C        CA       0.007906       12.0107           0
      1670 SHT      1670     S        C        CA       0.007906       12.0107           0
      1671 SHT      1671     S        C        CA       0.007906       12.0107           0
      1672 SHT      1672     S        C        CA       0.007906       12.0107           0
      1673 SHT      1673     S        C        CA       0.007906       12.0107           0
      1674 SHT      1674     S        C        CA       0.007906       12.0107           0
      1675 SHT      1675     S        C        CA       0.007906       12.0107           0
      1676 SHT      1676     S        C        CA       0.007906       12.0107           0
      1677 SHT      1677     S        C        CA       0.007906       12.0107           0
      1678 SHT      1678     S        C        CA       0.007906       12.0107           0
      1679 SHT      1679     S        C        CA       0.007906       12.0107           0
      1680 SHT      1680     S        C        CA       0.007906       12.0107           0
      1681 SHT      1681     S        C        CA       0.007906       12.0107           0
      1682 SHT      1682     S        C        CA       0.007906       12.0107           0
      1683 SHT      1683     S        C        CA       0.007906       12.0107           0
      1684 SHT      1684     S        C        CA       0.007906       12.0107           0
      1685 SHT      1685     S        C        CA       0.007906       12.0107           0
      1686 SHT      1686     S        C        CA       0.007906       12.0107           0
      1687 SHT      1687     S        C        CA       0.007906       12.0107           0
      1688 SHT      1688     S        C        CA       0.007906       12.0107           0
      1689 SHT      1689     S        C        CA       0.007906       12.0107           0
      1690 SHT      1690     S        C        CA       0.007906       12.0107           0
      1691 SHT      1691     S        C        CA       0.007906       12.0107           0
      1692 SHT      1692     S        C        CA       0.007906       12.0107           0
      1693 SHT      1693     S        C        CA       0.007906       12.0107           0
      1694 SHT      1694     S        C        CA       0.007906       12.0107           0
      1695 SHT      1695     S        C        CA       0.007906       12.0107           0
      1696 SHT      1696     S        C        CA       0.007906       12.0107           0
      1697 SHT      1697     S        C        CA       0.007906       12.0107           0
      1698 SHT      1698     S        C        CA       0.007906       12.0107           0
      1699 SHT      1699     S        C        CA       0.007906       12.0107           0
      1700 SHT      1700     S        C        CA       0.007906       12.0107           0
      1701 SHT      1701     S        C        CA       0.007906       12.0107           0
      1702 SHT      1702     S        C        CA       0.007906       12.0107           0
      1703 SHT      1703     S        C        CA       0.007906       12.0107           0
      1704 SHT      1704     S        C        CA       0.007906       12.0107           0
      1705 SHT      1705     S        C        CA       0.007906       12.0107           0
      1706 SHT      1706     S        C        CA       0.007906       12.0107           0
      1707 SHT      1707     S        C        CA       0.007906       12.0107           0
      1708 SHT      1708     S        C        CA       0.007906       12.0107           0
      1709 SHT      1709     S        C        CA       0.007906       12.0107           0
      1710 SHT      1710     S        C        CA       0.007906       12.0107           0
      1711 SHT      1711     S        C        CA       0.007906       12.0107           0
      1712 SHT      1712     S        C        CA       0.007906       12.0107           0
      1713 SHT      1713     S        C        CA       0.007906       12.0107           0
      1714 SHT      1714     S        C        CA       0.007906       12.0107           0
      1715 SHT      1715     S        C        CA       0.007906       12.0107           0
      1716 SHT      1716     S        C        CA       0.007906       12.0107           0
      1717 SHT      1717     S        C        CA       0.007906       12.0107           0
      1718 SHT      1718     S        C        CA       0.007906       12.0107           0
      1719 SHT      1719     S        C        CA       0.007906       12.0107           0
      1720 SHT      1720     S        C        CA       0.007906       12.0107           0
      1721 SHT      1721     S        C        CA       0.007906       12.0107           0
      1722 SHT      1722     S        C        CA       0.007906       12.0107           0
      1723 SHT      1723     S        C        CA       0.007906       12.0107           0
      1724 SHT      1724     S        C        CA       0.007906       12.0107           0
      1725 SHT      1725     S        C        CA       0.007906       12.0107           0
      1726 SHT      1726     S        C        CA       0.007906       12.0107           0
      1727 SHT      1727     S        C        CA       0.007906       12.0107           0
      1728 SHT      1728     S        C        CA       0.007906       12.0107           0
      1729 SHT      1729     S        C        CA       0.007906       12.0107           0
      1730 SHT      1730     S        C        CA       0.007906       12.0107           0
      1731 SHT      1731     S        C        CA       0.007906       12.0107           0
      1732 SHT      1732     S        C        CA       0.007906       12.0107           0
      1733 SHT      1733     S        C        CA       0.007906       12.0107           0
      1734 SHT      1734     S        C        CA       0.007906       12.0107           0
      1735 SHT      1735     S        C        CA       0.007906       12.0107           0
      1736 SHT      1736     S        C        CA       0.007906       12.0107           0
      1737 SHT      1737     S        C        CA       0.007906       12.0107           0
      1738 SHT      1738     S        C        CA       0.007906       12.0107           0
      1739 SHT      1739     S        C        CA       0.007906       12.0107           0
      1740 SHT      1740     S        C        CA       0.007906       12.0107           0
      1741 SHT      1741     S        C        CA       0.007906       12.0107           0
      1742 SHT      1742     S        C        CA       0.007906       12.0107           0
      1743 SHT      1743     S        C        CA       0.007906       12.0107           0
      1744 SHT      1744     S        C        CA       0.007906       12.0107           0
      1745 SHT      1745     S        C        CA       0.007906       12.0107           0
      1746 SHT      1746     S        C        CA       0.007906       12.0107           0
      1747 SHT      1747     S        C        CA       0.007906       12.0107           0
      1748 SHT      1748     S        C        CA       0.007906       12.0107           0
      1749 SHT      1749     S        C        CA       0.007906       12.0107           0
      1750 SHT      1750     S        C        CA       0.007906       12.0107           0
      1751 SHT      1751     S        C        CA       0.007906       12.0107           0
      1752 SHT      1752     S        C        CA       0.007906       12.0107           0
      1753 SHT      1753     S        C        CA       0.007906       12.0107           0
      1754 SHT      1754     S        C        CA       0.007906       12.0107           0
      1755 SHT      1755     S        C        CA       0.007906       12.0107           0
      1756 SHT      1756     S        C        CA       0.007906       12.0107           0
      1757 SHT      1757     S        C        CA       0.007906       12.0107           0
      1758 SHT      1758     S        C        CA       0.007906       12.0107           0
      1759 SHT      1759     S        C        CA       0.007906       12.0107           0
      1760 SHT      1760     S        C        CA       0.007906       12.0107           0
      1761 SHT      1761     S        C        CA       0.007906       12.0107           0
      1762 SHT      1762     S        C        CA       0.007906       12.0107           0
      1763 SHT      1763     S        C        CA       0.007906       12.0107           0
      1764 SHT      1764     S        C        CA       0.007906       12.0107           0
      1765 SHT      1765     S        C        CA       0.007906       12.0107           0
      1766 SHT      1766     S        C        CA       0.007906       12.0107           0
      1767 SHT      1767     S        C        CA       0.007906       12.0107           0
      1768 SHT      1768     S        C        CA       0.007906       12.0107           0
      1769 SHT      1769     S        C        CA       0.007906       12.0107           0
      1770 SHT      1770     S        C        CA       0.007906       12.0107           0
      1771 SHT      1771     S        C        CA       0.007906       12.0107           0
      1772 SHT      1772     S        C        CA       0.007906       12.0107           0
      1773 SHT      1773     S        C        CA       0.007906       12.0107           0
      1774 SHT      1774     S        C        CA       0.007906       12.0107           0
      1775 SHT      1775     S        C        CA       0.007906       12.0107           0
      1776 SHT      1776     S        C        CA       0.007906       12.0107           0
      1777 SHT      1777     S        C        CA       0.007906       12.0107           0
      1778 SHT      1778     S        C        CA       0.007906       12.0107           0
      1779 SHT      1779     S        C        CA       0.007906       12.0107           0
      1780 SHT      1780     S        C        CA       0.007906       12.0107           0
      1781 SHT      1781     S        C        CA       0.007906       12.0107           0
      1782 SHT      1782     S        C        CA       0.007906       12.0107           0
      1783 SHT      1783     S        C        CA       0.007906       12.0107           0
      1784 SHT      1784     S        C        CA       0.007906       12.0107           0
      1785 SHT      1785     S        C        CA       0.007906       12.0107           0
      1786 SHT      1786     S        C        CA       0.007906       12.0107           0
      1787 SHT      1787     S        C        CA       0.007906       12.0107           0
      1788 SHT      1788     S        C        CA       0.007906       12.0107           0
      1789 SHT      1789     S        C        CA       0.007906       12.0107           0
      1790 SHT      1790     S        C        CA       0.007906       12.0107           0
      1791 SHT      1791     S        C        CA       0.007906       12.0107           0
      1792 SHT      1792     S        C        CA       0.007906       12.0107           0
      1793 SHT      1793     S        C        CA       0.007906       12.0107           0
      1794 SHT      1794     S        C        CA       0.007906       12.0107           0
      1795 SHT      1795     S        C        CA       0.007906       12.0107           0
      1796 SHT      1796     S        C        CA       0.007906       12.0107           0
      1797 SHT      1797     S        C        CA       0.007906       12.0107           0
      1798 SHT      1798     S        C        CA       0.007906       12.0107           0
      1799 SHT      1799     S        C        CA       0.007906       12.0107           0
      1800 SHT      1800     S        C        CA       0.007906       12.0107           0
      1801 SHT      1801     S        C        CA       0.007906       12.0107           0
      1802 SHT      1802     S        C        CA       0.007906       12.0107           0
      1803 SHT      1803     S        C        CA       0.007906       12.0107           0
      1804 SHT      1804     S        C        CA       0.007906       12.0107           0
      1805 SHT      1805     S        C        CA       0.007906       12.0107           0
      1806 SHT      1806     S        C        CA       0.007906       12.0107           0
      1807 SHT      1807     S        C        CA       0.007906       12.0107           0
      1808 SHT      1808     S        C        CA       0.007906       12.0107           0
      1809 SHT      1809     S        C        CA       0.007906       12.0107           0
      1810 SHT      1810     S        C        CA       0.007906       12.0107           0
      1811 SHT      1811     S        C        CA       0.007906       12.0107           0
      1812 SHT      1812     S        C        CA       0.007906       12.0107           0
      1813 SHT      1813     S        C        CA       0.007906       12.0107           0
      1814 SHT      1814     S        C        CA       0.007906       12.0107           0
      1815 SHT      1815     S        C        CA       0.007906       12.0107           0
      1816 SHT      1816     S        C        CA       0.007906       12.0107           0
      1817 SHT      1817     S        C        CA       0.007906       12.0107           0
      1818 SHT      1818     S        C        CA       0.007906       12.0107           0
      1819 SHT      1819     S        C        CA       0.007906       12.0107           0
      1820 SHT      1820     S        C        CA       0.007906       12.0107           0
      1821 SHT      1821     S        C        CA       0.007906       12.0107           0
      1822 SHT      1822     S        C        CA       0.007906       12.0107           0
      1823 SHT      1823     S        C        CA       0.007906       12.0107           0
      1824 SHT      1824     S        C        CA       0.007906       12.0107           0
      1825 SHT      1825     S        C        CA       0.007906       12.0107           0
      1826 SHT      1826     S        C        CA       0.007906       12.0107           0
      1827 SHT      1827     S        C        CA       0.007906       12.0107           0
      1828 SHT      1828     S        C        CA       0.007906       12.0107           0
      1829 SHT      1829     S        C        CA       0.007906       12.0107           0
      1830 SHT      1830     S        C        CA       0.007906       12.0107           0
      1831 SHT      1831     S        C        CA       0.007906       12.0107           0
      1832 SHT      1832     S        C        CA       0.007906       12.0107           0
      1833 SHT      1833     S        C        CA       0.007906       12.0107           0
      1834 SHT      1834     S        C        CA       0.007906       12.0107           0
      1835 SHT      1835     S        C        CA       0.007906       12.0107           0
      1836 SHT      1836     S        C        CA       0.007906       12.0107           0
      1837 SHT      1837     S        C        CA       0.007906       12.0107           0
      1838 SHT      1838     S        C        CA       0.007906       12.0107           0
      1839 SHT      1839     S        C        CA       0.007906       12.0107           0
      1840 SHT      1840     S        C        CA       0.007906       12.0107           0
      1841 SHT      1841     S        C        CA       0.007906       12.0107           0
      1842 SHT      1842     S        C        CA       0.007906       12.0107           0
      1843 SHT      1843     S        C        CA       0.007906       12.0107           0
      1844 SHT      1844     S        C        CA       0.007906       12.0107           0
      1845 SHT      1845     S        C        CA       0.007906       12.0107           0
      1846 SHT      1846     S        C        CA       0.007906       12.0107           0
      1847 SHT      1847     S        C        CA       0.007906       12.0107           0
      1848 SHT      1848     S        C        CA       0.007906       12.0107           0
      1849 SHT      1849     S        C        CA       0.007906       12.0107           0
      1850 SHT      1850     S        C        CA       0.007906       12.0107           0
      1851 SHT      1851     S        C        CA       0.007906       12.0107           0
      1852 SHT      1852     S        C        CA       0.007906       12.0107           0
      1853 SHT      1853     S        C        CA       0.007906       12.0107           0
      1854 SHT      1854     S        C        CA       0.007906       12.0107           0
      1855 SHT      1855     S        C        CA       0.007906       12.0107           0
      1856 SHT      1856     S        C        CA       0.007906       12.0107           0
      1857 SHT      1857     S        C        CA       0.007906       12.0107           0
      1858 SHT      1858     S        C        CA       0.007906       12.0107           0
      1859 SHT      1859     S        C        CA       0.007906       12.0107           0
      1860 SHT      1860     S        C        CA       0.007906       12.0107           0
      1861 SHT      1861     S        C        CA       0.007906       12.0107           0
      1862 SHT      1862     S        C        CA       0.007906       12.0107           0
      1863 SHT      1863     S        C        CA       0.007906       12.0107           0
      1864 SHT      1864     S        C        CA       0.007906       12.0107           0
      1865 SHT      1865     S        C        CA       0.007906       12.0107           0
      1866 SHT      1866     S        C        CA       0.007906       12.0107           0
      1867 SHT      1867     S        C        CA       0.007906       12.0107           0
      1868 SHT      1868     S        C        CA       0.007906       12.0107           0
      1869 SHT      1869     S        C        CA       0.007906       12.0107           0
      1870 SHT      1870     S        C        CA       0.007906       12.0107           0
      1871 SHT      1871     S        C        CA       0.007906       12.0107           0
      1872 SHT      1872     S        C        CA       0.007906       12.0107           0
      1873 SHT      1873     S        C        CA       0.007906       12.0107           0
      1874 SHT      1874     S        C        CA       0.007906       12.0107           0
      1875 SHT      1875     S        C        CA       0.007906       12.0107           0
      1876 SHT      1876     S        C        CA       0.007906       12.0107           0
      1877 SHT      1877     S        C        CA       0.007906       12.0107           0
      1878 SHT      1878     S        C        CA       0.007906       12.0107           0
      1879 SHT      1879     S        C        CA       0.007906       12.0107           0
      1880 SHT      1880     S        C        CA       0.007906       12.0107           0
      1881 SHT      1881     S        C        CA       0.007906       12.0107           0
      1882 SHT      1882     S        C        CA       0.007906       12.0107           0
      1883 SHT      1883     S        C        CA       0.007906       12.0107           0
      1884 SHT      1884     S        C        CA       0.007906       12.0107           0
      1885 SHT      1885     S        C        CA       0.007906       12.0107           0
      1886 SHT      1886     S        C        CA       0.007906       12.0107           0
      1887 SHT      1887     S        C        CA       0.007906       12.0107           0
      1888 SHT      1888     S        C        CA       0.007906       12.0107           0
      1889 SHT      1889     S        C        CA       0.007906       12.0107           0
      1890 SHT      1890     S        C        CA       0.007906       12.0107           0
      1891 SHT      1891     S        C        CA       0.007906       12.0107           0
      1892 SHT      1892     S        C        CA       0.007906       12.0107           0
      1893 SHT      1893     S        C        CA       0.007906       12.0107           0
      1894 SHT      1894     S        C        CA       0.007906       12.0107           0
      1895 SHT      1895     S        C        CA       0.007906       12.0107           0
      1896 SHT      1896     S        C        CA       0.007906       12.0107           0
      1897 SHT      1897     S        C        CA       0.007906       12.0107           0
      1898 SHT      1898     S        C        CA       0.007906       12.0107           0
      1899 SHT      1899     S        C        CA       0.007906       12.0107           0
      1900 SHT      1900     S        C        CA       0.007906       12.0107           0
      1901 SHT      1901     S        C        CA       0.007906       12.0107           0
      1902 SHT      1902     S        C        CA       0.007906       12.0107           0
      1903 SHT      1903     S        C        CA       0.007906       12.0107           0
      1904 SHT      1904     S        C        CA       0.007906       12.0107           0
      1905 SHT      1905     S        C        CA       0.007906       12.0107           0
      1906 SHT      1906     S        C        CA       0.007906       12.0107           0
      1907 SHT      1907     S        C        CA       0.007906       12.0107           0
      1908 SHT      1908     S        C        CA       0.007906       12.0107           0
      1909 SHT      1909     S        C        CA       0.007906       12.0107           0
      1910 SHT      1910     S        C        CA       0.007906       12.0107           0
      1911 SHT      1911     S        C        CA       0.007906       12.0107           0
      1912 SHT      1912     S        C        CA       0.007906       12.0107           0
      1913 SHT      1913     S        C        CA       0.007906       12.0107           0
      1914 SHT      1914     S        C        CA       0.007906       12.0107           0
      1915 SHT      1915     S        C        CA       0.007906       12.0107           0
      1916 SHT      1916     S        C        CA       0.007906       12.0107           0
      1917 SHT      1917     S        C        CA       0.007906       12.0107           0
      1918 SHT      1918     S        C        CA       0.007906       12.0107           0
      1919 SHT      1919     S        C        CA       0.007906       12.0107           0
      1920 SHT      1920     S        C        CA       0.007906       12.0107           0
      1921 SHT      1921     S        C        CA       0.007906       12.0107           0
      1922 SHT      1922     S        C        CA       0.007906       12.0107           0
      1923 SHT      1923     S        C        CA       0.007906       12.0107           0
      1924 SHT      1924     S        C        CA       0.007906       12.0107           0
      1925 SHT      1925     S        C        CA       0.007906       12.0107           0
      1926 SHT      1926     S        C        CA       0.007906       12.0107           0
      1927 SHT      1927     S        C        CA       0.007906       12.0107           0
      1928 SHT      1928     S        C        CA       0.007906       12.0107           0
      1929 SHT      1929     S        C        CA       0.007906       12.0107           0
      1930 SHT      1930     S        C        CA       0.007906       12.0107           0
      1931 SHT      1931     S        C        CA       0.007906       12.0107           0
      1932 SHT      1932     S        C        CA       0.007906       12.0107           0
      1933 SHT      1933     S        C        CA       0.007906       12.0107           0
      1934 SHT      1934     S        C        CA       0.007906       12.0107           0
      1935 SHT      1935     S        C        CA       0.007906       12.0107           0
      1936 SHT      1936     S        C        CA       0.007906       12.0107           0
      1937 SHT      1937     S        C        CA       0.007906       12.0107           0
      1938 SHT      1938     S        C        CA       0.007906       12.0107           0
      1939 SHT      1939     S        C        CA       0.007906       12.0107           0
      1940 SHT      1940     S        C        CA       0.007906       12.0107           0
      1941 SHT      1941     S        C        CA       0.007906       12.0107           0
      1942 SHT      1942     S        C        CA       0.007906       12.0107           0
      1943 SHT      1943     S        C        CA       0.007906       12.0107           0
      1944 SHT      1944     S        C        CA       0.007906       12.0107           0
      1945 SHT      1945     S        C        CA       0.007906       12.0107           0
      1946 SHT      1946     S        C        CA       0.007906       12.0107           0
      1947 SHT      1947     S        C        CA       0.007906       12.0107           0
      1948 SHT      1948     S        C        CA       0.007906       12.0107           0
      1949 SHT      1949     S        C        CA       0.007906       12.0107           0
      1950 SHT      1950     S        C        CA       0.007906       12.0107           0
      1951 SHT      1951     S        C        CA       0.007906       12.0107           0
      1952 SHT      1952     S        C        CA       0.007906       12.0107           0
      1953 SHT      1953     S        C        CA       0.007906       12.0107           0
      1954 SHT      1954     S        C        CA       0.007906       12.0107           0
      1955 SHT      1955     S        C        CA       0.007906       12.0107           0
      1956 SHT      1956     S        C        CA       0.007906       12.0107           0
      1957 SHT      1957     S        C        CA       0.007906       12.0107           0
      1958 SHT      1958     S        C        CA       0.007906       12.0107           0
      1959 SHT      1959     S        C        CA       0.007906       12.0107           0
      1960 SHT      1960     S        C        CA       0.007906       12.0107           0
      1961 SHT      1961     S        C        CA       0.007906       12.0107           0
      1962 SHT      1962     S        C        CA       0.007906       12.0107           0
      1963 SHT      1963     S        C        CA       0.007906       12.0107           0
      1964 SHT      1964     S        C        CA       0.007906       12.0107           0
      1965 SHT      1965     S        C        CA       0.007906       12.0107           0
      1966 SHT      1966     S        C        CA       0.007906       12.0107           0
      1967 SHT      1967     S        C        CA       0.007906       12.0107           0
      1968 SHT      1968     S        C        CA       0.007906       12.0107           0
      1969 SHT      1969     S        C        CA       0.007906       12.0107           0
      1970 SHT      1970     S        C        CA       0.007906       12.0107           0
      1971 SHT      1971     S        C        CA       0.007906       12.0107           0
      1972 SHT      1972     S        C        CA       0.007906       12.0107           0
      1973 SHT      1973     S        C        CA       0.007906       12.0107           0
      1974 SHT      1974     S        C        CA       0.007906       12.0107           0
      1975 SHT      1975     S        C        CA       0.007906       12.0107           0
      1976 SHT      1976     S        C        CA       0.007906       12.0107           0
      1977 SHT      1977     S        C        CA       0.007906       12.0107           0
      1978 SHT      1978     S        C        CA       0.007906       12.0107           0
      1979 SHT      1979     S        C        CA       0.007906       12.0107           0
      1980 SHT      1980     S        C        CA       0.007906       12.0107           0
      1981 SHT      1981     S        C        CA       0.007906       12.0107           0
      1982 SHT      1982     S        C        CA       0.007906       12.0107           0
      1983 SHT      1983     S        C        CA       0.007906       12.0107           0
      1984 SHT      1984     S        C        CA       0.007906       12.0107           0
      1985 SHT      1985     S        C        CA       0.007906       12.0107           0
      1986 SHT      1986     S        C        CA       0.007906       12.0107           0
      1987 SHT      1987     S        C        CA       0.007906       12.0107           0
      1988 SHT      1988     S        C        CA       0.007906       12.0107           0
      1989 SHT      1989     S        C        CA       0.007906       12.0107           0
      1990 SHT      1990     S        C        CA       0.007906       12.0107           0
      1991 SHT      1991     S        C        CA       0.007906       12.0107           0
      1992 SHT      1992     S        C        CA       0.007906       12.0107           0
      1993 SHT      1993     S        C        CA       0.007906       12.0107           0
      1994 SHT      1994     S        C        CA       0.007906       12.0107           0
      1995 SHT      1995     S        C        CA       0.007906       12.0107           0
      1996 SHT      1996     S        C        CA       0.007906       12.0107           0
      1997 SHT      1997     S        C        CA       0.007906       12.0107           0
      1998 SHT      1998     S        C        CA       0.007906       12.0107           0
      1999 SHT      1999     S        C        CA       0.007906       12.0107           0
      2000 SHT      2000     S        C        CA       0.007906       12.0107           0
      2001 SHT      2001     S        C        CA       0.007906       12.0107           0
      2002 SHT      2002     S        C        CA       0.007906       12.0107           0
      2003 SHT      2003     S        C        CA       0.007906       12.0107           0
      2004 SHT      2004     S        C        CA       0.007906       12.0107           0
      2005 SHT      2005     S        C        CA       0.007906       12.0107           0
      2006 SHT      2006     S        C        CA       0.007906       12.0107           0
      2007 SHT      2007     S        C        CA       0.007906       12.0107           0
      2008 SHT      2008     S        C        CA       0.007906       12.0107           0
      2009 SHT      2009     S        C        CA       0.007906       12.0107           0
      2010 SHT      2010     S        C        CA       0.007906       12.0107           0
      2011 SHT      2011     S        C        CA       0.007906       12.0107           0
      2012 SHT      2012     S        C        CA       0.007906       12.0107           0
      2013 SHT      2013     S        C        CA       0.007906       12.0107           0
      2014 SHT      2014     S        C        CA       0.007906       12.0107           0
      2015 SHT      2015     S        C        CA       0.007906       12.0107           0
      2016 SHT      2016     S        C        CA       0.007906       12.0107           0
      2017 SHT      2017     S        C        CA       0.007906       12.0107           0
      2018 SHT      2018     S        C        CA       0.007906       12.0107           0
      2019 SHT      2019     S        C        CA       0.007906       12.0107           0
      2020 SHT      2020     S        C        CA       0.007906       12.0107           0
      2021 SHT      2021     S        C        CA       0.007906       12.0107           0
      2022 SHT      2022     S        C        CA       0.007906       12.0107           0
      2023 SHT      2023     S        C        CA       0.007906       12.0107           0
      2024 SHT      2024     S        C        CA       0.007906       12.0107           0
      2025 SHT      2025     S        C        CA       0.007906       12.0107           0
      2026 SHT      2026     S        C        CA       0.007906       12.0107           0
      2027 SHT      2027     S        C        CA       0.007906       12.0107           0
      2028 SHT      2028     S        C        CA       0.007906       12.0107           0
      2029 SHT      2029     S        C        CA       0.007906       12.0107           0
      2030 SHT      2030     S        C        CA       0.007906       12.0107           0
      2031 SHT      2031     S        C        CA       0.007906       12.0107           0
      2032 SHT      2032     S        C        CA       0.007906       12.0107           0
      2033 SHT      2033     S        C        CA       0.007906       12.0107           0
      2034 SHT      2034     S        C        CA       0.007906       12.0107           0
      2035 SHT      2035     S        C        CA       0.007906       12.0107           0
      2036 SHT      2036     S        C        CA       0.007906       12.0107           0
      2037 SHT      2037     S        C        CA       0.007906       12.0107           0
      2038 SHT      2038     S        C        CA       0.007906       12.0107           0
      2039 SHT      2039     S        C        CA       0.007906       12.0107           0
      2040 SHT      2040     S        C        CA       0.007906       12.0107           0
      2041 SHT      2041     S        C        CA       0.007906       12.0107           0
      2042 SHT      2042     S        C        CA       0.007906       12.0107           0
      2043 SHT      2043     S        C        CA       0.007906       12.0107           0
      2044 SHT      2044     S        C        CA       0.007906       12.0107           0
      2045 SHT      2045     S        C        CA       0.007906       12.0107           0
      2046 SHT      2046     S        C        CA       0.007906       12.0107           0
      2047 SHT      2047     S        C        CA       0.007906       12.0107           0
      2048 SHT      2048     S        C        CA       0.007906       12.0107           0
      2049 SHT      2049     S        C        CA       0.007906       12.0107           0
      2050 SHT      2050     S        C        CA       0.007906       12.0107           0
      2051 SHT      2051     S        C        CA       0.007906       12.0107           0
      2052 SHT      2052     S        C        CA       0.007906       12.0107           0
      2053 SHT      2053     S        C        CA       0.007906       12.0107           0
      2054 SHT      2054     S        C        CA       0.007906       12.0107           0
      2055 SHT      2055     S        C        CA       0.007906       12.0107           0
      2056 SHT      2056     S        C        CA       0.007906       12.0107           0
      2057 SHT      2057     S        C        CA       0.007906       12.0107           0
      2058 SHT      2058     S        C        CA       0.007906       12.0107           0
      2059 SHT      2059     S        C        CA       0.007906       12.0107           0
      2060 SHT      2060     S        C        CA       0.007906       12.0107           0
      2061 SHT      2061     S        C        CA       0.007906       12.0107           0
      2062 SHT      2062     S        C        CA       0.007906       12.0107           0
      2063 SHT      2063     S        C        CA       0.007906       12.0107           0
      2064 SHT      2064     S        C        CA       0.007906       12.0107           0
      2065 SHT      2065     S        C        CA       0.007906       12.0107           0
      2066 SHT      2066     S        C        CA       0.007906       12.0107           0
      2067 SHT      2067     S        C        CA       0.007906       12.0107           0
      2068 SHT      2068     S        C        CA       0.007906       12.0107           0
      2069 SHT      2069     S        C        CA       0.007906       12.0107           0
      2070 SHT      2070     S        C        CA       0.007906       12.0107           0
      2071 SHT      2071     S        C        CA       0.007906       12.0107           0
      2072 SHT      2072     S        C        CA       0.007906       12.0107           0
      2073 SHT      2073     S        C        CA       0.007906       12.0107           0
      2074 SHT      2074     S        C        CA       0.007906       12.0107           0
      2075 SHT      2075     S        C        CA       0.007906       12.0107           0
      2076 SHT      2076     S        C        CA       0.007906       12.0107           0
      2077 SHT      2077     S        C        CA       0.007906       12.0107           0
      2078 SHT      2078     S        C        CA       0.007906       12.0107           0
      2079 SHT      2079     S        C        CA       0.007906       12.0107           0
      2080 SHT      2080     S        C        CA       0.007906       12.0107           0
      2081 SHT      2081     S        C        CA       0.007906       12.0107           0
      2082 SHT      2082     S        C        CA       0.007906       12.0107           0
      2083 SHT      2083     S        C        CA       0.007906       12.0107           0
      2084 SHT      2084     S        C        CA       0.007906       12.0107           0
      2085 SHT      2085     S        C        CA       0.007906       12.0107           0
      2086 SHT      2086     S        C        CA       0.007906       12.0107           0
      2087 SHT      2087     S        C        CA       0.007906       12.0107           0
      2088 SHT      2088     S        C        CA       0.007906       12.0107           0
      2089 SHT      2089     S        C        CA       0.007906       12.0107           0
      2090 SHT      2090     S        C        CA       0.007906       12.0107           0
      2091 SHT      2091     S        C        CA       0.007906       12.0107           0
      2092 SHT      2092     S        C        CA       0.007906       12.0107           0
      2093 SHT      2093     S        C        CA       0.007906       12.0107           0
      2094 SHT      2094     S        C        CA       0.007906       12.0107           0
      2095 SHT      2095     S        C        CA       0.007906       12.0107           0
      2096 SHT      2096     S        C        CA       0.007906       12.0107           0
      2097 SHT      2097     S        C        CA       0.007906       12.0107           0
      2098 SHT      2098     S        C        CA       0.007906       12.0107           0
      2099 SHT      2099     S        C        CA       0.007906       12.0107           0
      2100 SHT      2100     S        C        CA       0.007906       12.0107           0
      2101 SHT      2101     S        C        CA       0.007906       12.0107           0
      2102 SHT      2102     S        C        CA       0.007906       12.0107           0
      2103 SHT      2103     S        C        CA       0.007906       12.0107           0
      2104 SHT      2104     S        C        CA       0.007906       12.0107           0
      2105 SHT      2105     S        C        CA       0.007906       12.0107           0
      2106 SHT      2106     S        C        CA       0.007906       12.0107           0
      2107 SHT      2107     S        C        CA       0.007906       12.0107           0
      2108 SHT      2108     S        C        CA       0.007906       12.0107           0
      2109 SHT      2109     S        C        CA       0.007906       12.0107           0
      2110 SHT      2110     S        C        CA       0.007906       12.0107           0
      2111 SHT      2111     S        C        CA       0.007906       12.0107           0
      2112 SHT      2112     S        C        CA       0.007906       12.0107           0
      2113 SHT      2113     S        C        CA       0.007906       12.0107           0
      2114 SHT      2114     S        C        CA       0.007906       12.0107           0
      2115 SHT      2115     S        C        CA       0.007906       12.0107           0
      2116 SHT      2116     S        C        CA       0.007906       12.0107           0
      2117 SHT      2117     S        C        CA       0.007906       12.0107           0
      2118 SHT      2118     S        C        CA       0.007906       12.0107           0
      2119 SHT      2119     S        C        CA       0.007906       12.0107           0
      2120 SHT      2120     S        C        CA       0.007906       12.0107           0
      2121 SHT      2121     S        C        CA       0.007906       12.0107           0
      2122 SHT      2122     S        C        CA       0.007906       12.0107           0
      2123 SHT      2123     S        C        CA       0.007906       12.0107           0
      2124 SHT      2124     S        C        CA       0.007906       12.0107           0
      2125 SHT      2125     S        C        CA       0.007906       12.0107           0
      2126 SHT      2126     S        C        CA       0.007906       12.0107           0
      2127 SHT      2127     S        C        CA       0.007906       12.0107           0
      2128 SHT      2128     S        C        CA       0.007906       12.0107           0
      2129 SHT      2129     S        C        CA       0.007906       12.0107           0
      2130 SHT      2130     S        C        CA       0.007906       12.0107           0
      2131 SHT      2131     S        C        CA       0.007906       12.0107           0
      2132 SHT      2132     S        C        CA       0.007906       12.0107           0
      2133 SHT      2133     S        C        CA       0.007906       12.0107           0
      2134 SHT      2134     S        C        CA       0.007906       12.0107           0
      2135 SHT      2135     S        C        CA       0.007906       12.0107           0
      2136 SHT      2136     S        C        CA       0.007906       12.0107           0
      2137 SHT      2137     S        C        CA       0.007906       12.0107           0
      2138 SHT      2138     S        C        CA       0.007906       12.0107           0
      2139 SHT      2139     S        C        CA       0.007906       12.0107           0
      2140 SHT      2140     S        C        CA       0.007906       12.0107           0
      2141 SHT      2141     S        C        CA       0.007906       12.0107           0
      2142 SHT      2142     S        C        CA       0.007906       12.0107           0
      2143 SHT      2143     S        C        CA       0.007906       12.0107           0
      2144 SHT      2144     S        C        CA       0.007906       12.0107           0
      2145 SHT      2145     S        C        CA       0.007906       12.0107           0
      2146 SHT      2146     S        C        CA       0.007906       12.0107           0
      2147 SHT      2147     S        C        CA       0.007906       12.0107           0
      2148 SHT      2148     S        C        CA       0.007906       12.0107           0
      2149 SHT      2149     S        C        CA       0.007906       12.0107           0
      2150 SHT      2150     S        C        CA       0.007906       12.0107           0
      2151 SHT      2151     S        C        CA       0.007906       12.0107           0
      2152 SHT      2152     S        C        CA       0.007906       12.0107           0
      2153 SHT      2153     S        C        CA       0.007906       12.0107           0
      2154 SHT      2154     S        C        CA       0.007906       12.0107           0
      2155 SHT      2155     S        C        CA       0.007906       12.0107           0
      2156 SHT      2156     S        C        CA       0.007906       12.0107           0
      2157 SHT      2157     S        C        CA       0.007906       12.0107           0
      2158 SHT      2158     S        C        CA       0.007906       12.0107           0
      2159 SHT      2159     S        C        CA       0.007906       12.0107           0
      2160 SHT      2160     S        C        CA       0.007906       12.0107           0
      2161 SHT      2161     S        C        CA       0.007906       12.0107           0
      2162 SHT      2162     S        C        CA       0.007906       12.0107           0
      2163 SHT      2163     S        C        CA       0.007906       12.0107           0
      2164 SHT      2164     S        C        CA       0.007906       12.0107           0
      2165 SHT      2165     S        C        CA       0.007906       12.0107           0
      2166 SHT      2166     S        C        CA       0.007906       12.0107           0
      2167 SHT      2167     S        C        CA       0.007906       12.0107           0
      2168 SHT      2168     S        C        CA       0.007906       12.0107           0
      2169 SHT      2169     S        C        CA       0.007906       12.0107           0
      2170 SHT      2170     S        C        CA       0.007906       12.0107           0
      2171 SHT      2171     S        C        CA       0.007906       12.0107           0
      2172 SHT      2172     S        C        CA       0.007906       12.0107           0
      2173 SHT      2173     S        C        CA       0.007906       12.0107           0
      2174 SHT      2174     S        C        CA       0.007906       12.0107           0
      2175 SHT      2175     S        C        CA       0.007906       12.0107           0
      2176 SHT      2176     S        C        CA       0.007906       12.0107           0
      2177 SHT      2177     S        C        CA       0.007906       12.0107           0
      2178 SHT      2178     S        C        CA       0.007906       12.0107           0
      2179 SHT      2179     S        C        CA       0.007906       12.0107           0
      2180 SHT      2180     S        C        CA       0.007906       12.0107           0
      2181 SHT      2181     S        C        CA       0.007906       12.0107           0
      2182 SHT      2182     S        C        CA       0.007906       12.0107           0
      2183 SHT      2183     S        C        CA       0.007906       12.0107           0
      2184 SHT      2184     S        C        CA       0.007906       12.0107           0
      2185 SHT      2185     S        C        CA       0.007906       12.0107           0
      2186 SHT      2186     S        C        CA       0.007906       12.0107           0
      2187 SHT      2187     S        C        CA       0.007906       12.0107           0
      2188 SHT      2188     S        C        CA       0.007906       12.0107           0
      2189 SHT      2189     S        C        CA       0.007906       12.0107           0
      2190 SHT      2190     S        C        CA       0.007906       12.0107           0
      2191 SHT      2191     S        C        CA       0.007906       12.0107           0
      2192 SHT      2192     S        C        CA       0.007906       12.0107           0
      2193 SHT      2193     S        C        CA       0.007906       12.0107           0
      2194 SHT      2194     S        C        CA       0.007906       12.0107           0
      2195 SHT      2195     S        C        CA       0.007906       12.0107           0
      2196 SHT      2196     S        C        CA       0.007906       12.0107           0
      2197 SHT      2197     S        C        CA       0.007906       12.0107           0
      2198 SHT      2198     S        C        CA       0.007906       12.0107           0
      2199 SHT      2199     S        C        CA       0.007906       12.0107           0
      2200 SHT      2200     S        C        CA       0.007906       12.0107           0
      2201 SHT      2201     S        C        CA       0.007906       12.0107           0
      2202 SHT      2202     S        C        CA       0.007906       12.0107           0
      2203 SHT      2203     S        C        CA       0.007906       12.0107           0
      2204 SHT      2204     S        C        CA       0.007906       12.0107           0
      2205 SHT      2205     S        C        CA       0.007906       12.0107           0
      2206 SHT      2206     S        C        CA       0.007906       12.0107           0
      2207 SHT      2207     S        C        CA       0.007906       12.0107           0
      2208 SHT      2208     S        C        CA       0.007906       12.0107           0
      2209 SHT      2209     S        C        CA       0.007906       12.0107           0
      2210 SHT      2210     S        C        CA       0.007906       12.0107           0
      2211 SHT      2211     S        C        CA       0.007906       12.0107           0
      2212 SHT      2212     S        C        CA       0.007906       12.0107           0
      2213 SHT      2213     S        C        CA       0.007906       12.0107           0
      2214 SHT      2214     S        C        CA       0.007906       12.0107           0
      2215 SHT      2215     S        C        CA       0.007906       12.0107           0
      2216 SHT      2216     S        C        CA       0.007906       12.0107           0
      2217 SHT      2217     S        C        CA       0.007906       12.0107           0
      2218 SHT      2218     S        C        CA       0.007906       12.0107           0
      2219 SHT      2219     S        C        CA       0.007906       12.0107           0
      2220 SHT      2220     S        C        CA       0.007906       12.0107           0
      2221 SHT      2221     S        C        CA       0.007906       12.0107           0
      2222 SHT      2222     S        C        CA       0.007906       12.0107           0
      2223 SHT      2223     S        C        CA       0.007906       12.0107           0
      2224 SHT      2224     S        C        CA       0.007906       12.0107           0
      2225 SHT      2225     S        C        CA       0.007906       12.0107           0
      2226 SHT      2226     S        C        CA       0.007906       12.0107           0
      2227 SHT      2227     S        C        CA       0.007906       12.0107           0
      2228 SHT      2228     S        C        CA       0.007906       12.0107           0
      2229 SHT      2229     S        C        CA       0.007906       12.0107           0
      2230 SHT      2230     S        C        CA       0.007906       12.0107           0
      2231 SHT      2231     S        C        CA       0.007906       12.0107           0
      2232 SHT      2232     S        C        CA       0.007906       12.0107           0
      2233 SHT      2233     S        C        CA       0.007906       12.0107           0
      2234 SHT      2234     S        C        CA       0.007906       12.0107           0
      2235 SHT      2235     S        C        CA       0.007906       12.0107           0
      2236 SHT      2236     S        C        CA       0.007906       12.0107           0
      2237 SHT      2237     S        C        CA       0.007906       12.0107           0
      2238 SHT      2238     S        C        CA       0.007906       12.0107           0
      2239 SHT      2239     S        C        CA       0.007906       12.0107           0
      2240 SHT      2240     S        C        CA       0.007906       12.0107           0
      2241 SHT      2241     S        C        CA       0.007906       12.0107           0
      2242 SHT      2242     S        C        CA       0.007906       12.0107           0
      2243 SHT      2243     S        C        CA       0.007906       12.0107           0
      2244 SHT      2244     S        C        CA       0.007906       12.0107           0
      2245 SHT      2245     S        C        CA       0.007906       12.0107           0
      2246 SHT      2246     S        C        CA       0.007906       12.0107           0
      2247 SHT      2247     S        C        CA       0.007906       12.0107           0
      2248 SHT      2248     S        C        CA       0.007906       12.0107           0
      2249 SHT      2249     S        C        CA       0.007906       12.0107           0
      2250 SHT      2250     S        C        CA       0.007906       12.0107           0
      2251 SHT      2251     S        C        CA       0.007906       12.0107           0
      2252 SHT      2252     S        C        CA       0.007906       12.0107           0
      2253 SHT      2253     S        C        CA       0.007906       12.0107           0
      2254 SHT      2254     S        C        CA       0.007906       12.0107           0
      2255 SHT      2255     S        C        CA       0.007906       12.0107           0
      2256 SHT      2256     S        C        CA       0.007906       12.0107           0
      2257 SHT      2257     S        C        CA       0.007906       12.0107           0
      2258 SHT      2258     S        C        CA       0.007906       12.0107           0
      2259 SHT      2259     S        C        CA       0.007906       12.0107           0
      2260 SHT      2260     S        C        CA       0.007906       12.0107           0
      2261 SHT      2261     S        C        CA       0.007906       12.0107           0
      2262 SHT      2262     S        C        CA       0.007906       12.0107           0
      2263 SHT      2263     S        C        CA       0.007906       12.0107           0
      2264 SHT      2264     S        C        CA       0.007906       12.0107           0
      2265 SHT      2265     S        C        CA       0.007906       12.0107           0
      2266 SHT      2266     S        C        CA       0.007906       12.0107           0
      2267 SHT      2267     S        C        CA       0.007906       12.0107           0
      2268 SHT      2268     S        C        CA       0.007906       12.0107           0
      2269 SHT      2269     S        C        CA       0.007906       12.0107           0
      2270 SHT      2270     S        C        CA       0.007906       12.0107           0
      2271 SHT      2271     S        C        CA       0.007906       12.0107           0
      2272 SHT      2272     S        C        CA       0.007906       12.0107           0
      2273 SHT      2273     S        C        CA       0.007906       12.0107           0
      2274 SHT      2274     S        C        CA       0.007906       12.0107           0
      2275 SHT      2275     S        C        CA       0.007906       12.0107           0
      2276 SHT      2276     S        C        CA       0.007906       12.0107           0
      2277 SHT      2277     S        C        CA       0.007906       12.0107           0
      2278 SHT      2278     S        C        CA       0.007906       12.0107           0
      2279 SHT      2279     S        C        CA       0.007906       12.0107           0
      2280 SHT      2280     S        C        CA       0.007906       12.0107           0
      2281 SHT      2281     S        C        CA       0.007906       12.0107           0
      2282 SHT      2282     S        C        CA       0.007906       12.0107           0
      2283 SHT      2283     S        C        CA       0.007906       12.0107           0
      2284 SHT      2284     S        C        CA       0.007906       12.0107           0
      2285 SHT      2285     S        C        CA       0.007906       12.0107           0
      2286 SHT      2286     S        C        CA       0.007906       12.0107           0
      2287 SHT      2287     S        C        CA       0.007906       12.0107           0
      2288 SHT      2288     S        C        CA       0.007906       12.0107           0
      2289 SHT      2289     S        C        CA       0.007906       12.0107           0
      2290 SHT      2290     S        C        CA       0.007906       12.0107           0
      2291 SHT      2291     S        C        CA       0.007906       12.0107           0
      2292 SHT      2292     S        C        CA       0.007906       12.0107           0
      2293 SHT      2293     S        C        CA       0.007906       12.0107           0
      2294 SHT      2294     S        C        CA       0.007906       12.0107           0
      2295 SHT      2295     S        C        CA       0.007906       12.0107           0
      2296 SHT      2296     S        C        CA       0.007906       12.0107           0
      2297 SHT      2297     S        C        CA       0.007906       12.0107           0
      2298 SHT      2298     S        C        CA       0.007906       12.0107           0
      2299 SHT      2299     S        C        CA       0.007906       12.0107           0
      2300 SHT      2300     S        C        CA       0.007906       12.0107           0
      2301 SHT      2301     S        C        CA       0.007906       12.0107           0
      2302 SHT      2302     S        C        CA       0.007906       12.0107           0
      2303 SHT      2303     S        C        CA       0.007906       12.0107           0
      2304 SHT      2304     S        C        CA       0.007906       12.0107           0
      2305 SHT      2305     S        C        CA       0.007906       12.0107           0
      2306 SHT      2306     S        C        CA       0.007906       12.0107           0
      2307 SHT      2307     S        C        CA       0.007906       12.0107           0
      2308 SHT      2308     S        C        CA       0.007906       12.0107           0
      2309 SHT      2309     S        C        CA       0.007906       12.0107           0
      2310 SHT      2310     S        C        CA       0.007906       12.0107           0
      2311 SHT      2311     S        C        CA       0.007906       12.0107           0
      2312 SHT      2312     S        C        CA       0.007906       12.0107           0
      2313 SHT      2313     S        C        CA       0.007906       12.0107           0
      2314 SHT      2314     S        C        CA       0.007906       12.0107           0
      2315 SHT      2315     S        C        CA       0.007906       12.0107           0
      2316 SHT      2316     S        C        CA       0.007906       12.0107           0
      2317 SHT      2317     S        C        CA       0.007906       12.0107           0
      2318 SHT      2318     S        C        CA       0.007906       12.0107           0
      2319 SHT      2319     S        C        CA       0.007906       12.0107           0
      2320 SHT      2320     S        C        CA       0.007906       12.0107           0
      2321 SHT      2321     S        C        CA       0.007906       12.0107           0
      2322 SHT      2322     S        C        CA       0.007906       12.0107           0
      2323 SHT      2323     S        C        CA       0.007906       12.0107           0
      2324 SHT      2324     S        C        CA       0.007906       12.0107           0
      2325 SHT      2325     S        C        CA       0.007906       12.0107           0
      2326 SHT      2326     S        C        CA       0.007906       12.0107           0
      2327 SHT      2327     S        C        CA       0.007906       12.0107           0
      2328 SHT      2328     S        C        CA       0.007906       12.0107           0
      2329 SHT      2329     S        C        CA       0.007906       12.0107           0
      2330 SHT      2330     S        C        CA       0.007906       12.0107           0
      2331 SHT      2331     S        C        CA       0.007906       12.0107           0
      2332 SHT      2332     S        C        CA       0.007906       12.0107           0
      2333 SHT      2333     S        C        CA       0.007906       12.0107           0
      2334 SHT      2334     S        C        CA       0.007906       12.0107           0
      2335 SHT      2335     S        C        CA       0.007906       12.0107           0
      2336 SHT      2336     S        C        CA       0.007906       12.0107           0
      2337 SHT      2337     S        C        CA       0.007906       12.0107           0
      2338 SHT      2338     S        C        CA       0.007906       12.0107           0
      2339 SHT      2339     S        C        CA       0.007906       12.0107           0
      2340 SHT      2340     S        C        CA       0.007906       12.0107           0
      2341 SHT      2341     S        C        CA       0.007906       12.0107           0
      2342 SHT      2342     S        C        CA       0.007906       12.0107           0
      2343 SHT      2343     S        C        CA       0.007906       12.0107           0
      2344 SHT      2344     S        C        CA       0.007906       12.0107           0
      2345 SHT      2345     S        C        CA       0.007906       12.0107           0
      2346 SHT      2346     S        C        CA       0.007906       12.0107           0
      2347 SHT      2347     S        C        CA       0.007906       12.0107           0
      2348 SHT      2348     S        C        CA       0.007906       12.0107           0
      2349 SHT      2349     S        C        CA       0.007906       12.0107           0
      2350 SHT      2350     S        C        CA       0.007906       12.0107           0
      2351 SHT      2351     S        C        CA       0.007906       12.0107           0
      2352 SHT      2352     S        C        CA       0.007906       12.0107           0
      2353 SHT      2353     S        C        CA       0.007906       12.0107           0
      2354 SHT      2354     S        C        CA       0.007906       12.0107           0
      2355 SHT      2355     S        C        CA       0.007906       12.0107           0
      2356 SHT      2356     S        C        CA       0.007906       12.0107           0
      2357 SHT      2357     S        C        CA       0.007906       12.0107           0
      2358 SHT      2358     S        C        CA       0.007906       12.0107           0
      2359 SHT      2359     S        C        CA       0.007906       12.0107           0
      2360 SHT      2360     S        C        CA       0.007906       12.0107           0
      2361 SHT      2361     S        C        CA       0.007906       12.0107           0
      2362 SHT      2362     S        C        CA       0.007906       12.0107           0
      2363 SHT      2363     S        C        CA       0.007906       12.0107           0
      2364 SHT      2364     S        C        CA       0.007906       12.0107           0
      2365 SHT      2365     S        C        CA       0.007906       12.0107           0
      2366 SHT      2366     S        C        CA       0.007906       12.0107           0
      2367 SHT      2367     S        C        CA       0.007906       12.0107           0
      2368 SHT      2368     S        C        CA       0.007906       12.0107           0
      2369 SHT      2369     S        C        CA       0.007906       12.0107           0
      2370 SHT      2370     S        C        CA       0.007906       12.0107           0
      2371 SHT      2371     S        C        CA       0.007906       12.0107           0
      2372 SHT      2372     S        C        CA       0.007906       12.0107           0
      2373 SHT      2373     S        C        CA       0.007906       12.0107           0
      2374 SHT      2374     S        C        CA       0.007906       12.0107           0
      2375 SHT      2375     S        C        CA       0.007906       12.0107           0
      2376 SHT      2376     S        C        CA       0.007906       12.0107           0
      2377 SHT      2377     S        C        CA       0.007906       12.0107           0
      2378 SHT      2378     S        C        CA       0.007906       12.0107           0
      2379 SHT      2379     S        C        CA       0.007906       12.0107           0
      2380 SHT      2380     S        C        CA       0.007906       12.0107           0
      2381 SHT      2381     S        C        CA       0.007906       12.0107           0
      2382 SHT      2382     S        C        CA       0.007906       12.0107           0
      2383 SHT      2383     S        C        CA       0.007906       12.0107           0
      2384 SHT      2384     S        C        CA       0.007906       12.0107           0
      2385 SHT      2385     S        C        CA       0.007906       12.0107           0
      2386 SHT      2386     S        C        CA       0.007906       12.0107           0
      2387 SHT      2387     S        C        CA       0.007906       12.0107           0
      2388 SHT      2388     S        C        CA       0.007906       12.0107           0
      2389 SHT      2389     S        C        CA       0.007906       12.0107           0
      2390 SHT      2390     S        C        CA       0.007906       12.0107           0
      2391 SHT      2391     S        C        CA       0.007906       12.0107           0
      2392 SHT      2392     S        C        CA       0.007906       12.0107           0
      2393 SHT      2393     S        C        CA       0.007906       12.0107           0
      2394 SHT      2394     S        C        CA       0.007906       12.0107           0
      2395 SHT      2395     S        C        CA       0.007906       12.0107           0
      2396 SHT      2396     S        C        CA       0.007906       12.0107           0
      2397 SHT      2397     S        C        CA       0.007906       12.0107           0
      2398 SHT      2398     S        C        CA       0.007906       12.0107           0
      2399 SHT      2399     S        C        CA       0.007906       12.0107           0
      2400 SHT      2400     S        C        CA       0.007906       12.0107           0
      2401 SHT      2401     S        C        CA       0.007906       12.0107           0
      2402 SHT      2402     S        C        CA       0.007906       12.0107           0
      2403 SHT      2403     S        C        CA       0.007906       12.0107           0
      2404 SHT      2404     S        C        CA       0.007906       12.0107           0
      2405 SHT      2405     S        C        CA       0.007906       12.0107           0
      2406 SHT      2406     S        C        CA       0.007906       12.0107           0
      2407 SHT      2407     S        C        CA       0.007906       12.0107           0
      2408 SHT      2408     S        C        CA       0.007906       12.0107           0
      2409 SHT      2409     S        C        CA       0.007906       12.0107           0
      2410 SHT      2410     S        C        CA       0.007906       12.0107           0
      2411 SHT      2411     S        C        CA       0.007906       12.0107           0
      2412 SHT      2412     S        C        CA       0.007906       12.0107           0
      2413 SHT      2413     S        C        CA       0.007906       12.0107           0
      2414 SHT      2414     S        C        CA       0.007906       12.0107           0
      2415 SHT      2415     S        C        CA       0.007906       12.0107           0
      2416 SHT      2416     S        C        CA       0.007906       12.0107           0
      2417 SHT      2417     S        C        CA       0.007906       12.0107           0
      2418 SHT      2418     S        C        CA       0.007906       12.0107           0
      2419 SHT      2419     S        C        CA       0.007906       12.0107           0
      2420 SHT      2420     S        C        CA       0.007906       12.0107           0
      2421 SHT      2421     S        C        CA       0.007906       12.0107           0
      2422 SHT      2422     S        C        CA       0.007906       12.0107           0
      2423 SHT      2423     S        C        CA       0.007906       12.0107           0
      2424 SHT      2424     S        C        CA       0.007906       12.0107           0
      2425 SHT      2425     S        C        CA       0.007906       12.0107           0
      2426 SHT      2426     S        C        CA       0.007906       12.0107           0
      2427 SHT      2427     S        C        CA       0.007906       12.0107           0
      2428 SHT      2428     S        C        CA       0.007906       12.0107           0
      2429 SHT      2429     S        C        CA       0.007906       12.0107           0
      2430 SHT      2430     S        C        CA       0.007906       12.0107           0
      2431 SHT      2431     S        C        CA       0.007906       12.0107           0
      2432 SHT      2432     S        C        CA       0.007906       12.0107           0
      2433 SHT      2433     S        C        CA       0.007906       12.0107           0
      2434 SHT      2434     S        C        CA       0.007906       12.0107           0
      2435 SHT      2435     S        C        CA       0.007906       12.0107           0
      2436 SHT      2436     S        C        CA       0.007906       12.0107           0
      2437 SHT      2437     S        C        CA       0.007906       12.0107           0
      2438 SHT      2438     S        C        CA       0.007906       12.0107           0
      2439 SHT      2439     S        C        CA       0.007906       12.0107           0
      2440 SHT      2440     S        C        CA       0.007906       12.0107           0
      2441 SHT      2441     S        C        CA       0.007906       12.0107           0
      2442 SHT      2442     S        C        CA       0.007906       12.0107           0
      2443 SHT      2443     S        C        CA       0.007906       12.0107           0
      2444 SHT      2444     S        C        CA       0.007906       12.0107           0
      2445 SHT      2445     S        C        CA       0.007906       12.0107           0
      2446 SHT      2446     S        C        CA       0.007906       12.0107           0
      2447 SHT      2447     S        C        CA       0.007906       12.0107           0
      2448 SHT      2448     S        C        CA       0.007906       12.0107           0
      2449 SHT      2449     S        C        CA       0.007906       12.0107           0
      2450 SHT      2450     S        C        CA       0.007906       12.0107           0
      2451 SHT      2451     S        C        CA       0.007906       12.0107           0
      2452 SHT      2452     S        C        CA       0.007906       12.0107           0
      2453 SHT      2453     S        C        CA       0.007906       12.0107           0
      2454 SHT      2454     S        C        CA       0.007906       12.0107           0
      2455 SHT      2455     S        C        CA       0.007906       12.0107           0
      2456 SHT      2456     S        C        CA       0.007906       12.0107           0
      2457 SHT      2457     S        C        CA       0.007906       12.0107           0
      2458 SHT      2458     S        C        CA       0.007906       12.0107           0
      2459 SHT      2459     S        C        CA       0.007906       12.0107           0
      2460 SHT      2460     S        C        CA       0.007906       12.0107           0
      2461 SHT      2461     S        C        CA       0.007906       12.0107           0
      2462 SHT      2462     S        C        CA       0.007906       12.0107           0
      2463 SHT      2463     S        C        CA       0.007906       12.0107           0
      2464 SHT      2464     S        C        CA       0.007906       12.0107           0
      2465 SHT      2465     S        C        CA       0.007906       12.0107           0
      2466 SHT      2466     S        C        CA       0.007906       12.0107           0
      2467 SHT      2467     S        C        CA       0.007906       12.0107           0
      2468 SHT      2468     S        C        CA       0.007906       12.0107           0
      2469 SHT      2469     S        C        CA       0.007906       12.0107           0
      2470 SHT      2470     S        C        CA       0.007906       12.0107           0
      2471 SHT      2471     S        C        CA       0.007906       12.0107           0
      2472 SHT      2472     S        C        CA       0.007906       12.0107           0
      2473 SHT      2473     S        C        CA       0.007906       12.0107           0
      2474 SHT      2474     S        C        CA       0.007906       12.0107           0
      2475 SHT      2475     S        C        CA       0.007906       12.0107           0
      2476 SHT      2476     S        C        CA       0.007906       12.0107           0
      2477 SHT      2477     S        C        CA       0.007906       12.0107           0
      2478 SHT      2478     S        C        CA       0.007906       12.0107           0
      2479 SHT      2479     S        C        CA       0.007906       12.0107           0
      2480 SHT      2480     S        C        CA       0.007906       12.0107           0
      2481 SHT      2481     S        C        CA       0.007906       12.0107           0
      2482 SHT      2482     S        C        CA       0.007906       12.0107           0
      2483 SHT      2483     S        C        CA       0.007906       12.0107           0
      2484 SHT      2484     S        C        CA       0.007906       12.0107           0
      2485 SHT      2485     S        C        CA       0.007906       12.0107           0
      2486 SHT      2486     S        C        CA       0.007906       12.0107           0
      2487 SHT      2487     S        C        CA       0.007906       12.0107           0
      2488 SHT      2488     S        C        CA       0.007906       12.0107           0
      2489 SHT      2489     S        C        CA       0.007906       12.0107           0
      2490 SHT      2490     S        C        CA       0.007906       12.0107           0
      2491 SHT      2491     S        C        CA       0.007906       12.0107           0
      2492 SHT      2492     S        C        CA       0.007906       12.0107           0
      2493 SHT      2493     S        C        CA       0.007906       12.0107           0
      2494 SHT      2494     S        C        CA       0.007906       12.0107           0
      2495 SHT      2495     S        C        CA       0.007906       12.0107           0
      2496 SHT      2496     S        C        CA       0.007906       12.0107           0
      2497 SHT      2497     S        C        CA       0.007906       12.0107           0
      2498 SHT      2498     S        C        CA       0.007906       12.0107           0
      2499 SHT      2499     S        C        CA       0.007906       12.0107           0
      2500 SHT      2500     S        C        CA       0.007906       12.0107           0
      2501 SHT      2501     S        C        CA       0.007906       12.0107           0
      2502 SHT      2502     S        C        CA       0.007906       12.0107           0
      2503 SHT      2503     S        C        CA       0.007906       12.0107           0
      2504 SHT      2504     S        C        CA       0.007906       12.0107           0
      2505 SHT      2505     S        C        CA       0.007906       12.0107           0
      2506 SHT      2506     S        C        CA       0.007906       12.0107           0
      2507 SHT      2507     S        C        CA       0.007906       12.0107           0
      2508 SHT      2508     S        C        CA       0.007906       12.0107           0
      2509 SHT      2509     S        C        CA       0.007906       12.0107           0
      2510 SHT      2510     S        C        CA       0.007906       12.0107           0
      2511 SHT      2511     S        C        CA       0.007906       12.0107           0
      2512 SHT      2512     S        C        CA       0.007906       12.0107           0
      2513 SHT      2513     S        C        CA       0.007906       12.0107           0
      2514 SHT      2514     S        C        CA       0.007906       12.0107           0
      2515 SHT      2515     S        C        CA       0.007906       12.0107           0
      2516 SHT      2516     S        C        CA       0.007906       12.0107           0
      2517 SHT      2517     S        C        CA       0.007906       12.0107           0
      2518 SHT      2518     S        C        CA       0.007906       12.0107           0
      2519 SHT      2519     S        C        CA       0.007906       12.0107           0
      2520 SHT      2520     S        C        CA       0.007906       12.0107           0
      2521 SHT      2521     S        C        CA       0.007906       12.0107           0
      2522 SHT      2522     S        C        CA       0.007906       12.0107           0
      2523 SHT      2523     S        C        CA       0.007906       12.0107           0
      2524 SHT      2524     S        C        CA       0.007906       12.0107           0
      2525 SHT      2525     S        C        CA       0.007906       12.0107           0
      2526 SHT      2526     S        C        CA       0.007906       12.0107           0
      2527 SHT      2527     S        C        CA       0.007906       12.0107           0
      2528 SHT      2528     S        C        CA       0.007906       12.0107           0
      2529 SHT      2529     S        C        CA       0.007906       12.0107           0
      2530 SHT      2530     S        C        CA       0.007906       12.0107           0
      2531 SHT      2531     S        C        CA       0.007906       12.0107           0
      2532 SHT      2532     S        C        CA       0.007906       12.0107           0
      2533 SHT      2533     S        C        CA       0.007906       12.0107           0
      2534 SHT      2534     S        C        CA       0.007906       12.0107           0
      2535 SHT      2535     S        C        CA       0.007906       12.0107           0
      2536 SHT      2536     S        C        CA       0.007906       12.0107           0
      2537 SHT      2537     S        C        CA       0.007906       12.0107           0
      2538 SHT      2538     S        C        CA       0.007906       12.0107           0
      2539 SHT      2539     S        C        CA       0.007906       12.0107           0
      2540 SHT      2540     S        C        CA       0.007906       12.0107           0
      2541 SHT      2541     S        C        CA       0.007906       12.0107           0
      2542 SHT      2542     S        C        CA       0.007906       12.0107           0
      2543 SHT      2543     S        C        CA       0.007906       12.0107           0
      2544 SHT      2544     S        C        CA       0.007906       12.0107           0
      2545 SHT      2545     S        C        CA       0.007906       12.0107           0
      2546 SHT      2546     S        C        CA       0.007906       12.0107           0
      2547 SHT      2547     S        C        CA       0.007906       12.0107           0
      2548 SHT      2548     S        C        CA       0.007906       12.0107           0
      2549 SHT      2549     S        C        CA       0.007906       12.0107           0
      2550 SHT      2550     S        C        CA       0.007906       12.0107           0
      2551 SHT      2551     S        C        CA       0.007906       12.0107           0
      2552 SHT      2552     S        C        CA       0.007906       12.0107           0
      2553 SHT      2553     S        C        CA       0.007906       12.0107           0
      2554 SHT      2554     S        C        CA       0.007906       12.0107           0
      2555 SHT      2555     S        C        CA       0.007906       12.0107           0
      2556 SHT      2556     S        C        CA       0.007906       12.0107           0
      2557 SHT      2557     S        C        CA       0.007906       12.0107           0
      2558 SHT      2558     S        C        CA       0.007906       12.0107           0
      2559 SHT      2559     S        C        CA       0.007906       12.0107           0
      2560 SHT      2560     S        C        CA       0.007906       12.0107           0
      2561 SHT      2561     S        C        CA       0.007906       12.0107           0
      2562 SHT      2562     S        C        CA       0.007906       12.0107           0
      2563 SHT      2563     S        C        CA       0.007906       12.0107           0
      2564 SHT      2564     S        C        CA       0.007906       12.0107           0
      2565 SHT      2565     S        C        CA       0.007906       12.0107           0
      2566 SHT      2566     S        C        CA       0.007906       12.0107           0
      2567 SHT      2567     S        C        CA       0.007906       12.0107           0
      2568 SHT      2568     S        C        CA       0.007906       12.0107           0
      2569 SHT      2569     S        C        CA       0.007906       12.0107           0
      2570 SHT      2570     S        C        CA       0.007906       12.0107           0
      2571 SHT      2571     S        C        CA       0.007906       12.0107           0
      2572 SHT      2572     S        C        CA       0.007906       12.0107           0
      2573 SHT      2573     S        C        CA       0.007906       12.0107           0
      2574 SHT      2574     S        C        CA       0.007906       12.0107           0
      2575 SHT      2575     S        C        CA       0.007906       12.0107           0
      2576 SHT      2576     S        C        CA       0.007906       12.0107           0
      2577 SHT      2577     S        C        CA       0.007906       12.0107           0
      2578 SHT      2578     S        C        CA       0.007906       12.0107           0
      2579 SHT      2579     S        C        CA       0.007906       12.0107           0
      2580 SHT      2580     S        C        CA       0.007906       12.0107           0
      2581 SHT      2581     S        C        CA       0.007906       12.0107           0
      2582 SHT      2582     S        C        CA       0.007906       12.0107           0
      2583 SHT      2583     S        C        CA       0.007906       12.0107           0
      2584 SHT      2584     S        C        CA       0.007906       12.0107           0
      2585 SHT      2585     S        C        CA       0.007906       12.0107           0
      2586 SHT      2586     S        C        CA       0.007906       12.0107           0
      2587 SHT      2587     S        C        CA       0.007906       12.0107           0
      2588 SHT      2588     S        C        CA       0.007906       12.0107           0
      2589 SHT      2589     S        C        CA       0.007906       12.0107           0
      2590 SHT      2590     S        C        CA       0.007906       12.0107           0
      2591 SHT      2591     S        C        CA       0.007906       12.0107           0
      2592 SHT      2592     S        C        CA       0.007906       12.0107           0
      2593 SHT      2593     S        C        CA       0.007906       12.0107           0
      2594 SHT      2594     S        C        CA       0.007906       12.0107           0
      2595 SHT      2595     S        C        CA       0.007906       12.0107           0
      2596 SHT      2596     S        C        CA       0.007906       12.0107           0
      2597 SHT      2597     S        C        CA       0.007906       12.0107           0
      2598 SHT      2598     S        C        CA       0.007906       12.0107           0
      2599 SHT      2599     S        C        CA       0.007906       12.0107           0
      2600 SHT      2600     S        C        CA       0.007906       12.0107           0
      2601 SHT      2601     S        C        CA       0.007906       12.0107           0
      2602 SHT      2602     S        C        CA       0.007906       12.0107           0
      2603 SHT      2603     S        C        CA       0.007906       12.0107           0
      2604 SHT      2604     S        C        CA       0.007906       12.0107           0
      2605 SHT      2605     S        C        CA       0.007906       12.0107           0
      2606 SHT      2606     S        C        CA       0.007906       12.0107           0
      2607 SHT      2607     S        C        CA       0.007906       12.0107           0
      2608 SHT      2608     S        C        CA       0.007906       12.0107           0
      2609 SHT      2609     S        C        CA       0.007906       12.0107           0
      2610 SHT      2610     S        C        CA       0.007906       12.0107           0
      2611 SHT      2611     S        C        CA       0.007906       12.0107           0
      2612 SHT      2612     S        C        CA       0.007906       12.0107           0
      2613 SHT      2613     S        C        CA       0.007906       12.0107           0
      2614 SHT      2614     S        C        CA       0.007906       12.0107           0
      2615 SHT      2615     S        C        CA       0.007906       12.0107           0
      2616 SHT      2616     S        C        CA       0.007906       12.0107           0
      2617 SHT      2617     S        C        CA       0.007906       12.0107           0
      2618 SHT      2618     S        C        CA       0.007906       12.0107           0
      2619 SHT      2619     S        C        CA       0.007906       12.0107           0
      2620 SHT      2620     S        C        CA       0.007906       12.0107           0
      2621 SHT      2621     S        C        CA       0.007906       12.0107           0
      2622 SHT      2622     S        C        CA       0.007906       12.0107           0
      2623 SHT      2623     S        C        CA       0.007906       12.0107           0
      2624 SHT      2624     S        C        CA       0.007906       12.0107           0
      2625 SHT      2625     S        C        CA       0.007906       12.0107           0
      2626 SHT      2626     S        C        CA       0.007906       12.0107           0
      2627 SHT      2627     S        C        CA       0.007906       12.0107           0
      2628 SHT      2628     S        C        CA       0.007906       12.0107           0
      2629 SHT      2629     S        C        CA       0.007906       12.0107           0
      2630 SHT      2630     S        C        CA       0.007906       12.0107           0
      2631 SHT      2631     S        C        CA       0.007906       12.0107           0
      2632 SHT      2632     S        C        CA       0.007906       12.0107           0
      2633 SHT      2633     S        C        CA       0.007906       12.0107           0
      2634 SHT      2634     S        C        CA       0.007906       12.0107           0
      2635 SHT      2635     S        C        CA       0.007906       12.0107           0
      2636 SHT      2636     S        C        CA       0.007906       12.0107           0
      2637 SHT      2637     S        C        CA       0.007906       12.0107           0
      2638 SHT      2638     S        C        CA       0.007906       12.0107           0
      2639 SHT      2639     S        C        CA       0.007906       12.0107           0
      2640 SHT      2640     S        C        CA       0.007906       12.0107           0
      2641 SHT      2641     S        C        CA       0.007906       12.0107           0
      2642 SHT      2642     S        C        CA       0.007906       12.0107           0
      2643 SHT      2643     S        C        CA       0.007906       12.0107           0
      2644 SHT      2644     S        C        CA       0.007906       12.0107           0
      2645 SHT      2645     S        C        CA       0.007906       12.0107           0
      2646 SHT      2646     S        C        CA       0.007906       12.0107           0
      2647 SHT      2647     S        C        CA       0.007906       12.0107           0
      2648 SHT      2648     S        C        CA       0.007906       12.0107           0
      2649 SHT      2649     S        C        CA       0.007906       12.0107           0
      2650 SHT      2650     S        C        CA       0.007906       12.0107           0
      2651 SHT      2651     S        C        CA       0.007906       12.0107           0
      2652 SHT      2652     S        C        CA       0.007906       12.0107           0
      2653 SHT      2653     S        C        CA       0.007906       12.0107           0
      2654 SHT      2654     S        C        CA       0.007906       12.0107           0
      2655 SHT      2655     S        C        CA       0.007906       12.0107           0
      2656 SHT      2656     S        C        CA       0.007906       12.0107           0
      2657 SHT      2657     S        C        CA       0.007906       12.0107           0
      2658 SHT      2658     S        C        CA       0.007906       12.0107           0
      2659 SHT      2659     S        C        CA       0.007906       12.0107           0
      2660 SHT      2660     S        C        CA       0.007906       12.0107           0
      2661 SHT      2661     S        C        CA       0.007906       12.0107           0
      2662 SHT      2662     S        C        CA       0.007906       12.0107           0
      2663 SHT      2663     S        C        CA       0.007906       12.0107           0
      2664 SHT      2664     S        C        CA       0.007906       12.0107           0
      2665 SHT      2665     S        C        CA       0.007906       12.0107           0
      2666 SHT      2666     S        C        CA       0.007906       12.0107           0
      2667 SHT      2667     S        C        CA       0.007906       12.0107           0
      2668 SHT      2668     S        C        CA       0.007906       12.0107           0
      2669 SHT      2669     S        C        CA       0.007906       12.0107           0
      2670 SHT      2670     S        C        CA       0.007906       12.0107           0
      2671 SHT      2671     S        C        CA       0.007906       12.0107           0
      2672 SHT      2672     S        C        CA       0.007906       12.0107           0
      2673 SHT      2673     S        C        CA       0.007906       12.0107           0
      2674 SHT      2674     S        C        CA       0.007906       12.0107           0
      2675 SHT      2675     S        C        CA       0.007906       12.0107           0
      2676 SHT      2676     S        C        CA       0.007906       12.0107           0
      2677 SHT      2677     S        C        CA       0.007906       12.0107           0
      2678 SHT      2678     S        C        CA       0.007906       12.0107           0
      2679 SHT      2679     S        C        CA       0.007906       12.0107           0
      2680 SHT      2680     S        C        CA       0.007906       12.0107           0
      2681 SHT      2681     S        C        CA       0.007906       12.0107           0
      2682 SHT      2682     S        C        CA       0.007906       12.0107           0
      2683 SHT      2683     S        C        CA       0.007906       12.0107           0
      2684 SHT      2684     S        C        CA       0.007906       12.0107           0
      2685 SHT      2685     S        C        CA       0.007906       12.0107           0
      2686 SHT      2686     S        C        CA       0.007906       12.0107           0
      2687 SHT      2687     S        C        CA       0.007906       12.0107           0
      2688 SHT      2688     S        C        CA       0.007906       12.0107           0
      2689 SHT      2689     S        C        CA       0.007906       12.0107           0
      2690 SHT      2690     S        C        CA       0.007906       12.0107           0
      2691 SHT      2691     S        C        CA       0.007906       12.0107           0
      2692 SHT      2692     S        C        CA       0.007906       12.0107           0
      2693 SHT      2693     S        C        CA       0.007906       12.0107           0
      2694 SHT      2694     S        C        CA       0.007906       12.0107           0
      2695 SHT      2695     S        C        CA       0.007906       12.0107           0
      2696 SHT      2696     S        C        CA       0.007906       12.0107           0
      2697 SHT      2697     S        C        CA       0.007906       12.0107           0
      2698 SHT      2698     S        C        CA       0.007906       12.0107           0
      2699 SHT      2699     S        C        CA       0.007906       12.0107           0
      2700 SHT      2700     S        C        CA       0.007906       12.0107           0
      2701 SHT      2701     S        C        CA       0.007906       12.0107           0
      2702 SHT      2702     S        C        CA       0.007906       12.0107           0
      2703 SHT      2703     S        C        CA       0.007906       12.0107           0
      2704 SHT      2704     S        C        CA       0.007906       12.0107           0
      2705 SHT      2705     S        C        CA       0.007906       12.0107           0
      2706 SHT      2706     S        C        CA       0.007906       12.0107           0
      2707 SHT      2707     S        C        CA       0.007906       12.0107           0
      2708 SHT      2708     S        C        CA       0.007906       12.0107           0
      2709 SHT      2709     S        C        CA       0.007906       12.0107           0
      2710 SHT      2710     S        C        CA       0.007906       12.0107           0
      2711 SHT      2711     S        C        CA       0.007906       12.0107           0
      2712 SHT      2712     S        C        CA       0.007906       12.0107           0
      2713 SHT      2713     S        C        CA       0.007906       12.0107           0
      2714 SHT      2714     S        C        CA       0.007906       12.0107           0
      2715 SHT      2715     S        C        CA       0.007906       12.0107           0
      2716 SHT      2716     S        C        CA       0.007906       12.0107           0
      2717 SHT      2717     S        C        CA       0.007906       12.0107           0
      2718 SHT      2718     S        C        CA       0.007906       12.0107           0
      2719 SHT      2719     S        C        CA       0.007906       12.0107           0
      2720 SHT      2720     S        C        CA       0.007906       12.0107           0
      2721 SHT      2721     S        C        CA       0.007906       12.0107           0
      2722 SHT      2722     S        C        CA       0.007906       12.0107           0
      2723 SHT      2723     S        C        CA       0.007906       12.0107           0
      2724 SHT      2724     S        C        CA       0.007906       12.0107           0
      2725 SHT      2725     S        C        CA       0.007906       12.0107           0
      2726 SHT      2726     S        C        CA       0.007906       12.0107           0
      2727 SHT      2727     S        C        CA       0.007906       12.0107           0
      2728 SHT      2728     S        C        CA       0.007906       12.0107           0
      2729 SHT      2729     S        C        CA       0.007906       12.0107           0
      2730 SHT      2730     S        C        CA       0.007906       12.0107           0
      2731 SHT      2731     S        C        CA       0.007906       12.0107           0
      2732 SHT      2732     S        C        CA       0.007906       12.0107           0
      2733 SHT      2733     S        C        CA       0.007906       12.0107           0
      2734 SHT      2734     S        C        CA       0.007906       12.0107           0
      2735 SHT      2735     S        C        CA       0.007906       12.0107           0
      2736 SHT      2736     S        C        CA       0.007906       12.0107           0
      2737 SHT      2737     S        C        CA       0.007906       12.0107           0
      2738 SHT      2738     S        C        CA       0.007906       12.0107           0
      2739 SHT      2739     S        C        CA       0.007906       12.0107           0
      2740 SHT      2740     S        C        CA       0.007906       12.0107           0
      2741 SHT      2741     S        C        CA       0.007906       12.0107           0
      2742 SHT      2742     S        C        CA       0.007906       12.0107           0
      2743 SHT      2743     S        C        CA       0.007906       12.0107           0
      2744 SHT      2744     S        C        CA       0.007906       12.0107           0
      2745 SHT      2745     S        C        CA       0.007906       12.0107           0
      2746 SHT      2746     S        C        CA       0.007906       12.0107           0
      2747 SHT      2747     S        C        CA       0.007906       12.0107           0
      2748 SHT      2748     S        C        CA       0.007906       12.0107           0
      2749 SHT      2749     S        C        CA       0.007906       12.0107           0
      2750 SHT      2750     S        C        CA       0.007906       12.0107           0
      2751 SHT      2751     S        C        CA       0.007906       12.0107           0
      2752 SHT      2752     S        C        CA       0.007906       12.0107           0
      2753 SHT      2753     S        C        CA       0.007906       12.0107           0
      2754 SHT      2754     S        C        CA       0.007906       12.0107           0
      2755 SHT      2755     S        C        CA       0.007906       12.0107           0
      2756 SHT      2756     S        C        CA       0.007906       12.0107           0
      2757 SHT      2757     S        C        CA       0.007906       12.0107           0
      2758 SHT      2758     S        C        CA       0.007906       12.0107           0
      2759 SHT      2759     S        C        CA       0.007906       12.0107           0
      2760 SHT      2760     S        C        CA       0.007906       12.0107           0
      2761 SHT      2761     S        C        CA       0.007906       12.0107           0
      2762 SHT      2762     S        C        CA       0.007906       12.0107           0
      2763 SHT      2763     S        C        CA       0.007906       12.0107           0
      2764 SHT      2764     S        C        CA       0.007906       12.0107           0
      2765 SHT      2765     S        C        CA       0.007906       12.0107           0
      2766 SHT      2766     S        C        CA       0.007906       12.0107           0
      2767 SHT      2767     S        C        CA       0.007906       12.0107           0
      2768 SHT      2768     S        C        CA       0.007906       12.0107           0
      2769 SHT      2769     S        C        CA       0.007906       12.0107           0
      2770 SHT      2770     S        C        CA       0.007906       12.0107           0
      2771 SHT      2771     S        C        CA       0.007906       12.0107           0
      2772 SHT      2772     S        C        CA       0.007906       12.0107           0
      2773 SHT      2773     S        C        CA       0.007906       12.0107           0
      2774 SHT      2774     S        C        CA       0.007906       12.0107           0
      2775 SHT      2775     S        C        CA       0.007906       12.0107           0
      2776 SHT      2776     S        C        CA       0.007906       12.0107           0
      2777 SHT      2777     S        C        CA       0.007906       12.0107           0
      2778 SHT      2778     S        C        CA       0.007906       12.0107           0
      2779 SHT      2779     S        C        CA       0.007906       12.0107           0
      2780 SHT      2780     S        C        CA       0.007906       12.0107           0
      2781 SHT      2781     S        C        CA       0.007906       12.0107           0
      2782 SHT      2782     S        C        CA       0.007906       12.0107           0
      2783 SHT      2783     S        C        CA       0.007906       12.0107           0
      2784 SHT      2784     S        C        CA       0.007906       12.0107           0
      2785 SHT      2785     S        C        CA       0.007906       12.0107           0
      2786 SHT      2786     S        C        CA       0.007906       12.0107           0
      2787 SHT      2787     S        C        CA       0.007906       12.0107           0
      2788 SHT      2788     S        C        CA       0.007906       12.0107           0
      2789 SHT      2789     S        C        CA       0.007906       12.0107           0
      2790 SHT      2790     S        C        CA       0.007906       12.0107           0
      2791 SHT      2791     S        C        CA       0.007906       12.0107           0
      2792 SHT      2792     S        C        CA       0.007906       12.0107           0
      2793 SHT      2793     S        C        CA       0.007906       12.0107           0
      2794 SHT      2794     S        C        CA       0.007906       12.0107           0
      2795 SHT      2795     S        C        CA       0.007906       12.0107           0
      2796 SHT      2796     S        C        CA       0.007906       12.0107           0
      2797 SHT      2797     S        C        CA       0.007906       12.0107           0
      2798 SHT      2798     S        C        CA       0.007906       12.0107           0
      2799 SHT      2799     S        C        CA       0.007906       12.0107           0
      2800 SHT      2800     S        C        CA       0.007906       12.0107           0
      2801 SHT      2801     S        C        CA       0.007906       12.0107           0
      2802 SHT      2802     S        C        CA       0.007906       12.0107           0
      2803 SHT      2803     S        C        CA       0.007906       12.0107           0
      2804 SHT      2804     S        C        CA       0.007906       12.0107           0
      2805 SHT      2805     S        C        CA       0.007906       12.0107           0
      2806 SHT      2806     S        C        CA       0.007906       12.0107           0
      2807 SHT      2807     S        C        CA       0.007906       12.0107           0
      2808 SHT      2808     S        C        CA       0.007906       12.0107           0
      2809 SHT      2809     S        C        CA       0.007906       12.0107           0
      2810 SHT      2810     S        C        CA       0.007906       12.0107           0
      2811 SHT      2811     S        C        CA       0.007906       12.0107           0
      2812 SHT      2812     S        C        CA       0.007906       12.0107           0
      2813 SHT      2813     S        C        CA       0.007906       12.0107           0
      2814 SHT      2814     S        C        CA       0.007906       12.0107           0
      2815 SHT      2815     S        C        CA       0.007906       12.0107           0
      2816 SHT      2816     S        C        CA       0.007906       12.0107           0
      2817 SHT      2817     S        C        CA       0.007906       12.0107           0
      2818 SHT      2818     S        C        CA       0.007906       12.0107           0
      2819 SHT      2819     S        C        CA       0.007906       12.0107           0
      2820 SHT      2820     S        C        CA       0.007906       12.0107           0
      2821 SHT      2821     S        C        CA       0.007906       12.0107           0
      2822 SHT      2822     S        C        CA       0.007906       12.0107           0
      2823 SHT      2823     S        C        CA       0.007906       12.0107           0
      2824 SHT      2824     S        C        CA       0.007906       12.0107           0
      2825 SHT      2825     S        C        CA       0.007906       12.0107           0
      2826 SHT      2826     S        C        CA       0.007906       12.0107           0
      2827 SHT      2827     S        C        CA       0.007906       12.0107           0
      2828 SHT      2828     S        C        CA       0.007906       12.0107           0
      2829 SHT      2829     S        C        CA       0.007906       12.0107           0
      2830 SHT      2830     S        C        CA       0.007906       12.0107           0
      2831 SHT      2831     S        C        CA       0.007906       12.0107           0
      2832 SHT      2832     S        C        CA       0.007906       12.0107           0
      2833 SHT      2833     S        C        CA       0.007906       12.0107           0
      2834 SHT      2834     S        C        CA       0.007906       12.0107           0
      2835 SHT      2835     S        C        CA       0.007906       12.0107           0
      2836 SHT      2836     S        C        CA       0.007906       12.0107           0
      2837 SHT      2837     S        C        CA       0.007906       12.0107           0
      2838 SHT      2838     S        C        CA       0.007906       12.0107           0
      2839 SHT      2839     S        C        CA       0.007906       12.0107           0
      2840 SHT      2840     S        C        CA       0.007906       12.0107           0
      2841 SHT      2841     S        C        CA       0.007906       12.0107           0
      2842 SHT      2842     S        C        CA       0.007906       12.0107           0
      2843 SHT      2843     S        C        CA       0.007906       12.0107           0
      2844 SHT      2844     S        C        CA       0.007906       12.0107           0
      2845 SHT      2845     S        C        CA       0.007906       12.0107           0
      2846 SHT      2846     S        C        CA       0.007906       12.0107           0
      2847 SHT      2847     S        C        CA       0.007906       12.0107           0
      2848 SHT      2848     S        C        CA       0.007906       12.0107           0
      2849 SHT      2849     S        C        CA       0.007906       12.0107           0
      2850 SHT      2850     S        C        CA       0.007906       12.0107           0
      2851 SHT      2851     S        C        CA       0.007906       12.0107           0
      2852 SHT      2852     S        C        CA       0.007906       12.0107           0
      2853 SHT      2853     S        C        CA       0.007906       12.0107           0
      2854 SHT      2854     S        C        CA       0.007906       12.0107           0
      2855 SHT      2855     S        C        CA       0.007906       12.0107           0
      2856 SHT      2856     S        C        CA       0.007906       12.0107           0
      2857 SHT      2857     S        C        CA       0.007906       12.0107           0
      2858 SHT      2858     S        C        CA       0.007906       12.0107           0
      2859 SHT      2859     S        C        CA       0.007906       12.0107           0
      2860 SHT      2860     S        C        CA       0.007906       12.0107           0
      2861 SHT      2861     S        C        CA       0.007906       12.0107           0
      2862 SHT      2862     S        C        CA       0.007906       12.0107           0
      2863 SHT      2863     S        C        CA       0.007906       12.0107           0
      2864 SHT      2864     S        C        CA       0.007906       12.0107           0
      2865 SHT      2865     S        C        CA       0.007906       12.0107           0
      2866 SHT      2866     S        C        CA       0.007906       12.0107           0
      2867 SHT      2867     S        C        CA       0.007906       12.0107           0
      2868 SHT      2868     S        C        CA       0.007906       12.0107           0
      2869 SHT      2869     S        C        CA       0.007906       12.0107           0
      2870 SHT      2870     S        C        CA       0.007906       12.0107           0
      2871 SHT      2871     S        C        CA       0.007906       12.0107           0
      2872 SHT      2872     S        C        CA       0.007906       12.0107           0
      2873 SHT      2873     S        C        CA       0.007906       12.0107           0
      2874 SHT      2874     S        C        CA       0.007906       12.0107           0
      2875 SHT      2875     S        C        CA       0.007906       12.0107           0
      2876 SHT      2876     S        C        CA       0.007906       12.0107           0
      2877 SHT      2877     S        C        CA       0.007906       12.0107           0
      2878 SHT      2878     S        C        CA       0.007906       12.0107           0
      2879 SHT      2879     S        C        CA       0.007906       12.0107           0
      2880 SHT      2880     S        C        CA       0.007906       12.0107           0
      2881 SHT      2881     S        C        CA       0.007906       12.0107           0
      2882 SHT      2882     S        C        CA       0.007906       12.0107           0
      2883 SHT      2883     S        C        CA       0.007906       12.0107           0
      2884 SHT      2884     S        C        CA       0.007906       12.0107           0
      2885 SHT      2885     S        C        CA       0.007906       12.0107           0
      2886 SHT      2886     S        C        CA       0.007906       12.0107           0
      2887 SHT      2887     S        C        CA       0.007906       12.0107           0
      2888 SHT      2888     S        C        CA       0.007906       12.0107           0
      2889 SHT      2889     S        C        CA       0.007906       12.0107           0
      2890 SHT      2890     S        C        CA       0.007906       12.0107           0
      2891 SHT      2891     S        C        CA       0.007906       12.0107           0
      2892 SHT      2892     S        C        CA       0.007906       12.0107           0
      2893 SHT      2893     S        C        CA       0.007906       12.0107           0
      2894 SHT      2894     S        C        CA       0.007906       12.0107           0
      2895 SHT      2895     S        C        CA       0.007906       12.0107           0
      2896 SHT      2896     S        C        CA       0.007906       12.0107           0
      2897 SHT      2897     S        C        CA       0.007906       12.0107           0
      2898 SHT      2898     S        C        CA       0.007906       12.0107           0
      2899 SHT      2899     S        C        CA       0.007906       12.0107           0
      2900 SHT      2900     S        C        CA       0.007906       12.0107           0
      2901 SHT      2901     S        C        CA       0.007906       12.0107           0
      2902 SHT      2902     S        C        CA       0.007906       12.0107           0
      2903 SHT      2903     S        C        CA       0.007906       12.0107           0
      2904 SHT      2904     S        C        CA       0.007906       12.0107           0
      2905 SHT      2905     S        C        CA       0.007906       12.0107           0
      2906 SHT      2906     S        C        CA       0.007906       12.0107           0
      2907 SHT      2907     S        C        CA       0.007906       12.0107           0
      2908 SHT      2908     S        C        CA       0.007906       12.0107           0
      2909 SHT      2909     S        C        CA       0.007906       12.0107           0
      2910 SHT      2910     S        C        CA       0.007906       12.0107           0
      2911 SHT      2911     S        C        CA       0.007906       12.0107           0
      2912 SHT      2912     S        C        CA       0.007906       12.0107           0
      2913 SHT      2913     S        C        CA       0.007906       12.0107           0
      2914 SHT      2914     S        C        CA       0.007906       12.0107           0
      2915 SHT      2915     S        C        CA       0.007906       12.0107           0
      2916 SHT      2916     S        C        CA       0.007906       12.0107           0
      2917 SHT      2917     S        C        CA       0.007906       12.0107           0
      2918 SHT      2918     S        C        CA       0.007906       12.0107           0
      2919 SHT      2919     S        C        CA       0.007906       12.0107           0
      2920 SHT      2920     S        C        CA       0.007906       12.0107           0
      2921 SHT      2921     S        C        CA       0.007906       12.0107           0
      2922 SHT      2922     S        C        CA       0.007906       12.0107           0
      2923 SHT      2923     S        C        CA       0.007906       12.0107           0
      2924 SHT      2924     S        C        CA       0.007906       12.0107           0
      2925 SHT      2925     S        C        CA       0.007906       12.0107           0
      2926 SHT      2926     S        C        CA       0.007906       12.0107           0
      2927 SHT      2927     S        C        CA       0.007906       12.0107           0
      2928 SHT      2928     S        C        CA       0.007906       12.0107           0
      2929 SHT      2929     S        C        CA       0.007906       12.0107           0
      2930 SHT      2930     S        C        CA       0.007906       12.0107           0
      2931 SHT      2931     S        C        CA       0.007906       12.0107           0
      2932 SHT      2932     S        C        CA       0.007906       12.0107           0
      2933 SHT      2933     S        C        CA       0.007906       12.0107           0
      2934 SHT      2934     S        C        CA       0.007906       12.0107           0
      2935 SHT      2935     S        C        CA       0.007906       12.0107           0
      2936 SHT      2936     S        C        CA       0.007906       12.0107           0
      2937 SHT      2937     S        C        CA       0.007906       12.0107           0
      2938 SHT      2938     S        C        CA       0.007906       12.0107           0
      2939 SHT      2939     S        C        CA       0.007906       12.0107           0
      2940 SHT      2940     S        C        CA       0.007906       12.0107           0
      2941 SHT      2941     S        C        CA       0.007906       12.0107           0
      2942 SHT      2942     S        C        CA       0.007906       12.0107           0
      2943 SHT      2943     S        C        CA       0.007906       12.0107           0
      2944 SHT      2944     S        C        CA       0.007906       12.0107           0
      2945 SHT      2945     S        C        CA       0.007906       12.0107           0
      2946 SHT      2946     S        C        CA       0.007906       12.0107           0
      2947 SHT      2947     S        C        CA       0.007906       12.0107           0
      2948 SHT      2948     S        C        CA       0.007906       12.0107           0
      2949 SHT      2949     S        C        CA       0.007906       12.0107           0
      2950 SHT      2950     S        C        CA       0.007906       12.0107           0
      2951 SHT      2951     S        C        CA       0.007906       12.0107           0
      2952 SHT      2952     S        C        CA       0.007906       12.0107           0
      2953 SHT      2953     S        C        CA       0.007906       12.0107           0
      2954 SHT      2954     S        C        CA       0.007906       12.0107           0
      2955 SHT      2955     S        C        CA       0.007906       12.0107           0
      2956 SHT      2956     S        C        CA       0.007906       12.0107           0
      2957 SHT      2957     S        C        CA       0.007906       12.0107           0
      2958 SHT      2958     S        C        CA       0.007906       12.0107           0
      2959 SHT      2959     S        C        CA       0.007906       12.0107           0
      2960 SHT      2960     S        C        CA       0.007906       12.0107           0
      2961 SHT      2961     S        C        CA       0.007906       12.0107           0
      2962 SHT      2962     S        C        CA       0.007906       12.0107           0
      2963 SHT      2963     S        C        CA       0.007906       12.0107           0
      2964 SHT      2964     S        C        CA       0.007906       12.0107           0
      2965 SHT      2965     S        C        CA       0.007906       12.0107           0
      2966 SHT      2966     S        C        CA       0.007906       12.0107           0
      2967 SHT      2967     S        C        CA       0.007906       12.0107           0
      2968 SHT      2968     S        C        CA       0.007906       12.0107           0
      2969 SHT      2969     S        C        CA       0.007906       12.0107           0
      2970 SHT      2970     S        C        CA       0.007906       12.0107           0
      2971 SHT      2971     S        C        CA       0.007906       12.0107           0
      2972 SHT      2972     S        C        CA       0.007906       12.0107           0
      2973 SHT      2973     S        C        CA       0.007906       12.0107           0
      2974 SHT      2974     S        C        CA       0.007906       12.0107           0
      2975 SHT      2975     S        C        CA       0.007906       12.0107           0
      2976 SHT      2976     S        C        CA       0.007906       12.0107           0
      2977 SHT      2977     S        C        CA       0.007906       12.0107           0
      2978 SHT      2978     S        C        CA       0.007906       12.0107           0
      2979 SHT      2979     S        C        CA       0.007906       12.0107           0
      2980 SHT      2980     S        C        CA       0.007906       12.0107           0
      2981 SHT      2981     S        C        CA       0.007906       12.0107           0
      2982 SHT      2982     S        C        CA       0.007906       12.0107           0
      2983 SHT      2983     S        C        CA       0.007906       12.0107           0
      2984 SHT      2984     S        C        CA       0.007906       12.0107           0
      2985 SHT      2985     S        C        CA       0.007906       12.0107           0
      2986 SHT      2986     S        C        CA       0.007906       12.0107           0
      2987 SHT      2987     S        C        CA       0.007906       12.0107           0
      2988 SHT      2988     S        C        CA       0.007906       12.0107           0
      2989 SHT      2989     S        C        CA       0.007906       12.0107           0
      2990 SHT      2990     S        C        CA       0.007906       12.0107           0
      2991 SHT      2991     S        C        CA       0.007906       12.0107           0
      2992 SHT      2992     S        C        CA       0.007906       12.0107           0
      2993 SHT      2993     S        C        CA       0.007906       12.0107           0
      2994 SHT      2994     S        C        CA       0.007906       12.0107           0
      2995 SHT      2995     S        C        CA       0.007906       12.0107           0
      2996 SHT      2996     S        C        CA       0.007906       12.0107           0
      2997 SHT      2997     S        C        CA       0.007906       12.0107           0
      2998 SHT      2998     S        C        CA       0.007906       12.0107           0
      2999 SHT      2999     S        C        CA       0.007906       12.0107           0
      3000 SHT      3000     S        C        CA       0.007906       12.0107           0
      3001 SHT      3001     S        C        CA       0.007906       12.0107           0
      3002 SHT      3002     S        C        CA       0.007906       12.0107           0
      3003 SHT      3003     S        C        CA       0.007906       12.0107           0
      3004 SHT      3004     S        C        CA       0.007906       12.0107           0
      3005 SHT      3005     S        C        CA       0.007906       12.0107           0
      3006 SHT      3006     S        C        CA       0.007906       12.0107           0
      3007 SHT      3007     S        C        CA       0.007906       12.0107           0
      3008 SHT      3008     S        C        CA       0.007906       12.0107           0
      3009 SHT      3009     S        C        CA       0.007906       12.0107           0
      3010 SHT      3010     S        C        CA       0.007906       12.0107           0
      3011 SHT      3011     S        C        CA       0.007906       12.0107           0
      3012 SHT      3012     S        C        CA       0.007906       12.0107           0
      3013 SHT      3013     S        C        CA       0.007906       12.0107           0
      3014 SHT      3014     S        C        CA       0.007906       12.0107           0
      3015 SHT      3015     S        C        CA       0.007906       12.0107           0
      3016 SHT      3016     S        C        CA       0.007906       12.0107           0
      3017 SHT      3017     S        C        CA       0.007906       12.0107           0
      3018 SHT      3018     S        C        CA       0.007906       12.0107           0
      3019 SHT      3019     S        C        CA       0.007906       12.0107           0
      3020 SHT      3020     S        C        CA       0.007906       12.0107           0
      3021 SHT      3021     S        C        CA       0.007906       12.0107           0
      3022 SHT      3022     S        C        CA       0.007906       12.0107           0
      3023 SHT      3023     S        C        CA       0.007906       12.0107           0
      3024 SHT      3024     S        C        CA       0.007906       12.0107           0
      3025 SHT      3025     S        C        CA       0.007906       12.0107           0
      3026 SHT      3026     S        C        CA       0.007906       12.0107           0
      3027 SHT      3027     S        C        CA       0.007906       12.0107           0
      3028 SHT      3028     S        C        CA       0.007906       12.0107           0
      3029 SHT      3029     S        C        CA       0.007906       12.0107           0
      3030 SHT      3030     S        C        CA       0.007906       12.0107           0
      3031 SHT      3031     S        C        CA       0.007906       12.0107           0
      3032 SHT      3032     S        C        CA       0.007906       12.0107           0
      3033 SHT      3033     S        C        CA       0.007906       12.0107           0
      3034 SHT      3034     S        C        CA       0.007906       12.0107           0
      3035 SHT      3035     S        C        CA       0.007906       12.0107           0
      3036 SHT      3036     S        C        CA       0.007906       12.0107           0
      3037 SHT      3037     S        C        CA       0.007906       12.0107           0
      3038 SHT      3038     S        C        CA       0.007906       12.0107           0
      3039 SHT      3039     S        C        CA       0.007906       12.0107           0
      3040 SHT      3040     S        C        CA       0.007906       12.0107           0
      3041 SHT      3041     S        C        CA       0.007906       12.0107           0
      3042 SHT      3042     S        C        CA       0.007906       12.0107           0
      3043 SHT      3043     S        C        CA       0.007906       12.0107           0
      3044 SHT      3044     S        C        CA       0.007906       12.0107           0
      3045 SHT      3045     S        C        CA       0.007906       12.0107           0
      3046 SHT      3046     S        C        CA       0.007906       12.0107           0
      3047 SHT      3047     S        C        CA       0.007906       12.0107           0
      3048 SHT      3048     S        C        CA       0.007906       12.0107           0
      3049 SHT      3049     S        C        CA       0.007906       12.0107           0
      3050 SHT      3050     S        C        CA       0.007906       12.0107           0
      3051 SHT      3051     S        C        CA       0.007906       12.0107           0
      3052 SHT      3052     S        C        CA       0.007906       12.0107           0
      3053 SHT      3053     S        C        CA       0.007906       12.0107           0
      3054 SHT      3054     S        C        CA       0.007906       12.0107           0
      3055 SHT      3055     S        C        CA       0.007906       12.0107           0
      3056 SHT      3056     S        C        CA       0.007906       12.0107           0
      3057 SHT      3057     S        C        CA       0.007906       12.0107           0
      3058 SHT      3058     S        C        CA       0.007906       12.0107           0
      3059 SHT      3059     S        C        CA       0.007906       12.0107           0
      3060 SHT      3060     S        C        CA       0.007906       12.0107           0
      3061 SHT      3061     S        C        CA       0.007906       12.0107           0
      3062 SHT      3062     S        C        CA       0.007906       12.0107           0
      3063 SHT      3063     S        C        CA       0.007906       12.0107           0
      3064 SHT      3064     S        C        CA       0.007906       12.0107           0
      3065 SHT      3065     S        C        CA       0.007906       12.0107           0
      3066 SHT      3066     S        C        CA       0.007906       12.0107           0
      3067 SHT      3067     S        C        CA       0.007906       12.0107           0
      3068 SHT      3068     S        C        CA       0.007906       12.0107           0
      3069 SHT      3069     S        C        CA       0.007906       12.0107           0
      3070 SHT      3070     S        C        CA       0.007906       12.0107           0
      3071 SHT      3071     S        C        CA       0.007906       12.0107           0
      3072 SHT      3072     S        C        CA       0.007906       12.0107           0
      3073 SHT      3073     S        C        CA       0.007906       12.0107           0
      3074 SHT      3074     S        C        CA       0.007906       12.0107           0
      3075 SHT      3075     S        C        CA       0.007906       12.0107           0
      3076 SHT      3076     S        C        CA       0.007906       12.0107           0
      3077 SHT      3077     S        C        CA       0.007906       12.0107           0
      3078 SHT      3078     S        C        CA       0.007906       12.0107           0
      3079 SHT      3079     S        C        CA       0.007906       12.0107           0
      3080 SHT      3080     S        C        CA       0.007906       12.0107           0
      3081 SHT      3081     S        C        CA       0.007906       12.0107           0
      3082 SHT      3082     S        C        CA       0.007906       12.0107           0
      3083 SHT      3083     S        C        CA       0.007906       12.0107           0
      3084 SHT      3084     S        C        CA       0.007906       12.0107           0
      3085 SHT      3085     S        C        CA       0.007906       12.0107           0
      3086 SHT      3086     S        C        CA       0.007906       12.0107           0
      3087 SHT      3087     S        C        CA       0.007906       12.0107           0
      3088 SHT      3088     S        C        CA       0.007906       12.0107           0
      3089 SHT      3089     S        C        CA       0.007906       12.0107           0
      3090 SHT      3090     S        C        CA       0.007906       12.0107           0
      3091 SHT      3091     S        C        CA       0.007906       12.0107           0
      3092 SHT      3092     S        C        CA       0.007906       12.0107           0
      3093 SHT      3093     S        C        CA       0.007906       12.0107           0
      3094 SHT      3094     S        C        CA       0.007906       12.0107           0
      3095 SHT      3095     S        C        CA       0.007906       12.0107           0
      3096 SHT      3096     S        C        CA       0.007906       12.0107           0
      3097 SHT      3097     S        C        CA       0.007906       12.0107           0
      3098 SHT      3098     S        C        CA       0.007906       12.0107           0
      3099 SHT      3099     S        C        CA       0.007906       12.0107           0
      3100 SHT      3100     S        C        CA       0.007906       12.0107           0
      3101 SHT      3101     S        C        CA       0.007906       12.0107           0
      3102 SHT      3102     S        C        CA       0.007906       12.0107           0
      3103 SHT      3103     S        C        CA       0.007906       12.0107           0
      3104 SHT      3104     S        C        CA       0.007906       12.0107           0
      3105 SHT      3105     S        C        CA       0.007906       12.0107           0
      3106 SHT      3106     S        C        CA       0.007906       12.0107           0
      3107 SHT      3107     S        C        CA       0.007906       12.0107           0
      3108 SHT      3108     S        C        CA       0.007906       12.0107           0
      3109 SHT      3109     S        C        CA       0.007906       12.0107           0
      3110 SHT      3110     S        C        CA       0.007906       12.0107           0
      3111 SHT      3111     S        C        CA       0.007906       12.0107           0
      3112 SHT      3112     S        C        CA       0.007906       12.0107           0
      3113 SHT      3113     S        C        CA       0.007906       12.0107           0
      3114 SHT      3114     S        C        CA       0.007906       12.0107           0
      3115 SHT      3115     S        C        CA       0.007906       12.0107           0
      3116 SHT      3116     S        C        CA       0.007906       12.0107           0
      3117 SHT      3117     S        C        CA       0.007906       12.0107           0
      3118 SHT      3118     S        C        CA       0.007906       12.0107           0
      3119 SHT      3119     S        C        CA       0.007906       12.0107           0
      3120 SHT      3120     S        C        CA       0.007906       12.0107           0
      3121 SHT      3121     S        C        CA       0.007906       12.0107           0
      3122 SHT      3122     S        C        CA       0.007906       12.0107           0
      3123 SHT      3123     S        C        CA       0.007906       12.0107           0
      3124 SHT      3124     S        C        CA       0.007906       12.0107           0
      3125 SHT      3125     S        C        CA       0.007906       12.0107           0
      3126 SHT      3126     S        C        CA       0.007906       12.0107           0
      3127 SHT      3127     S        C        CA       0.007906       12.0107           0
      3128 SHT      3128     S        C        CA       0.007906       12.0107           0
      3129 SHT      3129     S        C        CA       0.007906       12.0107           0
      3130 SHT      3130     S        C        CA       0.007906       12.0107           0
      3131 SHT      3131     S        C        CA       0.007906       12.0107           0
      3132 SHT      3132     S        C        CA       0.007906       12.0107           0
      3133 SHT      3133     S        C        CA       0.007906       12.0107           0
      3134 SHT      3134     S        C        CA       0.007906       12.0107           0
      3135 SHT      3135     S        C        CA       0.007906       12.0107           0
      3136 SHT      3136     S        C        CA       0.007906       12.0107           0
      3137 SHT      3137     S        C        CA       0.007906       12.0107           0
      3138 SHT      3138     S        C        CA       0.007906       12.0107           0
      3139 SHT      3139     S        C        CA       0.007906       12.0107           0
      3140 SHT      3140     S        C        CA       0.007906       12.0107           0
      3141 SHT      3141     S        C        CA       0.007906       12.0107           0
      3142 SHT      3142     S        C        CA       0.007906       12.0107           0
      3143 SHT      3143     S        C        CA       0.007906       12.0107           0
      3144 SHT      3144     S        C        CA       0.007906       12.0107           0
      3145 SHT      3145     S        C        CA       0.007906       12.0107           0
      3146 SHT      3146     S        C        CA       0.007906       12.0107           0
      3147 SHT      3147     S        C        CA       0.007906       12.0107           0
      3148 SHT      3148     S        C        CA       0.007906       12.0107           0
      3149 SHT      3149     S        C        CA       0.007906       12.0107           0
      3150 SHT      3150     S        C        CA       0.007906       12.0107           0
      3151 SHT      3151     S        C        CA       0.007906       12.0107           0
      3152 SHT      3152     S        C        CA       0.007906       12.0107           0
      3153 SHT      3153     S        C        CA       0.007906       12.0107           0
      3154 SHT      3154     S        C        CA       0.007906       12.0107           0
      3155 SHT      3155     S        C        CA       0.007906       12.0107           0
      3156 SHT      3156     S        C        CA       0.007906       12.0107           0
      3157 SHT      3157     S        C        CA       0.007906       12.0107           0
      3158 SHT      3158     S        C        CA       0.007906       12.0107           0
      3159 SHT      3159     S        C        CA       0.007906       12.0107           0
      3160 SHT      3160     S        C        CA       0.007906       12.0107           0
      3161 SHT      3161     S        C        CA       0.007906       12.0107           0
      3162 SHT      3162     S        C        CA       0.007906       12.0107           0
      3163 SHT      3163     S        C        CA       0.007906       12.0107           0
      3164 SHT      3164     S        C        CA       0.007906       12.0107           0
      3165 SHT      3165     S        C        CA       0.007906       12.0107           0
      3166 SHT      3166     S        C        CA       0.007906       12.0107           0
      3167 SHT      3167     S        C        CA       0.007906       12.0107           0
      3168 SHT      3168     S        C        CA       0.007906       12.0107           0
      3169 SHT      3169     S        C        CA       0.007906       12.0107           0
      3170 SHT      3170     S        C        CA       0.007906       12.0107           0
      3171 SHT      3171     S        C        CA       0.007906       12.0107           0
      3172 SHT      3172     S        C        CA       0.007906       12.0107           0
      3173 SHT      3173     S        C        CA       0.007906       12.0107           0
      3174 SHT      3174     S        C        CA       0.007906       12.0107           0
      3175 SHT      3175     S        C        CA       0.007906       12.0107           0
      3176 SHT      3176     S        C        CA       0.007906       12.0107           0
      3177 SHT      3177     S        C        CA       0.007906       12.0107           0
      3178 SHT      3178     S        C        CA       0.007906       12.0107           0
      3179 SHT      3179     S        C        CA       0.007906       12.0107           0
      3180 SHT      3180     S        C        CA       0.007906       12.0107           0
      3181 SHT      3181     S        C        CA       0.007906       12.0107           0
      3182 SHT      3182     S        C        CA       0.007906       12.0107           0
      3183 SHT      3183     S        C        CA       0.007906       12.0107           0
      3184 SHT      3184     S        C        CA       0.007906       12.0107           0
      3185 SHT      3185     S        C        CA       0.007906       12.0107           0
      3186 SHT      3186     S        C        CA       0.007906       12.0107           0
      3187 SHT      3187     S        C        CA       0.007906       12.0107           0
      3188 SHT      3188     S        C        CA       0.007906       12.0107           0
      3189 SHT      3189     S        C        CA       0.007906       12.0107           0
      3190 SHT      3190     S        C        CA       0.007906       12.0107           0
      3191 SHT      3191     S        C        CA       0.007906       12.0107           0
      3192 SHT      3192     S        C        CA       0.007906       12.0107           0
      3193 SHT      3193     S        C        CA       0.007906       12.0107           0
      3194 SHT      3194     S        C        CA       0.007906       12.0107           0
      3195 SHT      3195     S        C        CA       0.007906       12.0107           0
      3196 SHT      3196     S        C        CA       0.007906       12.0107           0
      3197 SHT      3197     S        C        CA       0.007906       12.0107           0
      3198 SHT      3198     S        C        CA       0.007906       12.0107           0
      3199 SHT      3199     S        C        CA       0.007906       12.0107           0
      3200 SHT      3200     S        C        CA       0.007906       12.0107           0
      3201 SHT      3201     S        C        CA       0.007906       12.0107           0
      3202 SHT      3202     S        C        CA       0.007906       12.0107           0
      3203 SHT      3203     S        C        CA       0.007906       12.0107           0
      3204 SHT      3204     S        C        CA       0.007906       12.0107           0
      3205 SHT      3205     S        C        CA       0.007906       12.0107           0
      3206 SHT      3206     S        C        CA       0.007906       12.0107           0
      3207 SHT      3207     S        C        CA       0.007906       12.0107           0
      3208 SHT      3208     S        C        CA       0.007906       12.0107           0
      3209 SHT      3209     S        C        CA       0.007906       12.0107           0
      3210 SHT      3210     S        C        CA       0.007906       12.0107           0
      3211 SHT      3211     S        C        CA       0.007906       12.0107           0
      3212 SHT      3212     S        C        CA       0.007906       12.0107           0
      3213 SHT      3213     S        C        CA       0.007906       12.0107           0
      3214 SHT      3214     S        C        CA       0.007906       12.0107           0
      3215 SHT      3215     S        C        CA       0.007906       12.0107           0
      3216 SHT      3216     S        C        CA       0.007906       12.0107           0
      3217 SHT      3217     S        C        CA       0.007906       12.0107           0
      3218 SHT      3218     S        C        CA       0.007906       12.0107           0
      3219 SHT      3219     S        C        CA       0.007906       12.0107           0
      3220 SHT      3220     S        C        CA       0.007906       12.0107           0
      3221 SHT      3221     S        C        CA       0.007906       12.0107           0
      3222 SHT      3222     S        C        CA       0.007906       12.0107           0
      3223 SHT      3223     S        C        CA       0.007906       12.0107           0
      3224 SHT      3224     S        C        CA       0.007906       12.0107           0
      3225 SHT      3225     S        C        CA       0.007906       12.0107           0
      3226 SHT      3226     S        C        CA       0.007906       12.0107           0
      3227 SHT      3227     S        C        CA       0.007906       12.0107           0
      3228 SHT      3228     S        C        CA       0.007906       12.0107           0
      3229 SHT      3229     S        C        CA       0.007906       12.0107           0
      3230 SHT      3230     S        C        CA       0.007906       12.0107           0
      3231 SHT      3231     S        C        CA       0.007906       12.0107           0
      3232 SHT      3232     S        C        CA       0.007906       12.0107           0
      3233 SHT      3233     S        C        CA       0.007906       12.0107           0
      3234 SHT      3234     S        C        CA       0.007906       12.0107           0
      3235 SHT      3235     S        C        CA       0.007906       12.0107           0
      3236 SHT      3236     S        C        CA       0.007906       12.0107           0
      3237 SHT      3237     S        C        CA       0.007906       12.0107           0
      3238 SHT      3238     S        C        CA       0.007906       12.0107           0
      3239 SHT      3239     S        C        CA       0.007906       12.0107           0
      3240 SHT      3240     S        C        CA       0.007906       12.0107           0
      3241 SHT      3241     S        C        CA       0.007906       12.0107           0
      3242 SHT      3242     S        C        CA       0.007906       12.0107           0
      3243 SHT      3243     S        C        CA       0.007906       12.0107           0
      3244 SHT      3244     S        C        CA       0.007906       12.0107           0
      3245 SHT      3245     S        C        CA       0.007906       12.0107           0
      3246 SHT      3246     S        C        CA       0.007906       12.0107           0
      3247 SHT      3247     S        C        CA       0.007906       12.0107           0
      3248 SHT      3248     S        C        CA       0.007906       12.0107           0
      3249 SHT      3249     S        C        CA       0.007906       12.0107           0
      3250 SHT      3250     S        C        CA       0.007906       12.0107           0
      3251 SHT      3251     S        C        CA       0.007906       12.0107           0
      3252 SHT      3252     S        C        CA       0.007906       12.0107           0
      3253 SHT      3253     S        C        CA       0.007906       12.0107           0
      3254 SHT      3254     S        C        CA       0.007906       12.0107           0
      3255 SHT      3255     S        C        CA       0.007906       12.0107           0
      3256 SHT      3256     S        C        CA       0.007906       12.0107           0
      3257 SHT      3257     S        C        CA       0.007906       12.0107           0
      3258 SHT      3258     S        C        CA       0.007906       12.0107           0
      3259 SHT      3259     S        C        CA       0.007906       12.0107           0
      3260 SHT      3260     S        C        CA       0.007906       12.0107           0
      3261 SHT      3261     S        C        CA       0.007906       12.0107           0
      3262 SHT      3262     S        C        CA       0.007906       12.0107           0
      3263 SHT      3263     S        C        CA       0.007906       12.0107           0
      3264 SHT      3264     S        C        CA       0.007906       12.0107           0
      3265 SHT      3265     S        C        CA       0.007906       12.0107           0
      3266 SHT      3266     S        C        CA       0.007906       12.0107           0
      3267 SHT      3267     S        C        CA       0.007906       12.0107           0
      3268 SHT      3268     S        C        CA       0.007906       12.0107           0
      3269 SHT      3269     S        C        CA       0.007906       12.0107           0
      3270 SHT      3270     S        C        CA       0.007906       12.0107           0
      3271 SHT      3271     S        C        CA       0.007906       12.0107           0
      3272 SHT      3272     S        C        CA       0.007906       12.0107           0
      3273 SHT      3273     S        C        CA       0.007906       12.0107           0
      3274 SHT      3274     S        C        CA       0.007906       12.0107           0
      3275 SHT      3275     S        C        CA       0.007906       12.0107           0
      3276 SHT      3276     S        C        CA       0.007906       12.0107           0
      3277 SHT      3277     S        C        CA       0.007906       12.0107           0
      3278 SHT      3278     S        C        CA       0.007906       12.0107           0
      3279 SHT      3279     S        C        CA       0.007906       12.0107           0
      3280 SHT      3280     S        C        CA       0.007906       12.0107           0
      3281 SHT      3281     S        C        CA       0.007906       12.0107           0
      3282 SHT      3282     S        C        CA       0.007906       12.0107           0
      3283 SHT      3283     S        C        CA       0.007906       12.0107           0
      3284 SHT      3284     S        C        CA       0.007906       12.0107           0
      3285 SHT      3285     S        C        CA       0.007906       12.0107           0
      3286 SHT      3286     S        C        CA       0.007906       12.0107           0
      3287 SHT      3287     S        C        CA       0.007906       12.0107           0
      3288 SHT      3288     S        C        CA       0.007906       12.0107           0
      3289 SHT      3289     S        C        CA       0.007906       12.0107           0
      3290 SHT      3290     S        C        CA       0.007906       12.0107           0
      3291 SHT      3291     S        C        CA       0.007906       12.0107           0
      3292 SHT      3292     S        C        CA       0.007906       12.0107           0
      3293 SHT      3293     S        C        CA       0.007906       12.0107           0
      3294 SHT      3294     S        C        CA       0.007906       12.0107           0
      3295 SHT      3295     S        C        CA       0.007906       12.0107           0
      3296 SHT      3296     S        C        CA       0.007906       12.0107           0
      3297 SHT      3297     S        C        CA       0.007906       12.0107           0
      3298 SHT      3298     S        C        CA       0.007906       12.0107           0
      3299 SHT      3299     S        C        CA       0.007906       12.0107           0
      3300 SHT      3300     S        C        CA       0.007906       12.0107           0
      3301 SHT      3301     S        C        CA       0.007906       12.0107           0
      3302 SHT      3302     S        C        CA       0.007906       12.0107           0
      3303 SHT      3303     S        C        CA       0.007906       12.0107           0
      3304 SHT      3304     S        C        CA       0.007906       12.0107           0
      3305 SHT      3305     S        C        CA       0.007906       12.0107           0
      3306 SHT      3306     S        C        CA       0.007906       12.0107           0
      3307 SHT      3307     S        C        CA       0.007906       12.0107           0
      3308 SHT      3308     S        C        CA       0.007906       12.0107           0
      3309 SHT      3309     S        C        CA       0.007906       12.0107           0
      3310 SHT      3310     S        C        CA       0.007906       12.0107           0
      3311 SHT      3311     S        C        CA       0.007906       12.0107           0
      3312 SHT      3312     S        C        CA       0.007906       12.0107           0
      3313 SHT      3313     S        C        CA       0.007906       12.0107           0
      3314 SHT      3314     S        C        CA       0.007906       12.0107           0
      3315 SHT      3315     S        C        CA       0.007906       12.0107           0
      3316 SHT      3316     S        C        CA       0.007906       12.0107           0
      3317 SHT      3317     S        C        CA       0.007906       12.0107           0
      3318 SHT      3318     S        C        CA       0.007906       12.0107           0
      3319 SHT      3319     S        C        CA       0.007906       12.0107           0
      3320 SHT      3320     S        C        CA       0.007906       12.0107           0
      3321 SHT      3321     S        C        CA       0.007906       12.0107           0
      3322 SHT      3322     S        C        CA       0.007906       12.0107           0
      3323 SHT      3323     S        C        CA       0.007906       12.0107           0
      3324 SHT      3324     S        C        CA       0.007906       12.0107           0
      3325 SHT      3325     S        C        CA       0.007906       12.0107           0
      3326 SHT      3326     S        C        CA       0.007906       12.0107           0
      3327 SHT      3327     S        C        CA       0.007906       12.0107           0
      3328 SHT      3328     S        C        CA       0.007906       12.0107           0
      3329 SHT      3329     S        C        CA       0.007906       12.0107           0
      3330 SHT      3330     S        C        CA       0.007906       12.0107           0
      3331 SHT      3331     S        C        CA       0.007906       12.0107           0
      3332 SHT      3332     S        C        CA       0.007906       12.0107           0
      3333 SHT      3333     S        C        CA       0.007906       12.0107           0
      3334 SHT      3334     S        C        CA       0.007906       12.0107           0
      3335 SHT      3335     S        C        CA       0.007906       12.0107           0
      3336 SHT      3336     S        C        CA       0.007906       12.0107           0
      3337 SHT      3337     S        C        CA       0.007906       12.0107           0
      3338 SHT      3338     S        C        CA       0.007906       12.0107           0
      3339 SHT      3339     S        C        CA       0.007906       12.0107           0
      3340 SHT      3340     S        C        CA       0.007906       12.0107           0
      3341 SHT      3341     S        C        CA       0.007906       12.0107           0
      3342 SHT      3342     S        C        CA       0.007906       12.0107           0
      3343 SHT      3343     S        C        CA       0.007906       12.0107           0
      3344 SHT      3344     S        C        CA       0.007906       12.0107           0
      3345 SHT      3345     S        C        CA       0.007906       12.0107           0
      3346 SHT      3346     S        C        CA       0.007906       12.0107           0
      3347 SHT      3347     S        C        CA       0.007906       12.0107           0
      3348 SHT      3348     S        C        CA       0.007906       12.0107           0
      3349 SHT      3349     S        C        CA       0.007906       12.0107           0
      3350 SHT      3350     S        C        CA       0.007906       12.0107           0
      3351 SHT      3351     S        C        CA       0.007906       12.0107           0
      3352 SHT      3352     S        C        CA       0.007906       12.0107           0
      3353 SHT      3353     S        C        CA       0.007906       12.0107           0
      3354 SHT      3354     S        C        CA       0.007906       12.0107           0
      3355 SHT      3355     S        C        CA       0.007906       12.0107           0
      3356 SHT      3356     S        C        CA       0.007906       12.0107           0
      3357 SHT      3357     S        C        CA       0.007906       12.0107           0
      3358 SHT      3358     S        C        CA       0.007906       12.0107           0
      3359 SHT      3359     S        C        CA       0.007906       12.0107           0
      3360 SHT      3360     S        C        CA       0.007906       12.0107           0
      3361 SHT      3361     S        C        CA       0.007906       12.0107           0
      3362 SHT      3362     S        C        CA       0.007906       12.0107           0
      3363 SHT      3363     S        C        CA       0.007906       12.0107           0
      3364 SHT      3364     S        C        CA       0.007906       12.0107           0
      3365 SHT      3365     S        C        CA       0.007906       12.0107           0
      3366 SHT      3366     S        C        CA       0.007906       12.0107           0
      3367 SHT      3367     S        C        CA       0.007906       12.0107           0
      3368 SHT      3368     S        C        CA       0.007906       12.0107           0
      3369 SHT      3369     S        C        CA       0.007906       12.0107           0
      3370 SHT      3370     S        C        CA       0.007906       12.0107           0
      3371 SHT      3371     S        C        CA       0.007906       12.0107           0
      3372 SHT      3372     S        C        CA       0.007906       12.0107           0
      3373 SHT      3373     S        C        CA       0.007906       12.0107           0
      3374 SHT      3374     S        C        CA       0.007906       12.0107           0
      3375 SHT      3375     S        C        CA       0.007906       12.0107           0
      3376 SHT      3376     S        C        CA       0.007906       12.0107           0
      3377 SHT      3377     S        C        CA       0.007906       12.0107           0
      3378 SHT      3378     S        C        CA       0.007906       12.0107           0
      3379 SHT      3379     S        C        CA       0.007906       12.0107           0
      3380 SHT      3380     S        C        CA       0.007906       12.0107           0
      3381 SHT      3381     S        C        CA       0.007906       12.0107           0
      3382 SHT      3382     S        C        CA       0.007906       12.0107           0
      3383 SHT      3383     S        C        CA       0.007906       12.0107           0
      3384 SHT      3384     S        C        CA       0.007906       12.0107           0
      3385 SHT      3385     S        C        CA       0.007906       12.0107           0
      3386 SHT      3386     S        C        CA       0.007906       12.0107           0
      3387 SHT      3387     S        C        CA       0.007906       12.0107           0
      3388 SHT      3388     S        C        CA       0.007906       12.0107           0
      3389 SHT      3389     S        C        CA       0.007906       12.0107           0
      3390 SHT      3390     S        C        CA       0.007906       12.0107           0
      3391 SHT      3391     S        C        CA       0.007906       12.0107           0
      3392 SHT      3392     S        C        CA       0.007906       12.0107           0
      3393 SHT      3393     S        C        CA       0.007906       12.0107           0
      3394 SHT      3394     S        C        CA       0.007906       12.0107           0
      3395 SHT      3395     S        C        CA       0.007906       12.0107           0
      3396 SHT      3396     S        C        CA       0.007906       12.0107           0
      3397 SHT      3397     S        C        CA       0.007906       12.0107           0
      3398 SHT      3398     S        C        CA       0.007906       12.0107           0
      3399 SHT      3399     S        C        CA       0.007906       12.0107           0
      3400 SHT      3400     S        C        CA       0.007906       12.0107           0
      3401 SHT      3401     S        C        CA       0.007906       12.0107           0
      3402 SHT      3402     S        C        CA       0.007906       12.0107           0
      3403 SHT      3403     S        C        CA       0.007906       12.0107           0
      3404 SHT      3404     S        C        CA       0.007906       12.0107           0
      3405 SHT      3405     S        C        CA       0.007906       12.0107           0
      3406 SHT      3406     S        C        CA       0.007906       12.0107           0
      3407 SHT      3407     S        C        CA       0.007906       12.0107           0
      3408 SHT      3408     S        C        CA       0.007906       12.0107           0
      3409 SHT      3409     S        C        CA       0.007906       12.0107           0
      3410 SHT      3410     S        C        CA       0.007906       12.0107           0
      3411 SHT      3411     S        C        CA       0.007906       12.0107           0
      3412 SHT      3412     S        C        CA       0.007906       12.0107           0
      3413 SHT      3413     S        C        CA       0.007906       12.0107           0
      3414 SHT      3414     S        C        CA       0.007906       12.0107           0
      3415 SHT      3415     S        C        CA       0.007906       12.0107           0
      3416 SHT      3416     S        C        CA       0.007906       12.0107           0
      3417 SHT      3417     S        C        CA       0.007906       12.0107           0
      3418 SHT      3418     S        C        CA       0.007906       12.0107           0
      3419 SHT      3419     S        C        CA       0.007906       12.0107           0
      3420 SHT      3420     S        C        CA       0.007906       12.0107           0
      3421 SHT      3421     S        C        CA       0.007906       12.0107           0
      3422 SHT      3422     S        C        CA       0.007906       12.0107           0
      3423 SHT      3423     S        C        CA       0.007906       12.0107           0
      3424 SHT      3424     S        C        CA       0.007906       12.0107           0
      3425 SHT      3425     S        C        CA       0.007906       12.0107           0
      3426 SHT      3426     S        C        CA       0.007906       12.0107           0
      3427 SHT      3427     S        C        CA       0.007906       12.0107           0
      3428 SHT      3428     S        C        CA       0.007906       12.0107           0
      3429 SHT      3429     S        C        CA       0.007906       12.0107           0
      3430 SHT      3430     S        C        CA       0.007906       12.0107           0
      3431 SHT      3431     S        C        CA       0.007906       12.0107           0
      3432 SHT      3432     S        C        CA       0.007906       12.0107           0
      3433 SHT      3433     S        C        CA       0.007906       12.0107           0
      3434 SHT      3434     S        C        CA       0.007906       12.0107           0
      3435 SHT      3435     S        C        CA       0.007906       12.0107           0
      3436 SHT      3436     S        C        CA       0.007906       12.0107           0
      3437 SHT      3437     S        C        CA       0.007906       12.0107           0
      3438 SHT      3438     S        C        CA       0.007906       12.0107           0
      3439 SHT      3439     S        C        CA       0.007906       12.0107           0
      3440 SHT      3440     S        C        CA       0.007906       12.0107           0
      3441 SHT      3441     S        C        CA       0.007906       12.0107           0
      3442 SHT      3442     S        C        CA       0.007906       12.0107           0
      3443 SHT      3443     S        C        CA       0.007906       12.0107           0
      3444 SHT      3444     S        C        CA       0.007906       12.0107           0
      3445 SHT      3445     S        C        CA       0.007906       12.0107           0
      3446 SHT      3446     S        C        CA       0.007906       12.0107           0
      3447 SHT      3447     S        C        CA       0.007906       12.0107           0
      3448 SHT      3448     S        C        CA       0.007906       12.0107           0
      3449 SHT      3449     S        C        CA       0.007906       12.0107           0
      3450 SHT      3450     S        C        CA       0.007906       12.0107           0
      3451 SHT      3451     S        C        CA       0.007906       12.0107           0
      3452 SHT      3452     S        C        CA       0.007906       12.0107           0
      3453 SHT      3453     S        C        CA       0.007906       12.0107           0
      3454 SHT      3454     S        C        CA       0.007906       12.0107           0
      3455 SHT      3455     S        C        CA       0.007906       12.0107           0
      3456 SHT      3456     S        C        CA       0.007906       12.0107           0
      3457 SHT      3457     S        C        CA       0.007906       12.0107           0
      3458 SHT      3458     S        C        CA       0.007906       12.0107           0
      3459 SHT      3459     S        C        CA       0.007906       12.0107           0
      3460 SHT      3460     S        C        CA       0.007906       12.0107           0
      3461 SHT      3461     S        C        CA       0.007906       12.0107           0
      3462 SHT      3462     S        C        CA       0.007906       12.0107           0
      3463 SHT      3463     S        C        CA       0.007906       12.0107           0
      3464 SHT      3464     S        C        CA       0.007906       12.0107           0
      3465 SHT      3465     S        C        CA       0.007906       12.0107           0
      3466 SHT      3466     S        C        CA       0.007906       12.0107           0
      3467 SHT      3467     S        C        CA       0.007906       12.0107           0
      3468 SHT      3468     S        C        CA       0.007906       12.0107           0
      3469 SHT      3469     S        C        CA       0.007906       12.0107           0
      3470 SHT      3470     S        C        CA       0.007906       12.0107           0
      3471 SHT      3471     S        C        CA       0.007906       12.0107           0
      3472 SHT      3472     S        C        CA       0.007906       12.0107           0
      3473 SHT      3473     S        C        CA       0.007906       12.0107           0
      3474 SHT      3474     S        C        CA       0.007906       12.0107           0
      3475 SHT      3475     S        C        CA       0.007906       12.0107           0
      3476 SHT      3476     S        C        CA       0.007906       12.0107           0
      3477 SHT      3477     S        C        CA       0.007906       12.0107           0
      3478 SHT      3478     S        C        CA       0.007906       12.0107           0
      3479 SHT      3479     S        C        CA       0.007906       12.0107           0
      3480 SHT      3480     S        C        CA       0.007906       12.0107           0
      3481 SHT      3481     S        C        CA       0.007906       12.0107           0
      3482 SHT      3482     S        C        CA       0.007906       12.0107           0
      3483 SHT      3483     S        C        CA       0.007906       12.0107           0
      3484 SHT      3484     S        C        CA       0.007906       12.0107           0
      3485 SHT      3485     S        C        CA       0.007906       12.0107           0
      3486 SHT      3486     S        C        CA       0.007906       12.0107           0
      3487 SHT      3487     S        C        CA       0.007906       12.0107           0
      3488 SHT      3488     S        C        CA       0.007906       12.0107           0
      3489 SHT      3489     S        C        CA       0.007906       12.0107           0
      3490 SHT      3490     S        C        CA       0.007906       12.0107           0
      3491 SHT      3491     S        C        CA       0.007906       12.0107           0
      3492 SHT      3492     S        C        CA       0.007906       12.0107           0
      3493 SHT      3493     S        C        CA       0.007906       12.0107           0
      3494 SHT      3494     S        C        CA       0.007906       12.0107           0
      3495 SHT      3495     S        C        CA       0.007906       12.0107           0
      3496 SHT      3496     S        C        CA       0.007906       12.0107           0
      3497 SHT      3497     S        C        CA       0.007906       12.0107           0
      3498 SHT      3498     S        C        CA       0.007906       12.0107           0
      3499 SHT      3499     S        C        CA       0.007906       12.0107           0
      3500 SHT      3500     S        C        CA       0.007906       12.0107           0
      3501 SHT      3501     S        C        CA       0.007906       12.0107           0
      3502 SHT      3502     S        C        CA       0.007906       12.0107           0
      3503 SHT      3503     S        C        CA       0.007906       12.0107           0
      3504 SHT      3504     S        C        CA       0.007906       12.0107           0
      3505 SHT      3505     S        C        CA       0.007906       12.0107           0
      3506 SHT      3506     S        C        CA       0.007906       12.0107           0
      3507 SHT      3507     S        C        CA       0.007906       12.0107           0
      3508 SHT      3508     S        C        CA       0.007906       12.0107           0
      3509 SHT      3509     S        C        CA       0.007906       12.0107           0
      3510 SHT      3510     S        C        CA       0.007906       12.0107           0
      3511 SHT      3511     S        C        CA       0.007906       12.0107           0
      3512 SHT      3512     S        C        CA       0.007906       12.0107           0
      3513 SHT      3513     S        C        CA       0.007906       12.0107           0
      3514 SHT      3514     S        C        CA       0.007906       12.0107           0
      3515 SHT      3515     S        C        CA       0.007906       12.0107           0
      3516 SHT      3516     S        C        CA       0.007906       12.0107           0
      3517 SHT      3517     S        C        CA       0.007906       12.0107           0
      3518 SHT      3518     S        C        CA       0.007906       12.0107           0
      3519 SHT      3519     S        C        CA       0.007906       12.0107           0
      3520 SHT      3520     S        C        CA       0.007906       12.0107           0
      3521 SHT      3521     S        C        CA       0.007906       12.0107           0
      3522 SHT      3522     S        C        CA       0.007906       12.0107           0
      3523 SHT      3523     S        C        CA       0.007906       12.0107           0
      3524 SHT      3524     S        C        CA       0.007906       12.0107           0
      3525 SHT      3525     S        C        CA       0.007906       12.0107           0
      3526 SHT      3526     S        C        CA       0.007906       12.0107           0
      3527 SHT      3527     S        C        CA       0.007906       12.0107           0
      3528 SHT      3528     S        C        CA       0.007906       12.0107           0
      3529 SHT      3529     S        C        CA       0.007906       12.0107           0
      3530 SHT      3530     S        C        CA       0.007906       12.0107           0
      3531 SHT      3531     S        C        CA       0.007906       12.0107           0
      3532 SHT      3532     S        C        CA       0.007906       12.0107           0
      3533 SHT      3533     S        C        CA       0.007906       12.0107           0
      3534 SHT      3534     S        C        CA       0.007906       12.0107           0
      3535 SHT      3535     S        C        CA       0.007906       12.0107           0
      3536 SHT      3536     S        C        CA       0.007906       12.0107           0
      3537 SHT      3537     S        C        CA       0.007906       12.0107           0
      3538 SHT      3538     S        C        CA       0.007906       12.0107           0
      3539 SHT      3539     S        C        CA       0.007906       12.0107           0
      3540 SHT      3540     S        C        CA       0.007906       12.0107           0
      3541 SHT      3541     S        C        CA       0.007906       12.0107           0
      3542 SHT      3542     S        C        CA       0.007906       12.0107           0
      3543 SHT      3543     S        C        CA       0.007906       12.0107           0
      3544 SHT      3544     S        C        CA       0.007906       12.0107           0
      3545 SHT      3545     S        C        CA       0.007906       12.0107           0
      3546 SHT      3546     S        C        CA       0.007906       12.0107           0
      3547 SHT      3547     S        C        CA       0.007906       12.0107           0
      3548 SHT      3548     S        C        CA       0.007906       12.0107           0
      3549 SHT      3549     S        C        CA       0.007906       12.0107           0
      3550 SHT      3550     S        C        CA       0.007906       12.0107           0
      3551 SHT      3551     S        C        CA       0.007906       12.0107           0
      3552 SHT      3552     S        C        CA       0.007906       12.0107           0
      3553 SHT      3553     S        C        CA       0.007906       12.0107           0
      3554 SHT      3554     S        C        CA       0.007906       12.0107           0
      3555 SHT      3555     S        C        CA       0.007906       12.0107           0
      3556 SHT      3556     S        C        CA       0.007906       12.0107           0
      3557 SHT      3557     S        C        CA       0.007906       12.0107           0
      3558 SHT      3558     S        C        CA       0.007906       12.0107           0
      3559 SHT      3559     S        C        CA       0.007906       12.0107           0
      3560 SHT      3560     S        C        CA       0.007906       12.0107           0
      3561 SHT      3561     S        C        CA       0.007906       12.0107           0
      3562 SHT      3562     S        C        CA       0.007906       12.0107           0
      3563 SHT      3563     S        C        CA       0.007906       12.0107           0
      3564 SHT      3564     S        C        CA       0.007906       12.0107           0
      3565 SHT      3565     S        C        CA       0.007906       12.0107           0
      3566 SHT      3566     S        C        CA       0.007906       12.0107           0
      3567 SHT      3567     S        C        CA       0.007906       12.0107           0
      3568 SHT      3568     S        C        CA       0.007906       12.0107           0
      3569 SHT      3569     S        C        CA       0.007906       12.0107           0
      3570 SHT      3570     S        C        CA       0.007906       12.0107           0
      3571 SHT      3571     S        C        CA       0.007906       12.0107           0
      3572 SHT      3572     S        C        CA       0.007906       12.0107           0
      3573 SHT      3573     S        C        CA       0.007906       12.0107           0
      3574 SHT      3574     S        C        CA       0.007906       12.0107           0
      3575 SHT      3575     S        C        CA       0.007906       12.0107           0
      3576 SHT      3576     S        C        CA       0.007906       12.0107           0
      3577 SHT      3577     S        C        CA       0.007906       12.0107           0
      3578 SHT      3578     S        C        CA       0.007906       12.0107           0
      3579 SHT      3579     S        C        CA       0.007906       12.0107           0
      3580 SHT      3580     S        C        CA       0.007906       12.0107           0
      3581 SHT      3581     S        C        CA       0.007906       12.0107           0
      3582 SHT      3582     S        C        CA       0.007906       12.0107           0
      3583 SHT      3583     S        C        CA       0.007906       12.0107           0
      3584 SHT      3584     S        C        CA       0.007906       12.0107           0
      3585 SHT      3585     S        C        CA       0.007906       12.0107           0
      3586 SHT      3586     S        C        CA       0.007906       12.0107           0
      3587 SHT      3587     S        C        CA       0.007906       12.0107           0
      3588 SHT      3588     S        C        CA       0.007906       12.0107           0
      3589 SHT      3589     S        C        CA       0.007906       12.0107           0
      3590 SHT      3590     S        C        CA       0.007906       12.0107           0
      3591 SHT      3591     S        C        CA       0.007906       12.0107           0
      3592 SHT      3592     S        C        CA       0.007906       12.0107           0
      3593 SHT      3593     S        C        CA       0.007906       12.0107           0
      3594 SHT      3594     S        C        CA       0.007906       12.0107           0
      3595 SHT      3595     S        C        CA       0.007906       12.0107           0
      3596 SHT      3596     S        C        CA       0.007906       12.0107           0
      3597 SHT      3597     S        C        CA       0.007906       12.0107           0
      3598 SHT      3598     S        C        CA       0.007906       12.0107           0
      3599 SHT      3599     S        C        CA       0.007906       12.0107           0
      3600 SHT      3600     S        C        CA       0.007906       12.0107           0
      3601 SHT      3601     S        C        CA       0.007906       12.0107           0
      3602 SHT      3602     S        C        CA       0.007906       12.0107           0
      3603 SHT      3603     S        C        CA       0.007906       12.0107           0
      3604 SHT      3604     S        C        CA       0.007906       12.0107           0
      3605 SHT      3605     S        C        CA       0.007906       12.0107           0
      3606 SHT      3606     S        C        CA       0.007906       12.0107           0
      3607 SHT      3607     S        C        CA       0.007906       12.0107           0
      3608 SHT      3608     S        C        CA       0.007906       12.0107           0
      3609 SHT      3609     S        C        CA       0.007906       12.0107           0
      3610 SHT      3610     S        C        CA       0.007906       12.0107           0
      3611 SHT      3611     S        C        CA       0.007906       12.0107           0
      3612 SHT      3612     S        C        CA       0.007906       12.0107           0
      3613 SHT      3613     S        C        CA       0.007906       12.0107           0
      3614 SHT      3614     S        C        CA       0.007906       12.0107           0
      3615 SHT      3615     S        C        CA       0.007906       12.0107           0
      3616 SHT      3616     S        C        CA       0.007906       12.0107           0
      3617 SHT      3617     S        C        CA       0.007906       12.0107           0
      3618 SHT      3618     S        C        CA       0.007906       12.0107           0
      3619 SHT      3619     S        C        CA       0.007906       12.0107           0
      3620 SHT      3620     S        C        CA       0.007906       12.0107           0
      3621 SHT      3621     S        C        CA       0.007906       12.0107           0
      3622 SHT      3622     S        C        CA       0.007906       12.0107           0
      3623 SHT      3623     S        C        CA       0.007906       12.0107           0
      3624 SHT      3624     S        C        CA       0.007906       12.0107           0
      3625 SHT      3625     S        C        CA       0.007906       12.0107           0
      3626 SHT      3626     S        C        CA       0.007906       12.0107           0
      3627 SHT      3627     S        C        CA       0.007906       12.0107           0
      3628 SHT      3628     S        C        CA       0.007906       12.0107           0
      3629 SHT      3629     S        C        CA       0.007906       12.0107           0
      3630 SHT      3630     S        C        CA       0.007906       12.0107           0
      3631 SHT      3631     S        C        CA       0.007906       12.0107           0
      3632 SHT      3632     S        C        CA       0.007906       12.0107           0
      3633 SHT      3633     S        C        CA       0.007906       12.0107           0
      3634 SHT      3634     S        C        CA       0.007906       12.0107           0
      3635 SHT      3635     S        C        CA       0.007906       12.0107           0
      3636 SHT      3636     S        C        CA       0.007906       12.0107           0
      3637 SHT      3637     S        C        CA       0.007906       12.0107           0
      3638 SHT      3638     S        C        CA       0.007906       12.0107           0
      3639 SHT      3639     S        C        CA       0.007906       12.0107           0
      3640 SHT      3640     S        C        CA       0.007906       12.0107           0
      3641 SHT      3641     S        C        CA       0.007906       12.0107           0
      3642 SHT      3642     S        C        CA       0.007906       12.0107           0
      3643 SHT      3643     S        C        CA       0.007906       12.0107           0
      3644 SHT      3644     S        C        CA       0.007906       12.0107           0
      3645 SHT      3645     S        C        CA       0.007906       12.0107           0
      3646 SHT      3646     S        C        CA       0.007906       12.0107           0
      3647 SHT      3647     S        C        CA       0.007906       12.0107           0
      3648 SHT      3648     S        C        CA       0.007906       12.0107           0
      3649 SHT      3649     S        C        CA       0.007906       12.0107           0
      3650 SHT      3650     S        C        CA       0.007906       12.0107           0
      3651 SHT      3651     S        C        CA       0.007906       12.0107           0
      3652 SHT      3652     S        C        CA       0.007906       12.0107           0
      3653 SHT      3653     S        C        CA       0.007906       12.0107           0
      3654 SHT      3654     S        C        CA       0.007906       12.0107           0
      3655 SHT      3655     S        C        CA       0.007906       12.0107           0
      3656 SHT      3656     S        C        CA       0.007906       12.0107           0
      3657 SHT      3657     S        C        CA       0.007906       12.0107           0
      3658 SHT      3658     S        C        CA       0.007906       12.0107           0
      3659 SHT      3659     S        C        CA       0.007906       12.0107           0
      3660 SHT      3660     S        C        CA       0.007906       12.0107           0
      3661 SHT      3661     S        C        CA       0.007906       12.0107           0
      3662 SHT      3662     S        C        CA       0.007906       12.0107           0
      3663 SHT      3663     S        C        CA       0.007906       12.0107           0
      3664 SHT      3664     S        C        CA       0.007906       12.0107           0
      3665 SHT      3665     S        C        CA       0.007906       12.0107           0
      3666 SHT      3666     S        C        CA       0.007906       12.0107           0
      3667 SHT      3667     S        C        CA       0.007906       12.0107           0
      3668 SHT      3668     S        C        CA       0.007906       12.0107           0
      3669 SHT      3669     S        C        CA       0.007906       12.0107           0
      3670 SHT      3670     S        C        CA       0.007906       12.0107           0
      3671 SHT      3671     S        C        CA       0.007906       12.0107           0
      3672 SHT      3672     S        C        CA       0.007906       12.0107           0
      3673 SHT      3673     S        C        CA       0.007906       12.0107           0
      3674 SHT      3674     S        C        CA       0.007906       12.0107           0
      3675 SHT      3675     S        C        CA       0.007906       12.0107           0
      3676 SHT      3676     S        C        CA       0.007906       12.0107           0
      3677 SHT      3677     S        C        CA       0.007906       12.0107           0
      3678 SHT      3678     S        C        CA       0.007906       12.0107           0
      3679 SHT      3679     S        C        CA       0.007906       12.0107           0
      3680 SHT      3680     S        C        CA       0.007906       12.0107           0
      3681 SHT      3681     S        C        CA       0.007906       12.0107           0
      3682 SHT      3682     S        C        CA       0.007906       12.0107           0
      3683 SHT      3683     S        C        CA       0.007906       12.0107           0
      3684 SHT      3684     S        C        CA       0.007906       12.0107           0
      3685 SHT      3685     S        C        CA       0.007906       12.0107           0
      3686 SHT      3686     S        C        CA       0.007906       12.0107           0
      3687 SHT      3687     S        C        CA       0.007906       12.0107           0
      3688 SHT      3688     S        C        CA       0.007906       12.0107           0
      3689 SHT      3689     S        C        CA       0.007906       12.0107           0
      3690 SHT      3690     S        C        CA       0.007906       12.0107           0
      3691 SHT      3691     S        C        CA       0.007906       12.0107           0
      3692 SHT      3692     S        C        CA       0.007906       12.0107           0
      3693 SHT      3693     S        C        CA       0.007906       12.0107           0
      3694 SHT      3694     S        C        CA       0.007906       12.0107           0
      3695 SHT      3695     S        C        CA       0.007906       12.0107           0
      3696 SHT      3696     S        C        CA       0.007906       12.0107           0
      3697 SHT      3697     S        C        CA       0.007906       12.0107           0
      3698 SHT      3698     S        C        CA       0.007906       12.0107           0
      3699 SHT      3699     S        C        CA       0.007906       12.0107           0
      3700 SHT      3700     S        C        CA       0.007906       12.0107           0
      3701 SHT      3701     S        C        CA       0.007906       12.0107           0
      3702 SHT      3702     S        C        CA       0.007906       12.0107           0
      3703 SHT      3703     S        C        CA       0.007906       12.0107           0
      3704 SHT      3704     S        C        CA       0.007906       12.0107           0
      3705 SHT      3705     S        C        CA       0.007906       12.0107           0
      3706 SHT      3706     S        C        CA       0.007906       12.0107           0
      3707 SHT      3707     S        C        CA       0.007906       12.0107           0
      3708 SHT      3708     S        C        CA       0.007906       12.0107           0
      3709 SHT      3709     S        C        CA       0.007906       12.0107           0
      3710 SHT      3710     S        C        CA       0.007906       12.0107           0
      3711 SHT      3711     S        C        CA       0.007906       12.0107           0
      3712 SHT      3712     S        C        CA       0.007906       12.0107           0
      3713 SHT      3713     S        C        CA       0.007906       12.0107           0
      3714 SHT      3714     S        C        CA       0.007906       12.0107           0
      3715 SHT      3715     S        C        CA       0.007906       12.0107           0
      3716 SHT      3716     S        C        CA       0.007906       12.0107           0
      3717 SHT      3717     S        C        CA       0.007906       12.0107           0
      3718 SHT      3718     S        C        CA       0.007906       12.0107           0
      3719 SHT      3719     S        C        CA       0.007906       12.0107           0
      3720 SHT      3720     S        C        CA       0.007906       12.0107           0
      3721 SHT      3721     S        C        CA       0.007906       12.0107           0
      3722 SHT      3722     S        C        CA       0.007906       12.0107           0
      3723 SHT      3723     S        C        CA       0.007906       12.0107           0
      3724 SHT      3724     S        C        CA       0.007906       12.0107           0
      3725 SHT      3725     S        C        CA       0.007906       12.0107           0
      3726 SHT      3726     S        C        CA       0.007906       12.0107           0
      3727 SHT      3727     S        C        CA       0.007906       12.0107           0
      3728 SHT      3728     S        C        CA       0.007906       12.0107           0
      3729 SHT      3729     S        C        CA       0.007906       12.0107           0
      3730 SHT      3730     S        C        CA       0.007906       12.0107           0
      3731 SHT      3731     S        C        CA       0.007906       12.0107           0
      3732 SHT      3732     S        C        CA       0.007906       12.0107           0
      3733 SHT      3733     S        C        CA       0.007906       12.0107           0
      3734 SHT      3734     S        C        CA       0.007906       12.0107           0
      3735 SHT      3735     S        C        CA       0.007906       12.0107           0
      3736 SHT      3736     S        C        CA       0.007906       12.0107           0
      3737 SHT      3737     S        C        CA       0.007906       12.0107           0
      3738 SHT      3738     S        C        CA       0.007906       12.0107           0
      3739 SHT      3739     S        C        CA       0.007906       12.0107           0
      3740 SHT      3740     S        C        CA       0.007906       12.0107           0
      3741 SHT      3741     S        C        CA       0.007906       12.0107           0
      3742 SHT      3742     S        C        CA       0.007906       12.0107           0
      3743 SHT      3743     S        C        CA       0.007906       12.0107           0
      3744 SHT      3744     S        C        CA       0.007906       12.0107           0
      3745 SHT      3745     S        C        CA       0.007906       12.0107           0
      3746 SHT      3746     S        C        CA       0.007906       12.0107           0
      3747 SHT      3747     S        C        CA       0.007906       12.0107           0
      3748 SHT      3748     S        C        CA       0.007906       12.0107           0
      3749 SHT      3749     S        C        CA       0.007906       12.0107           0
      3750 SHT      3750     S        C        CA       0.007906       12.0107           0
      3751 SHT      3751     S        C        CA       0.007906       12.0107           0
      3752 SHT      3752     S        C        CA       0.007906       12.0107           0
      3753 SHT      3753     S        C        CA       0.007906       12.0107           0
      3754 SHT      3754     S        C        CA       0.007906       12.0107           0
      3755 SHT      3755     S        C        CA       0.007906       12.0107           0
      3756 SHT      3756     S        C        CA       0.007906       12.0107           0
      3757 SHT      3757     S        C        CA       0.007906       12.0107           0
      3758 SHT      3758     S        C        CA       0.007906       12.0107           0
      3759 SHT      3759     S        C        CA       0.007906       12.0107           0
      3760 SHT      3760     S        C        CA       0.007906       12.0107           0
      3761 SHT      3761     S        C        CA       0.007906       12.0107           0
      3762 SHT      3762     S        C        CA       0.007906       12.0107           0
      3763 SHT      3763     S        C        CA       0.007906       12.0107           0
      3764 SHT      3764     S        C        CA       0.007906       12.0107           0
      3765 SHT      3765     S        C        CA       0.007906       12.0107           0
      3766 SHT      3766     S        C        CA       0.007906       12.0107           0
      3767 SHT      3767     S        C        CA       0.007906       12.0107           0
      3768 SHT      3768     S        C        CA       0.007906       12.0107           0
      3769 SHT      3769     S        C        CA       0.007906       12.0107           0
      3770 SHT      3770     S        C        CA       0.007906       12.0107           0
      3771 SHT      3771     S        C        CA       0.007906       12.0107           0
      3772 SHT      3772     S        C        CA       0.007906       12.0107           0
      3773 SHT      3773     S        C        CA       0.007906       12.0107           0
      3774 SHT      3774     S        C        CA       0.007906       12.0107           0
      3775 SHT      3775     S        C        CA       0.007906       12.0107           0
      3776 SHT      3776     S        C        CA       0.007906       12.0107           0
      3777 SHT      3777     S        C        CA       0.007906       12.0107           0
      3778 SHT      3778     S        C        CA       0.007906       12.0107           0
      3779 SHT      3779     S        C        CA       0.007906       12.0107           0
      3780 SHT      3780     S        C        CA       0.007906       12.0107           0
      3781 SHT      3781     S        C        CA       0.007906       12.0107           0
      3782 SHT      3782     S        C        CA       0.007906       12.0107           0
      3783 SHT      3783     S        C        CA       0.007906       12.0107           0
      3784 SHT      3784     S        C        CA       0.007906       12.0107           0
      3785 SHT      3785     S        C        CA       0.007906       12.0107           0
      3786 SHT      3786     S        C        CA       0.007906       12.0107           0
      3787 SHT      3787     S        C        CA       0.007906       12.0107           0
      3788 SHT      3788     S        C        CA       0.007906       12.0107           0
      3789 SHT      3789     S        C        CA       0.007906       12.0107           0
      3790 SHT      3790     S        C        CA       0.007906       12.0107           0
      3791 SHT      3791     S        C        CA       0.007906       12.0107           0
      3792 SHT      3792     S        C        CA       0.007906       12.0107           0
      3793 SHT      3793     S        C        CA       0.007906       12.0107           0
      3794 SHT      3794     S        C        CA       0.007906       12.0107           0
      3795 SHT      3795     S        C        CA       0.007906       12.0107           0
      3796 SHT      3796     S        C        CA       0.007906       12.0107           0
      3797 SHT      3797     S        C        CA       0.007906       12.0107           0
      3798 SHT      3798     S        C        CA       0.007906       12.0107           0
      3799 SHT      3799     S        C        CA       0.007906       12.0107           0
      3800 SHT      3800     S        C        CA       0.007906       12.0107           0
      3801 SHT      3801     S        C        CA       0.007906       12.0107           0
      3802 SHT      3802     S        C        CA       0.007906       12.0107           0
      3803 SHT      3803     S        C        CA       0.007906       12.0107           0
      3804 SHT      3804     S        C        CA       0.007906       12.0107           0
      3805 SHT      3805     S        C        CA       0.007906       12.0107           0
      3806 SHT      3806     S        C        CA       0.007906       12.0107           0
      3807 SHT      3807     S        C        CA       0.007906       12.0107           0
      3808 SHT      3808     S        C        CA       0.007906       12.0107           0
      3809 SHT      3809     S        C        CA       0.007906       12.0107           0
      3810 SHT      3810     S        C        CA       0.007906       12.0107           0
      3811 SHT      3811     S        C        CA       0.007906       12.0107           0
      3812 SHT      3812     S        C        CA       0.007906       12.0107           0
      3813 SHT      3813     S        C        CA       0.007906       12.0107           0
      3814 SHT      3814     S        C        CA       0.007906       12.0107           0
      3815 SHT      3815     S        C        CA       0.007906       12.0107           0
      3816 SHT      3816     S        C        CA       0.007906       12.0107           0
      3817 SHT      3817     S        C        CA       0.007906       12.0107           0
      3818 SHT      3818     S        C        CA       0.007906       12.0107           0
      3819 SHT      3819     S        C        CA       0.007906       12.0107           0
      3820 SHT      3820     S        C        CA       0.007906       12.0107           0
      3821 SHT      3821     S        C        CA       0.007906       12.0107           0
      3822 SHT      3822     S        C        CA       0.007906       12.0107           0
      3823 SHT      3823     S        C        CA       0.007906       12.0107           0
      3824 SHT      3824     S        C        CA       0.007906       12.0107           0
      3825 SHT      3825     S        C        CA       0.007906       12.0107           0
      3826 SHT      3826     S        C        CA       0.007906       12.0107           0
      3827 SHT      3827     S        C        CA       0.007906       12.0107           0
      3828 SHT      3828     S        C        CA       0.007906       12.0107           0
      3829 SHT      3829     S        C        CA       0.007906       12.0107           0
      3830 SHT      3830     S        C        CA       0.007906       12.0107           0
      3831 SHT      3831     S        C        CA       0.007906       12.0107           0
      3832 SHT      3832     S        C        CA       0.007906       12.0107           0
      3833 SHT      3833     S        C        CA       0.007906       12.0107           0
      3834 SHT      3834     S        C        CA       0.007906       12.0107           0
      3835 SHT      3835     S        C        CA       0.007906       12.0107           0
      3836 SHT      3836     S        C        CA       0.007906       12.0107           0
      3837 SHT      3837     S        C        CA       0.007906       12.0107           0
      3838 SHT      3838     S        C        CA       0.007906       12.0107           0
      3839 SHT      3839     S        C        CA       0.007906       12.0107           0
      3840 SHT      3840     S        C        CA       0.007906       12.0107           0
      3841 SHT      3841     S        C        CA       0.007906       12.0107           0
      3842 SHT      3842     S        C        CA       0.007906       12.0107           0
      3843 SHT      3843     S        C        CA       0.007906       12.0107           0
      3844 SHT      3844     S        C        CA       0.007906       12.0107           0
      3845 SHT      3845     S        C        CA       0.007906       12.0107           0
      3846 SHT      3846     S        C        CA       0.007906       12.0107           0
      3847 SHT      3847     S        C        CA       0.007906       12.0107           0
      3848 SHT      3848     S        C        CA       0.007906       12.0107           0
      3849 SHT      3849     S        C        CA       0.007906       12.0107           0
      3850 SHT      3850     S        C        CA       0.007906       12.0107           0
      3851 SHT      3851     S        C        CA       0.007906       12.0107           0
      3852 SHT      3852     S        C        CA       0.007906       12.0107           0
      3853 SHT      3853     S        C        CA       0.007906       12.0107           0
      3854 SHT      3854     S        C        CA       0.007906       12.0107           0
      3855 SHT      3855     S        C        CA       0.007906       12.0107           0
      3856 SHT      3856     S        C        CA       0.007906       12.0107           0
      3857 SHT      3857     S        C        CA       0.007906       12.0107           0
      3858 SHT      3858     S        C        CA       0.007906       12.0107           0
      3859 SHT      3859     S        C        CA       0.007906       12.0107           0
      3860 SHT      3860     S        C        CA       0.007906       12.0107           0
      3861 SHT      3861     S        C        CA       0.007906       12.0107           0
      3862 SHT      3862     S        C        CA       0.007906       12.0107           0
      3863 SHT      3863     S        C        CA       0.007906       12.0107           0
      3864 SHT      3864     S        C        CA       0.007906       12.0107           0
      3865 SHT      3865     S        C        CA       0.007906       12.0107           0
      3866 SHT      3866     S        C        CA       0.007906       12.0107           0
      3867 SHT      3867     S        C        CA       0.007906       12.0107           0
      3868 SHT      3868     S        C        CA       0.007906       12.0107           0
      3869 SHT      3869     S        C        CA       0.007906       12.0107           0
      3870 SHT      3870     S        C        CA       0.007906       12.0107           0
      3871 SHT      3871     S        C        CA       0.007906       12.0107           0
      3872 SHT      3872     S        C        CA       0.007906       12.0107           0
      3873 SHT      3873     S        C        CA       0.007906       12.0107           0
      3874 SHT      3874     S        C        CA       0.007906       12.0107           0
      3875 SHT      3875     S        C        CA       0.007906       12.0107           0
      3876 SHT      3876     S        C        CA       0.007906       12.0107           0
      3877 SHT      3877     S        C        CA       0.007906       12.0107           0
      3878 SHT      3878     S        C        CA       0.007906       12.0107           0
      3879 SHT      3879     S        C        CA       0.007906       12.0107           0
      3880 SHT      3880     S        C        CA       0.007906       12.0107           0
      3881 SHT      3881     S        C        CA       0.007906       12.0107           0
      3882 SHT      3882     S        C        CA       0.007906       12.0107           0
      3883 SHT      3883     S        C        CA       0.007906       12.0107           0
      3884 SHT      3884     S        C        CA       0.007906       12.0107           0
      3885 SHT      3885     S        C        CA       0.007906       12.0107           0
      3886 SHT      3886     S        C        CA       0.007906       12.0107           0
      3887 SHT      3887     S        C        CA       0.007906       12.0107           0
      3888 SHT      3888     S        C        CA       0.007906       12.0107           0
      3889 SHT      3889     S        C        CA       0.007906       12.0107           0
      3890 SHT      3890     S        C        CA       0.007906       12.0107           0
      3891 SHT      3891     S        C        CA       0.007906       12.0107           0
      3892 SHT      3892     S        C        CA       0.007906       12.0107           0
      3893 SHT      3893     S        C        CA       0.007906       12.0107           0
      3894 SHT      3894     S        C        CA       0.007906       12.0107           0
      3895 SHT      3895     S        C        CA       0.007906       12.0107           0
      3896 SHT      3896     S        C        CA       0.007906       12.0107           0
      3897 SHT      3897     S        C        CA       0.007906       12.0107           0
      3898 SHT      3898     S        C        CA       0.007906       12.0107           0
      3899 SHT      3899     S        C        CA       0.007906       12.0107           0
      3900 SHT      3900     S        C        CA       0.007906       12.0107           0
      3901 SHT      3901     S        C        CA       0.007906       12.0107           0
      3902 SHT      3902     S        C        CA       0.007906       12.0107           0
      3903 SHT      3903     S        C        CA       0.007906       12.0107           0
      3904 SHT      3904     S        C        CA       0.007906       12.0107           0
      3905 SHT      3905     S        C        CA       0.007906       12.0107           0
      3906 SHT      3906     S        C        CA       0.007906       12.0107           0
      3907 SHT      3907     S        C        CA       0.007906       12.0107           0
      3908 SHT      3908     S        C        CA       0.007906       12.0107           0
      3909 SHT      3909     S        C        CA       0.007906       12.0107           0
      3910 SHT      3910     S        C        CA       0.007906       12.0107           0
      3911 SHT      3911     S        C        CA       0.007906       12.0107           0
      3912 SHT      3912     S        C        CA       0.007906       12.0107           0
      3913 SHT      3913     S        C        CA       0.007906       12.0107           0
      3914 SHT      3914     S        C        CA       0.007906       12.0107           0
      3915 SHT      3915     S        C        CA       0.007906       12.0107           0
      3916 SHT      3916     S        C        CA       0.007906       12.0107           0
      3917 SHT      3917     S        C        CA       0.007906       12.0107           0
      3918 SHT      3918     S        C        CA       0.007906       12.0107           0
      3919 SHT      3919     S        C        CA       0.007906       12.0107           0
      3920 SHT      3920     S        C        CA       0.007906       12.0107           0
      3921 SHT      3921     S        C        CA       0.007906       12.0107           0
      3922 SHT      3922     S        C        CA       0.007906       12.0107           0
      3923 SHT      3923     S        C        CA       0.007906       12.0107           0
      3924 SHT      3924     S        C        CA       0.007906       12.0107           0
      3925 SHT      3925     S        C        CA       0.007906       12.0107           0
      3926 SHT      3926     S        C        CA       0.007906       12.0107           0
      3927 SHT      3927     S        C        CA       0.007906       12.0107           0
      3928 SHT      3928     S        C        CA       0.007906       12.0107           0
      3929 SHT      3929     S        C        CA       0.007906       12.0107           0
      3930 SHT      3930     S        C        CA       0.007906       12.0107           0
      3931 SHT      3931     S        C        CA       0.007906       12.0107           0
      3932 SHT      3932     S        C        CA       0.007906       12.0107           0
      3933 SHT      3933     S        C        CA       0.007906       12.0107           0
      3934 SHT      3934     S        C        CA       0.007906       12.0107           0
      3935 SHT      3935     S        C        CA       0.007906       12.0107           0
      3936 SHT      3936     S        C        CA       0.007906       12.0107           0
      3937 SHT      3937     S        C        CA       0.007906       12.0107           0
      3938 SHT      3938     S        C        CA       0.007906       12.0107           0
      3939 SHT      3939     S        C        CA       0.007906       12.0107           0
      3940 SHT      3940     S        C        CA       0.007906       12.0107           0
      3941 SHT      3941     S        C        CA       0.007906       12.0107           0
      3942 SHT      3942     S        C        CA       0.007906       12.0107           0
      3943 SHT      3943     S        C        CA       0.007906       12.0107           0
      3944 SHT      3944     S        C        CA       0.007906       12.0107           0
      3945 SHT      3945     S        C        CA       0.007906       12.0107           0
      3946 SHT      3946     S        C        CA       0.007906       12.0107           0
      3947 SHT      3947     S        C        CA       0.007906       12.0107           0
      3948 SHT      3948     S        C        CA       0.007906       12.0107           0
      3949 SHT      3949     S        C        CA       0.007906       12.0107           0
      3950 SHT      3950     S        C        CA       0.007906       12.0107           0
      3951 SHT      3951     S        C        CA       0.007906       12.0107           0
      3952 SHT      3952     S        C        CA       0.007906       12.0107           0
      3953 SHT      3953     S        C        CA       0.007906       12.0107           0
      3954 SHT      3954     S        C        CA       0.007906       12.0107           0
      3955 SHT      3955     S        C        CA       0.007906       12.0107           0
      3956 SHT      3956     S        C        CA       0.007906       12.0107           0
      3957 SHT      3957     S        C        CA       0.007906       12.0107           0
      3958 SHT      3958     S        C        CA       0.007906       12.0107           0
      3959 SHT      3959     S        C        CA       0.007906       12.0107           0
      3960 SHT      3960     S        C        CA       0.007906       12.0107           0
      3961 SHT      3961     S        C        CA       0.007906       12.0107           0
      3962 SHT      3962     S        C        CA       0.007906       12.0107           0
      3963 SHT      3963     S        C        CA       0.007906       12.0107           0
      3964 SHT      3964     S        C        CA       0.007906       12.0107           0
      3965 SHT      3965     S        C        CA       0.007906       12.0107           0
      3966 SHT      3966     S        C        CA       0.007906       12.0107           0
      3967 SHT      3967     S        C        CA       0.007906       12.0107           0
      3968 SHT      3968     S        C        CA       0.007906       12.0107           0
      3969 SHT      3969     S        C        CA       0.007906       12.0107           0
      3970 SHT      3970     S        C        CA       0.007906       12.0107           0
      3971 SHT      3971     S        C        CA       0.007906       12.0107           0
      3972 SHT      3972     S        C        CA       0.007906       12.0107           0
      3973 SHT      3973     S        C        CA       0.007906       12.0107           0
      3974 SHT      3974     S        C        CA       0.007906       12.0107           0
      3975 SHT      3975     S        C        CA       0.007906       12.0107           0
      3976 SHT      3976     S        C        CA       0.007906       12.0107           0
      3977 SHT      3977     S        C        CA       0.007906       12.0107           0
      3978 SHT      3978     S        C        CA       0.007906       12.0107           0
      3979 SHT      3979     S        C        CA       0.007906       12.0107           0
      3980 SHT      3980     S        C        CA       0.007906       12.0107           0
      3981 SHT      3981     S        C        CA       0.007906       12.0107           0
      3982 SHT      3982     S        C        CA       0.007906       12.0107           0
      3983 SHT      3983     S        C        CA       0.007906       12.0107           0
      3984 SHT      3984     S        C        CA       0.007906       12.0107           0
      3985 SHT      3985     S        C        CA       0.007906       12.0107           0
      3986 SHT      3986     S        C        CA       0.007906       12.0107           0
      3987 SHT      3987     S        C        CA       0.007906       12.0107           0
      3988 SHT      3988     S        C        CA       0.007906       12.0107           0
      3989 SHT      3989     S        C        CA       0.007906       12.0107           0
      3990 SHT      3990     S        C        CA       0.007906       12.0107           0
      3991 SHT      3991     S        C        CA       0.007906       12.0107           0
      3992 SHT      3992     S        C        CA       0.007906       12.0107           0
      3993 SHT      3993     S        C        CA       0.007906       12.0107           0
      3994 SHT      3994     S        C        CA       0.007906       12.0107           0
      3995 SHT      3995     S        C        CA       0.007906       12.0107           0
      3996 SHT      3996     S        C        CA       0.007906       12.0107           0
      3997 SHT      3997     S        C        CA       0.007906       12.0107           0
      3998 SHT      3998     S        C        CA       0.007906       12.0107           0
      3999 SHT      3999     S        C        CA       0.007906       12.0107           0
      4000 SHT      4000     S        C        CA       0.007906       12.0107           0
      4001 SHT      4001     S        C        CA       0.007906       12.0107           0
      4002 SHT      4002     S        C        CA       0.007906       12.0107           0
      4003 SHT      4003     S        C        CA       0.007906       12.0107           0
      4004 SHT      4004     S        C        CA       0.007906       12.0107           0
      4005 SHT      4005     S        C        CA       0.007906       12.0107           0
      4006 SHT      4006     S        C        CA       0.007906       12.0107           0
      4007 SHT      4007     S        C        CA       0.007906       12.0107           0
      4008 SHT      4008     S        C        CA       0.007906       12.0107           0
      4009 SHT      4009     S        C        CA       0.007906       12.0107           0
      4010 SHT      4010     S        C        CA       0.007906       12.0107           0
      4011 SHT      4011     S        C        CA       0.007906       12.0107           0
      4012 SHT      4012     S        C        CA       0.007906       12.0107           0
      4013 SHT      4013     S        C        CA       0.007906       12.0107           0
      4014 SHT      4014     S        C        CA       0.007906       12.0107           0
      4015 SHT      4015     S        C        CA       0.007906       12.0107           0
      4016 SHT      4016     S        C        CA       0.007906       12.0107           0
      4017 SHT      4017     S        C        CA       0.007906       12.0107           0
      4018 SHT      4018     S        C        CA       0.007906       12.0107           0
      4019 SHT      4019     S        C        CA       0.007906       12.0107           0
      4020 SHT      4020     S        C        CA       0.007906       12.0107           0
      4021 SHT      4021     S        C        CA       0.007906       12.0107           0
      4022 SHT      4022     S        C        CA       0.007906       12.0107           0
      4023 SHT      4023     S        C        CA       0.007906       12.0107           0
      4024 SHT      4024     S        C        CA       0.007906       12.0107           0
      4025 SHT      4025     S        C        CA       0.007906       12.0107           0
      4026 SHT      4026     S        C        CA       0.007906       12.0107           0
      4027 SHT      4027     S        C        CA       0.007906       12.0107           0
      4028 SHT      4028     S        C        CA       0.007906       12.0107           0
      4029 SHT      4029     S        C        CA       0.007906       12.0107           0
      4030 SHT      4030     S        C        CA       0.007906       12.0107           0
      4031 SHT      4031     S        C        CA       0.007906       12.0107           0
      4032 SHT      4032     S        C        CA       0.007906       12.0107           0
      4033 SHT      4033     S        C        CA       0.007906       12.0107           0
      4034 SHT      4034     S        C        CA       0.007906       12.0107           0
      4035 SHT      4035     S        C        CA       0.007906       12.0107           0
      4036 SHT      4036     S        C        CA       0.007906       12.0107           0
      4037 SHT      4037     S        C        CA       0.007906       12.0107           0
      4038 SHT      4038     S        C        CA       0.007906       12.0107           0
      4039 SHT      4039     S        C        CA       0.007906       12.0107           0
      4040 SHT      4040     S        C        CA       0.007906       12.0107           0
      4041 SHT      4041     S        C        CA       0.007906       12.0107           0
      4042 SHT      4042     S        C        CA       0.007906       12.0107           0
      4043 SHT      4043     S        C        CA       0.007906       12.0107           0
      4044 SHT      4044     S        C        CA       0.007906       12.0107           0
      4045 SHT      4045     S        C        CA       0.007906       12.0107           0
      4046 SHT      4046     S        C        CA       0.007906       12.0107           0
      4047 SHT      4047     S        C        CA       0.007906       12.0107           0
      4048 SHT      4048     S        C        CA       0.007906       12.0107           0
      4049 SHT      4049     S        C        CA       0.007906       12.0107           0
      4050 SHT      4050     S        C        CA       0.007906       12.0107           0
      4051 SHT      4051     S        C        CA       0.007906       12.0107           0
      4052 SHT      4052     S        C        CA       0.007906       12.0107           0
      4053 SHT      4053     S        C        CA       0.007906       12.0107           0
      4054 SHT      4054     S        C        CA       0.007906       12.0107           0
      4055 SHT      4055     S        C        CA       0.007906       12.0107           0
      4056 SHT      4056     S        C        CA       0.007906       12.0107           0
      4057 SHT      4057     S        C        CA       0.007906       12.0107           0
      4058 SHT      4058     S        C        CA       0.007906       12.0107           0
      4059 SHT      4059     S        C        CA       0.007906       12.0107           0
      4060 SHT      4060     S        C        CA       0.007906       12.0107           0
      4061 SHT      4061     S        C        CA       0.007906       12.0107           0
      4062 SHT      4062     S        C        CA       0.007906       12.0107           0
      4063 SHT      4063     S        C        CA       0.007906       12.0107           0
      4064 SHT      4064     S        C        CA       0.007906       12.0107           0
      4065 SHT      4065     S        C        CA       0.007906       12.0107           0
      4066 SHT      4066     S        C        CA       0.007906       12.0107           0
      4067 SHT      4067     S        C        CA       0.007906       12.0107           0
      4068 SHT      4068     S        C        CA       0.007906       12.0107           0
      4069 SHT      4069     S        C        CA       0.007906       12.0107           0
      4070 SHT      4070     S        C        CA       0.007906       12.0107           0
      4071 SHT      4071     S        C        CA       0.007906       12.0107           0
      4072 SHT      4072     S        C        CA       0.007906       12.0107           0
      4073 SHT      4073     S        C        CA       0.007906       12.0107           0
      4074 SHT      4074     S        C        CA       0.007906       12.0107           0
      4075 SHT      4075     S        C        CA       0.007906       12.0107           0
      4076 SHT      4076     S        C        CA       0.007906       12.0107           0
      4077 SHT      4077     S        C        CA       0.007906       12.0107           0
      4078 SHT      4078     S        C        CA       0.007906       12.0107           0
      4079 SHT      4079     S        C        CA       0.007906       12.0107           0
      4080 SHT      4080     S        C        CA       0.007906       12.0107           0
      4081 SHT      4081     S        C        CA       0.007906       12.0107           0
      4082 SHT      4082     S        C        CA       0.007906       12.0107           0
      4083 SHT      4083     S        C        CA       0.007906       12.0107           0
      4084 SHT      4084     S        C        CA       0.007906       12.0107           0
      4085 SHT      4085     S        C        CA       0.007906       12.0107           0
      4086 SHT      4086     S        C        CA       0.007906       12.0107           0
      4087 SHT      4087     S        C        CA       0.007906       12.0107           0
      4088 SHT      4088     S        C        CA       0.007906       12.0107           0
      4089 SHT      4089     S        C        CA       0.007906       12.0107           0
      4090 SHT      4090     S        C        CA       0.007906       12.0107           0
      4091 SHT      4091     S        C        CA       0.007906       12.0107           0
      4092 SHT      4092     S        C        CA       0.007906       12.0107           0
      4093 SHT      4093     S        C        CA       0.007906       12.0107           0
      4094 SHT      4094     S        C        CA       0.007906       12.0107           0
      4095 SHT      4095     S        C        CA       0.007906       12.0107           0
      4096 SHT      4096     S        C        CA       0.007906       12.0107           0
      4097 SHT      4097     S        C        CA       0.007906       12.0107           0
      4098 SHT      4098     S        C        CA       0.007906       12.0107           0
      4099 SHT      4099     S        C        CA       0.007906       12.0107           0
      4100 SHT      4100     S        C        CA       0.007906       12.0107           0
      4101 SHT      4101     S        C        CA       0.007906       12.0107           0
      4102 SHT      4102     S        C        CA       0.007906       12.0107           0
      4103 SHT      4103     S        C        CA       0.007906       12.0107           0
      4104 SHT      4104     S        C        CA       0.007906       12.0107           0
      4105 SHT      4105     S        C        CA       0.007906       12.0107           0
      4106 SHT      4106     S        C        CA       0.007906       12.0107           0
      4107 SHT      4107     S        C        CA       0.007906       12.0107           0
      4108 SHT      4108     S        C        CA       0.007906       12.0107           0
      4109 SHT      4109     S        C        CA       0.007906       12.0107           0
      4110 SHT      4110     S        C        CA       0.007906       12.0107           0
      4111 SHT      4111     S        C        CA       0.007906       12.0107           0
      4112 SHT      4112     S        C        CA       0.007906       12.0107           0
      4113 SHT      4113     S        C        CA       0.007906       12.0107           0
      4114 SHT      4114     S        C        CA       0.007906       12.0107           0
      4115 SHT      4115     S        C        CA       0.007906       12.0107           0
      4116 SHT      4116     S        C        CA       0.007906       12.0107           0
      4117 SHT      4117     S        C        CA       0.007906       12.0107           0
      4118 SHT      4118     S        C        CA       0.007906       12.0107           0
      4119 SHT      4119     S        C        CA       0.007906       12.0107           0
      4120 SHT      4120     S        C        CA       0.007906       12.0107           0
      4121 SHT      4121     S        C        CA       0.007906       12.0107           0
      4122 SHT      4122     S        C        CA       0.007906       12.0107           0
      4123 SHT      4123     S        C        CA       0.007906       12.0107           0
      4124 SHT      4124     S        C        CA       0.007906       12.0107           0
      4125 SHT      4125     S        C        CA       0.007906       12.0107           0
      4126 SHT      4126     S        C        CA       0.007906       12.0107           0
      4127 SHT      4127     S        C        CA       0.007906       12.0107           0
      4128 SHT      4128     S        C        CA       0.007906       12.0107           0
      4129 SHT      4129     S        C        CA       0.007906       12.0107           0
      4130 SHT      4130     S        C        CA       0.007906       12.0107           0
      4131 SHT      4131     S        C        CA       0.007906       12.0107           0
      4132 SHT      4132     S        C        CA       0.007906       12.0107           0
      4133 SHT      4133     S        C        CA       0.007906       12.0107           0
      4134 SHT      4134     S        C        CA       0.007906       12.0107           0
      4135 SHT      4135     S        C        CA       0.007906       12.0107           0
      4136 SHT      4136     S        C        CA       0.007906       12.0107           0
      4137 SHT      4137     S        C        CA       0.007906       12.0107           0
      4138 SHT      4138     S        C        CA       0.007906       12.0107           0
      4139 SHT      4139     S        C        CA       0.007906       12.0107           0
      4140 SHT      4140     S        C        CA       0.007906       12.0107           0
      4141 SHT      4141     S        C        CA       0.007906       12.0107           0
      4142 SHT      4142     S        C        CA       0.007906       12.0107           0
      4143 SHT      4143     S        C        CA       0.007906       12.0107           0
      4144 SHT      4144     S        C        CA       0.007906       12.0107           0
      4145 SHT      4145     S        C        CA       0.007906       12.0107           0
      4146 SHT      4146     S        C        CA       0.007906       12.0107           0
      4147 SHT      4147     S        C        CA       0.007906       12.0107           0
      4148 SHT      4148     S        C        CA       0.007906       12.0107           0
      4149 SHT      4149     S        C        CA       0.007906       12.0107           0
      4150 SHT      4150     S        C        CA       0.007906       12.0107           0
      4151 SHT      4151     S        C        CA       0.007906       12.0107           0
      4152 SHT      4152     S        C        CA       0.007906       12.0107           0
      4153 SHT      4153     S        C        CA       0.007906       12.0107           0
      4154 SHT      4154     S        C        CA       0.007906       12.0107           0
      4155 SHT      4155     S        C        CA       0.007906       12.0107           0
      4156 SHT      4156     S        C        CA       0.007906       12.0107           0
      4157 SHT      4157     S        C        CA       0.007906       12.0107           0
      4158 SHT      4158     S        C        CA       0.007906       12.0107           0
      4159 SHT      4159     S        C        CA       0.007906       12.0107           0
      4160 SHT      4160     S        C        CA       0.007906       12.0107           0
      4161 SHT      4161     S        C        CA       0.007906       12.0107           0
      4162 SHT      4162     S        C        CA       0.007906       12.0107           0
      4163 SHT      4163     S        C        CA       0.007906       12.0107           0
      4164 SHT      4164     S        C        CA       0.007906       12.0107           0
      4165 SHT      4165     S        C        CA       0.007906       12.0107           0
      4166 SHT      4166     S        C        CA       0.007906       12.0107           0
      4167 SHT      4167     S        C        CA       0.007906       12.0107           0
      4168 SHT      4168     S        C        CA       0.007906       12.0107           0
      4169 SHT      4169     S        C        CA       0.007906       12.0107           0
      4170 SHT      4170     S        C        CA       0.007906       12.0107           0
      4171 SHT      4171     S        C        CA       0.007906       12.0107           0
      4172 SHT      4172     S        C        CA       0.007906       12.0107           0
      4173 SHT      4173     S        C        CA       0.007906       12.0107           0
      4174 SHT      4174     S        C        CA       0.007906       12.0107           0
      4175 SHT      4175     S        C        CA       0.007906       12.0107           0
      4176 SHT      4176     S        C        CA       0.007906       12.0107           0
      4177 SHT      4177     S        C        CA       0.007906       12.0107           0
      4178 SHT      4178     S        C        CA       0.007906       12.0107           0
      4179 SHT      4179     S        C        CA       0.007906       12.0107           0
      4180 SHT      4180     S        C        CA       0.007906       12.0107           0
      4181 SHT      4181     S        C        CA       0.007906       12.0107           0
      4182 SHT      4182     S        C        CA       0.007906       12.0107           0
      4183 SHT      4183     S        C        CA       0.007906       12.0107           0
      4184 SHT      4184     S        C        CA       0.007906       12.0107           0
      4185 SHT      4185     S        C        CA       0.007906       12.0107           0
      4186 SHT      4186     S        C        CA       0.007906       12.0107           0
      4187 SHT      4187     S        C        CA       0.007906       12.0107           0
      4188 SHT      4188     S        C        CA       0.007906       12.0107           0
      4189 SHT      4189     S        C        CA       0.007906       12.0107           0
      4190 SHT      4190     S        C        CA       0.007906       12.0107           0
      4191 SHT      4191     S        C        CA       0.007906       12.0107           0
      4192 SHT      4192     S        C        CA       0.007906       12.0107           0
      4193 SHT      4193     S        C        CA       0.007906       12.0107           0
      4194 SHT      4194     S        C        CA       0.007906       12.0107           0
      4195 SHT      4195     S        C        CA       0.007906       12.0107           0
      4196 SHT      4196     S        C        CA       0.007906       12.0107           0
      4197 SHT      4197     S        C        CA       0.007906       12.0107           0
      4198 SHT      4198     S        C        CA       0.007906       12.0107           0
      4199 SHT      4199     S        C        CA       0.007906       12.0107           0
      4200 SHT      4200     S        C        CA       0.007906       12.0107           0
      4201 SHT      4201     S        C        CA       0.007906       12.0107           0
      4202 SHT      4202     S        C        CA       0.007906       12.0107           0
      4203 SHT      4203     S        C        CA       0.007906       12.0107           0
      4204 SHT      4204     S        C        CA       0.007906       12.0107           0
      4205 SHT      4205     S        C        CA       0.007906       12.0107           0
      4206 SHT      4206     S        C        CA       0.007906       12.0107           0
      4207 SHT      4207     S        C        CA       0.007906       12.0107           0
      4208 SHT      4208     S        C        CA       0.007906       12.0107           0
      4209 SHT      4209     S        C        CA       0.007906       12.0107           0
      4210 SHT      4210     S        C        CA       0.007906       12.0107           0
      4211 SHT      4211     S        C        CA       0.007906       12.0107           0
      4212 SHT      4212     S        C        CA       0.007906       12.0107           0
      4213 SHT      4213     S        C        CA       0.007906       12.0107           0
      4214 SHT      4214     S        C        CA       0.007906       12.0107           0
      4215 SHT      4215     S        C        CA       0.007906       12.0107           0
      4216 SHT      4216     S        C        CA       0.007906       12.0107           0
      4217 SHT      4217     S        C        CA       0.007906       12.0107           0
      4218 SHT      4218     S        C        CA       0.007906       12.0107           0
      4219 SHT      4219     S        C        CA       0.007906       12.0107           0
      4220 SHT      4220     S        C        CA       0.007906       12.0107           0
      4221 SHT      4221     S        C        CA       0.007906       12.0107           0
      4222 SHT      4222     S        C        CA       0.007906       12.0107           0
      4223 SHT      4223     S        C        CA       0.007906       12.0107           0
      4224 SHT      4224     S        C        CA       0.007906       12.0107           0
      4225 SHT      4225     S        C        CA       0.007906       12.0107           0
      4226 SHT      4226     S        C        CA       0.007906       12.0107           0
      4227 SHT      4227     S        C        CA       0.007906       12.0107           0
      4228 SHT      4228     S        C        CA       0.007906       12.0107           0
      4229 SHT      4229     S        C        CA       0.007906       12.0107           0
      4230 SHT      4230     S        C        CA       0.007906       12.0107           0
      4231 SHT      4231     S        C        CA       0.007906       12.0107           0
      4232 SHT      4232     S        C        CA       0.007906       12.0107           0
      4233 SHT      4233     S        C        CA       0.007906       12.0107           0
      4234 SHT      4234     S        C        CA       0.007906       12.0107           0
      4235 SHT      4235     S        C        CA       0.007906       12.0107           0
      4236 SHT      4236     S        C        CA       0.007906       12.0107           0
      4237 SHT      4237     S        C        CA       0.007906       12.0107           0
      4238 SHT      4238     S        C        CA       0.007906       12.0107           0
      4239 SHT      4239     S        C        CA       0.007906       12.0107           0
      4240 SHT      4240     S        C        CA       0.007906       12.0107           0
      4241 SHT      4241     S        C        CA       0.007906       12.0107           0
      4242 SHT      4242     S        C        CA       0.007906       12.0107           0
      4243 SHT      4243     S        C        CA       0.007906       12.0107           0
      4244 SHT      4244     S        C        CA       0.007906       12.0107           0
      4245 SHT      4245     S        C        CA       0.007906       12.0107           0
      4246 SHT      4246     S        C        CA       0.007906       12.0107           0
      4247 SHT      4247     S        C        CA       0.007906       12.0107           0
      4248 SHT      4248     S        C        CA       0.007906       12.0107           0
      4249 SHT      4249     S        C        CA       0.007906       12.0107           0
      4250 SHT      4250     S        C        CA       0.007906       12.0107           0
      4251 SHT      4251     S        C        CA       0.007906       12.0107           0
      4252 SHT      4252     S        C        CA       0.007906       12.0107           0
      4253 SHT      4253     S        C        CA       0.007906       12.0107           0
      4254 SHT      4254     S        C        CA       0.007906       12.0107           0
      4255 SHT      4255     S        C        CA       0.007906       12.0107           0
      4256 SHT      4256     S        C        CA       0.007906       12.0107           0
      4257 SHT      4257     S        C        CA       0.007906       12.0107           0
      4258 SHT      4258     S        C        CA       0.007906       12.0107           0
      4259 SHT      4259     S        C        CA       0.007906       12.0107           0
      4260 SHT      4260     S        C        CA       0.007906       12.0107           0
      4261 SHT      4261     S        C        CA       0.007906       12.0107           0
      4262 SHT      4262     S        C        CA       0.007906       12.0107           0
      4263 SHT      4263     S        C        CA       0.007906       12.0107           0
      4264 SHT      4264     S        C        CA       0.007906       12.0107           0
      4265 SHT      4265     S        C        CA       0.007906       12.0107           0
      4266 SHT      4266     S        C        CA       0.007906       12.0107           0
      4267 SHT      4267     S        C        CA       0.007906       12.0107           0
      4268 SHT      4268     S        C        CA       0.007906       12.0107           0
      4269 SHT      4269     S        C        CA       0.007906       12.0107           0
      4270 SHT      4270     S        C        CA       0.007906       12.0107           0
      4271 SHT      4271     S        C        CA       0.007906       12.0107           0
      4272 SHT      4272     S        C        CA       0.007906       12.0107           0
      4273 SHT      4273     S        C        CA       0.007906       12.0107           0
      4274 SHT      4274     S        C        CA       0.007906       12.0107           0
      4275 SHT      4275     S        C        CA       0.007906       12.0107           0
      4276 SHT      4276     S        C        CA       0.007906       12.0107           0
      4277 SHT      4277     S        C        CA       0.007906       12.0107           0
      4278 SHT      4278     S        C        CA       0.007906       12.0107           0
      4279 SHT      4279     S        C        CA       0.007906       12.0107           0
      4280 SHT      4280     S        C        CA       0.007906       12.0107           0
      4281 SHT      4281     S        C        CA       0.007906       12.0107           0
      4282 SHT      4282     S        C        CA       0.007906       12.0107           0
      4283 SHT      4283     S        C        CA       0.007906       12.0107           0
      4284 SHT      4284     S        C        CA       0.007906       12.0107           0
      4285 SHT      4285     S        C        CA       0.007906       12.0107           0
      4286 SHT      4286     S        C        CA       0.007906       12.0107           0
      4287 SHT      4287     S        C        CA       0.007906       12.0107           0
      4288 SHT      4288     S        C        CA       0.007906       12.0107           0
      4289 SHT      4289     S        C        CA       0.007906       12.0107           0
      4290 SHT      4290     S        C        CA       0.007906       12.0107           0
      4291 SHT      4291     S        C        CA       0.007906       12.0107           0
      4292 SHT      4292     S        C        CA       0.007906       12.0107           0
      4293 SHT      4293     S        C        CA       0.007906       12.0107           0
      4294 SHT      4294     S        C        CA       0.007906       12.0107           0
      4295 SHT      4295     S        C        CA       0.007906       12.0107           0
      4296 SHT      4296     S        C        CA       0.007906       12.0107           0
      4297 SHT      4297     S        C        CA       0.007906       12.0107           0
      4298 SHT      4298     S        C        CA       0.007906       12.0107           0
      4299 SHT      4299     S        C        CA       0.007906       12.0107           0
      4300 SHT      4300     S        C        CA       0.007906       12.0107           0
      4301 SHT      4301     S        C        CA       0.007906       12.0107           0
      4302 SHT      4302     S        C        CA       0.007906       12.0107           0
      4303 SHT      4303     S        C        CA       0.007906       12.0107           0
      4304 SHT      4304     S        C        CA       0.007906       12.0107           0
      4305 SHT      4305     S        C        CA       0.007906       12.0107           0
      4306 SHT      4306     S        C        CA       0.007906       12.0107           0
      4307 SHT      4307     S        C        CA       0.007906       12.0107           0
      4308 SHT      4308     S        C        CA       0.007906       12.0107           0
      4309 SHT      4309     S        C        CA       0.007906       12.0107           0
      4310 SHT      4310     S        C        CA       0.007906       12.0107           0
      4311 SHT      4311     S        C        CA       0.007906       12.0107           0
      4312 SHT      4312     S        C        CA       0.007906       12.0107           0
      4313 SHT      4313     S        C        CA       0.007906       12.0107           0
      4314 SHT      4314     S        C        CA       0.007906       12.0107           0
      4315 SHT      4315     S        C        CA       0.007906       12.0107           0
      4316 SHT      4316     S        C        CA       0.007906       12.0107           0
      4317 SHT      4317     S        C        CA       0.007906       12.0107           0
      4318 SHT      4318     S        C        CA       0.007906       12.0107           0
      4319 SHT      4319     S        C        CA       0.007906       12.0107           0
      4320 SHT      4320     S        C        CA       0.007906       12.0107           0
      4321 SHT      4321     S        C        CA       0.007906       12.0107           0
      4322 SHT      4322     S        C        CA       0.007906       12.0107           0
      4323 SHT      4323     S        C        CA       0.007906       12.0107           0
      4324 SHT      4324     S        C        CA       0.007906       12.0107           0
      4325 SHT      4325     S        C        CA       0.007906       12.0107           0
      4326 SHT      4326     S        C        CA       0.007906       12.0107           0
      4327 SHT      4327     S        C        CA       0.007906       12.0107           0
      4328 SHT      4328     S        C        CA       0.007906       12.0107           0
      4329 SHT      4329     S        C        CA       0.007906       12.0107           0
      4330 SHT      4330     S        C        CA       0.007906       12.0107           0
      4331 SHT      4331     S        C        CA       0.007906       12.0107           0
      4332 SHT      4332     S        C        CA       0.007906       12.0107           0
      4333 SHT      4333     S        C        CA       0.007906       12.0107           0
      4334 SHT      4334     S        C        CA       0.007906       12.0107           0
      4335 SHT      4335     S        C        CA       0.007906       12.0107           0
      4336 SHT      4336     S        C        CA       0.007906       12.0107           0
      4337 SHT      4337     S        C        CA       0.007906       12.0107           0
      4338 SHT      4338     S        C        CA       0.007906       12.0107           0
      4339 SHT      4339     S        C        CA       0.007906       12.0107           0
      4340 SHT      4340     S        C        CA       0.007906       12.0107           0
      4341 SHT      4341     S        C        CA       0.007906       12.0107           0
      4342 SHT      4342     S        C        CA       0.007906       12.0107           0
      4343 SHT      4343     S        C        CA       0.007906       12.0107           0
      4344 SHT      4344     S        C        CA       0.007906       12.0107           0
      4345 SHT      4345     S        C        CA       0.007906       12.0107           0
      4346 SHT      4346     S        C        CA       0.007906       12.0107           0
      4347 SHT      4347     S        C        CA       0.007906       12.0107           0
      4348 SHT      4348     S        C        CA       0.007906       12.0107           0
      4349 SHT      4349     S        C        CA       0.007906       12.0107           0
      4350 SHT      4350     S        C        CA       0.007906       12.0107           0
      4351 SHT      4351     S        C        CA       0.007906       12.0107           0
      4352 SHT      4352     S        C        CA       0.007906       12.0107           0
      4353 SHT      4353     S        C        CA       0.007906       12.0107           0
      4354 SHT      4354     S        C        CA       0.007906       12.0107           0
      4355 SHT      4355     S        C        CA       0.007906       12.0107           0
      4356 SHT      4356     S        C        CA       0.007906       12.0107           0
      4357 SHT      4357     S        C        CA       0.007906       12.0107           0
      4358 SHT      4358     S        C        CA       0.007906       12.0107           0
      4359 SHT      4359     S        C        CA       0.007906       12.0107           0
      4360 SHT      4360     S        C        CA       0.007906       12.0107           0
      4361 SHT      4361     S        C        CA       0.007906       12.0107           0
      4362 SHT      4362     S        C        CA       0.007906       12.0107           0
      4363 SHT      4363     S        C        CA       0.007906       12.0107           0
      4364 SHT      4364     S        C        CA       0.007906       12.0107           0
      4365 SHT      4365     S        C        CA       0.007906       12.0107           0
      4366 SHT      4366     S        C        CA       0.007906       12.0107           0
      4367 SHT      4367     S        C        CA       0.007906       12.0107           0
      4368 SHT      4368     S        C        CA       0.007906       12.0107           0
      4369 SHT      4369     S        C        CA       0.007906       12.0107           0
      4370 SHT      4370     S        C        CA       0.007906       12.0107           0
      4371 SHT      4371     S        C        CA       0.007906       12.0107           0
      4372 SHT      4372     S        C        CA       0.007906       12.0107           0
      4373 SHT      4373     S        C        CA       0.007906       12.0107           0
      4374 SHT      4374     S        C        CA       0.007906       12.0107           0
      4375 SHT      4375     S        C        CA       0.007906       12.0107           0
      4376 SHT      4376     S        C        CA       0.007906       12.0107           0
      4377 SHT      4377     S        C        CA       0.007906       12.0107           0
      4378 SHT      4378     S        C        CA       0.007906       12.0107           0
      4379 SHT      4379     S        C        CA       0.007906       12.0107           0
      4380 SHT      4380     S        C        CA       0.007906       12.0107           0
      4381 SHT      4381     S        C        CA       0.007906       12.0107           0
      4382 SHT      4382     S        C        CA       0.007906       12.0107           0
      4383 SHT      4383     S        C        CA       0.007906       12.0107           0
      4384 SHT      4384     S        C        CA       0.007906       12.0107           0
      4385 SHT      4385     S        C        CA       0.007906       12.0107           0
      4386 SHT      4386     S        C        CA       0.007906       12.0107           0
      4387 SHT      4387     S        C        CA       0.007906       12.0107           0
      4388 SHT      4388     S        C        CA       0.007906       12.0107           0
      4389 SHT      4389     S        C        CA       0.007906       12.0107           0
      4390 SHT      4390     S        C        CA       0.007906       12.0107           0
      4391 SHT      4391     S        C        CA       0.007906       12.0107           0
      4392 SHT      4392     S        C        CA       0.007906       12.0107           0
      4393 SHT      4393     S        C        CA       0.007906       12.0107           0
      4394 SHT      4394     S        C        CA       0.007906       12.0107           0
      4395 SHT      4395     S        C        CA       0.007906       12.0107           0
      4396 SHT      4396     S        C        CA       0.007906       12.0107           0
      4397 SHT      4397     S        C        CA       0.007906       12.0107           0
      4398 SHT      4398     S        C        CA       0.007906       12.0107           0
      4399 SHT      4399     S        C        CA       0.007906       12.0107           0
      4400 SHT      4400     S        C        CA       0.007906       12.0107           0
      4401 SHT      4401     S        C        CA       0.007906       12.0107           0
      4402 SHT      4402     S        C        CA       0.007906       12.0107           0
      4403 SHT      4403     S        C        CA       0.007906       12.0107           0
      4404 SHT      4404     S        C        CA       0.007906       12.0107           0
      4405 SHT      4405     S        C        CA       0.007906       12.0107           0
      4406 SHT      4406     S        C        CA       0.007906       12.0107           0
      4407 SHT      4407     S        C        CA       0.007906       12.0107           0
      4408 SHT      4408     S        C        CA       0.007906       12.0107           0
      4409 SHT      4409     S        C        CA       0.007906       12.0107           0
      4410 SHT      4410     S        C        CA       0.007906       12.0107           0
      4411 SHT      4411     S        C        CA       0.007906       12.0107           0
      4412 SHT      4412     S        C        CA       0.007906       12.0107           0
      4413 SHT      4413     S        C        CA       0.007906       12.0107           0
      4414 SHT      4414     S        C        CA       0.007906       12.0107           0
      4415 SHT      4415     S        C        CA       0.007906       12.0107           0
      4416 SHT      4416     S        C        CA       0.007906       12.0107           0
      4417 SHT      4417     S        C        CA       0.007906       12.0107           0
      4418 SHT      4418     S        C        CA       0.007906       12.0107           0
      4419 SHT      4419     S        C        CA       0.007906       12.0107           0
      4420 SHT      4420     S        C        CA       0.007906       12.0107           0
      4421 SHT      4421     S        C        CA       0.007906       12.0107           0
      4422 SHT      4422     S        C        CA       0.007906       12.0107           0
      4423 SHT      4423     S        C        CA       0.007906       12.0107           0
      4424 SHT      4424     S        C        CA       0.007906       12.0107           0
      4425 SHT      4425     S        C        CA       0.007906       12.0107           0
      4426 SHT      4426     S        C        CA       0.007906       12.0107           0
      4427 SHT      4427     S        C        CA       0.007906       12.0107           0
      4428 SHT      4428     S        C        CA       0.007906       12.0107           0
      4429 SHT      4429     S        C        CA       0.007906       12.0107           0
      4430 SHT      4430     S        C        CA       0.007906       12.0107           0
      4431 SHT      4431     S        C        CA       0.007906       12.0107           0
      4432 SHT      4432     S        C        CA       0.007906       12.0107           0
      4433 SHT      4433     S        C        CA       0.007906       12.0107           0
      4434 SHT      4434     S        C        CA       0.007906       12.0107           0
      4435 SHT      4435     S        C        CA       0.007906       12.0107           0
      4436 SHT      4436     S        C        CA       0.007906       12.0107           0
      4437 SHT      4437     S        C        CA       0.007906       12.0107           0
      4438 SHT      4438     S        C        CA       0.007906       12.0107           0
      4439 SHT      4439     S        C        CA       0.007906       12.0107           0
      4440 SHT      4440     S        C        CA       0.007906       12.0107           0
      4441 SHT      4441     S        C        CA       0.007906       12.0107           0
      4442 SHT      4442     S        C        CA       0.007906       12.0107           0
      4443 SHT      4443     S        C        CA       0.007906       12.0107           0
      4444 SHT      4444     S        C        CA       0.007906       12.0107           0
      4445 SHT      4445     S        C        CA       0.007906       12.0107           0
      4446 SHT      4446     S        C        CA       0.007906       12.0107           0
      4447 SHT      4447     S        C        CA       0.007906       12.0107           0
      4448 SHT      4448     S        C        CA       0.007906       12.0107           0
      4449 SHT      4449     S        C        CA       0.007906       12.0107           0
      4450 SHT      4450     S        C        CA       0.007906       12.0107           0
      4451 SHT      4451     S        C        CA       0.007906       12.0107           0
      4452 SHT      4452     S        C        CA       0.007906       12.0107           0
      4453 SHT      4453     S        C        CA       0.007906       12.0107           0
      4454 SHT      4454     S        C        CA       0.007906       12.0107           0
      4455 SHT      4455     S        C        CA       0.007906       12.0107           0
      4456 SHT      4456     S        C        CA       0.007906       12.0107           0
      4457 SHT      4457     S        C        CA       0.007906       12.0107           0
      4458 SHT      4458     S        C        CA       0.007906       12.0107           0
      4459 SHT      4459     S        C        CA       0.007906       12.0107           0
      4460 SHT      4460     S        C        CA       0.007906       12.0107           0
      4461 SHT      4461     S        C        CA       0.007906       12.0107           0
      4462 SHT      4462     S        C        CA       0.007906       12.0107           0
      4463 SHT      4463     S        C        CA       0.007906       12.0107           0
      4464 SHT      4464     S        C        CA       0.007906       12.0107           0
      4465 SHT      4465     S        C        CA       0.007906       12.0107           0
      4466 SHT      4466     S        C        CA       0.007906       12.0107           0
      4467 SHT      4467     S        C        CA       0.007906       12.0107           0
      4468 SHT      4468     S        C        CA       0.007906       12.0107           0
      4469 SHT      4469     S        C        CA       0.007906       12.0107           0
      4470 SHT      4470     S        C        CA       0.007906       12.0107           0
      4471 SHT      4471     S        C        CA       0.007906       12.0107           0
      4472 SHT      4472     S        C        CA       0.007906       12.0107           0
      4473 SHT      4473     S        C        CA       0.007906       12.0107           0
      4474 SHT      4474     S        C        CA       0.007906       12.0107           0
      4475 SHT      4475     S        C        CA       0.007906       12.0107           0
      4476 SHT      4476     S        C        CA       0.007906       12.0107           0
      4477 SHT      4477     S        C        CA       0.007906       12.0107           0
      4478 SHT      4478     S        C        CA       0.007906       12.0107           0
      4479 SHT      4479     S        C        CA       0.007906       12.0107           0
      4480 SHT      4480     S        C        CA       0.007906       12.0107           0
      4481 SHT      4481     S        C        CA       0.007906       12.0107           0
      4482 SHT      4482     S        C        CA       0.007906       12.0107           0
      4483 SHT      4483     S        C        CA       0.007906       12.0107           0
      4484 SHT      4484     S        C        CA       0.007906       12.0107           0
      4485 SHT      4485     S        C        CA       0.007906       12.0107           0
      4486 SHT      4486     S        C        CA       0.007906       12.0107           0
      4487 SHT      4487     S        C        CA       0.007906       12.0107           0
      4488 SHT      4488     S        C        CA       0.007906       12.0107           0
      4489 SHT      4489     S        C        CA       0.007906       12.0107           0
      4490 SHT      4490     S        C        CA       0.007906       12.0107           0
      4491 SHT      4491     S        C        CA       0.007906       12.0107           0
      4492 SHT      4492     S        C        CA       0.007906       12.0107           0
      4493 SHT      4493     S        C        CA       0.007906       12.0107           0
      4494 SHT      4494     S        C        CA       0.007906       12.0107           0
      4495 SHT      4495     S        C        CA       0.007906       12.0107           0
      4496 SHT      4496     S        C        CA       0.007906       12.0107           0
      4497 SHT      4497     S        C        CA       0.007906       12.0107           0
      4498 SHT      4498     S        C        CA       0.007906       12.0107           0
      4499 SHT      4499     S        C        CA       0.007906       12.0107           0
      4500 SHT      4500     S        C        CA       0.007906       12.0107           0
      4501 SHT      4501     S        C        CA       0.007906       12.0107           0
      4502 SHT      4502     S        C        CA       0.007906       12.0107           0
      4503 SHT      4503     S        C        CA       0.007906       12.0107           0
      4504 SHT      4504     S        C        CA       0.007906       12.0107           0
      4505 SHT      4505     S        C        CA       0.007906       12.0107           0
      4506 SHT      4506     S        C        CA       0.007906       12.0107           0
      4507 SHT      4507     S        C        CA       0.007906       12.0107           0
      4508 SHT      4508     S        C        CA       0.007906       12.0107           0
      4509 SHT      4509     S        C        CA       0.007906       12.0107           0
      4510 SHT      4510     S        C        CA       0.007906       12.0107           0
      4511 SHT      4511     S        C        CA       0.007906       12.0107           0
      4512 SHT      4512     S        C        CA       0.007906       12.0107           0
      4513 SHT      4513     S        C        CA       0.007906       12.0107           0
      4514 SHT      4514     S        C        CA       0.007906       12.0107           0
      4515 SHT      4515     S        C        CA       0.007906       12.0107           0
      4516 SHT      4516     S        C        CA       0.007906       12.0107           0
      4517 SHT      4517     S        C        CA       0.007906       12.0107           0
      4518 SHT      4518     S        C        CA       0.007906       12.0107           0
      4519 SHT      4519     S        C        CA       0.007906       12.0107           0
      4520 SHT      4520     S        C        CA       0.007906       12.0107           0
      4521 SHT      4521     S        C        CA       0.007906       12.0107           0
      4522 SHT      4522     S        C        CA       0.007906       12.0107           0
      4523 SHT      4523     S        C        CA       0.007906       12.0107           0
      4524 SHT      4524     S        C        CA       0.007906       12.0107           0
      4525 SHT      4525     S        C        CA       0.007906       12.0107           0
      4526 SHT      4526     S        C        CA       0.007906       12.0107           0
      4527 SHT      4527     S        C        CA       0.007906       12.0107           0
      4528 SHT      4528     S        C        CA       0.007906       12.0107           0
      4529 SHT      4529     S        C        CA       0.007906       12.0107           0
      4530 SHT      4530     S        C        CA       0.007906       12.0107           0
      4531 SHT      4531     S        C        CA       0.007906       12.0107           0
      4532 SHT      4532     S        C        CA       0.007906       12.0107           0
      4533 SHT      4533     S        C        CA       0.007906       12.0107           0
      4534 SHT      4534     S        C        CA       0.007906       12.0107           0
      4535 SHT      4535     S        C        CA       0.007906       12.0107           0
      4536 SHT      4536     S        C        CA       0.007906       12.0107           0
      4537 SHT      4537     S        C        CA       0.007906       12.0107           0
      4538 SHT      4538     S        C        CA       0.007906       12.0107           0
      4539 SHT      4539     S        C        CA       0.007906       12.0107           0
      4540 SHT      4540     S        C        CA       0.007906       12.0107           0
      4541 SHT      4541     S        C        CA       0.007906       12.0107           0
      4542 SHT      4542     S        C        CA       0.007906       12.0107           0
      4543 SHT      4543     S        C        CA       0.007906       12.0107           0
      4544 SHT      4544     S        C        CA       0.007906       12.0107           0
      4545 SHT      4545     S        C        CA       0.007906       12.0107           0
      4546 SHT      4546     S        C        CA       0.007906       12.0107           0
      4547 SHT      4547     S        C        CA       0.007906       12.0107           0
      4548 SHT      4548     S        C        CA       0.007906       12.0107           0
      4549 SHT      4549     S        C        CA       0.007906       12.0107           0
      4550 SHT      4550     S        C        CA       0.007906       12.0107           0
      4551 SHT      4551     S        C        CA       0.007906       12.0107           0
      4552 SHT      4552     S        C        CA       0.007906       12.0107           0
      4553 SHT      4553     S        C        CA       0.007906       12.0107           0
      4554 SHT      4554     S        C        CA       0.007906       12.0107           0
      4555 SHT      4555     S        C        CA       0.007906       12.0107           0
      4556 SHT      4556     S        C        CA       0.007906       12.0107           0
      4557 SHT      4557     S        C        CA       0.007906       12.0107           0
      4558 SHT      4558     S        C        CA       0.007906       12.0107           0
      4559 SHT      4559     S        C        CA       0.007906       12.0107           0
      4560 SHT      4560     S        C        CA       0.007906       12.0107           0
      4561 SHT      4561     S        C        CA       0.007906       12.0107           0
      4562 SHT      4562     S        C        CA       0.007906       12.0107           0
      4563 SHT      4563     S        C        CA       0.007906       12.0107           0
      4564 SHT      4564     S        C        CA       0.007906       12.0107           0
      4565 SHT      4565     S        C        CA       0.007906       12.0107           0
      4566 SHT      4566     S        C        CA       0.007906       12.0107           0
      4567 SHT      4567     S        C        CA       0.007906       12.0107           0
      4568 SHT      4568     S        C        CA       0.007906       12.0107           0
      4569 SHT      4569     S        C        CA       0.007906       12.0107           0
      4570 SHT      4570     S        C        CA       0.007906       12.0107           0
      4571 SHT      4571     S        C        CA       0.007906       12.0107           0
      4572 SHT      4572     S        C        CA       0.007906       12.0107           0
      4573 SHT      4573     S        C        CA       0.007906       12.0107           0
      4574 SHT      4574     S        C        CA       0.007906       12.0107           0
      4575 SHT      4575     S        C        CA       0.007906       12.0107           0
      4576 SHT      4576     S        C        CA       0.007906       12.0107           0
      4577 SHT      4577     S        C        CA       0.007906       12.0107           0
      4578 SHT      4578     S        C        CA       0.007906       12.0107           0
      4579 SHT      4579     S        C        CA       0.007906       12.0107           0
      4580 SHT      4580     S        C        CA       0.007906       12.0107           0
      4581 SHT      4581     S        C        CA       0.007906       12.0107           0
      4582 SHT      4582     S        C        CA       0.007906       12.0107           0
      4583 SHT      4583     S        C        CA       0.007906       12.0107           0
      4584 SHT      4584     S        C        CA       0.007906       12.0107           0
      4585 SHT      4585     S        C        CA       0.007906       12.0107           0
      4586 SHT      4586     S        C        CA       0.007906       12.0107           0
      4587 SHT      4587     S        C        CA       0.007906       12.0107           0
      4588 SHT      4588     S        C        CA       0.007906       12.0107           0
      4589 SHT      4589     S        C        CA       0.007906       12.0107           0
      4590 SHT      4590     S        C        CA       0.007906       12.0107           0
      4591 SHT      4591     S        C        CA       0.007906       12.0107           0
      4592 SHT      4592     S        C        CA       0.007906       12.0107           0
      4593 SHT      4593     S        C        CA       0.007906       12.0107           0
      4594 SHT      4594     S        C        CA       0.007906       12.0107           0
      4595 SHT      4595     S        C        CA       0.007906       12.0107           0
      4596 SHT      4596     S        C        CA       0.007906       12.0107           0
      4597 SHT      4597     S        C        CA       0.007906       12.0107           0
      4598 SHT      4598     S        C        CA       0.007906       12.0107           0
      4599 SHT      4599     S        C        CA       0.007906       12.0107           0
      4600 SHT      4600     S        C        CA       0.007906       12.0107           0
      4601 SHT      4601     S        C        CA       0.007906       12.0107           0
      4602 SHT      4602     S        C        CA       0.007906       12.0107           0
      4603 SHT      4603     S        C        CA       0.007906       12.0107           0
      4604 SHT      4604     S        C        CA       0.007906       12.0107           0
      4605 SHT      4605     S        C        CA       0.007906       12.0107           0
      4606 SHT      4606     S        C        CA       0.007906       12.0107           0
      4607 SHT      4607     S        C        CA       0.007906       12.0107           0
      4608 SHT      4608     S        C        CA       0.007906       12.0107           0
      4609 SHT      4609     S        C        CA       0.007906       12.0107           0
      4610 SHT      4610     S        C        CA       0.007906       12.0107           0
      4611 SHT      4611     S        C        CA       0.007906       12.0107           0
      4612 SHT      4612     S        C        CA       0.007906       12.0107           0
      4613 SHT      4613     S        C        CA       0.007906       12.0107           0
      4614 SHT      4614     S        C        CA       0.007906       12.0107           0
      4615 SHT      4615     S        C        CA       0.007906       12.0107           0
      4616 SHT      4616     S        C        CA       0.007906       12.0107           0
      4617 SHT      4617     S        C        CA       0.007906       12.0107           0
      4618 SHT      4618     S        C        CA       0.007906       12.0107           0
      4619 SHT      4619     S        C        CA       0.007906       12.0107           0
      4620 SHT      4620     S        C        CA       0.007906       12.0107           0
      4621 SHT      4621     S        C        CA       0.007906       12.0107           0
      4622 SHT      4622     S        C        CA       0.007906       12.0107           0
      4623 SHT      4623     S        C        CA       0.007906       12.0107           0
      4624 SHT      4624     S        C        CA       0.007906       12.0107           0
      4625 SHT      4625     S        C        CA       0.007906       12.0107           0
      4626 SHT      4626     S        C        CA       0.007906       12.0107           0
      4627 SHT      4627     S        C        CA       0.007906       12.0107           0
      4628 SHT      4628     S        C        CA       0.007906       12.0107           0
      4629 SHT      4629     S        C        CA       0.007906       12.0107           0
      4630 SHT      4630     S        C        CA       0.007906       12.0107           0
      4631 SHT      4631     S        C        CA       0.007906       12.0107           0
      4632 SHT      4632     S        C        CA       0.007906       12.0107           0
      4633 SHT      4633     S        C        CA       0.007906       12.0107           0
      4634 SHT      4634     S        C        CA       0.007906       12.0107           0
      4635 SHT      4635     S        C        CA       0.007906       12.0107           0
      4636 SHT      4636     S        C        CA       0.007906       12.0107           0
      4637 SHT      4637     S        C        CA       0.007906       12.0107           0
      4638 SHT      4638     S        C        CA       0.007906       12.0107           0
      4639 SHT      4639     S        C        CA       0.007906       12.0107           0
      4640 SHT      4640     S        C        CA       0.007906       12.0107           0
      4641 SHT      4641     S        C        CA       0.007906       12.0107           0
      4642 SHT      4642     S        C        CA       0.007906       12.0107           0
      4643 SHT      4643     S        C        CA       0.007906       12.0107           0
      4644 SHT      4644     S        C        CA       0.007906       12.0107           0
      4645 SHT      4645     S        C        CA       0.007906       12.0107           0
      4646 SHT      4646     S        C        CA       0.007906       12.0107           0
      4647 SHT      4647     S        C        CA       0.007906       12.0107           0
      4648 SHT      4648     S        C        CA       0.007906       12.0107           0
      4649 SHT      4649     S        C        CA       0.007906       12.0107           0
      4650 SHT      4650     S        C        CA       0.007906       12.0107           0
      4651 SHT      4651     S        C        CA       0.007906       12.0107           0
      4652 SHT      4652     S        C        CA       0.007906       12.0107           0
      4653 SHT      4653     S        C        CA       0.007906       12.0107           0
      4654 SHT      4654     S        C        CA       0.007906       12.0107           0
      4655 SHT      4655     S        C        CA       0.007906       12.0107           0
      4656 SHT      4656     S        C        CA       0.007906       12.0107           0
      4657 SHT      4657     S        C        CA       0.007906       12.0107           0
      4658 SHT      4658     S        C        CA       0.007906       12.0107           0
      4659 SHT      4659     S        C        CA       0.007906       12.0107           0
      4660 SHT      4660     S        C        CA       0.007906       12.0107           0
      4661 SHT      4661     S        C        CA       0.007906       12.0107           0
      4662 SHT      4662     S        C        CA       0.007906       12.0107           0
      4663 SHT      4663     S        C        CA       0.007906       12.0107           0
      4664 SHT      4664     S        C        CA       0.007906       12.0107           0
      4665 SHT      4665     S        C        CA       0.007906       12.0107           0
      4666 SHT      4666     S        C        CA       0.007906       12.0107           0
      4667 SHT      4667     S        C        CA       0.007906       12.0107           0
      4668 SHT      4668     S        C        CA       0.007906       12.0107           0
      4669 SHT      4669     S        C        CA       0.007906       12.0107           0
      4670 SHT      4670     S        C        CA       0.007906       12.0107           0
      4671 SHT      4671     S        C        CA       0.007906       12.0107           0
      4672 SHT      4672     S        C        CA       0.007906       12.0107           0
      4673 SHT      4673     S        C        CA       0.007906       12.0107           0
      4674 SHT      4674     S        C        CA       0.007906       12.0107           0
      4675 SHT      4675     S        C        CA       0.007906       12.0107           0
      4676 SHT      4676     S        C        CA       0.007906       12.0107           0
      4677 SHT      4677     S        C        CA       0.007906       12.0107           0
      4678 SHT      4678     S        C        CA       0.007906       12.0107           0
      4679 SHT      4679     S        C        CA       0.007906       12.0107           0
      4680 SHT      4680     S        C        CA       0.007906       12.0107           0
      4681 ION      1        SOD      SOD      SOD      1.000000       22.9898           0
      4682 ION      2        SOD      SOD      SOD      1.000000       22.9898           0
      4683 ION      3        SOD      SOD      SOD      1.000000       22.9898           0
      4684 ION      4        SOD      SOD      SOD      1.000000       22.9898           0
      4685 ION      5        SOD      SOD      SOD      1.000000       22.9898           0
      4686 ION      6        SOD      SOD      SOD      1.000000       22.9898           0
      4687 ION      7        SOD      SOD      SOD      1.000000       22.9898           0
      4688 ION      8        SOD      SOD      SOD      1.000000       22.9898           0
      4689 ION      9        SOD      SOD      SOD      1.000000       22.9898           0
      4690 ION      10       SOD      SOD      SOD      1.000000       22.9898           0
      4691 ION      11       SOD      SOD      SOD      1.000000       22.9898           0
      4692 ION      12       SOD      SOD      SOD      1.000000       22.9898           0
      4693 ION      13       SOD      SOD      SOD      1.000000       22.9898           0
      4694 ION      14       SOD      SOD      SOD      1.000000       22.9898           0
      4695 ION      15       SOD      SOD      SOD      1.000000       22.9898           0
      4696 ION      16       SOD      SOD      SOD      1.000000       22.9898           0
      4697 ION      17       SOD      SOD      SOD      1.000000       22.9898           0
      4698 ION      18       SOD      SOD      SOD      1.000000       22.9898           0
      4699 ION      19       SOD      SOD      SOD      1.000000       22.9898           0
      4700 ION      20       SOD      SOD      SOD      1.000000       22.9898           0
      4701 ION      21       SOD      SOD      SOD      1.000000       22.9898           0
      4702 ION      22       SOD      SOD      SOD      1.000000       22.9898           0
      4703 ION      23       SOD      SOD      SOD      1.000000       22.9898           0
      4704 ION      24       SOD      SOD      SOD      1.000000       22.9898           0
      4705 ION      25       SOD      SOD      SOD      1.000000       22.9898           0
      4706 ION      26       SOD      SOD      SOD      1.000000       22.9898           0
      4707 ION      27       SOD      SOD      SOD      1.000000       22.9898           0
      4708 ION      28       SOD      SOD      SOD      1.000000       22.9898           0
      4709 ION      29       SOD      SOD      SOD      1.000000       22.9898           0
      4710 ION      30       SOD      SOD      SOD      1.000000       22.9898           0
      4711 ION      31       SOD      SOD      SOD      1.000000       22.9898           0
      4712 ION      32       SOD      SOD      SOD      1.000000       22.9898           0
      4713 ION      33       SOD      SOD      SOD      1.000000       22.9898           0
      4714 ION      34       SOD      SOD      SOD      1.000000       22.9898           0
      4715 ION      35       SOD      SOD      SOD      1.000000       22.9898           0
      4716 ION      36       SOD      SOD      SOD      1.000000       22.9898           0
      4717 ION      37       SOD      SOD      SOD      1.000000       22.9898           0
      4718 ION      38       SOD      SOD      SOD      1.000000       22.9898           0
      4719 ION      39       SOD      SOD      SOD      1.000000       22.9898           0
      4720 ION      40       SOD      SOD      SOD      1.000000       22.9898           0
      4721 ION      41       SOD      SOD      SOD      1.000000       22.9898           0
      4722 ION      42       SOD      SOD      SOD      1.000000       22.9898           0
      4723 ION      43       SOD      SOD      SOD      1.000000       22.9898           0
      4724 ION      44       SOD      SOD      SOD      1.000000       22.9898           0
      4725 ION      45       SOD      SOD      SOD      1.000000       22.9898           0
      4726 ION      46       SOD      SOD      SOD      1.000000       22.9898           0
      4727 ION      47       SOD      SOD      SOD      1.000000       22.9898           0
      4728 ION      48       SOD      SOD      SOD      1.000000       22.9898           0
      4729 ION      49       SOD      SOD      SOD      1.000000       22.9898           0
      4730 ION      50       SOD      SOD      SOD      1.000000       22.9898           0
      4731 ION      51       SOD      SOD      SOD      1.000000       22.9898           0
      4732 ION      52       SOD      SOD      SOD      1.000000       22.9898           0
      4733 ION      53       SOD      SOD      SOD      1.000000       22.9898           0
      4734 ION      54       SOD      SOD      SOD      1.000000       22.9898           0
      4735 ION      55       SOD      SOD      SOD      1.000000       22.9898           0
      4736 ION      56       SOD      SOD      SOD      1.000000       22.9898           0
      4737 ION      57       SOD      SOD      SOD      1.000000       22.9898           0
      4738 ION      58       SOD      SOD      SOD      1.000000       22.9898           0
      4739 ION      59       SOD      SOD      SOD      1.000000       22.9898           0
      4740 ION      60       SOD      SOD      SOD      1.000000       22.9898           0
      4741 ION      61       SOD      SOD      SOD      1.000000       22.9898           0
      4742 ION      62       SOD      SOD      SOD      1.000000       22.9898           0
      4743 ION      63       SOD      SOD      SOD      1.000000       22.9898           0
      4744 ION      64       SOD      SOD      SOD      1.000000       22.9898           0
      4745 ION      65       SOD      SOD      SOD      1.000000       22.9898           0
      4746 ION      66       SOD      SOD      SOD      1.000000       22.9898           0
      4747 ION      67       SOD      SOD      SOD      1.000000       22.9898           0
      4748 ION      68       SOD      SOD      SOD      1.000000       22.9898           0
      4749 ION      69       SOD      SOD      SOD      1.000000       22.9898           0
      4750 ION      70       SOD      SOD      SOD      1.000000       22.9898           0
      4751 ION      71       SOD      SOD      SOD      1.000000       22.9898           0
      4752 ION      72       SOD      SOD      SOD      1.000000       22.9898           0
      4753 ION      73       SOD      SOD      SOD      1.000000       22.9898           0
      4754 ION      74       SOD      SOD      SOD      1.000000       22.9898           0
      4755 ION      75       SOD      SOD      SOD      1.000000       22.9898           0
      4756 ION      76       SOD      SOD      SOD      1.000000       22.9898           0
      4757 ION      77       SOD      SOD      SOD      1.000000       22.9898           0
      4758 ION      78       SOD      SOD      SOD      1.000000       22.9898           0
      4759 ION      79       SOD      SOD      SOD      1.000000       22.9898           0
      4760 ION      80       SOD      SOD      SOD      1.000000       22.9898           0
      4761 ION      81       SOD      SOD      SOD      1.000000       22.9898           0
      4762 ION      82       SOD      SOD      SOD      1.000000       22.9898           0
      4763 ION      83       SOD      SOD      SOD      1.000000       22.9898           0
      4764 ION      84       SOD      SOD      SOD      1.000000       22.9898           0
      4765 ION      85       SOD      SOD      SOD      1.000000       22.9898           0
      4766 ION      86       SOD      SOD      SOD      1.000000       22.9898           0
      4767 ION      87       SOD      SOD      SOD      1.000000       22.9898           0
      4768 ION      88       SOD      SOD      SOD      1.000000       22.9898           0
      4769 ION      89       SOD      SOD      SOD      1.000000       22.9898           0
      4770 ION      90       SOD      SOD      SOD      1.000000       22.9898           0
      4771 ION      91       SOD      SOD      SOD      1.000000       22.9898           0
      4772 ION      92       SOD      SOD      SOD      1.000000       22.9898           0
      4773 ION      93       SOD      SOD      SOD      1.000000       22.9898           0
      4774 ION      94       SOD      SOD      SOD      1.000000       22.9898           0
      4775 ION      95       SOD      SOD      SOD      1.000000       22.9898           0
      4776 ION      96       SOD      SOD      SOD      1.000000       22.9898           0
      4777 ION      97       SOD      SOD      SOD      1.000000       22.9898           0
      4778 ION      98       SOD      SOD      SOD      1.000000       22.9898           0
      4779 ION      99       SOD      SOD      SOD      1.000000       22.9898           0
      4780 ION      100      SOD      SOD      SOD      1.000000       22.9898           0
      4781 ION      101      SOD      SOD      SOD      1.000000       22.9898           0
      4782 ION      102      SOD      SOD      SOD      1.000000       22.9898           0
      4783 ION      103      SOD      SOD      SOD      1.000000       22.9898           0
      4784 ION      104      SOD      SOD      SOD      1.000000       22.9898           0
      4785 ION      105      SOD      SOD      SOD      1.000000       22.9898           0
      4786 ION      106      SOD      SOD      SOD      1.000000       22.9898           0
      4787 ION      107      SOD      SOD      SOD      1.000000       22.9898           0
      4788 ION      108      SOD      SOD      SOD      1.000000       22.9898           0
      4789 ION      109      SOD      SOD      SOD      1.000000       22.9898           0
      4790 ION      110      SOD      SOD      SOD      1.000000       22.9898           0
      4791 ION      111      SOD      SOD      SOD      1.000000       22.9898           0
      4792 ION      112      SOD      SOD      SOD      1.000000       22.9898           0
      4793 ION      113      SOD      SOD      SOD      1.000000       22.9898           0
      4794 ION      114      CLA      CLA      CLA     -1.000000       35.4500           0
      4795 ION      115      CLA      CLA      CLA     -1.000000       35.4500           0
      4796 ION      116      CLA      CLA      CLA     -1.000000       35.4500           0
      4797 ION      117      CLA      CLA      CLA     -1.000000       35.4500           0
      4798 ION      118      CLA      CLA      CLA     -1.000000       35.4500           0
      4799 ION      119      CLA      CLA      CLA     -1.000000       35.4500           0
      4800 ION      120      CLA      CLA      CLA     -1.000000       35.4500           0
      4801 ION      121      CLA      CLA      CLA     -1.000000       35.4500           0
      4802 ION      122      CLA      CLA      CLA     -1.000000       35.4500           0
      4803 ION      123      CLA      CLA      CLA     -1.000000       35.4500           0
      4804 ION      124      CLA      CLA      CLA     -1.000000       35.4500           0
      4805 ION      125      CLA      CLA      CLA     -1.000000       35.4500           0
      4806 ION      126      CLA      CLA      CLA     -1.000000       35.4500           0
      4807 ION      127      CLA      CLA      CLA     -1.000000       35.4500           0
      4808 ION      128      CLA      CLA      CLA     -1.000000       35.4500           0
      4809 ION      129      CLA      CLA      CLA     -1.000000       35.4500           0
      4810 ION      130      CLA      CLA      CLA     -1.000000       35.4500           0
      4811 ION      131      CLA      CLA      CLA     -1.000000       35.4500           0
      4812 ION      132      CLA      CLA      CLA     -1.000000       35.4500           0
      4813 ION      133      CLA      CLA      CLA     -1.000000       35.4500           0
      4814 ION      134      CLA      CLA      CLA     -1.000000       35.4500           0
      4815 ION      135      CLA      CLA      CLA     -1.000000       35.4500           0
      4816 ION      136      CLA      CLA      CLA     -1.000000       35.4500           0
      4817 ION      137      CLA      CLA      CLA     -1.000000       35.4500           0
      4818 ION      138      CLA      CLA      CLA     -1.000000       35.4500           0
      4819 ION      139      CLA      CLA      CLA     -1.000000       35.4500           0
      4820 ION      140      CLA      CLA      CLA     -1.000000       35.4500           0
      4821 ION      141      CLA      CLA      CLA     -1.000000       35.4500           0
      4822 ION      142      CLA      CLA      CLA     -1.000000       35.4500           0
      4823 ION      143      CLA      CLA      CLA     -1.000000       35.4500           0
      4824 ION      144      CLA      CLA      CLA     -1.000000       35.4500           0
      4825 ION      145      CLA      CLA      CLA     -1.000000       35.4500           0
      4826 ION      146      CLA      CLA      CLA     -1.000000       35.4500           0
      4827 ION      147      CLA      CLA      CLA     -1.000000       35.4500           0
      4828 ION      148      CLA      CLA      CLA     -1.000000       35.4500           0
      4829 ION      149      CLA      CLA      CLA     -1.000000       35.4500           0
      4830 ION      150      CLA      CLA      CLA     -1.000000       35.4500           0
      4831 ION      151      CLA      CLA      CLA     -1.000000       35.4500           0
      4832 ION      152      CLA      CLA      CLA     -1.000000       35.4500           0
      4833 ION      153      CLA      CLA      CLA     -1.000000       35.4500           0
      4834 ION      154      CLA      CLA      CLA     -1.000000       35.4500           0
      4835 ION      155      CLA      CLA      CLA     -1.000000       35.4500           0
      4836 ION      156      CLA      CLA      CLA     -1.000000       35.4500           0
      4837 ION      157      CLA      CLA      CLA     -1.000000       35.4500           0
      4838 ION      158      CLA      CLA      CLA     -1.000000       35.4500           0
      4839 ION      159      CLA      CLA      CLA     -1.000000       35.4500           0
      4840 ION      160      CLA      CLA      CLA     -1.000000       35.4500           0
      4841 ION      161      CLA      CLA      CLA     -1.000000       35.4500           0
      4842 ION      162      CLA      CLA      CLA     -1.000000       35.4500           0
      4843 ION      163      CLA      CLA      CLA     -1.000000       35.4500           0
      4844 ION      164      CLA      CLA      CLA     -1.000000       35.4500           0
      4845 ION      165      CLA      CLA      CLA     -1.000000       35.4500           0
      4846 ION      166      CLA      CLA      CLA     -1.000000       35.4500           0
      4847 ION      167      CLA      CLA      CLA     -1.000000       35.4500           0
      4848 ION      168      CLA      CLA      CLA     -1.000000       35.4500           0
      4849 ION      169      CLA      CLA      CLA     -1.000000       35.4500           0
      4850 ION      170      CLA      CLA      CLA     -1.000000       35.4500           0
      4851 ION      171      CLA      CLA      CLA     -1.000000       35.4500           0
      4852 ION      172      CLA      CLA      CLA     -1.000000       35.4500           0
      4853 ION      173      CLA      CLA      CLA     -1.000000       35.4500           0
      4854 ION      174      CLA      CLA      CLA     -1.000000       35.4500           0
      4855 ION      175      CLA      CLA      CLA     -1.000000       35.4500           0
      4856 ION      176      CLA      CLA      CLA     -1.000000       35.4500           0
      4857 ION      177      CLA      CLA      CLA     -1.000000       35.4500           0
      4858 ION      178      CLA      CLA      CLA     -1.000000       35.4500           0
      4859 ION      179      CLA      CLA      CLA     -1.000000       35.4500           0
      4860 ION      180      CLA      CLA      CLA     -1.000000       35.4500           0
      4861 ION      181      CLA      CLA      CLA     -1.000000       35.4500           0
      4862 ION      182      CLA      CLA      CLA     -1.000000       35.4500           0
      4863 ION      183      CLA      CLA      CLA     -1.000000       35.4500           0
      4864 ION      184      CLA      CLA      CLA     -1.000000       35.4500           0
      4865 ION      185      CLA      CLA      CLA     -1.000000       35.4500           0
      4866 ION      186      CLA      CLA      CLA     -1.000000       35.4500           0
      4867 ION      187      CLA      CLA      CLA     -1.000000       35.4500           0
      4868 ION      188      CLA      CLA      CLA     -1.000000       35.4500           0
      4869 ION      189      CLA      CLA      CLA     -1.000000       35.4500           0
      4870 ION      190      CLA      CLA      CLA     -1.000000       35.4500           0
      4871 ION      191      CLA      CLA      CLA     -1.000000       35.4500           0
      4872 ION      192      CLA      CLA      CLA     -1.000000       35.4500           0
      4873 ION      193      CLA      CLA      CLA     -1.000000       35.4500           0
      4874 ION      194      CLA      CLA      CLA     -1.000000       35.4500           0
      4875 ION      195      CLA      CLA      CLA     -1.000000       35.4500           0
      4876 ION      196      CLA      CLA      CLA     -1.000000       35.4500           0
      4877 ION      197      CLA      CLA      CLA     -1.000000       35.4500           0
      4878 ION      198      CLA      CLA      CLA     -1.000000       35.4500           0
      4879 ION      199      CLA      CLA      CLA     -1.000000       35.4500           0
      4880 ION      200      CLA      CLA      CLA     -1.000000       35.4500           0
      4881 ION      201      CLA      CLA      CLA     -1.000000       35.4500           0
      4882 ION      202      CLA      CLA      CLA     -1.000000       35.4500           0
      4883 ION      203      CLA      CLA      CLA     -1.000000       35.4500           0
      4884 ION      204      CLA      CLA      CLA     -1.000000       35.4500           0
      4885 ION      205      CLA      CLA      CLA     -1.000000       35.4500           0
      4886 ION      206      CLA      CLA      CLA     -1.000000       35.4500           0
      4887 ION      207      CLA      CLA      CLA     -1.000000       35.4500           0
      4888 ION      208      CLA      CLA      CLA     -1.000000       35.4500           0
      4889 ION      209      CLA      CLA      CLA     -1.000000       35.4500           0
      4890 ION      210      CLA      CLA      CLA     -1.000000       35.4500           0
      4891 ION      211      CLA      CLA      CLA     -1.000000       35.4500           0
      4892 ION      212      CLA      CLA      CLA     -1.000000       35.4500           0
      4893 ION      213      CLA      CLA      CLA     -1.000000       35.4500           0
      4894 ION      214      CLA      CLA      CLA     -1.000000       35.4500           0
      4895 ION      215      CLA      CLA      CLA     -1.000000       35.4500           0
      4896 ION      216      CLA      CLA      CLA     -1.000000       35.4500           0
      4897 ION      217      CLA      CLA      CLA     -1.000000       35.4500           0
      4898 ION      218      CLA      CLA      CLA     -1.000000       35.4500           0
      4899 ION      219      CLA      CLA      CLA     -1.000000       35.4500           0
      4900 ION      220      CLA      CLA      CLA     -1.000000       35.4500           0
      4901 ION      221      CLA      CLA      CLA     -1.000000       35.4500           0
      4902 ION      222      CLA      CLA      CLA     -1.000000       35.4500           0
      4903 ION      223      CLA      CLA      CLA     -1.000000       35.4500           0
      4904 ION      224      CLA      CLA      CLA     -1.000000       35.4500           0
      4905 ION      225      CLA      CLA      CLA     -1.000000       35.4500           0
      4906 ION      226      CLA      CLA      CLA     -1.000000       35.4500           0
      4907 ION      227      CLA      CLA      CLA     -1.000000       35.4500           0
      4908 ION      228      CLA      CLA      CLA     -1.000000       35.4500           0
      4909 ION      229      CLA      CLA      CLA     -1.000000       35.4500           0
      4910 ION      230      CLA      CLA      CLA     -1.000000       35.4500           0
      4911 ION      231      CLA      CLA      CLA     -1.000000       35.4500           0
      4912 ION      232      CLA      CLA      CLA     -1.000000       35.4500           0
      4913 ION      233      CLA      CLA      CLA     -1.000000       35.4500           0
      4914 ION      234      CLA      CLA      CLA     -1.000000       35.4500           0
      4915 ION      235      CLA      CLA      CLA     -1.000000       35.4500           0
      4916 ION      236      CLA      CLA      CLA     -1.000000       35.4500           0
      4917 ION      237      CLA      CLA      CLA     -1.000000       35.4500           0
      4918 ION      238      CLA      CLA      CLA     -1.000000       35.4500           0
      4919 ION      239      CLA      CLA      CLA     -1.000000       35.4500           0
      4920 ION      240      CLA      CLA      CLA     -1.000000       35.4500           0
      4921 ION      241      CLA      CLA      CLA     -1.000000       35.4500           0
      4922 ION      242      CLA      CLA      CLA     -1.000000       35.4500           0
      4923 ION      243      CLA      CLA      CLA     -1.000000       35.4500           0
      4924 ION      244      CLA      CLA      CLA     -1.000000       35.4500           0
      4925 ION      245      CLA      CLA      CLA     -1.000000       35.4500           0
      4926 ION      246      CLA      CLA      CLA     -1.000000       35.4500           0
      4927 ION      247      CLA      CLA      CLA     -1.000000       35.4500           0
      4928 ION      248      CLA      CLA      CLA     -1.000000       35.4500           0
      4929 ION      249      CLA      CLA      CLA     -1.000000       35.4500           0
      4930 ION      250      CLA      CLA      CLA     -1.000000       35.4500           0
      4931 ION      251      CLA      CLA      CLA     -1.000000       35.4500           0
      4932 ION      252      CLA      CLA      CLA     -1.000000       35.4500           0
      4933 ION      253      CLA      CLA      CLA     -1.000000       35.4500           0
      4934 ION      254      CLA      CLA      CLA     -1.000000       35.4500           0
      4935 ION      255      CLA      CLA      CLA     -1.000000       35.4500           0
      4936 ION      256      CLA      CLA      CLA     -1.000000       35.4500           0
      4937 ION      257      CLA      CLA      CLA     -1.000000       35.4500           0
      4938 ION      258      CLA      CLA      CLA     -1.000000       35.4500           0
      4939 ION      259      CLA      CLA      CLA     -1.000000       35.4500           0
      4940 ION      260      CLA      CLA      CLA     -1.000000       35.4500           0
      4941 ION      261      CLA      CLA      CLA     -1.000000       35.4500           0
      4942 ION      262      CLA      CLA      CLA     -1.000000       35.4500           0
      4943 ION      263      CLA      CLA      CLA     -1.000000       35.4500           0
      4944 WT1      9        MECN     C1       CG331   -0.170000       12.0110           0
      4945 WT1      9        MECN     H11      HGA3     0.090000        1.0080           0
      4946 WT1      9        MECN     H12      HGA3     0.090000        1.0080           0
      4947 WT1      9        MECN     H13      HGA3     0.090000        1.0080           0
      4948 WT1      9        MECN     C2       CG1N1    0.360000       12.0110           0
      4949 WT1      9        MECN     N3       NG1T1   -0.460000       14.0070           0
      4950 WT1      31       MECN     C1       CG331   -0.170000       12.0110           0
      4951 WT1      31       MECN     H11      HGA3     0.090000        1.0080           0
      4952 WT1      31       MECN     H12      HGA3     0.090000        1.0080           0
      4953 WT1      31       MECN     H13      HGA3     0.090000        1.0080           0
      4954 WT1      31       MECN     C2       CG1N1    0.360000       12.0110           0
      4955 WT1      31       MECN     N3       NG1T1   -0.460000       14.0070           0
      4956 WT1      54       MECN     C1       CG331   -0.170000       12.0110           0
      4957 WT1      54       MECN     H11      HGA3     0.090000        1.0080           0
      4958 WT1      54       MECN     H12      HGA3     0.090000        1.0080           0
      4959 WT1      54       MECN     H13      HGA3     0.090000        1.0080           0
      4960 WT1      54       MECN     C2       CG1N1    0.360000       12.0110           0
      4961 WT1      54       MECN     N3       NG1T1   -0.460000       14.0070           0
      4962 WT1      58       MECN     C1       CG331   -0.170000       12.0110           0
      4963 WT1      58       MECN     H11      HGA3     0.090000        1.0080           0
      4964 WT1      58       MECN     H12      HGA3     0.090000        1.0080           0
      4965 WT1      58       MECN     H13      HGA3     0.090000        1.0080           0
      4966 WT1      58       MECN     C2       CG1N1    0.360000       12.0110           0
      4967 WT1      58       MECN     N3       NG1T1   -0.460000       14.0070           0
      4968 WT1      71       MECN     C1       CG331   -0.170000       12.0110           0
      4969 WT1      71       MECN     H11      HGA3     0.090000        1.0080           0
      4970 WT1      71       MECN     H12      HGA3     0.090000        1.0080           0
      4971 WT1      71       MECN     H13      HGA3     0.090000        1.0080           0
      4972 WT1      71       MECN     C2       CG1N1    0.360000       12.0110           0
      4973 WT1      71       MECN     N3       NG1T1   -0.460000       14.0070           0
      4974 WT1      76       MECN     C1       CG331   -0.170000       12.0110           0
      4975 WT1      76       MECN     H11      HGA3     0.090000        1.0080           0
      4976 WT1      76       MECN     H12      HGA3     0.090000        1.0080           0
      4977 WT1      76       MECN     H13      HGA3     0.090000        1.0080           0
      4978 WT1      76       MECN     C2       CG1N1    0.360000       12.0110           0
      4979 WT1      76       MECN     N3       NG1T1   -0.460000       14.0070           0
      4980 WT1      79       MECN     C1       CG331   -0.170000       12.0110           0
      4981 WT1      79       MECN     H11      HGA3     0.090000        1.0080           0
      4982 WT1      79       MECN     H12      HGA3     0.090000        1.0080           0
      4983 WT1      79       MECN     H13      HGA3     0.090000        1.0080           0
      4984 WT1      79       MECN     C2       CG1N1    0.360000       12.0110           0
      4985 WT1      79       MECN     N3       NG1T1   -0.460000       14.0070           0
      4986 WT1      81       MECN     C1       CG331   -0.170000       12.0110           0
      4987 WT1      81       MECN     H11      HGA3     0.090000        1.0080           0
      4988 WT1      81       MECN     H12      HGA3     0.090000        1.0080           0
      4989 WT1      81       MECN     H13      HGA3     0.090000        1.0080           0
      4990 WT1      81       MECN     C2       CG1N1    0.360000       12.0110           0
      4991 WT1      81       MECN     N3       NG1T1   -0.460000       14.0070           0
      4992 WT1      105      MECN     C1       CG331   -0.170000       12.0110           0
      4993 WT1      105      MECN     H11      HGA3     0.090000        1.0080           0
      4994 WT1      105      MECN     H12      HGA3     0.090000        1.0080           0
      4995 WT1      105      MECN     H13      HGA3     0.090000        1.0080           0
      4996 WT1      105      MECN     C2       CG1N1    0.360000       12.0110           0
      4997 WT1      105      MECN     N3       NG1T1   -0.460000       14.0070           0
      4998 WT1      112      MECN     C1       CG331   -0.170000       12.0110           0
      4999 WT1      112      MECN     H11      HGA3     0.090000        1.0080           0
      5000 WT1      112      MECN     H12      HGA3     0.090000        1.0080           0
      5001 WT1      112      MECN     H13      HGA3     0.090000        1.0080           0
      5002 WT1      112      MECN     C2       CG1N1    0.360000       12.0110           0
      5003 WT1      112      MECN     N3       NG1T1   -0.460000       14.0070           0
      5004 WT1      120      MECN     C1       CG331   -0.170000       12.0110           0
      5005 WT1      120      MECN     H11      HGA3     0.090000        1.0080           0
      5006 WT1      120      MECN     H12      HGA3     0.090000        1.0080           0
      5007 WT1      120      MECN     H13      HGA3     0.090000        1.0080           0
      5008 WT1      120      MECN     C2       CG1N1    0.360000       12.0110           0
      5009 WT1      120      MECN     N3       NG1T1   -0.460000       14.0070           0
      5010 WT1      138      MECN     C1       CG331   -0.170000       12.0110           0
      5011 WT1      138      MECN     H11      HGA3     0.090000        1.0080           0
      5012 WT1      138      MECN     H12      HGA3     0.090000        1.0080           0
      5013 WT1      138      MECN     H13      HGA3     0.090000        1.0080           0
      5014 WT1      138      MECN     C2       CG1N1    0.360000       12.0110           0
      5015 WT1      138      MECN     N3       NG1T1   -0.460000       14.0070           0
      5016 WT1      171      MECN     C1       CG331   -0.170000       12.0110           0
      5017 WT1      171      MECN     H11      HGA3     0.090000        1.0080           0
      5018 WT1      171      MECN     H12      HGA3     0.090000        1.0080           0
      5019 WT1      171      MECN     H13      HGA3     0.090000        1.0080           0
      5020 WT1      171      MECN     C2       CG1N1    0.360000       12.0110           0
      5021 WT1      171      MECN     N3       NG1T1   -0.460000       14.0070           0
      5022 WT1      183      MECN     C1       CG331   -0.170000       12.0110           0
      5023 WT1      183      MECN     H11      HGA3     0.090000        1.0080           0
      5024 WT1      183      MECN     H12      HGA3     0.090000        1.0080           0
      5025 WT1      183      MECN     H13      HGA3     0.090000        1.0080           0
      5026 WT1      183      MECN     C2       CG1N1    0.360000       12.0110           0
      5027 WT1      183      MECN     N3       NG1T1   -0.460000       14.0070           0
      5028 WT1      185      MECN     C1       CG331   -0.170000       12.0110           0
      5029 WT1      185      MECN     H11      HGA3     0.090000        1.0080           0
      5030 WT1      185      MECN     H12      HGA3     0.090000        1.0080           0
      5031 WT1      185      MECN     H13      HGA3     0.090000        1.0080           0
      5032 WT1      185      MECN     C2       CG1N1    0.360000       12.0110           0
      5033 WT1      185      MECN     N3       NG1T1   -0.460000       14.0070           0
      5034 WT1      197      MECN     C1       CG331   -0.170000       12.0110           0
      5035 WT1      197      MECN     H11      HGA3     0.090000        1.0080           0
      5036 WT1      197      MECN     H12      HGA3     0.090000        1.0080           0
      5037 WT1      197      MECN     H13      HGA3     0.090000        1.0080           0
      5038 WT1      197      MECN     C2       CG1N1    0.360000       12.0110           0
      5039 WT1      197      MECN     N3       NG1T1   -0.460000       14.0070           0
      5040 WT1      209      MECN     C1       CG331   -0.170000       12.0110           0
      5041 WT1      209      MECN     H11      HGA3     0.090000        1.0080           0
      5042 WT1      209      MECN     H12      HGA3     0.090000        1.0080           0
      5043 WT1      209      MECN     H13      HGA3     0.090000        1.0080           0
      5044 WT1      209      MECN     C2       CG1N1    0.360000       12.0110           0
      5045 WT1      209      MECN     N3       NG1T1   -0.460000       14.0070           0
      5046 WT1      216      MECN     C1       CG331   -0.170000       12.0110           0
      5047 WT1      216      MECN     H11      HGA3     0.090000        1.0080           0
      5048 WT1      216      MECN     H12      HGA3     0.090000        1.0080           0
      5049 WT1      216      MECN     H13      HGA3     0.090000        1.0080           0
      5050 WT1      216      MECN     C2       CG1N1    0.360000       12.0110           0
      5051 WT1      216      MECN     N3       NG1T1   -0.460000       14.0070           0
      5052 WT1      225      MECN     C1       CG331   -0.170000       12.0110           0
      5053 WT1      225      MECN     H11      HGA3     0.090000        1.0080           0
      5054 WT1      225      MECN     H12      HGA3     0.090000        1.0080           0
      5055 WT1      225      MECN     H13      HGA3     0.090000        1.0080           0
      5056 WT1      225      MECN     C2       CG1N1    0.360000       12.0110           0
      5057 WT1      225      MECN     N3       NG1T1   -0.460000       14.0070           0
      5058 WT1      255      MECN     C1       CG331   -0.170000       12.0110           0
      5059 WT1      255      MECN     H11      HGA3     0.090000        1.0080           0
      5060 WT1      255      MECN     H12      HGA3     0.090000        1.0080           0
      5061 WT1      255      MECN     H13      HGA3     0.090000        1.0080           0
      5062 WT1      255      MECN     C2       CG1N1    0.360000       12.0110           0
      5063 WT1      255      MECN     N3       NG1T1   -0.460000       14.0070           0
      5064 WT1      260      MECN     C1       CG331   -0.170000       12.0110           0
      5065 WT1      260      MECN     H11      HGA3     0.090000        1.0080           0
      5066 WT1      260      MECN     H12      HGA3     0.090000        1.0080           0
      5067 WT1      260      MECN     H13      HGA3     0.090000        1.0080           0
      5068 WT1      260      MECN     C2       CG1N1    0.360000       12.0110           0
      5069 WT1      260      MECN     N3       NG1T1   -0.460000       14.0070           0
      5070 WT1      270      MECN     C1       CG331   -0.170000       12.0110           0
      5071 WT1      270      MECN     H11      HGA3     0.090000        1.0080           0
      5072 WT1      270      MECN     H12      HGA3     0.090000        1.0080           0
      5073 WT1      270      MECN     H13      HGA3     0.090000        1.0080           0
      5074 WT1      270      MECN     C2       CG1N1    0.360000       12.0110           0
      5075 WT1      270      MECN     N3       NG1T1   -0.460000       14.0070           0
      5076 WT1      273      MECN     C1       CG331   -0.170000       12.0110           0
      5077 WT1      273      MECN     H11      HGA3     0.090000        1.0080           0
      5078 WT1      273      MECN     H12      HGA3     0.090000        1.0080           0
      5079 WT1      273      MECN     H13      HGA3     0.090000        1.0080           0
      5080 WT1      273      MECN     C2       CG1N1    0.360000       12.0110           0
      5081 WT1      273      MECN     N3       NG1T1   -0.460000       14.0070           0
      5082 WT1      287      MECN     C1       CG331   -0.170000       12.0110           0
      5083 WT1      287      MECN     H11      HGA3     0.090000        1.0080           0
      5084 WT1      287      MECN     H12      HGA3     0.090000        1.0080           0
      5085 WT1      287      MECN     H13      HGA3     0.090000        1.0080           0
      5086 WT1      287      MECN     C2       CG1N1    0.360000       12.0110           0
      5087 WT1      287      MECN     N3       NG1T1   -0.460000       14.0070           0
      5088 WT1      292      MECN     C1       CG331   -0.170000       12.0110           0
      5089 WT1      292      MECN     H11      HGA3     0.090000        1.0080           0
      5090 WT1      292      MECN     H12      HGA3     0.090000        1.0080           0
      5091 WT1      292      MECN     H13      HGA3     0.090000        1.0080           0
      5092 WT1      292      MECN     C2       CG1N1    0.360000       12.0110           0
      5093 WT1      292      MECN     N3       NG1T1   -0.460000       14.0070           0
      5094 WT1      296      MECN     C1       CG331   -0.170000       12.0110           0
      5095 WT1      296      MECN     H11      HGA3     0.090000        1.0080           0
      5096 WT1      296      MECN     H12      HGA3     0.090000        1.0080           0
      5097 WT1      296      MECN     H13      HGA3     0.090000        1.0080           0
      5098 WT1      296      MECN     C2       CG1N1    0.360000       12.0110           0
      5099 WT1      296      MECN     N3       NG1T1   -0.460000       14.0070           0
      5100 WT1      298      MECN     C1       CG331   -0.170000       12.0110           0
      5101 WT1      298      MECN     H11      HGA3     0.090000        1.0080           0
      5102 WT1      298      MECN     H12      HGA3     0.090000        1.0080           0
      5103 WT1      298      MECN     H13      HGA3     0.090000        1.0080           0
      5104 WT1      298      MECN     C2       CG1N1    0.360000       12.0110           0
      5105 WT1      298      MECN     N3       NG1T1   -0.460000       14.0070           0
      5106 WT1      308      MECN     C1       CG331   -0.170000       12.0110           0
      5107 WT1      308      MECN     H11      HGA3     0.090000        1.0080           0
      5108 WT1      308      MECN     H12      HGA3     0.090000        1.0080           0
      5109 WT1      308      MECN     H13      HGA3     0.090000        1.0080           0
      5110 WT1      308      MECN     C2       CG1N1    0.360000       12.0110           0
      5111 WT1      308      MECN     N3       NG1T1   -0.460000       14.0070           0
      5112 WT1      310      MECN     C1       CG331   -0.170000       12.0110           0
      5113 WT1      310      MECN     H11      HGA3     0.090000        1.0080           0
      5114 WT1      310      MECN     H12      HGA3     0.090000        1.0080           0
      5115 WT1      310      MECN     H13      HGA3     0.090000        1.0080           0
      5116 WT1      310      MECN     C2       CG1N1    0.360000       12.0110           0
      5117 WT1      310      MECN     N3       NG1T1   -0.460000       14.0070           0
      5118 WT1      322      MECN     C1       CG331   -0.170000       12.0110           0
      5119 WT1      322      MECN     H11      HGA3     0.090000        1.0080           0
      5120 WT1      322      MECN     H12      HGA3     0.090000        1.0080           0
      5121 WT1      322      MECN     H13      HGA3     0.090000        1.0080           0
      5122 WT1      322      MECN     C2       CG1N1    0.360000       12.0110           0
      5123 WT1      322      MECN     N3       NG1T1   -0.460000       14.0070           0
      5124 WT1      323      MECN     C1       CG331   -0.170000       12.0110           0
      5125 WT1      323      MECN     H11      HGA3     0.090000        1.0080           0
      5126 WT1      323      MECN     H12      HGA3     0.090000        1.0080           0
      5127 WT1      323      MECN     H13      HGA3     0.090000        1.0080           0
      5128 WT1      323      MECN     C2       CG1N1    0.360000       12.0110           0
      5129 WT1      323      MECN     N3       NG1T1   -0.460000       14.0070           0
      5130 WT1      342      MECN     C1       CG331   -0.170000       12.0110           0
      5131 WT1      342      MECN     H11      HGA3     0.090000        1.0080           0
      5132 WT1      342      MECN     H12      HGA3     0.090000        1.0080           0
      5133 WT1      342      MECN     H13      HGA3     0.090000        1.0080           0
      5134 WT1      342      MECN     C2       CG1N1    0.360000       12.0110           0
      5135 WT1      342      MECN     N3       NG1T1   -0.460000       14.0070           0
      5136 WT1      349      MECN     C1       CG331   -0.170000       12.0110           0
      5137 WT1      349      MECN     H11      HGA3     0.090000        1.0080           0
      5138 WT1      349      MECN     H12      HGA3     0.090000        1.0080           0
      5139 WT1      349      MECN     H13      HGA3     0.090000        1.0080           0
      5140 WT1      349      MECN     C2       CG1N1    0.360000       12.0110           0
      5141 WT1      349      MECN     N3       NG1T1   -0.460000       14.0070           0
      5142 WT1      366      MECN     C1       CG331   -0.170000       12.0110           0
      5143 WT1      366      MECN     H11      HGA3     0.090000        1.0080           0
      5144 WT1      366      MECN     H12      HGA3     0.090000        1.0080           0
      5145 WT1      366      MECN     H13      HGA3     0.090000        1.0080           0
      5146 WT1      366      MECN     C2       CG1N1    0.360000       12.0110           0
      5147 WT1      366      MECN     N3       NG1T1   -0.460000       14.0070           0
      5148 WT1      381      MECN     C1       CG331   -0.170000       12.0110           0
      5149 WT1      381      MECN     H11      HGA3     0.090000        1.0080           0
      5150 WT1      381      MECN     H12      HGA3     0.090000        1.0080           0
      5151 WT1      381      MECN     H13      HGA3     0.090000        1.0080           0
      5152 WT1      381      MECN     C2       CG1N1    0.360000       12.0110           0
      5153 WT1      381      MECN     N3       NG1T1   -0.460000       14.0070           0
      5154 WT1      388      MECN     C1       CG331   -0.170000       12.0110           0
      5155 WT1      388      MECN     H11      HGA3     0.090000        1.0080           0
      5156 WT1      388      MECN     H12      HGA3     0.090000        1.0080           0
      5157 WT1      388      MECN     H13      HGA3     0.090000        1.0080           0
      5158 WT1      388      MECN     C2       CG1N1    0.360000       12.0110           0
      5159 WT1      388      MECN     N3       NG1T1   -0.460000       14.0070           0
      5160 WT1      392      MECN     C1       CG331   -0.170000       12.0110           0
      5161 WT1      392      MECN     H11      HGA3     0.090000        1.0080           0
      5162 WT1      392      MECN     H12      HGA3     0.090000        1.0080           0
      5163 WT1      392      MECN     H13      HGA3     0.090000        1.0080           0
      5164 WT1      392      MECN     C2       CG1N1    0.360000       12.0110           0
      5165 WT1      392      MECN     N3       NG1T1   -0.460000       14.0070           0
      5166 WT1      401      MECN     C1       CG331   -0.170000       12.0110           0
      5167 WT1      401      MECN     H11      HGA3     0.090000        1.0080           0
      5168 WT1      401      MECN     H12      HGA3     0.090000        1.0080           0
      5169 WT1      401      MECN     H13      HGA3     0.090000        1.0080           0
      5170 WT1      401      MECN     C2       CG1N1    0.360000       12.0110           0
      5171 WT1      401      MECN     N3       NG1T1   -0.460000       14.0070           0
      5172 WT1      408      MECN     C1       CG331   -0.170000       12.0110           0
      5173 WT1      408      MECN     H11      HGA3     0.090000        1.0080           0
      5174 WT1      408      MECN     H12      HGA3     0.090000        1.0080           0
      5175 WT1      408      MECN     H13      HGA3     0.090000        1.0080           0
      5176 WT1      408      MECN     C2       CG1N1    0.360000       12.0110           0
      5177 WT1      408      MECN     N3       NG1T1   -0.460000       14.0070           0
      5178 WT1      416      MECN     C1       CG331   -0.170000       12.0110           0
      5179 WT1      416      MECN     H11      HGA3     0.090000        1.0080           0
      5180 WT1      416      MECN     H12      HGA3     0.090000        1.0080           0
      5181 WT1      416      MECN     H13      HGA3     0.090000        1.0080           0
      5182 WT1      416      MECN     C2       CG1N1    0.360000       12.0110           0
      5183 WT1      416      MECN     N3       NG1T1   -0.460000       14.0070           0
      5184 WT1      430      MECN     C1       CG331   -0.170000       12.0110           0
      5185 WT1      430      MECN     H11      HGA3     0.090000        1.0080           0
      5186 WT1      430      MECN     H12      HGA3     0.090000        1.0080           0
      5187 WT1      430      MECN     H13      HGA3     0.090000        1.0080           0
      5188 WT1      430      MECN     C2       CG1N1    0.360000       12.0110           0
      5189 WT1      430      MECN     N3       NG1T1   -0.460000       14.0070           0
      5190 WT1      436      MECN     C1       CG331   -0.170000       12.0110           0
      5191 WT1      436      MECN     H11      HGA3     0.090000        1.0080           0
      5192 WT1      436      MECN     H12      HGA3     0.090000        1.0080           0
      5193 WT1      436      MECN     H13      HGA3     0.090000        1.0080           0
      5194 WT1      436      MECN     C2       CG1N1    0.360000       12.0110           0
      5195 WT1      436      MECN     N3       NG1T1   -0.460000       14.0070           0
      5196 WT1      440      MECN     C1       CG331   -0.170000       12.0110           0
      5197 WT1      440      MECN     H11      HGA3     0.090000        1.0080           0
      5198 WT1      440      MECN     H12      HGA3     0.090000        1.0080           0
      5199 WT1      440      MECN     H13      HGA3     0.090000        1.0080           0
      5200 WT1      440      MECN     C2       CG1N1    0.360000       12.0110           0
      5201 WT1      440      MECN     N3       NG1T1   -0.460000       14.0070           0
      5202 WT1      451      MECN     C1       CG331   -0.170000       12.0110           0
      5203 WT1      451      MECN     H11      HGA3     0.090000        1.0080           0
      5204 WT1      451      MECN     H12      HGA3     0.090000        1.0080           0
      5205 WT1      451      MECN     H13      HGA3     0.090000        1.0080           0
      5206 WT1      451      MECN     C2       CG1N1    0.360000       12.0110           0
      5207 WT1      451      MECN     N3       NG1T1   -0.460000       14.0070           0
      5208 WT1      467      MECN     C1       CG331   -0.170000       12.0110           0
      5209 WT1      467      MECN     H11      HGA3     0.090000        1.0080           0
      5210 WT1      467      MECN     H12      HGA3     0.090000        1.0080           0
      5211 WT1      467      MECN     H13      HGA3     0.090000        1.0080           0
      5212 WT1      467      MECN     C2       CG1N1    0.360000       12.0110           0
      5213 WT1      467      MECN     N3       NG1T1   -0.460000       14.0070           0
      5214 WT1      485      MECN     C1       CG331   -0.170000       12.0110           0
      5215 WT1      485      MECN     H11      HGA3     0.090000        1.0080           0
      5216 WT1      485      MECN     H12      HGA3     0.090000        1.0080           0
      5217 WT1      485      MECN     H13      HGA3     0.090000        1.0080           0
      5218 WT1      485      MECN     C2       CG1N1    0.360000       12.0110           0
      5219 WT1      485      MECN     N3       NG1T1   -0.460000       14.0070           0
      5220 WT1      488      MECN     C1       CG331   -0.170000       12.0110           0
      5221 WT1      488      MECN     H11      HGA3     0.090000        1.0080           0
      5222 WT1      488      MECN     H12      HGA3     0.090000        1.0080           0
      5223 WT1      488      MECN     H13      HGA3     0.090000        1.0080           0
      5224 WT1      488      MECN     C2       CG1N1    0.360000       12.0110           0
      5225 WT1      488      MECN     N3       NG1T1   -0.460000       14.0070           0
      5226 WT1      492      MECN     C1       CG331   -0.170000       12.0110           0
      5227 WT1      492      MECN     H11      HGA3     0.090000        1.0080           0
      5228 WT1      492      MECN     H12      HGA3     0.090000        1.0080           0
      5229 WT1      492      MECN     H13      HGA3     0.090000        1.0080           0
      5230 WT1      492      MECN     C2       CG1N1    0.360000       12.0110           0
      5231 WT1      492      MECN     N3       NG1T1   -0.460000       14.0070           0
      5232 WT1      531      MECN     C1       CG331   -0.170000       12.0110           0
      5233 WT1      531      MECN     H11      HGA3     0.090000        1.0080           0
      5234 WT1      531      MECN     H12      HGA3     0.090000        1.0080           0
      5235 WT1      531      MECN     H13      HGA3     0.090000        1.0080           0
      5236 WT1      531      MECN     C2       CG1N1    0.360000       12.0110           0
      5237 WT1      531      MECN     N3       NG1T1   -0.460000       14.0070           0
      5238 WT1      543      MECN     C1       CG331   -0.170000       12.0110           0
      5239 WT1      543      MECN     H11      HGA3     0.090000        1.0080           0
      5240 WT1      543      MECN     H12      HGA3     0.090000        1.0080           0
      5241 WT1      543      MECN     H13      HGA3     0.090000        1.0080           0
      5242 WT1      543      MECN     C2       CG1N1    0.360000       12.0110           0
      5243 WT1      543      MECN     N3       NG1T1   -0.460000       14.0070           0
      5244 WT1      544      MECN     C1       CG331   -0.170000       12.0110           0
      5245 WT1      544      MECN     H11      HGA3     0.090000        1.0080           0
      5246 WT1      544      MECN     H12      HGA3     0.090000        1.0080           0
      5247 WT1      544      MECN     H13      HGA3     0.090000        1.0080           0
      5248 WT1      544      MECN     C2       CG1N1    0.360000       12.0110           0
      5249 WT1      544      MECN     N3       NG1T1   -0.460000       14.0070           0
      5250 WT1      560      MECN     C1       CG331   -0.170000       12.0110           0
      5251 WT1      560      MECN     H11      HGA3     0.090000        1.0080           0
      5252 WT1      560      MECN     H12      HGA3     0.090000        1.0080           0
      5253 WT1      560      MECN     H13      HGA3     0.090000        1.0080           0
      5254 WT1      560      MECN     C2       CG1N1    0.360000       12.0110           0
      5255 WT1      560      MECN     N3       NG1T1   -0.460000       14.0070           0
      5256 WT1      579      MECN     C1       CG331   -0.170000       12.0110           0
      5257 WT1      579      MECN     H11      HGA3     0.090000        1.0080           0
      5258 WT1      579      MECN     H12      HGA3     0.090000        1.0080           0
      5259 WT1      579      MECN     H13      HGA3     0.090000        1.0080           0
      5260 WT1      579      MECN     C2       CG1N1    0.360000       12.0110           0
      5261 WT1      579      MECN     N3       NG1T1   -0.460000       14.0070           0
      5262 WT1      584      MECN     C1       CG331   -0.170000       12.0110           0
      5263 WT1      584      MECN     H11      HGA3     0.090000        1.0080           0
      5264 WT1      584      MECN     H12      HGA3     0.090000        1.0080           0
      5265 WT1      584      MECN     H13      HGA3     0.090000        1.0080           0
      5266 WT1      584      MECN     C2       CG1N1    0.360000       12.0110           0
      5267 WT1      584      MECN     N3       NG1T1   -0.460000       14.0070           0
      5268 WT1      585      MECN     C1       CG331   -0.170000       12.0110           0
      5269 WT1      585      MECN     H11      HGA3     0.090000        1.0080           0
      5270 WT1      585      MECN     H12      HGA3     0.090000        1.0080           0
      5271 WT1      585      MECN     H13      HGA3     0.090000        1.0080           0
      5272 WT1      585      MECN     C2       CG1N1    0.360000       12.0110           0
      5273 WT1      585      MECN     N3       NG1T1   -0.460000       14.0070           0
      5274 WT1      586      MECN     C1       CG331   -0.170000       12.0110           0
      5275 WT1      586      MECN     H11      HGA3     0.090000        1.0080           0
      5276 WT1      586      MECN     H12      HGA3     0.090000        1.0080           0
      5277 WT1      586      MECN     H13      HGA3     0.090000        1.0080           0
      5278 WT1      586      MECN     C2       CG1N1    0.360000       12.0110           0
      5279 WT1      586      MECN     N3       NG1T1   -0.460000       14.0070           0
      5280 WT1      599      MECN     C1       CG331   -0.170000       12.0110           0
      5281 WT1      599      MECN     H11      HGA3     0.090000        1.0080           0
      5282 WT1      599      MECN     H12      HGA3     0.090000        1.0080           0
      5283 WT1      599      MECN     H13      HGA3     0.090000        1.0080           0
      5284 WT1      599      MECN     C2       CG1N1    0.360000       12.0110           0
      5285 WT1      599      MECN     N3       NG1T1   -0.460000       14.0070           0
      5286 WT1      620      MECN     C1       CG331   -0.170000       12.0110           0
      5287 WT1      620      MECN     H11      HGA3     0.090000        1.0080           0
      5288 WT1      620      MECN     H12      HGA3     0.090000        1.0080           0
      5289 WT1      620      MECN     H13      HGA3     0.090000        1.0080           0
      5290 WT1      620      MECN     C2       CG1N1    0.360000       12.0110           0
      5291 WT1      620      MECN     N3       NG1T1   -0.460000       14.0070           0
      5292 WT1      623      MECN     C1       CG331   -0.170000       12.0110           0
      5293 WT1      623      MECN     H11      HGA3     0.090000        1.0080           0
      5294 WT1      623      MECN     H12      HGA3     0.090000        1.0080           0
      5295 WT1      623      MECN     H13      HGA3     0.090000        1.0080           0
      5296 WT1      623      MECN     C2       CG1N1    0.360000       12.0110           0
      5297 WT1      623      MECN     N3       NG1T1   -0.460000       14.0070           0
      5298 WT1      625      MECN     C1       CG331   -0.170000       12.0110           0
      5299 WT1      625      MECN     H11      HGA3     0.090000        1.0080           0
      5300 WT1      625      MECN     H12      HGA3     0.090000        1.0080           0
      5301 WT1      625      MECN     H13      HGA3     0.090000        1.0080           0
      5302 WT1      625      MECN     C2       CG1N1    0.360000       12.0110           0
      5303 WT1      625      MECN     N3       NG1T1   -0.460000       14.0070           0
      5304 WT1      633      MECN     C1       CG331   -0.170000       12.0110           0
      5305 WT1      633      MECN     H11      HGA3     0.090000        1.0080           0
      5306 WT1      633      MECN     H12      HGA3     0.090000        1.0080           0
      5307 WT1      633      MECN     H13      HGA3     0.090000        1.0080           0
      5308 WT1      633      MECN     C2       CG1N1    0.360000       12.0110           0
      5309 WT1      633      MECN     N3       NG1T1   -0.460000       14.0070           0
      5310 WT1      636      MECN     C1       CG331   -0.170000       12.0110           0
      5311 WT1      636      MECN     H11      HGA3     0.090000        1.0080           0
      5312 WT1      636      MECN     H12      HGA3     0.090000        1.0080           0
      5313 WT1      636      MECN     H13      HGA3     0.090000        1.0080           0
      5314 WT1      636      MECN     C2       CG1N1    0.360000       12.0110           0
      5315 WT1      636      MECN     N3       NG1T1   -0.460000       14.0070           0
      5316 WT1      639      MECN     C1       CG331   -0.170000       12.0110           0
      5317 WT1      639      MECN     H11      HGA3     0.090000        1.0080           0
      5318 WT1      639      MECN     H12      HGA3     0.090000        1.0080           0
      5319 WT1      639      MECN     H13      HGA3     0.090000        1.0080           0
      5320 WT1      639      MECN     C2       CG1N1    0.360000       12.0110           0
      5321 WT1      639      MECN     N3       NG1T1   -0.460000       14.0070           0
      5322 WT1      650      MECN     C1       CG331   -0.170000       12.0110           0
      5323 WT1      650      MECN     H11      HGA3     0.090000        1.0080           0
      5324 WT1      650      MECN     H12      HGA3     0.090000        1.0080           0
      5325 WT1      650      MECN     H13      HGA3     0.090000        1.0080           0
      5326 WT1      650      MECN     C2       CG1N1    0.360000       12.0110           0
      5327 WT1      650      MECN     N3       NG1T1   -0.460000       14.0070           0
      5328 WT1      651      MECN     C1       CG331   -0.170000       12.0110           0
      5329 WT1      651      MECN     H11      HGA3     0.090000        1.0080           0
      5330 WT1      651      MECN     H12      HGA3     0.090000        1.0080           0
      5331 WT1      651      MECN     H13      HGA3     0.090000        1.0080           0
      5332 WT1      651      MECN     C2       CG1N1    0.360000       12.0110           0
      5333 WT1      651      MECN     N3       NG1T1   -0.460000       14.0070           0
      5334 WT1      656      MECN     C1       CG331   -0.170000       12.0110           0
      5335 WT1      656      MECN     H11      HGA3     0.090000        1.0080           0
      5336 WT1      656      MECN     H12      HGA3     0.090000        1.0080           0
      5337 WT1      656      MECN     H13      HGA3     0.090000        1.0080           0
      5338 WT1      656      MECN     C2       CG1N1    0.360000       12.0110           0
      5339 WT1      656      MECN     N3       NG1T1   -0.460000       14.0070           0
      5340 WT1      658      MECN     C1       CG331   -0.170000       12.0110           0
      5341 WT1      658      MECN     H11      HGA3     0.090000        1.0080           0
      5342 WT1      658      MECN     H12      HGA3     0.090000        1.0080           0
      5343 WT1      658      MECN     H13      HGA3     0.090000        1.0080           0
      5344 WT1      658      MECN     C2       CG1N1    0.360000       12.0110           0
      5345 WT1      658      MECN     N3       NG1T1   -0.460000       14.0070           0
      5346 WT1      659      MECN     C1       CG331   -0.170000       12.0110           0
      5347 WT1      659      MECN     H11      HGA3     0.090000        1.0080           0
      5348 WT1      659      MECN     H12      HGA3     0.090000        1.0080           0
      5349 WT1      659      MECN     H13      HGA3     0.090000        1.0080           0
      5350 WT1      659      MECN     C2       CG1N1    0.360000       12.0110           0
      5351 WT1      659      MECN     N3       NG1T1   -0.460000       14.0070           0
      5352 WT1      661      MECN     C1       CG331   -0.170000       12.0110           0
      5353 WT1      661      MECN     H11      HGA3     0.090000        1.0080           0
      5354 WT1      661      MECN     H12      HGA3     0.090000        1.0080           0
      5355 WT1      661      MECN     H13      HGA3     0.090000        1.0080           0
      5356 WT1      661      MECN     C2       CG1N1    0.360000       12.0110           0
      5357 WT1      661      MECN     N3       NG1T1   -0.460000       14.0070           0
      5358 WT1      667      MECN     C1       CG331   -0.170000       12.0110           0
      5359 WT1      667      MECN     H11      HGA3     0.090000        1.0080           0
      5360 WT1      667      MECN     H12      HGA3     0.090000        1.0080           0
      5361 WT1      667      MECN     H13      HGA3     0.090000        1.0080           0
      5362 WT1      667      MECN     C2       CG1N1    0.360000       12.0110           0
      5363 WT1      667      MECN     N3       NG1T1   -0.460000       14.0070           0
      5364 WT1      672      MECN     C1       CG331   -0.170000       12.0110           0
      5365 WT1      672      MECN     H11      HGA3     0.090000        1.0080           0
      5366 WT1      672      MECN     H12      HGA3     0.090000        1.0080           0
      5367 WT1      672      MECN     H13      HGA3     0.090000        1.0080           0
      5368 WT1      672      MECN     C2       CG1N1    0.360000       12.0110           0
      5369 WT1      672      MECN     N3       NG1T1   -0.460000       14.0070           0
      5370 WT1      673      MECN     C1       CG331   -0.170000       12.0110           0
      5371 WT1      673      MECN     H11      HGA3     0.090000        1.0080           0
      5372 WT1      673      MECN     H12      HGA3     0.090000        1.0080           0
      5373 WT1      673      MECN     H13      HGA3     0.090000        1.0080           0
      5374 WT1      673      MECN     C2       CG1N1    0.360000       12.0110           0
      5375 WT1      673      MECN     N3       NG1T1   -0.460000       14.0070           0
      5376 WT1      680      MECN     C1       CG331   -0.170000       12.0110           0
      5377 WT1      680      MECN     H11      HGA3     0.090000        1.0080           0
      5378 WT1      680      MECN     H12      HGA3     0.090000        1.0080           0
      5379 WT1      680      MECN     H13      HGA3     0.090000        1.0080           0
      5380 WT1      680      MECN     C2       CG1N1    0.360000       12.0110           0
      5381 WT1      680      MECN     N3       NG1T1   -0.460000       14.0070           0
      5382 WT1      699      MECN     C1       CG331   -0.170000       12.0110           0
      5383 WT1      699      MECN     H11      HGA3     0.090000        1.0080           0
      5384 WT1      699      MECN     H12      HGA3     0.090000        1.0080           0
      5385 WT1      699      MECN     H13      HGA3     0.090000        1.0080           0
      5386 WT1      699      MECN     C2       CG1N1    0.360000       12.0110           0
      5387 WT1      699      MECN     N3       NG1T1   -0.460000       14.0070           0
      5388 WT1      722      MECN     C1       CG331   -0.170000       12.0110           0
      5389 WT1      722      MECN     H11      HGA3     0.090000        1.0080           0
      5390 WT1      722      MECN     H12      HGA3     0.090000        1.0080           0
      5391 WT1      722      MECN     H13      HGA3     0.090000        1.0080           0
      5392 WT1      722      MECN     C2       CG1N1    0.360000       12.0110           0
      5393 WT1      722      MECN     N3       NG1T1   -0.460000       14.0070           0
      5394 WT1      724      MECN     C1       CG331   -0.170000       12.0110           0
      5395 WT1      724      MECN     H11      HGA3     0.090000        1.0080           0
      5396 WT1      724      MECN     H12      HGA3     0.090000        1.0080           0
      5397 WT1      724      MECN     H13      HGA3     0.090000        1.0080           0
      5398 WT1      724      MECN     C2       CG1N1    0.360000       12.0110           0
      5399 WT1      724      MECN     N3       NG1T1   -0.460000       14.0070           0
      5400 WT1      726      MECN     C1       CG331   -0.170000       12.0110           0
      5401 WT1      726      MECN     H11      HGA3     0.090000        1.0080           0
      5402 WT1      726      MECN     H12      HGA3     0.090000        1.0080           0
      5403 WT1      726      MECN     H13      HGA3     0.090000        1.0080           0
      5404 WT1      726      MECN     C2       CG1N1    0.360000       12.0110           0
      5405 WT1      726      MECN     N3       NG1T1   -0.460000       14.0070           0
      5406 WT1      762      MECN     C1       CG331   -0.170000       12.0110           0
      5407 WT1      762      MECN     H11      HGA3     0.090000        1.0080           0
      5408 WT1      762      MECN     H12      HGA3     0.090000        1.0080           0
      5409 WT1      762      MECN     H13      HGA3     0.090000        1.0080           0
      5410 WT1      762      MECN     C2       CG1N1    0.360000       12.0110           0
      5411 WT1      762      MECN     N3       NG1T1   -0.460000       14.0070           0
      5412 WT1      765      MECN     C1       CG331   -0.170000       12.0110           0
      5413 WT1      765      MECN     H11      HGA3     0.090000        1.0080           0
      5414 WT1      765      MECN     H12      HGA3     0.090000        1.0080           0
      5415 WT1      765      MECN     H13      HGA3     0.090000        1.0080           0
      5416 WT1      765      MECN     C2       CG1N1    0.360000       12.0110           0
      5417 WT1      765      MECN     N3       NG1T1   -0.460000       14.0070           0
      5418 WT1      770      MECN     C1       CG331   -0.170000       12.0110           0
      5419 WT1      770      MECN     H11      HGA3     0.090000        1.0080           0
      5420 WT1      770      MECN     H12      HGA3     0.090000        1.0080           0
      5421 WT1      770      MECN     H13      HGA3     0.090000        1.0080           0
      5422 WT1      770      MECN     C2       CG1N1    0.360000       12.0110           0
      5423 WT1      770      MECN     N3       NG1T1   -0.460000       14.0070           0
      5424 WT1      774      MECN     C1       CG331   -0.170000       12.0110           0
      5425 WT1      774      MECN     H11      HGA3     0.090000        1.0080           0
      5426 WT1      774      MECN     H12      HGA3     0.090000        1.0080           0
      5427 WT1      774      MECN     H13      HGA3     0.090000        1.0080           0
      5428 WT1      774      MECN     C2       CG1N1    0.360000       12.0110           0
      5429 WT1      774      MECN     N3       NG1T1   -0.460000       14.0070           0
      5430 WT1      783      MECN     C1       CG331   -0.170000       12.0110           0
      5431 WT1      783      MECN     H11      HGA3     0.090000        1.0080           0
      5432 WT1      783      MECN     H12      HGA3     0.090000        1.0080           0
      5433 WT1      783      MECN     H13      HGA3     0.090000        1.0080           0
      5434 WT1      783      MECN     C2       CG1N1    0.360000       12.0110           0
      5435 WT1      783      MECN     N3       NG1T1   -0.460000       14.0070           0
      5436 WT1      791      MECN     C1       CG331   -0.170000       12.0110           0
      5437 WT1      791      MECN     H11      HGA3     0.090000        1.0080           0
      5438 WT1      791      MECN     H12      HGA3     0.090000        1.0080           0
      5439 WT1      791      MECN     H13      HGA3     0.090000        1.0080           0
      5440 WT1      791      MECN     C2       CG1N1    0.360000       12.0110           0
      5441 WT1      791      MECN     N3       NG1T1   -0.460000       14.0070           0
      5442 WT1      805      MECN     C1       CG331   -0.170000       12.0110           0
      5443 WT1      805      MECN     H11      HGA3     0.090000        1.0080           0
      5444 WT1      805      MECN     H12      HGA3     0.090000        1.0080           0
      5445 WT1      805      MECN     H13      HGA3     0.090000        1.0080           0
      5446 WT1      805      MECN     C2       CG1N1    0.360000       12.0110           0
      5447 WT1      805      MECN     N3       NG1T1   -0.460000       14.0070           0
      5448 WT1      807      MECN     C1       CG331   -0.170000       12.0110           0
      5449 WT1      807      MECN     H11      HGA3     0.090000        1.0080           0
      5450 WT1      807      MECN     H12      HGA3     0.090000        1.0080           0
      5451 WT1      807      MECN     H13      HGA3     0.090000        1.0080           0
      5452 WT1      807      MECN     C2       CG1N1    0.360000       12.0110           0
      5453 WT1      807      MECN     N3       NG1T1   -0.460000       14.0070           0
      5454 WT1      818      MECN     C1       CG331   -0.170000       12.0110           0
      5455 WT1      818      MECN     H11      HGA3     0.090000        1.0080           0
      5456 WT1      818      MECN     H12      HGA3     0.090000        1.0080           0
      5457 WT1      818      MECN     H13      HGA3     0.090000        1.0080           0
      5458 WT1      818      MECN     C2       CG1N1    0.360000       12.0110           0
      5459 WT1      818      MECN     N3       NG1T1   -0.460000       14.0070           0
      5460 WT1      839      MECN     C1       CG331   -0.170000       12.0110           0
      5461 WT1      839      MECN     H11      HGA3     0.090000        1.0080           0
      5462 WT1      839      MECN     H12      HGA3     0.090000        1.0080           0
      5463 WT1      839      MECN     H13      HGA3     0.090000        1.0080           0
      5464 WT1      839      MECN     C2       CG1N1    0.360000       12.0110           0
      5465 WT1      839      MECN     N3       NG1T1   -0.460000       14.0070           0
      5466 WT1      862      MECN     C1       CG331   -0.170000       12.0110           0
      5467 WT1      862      MECN     H11      HGA3     0.090000        1.0080           0
      5468 WT1      862      MECN     H12      HGA3     0.090000        1.0080           0
      5469 WT1      862      MECN     H13      HGA3     0.090000        1.0080           0
      5470 WT1      862      MECN     C2       CG1N1    0.360000       12.0110           0
      5471 WT1      862      MECN     N3       NG1T1   -0.460000       14.0070           0
      5472 WT1      866      MECN     C1       CG331   -0.170000       12.0110           0
      5473 WT1      866      MECN     H11      HGA3     0.090000        1.0080           0
      5474 WT1      866      MECN     H12      HGA3     0.090000        1.0080           0
      5475 WT1      866      MECN     H13      HGA3     0.090000        1.0080           0
      5476 WT1      866      MECN     C2       CG1N1    0.360000       12.0110           0
      5477 WT1      866      MECN     N3       NG1T1   -0.460000       14.0070           0
      5478 WT1      867      MECN     C1       CG331   -0.170000       12.0110           0
      5479 WT1      867      MECN     H11      HGA3     0.090000        1.0080           0
      5480 WT1      867      MECN     H12      HGA3     0.090000        1.0080           0
      5481 WT1      867      MECN     H13      HGA3     0.090000        1.0080           0
      5482 WT1      867      MECN     C2       CG1N1    0.360000       12.0110           0
      5483 WT1      867      MECN     N3       NG1T1   -0.460000       14.0070           0
      5484 WT1      875      MECN     C1       CG331   -0.170000       12.0110           0
      5485 WT1      875      MECN     H11      HGA3     0.090000        1.0080           0
      5486 WT1      875      MECN     H12      HGA3     0.090000        1.0080           0
      5487 WT1      875      MECN     H13      HGA3     0.090000        1.0080           0
      5488 WT1      875      MECN     C2       CG1N1    0.360000       12.0110           0
      5489 WT1      875      MECN     N3       NG1T1   -0.460000       14.0070           0
      5490 WT1      882      MECN     C1       CG331   -0.170000       12.0110           0
      5491 WT1      882      MECN     H11      HGA3     0.090000        1.0080           0
      5492 WT1      882      MECN     H12      HGA3     0.090000        1.0080           0
      5493 WT1      882      MECN     H13      HGA3     0.090000        1.0080           0
      5494 WT1      882      MECN     C2       CG1N1    0.360000       12.0110           0
      5495 WT1      882      MECN     N3       NG1T1   -0.460000       14.0070           0
      5496 WT1      897      MECN     C1       CG331   -0.170000       12.0110           0
      5497 WT1      897      MECN     H11      HGA3     0.090000        1.0080           0
      5498 WT1      897      MECN     H12      HGA3     0.090000        1.0080           0
      5499 WT1      897      MECN     H13      HGA3     0.090000        1.0080           0
      5500 WT1      897      MECN     C2       CG1N1    0.360000       12.0110           0
      5501 WT1      897      MECN     N3       NG1T1   -0.460000       14.0070           0
      5502 WT1      899      MECN     C1       CG331   -0.170000       12.0110           0
      5503 WT1      899      MECN     H11      HGA3     0.090000        1.0080           0
      5504 WT1      899      MECN     H12      HGA3     0.090000        1.0080           0
      5505 WT1      899      MECN     H13      HGA3     0.090000        1.0080           0
      5506 WT1      899      MECN     C2       CG1N1    0.360000       12.0110           0
      5507 WT1      899      MECN     N3       NG1T1   -0.460000       14.0070           0
      5508 WT1      902      MECN     C1       CG331   -0.170000       12.0110           0
      5509 WT1      902      MECN     H11      HGA3     0.090000        1.0080           0
      5510 WT1      902      MECN     H12      HGA3     0.090000        1.0080           0
      5511 WT1      902      MECN     H13      HGA3     0.090000        1.0080           0
      5512 WT1      902      MECN     C2       CG1N1    0.360000       12.0110           0
      5513 WT1      902      MECN     N3       NG1T1   -0.460000       14.0070           0
      5514 WT1      904      MECN     C1       CG331   -0.170000       12.0110           0
      5515 WT1      904      MECN     H11      HGA3     0.090000        1.0080           0
      5516 WT1      904      MECN     H12      HGA3     0.090000        1.0080           0
      5517 WT1      904      MECN     H13      HGA3     0.090000        1.0080           0
      5518 WT1      904      MECN     C2       CG1N1    0.360000       12.0110           0
      5519 WT1      904      MECN     N3       NG1T1   -0.460000       14.0070           0
      5520 WT1      914      MECN     C1       CG331   -0.170000       12.0110           0
      5521 WT1      914      MECN     H11      HGA3     0.090000        1.0080           0
      5522 WT1      914      MECN     H12      HGA3     0.090000        1.0080           0
      5523 WT1      914      MECN     H13      HGA3     0.090000        1.0080           0
      5524 WT1      914      MECN     C2       CG1N1    0.360000       12.0110           0
      5525 WT1      914      MECN     N3       NG1T1   -0.460000       14.0070           0
      5526 WT1      916      MECN     C1       CG331   -0.170000       12.0110           0
      5527 WT1      916      MECN     H11      HGA3     0.090000        1.0080           0
      5528 WT1      916      MECN     H12      HGA3     0.090000        1.0080           0
      5529 WT1      916      MECN     H13      HGA3     0.090000        1.0080           0
      5530 WT1      916      MECN     C2       CG1N1    0.360000       12.0110           0
      5531 WT1      916      MECN     N3       NG1T1   -0.460000       14.0070           0
      5532 WT1      918      MECN     C1       CG331   -0.170000       12.0110           0
      5533 WT1      918      MECN     H11      HGA3     0.090000        1.0080           0
      5534 WT1      918      MECN     H12      HGA3     0.090000        1.0080           0
      5535 WT1      918      MECN     H13      HGA3     0.090000        1.0080           0
      5536 WT1      918      MECN     C2       CG1N1    0.360000       12.0110           0
      5537 WT1      918      MECN     N3       NG1T1   -0.460000       14.0070           0
      5538 WT1      922      MECN     C1       CG331   -0.170000       12.0110           0
      5539 WT1      922      MECN     H11      HGA3     0.090000        1.0080           0
      5540 WT1      922      MECN     H12      HGA3     0.090000        1.0080           0
      5541 WT1      922      MECN     H13      HGA3     0.090000        1.0080           0
      5542 WT1      922      MECN     C2       CG1N1    0.360000       12.0110           0
      5543 WT1      922      MECN     N3       NG1T1   -0.460000       14.0070           0
      5544 WT1      934      MECN     C1       CG331   -0.170000       12.0110           0
      5545 WT1      934      MECN     H11      HGA3     0.090000        1.0080           0
      5546 WT1      934      MECN     H12      HGA3     0.090000        1.0080           0
      5547 WT1      934      MECN     H13      HGA3     0.090000        1.0080           0
      5548 WT1      934      MECN     C2       CG1N1    0.360000       12.0110           0
      5549 WT1      934      MECN     N3       NG1T1   -0.460000       14.0070           0
      5550 WT1      935      MECN     C1       CG331   -0.170000       12.0110           0
      5551 WT1      935      MECN     H11      HGA3     0.090000        1.0080           0
      5552 WT1      935      MECN     H12      HGA3     0.090000        1.0080           0
      5553 WT1      935      MECN     H13      HGA3     0.090000        1.0080           0
      5554 WT1      935      MECN     C2       CG1N1    0.360000       12.0110           0
      5555 WT1      935      MECN     N3       NG1T1   -0.460000       14.0070           0
      5556 WT1      938      MECN     C1       CG331   -0.170000       12.0110           0
      5557 WT1      938      MECN     H11      HGA3     0.090000        1.0080           0
      5558 WT1      938      MECN     H12      HGA3     0.090000        1.0080           0
      5559 WT1      938      MECN     H13      HGA3     0.090000        1.0080           0
      5560 WT1      938      MECN     C2       CG1N1    0.360000       12.0110           0
      5561 WT1      938      MECN     N3       NG1T1   -0.460000       14.0070           0
      5562 WT1      939      MECN     C1       CG331   -0.170000       12.0110           0
      5563 WT1      939      MECN     H11      HGA3     0.090000        1.0080           0
      5564 WT1      939      MECN     H12      HGA3     0.090000        1.0080           0
      5565 WT1      939      MECN     H13      HGA3     0.090000        1.0080           0
      5566 WT1      939      MECN     C2       CG1N1    0.360000       12.0110           0
      5567 WT1      939      MECN     N3       NG1T1   -0.460000       14.0070           0
      5568 WT1      943      MECN     C1       CG331   -0.170000       12.0110           0
      5569 WT1      943      MECN     H11      HGA3     0.090000        1.0080           0
      5570 WT1      943      MECN     H12      HGA3     0.090000        1.0080           0
      5571 WT1      943      MECN     H13      HGA3     0.090000        1.0080           0
      5572 WT1      943      MECN     C2       CG1N1    0.360000       12.0110           0
      5573 WT1      943      MECN     N3       NG1T1   -0.460000       14.0070           0
      5574 WT1      983      MECN     C1       CG331   -0.170000       12.0110           0
      5575 WT1      983      MECN     H11      HGA3     0.090000        1.0080           0
      5576 WT1      983      MECN     H12      HGA3     0.090000        1.0080           0
      5577 WT1      983      MECN     H13      HGA3     0.090000        1.0080           0
      5578 WT1      983      MECN     C2       CG1N1    0.360000       12.0110           0
      5579 WT1      983      MECN     N3       NG1T1   -0.460000       14.0070           0
      5580 WT1      986      MECN     C1       CG331   -0.170000       12.0110           0
      5581 WT1      986      MECN     H11      HGA3     0.090000        1.0080           0
      5582 WT1      986      MECN     H12      HGA3     0.090000        1.0080           0
      5583 WT1      986      MECN     H13      HGA3     0.090000        1.0080           0
      5584 WT1      986      MECN     C2       CG1N1    0.360000       12.0110           0
      5585 WT1      986      MECN     N3       NG1T1   -0.460000       14.0070           0
      5586 WT1      988      MECN     C1       CG331   -0.170000       12.0110           0
      5587 WT1      988      MECN     H11      HGA3     0.090000        1.0080           0
      5588 WT1      988      MECN     H12      HGA3     0.090000        1.0080           0
      5589 WT1      988      MECN     H13      HGA3     0.090000        1.0080           0
      5590 WT1      988      MECN     C2       CG1N1    0.360000       12.0110           0
      5591 WT1      988      MECN     N3       NG1T1   -0.460000       14.0070           0
      5592 WT1      999      MECN     C1       CG331   -0.170000       12.0110           0
      5593 WT1      999      MECN     H11      HGA3     0.090000        1.0080           0
      5594 WT1      999      MECN     H12      HGA3     0.090000        1.0080           0
      5595 WT1      999      MECN     H13      HGA3     0.090000        1.0080           0
      5596 WT1      999      MECN     C2       CG1N1    0.360000       12.0110           0
      5597 WT1      999      MECN     N3       NG1T1   -0.460000       14.0070           0
      5598 WT1      1006     MECN     C1       CG331   -0.170000       12.0110           0
      5599 WT1      1006     MECN     H11      HGA3     0.090000        1.0080           0
      5600 WT1      1006     MECN     H12      HGA3     0.090000        1.0080           0
      5601 WT1      1006     MECN     H13      HGA3     0.090000        1.0080           0
      5602 WT1      1006     MECN     C2       CG1N1    0.360000       12.0110           0
      5603 WT1      1006     MECN     N3       NG1T1   -0.460000       14.0070           0
      5604 WT1      1020     MECN     C1       CG331   -0.170000       12.0110           0
      5605 WT1      1020     MECN     H11      HGA3     0.090000        1.0080           0
      5606 WT1      1020     MECN     H12      HGA3     0.090000        1.0080           0
      5607 WT1      1020     MECN     H13      HGA3     0.090000        1.0080           0
      5608 WT1      1020     MECN     C2       CG1N1    0.360000       12.0110           0
      5609 WT1      1020     MECN     N3       NG1T1   -0.460000       14.0070           0
      5610 WT1      1030     MECN     C1       CG331   -0.170000       12.0110           0
      5611 WT1      1030     MECN     H11      HGA3     0.090000        1.0080           0
      5612 WT1      1030     MECN     H12      HGA3     0.090000        1.0080           0
      5613 WT1      1030     MECN     H13      HGA3     0.090000        1.0080           0
      5614 WT1      1030     MECN     C2       CG1N1    0.360000       12.0110           0
      5615 WT1      1030     MECN     N3       NG1T1   -0.460000       14.0070           0
      5616 WT1      1050     MECN     C1       CG331   -0.170000       12.0110           0
      5617 WT1      1050     MECN     H11      HGA3     0.090000        1.0080           0
      5618 WT1      1050     MECN     H12      HGA3     0.090000        1.0080           0
      5619 WT1      1050     MECN     H13      HGA3     0.090000        1.0080           0
      5620 WT1      1050     MECN     C2       CG1N1    0.360000       12.0110           0
      5621 WT1      1050     MECN     N3       NG1T1   -0.460000       14.0070           0
      5622 WT1      1054     MECN     C1       CG331   -0.170000       12.0110           0
      5623 WT1      1054     MECN     H11      HGA3     0.090000        1.0080           0
      5624 WT1      1054     MECN     H12      HGA3     0.090000        1.0080           0
      5625 WT1      1054     MECN     H13      HGA3     0.090000        1.0080           0
      5626 WT1      1054     MECN     C2       CG1N1    0.360000       12.0110           0
      5627 WT1      1054     MECN     N3       NG1T1   -0.460000       14.0070           0
      5628 WT1      1098     MECN     C1       CG331   -0.170000       12.0110           0
      5629 WT1      1098     MECN     H11      HGA3     0.090000        1.0080           0
      5630 WT1      1098     MECN     H12      HGA3     0.090000        1.0080           0
      5631 WT1      1098     MECN     H13      HGA3     0.090000        1.0080           0
      5632 WT1      1098     MECN     C2       CG1N1    0.360000       12.0110           0
      5633 WT1      1098     MECN     N3       NG1T1   -0.460000       14.0070           0
      5634 WT1      1099     MECN     C1       CG331   -0.170000       12.0110           0
      5635 WT1      1099     MECN     H11      HGA3     0.090000        1.0080           0
      5636 WT1      1099     MECN     H12      HGA3     0.090000        1.0080           0
      5637 WT1      1099     MECN     H13      HGA3     0.090000        1.0080           0
      5638 WT1      1099     MECN     C2       CG1N1    0.360000       12.0110           0
      5639 WT1      1099     MECN     N3       NG1T1   -0.460000       14.0070           0
      5640 WT1      1115     MECN     C1       CG331   -0.170000       12.0110           0
      5641 WT1      1115     MECN     H11      HGA3     0.090000        1.0080           0
      5642 WT1      1115     MECN     H12      HGA3     0.090000        1.0080           0
      5643 WT1      1115     MECN     H13      HGA3     0.090000        1.0080           0
      5644 WT1      1115     MECN     C2       CG1N1    0.360000       12.0110           0
      5645 WT1      1115     MECN     N3       NG1T1   -0.460000       14.0070           0
      5646 WT1      1121     MECN     C1       CG331   -0.170000       12.0110           0
      5647 WT1      1121     MECN     H11      HGA3     0.090000        1.0080           0
      5648 WT1      1121     MECN     H12      HGA3     0.090000        1.0080           0
      5649 WT1      1121     MECN     H13      HGA3     0.090000        1.0080           0
      5650 WT1      1121     MECN     C2       CG1N1    0.360000       12.0110           0
      5651 WT1      1121     MECN     N3       NG1T1   -0.460000       14.0070           0
      5652 WT1      1136     MECN     C1       CG331   -0.170000       12.0110           0
      5653 WT1      1136     MECN     H11      HGA3     0.090000        1.0080           0
      5654 WT1      1136     MECN     H12      HGA3     0.090000        1.0080           0
      5655 WT1      1136     MECN     H13      HGA3     0.090000        1.0080           0
      5656 WT1      1136     MECN     C2       CG1N1    0.360000       12.0110           0
      5657 WT1      1136     MECN     N3       NG1T1   -0.460000       14.0070           0
      5658 WT1      1143     MECN     C1       CG331   -0.170000       12.0110           0
      5659 WT1      1143     MECN     H11      HGA3     0.090000        1.0080           0
      5660 WT1      1143     MECN     H12      HGA3     0.090000        1.0080           0
      5661 WT1      1143     MECN     H13      HGA3     0.090000        1.0080           0
      5662 WT1      1143     MECN     C2       CG1N1    0.360000       12.0110           0
      5663 WT1      1143     MECN     N3       NG1T1   -0.460000       14.0070           0
      5664 WT1      1178     MECN     C1       CG331   -0.170000       12.0110           0
      5665 WT1      1178     MECN     H11      HGA3     0.090000        1.0080           0
      5666 WT1      1178     MECN     H12      HGA3     0.090000        1.0080           0
      5667 WT1      1178     MECN     H13      HGA3     0.090000        1.0080           0
      5668 WT1      1178     MECN     C2       CG1N1    0.360000       12.0110           0
      5669 WT1      1178     MECN     N3       NG1T1   -0.460000       14.0070           0
      5670 WT1      1195     MECN     C1       CG331   -0.170000       12.0110           0
      5671 WT1      1195     MECN     H11      HGA3     0.090000        1.0080           0
      5672 WT1      1195     MECN     H12      HGA3     0.090000        1.0080           0
      5673 WT1      1195     MECN     H13      HGA3     0.090000        1.0080           0
      5674 WT1      1195     MECN     C2       CG1N1    0.360000       12.0110           0
      5675 WT1      1195     MECN     N3       NG1T1   -0.460000       14.0070           0
      5676 WT1      1207     MECN     C1       CG331   -0.170000       12.0110           0
      5677 WT1      1207     MECN     H11      HGA3     0.090000        1.0080           0
      5678 WT1      1207     MECN     H12      HGA3     0.090000        1.0080           0
      5679 WT1      1207     MECN     H13      HGA3     0.090000        1.0080           0
      5680 WT1      1207     MECN     C2       CG1N1    0.360000       12.0110           0
      5681 WT1      1207     MECN     N3       NG1T1   -0.460000       14.0070           0
      5682 WT1      1215     MECN     C1       CG331   -0.170000       12.0110           0
      5683 WT1      1215     MECN     H11      HGA3     0.090000        1.0080           0
      5684 WT1      1215     MECN     H12      HGA3     0.090000        1.0080           0
      5685 WT1      1215     MECN     H13      HGA3     0.090000        1.0080           0
      5686 WT1      1215     MECN     C2       CG1N1    0.360000       12.0110           0
      5687 WT1      1215     MECN     N3       NG1T1   -0.460000       14.0070           0
      5688 WT1      1228     MECN     C1       CG331   -0.170000       12.0110           0
      5689 WT1      1228     MECN     H11      HGA3     0.090000        1.0080           0
      5690 WT1      1228     MECN     H12      HGA3     0.090000        1.0080           0
      5691 WT1      1228     MECN     H13      HGA3     0.090000        1.0080           0
      5692 WT1      1228     MECN     C2       CG1N1    0.360000       12.0110           0
      5693 WT1      1228     MECN     N3       NG1T1   -0.460000       14.0070           0
      5694 WT1      1236     MECN     C1       CG331   -0.170000       12.0110           0
      5695 WT1      1236     MECN     H11      HGA3     0.090000        1.0080           0
      5696 WT1      1236     MECN     H12      HGA3     0.090000        1.0080           0
      5697 WT1      1236     MECN     H13      HGA3     0.090000        1.0080           0
      5698 WT1      1236     MECN     C2       CG1N1    0.360000       12.0110           0
      5699 WT1      1236     MECN     N3       NG1T1   -0.460000       14.0070           0
      5700 WT1      1242     MECN     C1       CG331   -0.170000       12.0110           0
      5701 WT1      1242     MECN     H11      HGA3     0.090000        1.0080           0
      5702 WT1      1242     MECN     H12      HGA3     0.090000        1.0080           0
      5703 WT1      1242     MECN     H13      HGA3     0.090000        1.0080           0
      5704 WT1      1242     MECN     C2       CG1N1    0.360000       12.0110           0
      5705 WT1      1242     MECN     N3       NG1T1   -0.460000       14.0070           0
      5706 WT1      1245     MECN     C1       CG331   -0.170000       12.0110           0
      5707 WT1      1245     MECN     H11      HGA3     0.090000        1.0080           0
      5708 WT1      1245     MECN     H12      HGA3     0.090000        1.0080           0
      5709 WT1      1245     MECN     H13      HGA3     0.090000        1.0080           0
      5710 WT1      1245     MECN     C2       CG1N1    0.360000       12.0110           0
      5711 WT1      1245     MECN     N3       NG1T1   -0.460000       14.0070           0
      5712 WT1      1246     MECN     C1       CG331   -0.170000       12.0110           0
      5713 WT1      1246     MECN     H11      HGA3     0.090000        1.0080           0
      5714 WT1      1246     MECN     H12      HGA3     0.090000        1.0080           0
      5715 WT1      1246     MECN     H13      HGA3     0.090000        1.0080           0
      5716 WT1      1246     MECN     C2       CG1N1    0.360000       12.0110           0
      5717 WT1      1246     MECN     N3       NG1T1   -0.460000       14.0070           0
      5718 WT1      1267     MECN     C1       CG331   -0.170000       12.0110           0
      5719 WT1      1267     MECN     H11      HGA3     0.090000        1.0080           0
      5720 WT1      1267     MECN     H12      HGA3     0.090000        1.0080           0
      5721 WT1      1267     MECN     H13      HGA3     0.090000        1.0080           0
      5722 WT1      1267     MECN     C2       CG1N1    0.360000       12.0110           0
      5723 WT1      1267     MECN     N3       NG1T1   -0.460000       14.0070           0
      5724 WT1      1270     MECN     C1       CG331   -0.170000       12.0110           0
      5725 WT1      1270     MECN     H11      HGA3     0.090000        1.0080           0
      5726 WT1      1270     MECN     H12      HGA3     0.090000        1.0080           0
      5727 WT1      1270     MECN     H13      HGA3     0.090000        1.0080           0
      5728 WT1      1270     MECN     C2       CG1N1    0.360000       12.0110           0
      5729 WT1      1270     MECN     N3       NG1T1   -0.460000       14.0070           0
      5730 WT1      1281     MECN     C1       CG331   -0.170000       12.0110           0
      5731 WT1      1281     MECN     H11      HGA3     0.090000        1.0080           0
      5732 WT1      1281     MECN     H12      HGA3     0.090000        1.0080           0
      5733 WT1      1281     MECN     H13      HGA3     0.090000        1.0080           0
      5734 WT1      1281     MECN     C2       CG1N1    0.360000       12.0110           0
      5735 WT1      1281     MECN     N3       NG1T1   -0.460000       14.0070           0
      5736 WT1      1287     MECN     C1       CG331   -0.170000       12.0110           0
      5737 WT1      1287     MECN     H11      HGA3     0.090000        1.0080           0
      5738 WT1      1287     MECN     H12      HGA3     0.090000        1.0080           0
      5739 WT1      1287     MECN     H13      HGA3     0.090000        1.0080           0
      5740 WT1      1287     MECN     C2       CG1N1    0.360000       12.0110           0
      5741 WT1      1287     MECN     N3       NG1T1   -0.460000       14.0070           0
      5742 WT1      1294     MECN     C1       CG331   -0.170000       12.0110           0
      5743 WT1      1294     MECN     H11      HGA3     0.090000        1.0080           0
      5744 WT1      1294     MECN     H12      HGA3     0.090000        1.0080           0
      5745 WT1      1294     MECN     H13      HGA3     0.090000        1.0080           0
      5746 WT1      1294     MECN     C2       CG1N1    0.360000       12.0110           0
      5747 WT1      1294     MECN     N3       NG1T1   -0.460000       14.0070           0
      5748 WT1      1296     MECN     C1       CG331   -0.170000       12.0110           0
      5749 WT1      1296     MECN     H11      HGA3     0.090000        1.0080           0
      5750 WT1      1296     MECN     H12      HGA3     0.090000        1.0080           0
      5751 WT1      1296     MECN     H13      HGA3     0.090000        1.0080           0
      5752 WT1      1296     MECN     C2       CG1N1    0.360000       12.0110           0
      5753 WT1      1296     MECN     N3       NG1T1   -0.460000       14.0070           0
      5754 WT1      1304     MECN     C1       CG331   -0.170000       12.0110           0
      5755 WT1      1304     MECN     H11      HGA3     0.090000        1.0080           0
      5756 WT1      1304     MECN     H12      HGA3     0.090000        1.0080           0
      5757 WT1      1304     MECN     H13      HGA3     0.090000        1.0080           0
      5758 WT1      1304     MECN     C2       CG1N1    0.360000       12.0110           0
      5759 WT1      1304     MECN     N3       NG1T1   -0.460000       14.0070           0
      5760 WT1      1310     MECN     C1       CG331   -0.170000       12.0110           0
      5761 WT1      1310     MECN     H11      HGA3     0.090000        1.0080           0
      5762 WT1      1310     MECN     H12      HGA3     0.090000        1.0080           0
      5763 WT1      1310     MECN     H13      HGA3     0.090000        1.0080           0
      5764 WT1      1310     MECN     C2       CG1N1    0.360000       12.0110           0
      5765 WT1      1310     MECN     N3       NG1T1   -0.460000       14.0070           0
      5766 WT1      1321     MECN     C1       CG331   -0.170000       12.0110           0
      5767 WT1      1321     MECN     H11      HGA3     0.090000        1.0080           0
      5768 WT1      1321     MECN     H12      HGA3     0.090000        1.0080           0
      5769 WT1      1321     MECN     H13      HGA3     0.090000        1.0080           0
      5770 WT1      1321     MECN     C2       CG1N1    0.360000       12.0110           0
      5771 WT1      1321     MECN     N3       NG1T1   -0.460000       14.0070           0
      5772 WT1      1322     MECN     C1       CG331   -0.170000       12.0110           0
      5773 WT1      1322     MECN     H11      HGA3     0.090000        1.0080           0
      5774 WT1      1322     MECN     H12      HGA3     0.090000        1.0080           0
      5775 WT1      1322     MECN     H13      HGA3     0.090000        1.0080           0
      5776 WT1      1322     MECN     C2       CG1N1    0.360000       12.0110           0
      5777 WT1      1322     MECN     N3       NG1T1   -0.460000       14.0070           0
      5778 WT1      1326     MECN     C1       CG331   -0.170000       12.0110           0
      5779 WT1      1326     MECN     H11      HGA3     0.090000        1.0080           0
      5780 WT1      1326     MECN     H12      HGA3     0.090000        1.0080           0
      5781 WT1      1326     MECN     H13      HGA3     0.090000        1.0080           0
      5782 WT1      1326     MECN     C2       CG1N1    0.360000       12.0110           0
      5783 WT1      1326     MECN     N3       NG1T1   -0.460000       14.0070           0
      5784 WT2      3        MECN     C1       CG331   -0.170000       12.0110           0
      5785 WT2      3        MECN     H11      HGA3     0.090000        1.0080           0
      5786 WT2      3        MECN     H12      HGA3     0.090000        1.0080           0
      5787 WT2      3        MECN     H13      HGA3     0.090000        1.0080           0
      5788 WT2      3        MECN     C2       CG1N1    0.360000       12.0110           0
      5789 WT2      3        MECN     N3       NG1T1   -0.460000       14.0070           0
      5790 WT2      9        MECN     C1       CG331   -0.170000       12.0110           0
      5791 WT2      9        MECN     H11      HGA3     0.090000        1.0080           0
      5792 WT2      9        MECN     H12      HGA3     0.090000        1.0080           0
      5793 WT2      9        MECN     H13      HGA3     0.090000        1.0080           0
      5794 WT2      9        MECN     C2       CG1N1    0.360000       12.0110           0
      5795 WT2      9        MECN     N3       NG1T1   -0.460000       14.0070           0
      5796 WT2      10       MECN     C1       CG331   -0.170000       12.0110           0
      5797 WT2      10       MECN     H11      HGA3     0.090000        1.0080           0
      5798 WT2      10       MECN     H12      HGA3     0.090000        1.0080           0
      5799 WT2      10       MECN     H13      HGA3     0.090000        1.0080           0
      5800 WT2      10       MECN     C2       CG1N1    0.360000       12.0110           0
      5801 WT2      10       MECN     N3       NG1T1   -0.460000       14.0070           0
      5802 WT2      12       MECN     C1       CG331   -0.170000       12.0110           0
      5803 WT2      12       MECN     H11      HGA3     0.090000        1.0080           0
      5804 WT2      12       MECN     H12      HGA3     0.090000        1.0080           0
      5805 WT2      12       MECN     H13      HGA3     0.090000        1.0080           0
      5806 WT2      12       MECN     C2       CG1N1    0.360000       12.0110           0
      5807 WT2      12       MECN     N3       NG1T1   -0.460000       14.0070           0
      5808 WT2      14       MECN     C1       CG331   -0.170000       12.0110           0
      5809 WT2      14       MECN     H11      HGA3     0.090000        1.0080           0
      5810 WT2      14       MECN     H12      HGA3     0.090000        1.0080           0
      5811 WT2      14       MECN     H13      HGA3     0.090000        1.0080           0
      5812 WT2      14       MECN     C2       CG1N1    0.360000       12.0110           0
      5813 WT2      14       MECN     N3       NG1T1   -0.460000       14.0070           0
      5814 WT2      16       MECN     C1       CG331   -0.170000       12.0110           0
      5815 WT2      16       MECN     H11      HGA3     0.090000        1.0080           0
      5816 WT2      16       MECN     H12      HGA3     0.090000        1.0080           0
      5817 WT2      16       MECN     H13      HGA3     0.090000        1.0080           0
      5818 WT2      16       MECN     C2       CG1N1    0.360000       12.0110           0
      5819 WT2      16       MECN     N3       NG1T1   -0.460000       14.0070           0
      5820 WT2      21       MECN     C1       CG331   -0.170000       12.0110           0
      5821 WT2      21       MECN     H11      HGA3     0.090000        1.0080           0
      5822 WT2      21       MECN     H12      HGA3     0.090000        1.0080           0
      5823 WT2      21       MECN     H13      HGA3     0.090000        1.0080           0
      5824 WT2      21       MECN     C2       CG1N1    0.360000       12.0110           0
      5825 WT2      21       MECN     N3       NG1T1   -0.460000       14.0070           0
      5826 WT2      22       MECN     C1       CG331   -0.170000       12.0110           0
      5827 WT2      22       MECN     H11      HGA3     0.090000        1.0080           0
      5828 WT2      22       MECN     H12      HGA3     0.090000        1.0080           0
      5829 WT2      22       MECN     H13      HGA3     0.090000        1.0080           0
      5830 WT2      22       MECN     C2       CG1N1    0.360000       12.0110           0
      5831 WT2      22       MECN     N3       NG1T1   -0.460000       14.0070           0
      5832 WT2      27       MECN     C1       CG331   -0.170000       12.0110           0
      5833 WT2      27       MECN     H11      HGA3     0.090000        1.0080           0
      5834 WT2      27       MECN     H12      HGA3     0.090000        1.0080           0
      5835 WT2      27       MECN     H13      HGA3     0.090000        1.0080           0
      5836 WT2      27       MECN     C2       CG1N1    0.360000       12.0110           0
      5837 WT2      27       MECN     N3       NG1T1   -0.460000       14.0070           0
      5838 WT2      31       MECN     C1       CG331   -0.170000       12.0110           0
      5839 WT2      31       MECN     H11      HGA3     0.090000        1.0080           0
      5840 WT2      31       MECN     H12      HGA3     0.090000        1.0080           0
      5841 WT2      31       MECN     H13      HGA3     0.090000        1.0080           0
      5842 WT2      31       MECN     C2       CG1N1    0.360000       12.0110           0
      5843 WT2      31       MECN     N3       NG1T1   -0.460000       14.0070           0
      5844 WT2      44       MECN     C1       CG331   -0.170000       12.0110           0
      5845 WT2      44       MECN     H11      HGA3     0.090000        1.0080           0
      5846 WT2      44       MECN     H12      HGA3     0.090000        1.0080           0
      5847 WT2      44       MECN     H13      HGA3     0.090000        1.0080           0
      5848 WT2      44       MECN     C2       CG1N1    0.360000       12.0110           0
      5849 WT2      44       MECN     N3       NG1T1   -0.460000       14.0070           0
      5850 WT2      50       MECN     C1       CG331   -0.170000       12.0110           0
      5851 WT2      50       MECN     H11      HGA3     0.090000        1.0080           0
      5852 WT2      50       MECN     H12      HGA3     0.090000        1.0080           0
      5853 WT2      50       MECN     H13      HGA3     0.090000        1.0080           0
      5854 WT2      50       MECN     C2       CG1N1    0.360000       12.0110           0
      5855 WT2      50       MECN     N3       NG1T1   -0.460000       14.0070           0
      5856 WT2      54       MECN     C1       CG331   -0.170000       12.0110           0
      5857 WT2      54       MECN     H11      HGA3     0.090000        1.0080           0
      5858 WT2      54       MECN     H12      HGA3     0.090000        1.0080           0
      5859 WT2      54       MECN     H13      HGA3     0.090000        1.0080           0
      5860 WT2      54       MECN     C2       CG1N1    0.360000       12.0110           0
      5861 WT2      54       MECN     N3       NG1T1   -0.460000       14.0070           0
      5862 WT2      58       MECN     C1       CG331   -0.170000       12.0110           0
      5863 WT2      58       MECN     H11      HGA3     0.090000        1.0080           0
      5864 WT2      58       MECN     H12      HGA3     0.090000        1.0080           0
      5865 WT2      58       MECN     H13      HGA3     0.090000        1.0080           0
      5866 WT2      58       MECN     C2       CG1N1    0.360000       12.0110           0
      5867 WT2      58       MECN     N3       NG1T1   -0.460000       14.0070           0
      5868 WT2      64       MECN     C1       CG331   -0.170000       12.0110           0
      5869 WT2      64       MECN     H11      HGA3     0.090000        1.0080           0
      5870 WT2      64       MECN     H12      HGA3     0.090000        1.0080           0
      5871 WT2      64       MECN     H13      HGA3     0.090000        1.0080           0
      5872 WT2      64       MECN     C2       CG1N1    0.360000       12.0110           0
      5873 WT2      64       MECN     N3       NG1T1   -0.460000       14.0070           0
      5874 WT2      65       MECN     C1       CG331   -0.170000       12.0110           0
      5875 WT2      65       MECN     H11      HGA3     0.090000        1.0080           0
      5876 WT2      65       MECN     H12      HGA3     0.090000        1.0080           0
      5877 WT2      65       MECN     H13      HGA3     0.090000        1.0080           0
      5878 WT2      65       MECN     C2       CG1N1    0.360000       12.0110           0
      5879 WT2      65       MECN     N3       NG1T1   -0.460000       14.0070           0
      5880 WT2      70       MECN     C1       CG331   -0.170000       12.0110           0
      5881 WT2      70       MECN     H11      HGA3     0.090000        1.0080           0
      5882 WT2      70       MECN     H12      HGA3     0.090000        1.0080           0
      5883 WT2      70       MECN     H13      HGA3     0.090000        1.0080           0
      5884 WT2      70       MECN     C2       CG1N1    0.360000       12.0110           0
      5885 WT2      70       MECN     N3       NG1T1   -0.460000       14.0070           0
      5886 WT2      71       MECN     C1       CG331   -0.170000       12.0110           0
      5887 WT2      71       MECN     H11      HGA3     0.090000        1.0080           0
      5888 WT2      71       MECN     H12      HGA3     0.090000        1.0080           0
      5889 WT2      71       MECN     H13      HGA3     0.090000        1.0080           0
      5890 WT2      71       MECN     C2       CG1N1    0.360000       12.0110           0
      5891 WT2      71       MECN     N3       NG1T1   -0.460000       14.0070           0
      5892 WT2      74       MECN     C1       CG331   -0.170000       12.0110           0
      5893 WT2      74       MECN     H11      HGA3     0.090000        1.0080           0
      5894 WT2      74       MECN     H12      HGA3     0.090000        1.0080           0
      5895 WT2      74       MECN     H13      HGA3     0.090000        1.0080           0
      5896 WT2      74       MECN     C2       CG1N1    0.360000       12.0110           0
      5897 WT2      74       MECN     N3       NG1T1   -0.460000       14.0070           0
      5898 WT2      76       MECN     C1       CG331   -0.170000       12.0110           0
      5899 WT2      76       MECN     H11      HGA3     0.090000        1.0080           0
      5900 WT2      76       MECN     H12      HGA3     0.090000        1.0080           0
      5901 WT2      76       MECN     H13      HGA3     0.090000        1.0080           0
      5902 WT2      76       MECN     C2       CG1N1    0.360000       12.0110           0
      5903 WT2      76       MECN     N3       NG1T1   -0.460000       14.0070           0
      5904 WT2      79       MECN     C1       CG331   -0.170000       12.0110           0
      5905 WT2      79       MECN     H11      HGA3     0.090000        1.0080           0
      5906 WT2      79       MECN     H12      HGA3     0.090000        1.0080           0
      5907 WT2      79       MECN     H13      HGA3     0.090000        1.0080           0
      5908 WT2      79       MECN     C2       CG1N1    0.360000       12.0110           0
      5909 WT2      79       MECN     N3       NG1T1   -0.460000       14.0070           0
      5910 WT2      81       MECN     C1       CG331   -0.170000       12.0110           0
      5911 WT2      81       MECN     H11      HGA3     0.090000        1.0080           0
      5912 WT2      81       MECN     H12      HGA3     0.090000        1.0080           0
      5913 WT2      81       MECN     H13      HGA3     0.090000        1.0080           0
      5914 WT2      81       MECN     C2       CG1N1    0.360000       12.0110           0
      5915 WT2      81       MECN     N3       NG1T1   -0.460000       14.0070           0
      5916 WT2      85       MECN     C1       CG331   -0.170000       12.0110           0
      5917 WT2      85       MECN     H11      HGA3     0.090000        1.0080           0
      5918 WT2      85       MECN     H12      HGA3     0.090000        1.0080           0
      5919 WT2      85       MECN     H13      HGA3     0.090000        1.0080           0
      5920 WT2      85       MECN     C2       CG1N1    0.360000       12.0110           0
      5921 WT2      85       MECN     N3       NG1T1   -0.460000       14.0070           0
      5922 WT2      87       MECN     C1       CG331   -0.170000       12.0110           0
      5923 WT2      87       MECN     H11      HGA3     0.090000        1.0080           0
      5924 WT2      87       MECN     H12      HGA3     0.090000        1.0080           0
      5925 WT2      87       MECN     H13      HGA3     0.090000        1.0080           0
      5926 WT2      87       MECN     C2       CG1N1    0.360000       12.0110           0
      5927 WT2      87       MECN     N3       NG1T1   -0.460000       14.0070           0
      5928 WT2      98       MECN     C1       CG331   -0.170000       12.0110           0
      5929 WT2      98       MECN     H11      HGA3     0.090000        1.0080           0
      5930 WT2      98       MECN     H12      HGA3     0.090000        1.0080           0
      5931 WT2      98       MECN     H13      HGA3     0.090000        1.0080           0
      5932 WT2      98       MECN     C2       CG1N1    0.360000       12.0110           0
      5933 WT2      98       MECN     N3       NG1T1   -0.460000       14.0070           0
      5934 WT2      105      MECN     C1       CG331   -0.170000       12.0110           0
      5935 WT2      105      MECN     H11      HGA3     0.090000        1.0080           0
      5936 WT2      105      MECN     H12      HGA3     0.090000        1.0080           0
      5937 WT2      105      MECN     H13      HGA3     0.090000        1.0080           0
      5938 WT2      105      MECN     C2       CG1N1    0.360000       12.0110           0
      5939 WT2      105      MECN     N3       NG1T1   -0.460000       14.0070           0
      5940 WT2      109      MECN     C1       CG331   -0.170000       12.0110           0
      5941 WT2      109      MECN     H11      HGA3     0.090000        1.0080           0
      5942 WT2      109      MECN     H12      HGA3     0.090000        1.0080           0
      5943 WT2      109      MECN     H13      HGA3     0.090000        1.0080           0
      5944 WT2      109      MECN     C2       CG1N1    0.360000       12.0110           0
      5945 WT2      109      MECN     N3       NG1T1   -0.460000       14.0070           0
      5946 WT2      110      MECN     C1       CG331   -0.170000       12.0110           0
      5947 WT2      110      MECN     H11      HGA3     0.090000        1.0080           0
      5948 WT2      110      MECN     H12      HGA3     0.090000        1.0080           0
      5949 WT2      110      MECN     H13      HGA3     0.090000        1.0080           0
      5950 WT2      110      MECN     C2       CG1N1    0.360000       12.0110           0
      5951 WT2      110      MECN     N3       NG1T1   -0.460000       14.0070           0
      5952 WT2      112      MECN     C1       CG331   -0.170000       12.0110           0
      5953 WT2      112      MECN     H11      HGA3     0.090000        1.0080           0
      5954 WT2      112      MECN     H12      HGA3     0.090000        1.0080           0
      5955 WT2      112      MECN     H13      HGA3     0.090000        1.0080           0
      5956 WT2      112      MECN     C2       CG1N1    0.360000       12.0110           0
      5957 WT2      112      MECN     N3       NG1T1   -0.460000       14.0070           0
      5958 WT2      113      MECN     C1       CG331   -0.170000       12.0110           0
      5959 WT2      113      MECN     H11      HGA3     0.090000        1.0080           0
      5960 WT2      113      MECN     H12      HGA3     0.090000        1.0080           0
      5961 WT2      113      MECN     H13      HGA3     0.090000        1.0080           0
      5962 WT2      113      MECN     C2       CG1N1    0.360000       12.0110           0
      5963 WT2      113      MECN     N3       NG1T1   -0.460000       14.0070           0
      5964 WT2      120      MECN     C1       CG331   -0.170000       12.0110           0
      5965 WT2      120      MECN     H11      HGA3     0.090000        1.0080           0
      5966 WT2      120      MECN     H12      HGA3     0.090000        1.0080           0
      5967 WT2      120      MECN     H13      HGA3     0.090000        1.0080           0
      5968 WT2      120      MECN     C2       CG1N1    0.360000       12.0110           0
      5969 WT2      120      MECN     N3       NG1T1   -0.460000       14.0070           0
      5970 WT2      123      MECN     C1       CG331   -0.170000       12.0110           0
      5971 WT2      123      MECN     H11      HGA3     0.090000        1.0080           0
      5972 WT2      123      MECN     H12      HGA3     0.090000        1.0080           0
      5973 WT2      123      MECN     H13      HGA3     0.090000        1.0080           0
      5974 WT2      123      MECN     C2       CG1N1    0.360000       12.0110           0
      5975 WT2      123      MECN     N3       NG1T1   -0.460000       14.0070           0
      5976 WT2      125      MECN     C1       CG331   -0.170000       12.0110           0
      5977 WT2      125      MECN     H11      HGA3     0.090000        1.0080           0
      5978 WT2      125      MECN     H12      HGA3     0.090000        1.0080           0
      5979 WT2      125      MECN     H13      HGA3     0.090000        1.0080           0
      5980 WT2      125      MECN     C2       CG1N1    0.360000       12.0110           0
      5981 WT2      125      MECN     N3       NG1T1   -0.460000       14.0070           0
      5982 WT2      127      MECN     C1       CG331   -0.170000       12.0110           0
      5983 WT2      127      MECN     H11      HGA3     0.090000        1.0080           0
      5984 WT2      127      MECN     H12      HGA3     0.090000        1.0080           0
      5985 WT2      127      MECN     H13      HGA3     0.090000        1.0080           0
      5986 WT2      127      MECN     C2       CG1N1    0.360000       12.0110           0
      5987 WT2      127      MECN     N3       NG1T1   -0.460000       14.0070           0
      5988 WT2      132      MECN     C1       CG331   -0.170000       12.0110           0
      5989 WT2      132      MECN     H11      HGA3     0.090000        1.0080           0
      5990 WT2      132      MECN     H12      HGA3     0.090000        1.0080           0
      5991 WT2      132      MECN     H13      HGA3     0.090000        1.0080           0
      5992 WT2      132      MECN     C2       CG1N1    0.360000       12.0110           0
      5993 WT2      132      MECN     N3       NG1T1   -0.460000       14.0070           0
      5994 WT2      138      MECN     C1       CG331   -0.170000       12.0110           0
      5995 WT2      138      MECN     H11      HGA3     0.090000        1.0080           0
      5996 WT2      138      MECN     H12      HGA3     0.090000        1.0080           0
      5997 WT2      138      MECN     H13      HGA3     0.090000        1.0080           0
      5998 WT2      138      MECN     C2       CG1N1    0.360000       12.0110           0
      5999 WT2      138      MECN     N3       NG1T1   -0.460000       14.0070           0
      6000 WT2      155      MECN     C1       CG331   -0.170000       12.0110           0
      6001 WT2      155      MECN     H11      HGA3     0.090000        1.0080           0
      6002 WT2      155      MECN     H12      HGA3     0.090000        1.0080           0
      6003 WT2      155      MECN     H13      HGA3     0.090000        1.0080           0
      6004 WT2      155      MECN     C2       CG1N1    0.360000       12.0110           0
      6005 WT2      155      MECN     N3       NG1T1   -0.460000       14.0070           0
      6006 WT2      169      MECN     C1       CG331   -0.170000       12.0110           0
      6007 WT2      169      MECN     H11      HGA3     0.090000        1.0080           0
      6008 WT2      169      MECN     H12      HGA3     0.090000        1.0080           0
      6009 WT2      169      MECN     H13      HGA3     0.090000        1.0080           0
      6010 WT2      169      MECN     C2       CG1N1    0.360000       12.0110           0
      6011 WT2      169      MECN     N3       NG1T1   -0.460000       14.0070           0
      6012 WT2      171      MECN     C1       CG331   -0.170000       12.0110           0
      6013 WT2      171      MECN     H11      HGA3     0.090000        1.0080           0
      6014 WT2      171      MECN     H12      HGA3     0.090000        1.0080           0
      6015 WT2      171      MECN     H13      HGA3     0.090000        1.0080           0
      6016 WT2      171      MECN     C2       CG1N1    0.360000       12.0110           0
      6017 WT2      171      MECN     N3       NG1T1   -0.460000       14.0070           0
      6018 WT2      172      MECN     C1       CG331   -0.170000       12.0110           0
      6019 WT2      172      MECN     H11      HGA3     0.090000        1.0080           0
      6020 WT2      172      MECN     H12      HGA3     0.090000        1.0080           0
      6021 WT2      172      MECN     H13      HGA3     0.090000        1.0080           0
      6022 WT2      172      MECN     C2       CG1N1    0.360000       12.0110           0
      6023 WT2      172      MECN     N3       NG1T1   -0.460000       14.0070           0
      6024 WT2      174      MECN     C1       CG331   -0.170000       12.0110           0
      6025 WT2      174      MECN     H11      HGA3     0.090000        1.0080           0
      6026 WT2      174      MECN     H12      HGA3     0.090000        1.0080           0
      6027 WT2      174      MECN     H13      HGA3     0.090000        1.0080           0
      6028 WT2      174      MECN     C2       CG1N1    0.360000       12.0110           0
      6029 WT2      174      MECN     N3       NG1T1   -0.460000       14.0070           0
      6030 WT2      183      MECN     C1       CG331   -0.170000       12.0110           0
      6031 WT2      183      MECN     H11      HGA3     0.090000        1.0080           0
      6032 WT2      183      MECN     H12      HGA3     0.090000        1.0080           0
      6033 WT2      183      MECN     H13      HGA3     0.090000        1.0080           0
      6034 WT2      183      MECN     C2       CG1N1    0.360000       12.0110           0
      6035 WT2      183      MECN     N3       NG1T1   -0.460000       14.0070           0
      6036 WT2      185      MECN     C1       CG331   -0.170000       12.0110           0
      6037 WT2      185      MECN     H11      HGA3     0.090000        1.0080           0
      6038 WT2      185      MECN     H12      HGA3     0.090000        1.0080           0
      6039 WT2      185      MECN     H13      HGA3     0.090000        1.0080           0
      6040 WT2      185      MECN     C2       CG1N1    0.360000       12.0110           0
      6041 WT2      185      MECN     N3       NG1T1   -0.460000       14.0070           0
      6042 WT2      197      MECN     C1       CG331   -0.170000       12.0110           0
      6043 WT2      197      MECN     H11      HGA3     0.090000        1.0080           0
      6044 WT2      197      MECN     H12      HGA3     0.090000        1.0080           0
      6045 WT2      197      MECN     H13      HGA3     0.090000        1.0080           0
      6046 WT2      197      MECN     C2       CG1N1    0.360000       12.0110           0
      6047 WT2      197      MECN     N3       NG1T1   -0.460000       14.0070           0
      6048 WT2      209      MECN     C1       CG331   -0.170000       12.0110           0
      6049 WT2      209      MECN     H11      HGA3     0.090000        1.0080           0
      6050 WT2      209      MECN     H12      HGA3     0.090000        1.0080           0
      6051 WT2      209      MECN     H13      HGA3     0.090000        1.0080           0
      6052 WT2      209      MECN     C2       CG1N1    0.360000       12.0110           0
      6053 WT2      209      MECN     N3       NG1T1   -0.460000       14.0070           0
      6054 WT2      216      MECN     C1       CG331   -0.170000       12.0110           0
      6055 WT2      216      MECN     H11      HGA3     0.090000        1.0080           0
      6056 WT2      216      MECN     H12      HGA3     0.090000        1.0080           0
      6057 WT2      216      MECN     H13      HGA3     0.090000        1.0080           0
      6058 WT2      216      MECN     C2       CG1N1    0.360000       12.0110           0
      6059 WT2      216      MECN     N3       NG1T1   -0.460000       14.0070           0
      6060 WT2      220      MECN     C1       CG331   -0.170000       12.0110           0
      6061 WT2      220      MECN     H11      HGA3     0.090000        1.0080           0
      6062 WT2      220      MECN     H12      HGA3     0.090000        1.0080           0
      6063 WT2      220      MECN     H13      HGA3     0.090000        1.0080           0
      6064 WT2      220      MECN     C2       CG1N1    0.360000       12.0110           0
      6065 WT2      220      MECN     N3       NG1T1   -0.460000       14.0070           0
      6066 WT2      224      MECN     C1       CG331   -0.170000       12.0110           0
      6067 WT2      224      MECN     H11      HGA3     0.090000        1.0080           0
      6068 WT2      224      MECN     H12      HGA3     0.090000        1.0080           0
      6069 WT2      224      MECN     H13      HGA3     0.090000        1.0080           0
      6070 WT2      224      MECN     C2       CG1N1    0.360000       12.0110           0
      6071 WT2      224      MECN     N3       NG1T1   -0.460000       14.0070           0
      6072 WT2      227      MECN     C1       CG331   -0.170000       12.0110           0
      6073 WT2      227      MECN     H11      HGA3     0.090000        1.0080           0
      6074 WT2      227      MECN     H12      HGA3     0.090000        1.0080           0
      6075 WT2      227      MECN     H13      HGA3     0.090000        1.0080           0
      6076 WT2      227      MECN     C2       CG1N1    0.360000       12.0110           0
      6077 WT2      227      MECN     N3       NG1T1   -0.460000       14.0070           0
      6078 WT2      236      MECN     C1       CG331   -0.170000       12.0110           0
      6079 WT2      236      MECN     H11      HGA3     0.090000        1.0080           0
      6080 WT2      236      MECN     H12      HGA3     0.090000        1.0080           0
      6081 WT2      236      MECN     H13      HGA3     0.090000        1.0080           0
      6082 WT2      236      MECN     C2       CG1N1    0.360000       12.0110           0
      6083 WT2      236      MECN     N3       NG1T1   -0.460000       14.0070           0
      6084 WT2      237      MECN     C1       CG331   -0.170000       12.0110           0
      6085 WT2      237      MECN     H11      HGA3     0.090000        1.0080           0
      6086 WT2      237      MECN     H12      HGA3     0.090000        1.0080           0
      6087 WT2      237      MECN     H13      HGA3     0.090000        1.0080           0
      6088 WT2      237      MECN     C2       CG1N1    0.360000       12.0110           0
      6089 WT2      237      MECN     N3       NG1T1   -0.460000       14.0070           0
      6090 WT2      238      MECN     C1       CG331   -0.170000       12.0110           0
      6091 WT2      238      MECN     H11      HGA3     0.090000        1.0080           0
      6092 WT2      238      MECN     H12      HGA3     0.090000        1.0080           0
      6093 WT2      238      MECN     H13      HGA3     0.090000        1.0080           0
      6094 WT2      238      MECN     C2       CG1N1    0.360000       12.0110           0
      6095 WT2      238      MECN     N3       NG1T1   -0.460000       14.0070           0
      6096 WT2      242      MECN     C1       CG331   -0.170000       12.0110           0
      6097 WT2      242      MECN     H11      HGA3     0.090000        1.0080           0
      6098 WT2      242      MECN     H12      HGA3     0.090000        1.0080           0
      6099 WT2      242      MECN     H13      HGA3     0.090000        1.0080           0
      6100 WT2      242      MECN     C2       CG1N1    0.360000       12.0110           0
      6101 WT2      242      MECN     N3       NG1T1   -0.460000       14.0070           0
      6102 WT2      260      MECN     C1       CG331   -0.170000       12.0110           0
      6103 WT2      260      MECN     H11      HGA3     0.090000        1.0080           0
      6104 WT2      260      MECN     H12      HGA3     0.090000        1.0080           0
      6105 WT2      260      MECN     H13      HGA3     0.090000        1.0080           0
      6106 WT2      260      MECN     C2       CG1N1    0.360000       12.0110           0
      6107 WT2      260      MECN     N3       NG1T1   -0.460000       14.0070           0
      6108 WT2      267      MECN     C1       CG331   -0.170000       12.0110           0
      6109 WT2      267      MECN     H11      HGA3     0.090000        1.0080           0
      6110 WT2      267      MECN     H12      HGA3     0.090000        1.0080           0
      6111 WT2      267      MECN     H13      HGA3     0.090000        1.0080           0
      6112 WT2      267      MECN     C2       CG1N1    0.360000       12.0110           0
      6113 WT2      267      MECN     N3       NG1T1   -0.460000       14.0070           0
      6114 WT2      268      MECN     C1       CG331   -0.170000       12.0110           0
      6115 WT2      268      MECN     H11      HGA3     0.090000        1.0080           0
      6116 WT2      268      MECN     H12      HGA3     0.090000        1.0080           0
      6117 WT2      268      MECN     H13      HGA3     0.090000        1.0080           0
      6118 WT2      268      MECN     C2       CG1N1    0.360000       12.0110           0
      6119 WT2      268      MECN     N3       NG1T1   -0.460000       14.0070           0
      6120 WT2      270      MECN     C1       CG331   -0.170000       12.0110           0
      6121 WT2      270      MECN     H11      HGA3     0.090000        1.0080           0
      6122 WT2      270      MECN     H12      HGA3     0.090000        1.0080           0
      6123 WT2      270      MECN     H13      HGA3     0.090000        1.0080           0
      6124 WT2      270      MECN     C2       CG1N1    0.360000       12.0110           0
      6125 WT2      270      MECN     N3       NG1T1   -0.460000       14.0070           0
      6126 WT2      273      MECN     C1       CG331   -0.170000       12.0110           0
      6127 WT2      273      MECN     H11      HGA3     0.090000        1.0080           0
      6128 WT2      273      MECN     H12      HGA3     0.090000        1.0080           0
      6129 WT2      273      MECN     H13      HGA3     0.090000        1.0080           0
      6130 WT2      273      MECN     C2       CG1N1    0.360000       12.0110           0
      6131 WT2      273      MECN     N3       NG1T1   -0.460000       14.0070           0
      6132 WT2      286      MECN     C1       CG331   -0.170000       12.0110           0
      6133 WT2      286      MECN     H11      HGA3     0.090000        1.0080           0
      6134 WT2      286      MECN     H12      HGA3     0.090000        1.0080           0
      6135 WT2      286      MECN     H13      HGA3     0.090000        1.0080           0
      6136 WT2      286      MECN     C2       CG1N1    0.360000       12.0110           0
      6137 WT2      286      MECN     N3       NG1T1   -0.460000       14.0070           0
      6138 WT2      287      MECN     C1       CG331   -0.170000       12.0110           0
      6139 WT2      287      MECN     H11      HGA3     0.090000        1.0080           0
      6140 WT2      287      MECN     H12      HGA3     0.090000        1.0080           0
      6141 WT2      287      MECN     H13      HGA3     0.090000        1.0080           0
      6142 WT2      287      MECN     C2       CG1N1    0.360000       12.0110           0
      6143 WT2      287      MECN     N3       NG1T1   -0.460000       14.0070           0
      6144 WT2      292      MECN     C1       CG331   -0.170000       12.0110           0
      6145 WT2      292      MECN     H11      HGA3     0.090000        1.0080           0
      6146 WT2      292      MECN     H12      HGA3     0.090000        1.0080           0
      6147 WT2      292      MECN     H13      HGA3     0.090000        1.0080           0
      6148 WT2      292      MECN     C2       CG1N1    0.360000       12.0110           0
      6149 WT2      292      MECN     N3       NG1T1   -0.460000       14.0070           0
      6150 WT2      298      MECN     C1       CG331   -0.170000       12.0110           0
      6151 WT2      298      MECN     H11      HGA3     0.090000        1.0080           0
      6152 WT2      298      MECN     H12      HGA3     0.090000        1.0080           0
      6153 WT2      298      MECN     H13      HGA3     0.090000        1.0080           0
      6154 WT2      298      MECN     C2       CG1N1    0.360000       12.0110           0
      6155 WT2      298      MECN     N3       NG1T1   -0.460000       14.0070           0
      6156 WT2      306      MECN     C1       CG331   -0.170000       12.0110           0
      6157 WT2      306      MECN     H11      HGA3     0.090000        1.0080           0
      6158 WT2      306      MECN     H12      HGA3     0.090000        1.0080           0
      6159 WT2      306      MECN     H13      HGA3     0.090000        1.0080           0
      6160 WT2      306      MECN     C2       CG1N1    0.360000       12.0110           0
      6161 WT2      306      MECN     N3       NG1T1   -0.460000       14.0070           0
      6162 WT2      310      MECN     C1       CG331   -0.170000       12.0110           0
      6163 WT2      310      MECN     H11      HGA3     0.090000        1.0080           0
      6164 WT2      310      MECN     H12      HGA3     0.090000        1.0080           0
      6165 WT2      310      MECN     H13      HGA3     0.090000        1.0080           0
      6166 WT2      310      MECN     C2       CG1N1    0.360000       12.0110           0
      6167 WT2      310      MECN     N3       NG1T1   -0.460000       14.0070           0
      6168 WT2      316      MECN     C1       CG331   -0.170000       12.0110           0
      6169 WT2      316      MECN     H11      HGA3     0.090000        1.0080           0
      6170 WT2      316      MECN     H12      HGA3     0.090000        1.0080           0
      6171 WT2      316      MECN     H13      HGA3     0.090000        1.0080           0
      6172 WT2      316      MECN     C2       CG1N1    0.360000       12.0110           0
      6173 WT2      316      MECN     N3       NG1T1   -0.460000       14.0070           0
      6174 WT2      321      MECN     C1       CG331   -0.170000       12.0110           0
      6175 WT2      321      MECN     H11      HGA3     0.090000        1.0080           0
      6176 WT2      321      MECN     H12      HGA3     0.090000        1.0080           0
      6177 WT2      321      MECN     H13      HGA3     0.090000        1.0080           0
      6178 WT2      321      MECN     C2       CG1N1    0.360000       12.0110           0
      6179 WT2      321      MECN     N3       NG1T1   -0.460000       14.0070           0
      6180 WT2      322      MECN     C1       CG331   -0.170000       12.0110           0
      6181 WT2      322      MECN     H11      HGA3     0.090000        1.0080           0
      6182 WT2      322      MECN     H12      HGA3     0.090000        1.0080           0
      6183 WT2      322      MECN     H13      HGA3     0.090000        1.0080           0
      6184 WT2      322      MECN     C2       CG1N1    0.360000       12.0110           0
      6185 WT2      322      MECN     N3       NG1T1   -0.460000       14.0070           0
      6186 WT2      329      MECN     C1       CG331   -0.170000       12.0110           0
      6187 WT2      329      MECN     H11      HGA3     0.090000        1.0080           0
      6188 WT2      329      MECN     H12      HGA3     0.090000        1.0080           0
      6189 WT2      329      MECN     H13      HGA3     0.090000        1.0080           0
      6190 WT2      329      MECN     C2       CG1N1    0.360000       12.0110           0
      6191 WT2      329      MECN     N3       NG1T1   -0.460000       14.0070           0
      6192 WT2      331      MECN     C1       CG331   -0.170000       12.0110           0
      6193 WT2      331      MECN     H11      HGA3     0.090000        1.0080           0
      6194 WT2      331      MECN     H12      HGA3     0.090000        1.0080           0
      6195 WT2      331      MECN     H13      HGA3     0.090000        1.0080           0
      6196 WT2      331      MECN     C2       CG1N1    0.360000       12.0110           0
      6197 WT2      331      MECN     N3       NG1T1   -0.460000       14.0070           0
      6198 WT2      337      MECN     C1       CG331   -0.170000       12.0110           0
      6199 WT2      337      MECN     H11      HGA3     0.090000        1.0080           0
      6200 WT2      337      MECN     H12      HGA3     0.090000        1.0080           0
      6201 WT2      337      MECN     H13      HGA3     0.090000        1.0080           0
      6202 WT2      337      MECN     C2       CG1N1    0.360000       12.0110           0
      6203 WT2      337      MECN     N3       NG1T1   -0.460000       14.0070           0
      6204 WT2      338      MECN     C1       CG331   -0.170000       12.0110           0
      6205 WT2      338      MECN     H11      HGA3     0.090000        1.0080           0
      6206 WT2      338      MECN     H12      HGA3     0.090000        1.0080           0
      6207 WT2      338      MECN     H13      HGA3     0.090000        1.0080           0
      6208 WT2      338      MECN     C2       CG1N1    0.360000       12.0110           0
      6209 WT2      338      MECN     N3       NG1T1   -0.460000       14.0070           0
      6210 WT2      342      MECN     C1       CG331   -0.170000       12.0110           0
      6211 WT2      342      MECN     H11      HGA3     0.090000        1.0080           0
      6212 WT2      342      MECN     H12      HGA3     0.090000        1.0080           0
      6213 WT2      342      MECN     H13      HGA3     0.090000        1.0080           0
      6214 WT2      342      MECN     C2       CG1N1    0.360000       12.0110           0
      6215 WT2      342      MECN     N3       NG1T1   -0.460000       14.0070           0
      6216 WT2      349      MECN     C1       CG331   -0.170000       12.0110           0
      6217 WT2      349      MECN     H11      HGA3     0.090000        1.0080           0
      6218 WT2      349      MECN     H12      HGA3     0.090000        1.0080           0
      6219 WT2      349      MECN     H13      HGA3     0.090000        1.0080           0
      6220 WT2      349      MECN     C2       CG1N1    0.360000       12.0110           0
      6221 WT2      349      MECN     N3       NG1T1   -0.460000       14.0070           0
      6222 WT2      351      MECN     C1       CG331   -0.170000       12.0110           0
      6223 WT2      351      MECN     H11      HGA3     0.090000        1.0080           0
      6224 WT2      351      MECN     H12      HGA3     0.090000        1.0080           0
      6225 WT2      351      MECN     H13      HGA3     0.090000        1.0080           0
      6226 WT2      351      MECN     C2       CG1N1    0.360000       12.0110           0
      6227 WT2      351      MECN     N3       NG1T1   -0.460000       14.0070           0
      6228 WT2      358      MECN     C1       CG331   -0.170000       12.0110           0
      6229 WT2      358      MECN     H11      HGA3     0.090000        1.0080           0
      6230 WT2      358      MECN     H12      HGA3     0.090000        1.0080           0
      6231 WT2      358      MECN     H13      HGA3     0.090000        1.0080           0
      6232 WT2      358      MECN     C2       CG1N1    0.360000       12.0110           0
      6233 WT2      358      MECN     N3       NG1T1   -0.460000       14.0070           0
      6234 WT2      366      MECN     C1       CG331   -0.170000       12.0110           0
      6235 WT2      366      MECN     H11      HGA3     0.090000        1.0080           0
      6236 WT2      366      MECN     H12      HGA3     0.090000        1.0080           0
      6237 WT2      366      MECN     H13      HGA3     0.090000        1.0080           0
      6238 WT2      366      MECN     C2       CG1N1    0.360000       12.0110           0
      6239 WT2      366      MECN     N3       NG1T1   -0.460000       14.0070           0
      6240 WT2      381      MECN     C1       CG331   -0.170000       12.0110           0
      6241 WT2      381      MECN     H11      HGA3     0.090000        1.0080           0
      6242 WT2      381      MECN     H12      HGA3     0.090000        1.0080           0
      6243 WT2      381      MECN     H13      HGA3     0.090000        1.0080           0
      6244 WT2      381      MECN     C2       CG1N1    0.360000       12.0110           0
      6245 WT2      381      MECN     N3       NG1T1   -0.460000       14.0070           0
      6246 WT2      382      MECN     C1       CG331   -0.170000       12.0110           0
      6247 WT2      382      MECN     H11      HGA3     0.090000        1.0080           0
      6248 WT2      382      MECN     H12      HGA3     0.090000        1.0080           0
      6249 WT2      382      MECN     H13      HGA3     0.090000        1.0080           0
      6250 WT2      382      MECN     C2       CG1N1    0.360000       12.0110           0
      6251 WT2      382      MECN     N3       NG1T1   -0.460000       14.0070           0
      6252 WT2      387      MECN     C1       CG331   -0.170000       12.0110           0
      6253 WT2      387      MECN     H11      HGA3     0.090000        1.0080           0
      6254 WT2      387      MECN     H12      HGA3     0.090000        1.0080           0
      6255 WT2      387      MECN     H13      HGA3     0.090000        1.0080           0
      6256 WT2      387      MECN     C2       CG1N1    0.360000       12.0110           0
      6257 WT2      387      MECN     N3       NG1T1   -0.460000       14.0070           0
      6258 WT2      392      MECN     C1       CG331   -0.170000       12.0110           0
      6259 WT2      392      MECN     H11      HGA3     0.090000        1.0080           0
      6260 WT2      392      MECN     H12      HGA3     0.090000        1.0080           0
      6261 WT2      392      MECN     H13      HGA3     0.090000        1.0080           0
      6262 WT2      392      MECN     C2       CG1N1    0.360000       12.0110           0
      6263 WT2      392      MECN     N3       NG1T1   -0.460000       14.0070           0
      6264 WT2      396      MECN     C1       CG331   -0.170000       12.0110           0
      6265 WT2      396      MECN     H11      HGA3     0.090000        1.0080           0
      6266 WT2      396      MECN     H12      HGA3     0.090000        1.0080           0
      6267 WT2      396      MECN     H13      HGA3     0.090000        1.0080           0
      6268 WT2      396      MECN     C2       CG1N1    0.360000       12.0110           0
      6269 WT2      396      MECN     N3       NG1T1   -0.460000       14.0070           0
      6270 WT2      408      MECN     C1       CG331   -0.170000       12.0110           0
      6271 WT2      408      MECN     H11      HGA3     0.090000        1.0080           0
      6272 WT2      408      MECN     H12      HGA3     0.090000        1.0080           0
      6273 WT2      408      MECN     H13      HGA3     0.090000        1.0080           0
      6274 WT2      408      MECN     C2       CG1N1    0.360000       12.0110           0
      6275 WT2      408      MECN     N3       NG1T1   -0.460000       14.0070           0
      6276 WT2      411      MECN     C1       CG331   -0.170000       12.0110           0
      6277 WT2      411      MECN     H11      HGA3     0.090000        1.0080           0
      6278 WT2      411      MECN     H12      HGA3     0.090000        1.0080           0
      6279 WT2      411      MECN     H13      HGA3     0.090000        1.0080           0
      6280 WT2      411      MECN     C2       CG1N1    0.360000       12.0110           0
      6281 WT2      411      MECN     N3       NG1T1   -0.460000       14.0070           0
      6282 WT2      419      MECN     C1       CG331   -0.170000       12.0110           0
      6283 WT2      419      MECN     H11      HGA3     0.090000        1.0080           0
      6284 WT2      419      MECN     H12      HGA3     0.090000        1.0080           0
      6285 WT2      419      MECN     H13      HGA3     0.090000        1.0080           0
      6286 WT2      419      MECN     C2       CG1N1    0.360000       12.0110           0
      6287 WT2      419      MECN     N3       NG1T1   -0.460000       14.0070           0
      6288 WT2      450      MECN     C1       CG331   -0.170000       12.0110           0
      6289 WT2      450      MECN     H11      HGA3     0.090000        1.0080           0
      6290 WT2      450      MECN     H12      HGA3     0.090000        1.0080           0
      6291 WT2      450      MECN     H13      HGA3     0.090000        1.0080           0
      6292 WT2      450      MECN     C2       CG1N1    0.360000       12.0110           0
      6293 WT2      450      MECN     N3       NG1T1   -0.460000       14.0070           0
      6294 WT2      457      MECN     C1       CG331   -0.170000       12.0110           0
      6295 WT2      457      MECN     H11      HGA3     0.090000        1.0080           0
      6296 WT2      457      MECN     H12      HGA3     0.090000        1.0080           0
      6297 WT2      457      MECN     H13      HGA3     0.090000        1.0080           0
      6298 WT2      457      MECN     C2       CG1N1    0.360000       12.0110           0
      6299 WT2      457      MECN     N3       NG1T1   -0.460000       14.0070           0
      6300 WT2      460      MECN     C1       CG331   -0.170000       12.0110           0
      6301 WT2      460      MECN     H11      HGA3     0.090000        1.0080           0
      6302 WT2      460      MECN     H12      HGA3     0.090000        1.0080           0
      6303 WT2      460      MECN     H13      HGA3     0.090000        1.0080           0
      6304 WT2      460      MECN     C2       CG1N1    0.360000       12.0110           0
      6305 WT2      460      MECN     N3       NG1T1   -0.460000       14.0070           0
      6306 WT2      467      MECN     C1       CG331   -0.170000       12.0110           0
      6307 WT2      467      MECN     H11      HGA3     0.090000        1.0080           0
      6308 WT2      467      MECN     H12      HGA3     0.090000        1.0080           0
      6309 WT2      467      MECN     H13      HGA3     0.090000        1.0080           0
      6310 WT2      467      MECN     C2       CG1N1    0.360000       12.0110           0
      6311 WT2      467      MECN     N3       NG1T1   -0.460000       14.0070           0
      6312 WT2      475      MECN     C1       CG331   -0.170000       12.0110           0
      6313 WT2      475      MECN     H11      HGA3     0.090000        1.0080           0
      6314 WT2      475      MECN     H12      HGA3     0.090000        1.0080           0
      6315 WT2      475      MECN     H13      HGA3     0.090000        1.0080           0
      6316 WT2      475      MECN     C2       CG1N1    0.360000       12.0110           0
      6317 WT2      475      MECN     N3       NG1T1   -0.460000       14.0070           0
      6318 WT2      485      MECN     C1       CG331   -0.170000       12.0110           0
      6319 WT2      485      MECN     H11      HGA3     0.090000        1.0080           0
      6320 WT2      485      MECN     H12      HGA3     0.090000        1.0080           0
      6321 WT2      485      MECN     H13      HGA3     0.090000        1.0080           0
      6322 WT2      485      MECN     C2       CG1N1    0.360000       12.0110           0
      6323 WT2      485      MECN     N3       NG1T1   -0.460000       14.0070           0
      6324 WT2      486      MECN     C1       CG331   -0.170000       12.0110           0
      6325 WT2      486      MECN     H11      HGA3     0.090000        1.0080           0
      6326 WT2      486      MECN     H12      HGA3     0.090000        1.0080           0
      6327 WT2      486      MECN     H13      HGA3     0.090000        1.0080           0
      6328 WT2      486      MECN     C2       CG1N1    0.360000       12.0110           0
      6329 WT2      486      MECN     N3       NG1T1   -0.460000       14.0070           0
      6330 WT2      492      MECN     C1       CG331   -0.170000       12.0110           0
      6331 WT2      492      MECN     H11      HGA3     0.090000        1.0080           0
      6332 WT2      492      MECN     H12      HGA3     0.090000        1.0080           0
      6333 WT2      492      MECN     H13      HGA3     0.090000        1.0080           0
      6334 WT2      492      MECN     C2       CG1N1    0.360000       12.0110           0
      6335 WT2      492      MECN     N3       NG1T1   -0.460000       14.0070           0
      6336 WT2      513      MECN     C1       CG331   -0.170000       12.0110           0
      6337 WT2      513      MECN     H11      HGA3     0.090000        1.0080           0
      6338 WT2      513      MECN     H12      HGA3     0.090000        1.0080           0
      6339 WT2      513      MECN     H13      HGA3     0.090000        1.0080           0
      6340 WT2      513      MECN     C2       CG1N1    0.360000       12.0110           0
      6341 WT2      513      MECN     N3       NG1T1   -0.460000       14.0070           0
      6342 WT2      521      MECN     C1       CG331   -0.170000       12.0110           0
      6343 WT2      521      MECN     H11      HGA3     0.090000        1.0080           0
      6344 WT2      521      MECN     H12      HGA3     0.090000        1.0080           0
      6345 WT2      521      MECN     H13      HGA3     0.090000        1.0080           0
      6346 WT2      521      MECN     C2       CG1N1    0.360000       12.0110           0
      6347 WT2      521      MECN     N3       NG1T1   -0.460000       14.0070           0
      6348 WT2      523      MECN     C1       CG331   -0.170000       12.0110           0
      6349 WT2      523      MECN     H11      HGA3     0.090000        1.0080           0
      6350 WT2      523      MECN     H12      HGA3     0.090000        1.0080           0
      6351 WT2      523      MECN     H13      HGA3     0.090000        1.0080           0
      6352 WT2      523      MECN     C2       CG1N1    0.360000       12.0110           0
      6353 WT2      523      MECN     N3       NG1T1   -0.460000       14.0070           0
      6354 WT2      530      MECN     C1       CG331   -0.170000       12.0110           0
      6355 WT2      530      MECN     H11      HGA3     0.090000        1.0080           0
      6356 WT2      530      MECN     H12      HGA3     0.090000        1.0080           0
      6357 WT2      530      MECN     H13      HGA3     0.090000        1.0080           0
      6358 WT2      530      MECN     C2       CG1N1    0.360000       12.0110           0
      6359 WT2      530      MECN     N3       NG1T1   -0.460000       14.0070           0
      6360 WT2      531      MECN     C1       CG331   -0.170000       12.0110           0
      6361 WT2      531      MECN     H11      HGA3     0.090000        1.0080           0
      6362 WT2      531      MECN     H12      HGA3     0.090000        1.0080           0
      6363 WT2      531      MECN     H13      HGA3     0.090000        1.0080           0
      6364 WT2      531      MECN     C2       CG1N1    0.360000       12.0110           0
      6365 WT2      531      MECN     N3       NG1T1   -0.460000       14.0070           0
      6366 WT2      532      MECN     C1       CG331   -0.170000       12.0110           0
      6367 WT2      532      MECN     H11      HGA3     0.090000        1.0080           0
      6368 WT2      532      MECN     H12      HGA3     0.090000        1.0080           0
      6369 WT2      532      MECN     H13      HGA3     0.090000        1.0080           0
      6370 WT2      532      MECN     C2       CG1N1    0.360000       12.0110           0
      6371 WT2      532      MECN     N3       NG1T1   -0.460000       14.0070           0
      6372 WT2      537      MECN     C1       CG331   -0.170000       12.0110           0
      6373 WT2      537      MECN     H11      HGA3     0.090000        1.0080           0
      6374 WT2      537      MECN     H12      HGA3     0.090000        1.0080           0
      6375 WT2      537      MECN     H13      HGA3     0.090000        1.0080           0
      6376 WT2      537      MECN     C2       CG1N1    0.360000       12.0110           0
      6377 WT2      537      MECN     N3       NG1T1   -0.460000       14.0070           0
      6378 WT2      543      MECN     C1       CG331   -0.170000       12.0110           0
      6379 WT2      543      MECN     H11      HGA3     0.090000        1.0080           0
      6380 WT2      543      MECN     H12      HGA3     0.090000        1.0080           0
      6381 WT2      543      MECN     H13      HGA3     0.090000        1.0080           0
      6382 WT2      543      MECN     C2       CG1N1    0.360000       12.0110           0
      6383 WT2      543      MECN     N3       NG1T1   -0.460000       14.0070           0
      6384 WT2      544      MECN     C1       CG331   -0.170000       12.0110           0
      6385 WT2      544      MECN     H11      HGA3     0.090000        1.0080           0
      6386 WT2      544      MECN     H12      HGA3     0.090000        1.0080           0
      6387 WT2      544      MECN     H13      HGA3     0.090000        1.0080           0
      6388 WT2      544      MECN     C2       CG1N1    0.360000       12.0110           0
      6389 WT2      544      MECN     N3       NG1T1   -0.460000       14.0070           0
      6390 WT2      557      MECN     C1       CG331   -0.170000       12.0110           0
      6391 WT2      557      MECN     H11      HGA3     0.090000        1.0080           0
      6392 WT2      557      MECN     H12      HGA3     0.090000        1.0080           0
      6393 WT2      557      MECN     H13      HGA3     0.090000        1.0080           0
      6394 WT2      557      MECN     C2       CG1N1    0.360000       12.0110           0
      6395 WT2      557      MECN     N3       NG1T1   -0.460000       14.0070           0
      6396 WT2      560      MECN     C1       CG331   -0.170000       12.0110           0
      6397 WT2      560      MECN     H11      HGA3     0.090000        1.0080           0
      6398 WT2      560      MECN     H12      HGA3     0.090000        1.0080           0
      6399 WT2      560      MECN     H13      HGA3     0.090000        1.0080           0
      6400 WT2      560      MECN     C2       CG1N1    0.360000       12.0110           0
      6401 WT2      560      MECN     N3       NG1T1   -0.460000       14.0070           0
      6402 WT2      564      MECN     C1       CG331   -0.170000       12.0110           0
      6403 WT2      564      MECN     H11      HGA3     0.090000        1.0080           0
      6404 WT2      564      MECN     H12      HGA3     0.090000        1.0080           0
      6405 WT2      564      MECN     H13      HGA3     0.090000        1.0080           0
      6406 WT2      564      MECN     C2       CG1N1    0.360000       12.0110           0
      6407 WT2      564      MECN     N3       NG1T1   -0.460000       14.0070           0
      6408 WT2      576      MECN     C1       CG331   -0.170000       12.0110           0
      6409 WT2      576      MECN     H11      HGA3     0.090000        1.0080           0
      6410 WT2      576      MECN     H12      HGA3     0.090000        1.0080           0
      6411 WT2      576      MECN     H13      HGA3     0.090000        1.0080           0
      6412 WT2      576      MECN     C2       CG1N1    0.360000       12.0110           0
      6413 WT2      576      MECN     N3       NG1T1   -0.460000       14.0070           0
      6414 WT2      584      MECN     C1       CG331   -0.170000       12.0110           0
      6415 WT2      584      MECN     H11      HGA3     0.090000        1.0080           0
      6416 WT2      584      MECN     H12      HGA3     0.090000        1.0080           0
      6417 WT2      584      MECN     H13      HGA3     0.090000        1.0080           0
      6418 WT2      584      MECN     C2       CG1N1    0.360000       12.0110           0
      6419 WT2      584      MECN     N3       NG1T1   -0.460000       14.0070           0
      6420 WT2      586      MECN     C1       CG331   -0.170000       12.0110           0
      6421 WT2      586      MECN     H11      HGA3     0.090000        1.0080           0
      6422 WT2      586      MECN     H12      HGA3     0.090000        1.0080           0
      6423 WT2      586      MECN     H13      HGA3     0.090000        1.0080           0
      6424 WT2      586      MECN     C2       CG1N1    0.360000       12.0110           0
      6425 WT2      586      MECN     N3       NG1T1   -0.460000       14.0070           0
      6426 WT2      591      MECN     C1       CG331   -0.170000       12.0110           0
      6427 WT2      591      MECN     H11      HGA3     0.090000        1.0080           0
      6428 WT2      591      MECN     H12      HGA3     0.090000        1.0080           0
      6429 WT2      591      MECN     H13      HGA3     0.090000        1.0080           0
      6430 WT2      591      MECN     C2       CG1N1    0.360000       12.0110           0
      6431 WT2      591      MECN     N3       NG1T1   -0.460000       14.0070           0
      6432 WT2      599      MECN     C1       CG331   -0.170000       12.0110           0
      6433 WT2      599      MECN     H11      HGA3     0.090000        1.0080           0
      6434 WT2      599      MECN     H12      HGA3     0.090000        1.0080           0
      6435 WT2      599      MECN     H13      HGA3     0.090000        1.0080           0
      6436 WT2      599      MECN     C2       CG1N1    0.360000       12.0110           0
      6437 WT2      599      MECN     N3       NG1T1   -0.460000       14.0070           0
      6438 WT2      612      MECN     C1       CG331   -0.170000       12.0110           0
      6439 WT2      612      MECN     H11      HGA3     0.090000        1.0080           0
      6440 WT2      612      MECN     H12      HGA3     0.090000        1.0080           0
      6441 WT2      612      MECN     H13      HGA3     0.090000        1.0080           0
      6442 WT2      612      MECN     C2       CG1N1    0.360000       12.0110           0
      6443 WT2      612      MECN     N3       NG1T1   -0.460000       14.0070           0
      6444 WT2      620      MECN     C1       CG331   -0.170000       12.0110           0
      6445 WT2      620      MECN     H11      HGA3     0.090000        1.0080           0
      6446 WT2      620      MECN     H12      HGA3     0.090000        1.0080           0
      6447 WT2      620      MECN     H13      HGA3     0.090000        1.0080           0
      6448 WT2      620      MECN     C2       CG1N1    0.360000       12.0110           0
      6449 WT2      620      MECN     N3       NG1T1   -0.460000       14.0070           0
      6450 WT2      625      MECN     C1       CG331   -0.170000       12.0110           0
      6451 WT2      625      MECN     H11      HGA3     0.090000        1.0080           0
      6452 WT2      625      MECN     H12      HGA3     0.090000        1.0080           0
      6453 WT2      625      MECN     H13      HGA3     0.090000        1.0080           0
      6454 WT2      625      MECN     C2       CG1N1    0.360000       12.0110           0
      6455 WT2      625      MECN     N3       NG1T1   -0.460000       14.0070           0
      6456 WT2      628      MECN     C1       CG331   -0.170000       12.0110           0
      6457 WT2      628      MECN     H11      HGA3     0.090000        1.0080           0
      6458 WT2      628      MECN     H12      HGA3     0.090000        1.0080           0
      6459 WT2      628      MECN     H13      HGA3     0.090000        1.0080           0
      6460 WT2      628      MECN     C2       CG1N1    0.360000       12.0110           0
      6461 WT2      628      MECN     N3       NG1T1   -0.460000       14.0070           0
      6462 WT2      632      MECN     C1       CG331   -0.170000       12.0110           0
      6463 WT2      632      MECN     H11      HGA3     0.090000        1.0080           0
      6464 WT2      632      MECN     H12      HGA3     0.090000        1.0080           0
      6465 WT2      632      MECN     H13      HGA3     0.090000        1.0080           0
      6466 WT2      632      MECN     C2       CG1N1    0.360000       12.0110           0
      6467 WT2      632      MECN     N3       NG1T1   -0.460000       14.0070           0
      6468 WT2      633      MECN     C1       CG331   -0.170000       12.0110           0
      6469 WT2      633      MECN     H11      HGA3     0.090000        1.0080           0
      6470 WT2      633      MECN     H12      HGA3     0.090000        1.0080           0
      6471 WT2      633      MECN     H13      HGA3     0.090000        1.0080           0
      6472 WT2      633      MECN     C2       CG1N1    0.360000       12.0110           0
      6473 WT2      633      MECN     N3       NG1T1   -0.460000       14.0070           0
      6474 WT2      636      MECN     C1       CG331   -0.170000       12.0110           0
      6475 WT2      636      MECN     H11      HGA3     0.090000        1.0080           0
      6476 WT2      636      MECN     H12      HGA3     0.090000        1.0080           0
      6477 WT2      636      MECN     H13      HGA3     0.090000        1.0080           0
      6478 WT2      636      MECN     C2       CG1N1    0.360000       12.0110           0
      6479 WT2      636      MECN     N3       NG1T1   -0.460000       14.0070           0
      6480 WT2      638      MECN     C1       CG331   -0.170000       12.0110           0
      6481 WT2      638      MECN     H11      HGA3     0.090000        1.0080           0
      6482 WT2      638      MECN     H12      HGA3     0.090000        1.0080           0
      6483 WT2      638      MECN     H13      HGA3     0.090000        1.0080           0
      6484 WT2      638      MECN     C2       CG1N1    0.360000       12.0110           0
      6485 WT2      638      MECN     N3       NG1T1   -0.460000       14.0070           0
      6486 WT2      639      MECN     C1       CG331   -0.170000       12.0110           0
      6487 WT2      639      MECN     H11      HGA3     0.090000        1.0080           0
      6488 WT2      639      MECN     H12      HGA3     0.090000        1.0080           0
      6489 WT2      639      MECN     H13      HGA3     0.090000        1.0080           0
      6490 WT2      639      MECN     C2       CG1N1    0.360000       12.0110           0
      6491 WT2      639      MECN     N3       NG1T1   -0.460000       14.0070           0
      6492 WT2      642      MECN     C1       CG331   -0.170000       12.0110           0
      6493 WT2      642      MECN     H11      HGA3     0.090000        1.0080           0
      6494 WT2      642      MECN     H12      HGA3     0.090000        1.0080           0
      6495 WT2      642      MECN     H13      HGA3     0.090000        1.0080           0
      6496 WT2      642      MECN     C2       CG1N1    0.360000       12.0110           0
      6497 WT2      642      MECN     N3       NG1T1   -0.460000       14.0070           0
      6498 WT2      650      MECN     C1       CG331   -0.170000       12.0110           0
      6499 WT2      650      MECN     H11      HGA3     0.090000        1.0080           0
      6500 WT2      650      MECN     H12      HGA3     0.090000        1.0080           0
      6501 WT2      650      MECN     H13      HGA3     0.090000        1.0080           0
      6502 WT2      650      MECN     C2       CG1N1    0.360000       12.0110           0
      6503 WT2      650      MECN     N3       NG1T1   -0.460000       14.0070           0
      6504 WT2      651      MECN     C1       CG331   -0.170000       12.0110           0
      6505 WT2      651      MECN     H11      HGA3     0.090000        1.0080           0
      6506 WT2      651      MECN     H12      HGA3     0.090000        1.0080           0
      6507 WT2      651      MECN     H13      HGA3     0.090000        1.0080           0
      6508 WT2      651      MECN     C2       CG1N1    0.360000       12.0110           0
      6509 WT2      651      MECN     N3       NG1T1   -0.460000       14.0070           0
      6510 WT2      656      MECN     C1       CG331   -0.170000       12.0110           0
      6511 WT2      656      MECN     H11      HGA3     0.090000        1.0080           0
      6512 WT2      656      MECN     H12      HGA3     0.090000        1.0080           0
      6513 WT2      656      MECN     H13      HGA3     0.090000        1.0080           0
      6514 WT2      656      MECN     C2       CG1N1    0.360000       12.0110           0
      6515 WT2      656      MECN     N3       NG1T1   -0.460000       14.0070           0
      6516 WT2      658      MECN     C1       CG331   -0.170000       12.0110           0
      6517 WT2      658      MECN     H11      HGA3     0.090000        1.0080           0
      6518 WT2      658      MECN     H12      HGA3     0.090000        1.0080           0
      6519 WT2      658      MECN     H13      HGA3     0.090000        1.0080           0
      6520 WT2      658      MECN     C2       CG1N1    0.360000       12.0110           0
      6521 WT2      658      MECN     N3       NG1T1   -0.460000       14.0070           0
      6522 WT2      661      MECN     C1       CG331   -0.170000       12.0110           0
      6523 WT2      661      MECN     H11      HGA3     0.090000        1.0080           0
      6524 WT2      661      MECN     H12      HGA3     0.090000        1.0080           0
      6525 WT2      661      MECN     H13      HGA3     0.090000        1.0080           0
      6526 WT2      661      MECN     C2       CG1N1    0.360000       12.0110           0
      6527 WT2      661      MECN     N3       NG1T1   -0.460000       14.0070           0
      6528 WT2      663      MECN     C1       CG331   -0.170000       12.0110           0
      6529 WT2      663      MECN     H11      HGA3     0.090000        1.0080           0
      6530 WT2      663      MECN     H12      HGA3     0.090000        1.0080           0
      6531 WT2      663      MECN     H13      HGA3     0.090000        1.0080           0
      6532 WT2      663      MECN     C2       CG1N1    0.360000       12.0110           0
      6533 WT2      663      MECN     N3       NG1T1   -0.460000       14.0070           0
      6534 WT2      667      MECN     C1       CG331   -0.170000       12.0110           0
      6535 WT2      667      MECN     H11      HGA3     0.090000        1.0080           0
      6536 WT2      667      MECN     H12      HGA3     0.090000        1.0080           0
      6537 WT2      667      MECN     H13      HGA3     0.090000        1.0080           0
      6538 WT2      667      MECN     C2       CG1N1    0.360000       12.0110           0
      6539 WT2      667      MECN     N3       NG1T1   -0.460000       14.0070           0
      6540 WT2      670      MECN     C1       CG331   -0.170000       12.0110           0
      6541 WT2      670      MECN     H11      HGA3     0.090000        1.0080           0
      6542 WT2      670      MECN     H12      HGA3     0.090000        1.0080           0
      6543 WT2      670      MECN     H13      HGA3     0.090000        1.0080           0
      6544 WT2      670      MECN     C2       CG1N1    0.360000       12.0110           0
      6545 WT2      670      MECN     N3       NG1T1   -0.460000       14.0070           0
      6546 WT2      672      MECN     C1       CG331   -0.170000       12.0110           0
      6547 WT2      672      MECN     H11      HGA3     0.090000        1.0080           0
      6548 WT2      672      MECN     H12      HGA3     0.090000        1.0080           0
      6549 WT2      672      MECN     H13      HGA3     0.090000        1.0080           0
      6550 WT2      672      MECN     C2       CG1N1    0.360000       12.0110           0
      6551 WT2      672      MECN     N3       NG1T1   -0.460000       14.0070           0
      6552 WT2      673      MECN     C1       CG331   -0.170000       12.0110           0
      6553 WT2      673      MECN     H11      HGA3     0.090000        1.0080           0
      6554 WT2      673      MECN     H12      HGA3     0.090000        1.0080           0
      6555 WT2      673      MECN     H13      HGA3     0.090000        1.0080           0
      6556 WT2      673      MECN     C2       CG1N1    0.360000       12.0110           0
      6557 WT2      673      MECN     N3       NG1T1   -0.460000       14.0070           0
      6558 WT2      679      MECN     C1       CG331   -0.170000       12.0110           0
      6559 WT2      679      MECN     H11      HGA3     0.090000        1.0080           0
      6560 WT2      679      MECN     H12      HGA3     0.090000        1.0080           0
      6561 WT2      679      MECN     H13      HGA3     0.090000        1.0080           0
      6562 WT2      679      MECN     C2       CG1N1    0.360000       12.0110           0
      6563 WT2      679      MECN     N3       NG1T1   -0.460000       14.0070           0
      6564 WT2      688      MECN     C1       CG331   -0.170000       12.0110           0
      6565 WT2      688      MECN     H11      HGA3     0.090000        1.0080           0
      6566 WT2      688      MECN     H12      HGA3     0.090000        1.0080           0
      6567 WT2      688      MECN     H13      HGA3     0.090000        1.0080           0
      6568 WT2      688      MECN     C2       CG1N1    0.360000       12.0110           0
      6569 WT2      688      MECN     N3       NG1T1   -0.460000       14.0070           0
      6570 WT2      689      MECN     C1       CG331   -0.170000       12.0110           0
      6571 WT2      689      MECN     H11      HGA3     0.090000        1.0080           0
      6572 WT2      689      MECN     H12      HGA3     0.090000        1.0080           0
      6573 WT2      689      MECN     H13      HGA3     0.090000        1.0080           0
      6574 WT2      689      MECN     C2       CG1N1    0.360000       12.0110           0
      6575 WT2      689      MECN     N3       NG1T1   -0.460000       14.0070           0
      6576 WT2      692      MECN     C1       CG331   -0.170000       12.0110           0
      6577 WT2      692      MECN     H11      HGA3     0.090000        1.0080           0
      6578 WT2      692      MECN     H12      HGA3     0.090000        1.0080           0
      6579 WT2      692      MECN     H13      HGA3     0.090000        1.0080           0
      6580 WT2      692      MECN     C2       CG1N1    0.360000       12.0110           0
      6581 WT2      692      MECN     N3       NG1T1   -0.460000       14.0070           0
      6582 WT2      696      MECN     C1       CG331   -0.170000       12.0110           0
      6583 WT2      696      MECN     H11      HGA3     0.090000        1.0080           0
      6584 WT2      696      MECN     H12      HGA3     0.090000        1.0080           0
      6585 WT2      696      MECN     H13      HGA3     0.090000        1.0080           0
      6586 WT2      696      MECN     C2       CG1N1    0.360000       12.0110           0
      6587 WT2      696      MECN     N3       NG1T1   -0.460000       14.0070           0
      6588 WT2      699      MECN     C1       CG331   -0.170000       12.0110           0
      6589 WT2      699      MECN     H11      HGA3     0.090000        1.0080           0
      6590 WT2      699      MECN     H12      HGA3     0.090000        1.0080           0
      6591 WT2      699      MECN     H13      HGA3     0.090000        1.0080           0
      6592 WT2      699      MECN     C2       CG1N1    0.360000       12.0110           0
      6593 WT2      699      MECN     N3       NG1T1   -0.460000       14.0070           0
      6594 WT2      705      MECN     C1       CG331   -0.170000       12.0110           0
      6595 WT2      705      MECN     H11      HGA3     0.090000        1.0080           0
      6596 WT2      705      MECN     H12      HGA3     0.090000        1.0080           0
      6597 WT2      705      MECN     H13      HGA3     0.090000        1.0080           0
      6598 WT2      705      MECN     C2       CG1N1    0.360000       12.0110           0
      6599 WT2      705      MECN     N3       NG1T1   -0.460000       14.0070           0
      6600 WT2      706      MECN     C1       CG331   -0.170000       12.0110           0
      6601 WT2      706      MECN     H11      HGA3     0.090000        1.0080           0
      6602 WT2      706      MECN     H12      HGA3     0.090000        1.0080           0
      6603 WT2      706      MECN     H13      HGA3     0.090000        1.0080           0
      6604 WT2      706      MECN     C2       CG1N1    0.360000       12.0110           0
      6605 WT2      706      MECN     N3       NG1T1   -0.460000       14.0070           0
      6606 WT2      715      MECN     C1       CG331   -0.170000       12.0110           0
      6607 WT2      715      MECN     H11      HGA3     0.090000        1.0080           0
      6608 WT2      715      MECN     H12      HGA3     0.090000        1.0080           0
      6609 WT2      715      MECN     H13      HGA3     0.090000        1.0080           0
      6610 WT2      715      MECN     C2       CG1N1    0.360000       12.0110           0
      6611 WT2      715      MECN     N3       NG1T1   -0.460000       14.0070           0
      6612 WT2      722      MECN     C1       CG331   -0.170000       12.0110           0
      6613 WT2      722      MECN     H11      HGA3     0.090000        1.0080           0
      6614 WT2      722      MECN     H12      HGA3     0.090000        1.0080           0
      6615 WT2      722      MECN     H13      HGA3     0.090000        1.0080           0
      6616 WT2      722      MECN     C2       CG1N1    0.360000       12.0110           0
      6617 WT2      722      MECN     N3       NG1T1   -0.460000       14.0070           0
      6618 WT2      724      MECN     C1       CG331   -0.170000       12.0110           0
      6619 WT2      724      MECN     H11      HGA3     0.090000        1.0080           0
      6620 WT2      724      MECN     H12      HGA3     0.090000        1.0080           0
      6621 WT2      724      MECN     H13      HGA3     0.090000        1.0080           0
      6622 WT2      724      MECN     C2       CG1N1    0.360000       12.0110           0
      6623 WT2      724      MECN     N3       NG1T1   -0.460000       14.0070           0
      6624 WT2      728      MECN     C1       CG331   -0.170000       12.0110           0
      6625 WT2      728      MECN     H11      HGA3     0.090000        1.0080           0
      6626 WT2      728      MECN     H12      HGA3     0.090000        1.0080           0
      6627 WT2      728      MECN     H13      HGA3     0.090000        1.0080           0
      6628 WT2      728      MECN     C2       CG1N1    0.360000       12.0110           0
      6629 WT2      728      MECN     N3       NG1T1   -0.460000       14.0070           0
      6630 WT2      736      MECN     C1       CG331   -0.170000       12.0110           0
      6631 WT2      736      MECN     H11      HGA3     0.090000        1.0080           0
      6632 WT2      736      MECN     H12      HGA3     0.090000        1.0080           0
      6633 WT2      736      MECN     H13      HGA3     0.090000        1.0080           0
      6634 WT2      736      MECN     C2       CG1N1    0.360000       12.0110           0
      6635 WT2      736      MECN     N3       NG1T1   -0.460000       14.0070           0
      6636 WT2      744      MECN     C1       CG331   -0.170000       12.0110           0
      6637 WT2      744      MECN     H11      HGA3     0.090000        1.0080           0
      6638 WT2      744      MECN     H12      HGA3     0.090000        1.0080           0
      6639 WT2      744      MECN     H13      HGA3     0.090000        1.0080           0
      6640 WT2      744      MECN     C2       CG1N1    0.360000       12.0110           0
      6641 WT2      744      MECN     N3       NG1T1   -0.460000       14.0070           0
      6642 WT2      749      MECN     C1       CG331   -0.170000       12.0110           0
      6643 WT2      749      MECN     H11      HGA3     0.090000        1.0080           0
      6644 WT2      749      MECN     H12      HGA3     0.090000        1.0080           0
      6645 WT2      749      MECN     H13      HGA3     0.090000        1.0080           0
      6646 WT2      749      MECN     C2       CG1N1    0.360000       12.0110           0
      6647 WT2      749      MECN     N3       NG1T1   -0.460000       14.0070           0
      6648 WT2      758      MECN     C1       CG331   -0.170000       12.0110           0
      6649 WT2      758      MECN     H11      HGA3     0.090000        1.0080           0
      6650 WT2      758      MECN     H12      HGA3     0.090000        1.0080           0
      6651 WT2      758      MECN     H13      HGA3     0.090000        1.0080           0
      6652 WT2      758      MECN     C2       CG1N1    0.360000       12.0110           0
      6653 WT2      758      MECN     N3       NG1T1   -0.460000       14.0070           0
      6654 WT2      762      MECN     C1       CG331   -0.170000       12.0110           0
      6655 WT2      762      MECN     H11      HGA3     0.090000        1.0080           0
      6656 WT2      762      MECN     H12      HGA3     0.090000        1.0080           0
      6657 WT2      762      MECN     H13      HGA3     0.090000        1.0080           0
      6658 WT2      762      MECN     C2       CG1N1    0.360000       12.0110           0
      6659 WT2      762      MECN     N3       NG1T1   -0.460000       14.0070           0
      6660 WT2      765      MECN     C1       CG331   -0.170000       12.0110           0
      6661 WT2      765      MECN     H11      HGA3     0.090000        1.0080           0
      6662 WT2      765      MECN     H12      HGA3     0.090000        1.0080           0
      6663 WT2      765      MECN     H13      HGA3     0.090000        1.0080           0
      6664 WT2      765      MECN     C2       CG1N1    0.360000       12.0110           0
      6665 WT2      765      MECN     N3       NG1T1   -0.460000       14.0070           0
      6666 WT2      770      MECN     C1       CG331   -0.170000       12.0110           0
      6667 WT2      770      MECN     H11      HGA3     0.090000        1.0080           0
      6668 WT2      770      MECN     H12      HGA3     0.090000        1.0080           0
      6669 WT2      770      MECN     H13      HGA3     0.090000        1.0080           0
      6670 WT2      770      MECN     C2       CG1N1    0.360000       12.0110           0
      6671 WT2      770      MECN     N3       NG1T1   -0.460000       14.0070           0
      6672 WT2      774      MECN     C1       CG331   -0.170000       12.0110           0
      6673 WT2      774      MECN     H11      HGA3     0.090000        1.0080           0
      6674 WT2      774      MECN     H12      HGA3     0.090000        1.0080           0
      6675 WT2      774      MECN     H13      HGA3     0.090000        1.0080           0
      6676 WT2      774      MECN     C2       CG1N1    0.360000       12.0110           0
      6677 WT2      774      MECN     N3       NG1T1   -0.460000       14.0070           0
      6678 WT2      777      MECN     C1       CG331   -0.170000       12.0110           0
      6679 WT2      777      MECN     H11      HGA3     0.090000        1.0080           0
      6680 WT2      777      MECN     H12      HGA3     0.090000        1.0080           0
      6681 WT2      777      MECN     H13      HGA3     0.090000        1.0080           0
      6682 WT2      777      MECN     C2       CG1N1    0.360000       12.0110           0
      6683 WT2      777      MECN     N3       NG1T1   -0.460000       14.0070           0
      6684 WT2      780      MECN     C1       CG331   -0.170000       12.0110           0
      6685 WT2      780      MECN     H11      HGA3     0.090000        1.0080           0
      6686 WT2      780      MECN     H12      HGA3     0.090000        1.0080           0
      6687 WT2      780      MECN     H13      HGA3     0.090000        1.0080           0
      6688 WT2      780      MECN     C2       CG1N1    0.360000       12.0110           0
      6689 WT2      780      MECN     N3       NG1T1   -0.460000       14.0070           0
      6690 WT2      781      MECN     C1       CG331   -0.170000       12.0110           0
      6691 WT2      781      MECN     H11      HGA3     0.090000        1.0080           0
      6692 WT2      781      MECN     H12      HGA3     0.090000        1.0080           0
      6693 WT2      781      MECN     H13      HGA3     0.090000        1.0080           0
      6694 WT2      781      MECN     C2       CG1N1    0.360000       12.0110           0
      6695 WT2      781      MECN     N3       NG1T1   -0.460000       14.0070           0
      6696 WT2      783      MECN     C1       CG331   -0.170000       12.0110           0
      6697 WT2      783      MECN     H11      HGA3     0.090000        1.0080           0
      6698 WT2      783      MECN     H12      HGA3     0.090000        1.0080           0
      6699 WT2      783      MECN     H13      HGA3     0.090000        1.0080           0
      6700 WT2      783      MECN     C2       CG1N1    0.360000       12.0110           0
      6701 WT2      783      MECN     N3       NG1T1   -0.460000       14.0070           0
      6702 WT2      787      MECN     C1       CG331   -0.170000       12.0110           0
      6703 WT2      787      MECN     H11      HGA3     0.090000        1.0080           0
      6704 WT2      787      MECN     H12      HGA3     0.090000        1.0080           0
      6705 WT2      787      MECN     H13      HGA3     0.090000        1.0080           0
      6706 WT2      787      MECN     C2       CG1N1    0.360000       12.0110           0
      6707 WT2      787      MECN     N3       NG1T1   -0.460000       14.0070           0
      6708 WT2      791      MECN     C1       CG331   -0.170000       12.0110           0
      6709 WT2      791      MECN     H11      HGA3     0.090000        1.0080           0
      6710 WT2      791      MECN     H12      HGA3     0.090000        1.0080           0
      6711 WT2      791      MECN     H13      HGA3     0.090000        1.0080           0
      6712 WT2      791      MECN     C2       CG1N1    0.360000       12.0110           0
      6713 WT2      791      MECN     N3       NG1T1   -0.460000       14.0070           0
      6714 WT2      805      MECN     C1       CG331   -0.170000       12.0110           0
      6715 WT2      805      MECN     H11      HGA3     0.090000        1.0080           0
      6716 WT2      805      MECN     H12      HGA3     0.090000        1.0080           0
      6717 WT2      805      MECN     H13      HGA3     0.090000        1.0080           0
      6718 WT2      805      MECN     C2       CG1N1    0.360000       12.0110           0
      6719 WT2      805      MECN     N3       NG1T1   -0.460000       14.0070           0
      6720 WT2      807      MECN     C1       CG331   -0.170000       12.0110           0
      6721 WT2      807      MECN     H11      HGA3     0.090000        1.0080           0
      6722 WT2      807      MECN     H12      HGA3     0.090000        1.0080           0
      6723 WT2      807      MECN     H13      HGA3     0.090000        1.0080           0
      6724 WT2      807      MECN     C2       CG1N1    0.360000       12.0110           0
      6725 WT2      807      MECN     N3       NG1T1   -0.460000       14.0070           0
      6726 WT2      810      MECN     C1       CG331   -0.170000       12.0110           0
      6727 WT2      810      MECN     H11      HGA3     0.090000        1.0080           0
      6728 WT2      810      MECN     H12      HGA3     0.090000        1.0080           0
      6729 WT2      810      MECN     H13      HGA3     0.090000        1.0080           0
      6730 WT2      810      MECN     C2       CG1N1    0.360000       12.0110           0
      6731 WT2      810      MECN     N3       NG1T1   -0.460000       14.0070           0
      6732 WT2      836      MECN     C1       CG331   -0.170000       12.0110           0
      6733 WT2      836      MECN     H11      HGA3     0.090000        1.0080           0
      6734 WT2      836      MECN     H12      HGA3     0.090000        1.0080           0
      6735 WT2      836      MECN     H13      HGA3     0.090000        1.0080           0
      6736 WT2      836      MECN     C2       CG1N1    0.360000       12.0110           0
      6737 WT2      836      MECN     N3       NG1T1   -0.460000       14.0070           0
      6738 WT2      838      MECN     C1       CG331   -0.170000       12.0110           0
      6739 WT2      838      MECN     H11      HGA3     0.090000        1.0080           0
      6740 WT2      838      MECN     H12      HGA3     0.090000        1.0080           0
      6741 WT2      838      MECN     H13      HGA3     0.090000        1.0080           0
      6742 WT2      838      MECN     C2       CG1N1    0.360000       12.0110           0
      6743 WT2      838      MECN     N3       NG1T1   -0.460000       14.0070           0
      6744 WT2      839      MECN     C1       CG331   -0.170000       12.0110           0
      6745 WT2      839      MECN     H11      HGA3     0.090000        1.0080           0
      6746 WT2      839      MECN     H12      HGA3     0.090000        1.0080           0
      6747 WT2      839      MECN     H13      HGA3     0.090000        1.0080           0
      6748 WT2      839      MECN     C2       CG1N1    0.360000       12.0110           0
      6749 WT2      839      MECN     N3       NG1T1   -0.460000       14.0070           0
      6750 WT2      851      MECN     C1       CG331   -0.170000       12.0110           0
      6751 WT2      851      MECN     H11      HGA3     0.090000        1.0080           0
      6752 WT2      851      MECN     H12      HGA3     0.090000        1.0080           0
      6753 WT2      851      MECN     H13      HGA3     0.090000        1.0080           0
      6754 WT2      851      MECN     C2       CG1N1    0.360000       12.0110           0
      6755 WT2      851      MECN     N3       NG1T1   -0.460000       14.0070           0
      6756 WT2      866      MECN     C1       CG331   -0.170000       12.0110           0
      6757 WT2      866      MECN     H11      HGA3     0.090000        1.0080           0
      6758 WT2      866      MECN     H12      HGA3     0.090000        1.0080           0
      6759 WT2      866      MECN     H13      HGA3     0.090000        1.0080           0
      6760 WT2      866      MECN     C2       CG1N1    0.360000       12.0110           0
      6761 WT2      866      MECN     N3       NG1T1   -0.460000       14.0070           0
      6762 WT2      871      MECN     C1       CG331   -0.170000       12.0110           0
      6763 WT2      871      MECN     H11      HGA3     0.090000        1.0080           0
      6764 WT2      871      MECN     H12      HGA3     0.090000        1.0080           0
      6765 WT2      871      MECN     H13      HGA3     0.090000        1.0080           0
      6766 WT2      871      MECN     C2       CG1N1    0.360000       12.0110           0
      6767 WT2      871      MECN     N3       NG1T1   -0.460000       14.0070           0
      6768 WT2      875      MECN     C1       CG331   -0.170000       12.0110           0
      6769 WT2      875      MECN     H11      HGA3     0.090000        1.0080           0
      6770 WT2      875      MECN     H12      HGA3     0.090000        1.0080           0
      6771 WT2      875      MECN     H13      HGA3     0.090000        1.0080           0
      6772 WT2      875      MECN     C2       CG1N1    0.360000       12.0110           0
      6773 WT2      875      MECN     N3       NG1T1   -0.460000       14.0070           0
      6774 WT2      879      MECN     C1       CG331   -0.170000       12.0110           0
      6775 WT2      879      MECN     H11      HGA3     0.090000        1.0080           0
      6776 WT2      879      MECN     H12      HGA3     0.090000        1.0080           0
      6777 WT2      879      MECN     H13      HGA3     0.090000        1.0080           0
      6778 WT2      879      MECN     C2       CG1N1    0.360000       12.0110           0
      6779 WT2      879      MECN     N3       NG1T1   -0.460000       14.0070           0
      6780 WT2      880      MECN     C1       CG331   -0.170000       12.0110           0
      6781 WT2      880      MECN     H11      HGA3     0.090000        1.0080           0
      6782 WT2      880      MECN     H12      HGA3     0.090000        1.0080           0
      6783 WT2      880      MECN     H13      HGA3     0.090000        1.0080           0
      6784 WT2      880      MECN     C2       CG1N1    0.360000       12.0110           0
      6785 WT2      880      MECN     N3       NG1T1   -0.460000       14.0070           0
      6786 WT2      882      MECN     C1       CG331   -0.170000       12.0110           0
      6787 WT2      882      MECN     H11      HGA3     0.090000        1.0080           0
      6788 WT2      882      MECN     H12      HGA3     0.090000        1.0080           0
      6789 WT2      882      MECN     H13      HGA3     0.090000        1.0080           0
      6790 WT2      882      MECN     C2       CG1N1    0.360000       12.0110           0
      6791 WT2      882      MECN     N3       NG1T1   -0.460000       14.0070           0
      6792 WT2      883      MECN     C1       CG331   -0.170000       12.0110           0
      6793 WT2      883      MECN     H11      HGA3     0.090000        1.0080           0
      6794 WT2      883      MECN     H12      HGA3     0.090000        1.0080           0
      6795 WT2      883      MECN     H13      HGA3     0.090000        1.0080           0
      6796 WT2      883      MECN     C2       CG1N1    0.360000       12.0110           0
      6797 WT2      883      MECN     N3       NG1T1   -0.460000       14.0070           0
      6798 WT2      884      MECN     C1       CG331   -0.170000       12.0110           0
      6799 WT2      884      MECN     H11      HGA3     0.090000        1.0080           0
      6800 WT2      884      MECN     H12      HGA3     0.090000        1.0080           0
      6801 WT2      884      MECN     H13      HGA3     0.090000        1.0080           0
      6802 WT2      884      MECN     C2       CG1N1    0.360000       12.0110           0
      6803 WT2      884      MECN     N3       NG1T1   -0.460000       14.0070           0
      6804 WT2      897      MECN     C1       CG331   -0.170000       12.0110           0
      6805 WT2      897      MECN     H11      HGA3     0.090000        1.0080           0
      6806 WT2      897      MECN     H12      HGA3     0.090000        1.0080           0
      6807 WT2      897      MECN     H13      HGA3     0.090000        1.0080           0
      6808 WT2      897      MECN     C2       CG1N1    0.360000       12.0110           0
      6809 WT2      897      MECN     N3       NG1T1   -0.460000       14.0070           0
      6810 WT2      899      MECN     C1       CG331   -0.170000       12.0110           0
      6811 WT2      899      MECN     H11      HGA3     0.090000        1.0080           0
      6812 WT2      899      MECN     H12      HGA3     0.090000        1.0080           0
      6813 WT2      899      MECN     H13      HGA3     0.090000        1.0080           0
      6814 WT2      899      MECN     C2       CG1N1    0.360000       12.0110           0
      6815 WT2      899      MECN     N3       NG1T1   -0.460000       14.0070           0
      6816 WT2      901      MECN     C1       CG331   -0.170000       12.0110           0
      6817 WT2      901      MECN     H11      HGA3     0.090000        1.0080           0
      6818 WT2      901      MECN     H12      HGA3     0.090000        1.0080           0
      6819 WT2      901      MECN     H13      HGA3     0.090000        1.0080           0
      6820 WT2      901      MECN     C2       CG1N1    0.360000       12.0110           0
      6821 WT2      901      MECN     N3       NG1T1   -0.460000       14.0070           0
      6822 WT2      904      MECN     C1       CG331   -0.170000       12.0110           0
      6823 WT2      904      MECN     H11      HGA3     0.090000        1.0080           0
      6824 WT2      904      MECN     H12      HGA3     0.090000        1.0080           0
      6825 WT2      904      MECN     H13      HGA3     0.090000        1.0080           0
      6826 WT2      904      MECN     C2       CG1N1    0.360000       12.0110           0
      6827 WT2      904      MECN     N3       NG1T1   -0.460000       14.0070           0
      6828 WT2      907      MECN     C1       CG331   -0.170000       12.0110           0
      6829 WT2      907      MECN     H11      HGA3     0.090000        1.0080           0
      6830 WT2      907      MECN     H12      HGA3     0.090000        1.0080           0
      6831 WT2      907      MECN     H13      HGA3     0.090000        1.0080           0
      6832 WT2      907      MECN     C2       CG1N1    0.360000       12.0110           0
      6833 WT2      907      MECN     N3       NG1T1   -0.460000       14.0070           0
      6834 WT2      914      MECN     C1       CG331   -0.170000       12.0110           0
      6835 WT2      914      MECN     H11      HGA3     0.090000        1.0080           0
      6836 WT2      914      MECN     H12      HGA3     0.090000        1.0080           0
      6837 WT2      914      MECN     H13      HGA3     0.090000        1.0080           0
      6838 WT2      914      MECN     C2       CG1N1    0.360000       12.0110           0
      6839 WT2      914      MECN     N3       NG1T1   -0.460000       14.0070           0
      6840 WT2      916      MECN     C1       CG331   -0.170000       12.0110           0
      6841 WT2      916      MECN     H11      HGA3     0.090000        1.0080           0
      6842 WT2      916      MECN     H12      HGA3     0.090000        1.0080           0
      6843 WT2      916      MECN     H13      HGA3     0.090000        1.0080           0
      6844 WT2      916      MECN     C2       CG1N1    0.360000       12.0110           0
      6845 WT2      916      MECN     N3       NG1T1   -0.460000       14.0070           0
      6846 WT2      918      MECN     C1       CG331   -0.170000       12.0110           0
      6847 WT2      918      MECN     H11      HGA3     0.090000        1.0080           0
      6848 WT2      918      MECN     H12      HGA3     0.090000        1.0080           0
      6849 WT2      918      MECN     H13      HGA3     0.090000        1.0080           0
      6850 WT2      918      MECN     C2       CG1N1    0.360000       12.0110           0
      6851 WT2      918      MECN     N3       NG1T1   -0.460000       14.0070           0
      6852 WT2      922      MECN     C1       CG331   -0.170000       12.0110           0
      6853 WT2      922      MECN     H11      HGA3     0.090000        1.0080           0
      6854 WT2      922      MECN     H12      HGA3     0.090000        1.0080           0
      6855 WT2      922      MECN     H13      HGA3     0.090000        1.0080           0
      6856 WT2      922      MECN     C2       CG1N1    0.360000       12.0110           0
      6857 WT2      922      MECN     N3       NG1T1   -0.460000       14.0070           0
      6858 WT2      934      MECN     C1       CG331   -0.170000       12.0110           0
      6859 WT2      934      MECN     H11      HGA3     0.090000        1.0080           0
      6860 WT2      934      MECN     H12      HGA3     0.090000        1.0080           0
      6861 WT2      934      MECN     H13      HGA3     0.090000        1.0080           0
      6862 WT2      934      MECN     C2       CG1N1    0.360000       12.0110           0
      6863 WT2      934      MECN     N3       NG1T1   -0.460000       14.0070           0
      6864 WT2      935      MECN     C1       CG331   -0.170000       12.0110           0
      6865 WT2      935      MECN     H11      HGA3     0.090000        1.0080           0
      6866 WT2      935      MECN     H12      HGA3     0.090000        1.0080           0
      6867 WT2      935      MECN     H13      HGA3     0.090000        1.0080           0
      6868 WT2      935      MECN     C2       CG1N1    0.360000       12.0110           0
      6869 WT2      935      MECN     N3       NG1T1   -0.460000       14.0070           0
      6870 WT2      938      MECN     C1       CG331   -0.170000       12.0110           0
      6871 WT2      938      MECN     H11      HGA3     0.090000        1.0080           0
      6872 WT2      938      MECN     H12      HGA3     0.090000        1.0080           0
      6873 WT2      938      MECN     H13      HGA3     0.090000        1.0080           0
      6874 WT2      938      MECN     C2       CG1N1    0.360000       12.0110           0
      6875 WT2      938      MECN     N3       NG1T1   -0.460000       14.0070           0
      6876 WT2      939      MECN     C1       CG331   -0.170000       12.0110           0
      6877 WT2      939      MECN     H11      HGA3     0.090000        1.0080           0
      6878 WT2      939      MECN     H12      HGA3     0.090000        1.0080           0
      6879 WT2      939      MECN     H13      HGA3     0.090000        1.0080           0
      6880 WT2      939      MECN     C2       CG1N1    0.360000       12.0110           0
      6881 WT2      939      MECN     N3       NG1T1   -0.460000       14.0070           0
      6882 WT2      947      MECN     C1       CG331   -0.170000       12.0110           0
      6883 WT2      947      MECN     H11      HGA3     0.090000        1.0080           0
      6884 WT2      947      MECN     H12      HGA3     0.090000        1.0080           0
      6885 WT2      947      MECN     H13      HGA3     0.090000        1.0080           0
      6886 WT2      947      MECN     C2       CG1N1    0.360000       12.0110           0
      6887 WT2      947      MECN     N3       NG1T1   -0.460000       14.0070           0
      6888 WT2      959      MECN     C1       CG331   -0.170000       12.0110           0
      6889 WT2      959      MECN     H11      HGA3     0.090000        1.0080           0
      6890 WT2      959      MECN     H12      HGA3     0.090000        1.0080           0
      6891 WT2      959      MECN     H13      HGA3     0.090000        1.0080           0
      6892 WT2      959      MECN     C2       CG1N1    0.360000       12.0110           0
      6893 WT2      959      MECN     N3       NG1T1   -0.460000       14.0070           0
      6894 WT2      960      MECN     C1       CG331   -0.170000       12.0110           0
      6895 WT2      960      MECN     H11      HGA3     0.090000        1.0080           0
      6896 WT2      960      MECN     H12      HGA3     0.090000        1.0080           0
      6897 WT2      960      MECN     H13      HGA3     0.090000        1.0080           0
      6898 WT2      960      MECN     C2       CG1N1    0.360000       12.0110           0
      6899 WT2      960      MECN     N3       NG1T1   -0.460000       14.0070           0
      6900 WT2      963      MECN     C1       CG331   -0.170000       12.0110           0
      6901 WT2      963      MECN     H11      HGA3     0.090000        1.0080           0
      6902 WT2      963      MECN     H12      HGA3     0.090000        1.0080           0
      6903 WT2      963      MECN     H13      HGA3     0.090000        1.0080           0
      6904 WT2      963      MECN     C2       CG1N1    0.360000       12.0110           0
      6905 WT2      963      MECN     N3       NG1T1   -0.460000       14.0070           0
      6906 WT2      964      MECN     C1       CG331   -0.170000       12.0110           0
      6907 WT2      964      MECN     H11      HGA3     0.090000        1.0080           0
      6908 WT2      964      MECN     H12      HGA3     0.090000        1.0080           0
      6909 WT2      964      MECN     H13      HGA3     0.090000        1.0080           0
      6910 WT2      964      MECN     C2       CG1N1    0.360000       12.0110           0
      6911 WT2      964      MECN     N3       NG1T1   -0.460000       14.0070           0
      6912 WT2      967      MECN     C1       CG331   -0.170000       12.0110           0
      6913 WT2      967      MECN     H11      HGA3     0.090000        1.0080           0
      6914 WT2      967      MECN     H12      HGA3     0.090000        1.0080           0
      6915 WT2      967      MECN     H13      HGA3     0.090000        1.0080           0
      6916 WT2      967      MECN     C2       CG1N1    0.360000       12.0110           0
      6917 WT2      967      MECN     N3       NG1T1   -0.460000       14.0070           0
      6918 WT2      971      MECN     C1       CG331   -0.170000       12.0110           0
      6919 WT2      971      MECN     H11      HGA3     0.090000        1.0080           0
      6920 WT2      971      MECN     H12      HGA3     0.090000        1.0080           0
      6921 WT2      971      MECN     H13      HGA3     0.090000        1.0080           0
      6922 WT2      971      MECN     C2       CG1N1    0.360000       12.0110           0
      6923 WT2      971      MECN     N3       NG1T1   -0.460000       14.0070           0
      6924 WT2      975      MECN     C1       CG331   -0.170000       12.0110           0
      6925 WT2      975      MECN     H11      HGA3     0.090000        1.0080           0
      6926 WT2      975      MECN     H12      HGA3     0.090000        1.0080           0
      6927 WT2      975      MECN     H13      HGA3     0.090000        1.0080           0
      6928 WT2      975      MECN     C2       CG1N1    0.360000       12.0110           0
      6929 WT2      975      MECN     N3       NG1T1   -0.460000       14.0070           0
      6930 WT2      983      MECN     C1       CG331   -0.170000       12.0110           0
      6931 WT2      983      MECN     H11      HGA3     0.090000        1.0080           0
      6932 WT2      983      MECN     H12      HGA3     0.090000        1.0080           0
      6933 WT2      983      MECN     H13      HGA3     0.090000        1.0080           0
      6934 WT2      983      MECN     C2       CG1N1    0.360000       12.0110           0
      6935 WT2      983      MECN     N3       NG1T1   -0.460000       14.0070           0
      6936 WT2      986      MECN     C1       CG331   -0.170000       12.0110           0
      6937 WT2      986      MECN     H11      HGA3     0.090000        1.0080           0
      6938 WT2      986      MECN     H12      HGA3     0.090000        1.0080           0
      6939 WT2      986      MECN     H13      HGA3     0.090000        1.0080           0
      6940 WT2      986      MECN     C2       CG1N1    0.360000       12.0110           0
      6941 WT2      986      MECN     N3       NG1T1   -0.460000       14.0070           0
      6942 WT2      999      MECN     C1       CG331   -0.170000       12.0110           0
      6943 WT2      999      MECN     H11      HGA3     0.090000        1.0080           0
      6944 WT2      999      MECN     H12      HGA3     0.090000        1.0080           0
      6945 WT2      999      MECN     H13      HGA3     0.090000        1.0080           0
      6946 WT2      999      MECN     C2       CG1N1    0.360000       12.0110           0
      6947 WT2      999      MECN     N3       NG1T1   -0.460000       14.0070           0
      6948 WT2      1001     MECN     C1       CG331   -0.170000       12.0110           0
      6949 WT2      1001     MECN     H11      HGA3     0.090000        1.0080           0
      6950 WT2      1001     MECN     H12      HGA3     0.090000        1.0080           0
      6951 WT2      1001     MECN     H13      HGA3     0.090000        1.0080           0
      6952 WT2      1001     MECN     C2       CG1N1    0.360000       12.0110           0
      6953 WT2      1001     MECN     N3       NG1T1   -0.460000       14.0070           0
      6954 WT2      1002     MECN     C1       CG331   -0.170000       12.0110           0
      6955 WT2      1002     MECN     H11      HGA3     0.090000        1.0080           0
      6956 WT2      1002     MECN     H12      HGA3     0.090000        1.0080           0
      6957 WT2      1002     MECN     H13      HGA3     0.090000        1.0080           0
      6958 WT2      1002     MECN     C2       CG1N1    0.360000       12.0110           0
      6959 WT2      1002     MECN     N3       NG1T1   -0.460000       14.0070           0
      6960 WT2      1005     MECN     C1       CG331   -0.170000       12.0110           0
      6961 WT2      1005     MECN     H11      HGA3     0.090000        1.0080           0
      6962 WT2      1005     MECN     H12      HGA3     0.090000        1.0080           0
      6963 WT2      1005     MECN     H13      HGA3     0.090000        1.0080           0
      6964 WT2      1005     MECN     C2       CG1N1    0.360000       12.0110           0
      6965 WT2      1005     MECN     N3       NG1T1   -0.460000       14.0070           0
      6966 WT2      1016     MECN     C1       CG331   -0.170000       12.0110           0
      6967 WT2      1016     MECN     H11      HGA3     0.090000        1.0080           0
      6968 WT2      1016     MECN     H12      HGA3     0.090000        1.0080           0
      6969 WT2      1016     MECN     H13      HGA3     0.090000        1.0080           0
      6970 WT2      1016     MECN     C2       CG1N1    0.360000       12.0110           0
      6971 WT2      1016     MECN     N3       NG1T1   -0.460000       14.0070           0
      6972 WT2      1020     MECN     C1       CG331   -0.170000       12.0110           0
      6973 WT2      1020     MECN     H11      HGA3     0.090000        1.0080           0
      6974 WT2      1020     MECN     H12      HGA3     0.090000        1.0080           0
      6975 WT2      1020     MECN     H13      HGA3     0.090000        1.0080           0
      6976 WT2      1020     MECN     C2       CG1N1    0.360000       12.0110           0
      6977 WT2      1020     MECN     N3       NG1T1   -0.460000       14.0070           0
      6978 WT2      1022     MECN     C1       CG331   -0.170000       12.0110           0
      6979 WT2      1022     MECN     H11      HGA3     0.090000        1.0080           0
      6980 WT2      1022     MECN     H12      HGA3     0.090000        1.0080           0
      6981 WT2      1022     MECN     H13      HGA3     0.090000        1.0080           0
      6982 WT2      1022     MECN     C2       CG1N1    0.360000       12.0110           0
      6983 WT2      1022     MECN     N3       NG1T1   -0.460000       14.0070           0
      6984 WT2      1025     MECN     C1       CG331   -0.170000       12.0110           0
      6985 WT2      1025     MECN     H11      HGA3     0.090000        1.0080           0
      6986 WT2      1025     MECN     H12      HGA3     0.090000        1.0080           0
      6987 WT2      1025     MECN     H13      HGA3     0.090000        1.0080           0
      6988 WT2      1025     MECN     C2       CG1N1    0.360000       12.0110           0
      6989 WT2      1025     MECN     N3       NG1T1   -0.460000       14.0070           0
      6990 WT2      1026     MECN     C1       CG331   -0.170000       12.0110           0
      6991 WT2      1026     MECN     H11      HGA3     0.090000        1.0080           0
      6992 WT2      1026     MECN     H12      HGA3     0.090000        1.0080           0
      6993 WT2      1026     MECN     H13      HGA3     0.090000        1.0080           0
      6994 WT2      1026     MECN     C2       CG1N1    0.360000       12.0110           0
      6995 WT2      1026     MECN     N3       NG1T1   -0.460000       14.0070           0
      6996 WT2      1027     MECN     C1       CG331   -0.170000       12.0110           0
      6997 WT2      1027     MECN     H11      HGA3     0.090000        1.0080           0
      6998 WT2      1027     MECN     H12      HGA3     0.090000        1.0080           0
      6999 WT2      1027     MECN     H13      HGA3     0.090000        1.0080           0
      7000 WT2      1027     MECN     C2       CG1N1    0.360000       12.0110           0
      7001 WT2      1027     MECN     N3       NG1T1   -0.460000       14.0070           0
      7002 WT2      1030     MECN     C1       CG331   -0.170000       12.0110           0
      7003 WT2      1030     MECN     H11      HGA3     0.090000        1.0080           0
      7004 WT2      1030     MECN     H12      HGA3     0.090000        1.0080           0
      7005 WT2      1030     MECN     H13      HGA3     0.090000        1.0080           0
      7006 WT2      1030     MECN     C2       CG1N1    0.360000       12.0110           0
      7007 WT2      1030     MECN     N3       NG1T1   -0.460000       14.0070           0
      7008 WT2      1038     MECN     C1       CG331   -0.170000       12.0110           0
      7009 WT2      1038     MECN     H11      HGA3     0.090000        1.0080           0
      7010 WT2      1038     MECN     H12      HGA3     0.090000        1.0080           0
      7011 WT2      1038     MECN     H13      HGA3     0.090000        1.0080           0
      7012 WT2      1038     MECN     C2       CG1N1    0.360000       12.0110           0
      7013 WT2      1038     MECN     N3       NG1T1   -0.460000       14.0070           0
      7014 WT2      1045     MECN     C1       CG331   -0.170000       12.0110           0
      7015 WT2      1045     MECN     H11      HGA3     0.090000        1.0080           0
      7016 WT2      1045     MECN     H12      HGA3     0.090000        1.0080           0
      7017 WT2      1045     MECN     H13      HGA3     0.090000        1.0080           0
      7018 WT2      1045     MECN     C2       CG1N1    0.360000       12.0110           0
      7019 WT2      1045     MECN     N3       NG1T1   -0.460000       14.0070           0
      7020 WT2      1050     MECN     C1       CG331   -0.170000       12.0110           0
      7021 WT2      1050     MECN     H11      HGA3     0.090000        1.0080           0
      7022 WT2      1050     MECN     H12      HGA3     0.090000        1.0080           0
      7023 WT2      1050     MECN     H13      HGA3     0.090000        1.0080           0
      7024 WT2      1050     MECN     C2       CG1N1    0.360000       12.0110           0
      7025 WT2      1050     MECN     N3       NG1T1   -0.460000       14.0070           0
      7026 WT2      1060     MECN     C1       CG331   -0.170000       12.0110           0
      7027 WT2      1060     MECN     H11      HGA3     0.090000        1.0080           0
      7028 WT2      1060     MECN     H12      HGA3     0.090000        1.0080           0
      7029 WT2      1060     MECN     H13      HGA3     0.090000        1.0080           0
      7030 WT2      1060     MECN     C2       CG1N1    0.360000       12.0110           0
      7031 WT2      1060     MECN     N3       NG1T1   -0.460000       14.0070           0
      7032 WT2      1073     MECN     C1       CG331   -0.170000       12.0110           0
      7033 WT2      1073     MECN     H11      HGA3     0.090000        1.0080           0
      7034 WT2      1073     MECN     H12      HGA3     0.090000        1.0080           0
      7035 WT2      1073     MECN     H13      HGA3     0.090000        1.0080           0
      7036 WT2      1073     MECN     C2       CG1N1    0.360000       12.0110           0
      7037 WT2      1073     MECN     N3       NG1T1   -0.460000       14.0070           0
      7038 WT2      1077     MECN     C1       CG331   -0.170000       12.0110           0
      7039 WT2      1077     MECN     H11      HGA3     0.090000        1.0080           0
      7040 WT2      1077     MECN     H12      HGA3     0.090000        1.0080           0
      7041 WT2      1077     MECN     H13      HGA3     0.090000        1.0080           0
      7042 WT2      1077     MECN     C2       CG1N1    0.360000       12.0110           0
      7043 WT2      1077     MECN     N3       NG1T1   -0.460000       14.0070           0
      7044 WT2      1088     MECN     C1       CG331   -0.170000       12.0110           0
      7045 WT2      1088     MECN     H11      HGA3     0.090000        1.0080           0
      7046 WT2      1088     MECN     H12      HGA3     0.090000        1.0080           0
      7047 WT2      1088     MECN     H13      HGA3     0.090000        1.0080           0
      7048 WT2      1088     MECN     C2       CG1N1    0.360000       12.0110           0
      7049 WT2      1088     MECN     N3       NG1T1   -0.460000       14.0070           0
      7050 WT2      1096     MECN     C1       CG331   -0.170000       12.0110           0
      7051 WT2      1096     MECN     H11      HGA3     0.090000        1.0080           0
      7052 WT2      1096     MECN     H12      HGA3     0.090000        1.0080           0
      7053 WT2      1096     MECN     H13      HGA3     0.090000        1.0080           0
      7054 WT2      1096     MECN     C2       CG1N1    0.360000       12.0110           0
      7055 WT2      1096     MECN     N3       NG1T1   -0.460000       14.0070           0
      7056 WT2      1098     MECN     C1       CG331   -0.170000       12.0110           0
      7057 WT2      1098     MECN     H11      HGA3     0.090000        1.0080           0
      7058 WT2      1098     MECN     H12      HGA3     0.090000        1.0080           0
      7059 WT2      1098     MECN     H13      HGA3     0.090000        1.0080           0
      7060 WT2      1098     MECN     C2       CG1N1    0.360000       12.0110           0
      7061 WT2      1098     MECN     N3       NG1T1   -0.460000       14.0070           0
      7062 WT2      1099     MECN     C1       CG331   -0.170000       12.0110           0
      7063 WT2      1099     MECN     H11      HGA3     0.090000        1.0080           0
      7064 WT2      1099     MECN     H12      HGA3     0.090000        1.0080           0
      7065 WT2      1099     MECN     H13      HGA3     0.090000        1.0080           0
      7066 WT2      1099     MECN     C2       CG1N1    0.360000       12.0110           0
      7067 WT2      1099     MECN     N3       NG1T1   -0.460000       14.0070           0
      7068 WT2      1100     MECN     C1       CG331   -0.170000       12.0110           0
      7069 WT2      1100     MECN     H11      HGA3     0.090000        1.0080           0
      7070 WT2      1100     MECN     H12      HGA3     0.090000        1.0080           0
      7071 WT2      1100     MECN     H13      HGA3     0.090000        1.0080           0
      7072 WT2      1100     MECN     C2       CG1N1    0.360000       12.0110           0
      7073 WT2      1100     MECN     N3       NG1T1   -0.460000       14.0070           0
      7074 WT2      1101     MECN     C1       CG331   -0.170000       12.0110           0
      7075 WT2      1101     MECN     H11      HGA3     0.090000        1.0080           0
      7076 WT2      1101     MECN     H12      HGA3     0.090000        1.0080           0
      7077 WT2      1101     MECN     H13      HGA3     0.090000        1.0080           0
      7078 WT2      1101     MECN     C2       CG1N1    0.360000       12.0110           0
      7079 WT2      1101     MECN     N3       NG1T1   -0.460000       14.0070           0
      7080 WT2      1110     MECN     C1       CG331   -0.170000       12.0110           0
      7081 WT2      1110     MECN     H11      HGA3     0.090000        1.0080           0
      7082 WT2      1110     MECN     H12      HGA3     0.090000        1.0080           0
      7083 WT2      1110     MECN     H13      HGA3     0.090000        1.0080           0
      7084 WT2      1110     MECN     C2       CG1N1    0.360000       12.0110           0
      7085 WT2      1110     MECN     N3       NG1T1   -0.460000       14.0070           0
      7086 WT2      1115     MECN     C1       CG331   -0.170000       12.0110           0
      7087 WT2      1115     MECN     H11      HGA3     0.090000        1.0080           0
      7088 WT2      1115     MECN     H12      HGA3     0.090000        1.0080           0
      7089 WT2      1115     MECN     H13      HGA3     0.090000        1.0080           0
      7090 WT2      1115     MECN     C2       CG1N1    0.360000       12.0110           0
      7091 WT2      1115     MECN     N3       NG1T1   -0.460000       14.0070           0
      7092 WT2      1123     MECN     C1       CG331   -0.170000       12.0110           0
      7093 WT2      1123     MECN     H11      HGA3     0.090000        1.0080           0
      7094 WT2      1123     MECN     H12      HGA3     0.090000        1.0080           0
      7095 WT2      1123     MECN     H13      HGA3     0.090000        1.0080           0
      7096 WT2      1123     MECN     C2       CG1N1    0.360000       12.0110           0
      7097 WT2      1123     MECN     N3       NG1T1   -0.460000       14.0070           0
      7098 WT2      1129     MECN     C1       CG331   -0.170000       12.0110           0
      7099 WT2      1129     MECN     H11      HGA3     0.090000        1.0080           0
      7100 WT2      1129     MECN     H12      HGA3     0.090000        1.0080           0
      7101 WT2      1129     MECN     H13      HGA3     0.090000        1.0080           0
      7102 WT2      1129     MECN     C2       CG1N1    0.360000       12.0110           0
      7103 WT2      1129     MECN     N3       NG1T1   -0.460000       14.0070           0
      7104 WT2      1141     MECN     C1       CG331   -0.170000       12.0110           0
      7105 WT2      1141     MECN     H11      HGA3     0.090000        1.0080           0
      7106 WT2      1141     MECN     H12      HGA3     0.090000        1.0080           0
      7107 WT2      1141     MECN     H13      HGA3     0.090000        1.0080           0
      7108 WT2      1141     MECN     C2       CG1N1    0.360000       12.0110           0
      7109 WT2      1141     MECN     N3       NG1T1   -0.460000       14.0070           0
      7110 WT2      1143     MECN     C1       CG331   -0.170000       12.0110           0
      7111 WT2      1143     MECN     H11      HGA3     0.090000        1.0080           0
      7112 WT2      1143     MECN     H12      HGA3     0.090000        1.0080           0
      7113 WT2      1143     MECN     H13      HGA3     0.090000        1.0080           0
      7114 WT2      1143     MECN     C2       CG1N1    0.360000       12.0110           0
      7115 WT2      1143     MECN     N3       NG1T1   -0.460000       14.0070           0
      7116 WT2      1144     MECN     C1       CG331   -0.170000       12.0110           0
      7117 WT2      1144     MECN     H11      HGA3     0.090000        1.0080           0
      7118 WT2      1144     MECN     H12      HGA3     0.090000        1.0080           0
      7119 WT2      1144     MECN     H13      HGA3     0.090000        1.0080           0
      7120 WT2      1144     MECN     C2       CG1N1    0.360000       12.0110           0
      7121 WT2      1144     MECN     N3       NG1T1   -0.460000       14.0070           0
      7122 WT2      1153     MECN     C1       CG331   -0.170000       12.0110           0
      7123 WT2      1153     MECN     H11      HGA3     0.090000        1.0080           0
      7124 WT2      1153     MECN     H12      HGA3     0.090000        1.0080           0
      7125 WT2      1153     MECN     H13      HGA3     0.090000        1.0080           0
      7126 WT2      1153     MECN     C2       CG1N1    0.360000       12.0110           0
      7127 WT2      1153     MECN     N3       NG1T1   -0.460000       14.0070           0
      7128 WT2      1154     MECN     C1       CG331   -0.170000       12.0110           0
      7129 WT2      1154     MECN     H11      HGA3     0.090000        1.0080           0
      7130 WT2      1154     MECN     H12      HGA3     0.090000        1.0080           0
      7131 WT2      1154     MECN     H13      HGA3     0.090000        1.0080           0
      7132 WT2      1154     MECN     C2       CG1N1    0.360000       12.0110           0
      7133 WT2      1154     MECN     N3       NG1T1   -0.460000       14.0070           0
      7134 WT2      1169     MECN     C1       CG331   -0.170000       12.0110           0
      7135 WT2      1169     MECN     H11      HGA3     0.090000        1.0080           0
      7136 WT2      1169     MECN     H12      HGA3     0.090000        1.0080           0
      7137 WT2      1169     MECN     H13      HGA3     0.090000        1.0080           0
      7138 WT2      1169     MECN     C2       CG1N1    0.360000       12.0110           0
      7139 WT2      1169     MECN     N3       NG1T1   -0.460000       14.0070           0
      7140 WT2      1178     MECN     C1       CG331   -0.170000       12.0110           0
      7141 WT2      1178     MECN     H11      HGA3     0.090000        1.0080           0
      7142 WT2      1178     MECN     H12      HGA3     0.090000        1.0080           0
      7143 WT2      1178     MECN     H13      HGA3     0.090000        1.0080           0
      7144 WT2      1178     MECN     C2       CG1N1    0.360000       12.0110           0
      7145 WT2      1178     MECN     N3       NG1T1   -0.460000       14.0070           0
      7146 WT2      1186     MECN     C1       CG331   -0.170000       12.0110           0
      7147 WT2      1186     MECN     H11      HGA3     0.090000        1.0080           0
      7148 WT2      1186     MECN     H12      HGA3     0.090000        1.0080           0
      7149 WT2      1186     MECN     H13      HGA3     0.090000        1.0080           0
      7150 WT2      1186     MECN     C2       CG1N1    0.360000       12.0110           0
      7151 WT2      1186     MECN     N3       NG1T1   -0.460000       14.0070           0
      7152 WT2      1187     MECN     C1       CG331   -0.170000       12.0110           0
      7153 WT2      1187     MECN     H11      HGA3     0.090000        1.0080           0
      7154 WT2      1187     MECN     H12      HGA3     0.090000        1.0080           0
      7155 WT2      1187     MECN     H13      HGA3     0.090000        1.0080           0
      7156 WT2      1187     MECN     C2       CG1N1    0.360000       12.0110           0
      7157 WT2      1187     MECN     N3       NG1T1   -0.460000       14.0070           0
      7158 WT2      1189     MECN     C1       CG331   -0.170000       12.0110           0
      7159 WT2      1189     MECN     H11      HGA3     0.090000        1.0080           0
      7160 WT2      1189     MECN     H12      HGA3     0.090000        1.0080           0
      7161 WT2      1189     MECN     H13      HGA3     0.090000        1.0080           0
      7162 WT2      1189     MECN     C2       CG1N1    0.360000       12.0110           0
      7163 WT2      1189     MECN     N3       NG1T1   -0.460000       14.0070           0
      7164 WT2      1192     MECN     C1       CG331   -0.170000       12.0110           0
      7165 WT2      1192     MECN     H11      HGA3     0.090000        1.0080           0
      7166 WT2      1192     MECN     H12      HGA3     0.090000        1.0080           0
      7167 WT2      1192     MECN     H13      HGA3     0.090000        1.0080           0
      7168 WT2      1192     MECN     C2       CG1N1    0.360000       12.0110           0
      7169 WT2      1192     MECN     N3       NG1T1   -0.460000       14.0070           0
      7170 WT2      1194     MECN     C1       CG331   -0.170000       12.0110           0
      7171 WT2      1194     MECN     H11      HGA3     0.090000        1.0080           0
      7172 WT2      1194     MECN     H12      HGA3     0.090000        1.0080           0
      7173 WT2      1194     MECN     H13      HGA3     0.090000        1.0080           0
      7174 WT2      1194     MECN     C2       CG1N1    0.360000       12.0110           0
      7175 WT2      1194     MECN     N3       NG1T1   -0.460000       14.0070           0
      7176 WT2      1195     MECN     C1       CG331   -0.170000       12.0110           0
      7177 WT2      1195     MECN     H11      HGA3     0.090000        1.0080           0
      7178 WT2      1195     MECN     H12      HGA3     0.090000        1.0080           0
      7179 WT2      1195     MECN     H13      HGA3     0.090000        1.0080           0
      7180 WT2      1195     MECN     C2       CG1N1    0.360000       12.0110           0
      7181 WT2      1195     MECN     N3       NG1T1   -0.460000       14.0070           0
      7182 WT2      1198     MECN     C1       CG331   -0.170000       12.0110           0
      7183 WT2      1198     MECN     H11      HGA3     0.090000        1.0080           0
      7184 WT2      1198     MECN     H12      HGA3     0.090000        1.0080           0
      7185 WT2      1198     MECN     H13      HGA3     0.090000        1.0080           0
      7186 WT2      1198     MECN     C2       CG1N1    0.360000       12.0110           0
      7187 WT2      1198     MECN     N3       NG1T1   -0.460000       14.0070           0
      7188 WT2      1201     MECN     C1       CG331   -0.170000       12.0110           0
      7189 WT2      1201     MECN     H11      HGA3     0.090000        1.0080           0
      7190 WT2      1201     MECN     H12      HGA3     0.090000        1.0080           0
      7191 WT2      1201     MECN     H13      HGA3     0.090000        1.0080           0
      7192 WT2      1201     MECN     C2       CG1N1    0.360000       12.0110           0
      7193 WT2      1201     MECN     N3       NG1T1   -0.460000       14.0070           0
      7194 WT2      1207     MECN     C1       CG331   -0.170000       12.0110           0
      7195 WT2      1207     MECN     H11      HGA3     0.090000        1.0080           0
      7196 WT2      1207     MECN     H12      HGA3     0.090000        1.0080           0
      7197 WT2      1207     MECN     H13      HGA3     0.090000        1.0080           0
      7198 WT2      1207     MECN     C2       CG1N1    0.360000       12.0110           0
      7199 WT2      1207     MECN     N3       NG1T1   -0.460000       14.0070           0
      7200 WT2      1212     MECN     C1       CG331   -0.170000       12.0110           0
      7201 WT2      1212     MECN     H11      HGA3     0.090000        1.0080           0
      7202 WT2      1212     MECN     H12      HGA3     0.090000        1.0080           0
      7203 WT2      1212     MECN     H13      HGA3     0.090000        1.0080           0
      7204 WT2      1212     MECN     C2       CG1N1    0.360000       12.0110           0
      7205 WT2      1212     MECN     N3       NG1T1   -0.460000       14.0070           0
      7206 WT2      1214     MECN     C1       CG331   -0.170000       12.0110           0
      7207 WT2      1214     MECN     H11      HGA3     0.090000        1.0080           0
      7208 WT2      1214     MECN     H12      HGA3     0.090000        1.0080           0
      7209 WT2      1214     MECN     H13      HGA3     0.090000        1.0080           0
      7210 WT2      1214     MECN     C2       CG1N1    0.360000       12.0110           0
      7211 WT2      1214     MECN     N3       NG1T1   -0.460000       14.0070           0
      7212 WT2      1215     MECN     C1       CG331   -0.170000       12.0110           0
      7213 WT2      1215     MECN     H11      HGA3     0.090000        1.0080           0
      7214 WT2      1215     MECN     H12      HGA3     0.090000        1.0080           0
      7215 WT2      1215     MECN     H13      HGA3     0.090000        1.0080           0
      7216 WT2      1215     MECN     C2       CG1N1    0.360000       12.0110           0
      7217 WT2      1215     MECN     N3       NG1T1   -0.460000       14.0070           0
      7218 WT2      1233     MECN     C1       CG331   -0.170000       12.0110           0
      7219 WT2      1233     MECN     H11      HGA3     0.090000        1.0080           0
      7220 WT2      1233     MECN     H12      HGA3     0.090000        1.0080           0
      7221 WT2      1233     MECN     H13      HGA3     0.090000        1.0080           0
      7222 WT2      1233     MECN     C2       CG1N1    0.360000       12.0110           0
      7223 WT2      1233     MECN     N3       NG1T1   -0.460000       14.0070           0
      7224 WT2      1236     MECN     C1       CG331   -0.170000       12.0110           0
      7225 WT2      1236     MECN     H11      HGA3     0.090000        1.0080           0
      7226 WT2      1236     MECN     H12      HGA3     0.090000        1.0080           0
      7227 WT2      1236     MECN     H13      HGA3     0.090000        1.0080           0
      7228 WT2      1236     MECN     C2       CG1N1    0.360000       12.0110           0
      7229 WT2      1236     MECN     N3       NG1T1   -0.460000       14.0070           0
      7230 WT2      1245     MECN     C1       CG331   -0.170000       12.0110           0
      7231 WT2      1245     MECN     H11      HGA3     0.090000        1.0080           0
      7232 WT2      1245     MECN     H12      HGA3     0.090000        1.0080           0
      7233 WT2      1245     MECN     H13      HGA3     0.090000        1.0080           0
      7234 WT2      1245     MECN     C2       CG1N1    0.360000       12.0110           0
      7235 WT2      1245     MECN     N3       NG1T1   -0.460000       14.0070           0
      7236 WT2      1246     MECN     C1       CG331   -0.170000       12.0110           0
      7237 WT2      1246     MECN     H11      HGA3     0.090000        1.0080           0
      7238 WT2      1246     MECN     H12      HGA3     0.090000        1.0080           0
      7239 WT2      1246     MECN     H13      HGA3     0.090000        1.0080           0
      7240 WT2      1246     MECN     C2       CG1N1    0.360000       12.0110           0
      7241 WT2      1246     MECN     N3       NG1T1   -0.460000       14.0070           0
      7242 WT2      1266     MECN     C1       CG331   -0.170000       12.0110           0
      7243 WT2      1266     MECN     H11      HGA3     0.090000        1.0080           0
      7244 WT2      1266     MECN     H12      HGA3     0.090000        1.0080           0
      7245 WT2      1266     MECN     H13      HGA3     0.090000        1.0080           0
      7246 WT2      1266     MECN     C2       CG1N1    0.360000       12.0110           0
      7247 WT2      1266     MECN     N3       NG1T1   -0.460000       14.0070           0
      7248 WT2      1267     MECN     C1       CG331   -0.170000       12.0110           0
      7249 WT2      1267     MECN     H11      HGA3     0.090000        1.0080           0
      7250 WT2      1267     MECN     H12      HGA3     0.090000        1.0080           0
      7251 WT2      1267     MECN     H13      HGA3     0.090000        1.0080           0
      7252 WT2      1267     MECN     C2       CG1N1    0.360000       12.0110           0
      7253 WT2      1267     MECN     N3       NG1T1   -0.460000       14.0070           0
      7254 WT2      1270     MECN     C1       CG331   -0.170000       12.0110           0
      7255 WT2      1270     MECN     H11      HGA3     0.090000        1.0080           0
      7256 WT2      1270     MECN     H12      HGA3     0.090000        1.0080           0
      7257 WT2      1270     MECN     H13      HGA3     0.090000        1.0080           0
      7258 WT2      1270     MECN     C2       CG1N1    0.360000       12.0110           0
      7259 WT2      1270     MECN     N3       NG1T1   -0.460000       14.0070           0
      7260 WT2      1275     MECN     C1       CG331   -0.170000       12.0110           0
      7261 WT2      1275     MECN     H11      HGA3     0.090000        1.0080           0
      7262 WT2      1275     MECN     H12      HGA3     0.090000        1.0080           0
      7263 WT2      1275     MECN     H13      HGA3     0.090000        1.0080           0
      7264 WT2      1275     MECN     C2       CG1N1    0.360000       12.0110           0
      7265 WT2      1275     MECN     N3       NG1T1   -0.460000       14.0070           0
      7266 WT2      1278     MECN     C1       CG331   -0.170000       12.0110           0
      7267 WT2      1278     MECN     H11      HGA3     0.090000        1.0080           0
      7268 WT2      1278     MECN     H12      HGA3     0.090000        1.0080           0
      7269 WT2      1278     MECN     H13      HGA3     0.090000        1.0080           0
      7270 WT2      1278     MECN     C2       CG1N1    0.360000       12.0110           0
      7271 WT2      1278     MECN     N3       NG1T1   -0.460000       14.0070           0
      7272 WT2      1279     MECN     C1       CG331   -0.170000       12.0110           0
      7273 WT2      1279     MECN     H11      HGA3     0.090000        1.0080           0
      7274 WT2      1279     MECN     H12      HGA3     0.090000        1.0080           0
      7275 WT2      1279     MECN     H13      HGA3     0.090000        1.0080           0
      7276 WT2      1279     MECN     C2       CG1N1    0.360000       12.0110           0
      7277 WT2      1279     MECN     N3       NG1T1   -0.460000       14.0070           0
      7278 WT2      1281     MECN     C1       CG331   -0.170000       12.0110           0
      7279 WT2      1281     MECN     H11      HGA3     0.090000        1.0080           0
      7280 WT2      1281     MECN     H12      HGA3     0.090000        1.0080           0
      7281 WT2      1281     MECN     H13      HGA3     0.090000        1.0080           0
      7282 WT2      1281     MECN     C2       CG1N1    0.360000       12.0110           0
      7283 WT2      1281     MECN     N3       NG1T1   -0.460000       14.0070           0
      7284 WT2      1282     MECN     C1       CG331   -0.170000       12.0110           0
      7285 WT2      1282     MECN     H11      HGA3     0.090000        1.0080           0
      7286 WT2      1282     MECN     H12      HGA3     0.090000        1.0080           0
      7287 WT2      1282     MECN     H13      HGA3     0.090000        1.0080           0
      7288 WT2      1282     MECN     C2       CG1N1    0.360000       12.0110           0
      7289 WT2      1282     MECN     N3       NG1T1   -0.460000       14.0070           0
      7290 WT2      1285     MECN     C1       CG331   -0.170000       12.0110           0
      7291 WT2      1285     MECN     H11      HGA3     0.090000        1.0080           0
      7292 WT2      1285     MECN     H12      HGA3     0.090000        1.0080           0
      7293 WT2      1285     MECN     H13      HGA3     0.090000        1.0080           0
      7294 WT2      1285     MECN     C2       CG1N1    0.360000       12.0110           0
      7295 WT2      1285     MECN     N3       NG1T1   -0.460000       14.0070           0
      7296 WT2      1287     MECN     C1       CG331   -0.170000       12.0110           0
      7297 WT2      1287     MECN     H11      HGA3     0.090000        1.0080           0
      7298 WT2      1287     MECN     H12      HGA3     0.090000        1.0080           0
      7299 WT2      1287     MECN     H13      HGA3     0.090000        1.0080           0
      7300 WT2      1287     MECN     C2       CG1N1    0.360000       12.0110           0
      7301 WT2      1287     MECN     N3       NG1T1   -0.460000       14.0070           0
      7302 WT2      1294     MECN     C1       CG331   -0.170000       12.0110           0
      7303 WT2      1294     MECN     H11      HGA3     0.090000        1.0080           0
      7304 WT2      1294     MECN     H12      HGA3     0.090000        1.0080           0
      7305 WT2      1294     MECN     H13      HGA3     0.090000        1.0080           0
      7306 WT2      1294     MECN     C2       CG1N1    0.360000       12.0110           0
      7307 WT2      1294     MECN     N3       NG1T1   -0.460000       14.0070           0
      7308 WT2      1304     MECN     C1       CG331   -0.170000       12.0110           0
      7309 WT2      1304     MECN     H11      HGA3     0.090000        1.0080           0
      7310 WT2      1304     MECN     H12      HGA3     0.090000        1.0080           0
      7311 WT2      1304     MECN     H13      HGA3     0.090000        1.0080           0
      7312 WT2      1304     MECN     C2       CG1N1    0.360000       12.0110           0
      7313 WT2      1304     MECN     N3       NG1T1   -0.460000       14.0070           0
      7314 WT2      1310     MECN     C1       CG331   -0.170000       12.0110           0
      7315 WT2      1310     MECN     H11      HGA3     0.090000        1.0080           0
      7316 WT2      1310     MECN     H12      HGA3     0.090000        1.0080           0
      7317 WT2      1310     MECN     H13      HGA3     0.090000        1.0080           0
      7318 WT2      1310     MECN     C2       CG1N1    0.360000       12.0110           0
      7319 WT2      1310     MECN     N3       NG1T1   -0.460000       14.0070           0
      7320 WT2      1312     MECN     C1       CG331   -0.170000       12.0110           0
      7321 WT2      1312     MECN     H11      HGA3     0.090000        1.0080           0
      7322 WT2      1312     MECN     H12      HGA3     0.090000        1.0080           0
      7323 WT2      1312     MECN     H13      HGA3     0.090000        1.0080           0
      7324 WT2      1312     MECN     C2       CG1N1    0.360000       12.0110           0
      7325 WT2      1312     MECN     N3       NG1T1   -0.460000       14.0070           0
      7326 WT2      1320     MECN     C1       CG331   -0.170000       12.0110           0
      7327 WT2      1320     MECN     H11      HGA3     0.090000        1.0080           0
      7328 WT2      1320     MECN     H12      HGA3     0.090000        1.0080           0
      7329 WT2      1320     MECN     H13      HGA3     0.090000        1.0080           0
      7330 WT2      1320     MECN     C2       CG1N1    0.360000       12.0110           0
      7331 WT2      1320     MECN     N3       NG1T1   -0.460000       14.0070           0
      7332 WT2      1323     MECN     C1       CG331   -0.170000       12.0110           0
      7333 WT2      1323     MECN     H11      HGA3     0.090000        1.0080           0
      7334 WT2      1323     MECN     H12      HGA3     0.090000        1.0080           0
      7335 WT2      1323     MECN     H13      HGA3     0.090000        1.0080           0
      7336 WT2      1323     MECN     C2       CG1N1    0.360000       12.0110           0
      7337 WT2      1323     MECN     N3       NG1T1   -0.460000       14.0070           0
      7338 WT2      1326     MECN     C1       CG331   -0.170000       12.0110           0
      7339 WT2      1326     MECN     H11      HGA3     0.090000        1.0080           0
      7340 WT2      1326     MECN     H12      HGA3     0.090000        1.0080           0
      7341 WT2      1326     MECN     H13      HGA3     0.090000        1.0080           0
      7342 WT2      1326     MECN     C2       CG1N1    0.360000       12.0110           0
      7343 WT2      1326     MECN     N3       NG1T1   -0.460000       14.0070           0
      7344 WT2      1330     MECN     C1       CG331   -0.170000       12.0110           0
      7345 WT2      1330     MECN     H11      HGA3     0.090000        1.0080           0
      7346 WT2      1330     MECN     H12      HGA3     0.090000        1.0080           0
      7347 WT2      1330     MECN     H13      HGA3     0.090000        1.0080           0
      7348 WT2      1330     MECN     C2       CG1N1    0.360000       12.0110           0
      7349 WT2      1330     MECN     N3       NG1T1   -0.460000       14.0070           0
      7350 WT3      3        MECN     C1       CG331   -0.170000       12.0110           0
      7351 WT3      3        MECN     H11      HGA3     0.090000        1.0080           0
      7352 WT3      3        MECN     H12      HGA3     0.090000        1.0080           0
      7353 WT3      3        MECN     H13      HGA3     0.090000        1.0080           0
      7354 WT3      3        MECN     C2       CG1N1    0.360000       12.0110           0
      7355 WT3      3        MECN     N3       NG1T1   -0.460000       14.0070           0
      7356 WT3      10       MECN     C1       CG331   -0.170000       12.0110           0
      7357 WT3      10       MECN     H11      HGA3     0.090000        1.0080           0
      7358 WT3      10       MECN     H12      HGA3     0.090000        1.0080           0
      7359 WT3      10       MECN     H13      HGA3     0.090000        1.0080           0
      7360 WT3      10       MECN     C2       CG1N1    0.360000       12.0110           0
      7361 WT3      10       MECN     N3       NG1T1   -0.460000       14.0070           0
      7362 WT3      12       MECN     C1       CG331   -0.170000       12.0110           0
      7363 WT3      12       MECN     H11      HGA3     0.090000        1.0080           0
      7364 WT3      12       MECN     H12      HGA3     0.090000        1.0080           0
      7365 WT3      12       MECN     H13      HGA3     0.090000        1.0080           0
      7366 WT3      12       MECN     C2       CG1N1    0.360000       12.0110           0
      7367 WT3      12       MECN     N3       NG1T1   -0.460000       14.0070           0
      7368 WT3      14       MECN     C1       CG331   -0.170000       12.0110           0
      7369 WT3      14       MECN     H11      HGA3     0.090000        1.0080           0
      7370 WT3      14       MECN     H12      HGA3     0.090000        1.0080           0
      7371 WT3      14       MECN     H13      HGA3     0.090000        1.0080           0
      7372 WT3      14       MECN     C2       CG1N1    0.360000       12.0110           0
      7373 WT3      14       MECN     N3       NG1T1   -0.460000       14.0070           0
      7374 WT3      21       MECN     C1       CG331   -0.170000       12.0110           0
      7375 WT3      21       MECN     H11      HGA3     0.090000        1.0080           0
      7376 WT3      21       MECN     H12      HGA3     0.090000        1.0080           0
      7377 WT3      21       MECN     H13      HGA3     0.090000        1.0080           0
      7378 WT3      21       MECN     C2       CG1N1    0.360000       12.0110           0
      7379 WT3      21       MECN     N3       NG1T1   -0.460000       14.0070           0
      7380 WT3      22       MECN     C1       CG331   -0.170000       12.0110           0
      7381 WT3      22       MECN     H11      HGA3     0.090000        1.0080           0
      7382 WT3      22       MECN     H12      HGA3     0.090000        1.0080           0
      7383 WT3      22       MECN     H13      HGA3     0.090000        1.0080           0
      7384 WT3      22       MECN     C2       CG1N1    0.360000       12.0110           0
      7385 WT3      22       MECN     N3       NG1T1   -0.460000       14.0070           0
      7386 WT3      27       MECN     C1       CG331   -0.170000       12.0110           0
      7387 WT3      27       MECN     H11      HGA3     0.090000        1.0080           0
      7388 WT3      27       MECN     H12      HGA3     0.090000        1.0080           0
      7389 WT3      27       MECN     H13      HGA3     0.090000        1.0080           0
      7390 WT3      27       MECN     C2       CG1N1    0.360000       12.0110           0
      7391 WT3      27       MECN     N3       NG1T1   -0.460000       14.0070           0
      7392 WT3      28       MECN     C1       CG331   -0.170000       12.0110           0
      7393 WT3      28       MECN     H11      HGA3     0.090000        1.0080           0
      7394 WT3      28       MECN     H12      HGA3     0.090000        1.0080           0
      7395 WT3      28       MECN     H13      HGA3     0.090000        1.0080           0
      7396 WT3      28       MECN     C2       CG1N1    0.360000       12.0110           0
      7397 WT3      28       MECN     N3       NG1T1   -0.460000       14.0070           0
      7398 WT3      44       MECN     C1       CG331   -0.170000       12.0110           0
      7399 WT3      44       MECN     H11      HGA3     0.090000        1.0080           0
      7400 WT3      44       MECN     H12      HGA3     0.090000        1.0080           0
      7401 WT3      44       MECN     H13      HGA3     0.090000        1.0080           0
      7402 WT3      44       MECN     C2       CG1N1    0.360000       12.0110           0
      7403 WT3      44       MECN     N3       NG1T1   -0.460000       14.0070           0
      7404 WT3      64       MECN     C1       CG331   -0.170000       12.0110           0
      7405 WT3      64       MECN     H11      HGA3     0.090000        1.0080           0
      7406 WT3      64       MECN     H12      HGA3     0.090000        1.0080           0
      7407 WT3      64       MECN     H13      HGA3     0.090000        1.0080           0
      7408 WT3      64       MECN     C2       CG1N1    0.360000       12.0110           0
      7409 WT3      64       MECN     N3       NG1T1   -0.460000       14.0070           0
      7410 WT3      65       MECN     C1       CG331   -0.170000       12.0110           0
      7411 WT3      65       MECN     H11      HGA3     0.090000        1.0080           0
      7412 WT3      65       MECN     H12      HGA3     0.090000        1.0080           0
      7413 WT3      65       MECN     H13      HGA3     0.090000        1.0080           0
      7414 WT3      65       MECN     C2       CG1N1    0.360000       12.0110           0
      7415 WT3      65       MECN     N3       NG1T1   -0.460000       14.0070           0
      7416 WT3      70       MECN     C1       CG331   -0.170000       12.0110           0
      7417 WT3      70       MECN     H11      HGA3     0.090000        1.0080           0
      7418 WT3      70       MECN     H12      HGA3     0.090000        1.0080           0
      7419 WT3      70       MECN     H13      HGA3     0.090000        1.0080           0
      7420 WT3      70       MECN     C2       CG1N1    0.360000       12.0110           0
      7421 WT3      70       MECN     N3       NG1T1   -0.460000       14.0070           0
      7422 WT3      74       MECN     C1       CG331   -0.170000       12.0110           0
      7423 WT3      74       MECN     H11      HGA3     0.090000        1.0080           0
      7424 WT3      74       MECN     H12      HGA3     0.090000        1.0080           0
      7425 WT3      74       MECN     H13      HGA3     0.090000        1.0080           0
      7426 WT3      74       MECN     C2       CG1N1    0.360000       12.0110           0
      7427 WT3      74       MECN     N3       NG1T1   -0.460000       14.0070           0
      7428 WT3      76       MECN     C1       CG331   -0.170000       12.0110           0
      7429 WT3      76       MECN     H11      HGA3     0.090000        1.0080           0
      7430 WT3      76       MECN     H12      HGA3     0.090000        1.0080           0
      7431 WT3      76       MECN     H13      HGA3     0.090000        1.0080           0
      7432 WT3      76       MECN     C2       CG1N1    0.360000       12.0110           0
      7433 WT3      76       MECN     N3       NG1T1   -0.460000       14.0070           0
      7434 WT3      85       MECN     C1       CG331   -0.170000       12.0110           0
      7435 WT3      85       MECN     H11      HGA3     0.090000        1.0080           0
      7436 WT3      85       MECN     H12      HGA3     0.090000        1.0080           0
      7437 WT3      85       MECN     H13      HGA3     0.090000        1.0080           0
      7438 WT3      85       MECN     C2       CG1N1    0.360000       12.0110           0
      7439 WT3      85       MECN     N3       NG1T1   -0.460000       14.0070           0
      7440 WT3      87       MECN     C1       CG331   -0.170000       12.0110           0
      7441 WT3      87       MECN     H11      HGA3     0.090000        1.0080           0
      7442 WT3      87       MECN     H12      HGA3     0.090000        1.0080           0
      7443 WT3      87       MECN     H13      HGA3     0.090000        1.0080           0
      7444 WT3      87       MECN     C2       CG1N1    0.360000       12.0110           0
      7445 WT3      87       MECN     N3       NG1T1   -0.460000       14.0070           0
      7446 WT3      98       MECN     C1       CG331   -0.170000       12.0110           0
      7447 WT3      98       MECN     H11      HGA3     0.090000        1.0080           0
      7448 WT3      98       MECN     H12      HGA3     0.090000        1.0080           0
      7449 WT3      98       MECN     H13      HGA3     0.090000        1.0080           0
      7450 WT3      98       MECN     C2       CG1N1    0.360000       12.0110           0
      7451 WT3      98       MECN     N3       NG1T1   -0.460000       14.0070           0
      7452 WT3      109      MECN     C1       CG331   -0.170000       12.0110           0
      7453 WT3      109      MECN     H11      HGA3     0.090000        1.0080           0
      7454 WT3      109      MECN     H12      HGA3     0.090000        1.0080           0
      7455 WT3      109      MECN     H13      HGA3     0.090000        1.0080           0
      7456 WT3      109      MECN     C2       CG1N1    0.360000       12.0110           0
      7457 WT3      109      MECN     N3       NG1T1   -0.460000       14.0070           0
      7458 WT3      110      MECN     C1       CG331   -0.170000       12.0110           0
      7459 WT3      110      MECN     H11      HGA3     0.090000        1.0080           0
      7460 WT3      110      MECN     H12      HGA3     0.090000        1.0080           0
      7461 WT3      110      MECN     H13      HGA3     0.090000        1.0080           0
      7462 WT3      110      MECN     C2       CG1N1    0.360000       12.0110           0
      7463 WT3      110      MECN     N3       NG1T1   -0.460000       14.0070           0
      7464 WT3      112      MECN     C1       CG331   -0.170000       12.0110           0
      7465 WT3      112      MECN     H11      HGA3     0.090000        1.0080           0
      7466 WT3      112      MECN     H12      HGA3     0.090000        1.0080           0
      7467 WT3      112      MECN     H13      HGA3     0.090000        1.0080           0
      7468 WT3      112      MECN     C2       CG1N1    0.360000       12.0110           0
      7469 WT3      112      MECN     N3       NG1T1   -0.460000       14.0070           0
      7470 WT3      113      MECN     C1       CG331   -0.170000       12.0110           0
      7471 WT3      113      MECN     H11      HGA3     0.090000        1.0080           0
      7472 WT3      113      MECN     H12      HGA3     0.090000        1.0080           0
      7473 WT3      113      MECN     H13      HGA3     0.090000        1.0080           0
      7474 WT3      113      MECN     C2       CG1N1    0.360000       12.0110           0
      7475 WT3      113      MECN     N3       NG1T1   -0.460000       14.0070           0
      7476 WT3      123      MECN     C1       CG331   -0.170000       12.0110           0
      7477 WT3      123      MECN     H11      HGA3     0.090000        1.0080           0
      7478 WT3      123      MECN     H12      HGA3     0.090000        1.0080           0
      7479 WT3      123      MECN     H13      HGA3     0.090000        1.0080           0
      7480 WT3      123      MECN     C2       CG1N1    0.360000       12.0110           0
      7481 WT3      123      MECN     N3       NG1T1   -0.460000       14.0070           0
      7482 WT3      125      MECN     C1       CG331   -0.170000       12.0110           0
      7483 WT3      125      MECN     H11      HGA3     0.090000        1.0080           0
      7484 WT3      125      MECN     H12      HGA3     0.090000        1.0080           0
      7485 WT3      125      MECN     H13      HGA3     0.090000        1.0080           0
      7486 WT3      125      MECN     C2       CG1N1    0.360000       12.0110           0
      7487 WT3      125      MECN     N3       NG1T1   -0.460000       14.0070           0
      7488 WT3      127      MECN     C1       CG331   -0.170000       12.0110           0
      7489 WT3      127      MECN     H11      HGA3     0.090000        1.0080           0
      7490 WT3      127      MECN     H12      HGA3     0.090000        1.0080           0
      7491 WT3      127      MECN     H13      HGA3     0.090000        1.0080           0
      7492 WT3      127      MECN     C2       CG1N1    0.360000       12.0110           0
      7493 WT3      127      MECN     N3       NG1T1   -0.460000       14.0070           0
      7494 WT3      132      MECN     C1       CG331   -0.170000       12.0110           0
      7495 WT3      132      MECN     H11      HGA3     0.090000        1.0080           0
      7496 WT3      132      MECN     H12      HGA3     0.090000        1.0080           0
      7497 WT3      132      MECN     H13      HGA3     0.090000        1.0080           0
      7498 WT3      132      MECN     C2       CG1N1    0.360000       12.0110           0
      7499 WT3      132      MECN     N3       NG1T1   -0.460000       14.0070           0
      7500 WT3      155      MECN     C1       CG331   -0.170000       12.0110           0
      7501 WT3      155      MECN     H11      HGA3     0.090000        1.0080           0
      7502 WT3      155      MECN     H12      HGA3     0.090000        1.0080           0
      7503 WT3      155      MECN     H13      HGA3     0.090000        1.0080           0
      7504 WT3      155      MECN     C2       CG1N1    0.360000       12.0110           0
      7505 WT3      155      MECN     N3       NG1T1   -0.460000       14.0070           0
      7506 WT3      169      MECN     C1       CG331   -0.170000       12.0110           0
      7507 WT3      169      MECN     H11      HGA3     0.090000        1.0080           0
      7508 WT3      169      MECN     H12      HGA3     0.090000        1.0080           0
      7509 WT3      169      MECN     H13      HGA3     0.090000        1.0080           0
      7510 WT3      169      MECN     C2       CG1N1    0.360000       12.0110           0
      7511 WT3      169      MECN     N3       NG1T1   -0.460000       14.0070           0
      7512 WT3      172      MECN     C1       CG331   -0.170000       12.0110           0
      7513 WT3      172      MECN     H11      HGA3     0.090000        1.0080           0
      7514 WT3      172      MECN     H12      HGA3     0.090000        1.0080           0
      7515 WT3      172      MECN     H13      HGA3     0.090000        1.0080           0
      7516 WT3      172      MECN     C2       CG1N1    0.360000       12.0110           0
      7517 WT3      172      MECN     N3       NG1T1   -0.460000       14.0070           0
      7518 WT3      174      MECN     C1       CG331   -0.170000       12.0110           0
      7519 WT3      174      MECN     H11      HGA3     0.090000        1.0080           0
      7520 WT3      174      MECN     H12      HGA3     0.090000        1.0080           0
      7521 WT3      174      MECN     H13      HGA3     0.090000        1.0080           0
      7522 WT3      174      MECN     C2       CG1N1    0.360000       12.0110           0
      7523 WT3      174      MECN     N3       NG1T1   -0.460000       14.0070           0
      7524 WT3      183      MECN     C1       CG331   -0.170000       12.0110           0
      7525 WT3      183      MECN     H11      HGA3     0.090000        1.0080           0
      7526 WT3      183      MECN     H12      HGA3     0.090000        1.0080           0
      7527 WT3      183      MECN     H13      HGA3     0.090000        1.0080           0
      7528 WT3      183      MECN     C2       CG1N1    0.360000       12.0110           0
      7529 WT3      183      MECN     N3       NG1T1   -0.460000       14.0070           0
      7530 WT3      185      MECN     C1       CG331   -0.170000       12.0110           0
      7531 WT3      185      MECN     H11      HGA3     0.090000        1.0080           0
      7532 WT3      185      MECN     H12      HGA3     0.090000        1.0080           0
      7533 WT3      185      MECN     H13      HGA3     0.090000        1.0080           0
      7534 WT3      185      MECN     C2       CG1N1    0.360000       12.0110           0
      7535 WT3      185      MECN     N3       NG1T1   -0.460000       14.0070           0
      7536 WT3      211      MECN     C1       CG331   -0.170000       12.0110           0
      7537 WT3      211      MECN     H11      HGA3     0.090000        1.0080           0
      7538 WT3      211      MECN     H12      HGA3     0.090000        1.0080           0
      7539 WT3      211      MECN     H13      HGA3     0.090000        1.0080           0
      7540 WT3      211      MECN     C2       CG1N1    0.360000       12.0110           0
      7541 WT3      211      MECN     N3       NG1T1   -0.460000       14.0070           0
      7542 WT3      220      MECN     C1       CG331   -0.170000       12.0110           0
      7543 WT3      220      MECN     H11      HGA3     0.090000        1.0080           0
      7544 WT3      220      MECN     H12      HGA3     0.090000        1.0080           0
      7545 WT3      220      MECN     H13      HGA3     0.090000        1.0080           0
      7546 WT3      220      MECN     C2       CG1N1    0.360000       12.0110           0
      7547 WT3      220      MECN     N3       NG1T1   -0.460000       14.0070           0
      7548 WT3      224      MECN     C1       CG331   -0.170000       12.0110           0
      7549 WT3      224      MECN     H11      HGA3     0.090000        1.0080           0
      7550 WT3      224      MECN     H12      HGA3     0.090000        1.0080           0
      7551 WT3      224      MECN     H13      HGA3     0.090000        1.0080           0
      7552 WT3      224      MECN     C2       CG1N1    0.360000       12.0110           0
      7553 WT3      224      MECN     N3       NG1T1   -0.460000       14.0070           0
      7554 WT3      225      MECN     C1       CG331   -0.170000       12.0110           0
      7555 WT3      225      MECN     H11      HGA3     0.090000        1.0080           0
      7556 WT3      225      MECN     H12      HGA3     0.090000        1.0080           0
      7557 WT3      225      MECN     H13      HGA3     0.090000        1.0080           0
      7558 WT3      225      MECN     C2       CG1N1    0.360000       12.0110           0
      7559 WT3      225      MECN     N3       NG1T1   -0.460000       14.0070           0
      7560 WT3      227      MECN     C1       CG331   -0.170000       12.0110           0
      7561 WT3      227      MECN     H11      HGA3     0.090000        1.0080           0
      7562 WT3      227      MECN     H12      HGA3     0.090000        1.0080           0
      7563 WT3      227      MECN     H13      HGA3     0.090000        1.0080           0
      7564 WT3      227      MECN     C2       CG1N1    0.360000       12.0110           0
      7565 WT3      227      MECN     N3       NG1T1   -0.460000       14.0070           0
      7566 WT3      229      MECN     C1       CG331   -0.170000       12.0110           0
      7567 WT3      229      MECN     H11      HGA3     0.090000        1.0080           0
      7568 WT3      229      MECN     H12      HGA3     0.090000        1.0080           0
      7569 WT3      229      MECN     H13      HGA3     0.090000        1.0080           0
      7570 WT3      229      MECN     C2       CG1N1    0.360000       12.0110           0
      7571 WT3      229      MECN     N3       NG1T1   -0.460000       14.0070           0
      7572 WT3      236      MECN     C1       CG331   -0.170000       12.0110           0
      7573 WT3      236      MECN     H11      HGA3     0.090000        1.0080           0
      7574 WT3      236      MECN     H12      HGA3     0.090000        1.0080           0
      7575 WT3      236      MECN     H13      HGA3     0.090000        1.0080           0
      7576 WT3      236      MECN     C2       CG1N1    0.360000       12.0110           0
      7577 WT3      236      MECN     N3       NG1T1   -0.460000       14.0070           0
      7578 WT3      237      MECN     C1       CG331   -0.170000       12.0110           0
      7579 WT3      237      MECN     H11      HGA3     0.090000        1.0080           0
      7580 WT3      237      MECN     H12      HGA3     0.090000        1.0080           0
      7581 WT3      237      MECN     H13      HGA3     0.090000        1.0080           0
      7582 WT3      237      MECN     C2       CG1N1    0.360000       12.0110           0
      7583 WT3      237      MECN     N3       NG1T1   -0.460000       14.0070           0
      7584 WT3      238      MECN     C1       CG331   -0.170000       12.0110           0
      7585 WT3      238      MECN     H11      HGA3     0.090000        1.0080           0
      7586 WT3      238      MECN     H12      HGA3     0.090000        1.0080           0
      7587 WT3      238      MECN     H13      HGA3     0.090000        1.0080           0
      7588 WT3      238      MECN     C2       CG1N1    0.360000       12.0110           0
      7589 WT3      238      MECN     N3       NG1T1   -0.460000       14.0070           0
      7590 WT3      242      MECN     C1       CG331   -0.170000       12.0110           0
      7591 WT3      242      MECN     H11      HGA3     0.090000        1.0080           0
      7592 WT3      242      MECN     H12      HGA3     0.090000        1.0080           0
      7593 WT3      242      MECN     H13      HGA3     0.090000        1.0080           0
      7594 WT3      242      MECN     C2       CG1N1    0.360000       12.0110           0
      7595 WT3      242      MECN     N3       NG1T1   -0.460000       14.0070           0
      7596 WT3      255      MECN     C1       CG331   -0.170000       12.0110           0
      7597 WT3      255      MECN     H11      HGA3     0.090000        1.0080           0
      7598 WT3      255      MECN     H12      HGA3     0.090000        1.0080           0
      7599 WT3      255      MECN     H13      HGA3     0.090000        1.0080           0
      7600 WT3      255      MECN     C2       CG1N1    0.360000       12.0110           0
      7601 WT3      255      MECN     N3       NG1T1   -0.460000       14.0070           0
      7602 WT3      267      MECN     C1       CG331   -0.170000       12.0110           0
      7603 WT3      267      MECN     H11      HGA3     0.090000        1.0080           0
      7604 WT3      267      MECN     H12      HGA3     0.090000        1.0080           0
      7605 WT3      267      MECN     H13      HGA3     0.090000        1.0080           0
      7606 WT3      267      MECN     C2       CG1N1    0.360000       12.0110           0
      7607 WT3      267      MECN     N3       NG1T1   -0.460000       14.0070           0
      7608 WT3      268      MECN     C1       CG331   -0.170000       12.0110           0
      7609 WT3      268      MECN     H11      HGA3     0.090000        1.0080           0
      7610 WT3      268      MECN     H12      HGA3     0.090000        1.0080           0
      7611 WT3      268      MECN     H13      HGA3     0.090000        1.0080           0
      7612 WT3      268      MECN     C2       CG1N1    0.360000       12.0110           0
      7613 WT3      268      MECN     N3       NG1T1   -0.460000       14.0070           0
      7614 WT3      286      MECN     C1       CG331   -0.170000       12.0110           0
      7615 WT3      286      MECN     H11      HGA3     0.090000        1.0080           0
      7616 WT3      286      MECN     H12      HGA3     0.090000        1.0080           0
      7617 WT3      286      MECN     H13      HGA3     0.090000        1.0080           0
      7618 WT3      286      MECN     C2       CG1N1    0.360000       12.0110           0
      7619 WT3      286      MECN     N3       NG1T1   -0.460000       14.0070           0
      7620 WT3      296      MECN     C1       CG331   -0.170000       12.0110           0
      7621 WT3      296      MECN     H11      HGA3     0.090000        1.0080           0
      7622 WT3      296      MECN     H12      HGA3     0.090000        1.0080           0
      7623 WT3      296      MECN     H13      HGA3     0.090000        1.0080           0
      7624 WT3      296      MECN     C2       CG1N1    0.360000       12.0110           0
      7625 WT3      296      MECN     N3       NG1T1   -0.460000       14.0070           0
      7626 WT3      306      MECN     C1       CG331   -0.170000       12.0110           0
      7627 WT3      306      MECN     H11      HGA3     0.090000        1.0080           0
      7628 WT3      306      MECN     H12      HGA3     0.090000        1.0080           0
      7629 WT3      306      MECN     H13      HGA3     0.090000        1.0080           0
      7630 WT3      306      MECN     C2       CG1N1    0.360000       12.0110           0
      7631 WT3      306      MECN     N3       NG1T1   -0.460000       14.0070           0
      7632 WT3      308      MECN     C1       CG331   -0.170000       12.0110           0
      7633 WT3      308      MECN     H11      HGA3     0.090000        1.0080           0
      7634 WT3      308      MECN     H12      HGA3     0.090000        1.0080           0
      7635 WT3      308      MECN     H13      HGA3     0.090000        1.0080           0
      7636 WT3      308      MECN     C2       CG1N1    0.360000       12.0110           0
      7637 WT3      308      MECN     N3       NG1T1   -0.460000       14.0070           0
      7638 WT3      321      MECN     C1       CG331   -0.170000       12.0110           0
      7639 WT3      321      MECN     H11      HGA3     0.090000        1.0080           0
      7640 WT3      321      MECN     H12      HGA3     0.090000        1.0080           0
      7641 WT3      321      MECN     H13      HGA3     0.090000        1.0080           0
      7642 WT3      321      MECN     C2       CG1N1    0.360000       12.0110           0
      7643 WT3      321      MECN     N3       NG1T1   -0.460000       14.0070           0
      7644 WT3      323      MECN     C1       CG331   -0.170000       12.0110           0
      7645 WT3      323      MECN     H11      HGA3     0.090000        1.0080           0
      7646 WT3      323      MECN     H12      HGA3     0.090000        1.0080           0
      7647 WT3      323      MECN     H13      HGA3     0.090000        1.0080           0
      7648 WT3      323      MECN     C2       CG1N1    0.360000       12.0110           0
      7649 WT3      323      MECN     N3       NG1T1   -0.460000       14.0070           0
      7650 WT3      329      MECN     C1       CG331   -0.170000       12.0110           0
      7651 WT3      329      MECN     H11      HGA3     0.090000        1.0080           0
      7652 WT3      329      MECN     H12      HGA3     0.090000        1.0080           0
      7653 WT3      329      MECN     H13      HGA3     0.090000        1.0080           0
      7654 WT3      329      MECN     C2       CG1N1    0.360000       12.0110           0
      7655 WT3      329      MECN     N3       NG1T1   -0.460000       14.0070           0
      7656 WT3      331      MECN     C1       CG331   -0.170000       12.0110           0
      7657 WT3      331      MECN     H11      HGA3     0.090000        1.0080           0
      7658 WT3      331      MECN     H12      HGA3     0.090000        1.0080           0
      7659 WT3      331      MECN     H13      HGA3     0.090000        1.0080           0
      7660 WT3      331      MECN     C2       CG1N1    0.360000       12.0110           0
      7661 WT3      331      MECN     N3       NG1T1   -0.460000       14.0070           0
      7662 WT3      337      MECN     C1       CG331   -0.170000       12.0110           0
      7663 WT3      337      MECN     H11      HGA3     0.090000        1.0080           0
      7664 WT3      337      MECN     H12      HGA3     0.090000        1.0080           0
      7665 WT3      337      MECN     H13      HGA3     0.090000        1.0080           0
      7666 WT3      337      MECN     C2       CG1N1    0.360000       12.0110           0
      7667 WT3      337      MECN     N3       NG1T1   -0.460000       14.0070           0
      7668 WT3      351      MECN     C1       CG331   -0.170000       12.0110           0
      7669 WT3      351      MECN     H11      HGA3     0.090000        1.0080           0
      7670 WT3      351      MECN     H12      HGA3     0.090000        1.0080           0
      7671 WT3      351      MECN     H13      HGA3     0.090000        1.0080           0
      7672 WT3      351      MECN     C2       CG1N1    0.360000       12.0110           0
      7673 WT3      351      MECN     N3       NG1T1   -0.460000       14.0070           0
      7674 WT3      358      MECN     C1       CG331   -0.170000       12.0110           0
      7675 WT3      358      MECN     H11      HGA3     0.090000        1.0080           0
      7676 WT3      358      MECN     H12      HGA3     0.090000        1.0080           0
      7677 WT3      358      MECN     H13      HGA3     0.090000        1.0080           0
      7678 WT3      358      MECN     C2       CG1N1    0.360000       12.0110           0
      7679 WT3      358      MECN     N3       NG1T1   -0.460000       14.0070           0
      7680 WT3      382      MECN     C1       CG331   -0.170000       12.0110           0
      7681 WT3      382      MECN     H11      HGA3     0.090000        1.0080           0
      7682 WT3      382      MECN     H12      HGA3     0.090000        1.0080           0
      7683 WT3      382      MECN     H13      HGA3     0.090000        1.0080           0
      7684 WT3      382      MECN     C2       CG1N1    0.360000       12.0110           0
      7685 WT3      382      MECN     N3       NG1T1   -0.460000       14.0070           0
      7686 WT3      387      MECN     C1       CG331   -0.170000       12.0110           0
      7687 WT3      387      MECN     H11      HGA3     0.090000        1.0080           0
      7688 WT3      387      MECN     H12      HGA3     0.090000        1.0080           0
      7689 WT3      387      MECN     H13      HGA3     0.090000        1.0080           0
      7690 WT3      387      MECN     C2       CG1N1    0.360000       12.0110           0
      7691 WT3      387      MECN     N3       NG1T1   -0.460000       14.0070           0
      7692 WT3      388      MECN     C1       CG331   -0.170000       12.0110           0
      7693 WT3      388      MECN     H11      HGA3     0.090000        1.0080           0
      7694 WT3      388      MECN     H12      HGA3     0.090000        1.0080           0
      7695 WT3      388      MECN     H13      HGA3     0.090000        1.0080           0
      7696 WT3      388      MECN     C2       CG1N1    0.360000       12.0110           0
      7697 WT3      388      MECN     N3       NG1T1   -0.460000       14.0070           0
      7698 WT3      396      MECN     C1       CG331   -0.170000       12.0110           0
      7699 WT3      396      MECN     H11      HGA3     0.090000        1.0080           0
      7700 WT3      396      MECN     H12      HGA3     0.090000        1.0080           0
      7701 WT3      396      MECN     H13      HGA3     0.090000        1.0080           0
      7702 WT3      396      MECN     C2       CG1N1    0.360000       12.0110           0
      7703 WT3      396      MECN     N3       NG1T1   -0.460000       14.0070           0
      7704 WT3      401      MECN     C1       CG331   -0.170000       12.0110           0
      7705 WT3      401      MECN     H11      HGA3     0.090000        1.0080           0
      7706 WT3      401      MECN     H12      HGA3     0.090000        1.0080           0
      7707 WT3      401      MECN     H13      HGA3     0.090000        1.0080           0
      7708 WT3      401      MECN     C2       CG1N1    0.360000       12.0110           0
      7709 WT3      401      MECN     N3       NG1T1   -0.460000       14.0070           0
      7710 WT3      411      MECN     C1       CG331   -0.170000       12.0110           0
      7711 WT3      411      MECN     H11      HGA3     0.090000        1.0080           0
      7712 WT3      411      MECN     H12      HGA3     0.090000        1.0080           0
      7713 WT3      411      MECN     H13      HGA3     0.090000        1.0080           0
      7714 WT3      411      MECN     C2       CG1N1    0.360000       12.0110           0
      7715 WT3      411      MECN     N3       NG1T1   -0.460000       14.0070           0
      7716 WT3      416      MECN     C1       CG331   -0.170000       12.0110           0
      7717 WT3      416      MECN     H11      HGA3     0.090000        1.0080           0
      7718 WT3      416      MECN     H12      HGA3     0.090000        1.0080           0
      7719 WT3      416      MECN     H13      HGA3     0.090000        1.0080           0
      7720 WT3      416      MECN     C2       CG1N1    0.360000       12.0110           0
      7721 WT3      416      MECN     N3       NG1T1   -0.460000       14.0070           0
      7722 WT3      419      MECN     C1       CG331   -0.170000       12.0110           0
      7723 WT3      419      MECN     H11      HGA3     0.090000        1.0080           0
      7724 WT3      419      MECN     H12      HGA3     0.090000        1.0080           0
      7725 WT3      419      MECN     H13      HGA3     0.090000        1.0080           0
      7726 WT3      419      MECN     C2       CG1N1    0.360000       12.0110           0
      7727 WT3      419      MECN     N3       NG1T1   -0.460000       14.0070           0
      7728 WT3      430      MECN     C1       CG331   -0.170000       12.0110           0
      7729 WT3      430      MECN     H11      HGA3     0.090000        1.0080           0
      7730 WT3      430      MECN     H12      HGA3     0.090000        1.0080           0
      7731 WT3      430      MECN     H13      HGA3     0.090000        1.0080           0
      7732 WT3      430      MECN     C2       CG1N1    0.360000       12.0110           0
      7733 WT3      430      MECN     N3       NG1T1   -0.460000       14.0070           0
      7734 WT3      436      MECN     C1       CG331   -0.170000       12.0110           0
      7735 WT3      436      MECN     H11      HGA3     0.090000        1.0080           0
      7736 WT3      436      MECN     H12      HGA3     0.090000        1.0080           0
      7737 WT3      436      MECN     H13      HGA3     0.090000        1.0080           0
      7738 WT3      436      MECN     C2       CG1N1    0.360000       12.0110           0
      7739 WT3      436      MECN     N3       NG1T1   -0.460000       14.0070           0
      7740 WT3      440      MECN     C1       CG331   -0.170000       12.0110           0
      7741 WT3      440      MECN     H11      HGA3     0.090000        1.0080           0
      7742 WT3      440      MECN     H12      HGA3     0.090000        1.0080           0
      7743 WT3      440      MECN     H13      HGA3     0.090000        1.0080           0
      7744 WT3      440      MECN     C2       CG1N1    0.360000       12.0110           0
      7745 WT3      440      MECN     N3       NG1T1   -0.460000       14.0070           0
      7746 WT3      450      MECN     C1       CG331   -0.170000       12.0110           0
      7747 WT3      450      MECN     H11      HGA3     0.090000        1.0080           0
      7748 WT3      450      MECN     H12      HGA3     0.090000        1.0080           0
      7749 WT3      450      MECN     H13      HGA3     0.090000        1.0080           0
      7750 WT3      450      MECN     C2       CG1N1    0.360000       12.0110           0
      7751 WT3      450      MECN     N3       NG1T1   -0.460000       14.0070           0
      7752 WT3      451      MECN     C1       CG331   -0.170000       12.0110           0
      7753 WT3      451      MECN     H11      HGA3     0.090000        1.0080           0
      7754 WT3      451      MECN     H12      HGA3     0.090000        1.0080           0
      7755 WT3      451      MECN     H13      HGA3     0.090000        1.0080           0
      7756 WT3      451      MECN     C2       CG1N1    0.360000       12.0110           0
      7757 WT3      451      MECN     N3       NG1T1   -0.460000       14.0070           0
      7758 WT3      460      MECN     C1       CG331   -0.170000       12.0110           0
      7759 WT3      460      MECN     H11      HGA3     0.090000        1.0080           0
      7760 WT3      460      MECN     H12      HGA3     0.090000        1.0080           0
      7761 WT3      460      MECN     H13      HGA3     0.090000        1.0080           0
      7762 WT3      460      MECN     C2       CG1N1    0.360000       12.0110           0
      7763 WT3      460      MECN     N3       NG1T1   -0.460000       14.0070           0
      7764 WT3      475      MECN     C1       CG331   -0.170000       12.0110           0
      7765 WT3      475      MECN     H11      HGA3     0.090000        1.0080           0
      7766 WT3      475      MECN     H12      HGA3     0.090000        1.0080           0
      7767 WT3      475      MECN     H13      HGA3     0.090000        1.0080           0
      7768 WT3      475      MECN     C2       CG1N1    0.360000       12.0110           0
      7769 WT3      475      MECN     N3       NG1T1   -0.460000       14.0070           0
      7770 WT3      485      MECN     C1       CG331   -0.170000       12.0110           0
      7771 WT3      485      MECN     H11      HGA3     0.090000        1.0080           0
      7772 WT3      485      MECN     H12      HGA3     0.090000        1.0080           0
      7773 WT3      485      MECN     H13      HGA3     0.090000        1.0080           0
      7774 WT3      485      MECN     C2       CG1N1    0.360000       12.0110           0
      7775 WT3      485      MECN     N3       NG1T1   -0.460000       14.0070           0
      7776 WT3      486      MECN     C1       CG331   -0.170000       12.0110           0
      7777 WT3      486      MECN     H11      HGA3     0.090000        1.0080           0
      7778 WT3      486      MECN     H12      HGA3     0.090000        1.0080           0
      7779 WT3      486      MECN     H13      HGA3     0.090000        1.0080           0
      7780 WT3      486      MECN     C2       CG1N1    0.360000       12.0110           0
      7781 WT3      486      MECN     N3       NG1T1   -0.460000       14.0070           0
      7782 WT3      488      MECN     C1       CG331   -0.170000       12.0110           0
      7783 WT3      488      MECN     H11      HGA3     0.090000        1.0080           0
      7784 WT3      488      MECN     H12      HGA3     0.090000        1.0080           0
      7785 WT3      488      MECN     H13      HGA3     0.090000        1.0080           0
      7786 WT3      488      MECN     C2       CG1N1    0.360000       12.0110           0
      7787 WT3      488      MECN     N3       NG1T1   -0.460000       14.0070           0
      7788 WT3      513      MECN     C1       CG331   -0.170000       12.0110           0
      7789 WT3      513      MECN     H11      HGA3     0.090000        1.0080           0
      7790 WT3      513      MECN     H12      HGA3     0.090000        1.0080           0
      7791 WT3      513      MECN     H13      HGA3     0.090000        1.0080           0
      7792 WT3      513      MECN     C2       CG1N1    0.360000       12.0110           0
      7793 WT3      513      MECN     N3       NG1T1   -0.460000       14.0070           0
      7794 WT3      523      MECN     C1       CG331   -0.170000       12.0110           0
      7795 WT3      523      MECN     H11      HGA3     0.090000        1.0080           0
      7796 WT3      523      MECN     H12      HGA3     0.090000        1.0080           0
      7797 WT3      523      MECN     H13      HGA3     0.090000        1.0080           0
      7798 WT3      523      MECN     C2       CG1N1    0.360000       12.0110           0
      7799 WT3      523      MECN     N3       NG1T1   -0.460000       14.0070           0
      7800 WT3      530      MECN     C1       CG331   -0.170000       12.0110           0
      7801 WT3      530      MECN     H11      HGA3     0.090000        1.0080           0
      7802 WT3      530      MECN     H12      HGA3     0.090000        1.0080           0
      7803 WT3      530      MECN     H13      HGA3     0.090000        1.0080           0
      7804 WT3      530      MECN     C2       CG1N1    0.360000       12.0110           0
      7805 WT3      530      MECN     N3       NG1T1   -0.460000       14.0070           0
      7806 WT3      532      MECN     C1       CG331   -0.170000       12.0110           0
      7807 WT3      532      MECN     H11      HGA3     0.090000        1.0080           0
      7808 WT3      532      MECN     H12      HGA3     0.090000        1.0080           0
      7809 WT3      532      MECN     H13      HGA3     0.090000        1.0080           0
      7810 WT3      532      MECN     C2       CG1N1    0.360000       12.0110           0
      7811 WT3      532      MECN     N3       NG1T1   -0.460000       14.0070           0
      7812 WT3      537      MECN     C1       CG331   -0.170000       12.0110           0
      7813 WT3      537      MECN     H11      HGA3     0.090000        1.0080           0
      7814 WT3      537      MECN     H12      HGA3     0.090000        1.0080           0
      7815 WT3      537      MECN     H13      HGA3     0.090000        1.0080           0
      7816 WT3      537      MECN     C2       CG1N1    0.360000       12.0110           0
      7817 WT3      537      MECN     N3       NG1T1   -0.460000       14.0070           0
      7818 WT3      546      MECN     C1       CG331   -0.170000       12.0110           0
      7819 WT3      546      MECN     H11      HGA3     0.090000        1.0080           0
      7820 WT3      546      MECN     H12      HGA3     0.090000        1.0080           0
      7821 WT3      546      MECN     H13      HGA3     0.090000        1.0080           0
      7822 WT3      546      MECN     C2       CG1N1    0.360000       12.0110           0
      7823 WT3      546      MECN     N3       NG1T1   -0.460000       14.0070           0
      7824 WT3      557      MECN     C1       CG331   -0.170000       12.0110           0
      7825 WT3      557      MECN     H11      HGA3     0.090000        1.0080           0
      7826 WT3      557      MECN     H12      HGA3     0.090000        1.0080           0
      7827 WT3      557      MECN     H13      HGA3     0.090000        1.0080           0
      7828 WT3      557      MECN     C2       CG1N1    0.360000       12.0110           0
      7829 WT3      557      MECN     N3       NG1T1   -0.460000       14.0070           0
      7830 WT3      560      MECN     C1       CG331   -0.170000       12.0110           0
      7831 WT3      560      MECN     H11      HGA3     0.090000        1.0080           0
      7832 WT3      560      MECN     H12      HGA3     0.090000        1.0080           0
      7833 WT3      560      MECN     H13      HGA3     0.090000        1.0080           0
      7834 WT3      560      MECN     C2       CG1N1    0.360000       12.0110           0
      7835 WT3      560      MECN     N3       NG1T1   -0.460000       14.0070           0
      7836 WT3      564      MECN     C1       CG331   -0.170000       12.0110           0
      7837 WT3      564      MECN     H11      HGA3     0.090000        1.0080           0
      7838 WT3      564      MECN     H12      HGA3     0.090000        1.0080           0
      7839 WT3      564      MECN     H13      HGA3     0.090000        1.0080           0
      7840 WT3      564      MECN     C2       CG1N1    0.360000       12.0110           0
      7841 WT3      564      MECN     N3       NG1T1   -0.460000       14.0070           0
      7842 WT3      576      MECN     C1       CG331   -0.170000       12.0110           0
      7843 WT3      576      MECN     H11      HGA3     0.090000        1.0080           0
      7844 WT3      576      MECN     H12      HGA3     0.090000        1.0080           0
      7845 WT3      576      MECN     H13      HGA3     0.090000        1.0080           0
      7846 WT3      576      MECN     C2       CG1N1    0.360000       12.0110           0
      7847 WT3      576      MECN     N3       NG1T1   -0.460000       14.0070           0
      7848 WT3      579      MECN     C1       CG331   -0.170000       12.0110           0
      7849 WT3      579      MECN     H11      HGA3     0.090000        1.0080           0
      7850 WT3      579      MECN     H12      HGA3     0.090000        1.0080           0
      7851 WT3      579      MECN     H13      HGA3     0.090000        1.0080           0
      7852 WT3      579      MECN     C2       CG1N1    0.360000       12.0110           0
      7853 WT3      579      MECN     N3       NG1T1   -0.460000       14.0070           0
      7854 WT3      584      MECN     C1       CG331   -0.170000       12.0110           0
      7855 WT3      584      MECN     H11      HGA3     0.090000        1.0080           0
      7856 WT3      584      MECN     H12      HGA3     0.090000        1.0080           0
      7857 WT3      584      MECN     H13      HGA3     0.090000        1.0080           0
      7858 WT3      584      MECN     C2       CG1N1    0.360000       12.0110           0
      7859 WT3      584      MECN     N3       NG1T1   -0.460000       14.0070           0
      7860 WT3      585      MECN     C1       CG331   -0.170000       12.0110           0
      7861 WT3      585      MECN     H11      HGA3     0.090000        1.0080           0
      7862 WT3      585      MECN     H12      HGA3     0.090000        1.0080           0
      7863 WT3      585      MECN     H13      HGA3     0.090000        1.0080           0
      7864 WT3      585      MECN     C2       CG1N1    0.360000       12.0110           0
      7865 WT3      585      MECN     N3       NG1T1   -0.460000       14.0070           0
      7866 WT3      591      MECN     C1       CG331   -0.170000       12.0110           0
      7867 WT3      591      MECN     H11      HGA3     0.090000        1.0080           0
      7868 WT3      591      MECN     H12      HGA3     0.090000        1.0080           0
      7869 WT3      591      MECN     H13      HGA3     0.090000        1.0080           0
      7870 WT3      591      MECN     C2       CG1N1    0.360000       12.0110           0
      7871 WT3      591      MECN     N3       NG1T1   -0.460000       14.0070           0
      7872 WT3      612      MECN     C1       CG331   -0.170000       12.0110           0
      7873 WT3      612      MECN     H11      HGA3     0.090000        1.0080           0
      7874 WT3      612      MECN     H12      HGA3     0.090000        1.0080           0
      7875 WT3      612      MECN     H13      HGA3     0.090000        1.0080           0
      7876 WT3      612      MECN     C2       CG1N1    0.360000       12.0110           0
      7877 WT3      612      MECN     N3       NG1T1   -0.460000       14.0070           0
      7878 WT3      623      MECN     C1       CG331   -0.170000       12.0110           0
      7879 WT3      623      MECN     H11      HGA3     0.090000        1.0080           0
      7880 WT3      623      MECN     H12      HGA3     0.090000        1.0080           0
      7881 WT3      623      MECN     H13      HGA3     0.090000        1.0080           0
      7882 WT3      623      MECN     C2       CG1N1    0.360000       12.0110           0
      7883 WT3      623      MECN     N3       NG1T1   -0.460000       14.0070           0
      7884 WT3      628      MECN     C1       CG331   -0.170000       12.0110           0
      7885 WT3      628      MECN     H11      HGA3     0.090000        1.0080           0
      7886 WT3      628      MECN     H12      HGA3     0.090000        1.0080           0
      7887 WT3      628      MECN     H13      HGA3     0.090000        1.0080           0
      7888 WT3      628      MECN     C2       CG1N1    0.360000       12.0110           0
      7889 WT3      628      MECN     N3       NG1T1   -0.460000       14.0070           0
      7890 WT3      632      MECN     C1       CG331   -0.170000       12.0110           0
      7891 WT3      632      MECN     H11      HGA3     0.090000        1.0080           0
      7892 WT3      632      MECN     H12      HGA3     0.090000        1.0080           0
      7893 WT3      632      MECN     H13      HGA3     0.090000        1.0080           0
      7894 WT3      632      MECN     C2       CG1N1    0.360000       12.0110           0
      7895 WT3      632      MECN     N3       NG1T1   -0.460000       14.0070           0
      7896 WT3      638      MECN     C1       CG331   -0.170000       12.0110           0
      7897 WT3      638      MECN     H11      HGA3     0.090000        1.0080           0
      7898 WT3      638      MECN     H12      HGA3     0.090000        1.0080           0
      7899 WT3      638      MECN     H13      HGA3     0.090000        1.0080           0
      7900 WT3      638      MECN     C2       CG1N1    0.360000       12.0110           0
      7901 WT3      638      MECN     N3       NG1T1   -0.460000       14.0070           0
      7902 WT3      642      MECN     C1       CG331   -0.170000       12.0110           0
      7903 WT3      642      MECN     H11      HGA3     0.090000        1.0080           0
      7904 WT3      642      MECN     H12      HGA3     0.090000        1.0080           0
      7905 WT3      642      MECN     H13      HGA3     0.090000        1.0080           0
      7906 WT3      642      MECN     C2       CG1N1    0.360000       12.0110           0
      7907 WT3      642      MECN     N3       NG1T1   -0.460000       14.0070           0
      7908 WT3      650      MECN     C1       CG331   -0.170000       12.0110           0
      7909 WT3      650      MECN     H11      HGA3     0.090000        1.0080           0
      7910 WT3      650      MECN     H12      HGA3     0.090000        1.0080           0
      7911 WT3      650      MECN     H13      HGA3     0.090000        1.0080           0
      7912 WT3      650      MECN     C2       CG1N1    0.360000       12.0110           0
      7913 WT3      650      MECN     N3       NG1T1   -0.460000       14.0070           0
      7914 WT3      658      MECN     C1       CG331   -0.170000       12.0110           0
      7915 WT3      658      MECN     H11      HGA3     0.090000        1.0080           0
      7916 WT3      658      MECN     H12      HGA3     0.090000        1.0080           0
      7917 WT3      658      MECN     H13      HGA3     0.090000        1.0080           0
      7918 WT3      658      MECN     C2       CG1N1    0.360000       12.0110           0
      7919 WT3      658      MECN     N3       NG1T1   -0.460000       14.0070           0
      7920 WT3      659      MECN     C1       CG331   -0.170000       12.0110           0
      7921 WT3      659      MECN     H11      HGA3     0.090000        1.0080           0
      7922 WT3      659      MECN     H12      HGA3     0.090000        1.0080           0
      7923 WT3      659      MECN     H13      HGA3     0.090000        1.0080           0
      7924 WT3      659      MECN     C2       CG1N1    0.360000       12.0110           0
      7925 WT3      659      MECN     N3       NG1T1   -0.460000       14.0070           0
      7926 WT3      663      MECN     C1       CG331   -0.170000       12.0110           0
      7927 WT3      663      MECN     H11      HGA3     0.090000        1.0080           0
      7928 WT3      663      MECN     H12      HGA3     0.090000        1.0080           0
      7929 WT3      663      MECN     H13      HGA3     0.090000        1.0080           0
      7930 WT3      663      MECN     C2       CG1N1    0.360000       12.0110           0
      7931 WT3      663      MECN     N3       NG1T1   -0.460000       14.0070           0
      7932 WT3      670      MECN     C1       CG331   -0.170000       12.0110           0
      7933 WT3      670      MECN     H11      HGA3     0.090000        1.0080           0
      7934 WT3      670      MECN     H12      HGA3     0.090000        1.0080           0
      7935 WT3      670      MECN     H13      HGA3     0.090000        1.0080           0
      7936 WT3      670      MECN     C2       CG1N1    0.360000       12.0110           0
      7937 WT3      670      MECN     N3       NG1T1   -0.460000       14.0070           0
      7938 WT3      679      MECN     C1       CG331   -0.170000       12.0110           0
      7939 WT3      679      MECN     H11      HGA3     0.090000        1.0080           0
      7940 WT3      679      MECN     H12      HGA3     0.090000        1.0080           0
      7941 WT3      679      MECN     H13      HGA3     0.090000        1.0080           0
      7942 WT3      679      MECN     C2       CG1N1    0.360000       12.0110           0
      7943 WT3      679      MECN     N3       NG1T1   -0.460000       14.0070           0
      7944 WT3      680      MECN     C1       CG331   -0.170000       12.0110           0
      7945 WT3      680      MECN     H11      HGA3     0.090000        1.0080           0
      7946 WT3      680      MECN     H12      HGA3     0.090000        1.0080           0
      7947 WT3      680      MECN     H13      HGA3     0.090000        1.0080           0
      7948 WT3      680      MECN     C2       CG1N1    0.360000       12.0110           0
      7949 WT3      680      MECN     N3       NG1T1   -0.460000       14.0070           0
      7950 WT3      688      MECN     C1       CG331   -0.170000       12.0110           0
      7951 WT3      688      MECN     H11      HGA3     0.090000        1.0080           0
      7952 WT3      688      MECN     H12      HGA3     0.090000        1.0080           0
      7953 WT3      688      MECN     H13      HGA3     0.090000        1.0080           0
      7954 WT3      688      MECN     C2       CG1N1    0.360000       12.0110           0
      7955 WT3      688      MECN     N3       NG1T1   -0.460000       14.0070           0
      7956 WT3      689      MECN     C1       CG331   -0.170000       12.0110           0
      7957 WT3      689      MECN     H11      HGA3     0.090000        1.0080           0
      7958 WT3      689      MECN     H12      HGA3     0.090000        1.0080           0
      7959 WT3      689      MECN     H13      HGA3     0.090000        1.0080           0
      7960 WT3      689      MECN     C2       CG1N1    0.360000       12.0110           0
      7961 WT3      689      MECN     N3       NG1T1   -0.460000       14.0070           0
      7962 WT3      692      MECN     C1       CG331   -0.170000       12.0110           0
      7963 WT3      692      MECN     H11      HGA3     0.090000        1.0080           0
      7964 WT3      692      MECN     H12      HGA3     0.090000        1.0080           0
      7965 WT3      692      MECN     H13      HGA3     0.090000        1.0080           0
      7966 WT3      692      MECN     C2       CG1N1    0.360000       12.0110           0
      7967 WT3      692      MECN     N3       NG1T1   -0.460000       14.0070           0
      7968 WT3      696      MECN     C1       CG331   -0.170000       12.0110           0
      7969 WT3      696      MECN     H11      HGA3     0.090000        1.0080           0
      7970 WT3      696      MECN     H12      HGA3     0.090000        1.0080           0
      7971 WT3      696      MECN     H13      HGA3     0.090000        1.0080           0
      7972 WT3      696      MECN     C2       CG1N1    0.360000       12.0110           0
      7973 WT3      696      MECN     N3       NG1T1   -0.460000       14.0070           0
      7974 WT3      705      MECN     C1       CG331   -0.170000       12.0110           0
      7975 WT3      705      MECN     H11      HGA3     0.090000        1.0080           0
      7976 WT3      705      MECN     H12      HGA3     0.090000        1.0080           0
      7977 WT3      705      MECN     H13      HGA3     0.090000        1.0080           0
      7978 WT3      705      MECN     C2       CG1N1    0.360000       12.0110           0
      7979 WT3      705      MECN     N3       NG1T1   -0.460000       14.0070           0
      7980 WT3      706      MECN     C1       CG331   -0.170000       12.0110           0
      7981 WT3      706      MECN     H11      HGA3     0.090000        1.0080           0
      7982 WT3      706      MECN     H12      HGA3     0.090000        1.0080           0
      7983 WT3      706      MECN     H13      HGA3     0.090000        1.0080           0
      7984 WT3      706      MECN     C2       CG1N1    0.360000       12.0110           0
      7985 WT3      706      MECN     N3       NG1T1   -0.460000       14.0070           0
      7986 WT3      715      MECN     C1       CG331   -0.170000       12.0110           0
      7987 WT3      715      MECN     H11      HGA3     0.090000        1.0080           0
      7988 WT3      715      MECN     H12      HGA3     0.090000        1.0080           0
      7989 WT3      715      MECN     H13      HGA3     0.090000        1.0080           0
      7990 WT3      715      MECN     C2       CG1N1    0.360000       12.0110           0
      7991 WT3      715      MECN     N3       NG1T1   -0.460000       14.0070           0
      7992 WT3      728      MECN     C1       CG331   -0.170000       12.0110           0
      7993 WT3      728      MECN     H11      HGA3     0.090000        1.0080           0
      7994 WT3      728      MECN     H12      HGA3     0.090000        1.0080           0
      7995 WT3      728      MECN     H13      HGA3     0.090000        1.0080           0
      7996 WT3      728      MECN     C2       CG1N1    0.360000       12.0110           0
      7997 WT3      728      MECN     N3       NG1T1   -0.460000       14.0070           0
      7998 WT3      736      MECN     C1       CG331   -0.170000       12.0110           0
      7999 WT3      736      MECN     H11      HGA3     0.090000        1.0080           0
      8000 WT3      736      MECN     H12      HGA3     0.090000        1.0080           0
      8001 WT3      736      MECN     H13      HGA3     0.090000        1.0080           0
      8002 WT3      736      MECN     C2       CG1N1    0.360000       12.0110           0
      8003 WT3      736      MECN     N3       NG1T1   -0.460000       14.0070           0
      8004 WT3      744      MECN     C1       CG331   -0.170000       12.0110           0
      8005 WT3      744      MECN     H11      HGA3     0.090000        1.0080           0
      8006 WT3      744      MECN     H12      HGA3     0.090000        1.0080           0
      8007 WT3      744      MECN     H13      HGA3     0.090000        1.0080           0
      8008 WT3      744      MECN     C2       CG1N1    0.360000       12.0110           0
      8009 WT3      744      MECN     N3       NG1T1   -0.460000       14.0070           0
      8010 WT3      749      MECN     C1       CG331   -0.170000       12.0110           0
      8011 WT3      749      MECN     H11      HGA3     0.090000        1.0080           0
      8012 WT3      749      MECN     H12      HGA3     0.090000        1.0080           0
      8013 WT3      749      MECN     H13      HGA3     0.090000        1.0080           0
      8014 WT3      749      MECN     C2       CG1N1    0.360000       12.0110           0
      8015 WT3      749      MECN     N3       NG1T1   -0.460000       14.0070           0
      8016 WT3      758      MECN     C1       CG331   -0.170000       12.0110           0
      8017 WT3      758      MECN     H11      HGA3     0.090000        1.0080           0
      8018 WT3      758      MECN     H12      HGA3     0.090000        1.0080           0
      8019 WT3      758      MECN     H13      HGA3     0.090000        1.0080           0
      8020 WT3      758      MECN     C2       CG1N1    0.360000       12.0110           0
      8021 WT3      758      MECN     N3       NG1T1   -0.460000       14.0070           0
      8022 WT3      762      MECN     C1       CG331   -0.170000       12.0110           0
      8023 WT3      762      MECN     H11      HGA3     0.090000        1.0080           0
      8024 WT3      762      MECN     H12      HGA3     0.090000        1.0080           0
      8025 WT3      762      MECN     H13      HGA3     0.090000        1.0080           0
      8026 WT3      762      MECN     C2       CG1N1    0.360000       12.0110           0
      8027 WT3      762      MECN     N3       NG1T1   -0.460000       14.0070           0
      8028 WT3      777      MECN     C1       CG331   -0.170000       12.0110           0
      8029 WT3      777      MECN     H11      HGA3     0.090000        1.0080           0
      8030 WT3      777      MECN     H12      HGA3     0.090000        1.0080           0
      8031 WT3      777      MECN     H13      HGA3     0.090000        1.0080           0
      8032 WT3      777      MECN     C2       CG1N1    0.360000       12.0110           0
      8033 WT3      777      MECN     N3       NG1T1   -0.460000       14.0070           0
      8034 WT3      780      MECN     C1       CG331   -0.170000       12.0110           0
      8035 WT3      780      MECN     H11      HGA3     0.090000        1.0080           0
      8036 WT3      780      MECN     H12      HGA3     0.090000        1.0080           0
      8037 WT3      780      MECN     H13      HGA3     0.090000        1.0080           0
      8038 WT3      780      MECN     C2       CG1N1    0.360000       12.0110           0
      8039 WT3      780      MECN     N3       NG1T1   -0.460000       14.0070           0
      8040 WT3      781      MECN     C1       CG331   -0.170000       12.0110           0
      8041 WT3      781      MECN     H11      HGA3     0.090000        1.0080           0
      8042 WT3      781      MECN     H12      HGA3     0.090000        1.0080           0
      8043 WT3      781      MECN     H13      HGA3     0.090000        1.0080           0
      8044 WT3      781      MECN     C2       CG1N1    0.360000       12.0110           0
      8045 WT3      781      MECN     N3       NG1T1   -0.460000       14.0070           0
      8046 WT3      787      MECN     C1       CG331   -0.170000       12.0110           0
      8047 WT3      787      MECN     H11      HGA3     0.090000        1.0080           0
      8048 WT3      787      MECN     H12      HGA3     0.090000        1.0080           0
      8049 WT3      787      MECN     H13      HGA3     0.090000        1.0080           0
      8050 WT3      787      MECN     C2       CG1N1    0.360000       12.0110           0
      8051 WT3      787      MECN     N3       NG1T1   -0.460000       14.0070           0
      8052 WT3      805      MECN     C1       CG331   -0.170000       12.0110           0
      8053 WT3      805      MECN     H11      HGA3     0.090000        1.0080           0
      8054 WT3      805      MECN     H12      HGA3     0.090000        1.0080           0
      8055 WT3      805      MECN     H13      HGA3     0.090000        1.0080           0
      8056 WT3      805      MECN     C2       CG1N1    0.360000       12.0110           0
      8057 WT3      805      MECN     N3       NG1T1   -0.460000       14.0070           0
      8058 WT3      810      MECN     C1       CG331   -0.170000       12.0110           0
      8059 WT3      810      MECN     H11      HGA3     0.090000        1.0080           0
      8060 WT3      810      MECN     H12      HGA3     0.090000        1.0080           0
      8061 WT3      810      MECN     H13      HGA3     0.090000        1.0080           0
      8062 WT3      810      MECN     C2       CG1N1    0.360000       12.0110           0
      8063 WT3      810      MECN     N3       NG1T1   -0.460000       14.0070           0
      8064 WT3      818      MECN     C1       CG331   -0.170000       12.0110           0
      8065 WT3      818      MECN     H11      HGA3     0.090000        1.0080           0
      8066 WT3      818      MECN     H12      HGA3     0.090000        1.0080           0
      8067 WT3      818      MECN     H13      HGA3     0.090000        1.0080           0
      8068 WT3      818      MECN     C2       CG1N1    0.360000       12.0110           0
      8069 WT3      818      MECN     N3       NG1T1   -0.460000       14.0070           0
      8070 WT3      836      MECN     C1       CG331   -0.170000       12.0110           0
      8071 WT3      836      MECN     H11      HGA3     0.090000        1.0080           0
      8072 WT3      836      MECN     H12      HGA3     0.090000        1.0080           0
      8073 WT3      836      MECN     H13      HGA3     0.090000        1.0080           0
      8074 WT3      836      MECN     C2       CG1N1    0.360000       12.0110           0
      8075 WT3      836      MECN     N3       NG1T1   -0.460000       14.0070           0
      8076 WT3      838      MECN     C1       CG331   -0.170000       12.0110           0
      8077 WT3      838      MECN     H11      HGA3     0.090000        1.0080           0
      8078 WT3      838      MECN     H12      HGA3     0.090000        1.0080           0
      8079 WT3      838      MECN     H13      HGA3     0.090000        1.0080           0
      8080 WT3      838      MECN     C2       CG1N1    0.360000       12.0110           0
      8081 WT3      838      MECN     N3       NG1T1   -0.460000       14.0070           0
      8082 WT3      839      MECN     C1       CG331   -0.170000       12.0110           0
      8083 WT3      839      MECN     H11      HGA3     0.090000        1.0080           0
      8084 WT3      839      MECN     H12      HGA3     0.090000        1.0080           0
      8085 WT3      839      MECN     H13      HGA3     0.090000        1.0080           0
      8086 WT3      839      MECN     C2       CG1N1    0.360000       12.0110           0
      8087 WT3      839      MECN     N3       NG1T1   -0.460000       14.0070           0
      8088 WT3      851      MECN     C1       CG331   -0.170000       12.0110           0
      8089 WT3      851      MECN     H11      HGA3     0.090000        1.0080           0
      8090 WT3      851      MECN     H12      HGA3     0.090000        1.0080           0
      8091 WT3      851      MECN     H13      HGA3     0.090000        1.0080           0
      8092 WT3      851      MECN     C2       CG1N1    0.360000       12.0110           0
      8093 WT3      851      MECN     N3       NG1T1   -0.460000       14.0070           0
      8094 WT3      862      MECN     C1       CG331   -0.170000       12.0110           0
      8095 WT3      862      MECN     H11      HGA3     0.090000        1.0080           0
      8096 WT3      862      MECN     H12      HGA3     0.090000        1.0080           0
      8097 WT3      862      MECN     H13      HGA3     0.090000        1.0080           0
      8098 WT3      862      MECN     C2       CG1N1    0.360000       12.0110           0
      8099 WT3      862      MECN     N3       NG1T1   -0.460000       14.0070           0
      8100 WT3      866      MECN     C1       CG331   -0.170000       12.0110           0
      8101 WT3      866      MECN     H11      HGA3     0.090000        1.0080           0
      8102 WT3      866      MECN     H12      HGA3     0.090000        1.0080           0
      8103 WT3      866      MECN     H13      HGA3     0.090000        1.0080           0
      8104 WT3      866      MECN     C2       CG1N1    0.360000       12.0110           0
      8105 WT3      866      MECN     N3       NG1T1   -0.460000       14.0070           0
      8106 WT3      867      MECN     C1       CG331   -0.170000       12.0110           0
      8107 WT3      867      MECN     H11      HGA3     0.090000        1.0080           0
      8108 WT3      867      MECN     H12      HGA3     0.090000        1.0080           0
      8109 WT3      867      MECN     H13      HGA3     0.090000        1.0080           0
      8110 WT3      867      MECN     C2       CG1N1    0.360000       12.0110           0
      8111 WT3      867      MECN     N3       NG1T1   -0.460000       14.0070           0
      8112 WT3      871      MECN     C1       CG331   -0.170000       12.0110           0
      8113 WT3      871      MECN     H11      HGA3     0.090000        1.0080           0
      8114 WT3      871      MECN     H12      HGA3     0.090000        1.0080           0
      8115 WT3      871      MECN     H13      HGA3     0.090000        1.0080           0
      8116 WT3      871      MECN     C2       CG1N1    0.360000       12.0110           0
      8117 WT3      871      MECN     N3       NG1T1   -0.460000       14.0070           0
      8118 WT3      879      MECN     C1       CG331   -0.170000       12.0110           0
      8119 WT3      879      MECN     H11      HGA3     0.090000        1.0080           0
      8120 WT3      879      MECN     H12      HGA3     0.090000        1.0080           0
      8121 WT3      879      MECN     H13      HGA3     0.090000        1.0080           0
      8122 WT3      879      MECN     C2       CG1N1    0.360000       12.0110           0
      8123 WT3      879      MECN     N3       NG1T1   -0.460000       14.0070           0
      8124 WT3      880      MECN     C1       CG331   -0.170000       12.0110           0
      8125 WT3      880      MECN     H11      HGA3     0.090000        1.0080           0
      8126 WT3      880      MECN     H12      HGA3     0.090000        1.0080           0
      8127 WT3      880      MECN     H13      HGA3     0.090000        1.0080           0
      8128 WT3      880      MECN     C2       CG1N1    0.360000       12.0110           0
      8129 WT3      880      MECN     N3       NG1T1   -0.460000       14.0070           0
      8130 WT3      882      MECN     C1       CG331   -0.170000       12.0110           0
      8131 WT3      882      MECN     H11      HGA3     0.090000        1.0080           0
      8132 WT3      882      MECN     H12      HGA3     0.090000        1.0080           0
      8133 WT3      882      MECN     H13      HGA3     0.090000        1.0080           0
      8134 WT3      882      MECN     C2       CG1N1    0.360000       12.0110           0
      8135 WT3      882      MECN     N3       NG1T1   -0.460000       14.0070           0
      8136 WT3      883      MECN     C1       CG331   -0.170000       12.0110           0
      8137 WT3      883      MECN     H11      HGA3     0.090000        1.0080           0
      8138 WT3      883      MECN     H12      HGA3     0.090000        1.0080           0
      8139 WT3      883      MECN     H13      HGA3     0.090000        1.0080           0
      8140 WT3      883      MECN     C2       CG1N1    0.360000       12.0110           0
      8141 WT3      883      MECN     N3       NG1T1   -0.460000       14.0070           0
      8142 WT3      884      MECN     C1       CG331   -0.170000       12.0110           0
      8143 WT3      884      MECN     H11      HGA3     0.090000        1.0080           0
      8144 WT3      884      MECN     H12      HGA3     0.090000        1.0080           0
      8145 WT3      884      MECN     H13      HGA3     0.090000        1.0080           0
      8146 WT3      884      MECN     C2       CG1N1    0.360000       12.0110           0
      8147 WT3      884      MECN     N3       NG1T1   -0.460000       14.0070           0
      8148 WT3      901      MECN     C1       CG331   -0.170000       12.0110           0
      8149 WT3      901      MECN     H11      HGA3     0.090000        1.0080           0
      8150 WT3      901      MECN     H12      HGA3     0.090000        1.0080           0
      8151 WT3      901      MECN     H13      HGA3     0.090000        1.0080           0
      8152 WT3      901      MECN     C2       CG1N1    0.360000       12.0110           0
      8153 WT3      901      MECN     N3       NG1T1   -0.460000       14.0070           0
      8154 WT3      902      MECN     C1       CG331   -0.170000       12.0110           0
      8155 WT3      902      MECN     H11      HGA3     0.090000        1.0080           0
      8156 WT3      902      MECN     H12      HGA3     0.090000        1.0080           0
      8157 WT3      902      MECN     H13      HGA3     0.090000        1.0080           0
      8158 WT3      902      MECN     C2       CG1N1    0.360000       12.0110           0
      8159 WT3      902      MECN     N3       NG1T1   -0.460000       14.0070           0
      8160 WT3      904      MECN     C1       CG331   -0.170000       12.0110           0
      8161 WT3      904      MECN     H11      HGA3     0.090000        1.0080           0
      8162 WT3      904      MECN     H12      HGA3     0.090000        1.0080           0
      8163 WT3      904      MECN     H13      HGA3     0.090000        1.0080           0
      8164 WT3      904      MECN     C2       CG1N1    0.360000       12.0110           0
      8165 WT3      904      MECN     N3       NG1T1   -0.460000       14.0070           0
      8166 WT3      907      MECN     C1       CG331   -0.170000       12.0110           0
      8167 WT3      907      MECN     H11      HGA3     0.090000        1.0080           0
      8168 WT3      907      MECN     H12      HGA3     0.090000        1.0080           0
      8169 WT3      907      MECN     H13      HGA3     0.090000        1.0080           0
      8170 WT3      907      MECN     C2       CG1N1    0.360000       12.0110           0
      8171 WT3      907      MECN     N3       NG1T1   -0.460000       14.0070           0
      8172 WT3      912      MECN     C1       CG331   -0.170000       12.0110           0
      8173 WT3      912      MECN     H11      HGA3     0.090000        1.0080           0
      8174 WT3      912      MECN     H12      HGA3     0.090000        1.0080           0
      8175 WT3      912      MECN     H13      HGA3     0.090000        1.0080           0
      8176 WT3      912      MECN     C2       CG1N1    0.360000       12.0110           0
      8177 WT3      912      MECN     N3       NG1T1   -0.460000       14.0070           0
      8178 WT3      934      MECN     C1       CG331   -0.170000       12.0110           0
      8179 WT3      934      MECN     H11      HGA3     0.090000        1.0080           0
      8180 WT3      934      MECN     H12      HGA3     0.090000        1.0080           0
      8181 WT3      934      MECN     H13      HGA3     0.090000        1.0080           0
      8182 WT3      934      MECN     C2       CG1N1    0.360000       12.0110           0
      8183 WT3      934      MECN     N3       NG1T1   -0.460000       14.0070           0
      8184 WT3      938      MECN     C1       CG331   -0.170000       12.0110           0
      8185 WT3      938      MECN     H11      HGA3     0.090000        1.0080           0
      8186 WT3      938      MECN     H12      HGA3     0.090000        1.0080           0
      8187 WT3      938      MECN     H13      HGA3     0.090000        1.0080           0
      8188 WT3      938      MECN     C2       CG1N1    0.360000       12.0110           0
      8189 WT3      938      MECN     N3       NG1T1   -0.460000       14.0070           0
      8190 WT3      943      MECN     C1       CG331   -0.170000       12.0110           0
      8191 WT3      943      MECN     H11      HGA3     0.090000        1.0080           0
      8192 WT3      943      MECN     H12      HGA3     0.090000        1.0080           0
      8193 WT3      943      MECN     H13      HGA3     0.090000        1.0080           0
      8194 WT3      943      MECN     C2       CG1N1    0.360000       12.0110           0
      8195 WT3      943      MECN     N3       NG1T1   -0.460000       14.0070           0
      8196 WT3      947      MECN     C1       CG331   -0.170000       12.0110           0
      8197 WT3      947      MECN     H11      HGA3     0.090000        1.0080           0
      8198 WT3      947      MECN     H12      HGA3     0.090000        1.0080           0
      8199 WT3      947      MECN     H13      HGA3     0.090000        1.0080           0
      8200 WT3      947      MECN     C2       CG1N1    0.360000       12.0110           0
      8201 WT3      947      MECN     N3       NG1T1   -0.460000       14.0070           0
      8202 WT3      959      MECN     C1       CG331   -0.170000       12.0110           0
      8203 WT3      959      MECN     H11      HGA3     0.090000        1.0080           0
      8204 WT3      959      MECN     H12      HGA3     0.090000        1.0080           0
      8205 WT3      959      MECN     H13      HGA3     0.090000        1.0080           0
      8206 WT3      959      MECN     C2       CG1N1    0.360000       12.0110           0
      8207 WT3      959      MECN     N3       NG1T1   -0.460000       14.0070           0
      8208 WT3      960      MECN     C1       CG331   -0.170000       12.0110           0
      8209 WT3      960      MECN     H11      HGA3     0.090000        1.0080           0
      8210 WT3      960      MECN     H12      HGA3     0.090000        1.0080           0
      8211 WT3      960      MECN     H13      HGA3     0.090000        1.0080           0
      8212 WT3      960      MECN     C2       CG1N1    0.360000       12.0110           0
      8213 WT3      960      MECN     N3       NG1T1   -0.460000       14.0070           0
      8214 WT3      963      MECN     C1       CG331   -0.170000       12.0110           0
      8215 WT3      963      MECN     H11      HGA3     0.090000        1.0080           0
      8216 WT3      963      MECN     H12      HGA3     0.090000        1.0080           0
      8217 WT3      963      MECN     H13      HGA3     0.090000        1.0080           0
      8218 WT3      963      MECN     C2       CG1N1    0.360000       12.0110           0
      8219 WT3      963      MECN     N3       NG1T1   -0.460000       14.0070           0
      8220 WT3      964      MECN     C1       CG331   -0.170000       12.0110           0
      8221 WT3      964      MECN     H11      HGA3     0.090000        1.0080           0
      8222 WT3      964      MECN     H12      HGA3     0.090000        1.0080           0
      8223 WT3      964      MECN     H13      HGA3     0.090000        1.0080           0
      8224 WT3      964      MECN     C2       CG1N1    0.360000       12.0110           0
      8225 WT3      964      MECN     N3       NG1T1   -0.460000       14.0070           0
      8226 WT3      967      MECN     C1       CG331   -0.170000       12.0110           0
      8227 WT3      967      MECN     H11      HGA3     0.090000        1.0080           0
      8228 WT3      967      MECN     H12      HGA3     0.090000        1.0080           0
      8229 WT3      967      MECN     H13      HGA3     0.090000        1.0080           0
      8230 WT3      967      MECN     C2       CG1N1    0.360000       12.0110           0
      8231 WT3      967      MECN     N3       NG1T1   -0.460000       14.0070           0
      8232 WT3      971      MECN     C1       CG331   -0.170000       12.0110           0
      8233 WT3      971      MECN     H11      HGA3     0.090000        1.0080           0
      8234 WT3      971      MECN     H12      HGA3     0.090000        1.0080           0
      8235 WT3      971      MECN     H13      HGA3     0.090000        1.0080           0
      8236 WT3      971      MECN     C2       CG1N1    0.360000       12.0110           0
      8237 WT3      971      MECN     N3       NG1T1   -0.460000       14.0070           0
      8238 WT3      975      MECN     C1       CG331   -0.170000       12.0110           0
      8239 WT3      975      MECN     H11      HGA3     0.090000        1.0080           0
      8240 WT3      975      MECN     H12      HGA3     0.090000        1.0080           0
      8241 WT3      975      MECN     H13      HGA3     0.090000        1.0080           0
      8242 WT3      975      MECN     C2       CG1N1    0.360000       12.0110           0
      8243 WT3      975      MECN     N3       NG1T1   -0.460000       14.0070           0
      8244 WT3      988      MECN     C1       CG331   -0.170000       12.0110           0
      8245 WT3      988      MECN     H11      HGA3     0.090000        1.0080           0
      8246 WT3      988      MECN     H12      HGA3     0.090000        1.0080           0
      8247 WT3      988      MECN     H13      HGA3     0.090000        1.0080           0
      8248 WT3      988      MECN     C2       CG1N1    0.360000       12.0110           0
      8249 WT3      988      MECN     N3       NG1T1   -0.460000       14.0070           0
      8250 WT3      999      MECN     C1       CG331   -0.170000       12.0110           0
      8251 WT3      999      MECN     H11      HGA3     0.090000        1.0080           0
      8252 WT3      999      MECN     H12      HGA3     0.090000        1.0080           0
      8253 WT3      999      MECN     H13      HGA3     0.090000        1.0080           0
      8254 WT3      999      MECN     C2       CG1N1    0.360000       12.0110           0
      8255 WT3      999      MECN     N3       NG1T1   -0.460000       14.0070           0
      8256 WT3      1001     MECN     C1       CG331   -0.170000       12.0110           0
      8257 WT3      1001     MECN     H11      HGA3     0.090000        1.0080           0
      8258 WT3      1001     MECN     H12      HGA3     0.090000        1.0080           0
      8259 WT3      1001     MECN     H13      HGA3     0.090000        1.0080           0
      8260 WT3      1001     MECN     C2       CG1N1    0.360000       12.0110           0
      8261 WT3      1001     MECN     N3       NG1T1   -0.460000       14.0070           0
      8262 WT3      1002     MECN     C1       CG331   -0.170000       12.0110           0
      8263 WT3      1002     MECN     H11      HGA3     0.090000        1.0080           0
      8264 WT3      1002     MECN     H12      HGA3     0.090000        1.0080           0
      8265 WT3      1002     MECN     H13      HGA3     0.090000        1.0080           0
      8266 WT3      1002     MECN     C2       CG1N1    0.360000       12.0110           0
      8267 WT3      1002     MECN     N3       NG1T1   -0.460000       14.0070           0
      8268 WT3      1005     MECN     C1       CG331   -0.170000       12.0110           0
      8269 WT3      1005     MECN     H11      HGA3     0.090000        1.0080           0
      8270 WT3      1005     MECN     H12      HGA3     0.090000        1.0080           0
      8271 WT3      1005     MECN     H13      HGA3     0.090000        1.0080           0
      8272 WT3      1005     MECN     C2       CG1N1    0.360000       12.0110           0
      8273 WT3      1005     MECN     N3       NG1T1   -0.460000       14.0070           0
      8274 WT3      1006     MECN     C1       CG331   -0.170000       12.0110           0
      8275 WT3      1006     MECN     H11      HGA3     0.090000        1.0080           0
      8276 WT3      1006     MECN     H12      HGA3     0.090000        1.0080           0
      8277 WT3      1006     MECN     H13      HGA3     0.090000        1.0080           0
      8278 WT3      1006     MECN     C2       CG1N1    0.360000       12.0110           0
      8279 WT3      1006     MECN     N3       NG1T1   -0.460000       14.0070           0
      8280 WT3      1016     MECN     C1       CG331   -0.170000       12.0110           0
      8281 WT3      1016     MECN     H11      HGA3     0.090000        1.0080           0
      8282 WT3      1016     MECN     H12      HGA3     0.090000        1.0080           0
      8283 WT3      1016     MECN     H13      HGA3     0.090000        1.0080           0
      8284 WT3      1016     MECN     C2       CG1N1    0.360000       12.0110           0
      8285 WT3      1016     MECN     N3       NG1T1   -0.460000       14.0070           0
      8286 WT3      1022     MECN     C1       CG331   -0.170000       12.0110           0
      8287 WT3      1022     MECN     H11      HGA3     0.090000        1.0080           0
      8288 WT3      1022     MECN     H12      HGA3     0.090000        1.0080           0
      8289 WT3      1022     MECN     H13      HGA3     0.090000        1.0080           0
      8290 WT3      1022     MECN     C2       CG1N1    0.360000       12.0110           0
      8291 WT3      1022     MECN     N3       NG1T1   -0.460000       14.0070           0
      8292 WT3      1025     MECN     C1       CG331   -0.170000       12.0110           0
      8293 WT3      1025     MECN     H11      HGA3     0.090000        1.0080           0
      8294 WT3      1025     MECN     H12      HGA3     0.090000        1.0080           0
      8295 WT3      1025     MECN     H13      HGA3     0.090000        1.0080           0
      8296 WT3      1025     MECN     C2       CG1N1    0.360000       12.0110           0
      8297 WT3      1025     MECN     N3       NG1T1   -0.460000       14.0070           0
      8298 WT3      1026     MECN     C1       CG331   -0.170000       12.0110           0
      8299 WT3      1026     MECN     H11      HGA3     0.090000        1.0080           0
      8300 WT3      1026     MECN     H12      HGA3     0.090000        1.0080           0
      8301 WT3      1026     MECN     H13      HGA3     0.090000        1.0080           0
      8302 WT3      1026     MECN     C2       CG1N1    0.360000       12.0110           0
      8303 WT3      1026     MECN     N3       NG1T1   -0.460000       14.0070           0
      8304 WT3      1027     MECN     C1       CG331   -0.170000       12.0110           0
      8305 WT3      1027     MECN     H11      HGA3     0.090000        1.0080           0
      8306 WT3      1027     MECN     H12      HGA3     0.090000        1.0080           0
      8307 WT3      1027     MECN     H13      HGA3     0.090000        1.0080           0
      8308 WT3      1027     MECN     C2       CG1N1    0.360000       12.0110           0
      8309 WT3      1027     MECN     N3       NG1T1   -0.460000       14.0070           0
      8310 WT3      1038     MECN     C1       CG331   -0.170000       12.0110           0
      8311 WT3      1038     MECN     H11      HGA3     0.090000        1.0080           0
      8312 WT3      1038     MECN     H12      HGA3     0.090000        1.0080           0
      8313 WT3      1038     MECN     H13      HGA3     0.090000        1.0080           0
      8314 WT3      1038     MECN     C2       CG1N1    0.360000       12.0110           0
      8315 WT3      1038     MECN     N3       NG1T1   -0.460000       14.0070           0
      8316 WT3      1045     MECN     C1       CG331   -0.170000       12.0110           0
      8317 WT3      1045     MECN     H11      HGA3     0.090000        1.0080           0
      8318 WT3      1045     MECN     H12      HGA3     0.090000        1.0080           0
      8319 WT3      1045     MECN     H13      HGA3     0.090000        1.0080           0
      8320 WT3      1045     MECN     C2       CG1N1    0.360000       12.0110           0
      8321 WT3      1045     MECN     N3       NG1T1   -0.460000       14.0070           0
      8322 WT3      1054     MECN     C1       CG331   -0.170000       12.0110           0
      8323 WT3      1054     MECN     H11      HGA3     0.090000        1.0080           0
      8324 WT3      1054     MECN     H12      HGA3     0.090000        1.0080           0
      8325 WT3      1054     MECN     H13      HGA3     0.090000        1.0080           0
      8326 WT3      1054     MECN     C2       CG1N1    0.360000       12.0110           0
      8327 WT3      1054     MECN     N3       NG1T1   -0.460000       14.0070           0
      8328 WT3      1060     MECN     C1       CG331   -0.170000       12.0110           0
      8329 WT3      1060     MECN     H11      HGA3     0.090000        1.0080           0
      8330 WT3      1060     MECN     H12      HGA3     0.090000        1.0080           0
      8331 WT3      1060     MECN     H13      HGA3     0.090000        1.0080           0
      8332 WT3      1060     MECN     C2       CG1N1    0.360000       12.0110           0
      8333 WT3      1060     MECN     N3       NG1T1   -0.460000       14.0070           0
      8334 WT3      1073     MECN     C1       CG331   -0.170000       12.0110           0
      8335 WT3      1073     MECN     H11      HGA3     0.090000        1.0080           0
      8336 WT3      1073     MECN     H12      HGA3     0.090000        1.0080           0
      8337 WT3      1073     MECN     H13      HGA3     0.090000        1.0080           0
      8338 WT3      1073     MECN     C2       CG1N1    0.360000       12.0110           0
      8339 WT3      1073     MECN     N3       NG1T1   -0.460000       14.0070           0
      8340 WT3      1077     MECN     C1       CG331   -0.170000       12.0110           0
      8341 WT3      1077     MECN     H11      HGA3     0.090000        1.0080           0
      8342 WT3      1077     MECN     H12      HGA3     0.090000        1.0080           0
      8343 WT3      1077     MECN     H13      HGA3     0.090000        1.0080           0
      8344 WT3      1077     MECN     C2       CG1N1    0.360000       12.0110           0
      8345 WT3      1077     MECN     N3       NG1T1   -0.460000       14.0070           0
      8346 WT3      1088     MECN     C1       CG331   -0.170000       12.0110           0
      8347 WT3      1088     MECN     H11      HGA3     0.090000        1.0080           0
      8348 WT3      1088     MECN     H12      HGA3     0.090000        1.0080           0
      8349 WT3      1088     MECN     H13      HGA3     0.090000        1.0080           0
      8350 WT3      1088     MECN     C2       CG1N1    0.360000       12.0110           0
      8351 WT3      1088     MECN     N3       NG1T1   -0.460000       14.0070           0
      8352 WT3      1096     MECN     C1       CG331   -0.170000       12.0110           0
      8353 WT3      1096     MECN     H11      HGA3     0.090000        1.0080           0
      8354 WT3      1096     MECN     H12      HGA3     0.090000        1.0080           0
      8355 WT3      1096     MECN     H13      HGA3     0.090000        1.0080           0
      8356 WT3      1096     MECN     C2       CG1N1    0.360000       12.0110           0
      8357 WT3      1096     MECN     N3       NG1T1   -0.460000       14.0070           0
      8358 WT3      1099     MECN     C1       CG331   -0.170000       12.0110           0
      8359 WT3      1099     MECN     H11      HGA3     0.090000        1.0080           0
      8360 WT3      1099     MECN     H12      HGA3     0.090000        1.0080           0
      8361 WT3      1099     MECN     H13      HGA3     0.090000        1.0080           0
      8362 WT3      1099     MECN     C2       CG1N1    0.360000       12.0110           0
      8363 WT3      1099     MECN     N3       NG1T1   -0.460000       14.0070           0
      8364 WT3      1100     MECN     C1       CG331   -0.170000       12.0110           0
      8365 WT3      1100     MECN     H11      HGA3     0.090000        1.0080           0
      8366 WT3      1100     MECN     H12      HGA3     0.090000        1.0080           0
      8367 WT3      1100     MECN     H13      HGA3     0.090000        1.0080           0
      8368 WT3      1100     MECN     C2       CG1N1    0.360000       12.0110           0
      8369 WT3      1100     MECN     N3       NG1T1   -0.460000       14.0070           0
      8370 WT3      1101     MECN     C1       CG331   -0.170000       12.0110           0
      8371 WT3      1101     MECN     H11      HGA3     0.090000        1.0080           0
      8372 WT3      1101     MECN     H12      HGA3     0.090000        1.0080           0
      8373 WT3      1101     MECN     H13      HGA3     0.090000        1.0080           0
      8374 WT3      1101     MECN     C2       CG1N1    0.360000       12.0110           0
      8375 WT3      1101     MECN     N3       NG1T1   -0.460000       14.0070           0
      8376 WT3      1110     MECN     C1       CG331   -0.170000       12.0110           0
      8377 WT3      1110     MECN     H11      HGA3     0.090000        1.0080           0
      8378 WT3      1110     MECN     H12      HGA3     0.090000        1.0080           0
      8379 WT3      1110     MECN     H13      HGA3     0.090000        1.0080           0
      8380 WT3      1110     MECN     C2       CG1N1    0.360000       12.0110           0
      8381 WT3      1110     MECN     N3       NG1T1   -0.460000       14.0070           0
      8382 WT3      1121     MECN     C1       CG331   -0.170000       12.0110           0
      8383 WT3      1121     MECN     H11      HGA3     0.090000        1.0080           0
      8384 WT3      1121     MECN     H12      HGA3     0.090000        1.0080           0
      8385 WT3      1121     MECN     H13      HGA3     0.090000        1.0080           0
      8386 WT3      1121     MECN     C2       CG1N1    0.360000       12.0110           0
      8387 WT3      1121     MECN     N3       NG1T1   -0.460000       14.0070           0
      8388 WT3      1123     MECN     C1       CG331   -0.170000       12.0110           0
      8389 WT3      1123     MECN     H11      HGA3     0.090000        1.0080           0
      8390 WT3      1123     MECN     H12      HGA3     0.090000        1.0080           0
      8391 WT3      1123     MECN     H13      HGA3     0.090000        1.0080           0
      8392 WT3      1123     MECN     C2       CG1N1    0.360000       12.0110           0
      8393 WT3      1123     MECN     N3       NG1T1   -0.460000       14.0070           0
      8394 WT3      1129     MECN     C1       CG331   -0.170000       12.0110           0
      8395 WT3      1129     MECN     H11      HGA3     0.090000        1.0080           0
      8396 WT3      1129     MECN     H12      HGA3     0.090000        1.0080           0
      8397 WT3      1129     MECN     H13      HGA3     0.090000        1.0080           0
      8398 WT3      1129     MECN     C2       CG1N1    0.360000       12.0110           0
      8399 WT3      1129     MECN     N3       NG1T1   -0.460000       14.0070           0
      8400 WT3      1136     MECN     C1       CG331   -0.170000       12.0110           0
      8401 WT3      1136     MECN     H11      HGA3     0.090000        1.0080           0
      8402 WT3      1136     MECN     H12      HGA3     0.090000        1.0080           0
      8403 WT3      1136     MECN     H13      HGA3     0.090000        1.0080           0
      8404 WT3      1136     MECN     C2       CG1N1    0.360000       12.0110           0
      8405 WT3      1136     MECN     N3       NG1T1   -0.460000       14.0070           0
      8406 WT3      1141     MECN     C1       CG331   -0.170000       12.0110           0
      8407 WT3      1141     MECN     H11      HGA3     0.090000        1.0080           0
      8408 WT3      1141     MECN     H12      HGA3     0.090000        1.0080           0
      8409 WT3      1141     MECN     H13      HGA3     0.090000        1.0080           0
      8410 WT3      1141     MECN     C2       CG1N1    0.360000       12.0110           0
      8411 WT3      1141     MECN     N3       NG1T1   -0.460000       14.0070           0
      8412 WT3      1144     MECN     C1       CG331   -0.170000       12.0110           0
      8413 WT3      1144     MECN     H11      HGA3     0.090000        1.0080           0
      8414 WT3      1144     MECN     H12      HGA3     0.090000        1.0080           0
      8415 WT3      1144     MECN     H13      HGA3     0.090000        1.0080           0
      8416 WT3      1144     MECN     C2       CG1N1    0.360000       12.0110           0
      8417 WT3      1144     MECN     N3       NG1T1   -0.460000       14.0070           0
      8418 WT3      1153     MECN     C1       CG331   -0.170000       12.0110           0
      8419 WT3      1153     MECN     H11      HGA3     0.090000        1.0080           0
      8420 WT3      1153     MECN     H12      HGA3     0.090000        1.0080           0
      8421 WT3      1153     MECN     H13      HGA3     0.090000        1.0080           0
      8422 WT3      1153     MECN     C2       CG1N1    0.360000       12.0110           0
      8423 WT3      1153     MECN     N3       NG1T1   -0.460000       14.0070           0
      8424 WT3      1154     MECN     C1       CG331   -0.170000       12.0110           0
      8425 WT3      1154     MECN     H11      HGA3     0.090000        1.0080           0
      8426 WT3      1154     MECN     H12      HGA3     0.090000        1.0080           0
      8427 WT3      1154     MECN     H13      HGA3     0.090000        1.0080           0
      8428 WT3      1154     MECN     C2       CG1N1    0.360000       12.0110           0
      8429 WT3      1154     MECN     N3       NG1T1   -0.460000       14.0070           0
      8430 WT3      1169     MECN     C1       CG331   -0.170000       12.0110           0
      8431 WT3      1169     MECN     H11      HGA3     0.090000        1.0080           0
      8432 WT3      1169     MECN     H12      HGA3     0.090000        1.0080           0
      8433 WT3      1169     MECN     H13      HGA3     0.090000        1.0080           0
      8434 WT3      1169     MECN     C2       CG1N1    0.360000       12.0110           0
      8435 WT3      1169     MECN     N3       NG1T1   -0.460000       14.0070           0
      8436 WT3      1186     MECN     C1       CG331   -0.170000       12.0110           0
      8437 WT3      1186     MECN     H11      HGA3     0.090000        1.0080           0
      8438 WT3      1186     MECN     H12      HGA3     0.090000        1.0080           0
      8439 WT3      1186     MECN     H13      HGA3     0.090000        1.0080           0
      8440 WT3      1186     MECN     C2       CG1N1    0.360000       12.0110           0
      8441 WT3      1186     MECN     N3       NG1T1   -0.460000       14.0070           0
      8442 WT3      1187     MECN     C1       CG331   -0.170000       12.0110           0
      8443 WT3      1187     MECN     H11      HGA3     0.090000        1.0080           0
      8444 WT3      1187     MECN     H12      HGA3     0.090000        1.0080           0
      8445 WT3      1187     MECN     H13      HGA3     0.090000        1.0080           0
      8446 WT3      1187     MECN     C2       CG1N1    0.360000       12.0110           0
      8447 WT3      1187     MECN     N3       NG1T1   -0.460000       14.0070           0
      8448 WT3      1189     MECN     C1       CG331   -0.170000       12.0110           0
      8449 WT3      1189     MECN     H11      HGA3     0.090000        1.0080           0
      8450 WT3      1189     MECN     H12      HGA3     0.090000        1.0080           0
      8451 WT3      1189     MECN     H13      HGA3     0.090000        1.0080           0
      8452 WT3      1189     MECN     C2       CG1N1    0.360000       12.0110           0
      8453 WT3      1189     MECN     N3       NG1T1   -0.460000       14.0070           0
      8454 WT3      1192     MECN     C1       CG331   -0.170000       12.0110           0
      8455 WT3      1192     MECN     H11      HGA3     0.090000        1.0080           0
      8456 WT3      1192     MECN     H12      HGA3     0.090000        1.0080           0
      8457 WT3      1192     MECN     H13      HGA3     0.090000        1.0080           0
      8458 WT3      1192     MECN     C2       CG1N1    0.360000       12.0110           0
      8459 WT3      1192     MECN     N3       NG1T1   -0.460000       14.0070           0
      8460 WT3      1194     MECN     C1       CG331   -0.170000       12.0110           0
      8461 WT3      1194     MECN     H11      HGA3     0.090000        1.0080           0
      8462 WT3      1194     MECN     H12      HGA3     0.090000        1.0080           0
      8463 WT3      1194     MECN     H13      HGA3     0.090000        1.0080           0
      8464 WT3      1194     MECN     C2       CG1N1    0.360000       12.0110           0
      8465 WT3      1194     MECN     N3       NG1T1   -0.460000       14.0070           0
      8466 WT3      1198     MECN     C1       CG331   -0.170000       12.0110           0
      8467 WT3      1198     MECN     H11      HGA3     0.090000        1.0080           0
      8468 WT3      1198     MECN     H12      HGA3     0.090000        1.0080           0
      8469 WT3      1198     MECN     H13      HGA3     0.090000        1.0080           0
      8470 WT3      1198     MECN     C2       CG1N1    0.360000       12.0110           0
      8471 WT3      1198     MECN     N3       NG1T1   -0.460000       14.0070           0
      8472 WT3      1201     MECN     C1       CG331   -0.170000       12.0110           0
      8473 WT3      1201     MECN     H11      HGA3     0.090000        1.0080           0
      8474 WT3      1201     MECN     H12      HGA3     0.090000        1.0080           0
      8475 WT3      1201     MECN     H13      HGA3     0.090000        1.0080           0
      8476 WT3      1201     MECN     C2       CG1N1    0.360000       12.0110           0
      8477 WT3      1201     MECN     N3       NG1T1   -0.460000       14.0070           0
      8478 WT3      1207     MECN     C1       CG331   -0.170000       12.0110           0
      8479 WT3      1207     MECN     H11      HGA3     0.090000        1.0080           0
      8480 WT3      1207     MECN     H12      HGA3     0.090000        1.0080           0
      8481 WT3      1207     MECN     H13      HGA3     0.090000        1.0080           0
      8482 WT3      1207     MECN     C2       CG1N1    0.360000       12.0110           0
      8483 WT3      1207     MECN     N3       NG1T1   -0.460000       14.0070           0
      8484 WT3      1212     MECN     C1       CG331   -0.170000       12.0110           0
      8485 WT3      1212     MECN     H11      HGA3     0.090000        1.0080           0
      8486 WT3      1212     MECN     H12      HGA3     0.090000        1.0080           0
      8487 WT3      1212     MECN     H13      HGA3     0.090000        1.0080           0
      8488 WT3      1212     MECN     C2       CG1N1    0.360000       12.0110           0
      8489 WT3      1212     MECN     N3       NG1T1   -0.460000       14.0070           0
      8490 WT3      1214     MECN     C1       CG331   -0.170000       12.0110           0
      8491 WT3      1214     MECN     H11      HGA3     0.090000        1.0080           0
      8492 WT3      1214     MECN     H12      HGA3     0.090000        1.0080           0
      8493 WT3      1214     MECN     H13      HGA3     0.090000        1.0080           0
      8494 WT3      1214     MECN     C2       CG1N1    0.360000       12.0110           0
      8495 WT3      1214     MECN     N3       NG1T1   -0.460000       14.0070           0
      8496 WT3      1215     MECN     C1       CG331   -0.170000       12.0110           0
      8497 WT3      1215     MECN     H11      HGA3     0.090000        1.0080           0
      8498 WT3      1215     MECN     H12      HGA3     0.090000        1.0080           0
      8499 WT3      1215     MECN     H13      HGA3     0.090000        1.0080           0
      8500 WT3      1215     MECN     C2       CG1N1    0.360000       12.0110           0
      8501 WT3      1215     MECN     N3       NG1T1   -0.460000       14.0070           0
      8502 WT3      1228     MECN     C1       CG331   -0.170000       12.0110           0
      8503 WT3      1228     MECN     H11      HGA3     0.090000        1.0080           0
      8504 WT3      1228     MECN     H12      HGA3     0.090000        1.0080           0
      8505 WT3      1228     MECN     H13      HGA3     0.090000        1.0080           0
      8506 WT3      1228     MECN     C2       CG1N1    0.360000       12.0110           0
      8507 WT3      1228     MECN     N3       NG1T1   -0.460000       14.0070           0
      8508 WT3      1233     MECN     C1       CG331   -0.170000       12.0110           0
      8509 WT3      1233     MECN     H11      HGA3     0.090000        1.0080           0
      8510 WT3      1233     MECN     H12      HGA3     0.090000        1.0080           0
      8511 WT3      1233     MECN     H13      HGA3     0.090000        1.0080           0
      8512 WT3      1233     MECN     C2       CG1N1    0.360000       12.0110           0
      8513 WT3      1233     MECN     N3       NG1T1   -0.460000       14.0070           0
      8514 WT3      1236     MECN     C1       CG331   -0.170000       12.0110           0
      8515 WT3      1236     MECN     H11      HGA3     0.090000        1.0080           0
      8516 WT3      1236     MECN     H12      HGA3     0.090000        1.0080           0
      8517 WT3      1236     MECN     H13      HGA3     0.090000        1.0080           0
      8518 WT3      1236     MECN     C2       CG1N1    0.360000       12.0110           0
      8519 WT3      1236     MECN     N3       NG1T1   -0.460000       14.0070           0
      8520 WT3      1242     MECN     C1       CG331   -0.170000       12.0110           0
      8521 WT3      1242     MECN     H11      HGA3     0.090000        1.0080           0
      8522 WT3      1242     MECN     H12      HGA3     0.090000        1.0080           0
      8523 WT3      1242     MECN     H13      HGA3     0.090000        1.0080           0
      8524 WT3      1242     MECN     C2       CG1N1    0.360000       12.0110           0
      8525 WT3      1242     MECN     N3       NG1T1   -0.460000       14.0070           0
      8526 WT3      1245     MECN     C1       CG331   -0.170000       12.0110           0
      8527 WT3      1245     MECN     H11      HGA3     0.090000        1.0080           0
      8528 WT3      1245     MECN     H12      HGA3     0.090000        1.0080           0
      8529 WT3      1245     MECN     H13      HGA3     0.090000        1.0080           0
      8530 WT3      1245     MECN     C2       CG1N1    0.360000       12.0110           0
      8531 WT3      1245     MECN     N3       NG1T1   -0.460000       14.0070           0
      8532 WT3      1246     MECN     C1       CG331   -0.170000       12.0110           0
      8533 WT3      1246     MECN     H11      HGA3     0.090000        1.0080           0
      8534 WT3      1246     MECN     H12      HGA3     0.090000        1.0080           0
      8535 WT3      1246     MECN     H13      HGA3     0.090000        1.0080           0
      8536 WT3      1246     MECN     C2       CG1N1    0.360000       12.0110           0
      8537 WT3      1246     MECN     N3       NG1T1   -0.460000       14.0070           0
      8538 WT3      1266     MECN     C1       CG331   -0.170000       12.0110           0
      8539 WT3      1266     MECN     H11      HGA3     0.090000        1.0080           0
      8540 WT3      1266     MECN     H12      HGA3     0.090000        1.0080           0
      8541 WT3      1266     MECN     H13      HGA3     0.090000        1.0080           0
      8542 WT3      1266     MECN     C2       CG1N1    0.360000       12.0110           0
      8543 WT3      1266     MECN     N3       NG1T1   -0.460000       14.0070           0
      8544 WT3      1275     MECN     C1       CG331   -0.170000       12.0110           0
      8545 WT3      1275     MECN     H11      HGA3     0.090000        1.0080           0
      8546 WT3      1275     MECN     H12      HGA3     0.090000        1.0080           0
      8547 WT3      1275     MECN     H13      HGA3     0.090000        1.0080           0
      8548 WT3      1275     MECN     C2       CG1N1    0.360000       12.0110           0
      8549 WT3      1275     MECN     N3       NG1T1   -0.460000       14.0070           0
      8550 WT3      1278     MECN     C1       CG331   -0.170000       12.0110           0
      8551 WT3      1278     MECN     H11      HGA3     0.090000        1.0080           0
      8552 WT3      1278     MECN     H12      HGA3     0.090000        1.0080           0
      8553 WT3      1278     MECN     H13      HGA3     0.090000        1.0080           0
      8554 WT3      1278     MECN     C2       CG1N1    0.360000       12.0110           0
      8555 WT3      1278     MECN     N3       NG1T1   -0.460000       14.0070           0
      8556 WT3      1279     MECN     C1       CG331   -0.170000       12.0110           0
      8557 WT3      1279     MECN     H11      HGA3     0.090000        1.0080           0
      8558 WT3      1279     MECN     H12      HGA3     0.090000        1.0080           0
      8559 WT3      1279     MECN     H13      HGA3     0.090000        1.0080           0
      8560 WT3      1279     MECN     C2       CG1N1    0.360000       12.0110           0
      8561 WT3      1279     MECN     N3       NG1T1   -0.460000       14.0070           0
      8562 WT3      1282     MECN     C1       CG331   -0.170000       12.0110           0
      8563 WT3      1282     MECN     H11      HGA3     0.090000        1.0080           0
      8564 WT3      1282     MECN     H12      HGA3     0.090000        1.0080           0
      8565 WT3      1282     MECN     H13      HGA3     0.090000        1.0080           0
      8566 WT3      1282     MECN     C2       CG1N1    0.360000       12.0110           0
      8567 WT3      1282     MECN     N3       NG1T1   -0.460000       14.0070           0
      8568 WT3      1285     MECN     C1       CG331   -0.170000       12.0110           0
      8569 WT3      1285     MECN     H11      HGA3     0.090000        1.0080           0
      8570 WT3      1285     MECN     H12      HGA3     0.090000        1.0080           0
      8571 WT3      1285     MECN     H13      HGA3     0.090000        1.0080           0
      8572 WT3      1285     MECN     C2       CG1N1    0.360000       12.0110           0
      8573 WT3      1285     MECN     N3       NG1T1   -0.460000       14.0070           0
      8574 WT3      1296     MECN     C1       CG331   -0.170000       12.0110           0
      8575 WT3      1296     MECN     H11      HGA3     0.090000        1.0080           0
      8576 WT3      1296     MECN     H12      HGA3     0.090000        1.0080           0
      8577 WT3      1296     MECN     H13      HGA3     0.090000        1.0080           0
      8578 WT3      1296     MECN     C2       CG1N1    0.360000       12.0110           0
      8579 WT3      1296     MECN     N3       NG1T1   -0.460000       14.0070           0
      8580 WT3      1312     MECN     C1       CG331   -0.170000       12.0110           0
      8581 WT3      1312     MECN     H11      HGA3     0.090000        1.0080           0
      8582 WT3      1312     MECN     H12      HGA3     0.090000        1.0080           0
      8583 WT3      1312     MECN     H13      HGA3     0.090000        1.0080           0
      8584 WT3      1312     MECN     C2       CG1N1    0.360000       12.0110           0
      8585 WT3      1312     MECN     N3       NG1T1   -0.460000       14.0070           0
      8586 WT3      1320     MECN     C1       CG331   -0.170000       12.0110           0
      8587 WT3      1320     MECN     H11      HGA3     0.090000        1.0080           0
      8588 WT3      1320     MECN     H12      HGA3     0.090000        1.0080           0
      8589 WT3      1320     MECN     H13      HGA3     0.090000        1.0080           0
      8590 WT3      1320     MECN     C2       CG1N1    0.360000       12.0110           0
      8591 WT3      1320     MECN     N3       NG1T1   -0.460000       14.0070           0
      8592 WT3      1321     MECN     C1       CG331   -0.170000       12.0110           0
      8593 WT3      1321     MECN     H11      HGA3     0.090000        1.0080           0
      8594 WT3      1321     MECN     H12      HGA3     0.090000        1.0080           0
      8595 WT3      1321     MECN     H13      HGA3     0.090000        1.0080           0
      8596 WT3      1321     MECN     C2       CG1N1    0.360000       12.0110           0
      8597 WT3      1321     MECN     N3       NG1T1   -0.460000       14.0070           0
      8598 WT3      1322     MECN     C1       CG331   -0.170000       12.0110           0
      8599 WT3      1322     MECN     H11      HGA3     0.090000        1.0080           0
      8600 WT3      1322     MECN     H12      HGA3     0.090000        1.0080           0
      8601 WT3      1322     MECN     H13      HGA3     0.090000        1.0080           0
      8602 WT3      1322     MECN     C2       CG1N1    0.360000       12.0110           0
      8603 WT3      1322     MECN     N3       NG1T1   -0.460000       14.0070           0
      8604 WT3      1323     MECN     C1       CG331   -0.170000       12.0110           0
      8605 WT3      1323     MECN     H11      HGA3     0.090000        1.0080           0
      8606 WT3      1323     MECN     H12      HGA3     0.090000        1.0080           0
      8607 WT3      1323     MECN     H13      HGA3     0.090000        1.0080           0
      8608 WT3      1323     MECN     C2       CG1N1    0.360000       12.0110           0
      8609 WT3      1323     MECN     N3       NG1T1   -0.460000       14.0070           0
      8610 WT3      1330     MECN     C1       CG331   -0.170000       12.0110           0
      8611 WT3      1330     MECN     H11      HGA3     0.090000        1.0080           0
      8612 WT3      1330     MECN     H12      HGA3     0.090000        1.0080           0
      8613 WT3      1330     MECN     H13      HGA3     0.090000        1.0080           0
      8614 WT3      1330     MECN     C2       CG1N1    0.360000       12.0110           0
      8615 WT3      1330     MECN     N3       NG1T1   -0.460000       14.0070           0
      8616 WT4      1        MECN     C1       CG331   -0.170000       12.0110           0
      8617 WT4      1        MECN     H11      HGA3     0.090000        1.0080           0
      8618 WT4      1        MECN     H12      HGA3     0.090000        1.0080           0
      8619 WT4      1        MECN     H13      HGA3     0.090000        1.0080           0
      8620 WT4      1        MECN     C2       CG1N1    0.360000       12.0110           0
      8621 WT4      1        MECN     N3       NG1T1   -0.460000       14.0070           0
      8622 WT4      4        MECN     C1       CG331   -0.170000       12.0110           0
      8623 WT4      4        MECN     H11      HGA3     0.090000        1.0080           0
      8624 WT4      4        MECN     H12      HGA3     0.090000        1.0080           0
      8625 WT4      4        MECN     H13      HGA3     0.090000        1.0080           0
      8626 WT4      4        MECN     C2       CG1N1    0.360000       12.0110           0
      8627 WT4      4        MECN     N3       NG1T1   -0.460000       14.0070           0
      8628 WT4      9        MECN     C1       CG331   -0.170000       12.0110           0
      8629 WT4      9        MECN     H11      HGA3     0.090000        1.0080           0
      8630 WT4      9        MECN     H12      HGA3     0.090000        1.0080           0
      8631 WT4      9        MECN     H13      HGA3     0.090000        1.0080           0
      8632 WT4      9        MECN     C2       CG1N1    0.360000       12.0110           0
      8633 WT4      9        MECN     N3       NG1T1   -0.460000       14.0070           0
      8634 WT4      16       MECN     C1       CG331   -0.170000       12.0110           0
      8635 WT4      16       MECN     H11      HGA3     0.090000        1.0080           0
      8636 WT4      16       MECN     H12      HGA3     0.090000        1.0080           0
      8637 WT4      16       MECN     H13      HGA3     0.090000        1.0080           0
      8638 WT4      16       MECN     C2       CG1N1    0.360000       12.0110           0
      8639 WT4      16       MECN     N3       NG1T1   -0.460000       14.0070           0
      8640 WT4      17       MECN     C1       CG331   -0.170000       12.0110           0
      8641 WT4      17       MECN     H11      HGA3     0.090000        1.0080           0
      8642 WT4      17       MECN     H12      HGA3     0.090000        1.0080           0
      8643 WT4      17       MECN     H13      HGA3     0.090000        1.0080           0
      8644 WT4      17       MECN     C2       CG1N1    0.360000       12.0110           0
      8645 WT4      17       MECN     N3       NG1T1   -0.460000       14.0070           0
      8646 WT4      31       MECN     C1       CG331   -0.170000       12.0110           0
      8647 WT4      31       MECN     H11      HGA3     0.090000        1.0080           0
      8648 WT4      31       MECN     H12      HGA3     0.090000        1.0080           0
      8649 WT4      31       MECN     H13      HGA3     0.090000        1.0080           0
      8650 WT4      31       MECN     C2       CG1N1    0.360000       12.0110           0
      8651 WT4      31       MECN     N3       NG1T1   -0.460000       14.0070           0
      8652 WT4      33       MECN     C1       CG331   -0.170000       12.0110           0
      8653 WT4      33       MECN     H11      HGA3     0.090000        1.0080           0
      8654 WT4      33       MECN     H12      HGA3     0.090000        1.0080           0
      8655 WT4      33       MECN     H13      HGA3     0.090000        1.0080           0
      8656 WT4      33       MECN     C2       CG1N1    0.360000       12.0110           0
      8657 WT4      33       MECN     N3       NG1T1   -0.460000       14.0070           0
      8658 WT4      34       MECN     C1       CG331   -0.170000       12.0110           0
      8659 WT4      34       MECN     H11      HGA3     0.090000        1.0080           0
      8660 WT4      34       MECN     H12      HGA3     0.090000        1.0080           0
      8661 WT4      34       MECN     H13      HGA3     0.090000        1.0080           0
      8662 WT4      34       MECN     C2       CG1N1    0.360000       12.0110           0
      8663 WT4      34       MECN     N3       NG1T1   -0.460000       14.0070           0
      8664 WT4      36       MECN     C1       CG331   -0.170000       12.0110           0
      8665 WT4      36       MECN     H11      HGA3     0.090000        1.0080           0
      8666 WT4      36       MECN     H12      HGA3     0.090000        1.0080           0
      8667 WT4      36       MECN     H13      HGA3     0.090000        1.0080           0
      8668 WT4      36       MECN     C2       CG1N1    0.360000       12.0110           0
      8669 WT4      36       MECN     N3       NG1T1   -0.460000       14.0070           0
      8670 WT4      37       MECN     C1       CG331   -0.170000       12.0110           0
      8671 WT4      37       MECN     H11      HGA3     0.090000        1.0080           0
      8672 WT4      37       MECN     H12      HGA3     0.090000        1.0080           0
      8673 WT4      37       MECN     H13      HGA3     0.090000        1.0080           0
      8674 WT4      37       MECN     C2       CG1N1    0.360000       12.0110           0
      8675 WT4      37       MECN     N3       NG1T1   -0.460000       14.0070           0
      8676 WT4      42       MECN     C1       CG331   -0.170000       12.0110           0
      8677 WT4      42       MECN     H11      HGA3     0.090000        1.0080           0
      8678 WT4      42       MECN     H12      HGA3     0.090000        1.0080           0
      8679 WT4      42       MECN     H13      HGA3     0.090000        1.0080           0
      8680 WT4      42       MECN     C2       CG1N1    0.360000       12.0110           0
      8681 WT4      42       MECN     N3       NG1T1   -0.460000       14.0070           0
      8682 WT4      46       MECN     C1       CG331   -0.170000       12.0110           0
      8683 WT4      46       MECN     H11      HGA3     0.090000        1.0080           0
      8684 WT4      46       MECN     H12      HGA3     0.090000        1.0080           0
      8685 WT4      46       MECN     H13      HGA3     0.090000        1.0080           0
      8686 WT4      46       MECN     C2       CG1N1    0.360000       12.0110           0
      8687 WT4      46       MECN     N3       NG1T1   -0.460000       14.0070           0
      8688 WT4      50       MECN     C1       CG331   -0.170000       12.0110           0
      8689 WT4      50       MECN     H11      HGA3     0.090000        1.0080           0
      8690 WT4      50       MECN     H12      HGA3     0.090000        1.0080           0
      8691 WT4      50       MECN     H13      HGA3     0.090000        1.0080           0
      8692 WT4      50       MECN     C2       CG1N1    0.360000       12.0110           0
      8693 WT4      50       MECN     N3       NG1T1   -0.460000       14.0070           0
      8694 WT4      54       MECN     C1       CG331   -0.170000       12.0110           0
      8695 WT4      54       MECN     H11      HGA3     0.090000        1.0080           0
      8696 WT4      54       MECN     H12      HGA3     0.090000        1.0080           0
      8697 WT4      54       MECN     H13      HGA3     0.090000        1.0080           0
      8698 WT4      54       MECN     C2       CG1N1    0.360000       12.0110           0
      8699 WT4      54       MECN     N3       NG1T1   -0.460000       14.0070           0
      8700 WT4      58       MECN     C1       CG331   -0.170000       12.0110           0
      8701 WT4      58       MECN     H11      HGA3     0.090000        1.0080           0
      8702 WT4      58       MECN     H12      HGA3     0.090000        1.0080           0
      8703 WT4      58       MECN     H13      HGA3     0.090000        1.0080           0
      8704 WT4      58       MECN     C2       CG1N1    0.360000       12.0110           0
      8705 WT4      58       MECN     N3       NG1T1   -0.460000       14.0070           0
      8706 WT4      71       MECN     C1       CG331   -0.170000       12.0110           0
      8707 WT4      71       MECN     H11      HGA3     0.090000        1.0080           0
      8708 WT4      71       MECN     H12      HGA3     0.090000        1.0080           0
      8709 WT4      71       MECN     H13      HGA3     0.090000        1.0080           0
      8710 WT4      71       MECN     C2       CG1N1    0.360000       12.0110           0
      8711 WT4      71       MECN     N3       NG1T1   -0.460000       14.0070           0
      8712 WT4      73       MECN     C1       CG331   -0.170000       12.0110           0
      8713 WT4      73       MECN     H11      HGA3     0.090000        1.0080           0
      8714 WT4      73       MECN     H12      HGA3     0.090000        1.0080           0
      8715 WT4      73       MECN     H13      HGA3     0.090000        1.0080           0
      8716 WT4      73       MECN     C2       CG1N1    0.360000       12.0110           0
      8717 WT4      73       MECN     N3       NG1T1   -0.460000       14.0070           0
      8718 WT4      76       MECN     C1       CG331   -0.170000       12.0110           0
      8719 WT4      76       MECN     H11      HGA3     0.090000        1.0080           0
      8720 WT4      76       MECN     H12      HGA3     0.090000        1.0080           0
      8721 WT4      76       MECN     H13      HGA3     0.090000        1.0080           0
      8722 WT4      76       MECN     C2       CG1N1    0.360000       12.0110           0
      8723 WT4      76       MECN     N3       NG1T1   -0.460000       14.0070           0
      8724 WT4      79       MECN     C1       CG331   -0.170000       12.0110           0
      8725 WT4      79       MECN     H11      HGA3     0.090000        1.0080           0
      8726 WT4      79       MECN     H12      HGA3     0.090000        1.0080           0
      8727 WT4      79       MECN     H13      HGA3     0.090000        1.0080           0
      8728 WT4      79       MECN     C2       CG1N1    0.360000       12.0110           0
      8729 WT4      79       MECN     N3       NG1T1   -0.460000       14.0070           0
      8730 WT4      81       MECN     C1       CG331   -0.170000       12.0110           0
      8731 WT4      81       MECN     H11      HGA3     0.090000        1.0080           0
      8732 WT4      81       MECN     H12      HGA3     0.090000        1.0080           0
      8733 WT4      81       MECN     H13      HGA3     0.090000        1.0080           0
      8734 WT4      81       MECN     C2       CG1N1    0.360000       12.0110           0
      8735 WT4      81       MECN     N3       NG1T1   -0.460000       14.0070           0
      8736 WT4      84       MECN     C1       CG331   -0.170000       12.0110           0
      8737 WT4      84       MECN     H11      HGA3     0.090000        1.0080           0
      8738 WT4      84       MECN     H12      HGA3     0.090000        1.0080           0
      8739 WT4      84       MECN     H13      HGA3     0.090000        1.0080           0
      8740 WT4      84       MECN     C2       CG1N1    0.360000       12.0110           0
      8741 WT4      84       MECN     N3       NG1T1   -0.460000       14.0070           0
      8742 WT4      86       MECN     C1       CG331   -0.170000       12.0110           0
      8743 WT4      86       MECN     H11      HGA3     0.090000        1.0080           0
      8744 WT4      86       MECN     H12      HGA3     0.090000        1.0080           0
      8745 WT4      86       MECN     H13      HGA3     0.090000        1.0080           0
      8746 WT4      86       MECN     C2       CG1N1    0.360000       12.0110           0
      8747 WT4      86       MECN     N3       NG1T1   -0.460000       14.0070           0
      8748 WT4      91       MECN     C1       CG331   -0.170000       12.0110           0
      8749 WT4      91       MECN     H11      HGA3     0.090000        1.0080           0
      8750 WT4      91       MECN     H12      HGA3     0.090000        1.0080           0
      8751 WT4      91       MECN     H13      HGA3     0.090000        1.0080           0
      8752 WT4      91       MECN     C2       CG1N1    0.360000       12.0110           0
      8753 WT4      91       MECN     N3       NG1T1   -0.460000       14.0070           0
      8754 WT4      94       MECN     C1       CG331   -0.170000       12.0110           0
      8755 WT4      94       MECN     H11      HGA3     0.090000        1.0080           0
      8756 WT4      94       MECN     H12      HGA3     0.090000        1.0080           0
      8757 WT4      94       MECN     H13      HGA3     0.090000        1.0080           0
      8758 WT4      94       MECN     C2       CG1N1    0.360000       12.0110           0
      8759 WT4      94       MECN     N3       NG1T1   -0.460000       14.0070           0
      8760 WT4      101      MECN     C1       CG331   -0.170000       12.0110           0
      8761 WT4      101      MECN     H11      HGA3     0.090000        1.0080           0
      8762 WT4      101      MECN     H12      HGA3     0.090000        1.0080           0
      8763 WT4      101      MECN     H13      HGA3     0.090000        1.0080           0
      8764 WT4      101      MECN     C2       CG1N1    0.360000       12.0110           0
      8765 WT4      101      MECN     N3       NG1T1   -0.460000       14.0070           0
      8766 WT4      102      MECN     C1       CG331   -0.170000       12.0110           0
      8767 WT4      102      MECN     H11      HGA3     0.090000        1.0080           0
      8768 WT4      102      MECN     H12      HGA3     0.090000        1.0080           0
      8769 WT4      102      MECN     H13      HGA3     0.090000        1.0080           0
      8770 WT4      102      MECN     C2       CG1N1    0.360000       12.0110           0
      8771 WT4      102      MECN     N3       NG1T1   -0.460000       14.0070           0
      8772 WT4      105      MECN     C1       CG331   -0.170000       12.0110           0
      8773 WT4      105      MECN     H11      HGA3     0.090000        1.0080           0
      8774 WT4      105      MECN     H12      HGA3     0.090000        1.0080           0
      8775 WT4      105      MECN     H13      HGA3     0.090000        1.0080           0
      8776 WT4      105      MECN     C2       CG1N1    0.360000       12.0110           0
      8777 WT4      105      MECN     N3       NG1T1   -0.460000       14.0070           0
      8778 WT4      112      MECN     C1       CG331   -0.170000       12.0110           0
      8779 WT4      112      MECN     H11      HGA3     0.090000        1.0080           0
      8780 WT4      112      MECN     H12      HGA3     0.090000        1.0080           0
      8781 WT4      112      MECN     H13      HGA3     0.090000        1.0080           0
      8782 WT4      112      MECN     C2       CG1N1    0.360000       12.0110           0
      8783 WT4      112      MECN     N3       NG1T1   -0.460000       14.0070           0
      8784 WT4      120      MECN     C1       CG331   -0.170000       12.0110           0
      8785 WT4      120      MECN     H11      HGA3     0.090000        1.0080           0
      8786 WT4      120      MECN     H12      HGA3     0.090000        1.0080           0
      8787 WT4      120      MECN     H13      HGA3     0.090000        1.0080           0
      8788 WT4      120      MECN     C2       CG1N1    0.360000       12.0110           0
      8789 WT4      120      MECN     N3       NG1T1   -0.460000       14.0070           0
      8790 WT4      149      MECN     C1       CG331   -0.170000       12.0110           0
      8791 WT4      149      MECN     H11      HGA3     0.090000        1.0080           0
      8792 WT4      149      MECN     H12      HGA3     0.090000        1.0080           0
      8793 WT4      149      MECN     H13      HGA3     0.090000        1.0080           0
      8794 WT4      149      MECN     C2       CG1N1    0.360000       12.0110           0
      8795 WT4      149      MECN     N3       NG1T1   -0.460000       14.0070           0
      8796 WT4      158      MECN     C1       CG331   -0.170000       12.0110           0
      8797 WT4      158      MECN     H11      HGA3     0.090000        1.0080           0
      8798 WT4      158      MECN     H12      HGA3     0.090000        1.0080           0
      8799 WT4      158      MECN     H13      HGA3     0.090000        1.0080           0
      8800 WT4      158      MECN     C2       CG1N1    0.360000       12.0110           0
      8801 WT4      158      MECN     N3       NG1T1   -0.460000       14.0070           0
      8802 WT4      161      MECN     C1       CG331   -0.170000       12.0110           0
      8803 WT4      161      MECN     H11      HGA3     0.090000        1.0080           0
      8804 WT4      161      MECN     H12      HGA3     0.090000        1.0080           0
      8805 WT4      161      MECN     H13      HGA3     0.090000        1.0080           0
      8806 WT4      161      MECN     C2       CG1N1    0.360000       12.0110           0
      8807 WT4      161      MECN     N3       NG1T1   -0.460000       14.0070           0
      8808 WT4      171      MECN     C1       CG331   -0.170000       12.0110           0
      8809 WT4      171      MECN     H11      HGA3     0.090000        1.0080           0
      8810 WT4      171      MECN     H12      HGA3     0.090000        1.0080           0
      8811 WT4      171      MECN     H13      HGA3     0.090000        1.0080           0
      8812 WT4      171      MECN     C2       CG1N1    0.360000       12.0110           0
      8813 WT4      171      MECN     N3       NG1T1   -0.460000       14.0070           0
      8814 WT4      176      MECN     C1       CG331   -0.170000       12.0110           0
      8815 WT4      176      MECN     H11      HGA3     0.090000        1.0080           0
      8816 WT4      176      MECN     H12      HGA3     0.090000        1.0080           0
      8817 WT4      176      MECN     H13      HGA3     0.090000        1.0080           0
      8818 WT4      176      MECN     C2       CG1N1    0.360000       12.0110           0
      8819 WT4      176      MECN     N3       NG1T1   -0.460000       14.0070           0
      8820 WT4      177      MECN     C1       CG331   -0.170000       12.0110           0
      8821 WT4      177      MECN     H11      HGA3     0.090000        1.0080           0
      8822 WT4      177      MECN     H12      HGA3     0.090000        1.0080           0
      8823 WT4      177      MECN     H13      HGA3     0.090000        1.0080           0
      8824 WT4      177      MECN     C2       CG1N1    0.360000       12.0110           0
      8825 WT4      177      MECN     N3       NG1T1   -0.460000       14.0070           0
      8826 WT4      183      MECN     C1       CG331   -0.170000       12.0110           0
      8827 WT4      183      MECN     H11      HGA3     0.090000        1.0080           0
      8828 WT4      183      MECN     H12      HGA3     0.090000        1.0080           0
      8829 WT4      183      MECN     H13      HGA3     0.090000        1.0080           0
      8830 WT4      183      MECN     C2       CG1N1    0.360000       12.0110           0
      8831 WT4      183      MECN     N3       NG1T1   -0.460000       14.0070           0
      8832 WT4      185      MECN     C1       CG331   -0.170000       12.0110           0
      8833 WT4      185      MECN     H11      HGA3     0.090000        1.0080           0
      8834 WT4      185      MECN     H12      HGA3     0.090000        1.0080           0
      8835 WT4      185      MECN     H13      HGA3     0.090000        1.0080           0
      8836 WT4      185      MECN     C2       CG1N1    0.360000       12.0110           0
      8837 WT4      185      MECN     N3       NG1T1   -0.460000       14.0070           0
      8838 WT4      193      MECN     C1       CG331   -0.170000       12.0110           0
      8839 WT4      193      MECN     H11      HGA3     0.090000        1.0080           0
      8840 WT4      193      MECN     H12      HGA3     0.090000        1.0080           0
      8841 WT4      193      MECN     H13      HGA3     0.090000        1.0080           0
      8842 WT4      193      MECN     C2       CG1N1    0.360000       12.0110           0
      8843 WT4      193      MECN     N3       NG1T1   -0.460000       14.0070           0
      8844 WT4      195      MECN     C1       CG331   -0.170000       12.0110           0
      8845 WT4      195      MECN     H11      HGA3     0.090000        1.0080           0
      8846 WT4      195      MECN     H12      HGA3     0.090000        1.0080           0
      8847 WT4      195      MECN     H13      HGA3     0.090000        1.0080           0
      8848 WT4      195      MECN     C2       CG1N1    0.360000       12.0110           0
      8849 WT4      195      MECN     N3       NG1T1   -0.460000       14.0070           0
      8850 WT4      197      MECN     C1       CG331   -0.170000       12.0110           0
      8851 WT4      197      MECN     H11      HGA3     0.090000        1.0080           0
      8852 WT4      197      MECN     H12      HGA3     0.090000        1.0080           0
      8853 WT4      197      MECN     H13      HGA3     0.090000        1.0080           0
      8854 WT4      197      MECN     C2       CG1N1    0.360000       12.0110           0
      8855 WT4      197      MECN     N3       NG1T1   -0.460000       14.0070           0
      8856 WT4      200      MECN     C1       CG331   -0.170000       12.0110           0
      8857 WT4      200      MECN     H11      HGA3     0.090000        1.0080           0
      8858 WT4      200      MECN     H12      HGA3     0.090000        1.0080           0
      8859 WT4      200      MECN     H13      HGA3     0.090000        1.0080           0
      8860 WT4      200      MECN     C2       CG1N1    0.360000       12.0110           0
      8861 WT4      200      MECN     N3       NG1T1   -0.460000       14.0070           0
      8862 WT4      209      MECN     C1       CG331   -0.170000       12.0110           0
      8863 WT4      209      MECN     H11      HGA3     0.090000        1.0080           0
      8864 WT4      209      MECN     H12      HGA3     0.090000        1.0080           0
      8865 WT4      209      MECN     H13      HGA3     0.090000        1.0080           0
      8866 WT4      209      MECN     C2       CG1N1    0.360000       12.0110           0
      8867 WT4      209      MECN     N3       NG1T1   -0.460000       14.0070           0
      8868 WT4      210      MECN     C1       CG331   -0.170000       12.0110           0
      8869 WT4      210      MECN     H11      HGA3     0.090000        1.0080           0
      8870 WT4      210      MECN     H12      HGA3     0.090000        1.0080           0
      8871 WT4      210      MECN     H13      HGA3     0.090000        1.0080           0
      8872 WT4      210      MECN     C2       CG1N1    0.360000       12.0110           0
      8873 WT4      210      MECN     N3       NG1T1   -0.460000       14.0070           0
      8874 WT4      211      MECN     C1       CG331   -0.170000       12.0110           0
      8875 WT4      211      MECN     H11      HGA3     0.090000        1.0080           0
      8876 WT4      211      MECN     H12      HGA3     0.090000        1.0080           0
      8877 WT4      211      MECN     H13      HGA3     0.090000        1.0080           0
      8878 WT4      211      MECN     C2       CG1N1    0.360000       12.0110           0
      8879 WT4      211      MECN     N3       NG1T1   -0.460000       14.0070           0
      8880 WT4      213      MECN     C1       CG331   -0.170000       12.0110           0
      8881 WT4      213      MECN     H11      HGA3     0.090000        1.0080           0
      8882 WT4      213      MECN     H12      HGA3     0.090000        1.0080           0
      8883 WT4      213      MECN     H13      HGA3     0.090000        1.0080           0
      8884 WT4      213      MECN     C2       CG1N1    0.360000       12.0110           0
      8885 WT4      213      MECN     N3       NG1T1   -0.460000       14.0070           0
      8886 WT4      215      MECN     C1       CG331   -0.170000       12.0110           0
      8887 WT4      215      MECN     H11      HGA3     0.090000        1.0080           0
      8888 WT4      215      MECN     H12      HGA3     0.090000        1.0080           0
      8889 WT4      215      MECN     H13      HGA3     0.090000        1.0080           0
      8890 WT4      215      MECN     C2       CG1N1    0.360000       12.0110           0
      8891 WT4      215      MECN     N3       NG1T1   -0.460000       14.0070           0
      8892 WT4      216      MECN     C1       CG331   -0.170000       12.0110           0
      8893 WT4      216      MECN     H11      HGA3     0.090000        1.0080           0
      8894 WT4      216      MECN     H12      HGA3     0.090000        1.0080           0
      8895 WT4      216      MECN     H13      HGA3     0.090000        1.0080           0
      8896 WT4      216      MECN     C2       CG1N1    0.360000       12.0110           0
      8897 WT4      216      MECN     N3       NG1T1   -0.460000       14.0070           0
      8898 WT4      225      MECN     C1       CG331   -0.170000       12.0110           0
      8899 WT4      225      MECN     H11      HGA3     0.090000        1.0080           0
      8900 WT4      225      MECN     H12      HGA3     0.090000        1.0080           0
      8901 WT4      225      MECN     H13      HGA3     0.090000        1.0080           0
      8902 WT4      225      MECN     C2       CG1N1    0.360000       12.0110           0
      8903 WT4      225      MECN     N3       NG1T1   -0.460000       14.0070           0
      8904 WT4      228      MECN     C1       CG331   -0.170000       12.0110           0
      8905 WT4      228      MECN     H11      HGA3     0.090000        1.0080           0
      8906 WT4      228      MECN     H12      HGA3     0.090000        1.0080           0
      8907 WT4      228      MECN     H13      HGA3     0.090000        1.0080           0
      8908 WT4      228      MECN     C2       CG1N1    0.360000       12.0110           0
      8909 WT4      228      MECN     N3       NG1T1   -0.460000       14.0070           0
      8910 WT4      245      MECN     C1       CG331   -0.170000       12.0110           0
      8911 WT4      245      MECN     H11      HGA3     0.090000        1.0080           0
      8912 WT4      245      MECN     H12      HGA3     0.090000        1.0080           0
      8913 WT4      245      MECN     H13      HGA3     0.090000        1.0080           0
      8914 WT4      245      MECN     C2       CG1N1    0.360000       12.0110           0
      8915 WT4      245      MECN     N3       NG1T1   -0.460000       14.0070           0
      8916 WT4      255      MECN     C1       CG331   -0.170000       12.0110           0
      8917 WT4      255      MECN     H11      HGA3     0.090000        1.0080           0
      8918 WT4      255      MECN     H12      HGA3     0.090000        1.0080           0
      8919 WT4      255      MECN     H13      HGA3     0.090000        1.0080           0
      8920 WT4      255      MECN     C2       CG1N1    0.360000       12.0110           0
      8921 WT4      255      MECN     N3       NG1T1   -0.460000       14.0070           0
      8922 WT4      256      MECN     C1       CG331   -0.170000       12.0110           0
      8923 WT4      256      MECN     H11      HGA3     0.090000        1.0080           0
      8924 WT4      256      MECN     H12      HGA3     0.090000        1.0080           0
      8925 WT4      256      MECN     H13      HGA3     0.090000        1.0080           0
      8926 WT4      256      MECN     C2       CG1N1    0.360000       12.0110           0
      8927 WT4      256      MECN     N3       NG1T1   -0.460000       14.0070           0
      8928 WT4      257      MECN     C1       CG331   -0.170000       12.0110           0
      8929 WT4      257      MECN     H11      HGA3     0.090000        1.0080           0
      8930 WT4      257      MECN     H12      HGA3     0.090000        1.0080           0
      8931 WT4      257      MECN     H13      HGA3     0.090000        1.0080           0
      8932 WT4      257      MECN     C2       CG1N1    0.360000       12.0110           0
      8933 WT4      257      MECN     N3       NG1T1   -0.460000       14.0070           0
      8934 WT4      259      MECN     C1       CG331   -0.170000       12.0110           0
      8935 WT4      259      MECN     H11      HGA3     0.090000        1.0080           0
      8936 WT4      259      MECN     H12      HGA3     0.090000        1.0080           0
      8937 WT4      259      MECN     H13      HGA3     0.090000        1.0080           0
      8938 WT4      259      MECN     C2       CG1N1    0.360000       12.0110           0
      8939 WT4      259      MECN     N3       NG1T1   -0.460000       14.0070           0
      8940 WT4      260      MECN     C1       CG331   -0.170000       12.0110           0
      8941 WT4      260      MECN     H11      HGA3     0.090000        1.0080           0
      8942 WT4      260      MECN     H12      HGA3     0.090000        1.0080           0
      8943 WT4      260      MECN     H13      HGA3     0.090000        1.0080           0
      8944 WT4      260      MECN     C2       CG1N1    0.360000       12.0110           0
      8945 WT4      260      MECN     N3       NG1T1   -0.460000       14.0070           0
      8946 WT4      270      MECN     C1       CG331   -0.170000       12.0110           0
      8947 WT4      270      MECN     H11      HGA3     0.090000        1.0080           0
      8948 WT4      270      MECN     H12      HGA3     0.090000        1.0080           0
      8949 WT4      270      MECN     H13      HGA3     0.090000        1.0080           0
      8950 WT4      270      MECN     C2       CG1N1    0.360000       12.0110           0
      8951 WT4      270      MECN     N3       NG1T1   -0.460000       14.0070           0
      8952 WT4      273      MECN     C1       CG331   -0.170000       12.0110           0
      8953 WT4      273      MECN     H11      HGA3     0.090000        1.0080           0
      8954 WT4      273      MECN     H12      HGA3     0.090000        1.0080           0
      8955 WT4      273      MECN     H13      HGA3     0.090000        1.0080           0
      8956 WT4      273      MECN     C2       CG1N1    0.360000       12.0110           0
      8957 WT4      273      MECN     N3       NG1T1   -0.460000       14.0070           0
      8958 WT4      282      MECN     C1       CG331   -0.170000       12.0110           0
      8959 WT4      282      MECN     H11      HGA3     0.090000        1.0080           0
      8960 WT4      282      MECN     H12      HGA3     0.090000        1.0080           0
      8961 WT4      282      MECN     H13      HGA3     0.090000        1.0080           0
      8962 WT4      282      MECN     C2       CG1N1    0.360000       12.0110           0
      8963 WT4      282      MECN     N3       NG1T1   -0.460000       14.0070           0
      8964 WT4      289      MECN     C1       CG331   -0.170000       12.0110           0
      8965 WT4      289      MECN     H11      HGA3     0.090000        1.0080           0
      8966 WT4      289      MECN     H12      HGA3     0.090000        1.0080           0
      8967 WT4      289      MECN     H13      HGA3     0.090000        1.0080           0
      8968 WT4      289      MECN     C2       CG1N1    0.360000       12.0110           0
      8969 WT4      289      MECN     N3       NG1T1   -0.460000       14.0070           0
      8970 WT4      292      MECN     C1       CG331   -0.170000       12.0110           0
      8971 WT4      292      MECN     H11      HGA3     0.090000        1.0080           0
      8972 WT4      292      MECN     H12      HGA3     0.090000        1.0080           0
      8973 WT4      292      MECN     H13      HGA3     0.090000        1.0080           0
      8974 WT4      292      MECN     C2       CG1N1    0.360000       12.0110           0
      8975 WT4      292      MECN     N3       NG1T1   -0.460000       14.0070           0
      8976 WT4      296      MECN     C1       CG331   -0.170000       12.0110           0
      8977 WT4      296      MECN     H11      HGA3     0.090000        1.0080           0
      8978 WT4      296      MECN     H12      HGA3     0.090000        1.0080           0
      8979 WT4      296      MECN     H13      HGA3     0.090000        1.0080           0
      8980 WT4      296      MECN     C2       CG1N1    0.360000       12.0110           0
      8981 WT4      296      MECN     N3       NG1T1   -0.460000       14.0070           0
      8982 WT4      298      MECN     C1       CG331   -0.170000       12.0110           0
      8983 WT4      298      MECN     H11      HGA3     0.090000        1.0080           0
      8984 WT4      298      MECN     H12      HGA3     0.090000        1.0080           0
      8985 WT4      298      MECN     H13      HGA3     0.090000        1.0080           0
      8986 WT4      298      MECN     C2       CG1N1    0.360000       12.0110           0
      8987 WT4      298      MECN     N3       NG1T1   -0.460000       14.0070           0
      8988 WT4      299      MECN     C1       CG331   -0.170000       12.0110           0
      8989 WT4      299      MECN     H11      HGA3     0.090000        1.0080           0
      8990 WT4      299      MECN     H12      HGA3     0.090000        1.0080           0
      8991 WT4      299      MECN     H13      HGA3     0.090000        1.0080           0
      8992 WT4      299      MECN     C2       CG1N1    0.360000       12.0110           0
      8993 WT4      299      MECN     N3       NG1T1   -0.460000       14.0070           0
      8994 WT4      302      MECN     C1       CG331   -0.170000       12.0110           0
      8995 WT4      302      MECN     H11      HGA3     0.090000        1.0080           0
      8996 WT4      302      MECN     H12      HGA3     0.090000        1.0080           0
      8997 WT4      302      MECN     H13      HGA3     0.090000        1.0080           0
      8998 WT4      302      MECN     C2       CG1N1    0.360000       12.0110           0
      8999 WT4      302      MECN     N3       NG1T1   -0.460000       14.0070           0
      9000 WT4      303      MECN     C1       CG331   -0.170000       12.0110           0
      9001 WT4      303      MECN     H11      HGA3     0.090000        1.0080           0
      9002 WT4      303      MECN     H12      HGA3     0.090000        1.0080           0
      9003 WT4      303      MECN     H13      HGA3     0.090000        1.0080           0
      9004 WT4      303      MECN     C2       CG1N1    0.360000       12.0110           0
      9005 WT4      303      MECN     N3       NG1T1   -0.460000       14.0070           0
      9006 WT4      308      MECN     C1       CG331   -0.170000       12.0110           0
      9007 WT4      308      MECN     H11      HGA3     0.090000        1.0080           0
      9008 WT4      308      MECN     H12      HGA3     0.090000        1.0080           0
      9009 WT4      308      MECN     H13      HGA3     0.090000        1.0080           0
      9010 WT4      308      MECN     C2       CG1N1    0.360000       12.0110           0
      9011 WT4      308      MECN     N3       NG1T1   -0.460000       14.0070           0
      9012 WT4      310      MECN     C1       CG331   -0.170000       12.0110           0
      9013 WT4      310      MECN     H11      HGA3     0.090000        1.0080           0
      9014 WT4      310      MECN     H12      HGA3     0.090000        1.0080           0
      9015 WT4      310      MECN     H13      HGA3     0.090000        1.0080           0
      9016 WT4      310      MECN     C2       CG1N1    0.360000       12.0110           0
      9017 WT4      310      MECN     N3       NG1T1   -0.460000       14.0070           0
      9018 WT4      312      MECN     C1       CG331   -0.170000       12.0110           0
      9019 WT4      312      MECN     H11      HGA3     0.090000        1.0080           0
      9020 WT4      312      MECN     H12      HGA3     0.090000        1.0080           0
      9021 WT4      312      MECN     H13      HGA3     0.090000        1.0080           0
      9022 WT4      312      MECN     C2       CG1N1    0.360000       12.0110           0
      9023 WT4      312      MECN     N3       NG1T1   -0.460000       14.0070           0
      9024 WT4      313      MECN     C1       CG331   -0.170000       12.0110           0
      9025 WT4      313      MECN     H11      HGA3     0.090000        1.0080           0
      9026 WT4      313      MECN     H12      HGA3     0.090000        1.0080           0
      9027 WT4      313      MECN     H13      HGA3     0.090000        1.0080           0
      9028 WT4      313      MECN     C2       CG1N1    0.360000       12.0110           0
      9029 WT4      313      MECN     N3       NG1T1   -0.460000       14.0070           0
      9030 WT4      322      MECN     C1       CG331   -0.170000       12.0110           0
      9031 WT4      322      MECN     H11      HGA3     0.090000        1.0080           0
      9032 WT4      322      MECN     H12      HGA3     0.090000        1.0080           0
      9033 WT4      322      MECN     H13      HGA3     0.090000        1.0080           0
      9034 WT4      322      MECN     C2       CG1N1    0.360000       12.0110           0
      9035 WT4      322      MECN     N3       NG1T1   -0.460000       14.0070           0
      9036 WT4      323      MECN     C1       CG331   -0.170000       12.0110           0
      9037 WT4      323      MECN     H11      HGA3     0.090000        1.0080           0
      9038 WT4      323      MECN     H12      HGA3     0.090000        1.0080           0
      9039 WT4      323      MECN     H13      HGA3     0.090000        1.0080           0
      9040 WT4      323      MECN     C2       CG1N1    0.360000       12.0110           0
      9041 WT4      323      MECN     N3       NG1T1   -0.460000       14.0070           0
      9042 WT4      326      MECN     C1       CG331   -0.170000       12.0110           0
      9043 WT4      326      MECN     H11      HGA3     0.090000        1.0080           0
      9044 WT4      326      MECN     H12      HGA3     0.090000        1.0080           0
      9045 WT4      326      MECN     H13      HGA3     0.090000        1.0080           0
      9046 WT4      326      MECN     C2       CG1N1    0.360000       12.0110           0
      9047 WT4      326      MECN     N3       NG1T1   -0.460000       14.0070           0
      9048 WT4      338      MECN     C1       CG331   -0.170000       12.0110           0
      9049 WT4      338      MECN     H11      HGA3     0.090000        1.0080           0
      9050 WT4      338      MECN     H12      HGA3     0.090000        1.0080           0
      9051 WT4      338      MECN     H13      HGA3     0.090000        1.0080           0
      9052 WT4      338      MECN     C2       CG1N1    0.360000       12.0110           0
      9053 WT4      338      MECN     N3       NG1T1   -0.460000       14.0070           0
      9054 WT4      342      MECN     C1       CG331   -0.170000       12.0110           0
      9055 WT4      342      MECN     H11      HGA3     0.090000        1.0080           0
      9056 WT4      342      MECN     H12      HGA3     0.090000        1.0080           0
      9057 WT4      342      MECN     H13      HGA3     0.090000        1.0080           0
      9058 WT4      342      MECN     C2       CG1N1    0.360000       12.0110           0
      9059 WT4      342      MECN     N3       NG1T1   -0.460000       14.0070           0
      9060 WT4      348      MECN     C1       CG331   -0.170000       12.0110           0
      9061 WT4      348      MECN     H11      HGA3     0.090000        1.0080           0
      9062 WT4      348      MECN     H12      HGA3     0.090000        1.0080           0
      9063 WT4      348      MECN     H13      HGA3     0.090000        1.0080           0
      9064 WT4      348      MECN     C2       CG1N1    0.360000       12.0110           0
      9065 WT4      348      MECN     N3       NG1T1   -0.460000       14.0070           0
      9066 WT4      349      MECN     C1       CG331   -0.170000       12.0110           0
      9067 WT4      349      MECN     H11      HGA3     0.090000        1.0080           0
      9068 WT4      349      MECN     H12      HGA3     0.090000        1.0080           0
      9069 WT4      349      MECN     H13      HGA3     0.090000        1.0080           0
      9070 WT4      349      MECN     C2       CG1N1    0.360000       12.0110           0
      9071 WT4      349      MECN     N3       NG1T1   -0.460000       14.0070           0
      9072 WT4      356      MECN     C1       CG331   -0.170000       12.0110           0
      9073 WT4      356      MECN     H11      HGA3     0.090000        1.0080           0
      9074 WT4      356      MECN     H12      HGA3     0.090000        1.0080           0
      9075 WT4      356      MECN     H13      HGA3     0.090000        1.0080           0
      9076 WT4      356      MECN     C2       CG1N1    0.360000       12.0110           0
      9077 WT4      356      MECN     N3       NG1T1   -0.460000       14.0070           0
      9078 WT4      366      MECN     C1       CG331   -0.170000       12.0110           0
      9079 WT4      366      MECN     H11      HGA3     0.090000        1.0080           0
      9080 WT4      366      MECN     H12      HGA3     0.090000        1.0080           0
      9081 WT4      366      MECN     H13      HGA3     0.090000        1.0080           0
      9082 WT4      366      MECN     C2       CG1N1    0.360000       12.0110           0
      9083 WT4      366      MECN     N3       NG1T1   -0.460000       14.0070           0
      9084 WT4      371      MECN     C1       CG331   -0.170000       12.0110           0
      9085 WT4      371      MECN     H11      HGA3     0.090000        1.0080           0
      9086 WT4      371      MECN     H12      HGA3     0.090000        1.0080           0
      9087 WT4      371      MECN     H13      HGA3     0.090000        1.0080           0
      9088 WT4      371      MECN     C2       CG1N1    0.360000       12.0110           0
      9089 WT4      371      MECN     N3       NG1T1   -0.460000       14.0070           0
      9090 WT4      381      MECN     C1       CG331   -0.170000       12.0110           0
      9091 WT4      381      MECN     H11      HGA3     0.090000        1.0080           0
      9092 WT4      381      MECN     H12      HGA3     0.090000        1.0080           0
      9093 WT4      381      MECN     H13      HGA3     0.090000        1.0080           0
      9094 WT4      381      MECN     C2       CG1N1    0.360000       12.0110           0
      9095 WT4      381      MECN     N3       NG1T1   -0.460000       14.0070           0
      9096 WT4      388      MECN     C1       CG331   -0.170000       12.0110           0
      9097 WT4      388      MECN     H11      HGA3     0.090000        1.0080           0
      9098 WT4      388      MECN     H12      HGA3     0.090000        1.0080           0
      9099 WT4      388      MECN     H13      HGA3     0.090000        1.0080           0
      9100 WT4      388      MECN     C2       CG1N1    0.360000       12.0110           0
      9101 WT4      388      MECN     N3       NG1T1   -0.460000       14.0070           0
      9102 WT4      392      MECN     C1       CG331   -0.170000       12.0110           0
      9103 WT4      392      MECN     H11      HGA3     0.090000        1.0080           0
      9104 WT4      392      MECN     H12      HGA3     0.090000        1.0080           0
      9105 WT4      392      MECN     H13      HGA3     0.090000        1.0080           0
      9106 WT4      392      MECN     C2       CG1N1    0.360000       12.0110           0
      9107 WT4      392      MECN     N3       NG1T1   -0.460000       14.0070           0
      9108 WT4      401      MECN     C1       CG331   -0.170000       12.0110           0
      9109 WT4      401      MECN     H11      HGA3     0.090000        1.0080           0
      9110 WT4      401      MECN     H12      HGA3     0.090000        1.0080           0
      9111 WT4      401      MECN     H13      HGA3     0.090000        1.0080           0
      9112 WT4      401      MECN     C2       CG1N1    0.360000       12.0110           0
      9113 WT4      401      MECN     N3       NG1T1   -0.460000       14.0070           0
      9114 WT4      402      MECN     C1       CG331   -0.170000       12.0110           0
      9115 WT4      402      MECN     H11      HGA3     0.090000        1.0080           0
      9116 WT4      402      MECN     H12      HGA3     0.090000        1.0080           0
      9117 WT4      402      MECN     H13      HGA3     0.090000        1.0080           0
      9118 WT4      402      MECN     C2       CG1N1    0.360000       12.0110           0
      9119 WT4      402      MECN     N3       NG1T1   -0.460000       14.0070           0
      9120 WT4      404      MECN     C1       CG331   -0.170000       12.0110           0
      9121 WT4      404      MECN     H11      HGA3     0.090000        1.0080           0
      9122 WT4      404      MECN     H12      HGA3     0.090000        1.0080           0
      9123 WT4      404      MECN     H13      HGA3     0.090000        1.0080           0
      9124 WT4      404      MECN     C2       CG1N1    0.360000       12.0110           0
      9125 WT4      404      MECN     N3       NG1T1   -0.460000       14.0070           0
      9126 WT4      407      MECN     C1       CG331   -0.170000       12.0110           0
      9127 WT4      407      MECN     H11      HGA3     0.090000        1.0080           0
      9128 WT4      407      MECN     H12      HGA3     0.090000        1.0080           0
      9129 WT4      407      MECN     H13      HGA3     0.090000        1.0080           0
      9130 WT4      407      MECN     C2       CG1N1    0.360000       12.0110           0
      9131 WT4      407      MECN     N3       NG1T1   -0.460000       14.0070           0
      9132 WT4      408      MECN     C1       CG331   -0.170000       12.0110           0
      9133 WT4      408      MECN     H11      HGA3     0.090000        1.0080           0
      9134 WT4      408      MECN     H12      HGA3     0.090000        1.0080           0
      9135 WT4      408      MECN     H13      HGA3     0.090000        1.0080           0
      9136 WT4      408      MECN     C2       CG1N1    0.360000       12.0110           0
      9137 WT4      408      MECN     N3       NG1T1   -0.460000       14.0070           0
      9138 WT4      412      MECN     C1       CG331   -0.170000       12.0110           0
      9139 WT4      412      MECN     H11      HGA3     0.090000        1.0080           0
      9140 WT4      412      MECN     H12      HGA3     0.090000        1.0080           0
      9141 WT4      412      MECN     H13      HGA3     0.090000        1.0080           0
      9142 WT4      412      MECN     C2       CG1N1    0.360000       12.0110           0
      9143 WT4      412      MECN     N3       NG1T1   -0.460000       14.0070           0
      9144 WT4      415      MECN     C1       CG331   -0.170000       12.0110           0
      9145 WT4      415      MECN     H11      HGA3     0.090000        1.0080           0
      9146 WT4      415      MECN     H12      HGA3     0.090000        1.0080           0
      9147 WT4      415      MECN     H13      HGA3     0.090000        1.0080           0
      9148 WT4      415      MECN     C2       CG1N1    0.360000       12.0110           0
      9149 WT4      415      MECN     N3       NG1T1   -0.460000       14.0070           0
      9150 WT4      416      MECN     C1       CG331   -0.170000       12.0110           0
      9151 WT4      416      MECN     H11      HGA3     0.090000        1.0080           0
      9152 WT4      416      MECN     H12      HGA3     0.090000        1.0080           0
      9153 WT4      416      MECN     H13      HGA3     0.090000        1.0080           0
      9154 WT4      416      MECN     C2       CG1N1    0.360000       12.0110           0
      9155 WT4      416      MECN     N3       NG1T1   -0.460000       14.0070           0
      9156 WT4      430      MECN     C1       CG331   -0.170000       12.0110           0
      9157 WT4      430      MECN     H11      HGA3     0.090000        1.0080           0
      9158 WT4      430      MECN     H12      HGA3     0.090000        1.0080           0
      9159 WT4      430      MECN     H13      HGA3     0.090000        1.0080           0
      9160 WT4      430      MECN     C2       CG1N1    0.360000       12.0110           0
      9161 WT4      430      MECN     N3       NG1T1   -0.460000       14.0070           0
      9162 WT4      436      MECN     C1       CG331   -0.170000       12.0110           0
      9163 WT4      436      MECN     H11      HGA3     0.090000        1.0080           0
      9164 WT4      436      MECN     H12      HGA3     0.090000        1.0080           0
      9165 WT4      436      MECN     H13      HGA3     0.090000        1.0080           0
      9166 WT4      436      MECN     C2       CG1N1    0.360000       12.0110           0
      9167 WT4      436      MECN     N3       NG1T1   -0.460000       14.0070           0
      9168 WT4      439      MECN     C1       CG331   -0.170000       12.0110           0
      9169 WT4      439      MECN     H11      HGA3     0.090000        1.0080           0
      9170 WT4      439      MECN     H12      HGA3     0.090000        1.0080           0
      9171 WT4      439      MECN     H13      HGA3     0.090000        1.0080           0
      9172 WT4      439      MECN     C2       CG1N1    0.360000       12.0110           0
      9173 WT4      439      MECN     N3       NG1T1   -0.460000       14.0070           0
      9174 WT4      440      MECN     C1       CG331   -0.170000       12.0110           0
      9175 WT4      440      MECN     H11      HGA3     0.090000        1.0080           0
      9176 WT4      440      MECN     H12      HGA3     0.090000        1.0080           0
      9177 WT4      440      MECN     H13      HGA3     0.090000        1.0080           0
      9178 WT4      440      MECN     C2       CG1N1    0.360000       12.0110           0
      9179 WT4      440      MECN     N3       NG1T1   -0.460000       14.0070           0
      9180 WT4      442      MECN     C1       CG331   -0.170000       12.0110           0
      9181 WT4      442      MECN     H11      HGA3     0.090000        1.0080           0
      9182 WT4      442      MECN     H12      HGA3     0.090000        1.0080           0
      9183 WT4      442      MECN     H13      HGA3     0.090000        1.0080           0
      9184 WT4      442      MECN     C2       CG1N1    0.360000       12.0110           0
      9185 WT4      442      MECN     N3       NG1T1   -0.460000       14.0070           0
      9186 WT4      444      MECN     C1       CG331   -0.170000       12.0110           0
      9187 WT4      444      MECN     H11      HGA3     0.090000        1.0080           0
      9188 WT4      444      MECN     H12      HGA3     0.090000        1.0080           0
      9189 WT4      444      MECN     H13      HGA3     0.090000        1.0080           0
      9190 WT4      444      MECN     C2       CG1N1    0.360000       12.0110           0
      9191 WT4      444      MECN     N3       NG1T1   -0.460000       14.0070           0
      9192 WT4      451      MECN     C1       CG331   -0.170000       12.0110           0
      9193 WT4      451      MECN     H11      HGA3     0.090000        1.0080           0
      9194 WT4      451      MECN     H12      HGA3     0.090000        1.0080           0
      9195 WT4      451      MECN     H13      HGA3     0.090000        1.0080           0
      9196 WT4      451      MECN     C2       CG1N1    0.360000       12.0110           0
      9197 WT4      451      MECN     N3       NG1T1   -0.460000       14.0070           0
      9198 WT4      465      MECN     C1       CG331   -0.170000       12.0110           0
      9199 WT4      465      MECN     H11      HGA3     0.090000        1.0080           0
      9200 WT4      465      MECN     H12      HGA3     0.090000        1.0080           0
      9201 WT4      465      MECN     H13      HGA3     0.090000        1.0080           0
      9202 WT4      465      MECN     C2       CG1N1    0.360000       12.0110           0
      9203 WT4      465      MECN     N3       NG1T1   -0.460000       14.0070           0
      9204 WT4      467      MECN     C1       CG331   -0.170000       12.0110           0
      9205 WT4      467      MECN     H11      HGA3     0.090000        1.0080           0
      9206 WT4      467      MECN     H12      HGA3     0.090000        1.0080           0
      9207 WT4      467      MECN     H13      HGA3     0.090000        1.0080           0
      9208 WT4      467      MECN     C2       CG1N1    0.360000       12.0110           0
      9209 WT4      467      MECN     N3       NG1T1   -0.460000       14.0070           0
      9210 WT4      469      MECN     C1       CG331   -0.170000       12.0110           0
      9211 WT4      469      MECN     H11      HGA3     0.090000        1.0080           0
      9212 WT4      469      MECN     H12      HGA3     0.090000        1.0080           0
      9213 WT4      469      MECN     H13      HGA3     0.090000        1.0080           0
      9214 WT4      469      MECN     C2       CG1N1    0.360000       12.0110           0
      9215 WT4      469      MECN     N3       NG1T1   -0.460000       14.0070           0
      9216 WT4      472      MECN     C1       CG331   -0.170000       12.0110           0
      9217 WT4      472      MECN     H11      HGA3     0.090000        1.0080           0
      9218 WT4      472      MECN     H12      HGA3     0.090000        1.0080           0
      9219 WT4      472      MECN     H13      HGA3     0.090000        1.0080           0
      9220 WT4      472      MECN     C2       CG1N1    0.360000       12.0110           0
      9221 WT4      472      MECN     N3       NG1T1   -0.460000       14.0070           0
      9222 WT4      478      MECN     C1       CG331   -0.170000       12.0110           0
      9223 WT4      478      MECN     H11      HGA3     0.090000        1.0080           0
      9224 WT4      478      MECN     H12      HGA3     0.090000        1.0080           0
      9225 WT4      478      MECN     H13      HGA3     0.090000        1.0080           0
      9226 WT4      478      MECN     C2       CG1N1    0.360000       12.0110           0
      9227 WT4      478      MECN     N3       NG1T1   -0.460000       14.0070           0
      9228 WT4      484      MECN     C1       CG331   -0.170000       12.0110           0
      9229 WT4      484      MECN     H11      HGA3     0.090000        1.0080           0
      9230 WT4      484      MECN     H12      HGA3     0.090000        1.0080           0
      9231 WT4      484      MECN     H13      HGA3     0.090000        1.0080           0
      9232 WT4      484      MECN     C2       CG1N1    0.360000       12.0110           0
      9233 WT4      484      MECN     N3       NG1T1   -0.460000       14.0070           0
      9234 WT4      485      MECN     C1       CG331   -0.170000       12.0110           0
      9235 WT4      485      MECN     H11      HGA3     0.090000        1.0080           0
      9236 WT4      485      MECN     H12      HGA3     0.090000        1.0080           0
      9237 WT4      485      MECN     H13      HGA3     0.090000        1.0080           0
      9238 WT4      485      MECN     C2       CG1N1    0.360000       12.0110           0
      9239 WT4      485      MECN     N3       NG1T1   -0.460000       14.0070           0
      9240 WT4      488      MECN     C1       CG331   -0.170000       12.0110           0
      9241 WT4      488      MECN     H11      HGA3     0.090000        1.0080           0
      9242 WT4      488      MECN     H12      HGA3     0.090000        1.0080           0
      9243 WT4      488      MECN     H13      HGA3     0.090000        1.0080           0
      9244 WT4      488      MECN     C2       CG1N1    0.360000       12.0110           0
      9245 WT4      488      MECN     N3       NG1T1   -0.460000       14.0070           0
      9246 WT4      492      MECN     C1       CG331   -0.170000       12.0110           0
      9247 WT4      492      MECN     H11      HGA3     0.090000        1.0080           0
      9248 WT4      492      MECN     H12      HGA3     0.090000        1.0080           0
      9249 WT4      492      MECN     H13      HGA3     0.090000        1.0080           0
      9250 WT4      492      MECN     C2       CG1N1    0.360000       12.0110           0
      9251 WT4      492      MECN     N3       NG1T1   -0.460000       14.0070           0
      9252 WT4      508      MECN     C1       CG331   -0.170000       12.0110           0
      9253 WT4      508      MECN     H11      HGA3     0.090000        1.0080           0
      9254 WT4      508      MECN     H12      HGA3     0.090000        1.0080           0
      9255 WT4      508      MECN     H13      HGA3     0.090000        1.0080           0
      9256 WT4      508      MECN     C2       CG1N1    0.360000       12.0110           0
      9257 WT4      508      MECN     N3       NG1T1   -0.460000       14.0070           0
      9258 WT4      518      MECN     C1       CG331   -0.170000       12.0110           0
      9259 WT4      518      MECN     H11      HGA3     0.090000        1.0080           0
      9260 WT4      518      MECN     H12      HGA3     0.090000        1.0080           0
      9261 WT4      518      MECN     H13      HGA3     0.090000        1.0080           0
      9262 WT4      518      MECN     C2       CG1N1    0.360000       12.0110           0
      9263 WT4      518      MECN     N3       NG1T1   -0.460000       14.0070           0
      9264 WT4      526      MECN     C1       CG331   -0.170000       12.0110           0
      9265 WT4      526      MECN     H11      HGA3     0.090000        1.0080           0
      9266 WT4      526      MECN     H12      HGA3     0.090000        1.0080           0
      9267 WT4      526      MECN     H13      HGA3     0.090000        1.0080           0
      9268 WT4      526      MECN     C2       CG1N1    0.360000       12.0110           0
      9269 WT4      526      MECN     N3       NG1T1   -0.460000       14.0070           0
      9270 WT4      527      MECN     C1       CG331   -0.170000       12.0110           0
      9271 WT4      527      MECN     H11      HGA3     0.090000        1.0080           0
      9272 WT4      527      MECN     H12      HGA3     0.090000        1.0080           0
      9273 WT4      527      MECN     H13      HGA3     0.090000        1.0080           0
      9274 WT4      527      MECN     C2       CG1N1    0.360000       12.0110           0
      9275 WT4      527      MECN     N3       NG1T1   -0.460000       14.0070           0
      9276 WT4      531      MECN     C1       CG331   -0.170000       12.0110           0
      9277 WT4      531      MECN     H11      HGA3     0.090000        1.0080           0
      9278 WT4      531      MECN     H12      HGA3     0.090000        1.0080           0
      9279 WT4      531      MECN     H13      HGA3     0.090000        1.0080           0
      9280 WT4      531      MECN     C2       CG1N1    0.360000       12.0110           0
      9281 WT4      531      MECN     N3       NG1T1   -0.460000       14.0070           0
      9282 WT4      541      MECN     C1       CG331   -0.170000       12.0110           0
      9283 WT4      541      MECN     H11      HGA3     0.090000        1.0080           0
      9284 WT4      541      MECN     H12      HGA3     0.090000        1.0080           0
      9285 WT4      541      MECN     H13      HGA3     0.090000        1.0080           0
      9286 WT4      541      MECN     C2       CG1N1    0.360000       12.0110           0
      9287 WT4      541      MECN     N3       NG1T1   -0.460000       14.0070           0
      9288 WT4      542      MECN     C1       CG331   -0.170000       12.0110           0
      9289 WT4      542      MECN     H11      HGA3     0.090000        1.0080           0
      9290 WT4      542      MECN     H12      HGA3     0.090000        1.0080           0
      9291 WT4      542      MECN     H13      HGA3     0.090000        1.0080           0
      9292 WT4      542      MECN     C2       CG1N1    0.360000       12.0110           0
      9293 WT4      542      MECN     N3       NG1T1   -0.460000       14.0070           0
      9294 WT4      543      MECN     C1       CG331   -0.170000       12.0110           0
      9295 WT4      543      MECN     H11      HGA3     0.090000        1.0080           0
      9296 WT4      543      MECN     H12      HGA3     0.090000        1.0080           0
      9297 WT4      543      MECN     H13      HGA3     0.090000        1.0080           0
      9298 WT4      543      MECN     C2       CG1N1    0.360000       12.0110           0
      9299 WT4      543      MECN     N3       NG1T1   -0.460000       14.0070           0
      9300 WT4      544      MECN     C1       CG331   -0.170000       12.0110           0
      9301 WT4      544      MECN     H11      HGA3     0.090000        1.0080           0
      9302 WT4      544      MECN     H12      HGA3     0.090000        1.0080           0
      9303 WT4      544      MECN     H13      HGA3     0.090000        1.0080           0
      9304 WT4      544      MECN     C2       CG1N1    0.360000       12.0110           0
      9305 WT4      544      MECN     N3       NG1T1   -0.460000       14.0070           0
      9306 WT4      546      MECN     C1       CG331   -0.170000       12.0110           0
      9307 WT4      546      MECN     H11      HGA3     0.090000        1.0080           0
      9308 WT4      546      MECN     H12      HGA3     0.090000        1.0080           0
      9309 WT4      546      MECN     H13      HGA3     0.090000        1.0080           0
      9310 WT4      546      MECN     C2       CG1N1    0.360000       12.0110           0
      9311 WT4      546      MECN     N3       NG1T1   -0.460000       14.0070           0
      9312 WT4      556      MECN     C1       CG331   -0.170000       12.0110           0
      9313 WT4      556      MECN     H11      HGA3     0.090000        1.0080           0
      9314 WT4      556      MECN     H12      HGA3     0.090000        1.0080           0
      9315 WT4      556      MECN     H13      HGA3     0.090000        1.0080           0
      9316 WT4      556      MECN     C2       CG1N1    0.360000       12.0110           0
      9317 WT4      556      MECN     N3       NG1T1   -0.460000       14.0070           0
      9318 WT4      558      MECN     C1       CG331   -0.170000       12.0110           0
      9319 WT4      558      MECN     H11      HGA3     0.090000        1.0080           0
      9320 WT4      558      MECN     H12      HGA3     0.090000        1.0080           0
      9321 WT4      558      MECN     H13      HGA3     0.090000        1.0080           0
      9322 WT4      558      MECN     C2       CG1N1    0.360000       12.0110           0
      9323 WT4      558      MECN     N3       NG1T1   -0.460000       14.0070           0
      9324 WT4      560      MECN     C1       CG331   -0.170000       12.0110           0
      9325 WT4      560      MECN     H11      HGA3     0.090000        1.0080           0
      9326 WT4      560      MECN     H12      HGA3     0.090000        1.0080           0
      9327 WT4      560      MECN     H13      HGA3     0.090000        1.0080           0
      9328 WT4      560      MECN     C2       CG1N1    0.360000       12.0110           0
      9329 WT4      560      MECN     N3       NG1T1   -0.460000       14.0070           0
      9330 WT4      566      MECN     C1       CG331   -0.170000       12.0110           0
      9331 WT4      566      MECN     H11      HGA3     0.090000        1.0080           0
      9332 WT4      566      MECN     H12      HGA3     0.090000        1.0080           0
      9333 WT4      566      MECN     H13      HGA3     0.090000        1.0080           0
      9334 WT4      566      MECN     C2       CG1N1    0.360000       12.0110           0
      9335 WT4      566      MECN     N3       NG1T1   -0.460000       14.0070           0
      9336 WT4      569      MECN     C1       CG331   -0.170000       12.0110           0
      9337 WT4      569      MECN     H11      HGA3     0.090000        1.0080           0
      9338 WT4      569      MECN     H12      HGA3     0.090000        1.0080           0
      9339 WT4      569      MECN     H13      HGA3     0.090000        1.0080           0
      9340 WT4      569      MECN     C2       CG1N1    0.360000       12.0110           0
      9341 WT4      569      MECN     N3       NG1T1   -0.460000       14.0070           0
      9342 WT4      579      MECN     C1       CG331   -0.170000       12.0110           0
      9343 WT4      579      MECN     H11      HGA3     0.090000        1.0080           0
      9344 WT4      579      MECN     H12      HGA3     0.090000        1.0080           0
      9345 WT4      579      MECN     H13      HGA3     0.090000        1.0080           0
      9346 WT4      579      MECN     C2       CG1N1    0.360000       12.0110           0
      9347 WT4      579      MECN     N3       NG1T1   -0.460000       14.0070           0
      9348 WT4      584      MECN     C1       CG331   -0.170000       12.0110           0
      9349 WT4      584      MECN     H11      HGA3     0.090000        1.0080           0
      9350 WT4      584      MECN     H12      HGA3     0.090000        1.0080           0
      9351 WT4      584      MECN     H13      HGA3     0.090000        1.0080           0
      9352 WT4      584      MECN     C2       CG1N1    0.360000       12.0110           0
      9353 WT4      584      MECN     N3       NG1T1   -0.460000       14.0070           0
      9354 WT4      585      MECN     C1       CG331   -0.170000       12.0110           0
      9355 WT4      585      MECN     H11      HGA3     0.090000        1.0080           0
      9356 WT4      585      MECN     H12      HGA3     0.090000        1.0080           0
      9357 WT4      585      MECN     H13      HGA3     0.090000        1.0080           0
      9358 WT4      585      MECN     C2       CG1N1    0.360000       12.0110           0
      9359 WT4      585      MECN     N3       NG1T1   -0.460000       14.0070           0
      9360 WT4      586      MECN     C1       CG331   -0.170000       12.0110           0
      9361 WT4      586      MECN     H11      HGA3     0.090000        1.0080           0
      9362 WT4      586      MECN     H12      HGA3     0.090000        1.0080           0
      9363 WT4      586      MECN     H13      HGA3     0.090000        1.0080           0
      9364 WT4      586      MECN     C2       CG1N1    0.360000       12.0110           0
      9365 WT4      586      MECN     N3       NG1T1   -0.460000       14.0070           0
      9366 WT4      594      MECN     C1       CG331   -0.170000       12.0110           0
      9367 WT4      594      MECN     H11      HGA3     0.090000        1.0080           0
      9368 WT4      594      MECN     H12      HGA3     0.090000        1.0080           0
      9369 WT4      594      MECN     H13      HGA3     0.090000        1.0080           0
      9370 WT4      594      MECN     C2       CG1N1    0.360000       12.0110           0
      9371 WT4      594      MECN     N3       NG1T1   -0.460000       14.0070           0
      9372 WT4      599      MECN     C1       CG331   -0.170000       12.0110           0
      9373 WT4      599      MECN     H11      HGA3     0.090000        1.0080           0
      9374 WT4      599      MECN     H12      HGA3     0.090000        1.0080           0
      9375 WT4      599      MECN     H13      HGA3     0.090000        1.0080           0
      9376 WT4      599      MECN     C2       CG1N1    0.360000       12.0110           0
      9377 WT4      599      MECN     N3       NG1T1   -0.460000       14.0070           0
      9378 WT4      601      MECN     C1       CG331   -0.170000       12.0110           0
      9379 WT4      601      MECN     H11      HGA3     0.090000        1.0080           0
      9380 WT4      601      MECN     H12      HGA3     0.090000        1.0080           0
      9381 WT4      601      MECN     H13      HGA3     0.090000        1.0080           0
      9382 WT4      601      MECN     C2       CG1N1    0.360000       12.0110           0
      9383 WT4      601      MECN     N3       NG1T1   -0.460000       14.0070           0
      9384 WT4      605      MECN     C1       CG331   -0.170000       12.0110           0
      9385 WT4      605      MECN     H11      HGA3     0.090000        1.0080           0
      9386 WT4      605      MECN     H12      HGA3     0.090000        1.0080           0
      9387 WT4      605      MECN     H13      HGA3     0.090000        1.0080           0
      9388 WT4      605      MECN     C2       CG1N1    0.360000       12.0110           0
      9389 WT4      605      MECN     N3       NG1T1   -0.460000       14.0070           0
      9390 WT4      611      MECN     C1       CG331   -0.170000       12.0110           0
      9391 WT4      611      MECN     H11      HGA3     0.090000        1.0080           0
      9392 WT4      611      MECN     H12      HGA3     0.090000        1.0080           0
      9393 WT4      611      MECN     H13      HGA3     0.090000        1.0080           0
      9394 WT4      611      MECN     C2       CG1N1    0.360000       12.0110           0
      9395 WT4      611      MECN     N3       NG1T1   -0.460000       14.0070           0
      9396 WT4      617      MECN     C1       CG331   -0.170000       12.0110           0
      9397 WT4      617      MECN     H11      HGA3     0.090000        1.0080           0
      9398 WT4      617      MECN     H12      HGA3     0.090000        1.0080           0
      9399 WT4      617      MECN     H13      HGA3     0.090000        1.0080           0
      9400 WT4      617      MECN     C2       CG1N1    0.360000       12.0110           0
      9401 WT4      617      MECN     N3       NG1T1   -0.460000       14.0070           0
      9402 WT4      620      MECN     C1       CG331   -0.170000       12.0110           0
      9403 WT4      620      MECN     H11      HGA3     0.090000        1.0080           0
      9404 WT4      620      MECN     H12      HGA3     0.090000        1.0080           0
      9405 WT4      620      MECN     H13      HGA3     0.090000        1.0080           0
      9406 WT4      620      MECN     C2       CG1N1    0.360000       12.0110           0
      9407 WT4      620      MECN     N3       NG1T1   -0.460000       14.0070           0
      9408 WT4      623      MECN     C1       CG331   -0.170000       12.0110           0
      9409 WT4      623      MECN     H11      HGA3     0.090000        1.0080           0
      9410 WT4      623      MECN     H12      HGA3     0.090000        1.0080           0
      9411 WT4      623      MECN     H13      HGA3     0.090000        1.0080           0
      9412 WT4      623      MECN     C2       CG1N1    0.360000       12.0110           0
      9413 WT4      623      MECN     N3       NG1T1   -0.460000       14.0070           0
      9414 WT4      625      MECN     C1       CG331   -0.170000       12.0110           0
      9415 WT4      625      MECN     H11      HGA3     0.090000        1.0080           0
      9416 WT4      625      MECN     H12      HGA3     0.090000        1.0080           0
      9417 WT4      625      MECN     H13      HGA3     0.090000        1.0080           0
      9418 WT4      625      MECN     C2       CG1N1    0.360000       12.0110           0
      9419 WT4      625      MECN     N3       NG1T1   -0.460000       14.0070           0
      9420 WT4      633      MECN     C1       CG331   -0.170000       12.0110           0
      9421 WT4      633      MECN     H11      HGA3     0.090000        1.0080           0
      9422 WT4      633      MECN     H12      HGA3     0.090000        1.0080           0
      9423 WT4      633      MECN     H13      HGA3     0.090000        1.0080           0
      9424 WT4      633      MECN     C2       CG1N1    0.360000       12.0110           0
      9425 WT4      633      MECN     N3       NG1T1   -0.460000       14.0070           0
      9426 WT4      636      MECN     C1       CG331   -0.170000       12.0110           0
      9427 WT4      636      MECN     H11      HGA3     0.090000        1.0080           0
      9428 WT4      636      MECN     H12      HGA3     0.090000        1.0080           0
      9429 WT4      636      MECN     H13      HGA3     0.090000        1.0080           0
      9430 WT4      636      MECN     C2       CG1N1    0.360000       12.0110           0
      9431 WT4      636      MECN     N3       NG1T1   -0.460000       14.0070           0
      9432 WT4      639      MECN     C1       CG331   -0.170000       12.0110           0
      9433 WT4      639      MECN     H11      HGA3     0.090000        1.0080           0
      9434 WT4      639      MECN     H12      HGA3     0.090000        1.0080           0
      9435 WT4      639      MECN     H13      HGA3     0.090000        1.0080           0
      9436 WT4      639      MECN     C2       CG1N1    0.360000       12.0110           0
      9437 WT4      639      MECN     N3       NG1T1   -0.460000       14.0070           0
      9438 WT4      641      MECN     C1       CG331   -0.170000       12.0110           0
      9439 WT4      641      MECN     H11      HGA3     0.090000        1.0080           0
      9440 WT4      641      MECN     H12      HGA3     0.090000        1.0080           0
      9441 WT4      641      MECN     H13      HGA3     0.090000        1.0080           0
      9442 WT4      641      MECN     C2       CG1N1    0.360000       12.0110           0
      9443 WT4      641      MECN     N3       NG1T1   -0.460000       14.0070           0
      9444 WT4      644      MECN     C1       CG331   -0.170000       12.0110           0
      9445 WT4      644      MECN     H11      HGA3     0.090000        1.0080           0
      9446 WT4      644      MECN     H12      HGA3     0.090000        1.0080           0
      9447 WT4      644      MECN     H13      HGA3     0.090000        1.0080           0
      9448 WT4      644      MECN     C2       CG1N1    0.360000       12.0110           0
      9449 WT4      644      MECN     N3       NG1T1   -0.460000       14.0070           0
      9450 WT4      646      MECN     C1       CG331   -0.170000       12.0110           0
      9451 WT4      646      MECN     H11      HGA3     0.090000        1.0080           0
      9452 WT4      646      MECN     H12      HGA3     0.090000        1.0080           0
      9453 WT4      646      MECN     H13      HGA3     0.090000        1.0080           0
      9454 WT4      646      MECN     C2       CG1N1    0.360000       12.0110           0
      9455 WT4      646      MECN     N3       NG1T1   -0.460000       14.0070           0
      9456 WT4      650      MECN     C1       CG331   -0.170000       12.0110           0
      9457 WT4      650      MECN     H11      HGA3     0.090000        1.0080           0
      9458 WT4      650      MECN     H12      HGA3     0.090000        1.0080           0
      9459 WT4      650      MECN     H13      HGA3     0.090000        1.0080           0
      9460 WT4      650      MECN     C2       CG1N1    0.360000       12.0110           0
      9461 WT4      650      MECN     N3       NG1T1   -0.460000       14.0070           0
      9462 WT4      651      MECN     C1       CG331   -0.170000       12.0110           0
      9463 WT4      651      MECN     H11      HGA3     0.090000        1.0080           0
      9464 WT4      651      MECN     H12      HGA3     0.090000        1.0080           0
      9465 WT4      651      MECN     H13      HGA3     0.090000        1.0080           0
      9466 WT4      651      MECN     C2       CG1N1    0.360000       12.0110           0
      9467 WT4      651      MECN     N3       NG1T1   -0.460000       14.0070           0
      9468 WT4      655      MECN     C1       CG331   -0.170000       12.0110           0
      9469 WT4      655      MECN     H11      HGA3     0.090000        1.0080           0
      9470 WT4      655      MECN     H12      HGA3     0.090000        1.0080           0
      9471 WT4      655      MECN     H13      HGA3     0.090000        1.0080           0
      9472 WT4      655      MECN     C2       CG1N1    0.360000       12.0110           0
      9473 WT4      655      MECN     N3       NG1T1   -0.460000       14.0070           0
      9474 WT4      656      MECN     C1       CG331   -0.170000       12.0110           0
      9475 WT4      656      MECN     H11      HGA3     0.090000        1.0080           0
      9476 WT4      656      MECN     H12      HGA3     0.090000        1.0080           0
      9477 WT4      656      MECN     H13      HGA3     0.090000        1.0080           0
      9478 WT4      656      MECN     C2       CG1N1    0.360000       12.0110           0
      9479 WT4      656      MECN     N3       NG1T1   -0.460000       14.0070           0
      9480 WT4      657      MECN     C1       CG331   -0.170000       12.0110           0
      9481 WT4      657      MECN     H11      HGA3     0.090000        1.0080           0
      9482 WT4      657      MECN     H12      HGA3     0.090000        1.0080           0
      9483 WT4      657      MECN     H13      HGA3     0.090000        1.0080           0
      9484 WT4      657      MECN     C2       CG1N1    0.360000       12.0110           0
      9485 WT4      657      MECN     N3       NG1T1   -0.460000       14.0070           0
      9486 WT4      658      MECN     C1       CG331   -0.170000       12.0110           0
      9487 WT4      658      MECN     H11      HGA3     0.090000        1.0080           0
      9488 WT4      658      MECN     H12      HGA3     0.090000        1.0080           0
      9489 WT4      658      MECN     H13      HGA3     0.090000        1.0080           0
      9490 WT4      658      MECN     C2       CG1N1    0.360000       12.0110           0
      9491 WT4      658      MECN     N3       NG1T1   -0.460000       14.0070           0
      9492 WT4      659      MECN     C1       CG331   -0.170000       12.0110           0
      9493 WT4      659      MECN     H11      HGA3     0.090000        1.0080           0
      9494 WT4      659      MECN     H12      HGA3     0.090000        1.0080           0
      9495 WT4      659      MECN     H13      HGA3     0.090000        1.0080           0
      9496 WT4      659      MECN     C2       CG1N1    0.360000       12.0110           0
      9497 WT4      659      MECN     N3       NG1T1   -0.460000       14.0070           0
      9498 WT4      661      MECN     C1       CG331   -0.170000       12.0110           0
      9499 WT4      661      MECN     H11      HGA3     0.090000        1.0080           0
      9500 WT4      661      MECN     H12      HGA3     0.090000        1.0080           0
      9501 WT4      661      MECN     H13      HGA3     0.090000        1.0080           0
      9502 WT4      661      MECN     C2       CG1N1    0.360000       12.0110           0
      9503 WT4      661      MECN     N3       NG1T1   -0.460000       14.0070           0
      9504 WT4      664      MECN     C1       CG331   -0.170000       12.0110           0
      9505 WT4      664      MECN     H11      HGA3     0.090000        1.0080           0
      9506 WT4      664      MECN     H12      HGA3     0.090000        1.0080           0
      9507 WT4      664      MECN     H13      HGA3     0.090000        1.0080           0
      9508 WT4      664      MECN     C2       CG1N1    0.360000       12.0110           0
      9509 WT4      664      MECN     N3       NG1T1   -0.460000       14.0070           0
      9510 WT4      667      MECN     C1       CG331   -0.170000       12.0110           0
      9511 WT4      667      MECN     H11      HGA3     0.090000        1.0080           0
      9512 WT4      667      MECN     H12      HGA3     0.090000        1.0080           0
      9513 WT4      667      MECN     H13      HGA3     0.090000        1.0080           0
      9514 WT4      667      MECN     C2       CG1N1    0.360000       12.0110           0
      9515 WT4      667      MECN     N3       NG1T1   -0.460000       14.0070           0
      9516 WT4      672      MECN     C1       CG331   -0.170000       12.0110           0
      9517 WT4      672      MECN     H11      HGA3     0.090000        1.0080           0
      9518 WT4      672      MECN     H12      HGA3     0.090000        1.0080           0
      9519 WT4      672      MECN     H13      HGA3     0.090000        1.0080           0
      9520 WT4      672      MECN     C2       CG1N1    0.360000       12.0110           0
      9521 WT4      672      MECN     N3       NG1T1   -0.460000       14.0070           0
      9522 WT4      673      MECN     C1       CG331   -0.170000       12.0110           0
      9523 WT4      673      MECN     H11      HGA3     0.090000        1.0080           0
      9524 WT4      673      MECN     H12      HGA3     0.090000        1.0080           0
      9525 WT4      673      MECN     H13      HGA3     0.090000        1.0080           0
      9526 WT4      673      MECN     C2       CG1N1    0.360000       12.0110           0
      9527 WT4      673      MECN     N3       NG1T1   -0.460000       14.0070           0
      9528 WT4      674      MECN     C1       CG331   -0.170000       12.0110           0
      9529 WT4      674      MECN     H11      HGA3     0.090000        1.0080           0
      9530 WT4      674      MECN     H12      HGA3     0.090000        1.0080           0
      9531 WT4      674      MECN     H13      HGA3     0.090000        1.0080           0
      9532 WT4      674      MECN     C2       CG1N1    0.360000       12.0110           0
      9533 WT4      674      MECN     N3       NG1T1   -0.460000       14.0070           0
      9534 WT4      678      MECN     C1       CG331   -0.170000       12.0110           0
      9535 WT4      678      MECN     H11      HGA3     0.090000        1.0080           0
      9536 WT4      678      MECN     H12      HGA3     0.090000        1.0080           0
      9537 WT4      678      MECN     H13      HGA3     0.090000        1.0080           0
      9538 WT4      678      MECN     C2       CG1N1    0.360000       12.0110           0
      9539 WT4      678      MECN     N3       NG1T1   -0.460000       14.0070           0
      9540 WT4      680      MECN     C1       CG331   -0.170000       12.0110           0
      9541 WT4      680      MECN     H11      HGA3     0.090000        1.0080           0
      9542 WT4      680      MECN     H12      HGA3     0.090000        1.0080           0
      9543 WT4      680      MECN     H13      HGA3     0.090000        1.0080           0
      9544 WT4      680      MECN     C2       CG1N1    0.360000       12.0110           0
      9545 WT4      680      MECN     N3       NG1T1   -0.460000       14.0070           0
      9546 WT4      681      MECN     C1       CG331   -0.170000       12.0110           0
      9547 WT4      681      MECN     H11      HGA3     0.090000        1.0080           0
      9548 WT4      681      MECN     H12      HGA3     0.090000        1.0080           0
      9549 WT4      681      MECN     H13      HGA3     0.090000        1.0080           0
      9550 WT4      681      MECN     C2       CG1N1    0.360000       12.0110           0
      9551 WT4      681      MECN     N3       NG1T1   -0.460000       14.0070           0
      9552 WT4      691      MECN     C1       CG331   -0.170000       12.0110           0
      9553 WT4      691      MECN     H11      HGA3     0.090000        1.0080           0
      9554 WT4      691      MECN     H12      HGA3     0.090000        1.0080           0
      9555 WT4      691      MECN     H13      HGA3     0.090000        1.0080           0
      9556 WT4      691      MECN     C2       CG1N1    0.360000       12.0110           0
      9557 WT4      691      MECN     N3       NG1T1   -0.460000       14.0070           0
      9558 WT4      696      MECN     C1       CG331   -0.170000       12.0110           0
      9559 WT4      696      MECN     H11      HGA3     0.090000        1.0080           0
      9560 WT4      696      MECN     H12      HGA3     0.090000        1.0080           0
      9561 WT4      696      MECN     H13      HGA3     0.090000        1.0080           0
      9562 WT4      696      MECN     C2       CG1N1    0.360000       12.0110           0
      9563 WT4      696      MECN     N3       NG1T1   -0.460000       14.0070           0
      9564 WT4      700      MECN     C1       CG331   -0.170000       12.0110           0
      9565 WT4      700      MECN     H11      HGA3     0.090000        1.0080           0
      9566 WT4      700      MECN     H12      HGA3     0.090000        1.0080           0
      9567 WT4      700      MECN     H13      HGA3     0.090000        1.0080           0
      9568 WT4      700      MECN     C2       CG1N1    0.360000       12.0110           0
      9569 WT4      700      MECN     N3       NG1T1   -0.460000       14.0070           0
      9570 WT4      710      MECN     C1       CG331   -0.170000       12.0110           0
      9571 WT4      710      MECN     H11      HGA3     0.090000        1.0080           0
      9572 WT4      710      MECN     H12      HGA3     0.090000        1.0080           0
      9573 WT4      710      MECN     H13      HGA3     0.090000        1.0080           0
      9574 WT4      710      MECN     C2       CG1N1    0.360000       12.0110           0
      9575 WT4      710      MECN     N3       NG1T1   -0.460000       14.0070           0
      9576 WT4      711      MECN     C1       CG331   -0.170000       12.0110           0
      9577 WT4      711      MECN     H11      HGA3     0.090000        1.0080           0
      9578 WT4      711      MECN     H12      HGA3     0.090000        1.0080           0
      9579 WT4      711      MECN     H13      HGA3     0.090000        1.0080           0
      9580 WT4      711      MECN     C2       CG1N1    0.360000       12.0110           0
      9581 WT4      711      MECN     N3       NG1T1   -0.460000       14.0070           0
      9582 WT4      714      MECN     C1       CG331   -0.170000       12.0110           0
      9583 WT4      714      MECN     H11      HGA3     0.090000        1.0080           0
      9584 WT4      714      MECN     H12      HGA3     0.090000        1.0080           0
      9585 WT4      714      MECN     H13      HGA3     0.090000        1.0080           0
      9586 WT4      714      MECN     C2       CG1N1    0.360000       12.0110           0
      9587 WT4      714      MECN     N3       NG1T1   -0.460000       14.0070           0
      9588 WT4      722      MECN     C1       CG331   -0.170000       12.0110           0
      9589 WT4      722      MECN     H11      HGA3     0.090000        1.0080           0
      9590 WT4      722      MECN     H12      HGA3     0.090000        1.0080           0
      9591 WT4      722      MECN     H13      HGA3     0.090000        1.0080           0
      9592 WT4      722      MECN     C2       CG1N1    0.360000       12.0110           0
      9593 WT4      722      MECN     N3       NG1T1   -0.460000       14.0070           0
      9594 WT4      724      MECN     C1       CG331   -0.170000       12.0110           0
      9595 WT4      724      MECN     H11      HGA3     0.090000        1.0080           0
      9596 WT4      724      MECN     H12      HGA3     0.090000        1.0080           0
      9597 WT4      724      MECN     H13      HGA3     0.090000        1.0080           0
      9598 WT4      724      MECN     C2       CG1N1    0.360000       12.0110           0
      9599 WT4      724      MECN     N3       NG1T1   -0.460000       14.0070           0
      9600 WT4      725      MECN     C1       CG331   -0.170000       12.0110           0
      9601 WT4      725      MECN     H11      HGA3     0.090000        1.0080           0
      9602 WT4      725      MECN     H12      HGA3     0.090000        1.0080           0
      9603 WT4      725      MECN     H13      HGA3     0.090000        1.0080           0
      9604 WT4      725      MECN     C2       CG1N1    0.360000       12.0110           0
      9605 WT4      725      MECN     N3       NG1T1   -0.460000       14.0070           0
      9606 WT4      726      MECN     C1       CG331   -0.170000       12.0110           0
      9607 WT4      726      MECN     H11      HGA3     0.090000        1.0080           0
      9608 WT4      726      MECN     H12      HGA3     0.090000        1.0080           0
      9609 WT4      726      MECN     H13      HGA3     0.090000        1.0080           0
      9610 WT4      726      MECN     C2       CG1N1    0.360000       12.0110           0
      9611 WT4      726      MECN     N3       NG1T1   -0.460000       14.0070           0
      9612 WT4      727      MECN     C1       CG331   -0.170000       12.0110           0
      9613 WT4      727      MECN     H11      HGA3     0.090000        1.0080           0
      9614 WT4      727      MECN     H12      HGA3     0.090000        1.0080           0
      9615 WT4      727      MECN     H13      HGA3     0.090000        1.0080           0
      9616 WT4      727      MECN     C2       CG1N1    0.360000       12.0110           0
      9617 WT4      727      MECN     N3       NG1T1   -0.460000       14.0070           0
      9618 WT4      751      MECN     C1       CG331   -0.170000       12.0110           0
      9619 WT4      751      MECN     H11      HGA3     0.090000        1.0080           0
      9620 WT4      751      MECN     H12      HGA3     0.090000        1.0080           0
      9621 WT4      751      MECN     H13      HGA3     0.090000        1.0080           0
      9622 WT4      751      MECN     C2       CG1N1    0.360000       12.0110           0
      9623 WT4      751      MECN     N3       NG1T1   -0.460000       14.0070           0
      9624 WT4      762      MECN     C1       CG331   -0.170000       12.0110           0
      9625 WT4      762      MECN     H11      HGA3     0.090000        1.0080           0
      9626 WT4      762      MECN     H12      HGA3     0.090000        1.0080           0
      9627 WT4      762      MECN     H13      HGA3     0.090000        1.0080           0
      9628 WT4      762      MECN     C2       CG1N1    0.360000       12.0110           0
      9629 WT4      762      MECN     N3       NG1T1   -0.460000       14.0070           0
      9630 WT4      765      MECN     C1       CG331   -0.170000       12.0110           0
      9631 WT4      765      MECN     H11      HGA3     0.090000        1.0080           0
      9632 WT4      765      MECN     H12      HGA3     0.090000        1.0080           0
      9633 WT4      765      MECN     H13      HGA3     0.090000        1.0080           0
      9634 WT4      765      MECN     C2       CG1N1    0.360000       12.0110           0
      9635 WT4      765      MECN     N3       NG1T1   -0.460000       14.0070           0
      9636 WT4      770      MECN     C1       CG331   -0.170000       12.0110           0
      9637 WT4      770      MECN     H11      HGA3     0.090000        1.0080           0
      9638 WT4      770      MECN     H12      HGA3     0.090000        1.0080           0
      9639 WT4      770      MECN     H13      HGA3     0.090000        1.0080           0
      9640 WT4      770      MECN     C2       CG1N1    0.360000       12.0110           0
      9641 WT4      770      MECN     N3       NG1T1   -0.460000       14.0070           0
      9642 WT4      771      MECN     C1       CG331   -0.170000       12.0110           0
      9643 WT4      771      MECN     H11      HGA3     0.090000        1.0080           0
      9644 WT4      771      MECN     H12      HGA3     0.090000        1.0080           0
      9645 WT4      771      MECN     H13      HGA3     0.090000        1.0080           0
      9646 WT4      771      MECN     C2       CG1N1    0.360000       12.0110           0
      9647 WT4      771      MECN     N3       NG1T1   -0.460000       14.0070           0
      9648 WT4      774      MECN     C1       CG331   -0.170000       12.0110           0
      9649 WT4      774      MECN     H11      HGA3     0.090000        1.0080           0
      9650 WT4      774      MECN     H12      HGA3     0.090000        1.0080           0
      9651 WT4      774      MECN     H13      HGA3     0.090000        1.0080           0
      9652 WT4      774      MECN     C2       CG1N1    0.360000       12.0110           0
      9653 WT4      774      MECN     N3       NG1T1   -0.460000       14.0070           0
      9654 WT4      783      MECN     C1       CG331   -0.170000       12.0110           0
      9655 WT4      783      MECN     H11      HGA3     0.090000        1.0080           0
      9656 WT4      783      MECN     H12      HGA3     0.090000        1.0080           0
      9657 WT4      783      MECN     H13      HGA3     0.090000        1.0080           0
      9658 WT4      783      MECN     C2       CG1N1    0.360000       12.0110           0
      9659 WT4      783      MECN     N3       NG1T1   -0.460000       14.0070           0
      9660 WT4      788      MECN     C1       CG331   -0.170000       12.0110           0
      9661 WT4      788      MECN     H11      HGA3     0.090000        1.0080           0
      9662 WT4      788      MECN     H12      HGA3     0.090000        1.0080           0
      9663 WT4      788      MECN     H13      HGA3     0.090000        1.0080           0
      9664 WT4      788      MECN     C2       CG1N1    0.360000       12.0110           0
      9665 WT4      788      MECN     N3       NG1T1   -0.460000       14.0070           0
      9666 WT4      791      MECN     C1       CG331   -0.170000       12.0110           0
      9667 WT4      791      MECN     H11      HGA3     0.090000        1.0080           0
      9668 WT4      791      MECN     H12      HGA3     0.090000        1.0080           0
      9669 WT4      791      MECN     H13      HGA3     0.090000        1.0080           0
      9670 WT4      791      MECN     C2       CG1N1    0.360000       12.0110           0
      9671 WT4      791      MECN     N3       NG1T1   -0.460000       14.0070           0
      9672 WT4      793      MECN     C1       CG331   -0.170000       12.0110           0
      9673 WT4      793      MECN     H11      HGA3     0.090000        1.0080           0
      9674 WT4      793      MECN     H12      HGA3     0.090000        1.0080           0
      9675 WT4      793      MECN     H13      HGA3     0.090000        1.0080           0
      9676 WT4      793      MECN     C2       CG1N1    0.360000       12.0110           0
      9677 WT4      793      MECN     N3       NG1T1   -0.460000       14.0070           0
      9678 WT4      794      MECN     C1       CG331   -0.170000       12.0110           0
      9679 WT4      794      MECN     H11      HGA3     0.090000        1.0080           0
      9680 WT4      794      MECN     H12      HGA3     0.090000        1.0080           0
      9681 WT4      794      MECN     H13      HGA3     0.090000        1.0080           0
      9682 WT4      794      MECN     C2       CG1N1    0.360000       12.0110           0
      9683 WT4      794      MECN     N3       NG1T1   -0.460000       14.0070           0
      9684 WT4      805      MECN     C1       CG331   -0.170000       12.0110           0
      9685 WT4      805      MECN     H11      HGA3     0.090000        1.0080           0
      9686 WT4      805      MECN     H12      HGA3     0.090000        1.0080           0
      9687 WT4      805      MECN     H13      HGA3     0.090000        1.0080           0
      9688 WT4      805      MECN     C2       CG1N1    0.360000       12.0110           0
      9689 WT4      805      MECN     N3       NG1T1   -0.460000       14.0070           0
      9690 WT4      807      MECN     C1       CG331   -0.170000       12.0110           0
      9691 WT4      807      MECN     H11      HGA3     0.090000        1.0080           0
      9692 WT4      807      MECN     H12      HGA3     0.090000        1.0080           0
      9693 WT4      807      MECN     H13      HGA3     0.090000        1.0080           0
      9694 WT4      807      MECN     C2       CG1N1    0.360000       12.0110           0
      9695 WT4      807      MECN     N3       NG1T1   -0.460000       14.0070           0
      9696 WT4      808      MECN     C1       CG331   -0.170000       12.0110           0
      9697 WT4      808      MECN     H11      HGA3     0.090000        1.0080           0
      9698 WT4      808      MECN     H12      HGA3     0.090000        1.0080           0
      9699 WT4      808      MECN     H13      HGA3     0.090000        1.0080           0
      9700 WT4      808      MECN     C2       CG1N1    0.360000       12.0110           0
      9701 WT4      808      MECN     N3       NG1T1   -0.460000       14.0070           0
      9702 WT4      818      MECN     C1       CG331   -0.170000       12.0110           0
      9703 WT4      818      MECN     H11      HGA3     0.090000        1.0080           0
      9704 WT4      818      MECN     H12      HGA3     0.090000        1.0080           0
      9705 WT4      818      MECN     H13      HGA3     0.090000        1.0080           0
      9706 WT4      818      MECN     C2       CG1N1    0.360000       12.0110           0
      9707 WT4      818      MECN     N3       NG1T1   -0.460000       14.0070           0
      9708 WT4      832      MECN     C1       CG331   -0.170000       12.0110           0
      9709 WT4      832      MECN     H11      HGA3     0.090000        1.0080           0
      9710 WT4      832      MECN     H12      HGA3     0.090000        1.0080           0
      9711 WT4      832      MECN     H13      HGA3     0.090000        1.0080           0
      9712 WT4      832      MECN     C2       CG1N1    0.360000       12.0110           0
      9713 WT4      832      MECN     N3       NG1T1   -0.460000       14.0070           0
      9714 WT4      839      MECN     C1       CG331   -0.170000       12.0110           0
      9715 WT4      839      MECN     H11      HGA3     0.090000        1.0080           0
      9716 WT4      839      MECN     H12      HGA3     0.090000        1.0080           0
      9717 WT4      839      MECN     H13      HGA3     0.090000        1.0080           0
      9718 WT4      839      MECN     C2       CG1N1    0.360000       12.0110           0
      9719 WT4      839      MECN     N3       NG1T1   -0.460000       14.0070           0
      9720 WT4      841      MECN     C1       CG331   -0.170000       12.0110           0
      9721 WT4      841      MECN     H11      HGA3     0.090000        1.0080           0
      9722 WT4      841      MECN     H12      HGA3     0.090000        1.0080           0
      9723 WT4      841      MECN     H13      HGA3     0.090000        1.0080           0
      9724 WT4      841      MECN     C2       CG1N1    0.360000       12.0110           0
      9725 WT4      841      MECN     N3       NG1T1   -0.460000       14.0070           0
      9726 WT4      846      MECN     C1       CG331   -0.170000       12.0110           0
      9727 WT4      846      MECN     H11      HGA3     0.090000        1.0080           0
      9728 WT4      846      MECN     H12      HGA3     0.090000        1.0080           0
      9729 WT4      846      MECN     H13      HGA3     0.090000        1.0080           0
      9730 WT4      846      MECN     C2       CG1N1    0.360000       12.0110           0
      9731 WT4      846      MECN     N3       NG1T1   -0.460000       14.0070           0
      9732 WT4      848      MECN     C1       CG331   -0.170000       12.0110           0
      9733 WT4      848      MECN     H11      HGA3     0.090000        1.0080           0
      9734 WT4      848      MECN     H12      HGA3     0.090000        1.0080           0
      9735 WT4      848      MECN     H13      HGA3     0.090000        1.0080           0
      9736 WT4      848      MECN     C2       CG1N1    0.360000       12.0110           0
      9737 WT4      848      MECN     N3       NG1T1   -0.460000       14.0070           0
      9738 WT4      856      MECN     C1       CG331   -0.170000       12.0110           0
      9739 WT4      856      MECN     H11      HGA3     0.090000        1.0080           0
      9740 WT4      856      MECN     H12      HGA3     0.090000        1.0080           0
      9741 WT4      856      MECN     H13      HGA3     0.090000        1.0080           0
      9742 WT4      856      MECN     C2       CG1N1    0.360000       12.0110           0
      9743 WT4      856      MECN     N3       NG1T1   -0.460000       14.0070           0
      9744 WT4      862      MECN     C1       CG331   -0.170000       12.0110           0
      9745 WT4      862      MECN     H11      HGA3     0.090000        1.0080           0
      9746 WT4      862      MECN     H12      HGA3     0.090000        1.0080           0
      9747 WT4      862      MECN     H13      HGA3     0.090000        1.0080           0
      9748 WT4      862      MECN     C2       CG1N1    0.360000       12.0110           0
      9749 WT4      862      MECN     N3       NG1T1   -0.460000       14.0070           0
      9750 WT4      863      MECN     C1       CG331   -0.170000       12.0110           0
      9751 WT4      863      MECN     H11      HGA3     0.090000        1.0080           0
      9752 WT4      863      MECN     H12      HGA3     0.090000        1.0080           0
      9753 WT4      863      MECN     H13      HGA3     0.090000        1.0080           0
      9754 WT4      863      MECN     C2       CG1N1    0.360000       12.0110           0
      9755 WT4      863      MECN     N3       NG1T1   -0.460000       14.0070           0
      9756 WT4      866      MECN     C1       CG331   -0.170000       12.0110           0
      9757 WT4      866      MECN     H11      HGA3     0.090000        1.0080           0
      9758 WT4      866      MECN     H12      HGA3     0.090000        1.0080           0
      9759 WT4      866      MECN     H13      HGA3     0.090000        1.0080           0
      9760 WT4      866      MECN     C2       CG1N1    0.360000       12.0110           0
      9761 WT4      866      MECN     N3       NG1T1   -0.460000       14.0070           0
      9762 WT4      867      MECN     C1       CG331   -0.170000       12.0110           0
      9763 WT4      867      MECN     H11      HGA3     0.090000        1.0080           0
      9764 WT4      867      MECN     H12      HGA3     0.090000        1.0080           0
      9765 WT4      867      MECN     H13      HGA3     0.090000        1.0080           0
      9766 WT4      867      MECN     C2       CG1N1    0.360000       12.0110           0
      9767 WT4      867      MECN     N3       NG1T1   -0.460000       14.0070           0
      9768 WT4      875      MECN     C1       CG331   -0.170000       12.0110           0
      9769 WT4      875      MECN     H11      HGA3     0.090000        1.0080           0
      9770 WT4      875      MECN     H12      HGA3     0.090000        1.0080           0
      9771 WT4      875      MECN     H13      HGA3     0.090000        1.0080           0
      9772 WT4      875      MECN     C2       CG1N1    0.360000       12.0110           0
      9773 WT4      875      MECN     N3       NG1T1   -0.460000       14.0070           0
      9774 WT4      882      MECN     C1       CG331   -0.170000       12.0110           0
      9775 WT4      882      MECN     H11      HGA3     0.090000        1.0080           0
      9776 WT4      882      MECN     H12      HGA3     0.090000        1.0080           0
      9777 WT4      882      MECN     H13      HGA3     0.090000        1.0080           0
      9778 WT4      882      MECN     C2       CG1N1    0.360000       12.0110           0
      9779 WT4      882      MECN     N3       NG1T1   -0.460000       14.0070           0
      9780 WT4      892      MECN     C1       CG331   -0.170000       12.0110           0
      9781 WT4      892      MECN     H11      HGA3     0.090000        1.0080           0
      9782 WT4      892      MECN     H12      HGA3     0.090000        1.0080           0
      9783 WT4      892      MECN     H13      HGA3     0.090000        1.0080           0
      9784 WT4      892      MECN     C2       CG1N1    0.360000       12.0110           0
      9785 WT4      892      MECN     N3       NG1T1   -0.460000       14.0070           0
      9786 WT4      895      MECN     C1       CG331   -0.170000       12.0110           0
      9787 WT4      895      MECN     H11      HGA3     0.090000        1.0080           0
      9788 WT4      895      MECN     H12      HGA3     0.090000        1.0080           0
      9789 WT4      895      MECN     H13      HGA3     0.090000        1.0080           0
      9790 WT4      895      MECN     C2       CG1N1    0.360000       12.0110           0
      9791 WT4      895      MECN     N3       NG1T1   -0.460000       14.0070           0
      9792 WT4      897      MECN     C1       CG331   -0.170000       12.0110           0
      9793 WT4      897      MECN     H11      HGA3     0.090000        1.0080           0
      9794 WT4      897      MECN     H12      HGA3     0.090000        1.0080           0
      9795 WT4      897      MECN     H13      HGA3     0.090000        1.0080           0
      9796 WT4      897      MECN     C2       CG1N1    0.360000       12.0110           0
      9797 WT4      897      MECN     N3       NG1T1   -0.460000       14.0070           0
      9798 WT4      898      MECN     C1       CG331   -0.170000       12.0110           0
      9799 WT4      898      MECN     H11      HGA3     0.090000        1.0080           0
      9800 WT4      898      MECN     H12      HGA3     0.090000        1.0080           0
      9801 WT4      898      MECN     H13      HGA3     0.090000        1.0080           0
      9802 WT4      898      MECN     C2       CG1N1    0.360000       12.0110           0
      9803 WT4      898      MECN     N3       NG1T1   -0.460000       14.0070           0
      9804 WT4      899      MECN     C1       CG331   -0.170000       12.0110           0
      9805 WT4      899      MECN     H11      HGA3     0.090000        1.0080           0
      9806 WT4      899      MECN     H12      HGA3     0.090000        1.0080           0
      9807 WT4      899      MECN     H13      HGA3     0.090000        1.0080           0
      9808 WT4      899      MECN     C2       CG1N1    0.360000       12.0110           0
      9809 WT4      899      MECN     N3       NG1T1   -0.460000       14.0070           0
      9810 WT4      902      MECN     C1       CG331   -0.170000       12.0110           0
      9811 WT4      902      MECN     H11      HGA3     0.090000        1.0080           0
      9812 WT4      902      MECN     H12      HGA3     0.090000        1.0080           0
      9813 WT4      902      MECN     H13      HGA3     0.090000        1.0080           0
      9814 WT4      902      MECN     C2       CG1N1    0.360000       12.0110           0
      9815 WT4      902      MECN     N3       NG1T1   -0.460000       14.0070           0
      9816 WT4      904      MECN     C1       CG331   -0.170000       12.0110           0
      9817 WT4      904      MECN     H11      HGA3     0.090000        1.0080           0
      9818 WT4      904      MECN     H12      HGA3     0.090000        1.0080           0
      9819 WT4      904      MECN     H13      HGA3     0.090000        1.0080           0
      9820 WT4      904      MECN     C2       CG1N1    0.360000       12.0110           0
      9821 WT4      904      MECN     N3       NG1T1   -0.460000       14.0070           0
      9822 WT4      908      MECN     C1       CG331   -0.170000       12.0110           0
      9823 WT4      908      MECN     H11      HGA3     0.090000        1.0080           0
      9824 WT4      908      MECN     H12      HGA3     0.090000        1.0080           0
      9825 WT4      908      MECN     H13      HGA3     0.090000        1.0080           0
      9826 WT4      908      MECN     C2       CG1N1    0.360000       12.0110           0
      9827 WT4      908      MECN     N3       NG1T1   -0.460000       14.0070           0
      9828 WT4      909      MECN     C1       CG331   -0.170000       12.0110           0
      9829 WT4      909      MECN     H11      HGA3     0.090000        1.0080           0
      9830 WT4      909      MECN     H12      HGA3     0.090000        1.0080           0
      9831 WT4      909      MECN     H13      HGA3     0.090000        1.0080           0
      9832 WT4      909      MECN     C2       CG1N1    0.360000       12.0110           0
      9833 WT4      909      MECN     N3       NG1T1   -0.460000       14.0070           0
      9834 WT4      913      MECN     C1       CG331   -0.170000       12.0110           0
      9835 WT4      913      MECN     H11      HGA3     0.090000        1.0080           0
      9836 WT4      913      MECN     H12      HGA3     0.090000        1.0080           0
      9837 WT4      913      MECN     H13      HGA3     0.090000        1.0080           0
      9838 WT4      913      MECN     C2       CG1N1    0.360000       12.0110           0
      9839 WT4      913      MECN     N3       NG1T1   -0.460000       14.0070           0
      9840 WT4      914      MECN     C1       CG331   -0.170000       12.0110           0
      9841 WT4      914      MECN     H11      HGA3     0.090000        1.0080           0
      9842 WT4      914      MECN     H12      HGA3     0.090000        1.0080           0
      9843 WT4      914      MECN     H13      HGA3     0.090000        1.0080           0
      9844 WT4      914      MECN     C2       CG1N1    0.360000       12.0110           0
      9845 WT4      914      MECN     N3       NG1T1   -0.460000       14.0070           0
      9846 WT4      916      MECN     C1       CG331   -0.170000       12.0110           0
      9847 WT4      916      MECN     H11      HGA3     0.090000        1.0080           0
      9848 WT4      916      MECN     H12      HGA3     0.090000        1.0080           0
      9849 WT4      916      MECN     H13      HGA3     0.090000        1.0080           0
      9850 WT4      916      MECN     C2       CG1N1    0.360000       12.0110           0
      9851 WT4      916      MECN     N3       NG1T1   -0.460000       14.0070           0
      9852 WT4      918      MECN     C1       CG331   -0.170000       12.0110           0
      9853 WT4      918      MECN     H11      HGA3     0.090000        1.0080           0
      9854 WT4      918      MECN     H12      HGA3     0.090000        1.0080           0
      9855 WT4      918      MECN     H13      HGA3     0.090000        1.0080           0
      9856 WT4      918      MECN     C2       CG1N1    0.360000       12.0110           0
      9857 WT4      918      MECN     N3       NG1T1   -0.460000       14.0070           0
      9858 WT4      919      MECN     C1       CG331   -0.170000       12.0110           0
      9859 WT4      919      MECN     H11      HGA3     0.090000        1.0080           0
      9860 WT4      919      MECN     H12      HGA3     0.090000        1.0080           0
      9861 WT4      919      MECN     H13      HGA3     0.090000        1.0080           0
      9862 WT4      919      MECN     C2       CG1N1    0.360000       12.0110           0
      9863 WT4      919      MECN     N3       NG1T1   -0.460000       14.0070           0
      9864 WT4      922      MECN     C1       CG331   -0.170000       12.0110           0
      9865 WT4      922      MECN     H11      HGA3     0.090000        1.0080           0
      9866 WT4      922      MECN     H12      HGA3     0.090000        1.0080           0
      9867 WT4      922      MECN     H13      HGA3     0.090000        1.0080           0
      9868 WT4      922      MECN     C2       CG1N1    0.360000       12.0110           0
      9869 WT4      922      MECN     N3       NG1T1   -0.460000       14.0070           0
      9870 WT4      934      MECN     C1       CG331   -0.170000       12.0110           0
      9871 WT4      934      MECN     H11      HGA3     0.090000        1.0080           0
      9872 WT4      934      MECN     H12      HGA3     0.090000        1.0080           0
      9873 WT4      934      MECN     H13      HGA3     0.090000        1.0080           0
      9874 WT4      934      MECN     C2       CG1N1    0.360000       12.0110           0
      9875 WT4      934      MECN     N3       NG1T1   -0.460000       14.0070           0
      9876 WT4      935      MECN     C1       CG331   -0.170000       12.0110           0
      9877 WT4      935      MECN     H11      HGA3     0.090000        1.0080           0
      9878 WT4      935      MECN     H12      HGA3     0.090000        1.0080           0
      9879 WT4      935      MECN     H13      HGA3     0.090000        1.0080           0
      9880 WT4      935      MECN     C2       CG1N1    0.360000       12.0110           0
      9881 WT4      935      MECN     N3       NG1T1   -0.460000       14.0070           0
      9882 WT4      938      MECN     C1       CG331   -0.170000       12.0110           0
      9883 WT4      938      MECN     H11      HGA3     0.090000        1.0080           0
      9884 WT4      938      MECN     H12      HGA3     0.090000        1.0080           0
      9885 WT4      938      MECN     H13      HGA3     0.090000        1.0080           0
      9886 WT4      938      MECN     C2       CG1N1    0.360000       12.0110           0
      9887 WT4      938      MECN     N3       NG1T1   -0.460000       14.0070           0
      9888 WT4      939      MECN     C1       CG331   -0.170000       12.0110           0
      9889 WT4      939      MECN     H11      HGA3     0.090000        1.0080           0
      9890 WT4      939      MECN     H12      HGA3     0.090000        1.0080           0
      9891 WT4      939      MECN     H13      HGA3     0.090000        1.0080           0
      9892 WT4      939      MECN     C2       CG1N1    0.360000       12.0110           0
      9893 WT4      939      MECN     N3       NG1T1   -0.460000       14.0070           0
      9894 WT4      941      MECN     C1       CG331   -0.170000       12.0110           0
      9895 WT4      941      MECN     H11      HGA3     0.090000        1.0080           0
      9896 WT4      941      MECN     H12      HGA3     0.090000        1.0080           0
      9897 WT4      941      MECN     H13      HGA3     0.090000        1.0080           0
      9898 WT4      941      MECN     C2       CG1N1    0.360000       12.0110           0
      9899 WT4      941      MECN     N3       NG1T1   -0.460000       14.0070           0
      9900 WT4      943      MECN     C1       CG331   -0.170000       12.0110           0
      9901 WT4      943      MECN     H11      HGA3     0.090000        1.0080           0
      9902 WT4      943      MECN     H12      HGA3     0.090000        1.0080           0
      9903 WT4      943      MECN     H13      HGA3     0.090000        1.0080           0
      9904 WT4      943      MECN     C2       CG1N1    0.360000       12.0110           0
      9905 WT4      943      MECN     N3       NG1T1   -0.460000       14.0070           0
      9906 WT4      945      MECN     C1       CG331   -0.170000       12.0110           0
      9907 WT4      945      MECN     H11      HGA3     0.090000        1.0080           0
      9908 WT4      945      MECN     H12      HGA3     0.090000        1.0080           0
      9909 WT4      945      MECN     H13      HGA3     0.090000        1.0080           0
      9910 WT4      945      MECN     C2       CG1N1    0.360000       12.0110           0
      9911 WT4      945      MECN     N3       NG1T1   -0.460000       14.0070           0
      9912 WT4      949      MECN     C1       CG331   -0.170000       12.0110           0
      9913 WT4      949      MECN     H11      HGA3     0.090000        1.0080           0
      9914 WT4      949      MECN     H12      HGA3     0.090000        1.0080           0
      9915 WT4      949      MECN     H13      HGA3     0.090000        1.0080           0
      9916 WT4      949      MECN     C2       CG1N1    0.360000       12.0110           0
      9917 WT4      949      MECN     N3       NG1T1   -0.460000       14.0070           0
      9918 WT4      957      MECN     C1       CG331   -0.170000       12.0110           0
      9919 WT4      957      MECN     H11      HGA3     0.090000        1.0080           0
      9920 WT4      957      MECN     H12      HGA3     0.090000        1.0080           0
      9921 WT4      957      MECN     H13      HGA3     0.090000        1.0080           0
      9922 WT4      957      MECN     C2       CG1N1    0.360000       12.0110           0
      9923 WT4      957      MECN     N3       NG1T1   -0.460000       14.0070           0
      9924 WT4      968      MECN     C1       CG331   -0.170000       12.0110           0
      9925 WT4      968      MECN     H11      HGA3     0.090000        1.0080           0
      9926 WT4      968      MECN     H12      HGA3     0.090000        1.0080           0
      9927 WT4      968      MECN     H13      HGA3     0.090000        1.0080           0
      9928 WT4      968      MECN     C2       CG1N1    0.360000       12.0110           0
      9929 WT4      968      MECN     N3       NG1T1   -0.460000       14.0070           0
      9930 WT4      982      MECN     C1       CG331   -0.170000       12.0110           0
      9931 WT4      982      MECN     H11      HGA3     0.090000        1.0080           0
      9932 WT4      982      MECN     H12      HGA3     0.090000        1.0080           0
      9933 WT4      982      MECN     H13      HGA3     0.090000        1.0080           0
      9934 WT4      982      MECN     C2       CG1N1    0.360000       12.0110           0
      9935 WT4      982      MECN     N3       NG1T1   -0.460000       14.0070           0
      9936 WT4      983      MECN     C1       CG331   -0.170000       12.0110           0
      9937 WT4      983      MECN     H11      HGA3     0.090000        1.0080           0
      9938 WT4      983      MECN     H12      HGA3     0.090000        1.0080           0
      9939 WT4      983      MECN     H13      HGA3     0.090000        1.0080           0
      9940 WT4      983      MECN     C2       CG1N1    0.360000       12.0110           0
      9941 WT4      983      MECN     N3       NG1T1   -0.460000       14.0070           0
      9942 WT4      986      MECN     C1       CG331   -0.170000       12.0110           0
      9943 WT4      986      MECN     H11      HGA3     0.090000        1.0080           0
      9944 WT4      986      MECN     H12      HGA3     0.090000        1.0080           0
      9945 WT4      986      MECN     H13      HGA3     0.090000        1.0080           0
      9946 WT4      986      MECN     C2       CG1N1    0.360000       12.0110           0
      9947 WT4      986      MECN     N3       NG1T1   -0.460000       14.0070           0
      9948 WT4      987      MECN     C1       CG331   -0.170000       12.0110           0
      9949 WT4      987      MECN     H11      HGA3     0.090000        1.0080           0
      9950 WT4      987      MECN     H12      HGA3     0.090000        1.0080           0
      9951 WT4      987      MECN     H13      HGA3     0.090000        1.0080           0
      9952 WT4      987      MECN     C2       CG1N1    0.360000       12.0110           0
      9953 WT4      987      MECN     N3       NG1T1   -0.460000       14.0070           0
      9954 WT4      988      MECN     C1       CG331   -0.170000       12.0110           0
      9955 WT4      988      MECN     H11      HGA3     0.090000        1.0080           0
      9956 WT4      988      MECN     H12      HGA3     0.090000        1.0080           0
      9957 WT4      988      MECN     H13      HGA3     0.090000        1.0080           0
      9958 WT4      988      MECN     C2       CG1N1    0.360000       12.0110           0
      9959 WT4      988      MECN     N3       NG1T1   -0.460000       14.0070           0
      9960 WT4      989      MECN     C1       CG331   -0.170000       12.0110           0
      9961 WT4      989      MECN     H11      HGA3     0.090000        1.0080           0
      9962 WT4      989      MECN     H12      HGA3     0.090000        1.0080           0
      9963 WT4      989      MECN     H13      HGA3     0.090000        1.0080           0
      9964 WT4      989      MECN     C2       CG1N1    0.360000       12.0110           0
      9965 WT4      989      MECN     N3       NG1T1   -0.460000       14.0070           0
      9966 WT4      990      MECN     C1       CG331   -0.170000       12.0110           0
      9967 WT4      990      MECN     H11      HGA3     0.090000        1.0080           0
      9968 WT4      990      MECN     H12      HGA3     0.090000        1.0080           0
      9969 WT4      990      MECN     H13      HGA3     0.090000        1.0080           0
      9970 WT4      990      MECN     C2       CG1N1    0.360000       12.0110           0
      9971 WT4      990      MECN     N3       NG1T1   -0.460000       14.0070           0
      9972 WT4      994      MECN     C1       CG331   -0.170000       12.0110           0
      9973 WT4      994      MECN     H11      HGA3     0.090000        1.0080           0
      9974 WT4      994      MECN     H12      HGA3     0.090000        1.0080           0
      9975 WT4      994      MECN     H13      HGA3     0.090000        1.0080           0
      9976 WT4      994      MECN     C2       CG1N1    0.360000       12.0110           0
      9977 WT4      994      MECN     N3       NG1T1   -0.460000       14.0070           0
      9978 WT4      999      MECN     C1       CG331   -0.170000       12.0110           0
      9979 WT4      999      MECN     H11      HGA3     0.090000        1.0080           0
      9980 WT4      999      MECN     H12      HGA3     0.090000        1.0080           0
      9981 WT4      999      MECN     H13      HGA3     0.090000        1.0080           0
      9982 WT4      999      MECN     C2       CG1N1    0.360000       12.0110           0
      9983 WT4      999      MECN     N3       NG1T1   -0.460000       14.0070           0
      9984 WT4      1004     MECN     C1       CG331   -0.170000       12.0110           0
      9985 WT4      1004     MECN     H11      HGA3     0.090000        1.0080           0
      9986 WT4      1004     MECN     H12      HGA3     0.090000        1.0080           0
      9987 WT4      1004     MECN     H13      HGA3     0.090000        1.0080           0
      9988 WT4      1004     MECN     C2       CG1N1    0.360000       12.0110           0
      9989 WT4      1004     MECN     N3       NG1T1   -0.460000       14.0070           0
      9990 WT4      1006     MECN     C1       CG331   -0.170000       12.0110           0
      9991 WT4      1006     MECN     H11      HGA3     0.090000        1.0080           0
      9992 WT4      1006     MECN     H12      HGA3     0.090000        1.0080           0
      9993 WT4      1006     MECN     H13      HGA3     0.090000        1.0080           0
      9994 WT4      1006     MECN     C2       CG1N1    0.360000       12.0110           0
      9995 WT4      1006     MECN     N3       NG1T1   -0.460000       14.0070           0
      9996 WT4      1010     MECN     C1       CG331   -0.170000       12.0110           0
      9997 WT4      1010     MECN     H11      HGA3     0.090000        1.0080           0
      9998 WT4      1010     MECN     H12      HGA3     0.090000        1.0080           0
      9999 WT4      1010     MECN     H13      HGA3     0.090000        1.0080           0
     10000 WT4      1010     MECN     C2       CG1N1    0.360000       12.0110           0
     10001 WT4      1010     MECN     N3       NG1T1   -0.460000       14.0070           0
     10002 WT4      1015     MECN     C1       CG331   -0.170000       12.0110           0
     10003 WT4      1015     MECN     H11      HGA3     0.090000        1.0080           0
     10004 WT4      1015     MECN     H12      HGA3     0.090000        1.0080           0
     10005 WT4      1015     MECN     H13      HGA3     0.090000        1.0080           0
     10006 WT4      1015     MECN     C2       CG1N1    0.360000       12.0110           0
     10007 WT4      1015     MECN     N3       NG1T1   -0.460000       14.0070           0
     10008 WT4      1019     MECN     C1       CG331   -0.170000       12.0110           0
     10009 WT4      1019     MECN     H11      HGA3     0.090000        1.0080           0
     10010 WT4      1019     MECN     H12      HGA3     0.090000        1.0080           0
     10011 WT4      1019     MECN     H13      HGA3     0.090000        1.0080           0
     10012 WT4      1019     MECN     C2       CG1N1    0.360000       12.0110           0
     10013 WT4      1019     MECN     N3       NG1T1   -0.460000       14.0070           0
     10014 WT4      1020     MECN     C1       CG331   -0.170000       12.0110           0
     10015 WT4      1020     MECN     H11      HGA3     0.090000        1.0080           0
     10016 WT4      1020     MECN     H12      HGA3     0.090000        1.0080           0
     10017 WT4      1020     MECN     H13      HGA3     0.090000        1.0080           0
     10018 WT4      1020     MECN     C2       CG1N1    0.360000       12.0110           0
     10019 WT4      1020     MECN     N3       NG1T1   -0.460000       14.0070           0
     10020 WT4      1023     MECN     C1       CG331   -0.170000       12.0110           0
     10021 WT4      1023     MECN     H11      HGA3     0.090000        1.0080           0
     10022 WT4      1023     MECN     H12      HGA3     0.090000        1.0080           0
     10023 WT4      1023     MECN     H13      HGA3     0.090000        1.0080           0
     10024 WT4      1023     MECN     C2       CG1N1    0.360000       12.0110           0
     10025 WT4      1023     MECN     N3       NG1T1   -0.460000       14.0070           0
     10026 WT4      1030     MECN     C1       CG331   -0.170000       12.0110           0
     10027 WT4      1030     MECN     H11      HGA3     0.090000        1.0080           0
     10028 WT4      1030     MECN     H12      HGA3     0.090000        1.0080           0
     10029 WT4      1030     MECN     H13      HGA3     0.090000        1.0080           0
     10030 WT4      1030     MECN     C2       CG1N1    0.360000       12.0110           0
     10031 WT4      1030     MECN     N3       NG1T1   -0.460000       14.0070           0
     10032 WT4      1036     MECN     C1       CG331   -0.170000       12.0110           0
     10033 WT4      1036     MECN     H11      HGA3     0.090000        1.0080           0
     10034 WT4      1036     MECN     H12      HGA3     0.090000        1.0080           0
     10035 WT4      1036     MECN     H13      HGA3     0.090000        1.0080           0
     10036 WT4      1036     MECN     C2       CG1N1    0.360000       12.0110           0
     10037 WT4      1036     MECN     N3       NG1T1   -0.460000       14.0070           0
     10038 WT4      1048     MECN     C1       CG331   -0.170000       12.0110           0
     10039 WT4      1048     MECN     H11      HGA3     0.090000        1.0080           0
     10040 WT4      1048     MECN     H12      HGA3     0.090000        1.0080           0
     10041 WT4      1048     MECN     H13      HGA3     0.090000        1.0080           0
     10042 WT4      1048     MECN     C2       CG1N1    0.360000       12.0110           0
     10043 WT4      1048     MECN     N3       NG1T1   -0.460000       14.0070           0
     10044 WT4      1050     MECN     C1       CG331   -0.170000       12.0110           0
     10045 WT4      1050     MECN     H11      HGA3     0.090000        1.0080           0
     10046 WT4      1050     MECN     H12      HGA3     0.090000        1.0080           0
     10047 WT4      1050     MECN     H13      HGA3     0.090000        1.0080           0
     10048 WT4      1050     MECN     C2       CG1N1    0.360000       12.0110           0
     10049 WT4      1050     MECN     N3       NG1T1   -0.460000       14.0070           0
     10050 WT4      1053     MECN     C1       CG331   -0.170000       12.0110           0
     10051 WT4      1053     MECN     H11      HGA3     0.090000        1.0080           0
     10052 WT4      1053     MECN     H12      HGA3     0.090000        1.0080           0
     10053 WT4      1053     MECN     H13      HGA3     0.090000        1.0080           0
     10054 WT4      1053     MECN     C2       CG1N1    0.360000       12.0110           0
     10055 WT4      1053     MECN     N3       NG1T1   -0.460000       14.0070           0
     10056 WT4      1062     MECN     C1       CG331   -0.170000       12.0110           0
     10057 WT4      1062     MECN     H11      HGA3     0.090000        1.0080           0
     10058 WT4      1062     MECN     H12      HGA3     0.090000        1.0080           0
     10059 WT4      1062     MECN     H13      HGA3     0.090000        1.0080           0
     10060 WT4      1062     MECN     C2       CG1N1    0.360000       12.0110           0
     10061 WT4      1062     MECN     N3       NG1T1   -0.460000       14.0070           0
     10062 WT4      1068     MECN     C1       CG331   -0.170000       12.0110           0
     10063 WT4      1068     MECN     H11      HGA3     0.090000        1.0080           0
     10064 WT4      1068     MECN     H12      HGA3     0.090000        1.0080           0
     10065 WT4      1068     MECN     H13      HGA3     0.090000        1.0080           0
     10066 WT4      1068     MECN     C2       CG1N1    0.360000       12.0110           0
     10067 WT4      1068     MECN     N3       NG1T1   -0.460000       14.0070           0
     10068 WT4      1080     MECN     C1       CG331   -0.170000       12.0110           0
     10069 WT4      1080     MECN     H11      HGA3     0.090000        1.0080           0
     10070 WT4      1080     MECN     H12      HGA3     0.090000        1.0080           0
     10071 WT4      1080     MECN     H13      HGA3     0.090000        1.0080           0
     10072 WT4      1080     MECN     C2       CG1N1    0.360000       12.0110           0
     10073 WT4      1080     MECN     N3       NG1T1   -0.460000       14.0070           0
     10074 WT4      1081     MECN     C1       CG331   -0.170000       12.0110           0
     10075 WT4      1081     MECN     H11      HGA3     0.090000        1.0080           0
     10076 WT4      1081     MECN     H12      HGA3     0.090000        1.0080           0
     10077 WT4      1081     MECN     H13      HGA3     0.090000        1.0080           0
     10078 WT4      1081     MECN     C2       CG1N1    0.360000       12.0110           0
     10079 WT4      1081     MECN     N3       NG1T1   -0.460000       14.0070           0
     10080 WT4      1085     MECN     C1       CG331   -0.170000       12.0110           0
     10081 WT4      1085     MECN     H11      HGA3     0.090000        1.0080           0
     10082 WT4      1085     MECN     H12      HGA3     0.090000        1.0080           0
     10083 WT4      1085     MECN     H13      HGA3     0.090000        1.0080           0
     10084 WT4      1085     MECN     C2       CG1N1    0.360000       12.0110           0
     10085 WT4      1085     MECN     N3       NG1T1   -0.460000       14.0070           0
     10086 WT4      1091     MECN     C1       CG331   -0.170000       12.0110           0
     10087 WT4      1091     MECN     H11      HGA3     0.090000        1.0080           0
     10088 WT4      1091     MECN     H12      HGA3     0.090000        1.0080           0
     10089 WT4      1091     MECN     H13      HGA3     0.090000        1.0080           0
     10090 WT4      1091     MECN     C2       CG1N1    0.360000       12.0110           0
     10091 WT4      1091     MECN     N3       NG1T1   -0.460000       14.0070           0
     10092 WT4      1094     MECN     C1       CG331   -0.170000       12.0110           0
     10093 WT4      1094     MECN     H11      HGA3     0.090000        1.0080           0
     10094 WT4      1094     MECN     H12      HGA3     0.090000        1.0080           0
     10095 WT4      1094     MECN     H13      HGA3     0.090000        1.0080           0
     10096 WT4      1094     MECN     C2       CG1N1    0.360000       12.0110           0
     10097 WT4      1094     MECN     N3       NG1T1   -0.460000       14.0070           0
     10098 WT4      1095     MECN     C1       CG331   -0.170000       12.0110           0
     10099 WT4      1095     MECN     H11      HGA3     0.090000        1.0080           0
     10100 WT4      1095     MECN     H12      HGA3     0.090000        1.0080           0
     10101 WT4      1095     MECN     H13      HGA3     0.090000        1.0080           0
     10102 WT4      1095     MECN     C2       CG1N1    0.360000       12.0110           0
     10103 WT4      1095     MECN     N3       NG1T1   -0.460000       14.0070           0
     10104 WT4      1098     MECN     C1       CG331   -0.170000       12.0110           0
     10105 WT4      1098     MECN     H11      HGA3     0.090000        1.0080           0
     10106 WT4      1098     MECN     H12      HGA3     0.090000        1.0080           0
     10107 WT4      1098     MECN     H13      HGA3     0.090000        1.0080           0
     10108 WT4      1098     MECN     C2       CG1N1    0.360000       12.0110           0
     10109 WT4      1098     MECN     N3       NG1T1   -0.460000       14.0070           0
     10110 WT4      1099     MECN     C1       CG331   -0.170000       12.0110           0
     10111 WT4      1099     MECN     H11      HGA3     0.090000        1.0080           0
     10112 WT4      1099     MECN     H12      HGA3     0.090000        1.0080           0
     10113 WT4      1099     MECN     H13      HGA3     0.090000        1.0080           0
     10114 WT4      1099     MECN     C2       CG1N1    0.360000       12.0110           0
     10115 WT4      1099     MECN     N3       NG1T1   -0.460000       14.0070           0
     10116 WT4      1107     MECN     C1       CG331   -0.170000       12.0110           0
     10117 WT4      1107     MECN     H11      HGA3     0.090000        1.0080           0
     10118 WT4      1107     MECN     H12      HGA3     0.090000        1.0080           0
     10119 WT4      1107     MECN     H13      HGA3     0.090000        1.0080           0
     10120 WT4      1107     MECN     C2       CG1N1    0.360000       12.0110           0
     10121 WT4      1107     MECN     N3       NG1T1   -0.460000       14.0070           0
     10122 WT4      1115     MECN     C1       CG331   -0.170000       12.0110           0
     10123 WT4      1115     MECN     H11      HGA3     0.090000        1.0080           0
     10124 WT4      1115     MECN     H12      HGA3     0.090000        1.0080           0
     10125 WT4      1115     MECN     H13      HGA3     0.090000        1.0080           0
     10126 WT4      1115     MECN     C2       CG1N1    0.360000       12.0110           0
     10127 WT4      1115     MECN     N3       NG1T1   -0.460000       14.0070           0
     10128 WT4      1117     MECN     C1       CG331   -0.170000       12.0110           0
     10129 WT4      1117     MECN     H11      HGA3     0.090000        1.0080           0
     10130 WT4      1117     MECN     H12      HGA3     0.090000        1.0080           0
     10131 WT4      1117     MECN     H13      HGA3     0.090000        1.0080           0
     10132 WT4      1117     MECN     C2       CG1N1    0.360000       12.0110           0
     10133 WT4      1117     MECN     N3       NG1T1   -0.460000       14.0070           0
     10134 WT4      1120     MECN     C1       CG331   -0.170000       12.0110           0
     10135 WT4      1120     MECN     H11      HGA3     0.090000        1.0080           0
     10136 WT4      1120     MECN     H12      HGA3     0.090000        1.0080           0
     10137 WT4      1120     MECN     H13      HGA3     0.090000        1.0080           0
     10138 WT4      1120     MECN     C2       CG1N1    0.360000       12.0110           0
     10139 WT4      1120     MECN     N3       NG1T1   -0.460000       14.0070           0
     10140 WT4      1121     MECN     C1       CG331   -0.170000       12.0110           0
     10141 WT4      1121     MECN     H11      HGA3     0.090000        1.0080           0
     10142 WT4      1121     MECN     H12      HGA3     0.090000        1.0080           0
     10143 WT4      1121     MECN     H13      HGA3     0.090000        1.0080           0
     10144 WT4      1121     MECN     C2       CG1N1    0.360000       12.0110           0
     10145 WT4      1121     MECN     N3       NG1T1   -0.460000       14.0070           0
     10146 WT4      1125     MECN     C1       CG331   -0.170000       12.0110           0
     10147 WT4      1125     MECN     H11      HGA3     0.090000        1.0080           0
     10148 WT4      1125     MECN     H12      HGA3     0.090000        1.0080           0
     10149 WT4      1125     MECN     H13      HGA3     0.090000        1.0080           0
     10150 WT4      1125     MECN     C2       CG1N1    0.360000       12.0110           0
     10151 WT4      1125     MECN     N3       NG1T1   -0.460000       14.0070           0
     10152 WT4      1136     MECN     C1       CG331   -0.170000       12.0110           0
     10153 WT4      1136     MECN     H11      HGA3     0.090000        1.0080           0
     10154 WT4      1136     MECN     H12      HGA3     0.090000        1.0080           0
     10155 WT4      1136     MECN     H13      HGA3     0.090000        1.0080           0
     10156 WT4      1136     MECN     C2       CG1N1    0.360000       12.0110           0
     10157 WT4      1136     MECN     N3       NG1T1   -0.460000       14.0070           0
     10158 WT4      1137     MECN     C1       CG331   -0.170000       12.0110           0
     10159 WT4      1137     MECN     H11      HGA3     0.090000        1.0080           0
     10160 WT4      1137     MECN     H12      HGA3     0.090000        1.0080           0
     10161 WT4      1137     MECN     H13      HGA3     0.090000        1.0080           0
     10162 WT4      1137     MECN     C2       CG1N1    0.360000       12.0110           0
     10163 WT4      1137     MECN     N3       NG1T1   -0.460000       14.0070           0
     10164 WT4      1143     MECN     C1       CG331   -0.170000       12.0110           0
     10165 WT4      1143     MECN     H11      HGA3     0.090000        1.0080           0
     10166 WT4      1143     MECN     H12      HGA3     0.090000        1.0080           0
     10167 WT4      1143     MECN     H13      HGA3     0.090000        1.0080           0
     10168 WT4      1143     MECN     C2       CG1N1    0.360000       12.0110           0
     10169 WT4      1143     MECN     N3       NG1T1   -0.460000       14.0070           0
     10170 WT4      1147     MECN     C1       CG331   -0.170000       12.0110           0
     10171 WT4      1147     MECN     H11      HGA3     0.090000        1.0080           0
     10172 WT4      1147     MECN     H12      HGA3     0.090000        1.0080           0
     10173 WT4      1147     MECN     H13      HGA3     0.090000        1.0080           0
     10174 WT4      1147     MECN     C2       CG1N1    0.360000       12.0110           0
     10175 WT4      1147     MECN     N3       NG1T1   -0.460000       14.0070           0
     10176 WT4      1156     MECN     C1       CG331   -0.170000       12.0110           0
     10177 WT4      1156     MECN     H11      HGA3     0.090000        1.0080           0
     10178 WT4      1156     MECN     H12      HGA3     0.090000        1.0080           0
     10179 WT4      1156     MECN     H13      HGA3     0.090000        1.0080           0
     10180 WT4      1156     MECN     C2       CG1N1    0.360000       12.0110           0
     10181 WT4      1156     MECN     N3       NG1T1   -0.460000       14.0070           0
     10182 WT4      1178     MECN     C1       CG331   -0.170000       12.0110           0
     10183 WT4      1178     MECN     H11      HGA3     0.090000        1.0080           0
     10184 WT4      1178     MECN     H12      HGA3     0.090000        1.0080           0
     10185 WT4      1178     MECN     H13      HGA3     0.090000        1.0080           0
     10186 WT4      1178     MECN     C2       CG1N1    0.360000       12.0110           0
     10187 WT4      1178     MECN     N3       NG1T1   -0.460000       14.0070           0
     10188 WT4      1184     MECN     C1       CG331   -0.170000       12.0110           0
     10189 WT4      1184     MECN     H11      HGA3     0.090000        1.0080           0
     10190 WT4      1184     MECN     H12      HGA3     0.090000        1.0080           0
     10191 WT4      1184     MECN     H13      HGA3     0.090000        1.0080           0
     10192 WT4      1184     MECN     C2       CG1N1    0.360000       12.0110           0
     10193 WT4      1184     MECN     N3       NG1T1   -0.460000       14.0070           0
     10194 WT4      1195     MECN     C1       CG331   -0.170000       12.0110           0
     10195 WT4      1195     MECN     H11      HGA3     0.090000        1.0080           0
     10196 WT4      1195     MECN     H12      HGA3     0.090000        1.0080           0
     10197 WT4      1195     MECN     H13      HGA3     0.090000        1.0080           0
     10198 WT4      1195     MECN     C2       CG1N1    0.360000       12.0110           0
     10199 WT4      1195     MECN     N3       NG1T1   -0.460000       14.0070           0
     10200 WT4      1196     MECN     C1       CG331   -0.170000       12.0110           0
     10201 WT4      1196     MECN     H11      HGA3     0.090000        1.0080           0
     10202 WT4      1196     MECN     H12      HGA3     0.090000        1.0080           0
     10203 WT4      1196     MECN     H13      HGA3     0.090000        1.0080           0
     10204 WT4      1196     MECN     C2       CG1N1    0.360000       12.0110           0
     10205 WT4      1196     MECN     N3       NG1T1   -0.460000       14.0070           0
     10206 WT4      1207     MECN     C1       CG331   -0.170000       12.0110           0
     10207 WT4      1207     MECN     H11      HGA3     0.090000        1.0080           0
     10208 WT4      1207     MECN     H12      HGA3     0.090000        1.0080           0
     10209 WT4      1207     MECN     H13      HGA3     0.090000        1.0080           0
     10210 WT4      1207     MECN     C2       CG1N1    0.360000       12.0110           0
     10211 WT4      1207     MECN     N3       NG1T1   -0.460000       14.0070           0
     10212 WT4      1215     MECN     C1       CG331   -0.170000       12.0110           0
     10213 WT4      1215     MECN     H11      HGA3     0.090000        1.0080           0
     10214 WT4      1215     MECN     H12      HGA3     0.090000        1.0080           0
     10215 WT4      1215     MECN     H13      HGA3     0.090000        1.0080           0
     10216 WT4      1215     MECN     C2       CG1N1    0.360000       12.0110           0
     10217 WT4      1215     MECN     N3       NG1T1   -0.460000       14.0070           0
     10218 WT4      1218     MECN     C1       CG331   -0.170000       12.0110           0
     10219 WT4      1218     MECN     H11      HGA3     0.090000        1.0080           0
     10220 WT4      1218     MECN     H12      HGA3     0.090000        1.0080           0
     10221 WT4      1218     MECN     H13      HGA3     0.090000        1.0080           0
     10222 WT4      1218     MECN     C2       CG1N1    0.360000       12.0110           0
     10223 WT4      1218     MECN     N3       NG1T1   -0.460000       14.0070           0
     10224 WT4      1228     MECN     C1       CG331   -0.170000       12.0110           0
     10225 WT4      1228     MECN     H11      HGA3     0.090000        1.0080           0
     10226 WT4      1228     MECN     H12      HGA3     0.090000        1.0080           0
     10227 WT4      1228     MECN     H13      HGA3     0.090000        1.0080           0
     10228 WT4      1228     MECN     C2       CG1N1    0.360000       12.0110           0
     10229 WT4      1228     MECN     N3       NG1T1   -0.460000       14.0070           0
     10230 WT4      1229     MECN     C1       CG331   -0.170000       12.0110           0
     10231 WT4      1229     MECN     H11      HGA3     0.090000        1.0080           0
     10232 WT4      1229     MECN     H12      HGA3     0.090000        1.0080           0
     10233 WT4      1229     MECN     H13      HGA3     0.090000        1.0080           0
     10234 WT4      1229     MECN     C2       CG1N1    0.360000       12.0110           0
     10235 WT4      1229     MECN     N3       NG1T1   -0.460000       14.0070           0
     10236 WT4      1234     MECN     C1       CG331   -0.170000       12.0110           0
     10237 WT4      1234     MECN     H11      HGA3     0.090000        1.0080           0
     10238 WT4      1234     MECN     H12      HGA3     0.090000        1.0080           0
     10239 WT4      1234     MECN     H13      HGA3     0.090000        1.0080           0
     10240 WT4      1234     MECN     C2       CG1N1    0.360000       12.0110           0
     10241 WT4      1234     MECN     N3       NG1T1   -0.460000       14.0070           0
     10242 WT4      1236     MECN     C1       CG331   -0.170000       12.0110           0
     10243 WT4      1236     MECN     H11      HGA3     0.090000        1.0080           0
     10244 WT4      1236     MECN     H12      HGA3     0.090000        1.0080           0
     10245 WT4      1236     MECN     H13      HGA3     0.090000        1.0080           0
     10246 WT4      1236     MECN     C2       CG1N1    0.360000       12.0110           0
     10247 WT4      1236     MECN     N3       NG1T1   -0.460000       14.0070           0
     10248 WT4      1242     MECN     C1       CG331   -0.170000       12.0110           0
     10249 WT4      1242     MECN     H11      HGA3     0.090000        1.0080           0
     10250 WT4      1242     MECN     H12      HGA3     0.090000        1.0080           0
     10251 WT4      1242     MECN     H13      HGA3     0.090000        1.0080           0
     10252 WT4      1242     MECN     C2       CG1N1    0.360000       12.0110           0
     10253 WT4      1242     MECN     N3       NG1T1   -0.460000       14.0070           0
     10254 WT4      1245     MECN     C1       CG331   -0.170000       12.0110           0
     10255 WT4      1245     MECN     H11      HGA3     0.090000        1.0080           0
     10256 WT4      1245     MECN     H12      HGA3     0.090000        1.0080           0
     10257 WT4      1245     MECN     H13      HGA3     0.090000        1.0080           0
     10258 WT4      1245     MECN     C2       CG1N1    0.360000       12.0110           0
     10259 WT4      1245     MECN     N3       NG1T1   -0.460000       14.0070           0
     10260 WT4      1246     MECN     C1       CG331   -0.170000       12.0110           0
     10261 WT4      1246     MECN     H11      HGA3     0.090000        1.0080           0
     10262 WT4      1246     MECN     H12      HGA3     0.090000        1.0080           0
     10263 WT4      1246     MECN     H13      HGA3     0.090000        1.0080           0
     10264 WT4      1246     MECN     C2       CG1N1    0.360000       12.0110           0
     10265 WT4      1246     MECN     N3       NG1T1   -0.460000       14.0070           0
     10266 WT4      1248     MECN     C1       CG331   -0.170000       12.0110           0
     10267 WT4      1248     MECN     H11      HGA3     0.090000        1.0080           0
     10268 WT4      1248     MECN     H12      HGA3     0.090000        1.0080           0
     10269 WT4      1248     MECN     H13      HGA3     0.090000        1.0080           0
     10270 WT4      1248     MECN     C2       CG1N1    0.360000       12.0110           0
     10271 WT4      1248     MECN     N3       NG1T1   -0.460000       14.0070           0
     10272 WT4      1253     MECN     C1       CG331   -0.170000       12.0110           0
     10273 WT4      1253     MECN     H11      HGA3     0.090000        1.0080           0
     10274 WT4      1253     MECN     H12      HGA3     0.090000        1.0080           0
     10275 WT4      1253     MECN     H13      HGA3     0.090000        1.0080           0
     10276 WT4      1253     MECN     C2       CG1N1    0.360000       12.0110           0
     10277 WT4      1253     MECN     N3       NG1T1   -0.460000       14.0070           0
     10278 WT4      1263     MECN     C1       CG331   -0.170000       12.0110           0
     10279 WT4      1263     MECN     H11      HGA3     0.090000        1.0080           0
     10280 WT4      1263     MECN     H12      HGA3     0.090000        1.0080           0
     10281 WT4      1263     MECN     H13      HGA3     0.090000        1.0080           0
     10282 WT4      1263     MECN     C2       CG1N1    0.360000       12.0110           0
     10283 WT4      1263     MECN     N3       NG1T1   -0.460000       14.0070           0
     10284 WT4      1267     MECN     C1       CG331   -0.170000       12.0110           0
     10285 WT4      1267     MECN     H11      HGA3     0.090000        1.0080           0
     10286 WT4      1267     MECN     H12      HGA3     0.090000        1.0080           0
     10287 WT4      1267     MECN     H13      HGA3     0.090000        1.0080           0
     10288 WT4      1267     MECN     C2       CG1N1    0.360000       12.0110           0
     10289 WT4      1267     MECN     N3       NG1T1   -0.460000       14.0070           0
     10290 WT4      1270     MECN     C1       CG331   -0.170000       12.0110           0
     10291 WT4      1270     MECN     H11      HGA3     0.090000        1.0080           0
     10292 WT4      1270     MECN     H12      HGA3     0.090000        1.0080           0
     10293 WT4      1270     MECN     H13      HGA3     0.090000        1.0080           0
     10294 WT4      1270     MECN     C2       CG1N1    0.360000       12.0110           0
     10295 WT4      1270     MECN     N3       NG1T1   -0.460000       14.0070           0
     10296 WT4      1273     MECN     C1       CG331   -0.170000       12.0110           0
     10297 WT4      1273     MECN     H11      HGA3     0.090000        1.0080           0
     10298 WT4      1273     MECN     H12      HGA3     0.090000        1.0080           0
     10299 WT4      1273     MECN     H13      HGA3     0.090000        1.0080           0
     10300 WT4      1273     MECN     C2       CG1N1    0.360000       12.0110           0
     10301 WT4      1273     MECN     N3       NG1T1   -0.460000       14.0070           0
     10302 WT4      1281     MECN     C1       CG331   -0.170000       12.0110           0
     10303 WT4      1281     MECN     H11      HGA3     0.090000        1.0080           0
     10304 WT4      1281     MECN     H12      HGA3     0.090000        1.0080           0
     10305 WT4      1281     MECN     H13      HGA3     0.090000        1.0080           0
     10306 WT4      1281     MECN     C2       CG1N1    0.360000       12.0110           0
     10307 WT4      1281     MECN     N3       NG1T1   -0.460000       14.0070           0
     10308 WT4      1284     MECN     C1       CG331   -0.170000       12.0110           0
     10309 WT4      1284     MECN     H11      HGA3     0.090000        1.0080           0
     10310 WT4      1284     MECN     H12      HGA3     0.090000        1.0080           0
     10311 WT4      1284     MECN     H13      HGA3     0.090000        1.0080           0
     10312 WT4      1284     MECN     C2       CG1N1    0.360000       12.0110           0
     10313 WT4      1284     MECN     N3       NG1T1   -0.460000       14.0070           0
     10314 WT4      1287     MECN     C1       CG331   -0.170000       12.0110           0
     10315 WT4      1287     MECN     H11      HGA3     0.090000        1.0080           0
     10316 WT4      1287     MECN     H12      HGA3     0.090000        1.0080           0
     10317 WT4      1287     MECN     H13      HGA3     0.090000        1.0080           0
     10318 WT4      1287     MECN     C2       CG1N1    0.360000       12.0110           0
     10319 WT4      1287     MECN     N3       NG1T1   -0.460000       14.0070           0
     10320 WT4      1294     MECN     C1       CG331   -0.170000       12.0110           0
     10321 WT4      1294     MECN     H11      HGA3     0.090000        1.0080           0
     10322 WT4      1294     MECN     H12      HGA3     0.090000        1.0080           0
     10323 WT4      1294     MECN     H13      HGA3     0.090000        1.0080           0
     10324 WT4      1294     MECN     C2       CG1N1    0.360000       12.0110           0
     10325 WT4      1294     MECN     N3       NG1T1   -0.460000       14.0070           0
     10326 WT4      1296     MECN     C1       CG331   -0.170000       12.0110           0
     10327 WT4      1296     MECN     H11      HGA3     0.090000        1.0080           0
     10328 WT4      1296     MECN     H12      HGA3     0.090000        1.0080           0
     10329 WT4      1296     MECN     H13      HGA3     0.090000        1.0080           0
     10330 WT4      1296     MECN     C2       CG1N1    0.360000       12.0110           0
     10331 WT4      1296     MECN     N3       NG1T1   -0.460000       14.0070           0
     10332 WT4      1303     MECN     C1       CG331   -0.170000       12.0110           0
     10333 WT4      1303     MECN     H11      HGA3     0.090000        1.0080           0
     10334 WT4      1303     MECN     H12      HGA3     0.090000        1.0080           0
     10335 WT4      1303     MECN     H13      HGA3     0.090000        1.0080           0
     10336 WT4      1303     MECN     C2       CG1N1    0.360000       12.0110           0
     10337 WT4      1303     MECN     N3       NG1T1   -0.460000       14.0070           0
     10338 WT4      1304     MECN     C1       CG331   -0.170000       12.0110           0
     10339 WT4      1304     MECN     H11      HGA3     0.090000        1.0080           0
     10340 WT4      1304     MECN     H12      HGA3     0.090000        1.0080           0
     10341 WT4      1304     MECN     H13      HGA3     0.090000        1.0080           0
     10342 WT4      1304     MECN     C2       CG1N1    0.360000       12.0110           0
     10343 WT4      1304     MECN     N3       NG1T1   -0.460000       14.0070           0
     10344 WT4      1306     MECN     C1       CG331   -0.170000       12.0110           0
     10345 WT4      1306     MECN     H11      HGA3     0.090000        1.0080           0
     10346 WT4      1306     MECN     H12      HGA3     0.090000        1.0080           0
     10347 WT4      1306     MECN     H13      HGA3     0.090000        1.0080           0
     10348 WT4      1306     MECN     C2       CG1N1    0.360000       12.0110           0
     10349 WT4      1306     MECN     N3       NG1T1   -0.460000       14.0070           0
     10350 WT4      1307     MECN     C1       CG331   -0.170000       12.0110           0
     10351 WT4      1307     MECN     H11      HGA3     0.090000        1.0080           0
     10352 WT4      1307     MECN     H12      HGA3     0.090000        1.0080           0
     10353 WT4      1307     MECN     H13      HGA3     0.090000        1.0080           0
     10354 WT4      1307     MECN     C2       CG1N1    0.360000       12.0110           0
     10355 WT4      1307     MECN     N3       NG1T1   -0.460000       14.0070           0
     10356 WT4      1310     MECN     C1       CG331   -0.170000       12.0110           0
     10357 WT4      1310     MECN     H11      HGA3     0.090000        1.0080           0
     10358 WT4      1310     MECN     H12      HGA3     0.090000        1.0080           0
     10359 WT4      1310     MECN     H13      HGA3     0.090000        1.0080           0
     10360 WT4      1310     MECN     C2       CG1N1    0.360000       12.0110           0
     10361 WT4      1310     MECN     N3       NG1T1   -0.460000       14.0070           0
     10362 WT4      1315     MECN     C1       CG331   -0.170000       12.0110           0
     10363 WT4      1315     MECN     H11      HGA3     0.090000        1.0080           0
     10364 WT4      1315     MECN     H12      HGA3     0.090000        1.0080           0
     10365 WT4      1315     MECN     H13      HGA3     0.090000        1.0080           0
     10366 WT4      1315     MECN     C2       CG1N1    0.360000       12.0110           0
     10367 WT4      1315     MECN     N3       NG1T1   -0.460000       14.0070           0
     10368 WT4      1317     MECN     C1       CG331   -0.170000       12.0110           0
     10369 WT4      1317     MECN     H11      HGA3     0.090000        1.0080           0
     10370 WT4      1317     MECN     H12      HGA3     0.090000        1.0080           0
     10371 WT4      1317     MECN     H13      HGA3     0.090000        1.0080           0
     10372 WT4      1317     MECN     C2       CG1N1    0.360000       12.0110           0
     10373 WT4      1317     MECN     N3       NG1T1   -0.460000       14.0070           0
     10374 WT4      1321     MECN     C1       CG331   -0.170000       12.0110           0
     10375 WT4      1321     MECN     H11      HGA3     0.090000        1.0080           0
     10376 WT4      1321     MECN     H12      HGA3     0.090000        1.0080           0
     10377 WT4      1321     MECN     H13      HGA3     0.090000        1.0080           0
     10378 WT4      1321     MECN     C2       CG1N1    0.360000       12.0110           0
     10379 WT4      1321     MECN     N3       NG1T1   -0.460000       14.0070           0
     10380 WT4      1322     MECN     C1       CG331   -0.170000       12.0110           0
     10381 WT4      1322     MECN     H11      HGA3     0.090000        1.0080           0
     10382 WT4      1322     MECN     H12      HGA3     0.090000        1.0080           0
     10383 WT4      1322     MECN     H13      HGA3     0.090000        1.0080           0
     10384 WT4      1322     MECN     C2       CG1N1    0.360000       12.0110           0
     10385 WT4      1322     MECN     N3       NG1T1   -0.460000       14.0070           0
     10386 WT4      1326     MECN     C1       CG331   -0.170000       12.0110           0
     10387 WT4      1326     MECN     H11      HGA3     0.090000        1.0080           0
     10388 WT4      1326     MECN     H12      HGA3     0.090000        1.0080           0
     10389 WT4      1326     MECN     H13      HGA3     0.090000        1.0080           0
     10390 WT4      1326     MECN     C2       CG1N1    0.360000       12.0110           0
     10391 WT4      1326     MECN     N3       NG1T1   -0.460000       14.0070           0
     10392 WT4      1329     MECN     C1       CG331   -0.170000       12.0110           0
     10393 WT4      1329     MECN     H11      HGA3     0.090000        1.0080           0
     10394 WT4      1329     MECN     H12      HGA3     0.090000        1.0080           0
     10395 WT4      1329     MECN     H13      HGA3     0.090000        1.0080           0
     10396 WT4      1329     MECN     C2       CG1N1    0.360000       12.0110           0
     10397 WT4      1329     MECN     N3       NG1T1   -0.460000       14.0070           0
     10398 WT5      1        MECN     C1       CG331   -0.170000       12.0110           0
     10399 WT5      1        MECN     H11      HGA3     0.090000        1.0080           0
     10400 WT5      1        MECN     H12      HGA3     0.090000        1.0080           0
     10401 WT5      1        MECN     H13      HGA3     0.090000        1.0080           0
     10402 WT5      1        MECN     C2       CG1N1    0.360000       12.0110           0
     10403 WT5      1        MECN     N3       NG1T1   -0.460000       14.0070           0
     10404 WT5      2        MECN     C1       CG331   -0.170000       12.0110           0
     10405 WT5      2        MECN     H11      HGA3     0.090000        1.0080           0
     10406 WT5      2        MECN     H12      HGA3     0.090000        1.0080           0
     10407 WT5      2        MECN     H13      HGA3     0.090000        1.0080           0
     10408 WT5      2        MECN     C2       CG1N1    0.360000       12.0110           0
     10409 WT5      2        MECN     N3       NG1T1   -0.460000       14.0070           0
     10410 WT5      3        MECN     C1       CG331   -0.170000       12.0110           0
     10411 WT5      3        MECN     H11      HGA3     0.090000        1.0080           0
     10412 WT5      3        MECN     H12      HGA3     0.090000        1.0080           0
     10413 WT5      3        MECN     H13      HGA3     0.090000        1.0080           0
     10414 WT5      3        MECN     C2       CG1N1    0.360000       12.0110           0
     10415 WT5      3        MECN     N3       NG1T1   -0.460000       14.0070           0
     10416 WT5      4        MECN     C1       CG331   -0.170000       12.0110           0
     10417 WT5      4        MECN     H11      HGA3     0.090000        1.0080           0
     10418 WT5      4        MECN     H12      HGA3     0.090000        1.0080           0
     10419 WT5      4        MECN     H13      HGA3     0.090000        1.0080           0
     10420 WT5      4        MECN     C2       CG1N1    0.360000       12.0110           0
     10421 WT5      4        MECN     N3       NG1T1   -0.460000       14.0070           0
     10422 WT5      5        MECN     C1       CG331   -0.170000       12.0110           0
     10423 WT5      5        MECN     H11      HGA3     0.090000        1.0080           0
     10424 WT5      5        MECN     H12      HGA3     0.090000        1.0080           0
     10425 WT5      5        MECN     H13      HGA3     0.090000        1.0080           0
     10426 WT5      5        MECN     C2       CG1N1    0.360000       12.0110           0
     10427 WT5      5        MECN     N3       NG1T1   -0.460000       14.0070           0
     10428 WT5      9        MECN     C1       CG331   -0.170000       12.0110           0
     10429 WT5      9        MECN     H11      HGA3     0.090000        1.0080           0
     10430 WT5      9        MECN     H12      HGA3     0.090000        1.0080           0
     10431 WT5      9        MECN     H13      HGA3     0.090000        1.0080           0
     10432 WT5      9        MECN     C2       CG1N1    0.360000       12.0110           0
     10433 WT5      9        MECN     N3       NG1T1   -0.460000       14.0070           0
     10434 WT5      10       MECN     C1       CG331   -0.170000       12.0110           0
     10435 WT5      10       MECN     H11      HGA3     0.090000        1.0080           0
     10436 WT5      10       MECN     H12      HGA3     0.090000        1.0080           0
     10437 WT5      10       MECN     H13      HGA3     0.090000        1.0080           0
     10438 WT5      10       MECN     C2       CG1N1    0.360000       12.0110           0
     10439 WT5      10       MECN     N3       NG1T1   -0.460000       14.0070           0
     10440 WT5      12       MECN     C1       CG331   -0.170000       12.0110           0
     10441 WT5      12       MECN     H11      HGA3     0.090000        1.0080           0
     10442 WT5      12       MECN     H12      HGA3     0.090000        1.0080           0
     10443 WT5      12       MECN     H13      HGA3     0.090000        1.0080           0
     10444 WT5      12       MECN     C2       CG1N1    0.360000       12.0110           0
     10445 WT5      12       MECN     N3       NG1T1   -0.460000       14.0070           0
     10446 WT5      13       MECN     C1       CG331   -0.170000       12.0110           0
     10447 WT5      13       MECN     H11      HGA3     0.090000        1.0080           0
     10448 WT5      13       MECN     H12      HGA3     0.090000        1.0080           0
     10449 WT5      13       MECN     H13      HGA3     0.090000        1.0080           0
     10450 WT5      13       MECN     C2       CG1N1    0.360000       12.0110           0
     10451 WT5      13       MECN     N3       NG1T1   -0.460000       14.0070           0
     10452 WT5      14       MECN     C1       CG331   -0.170000       12.0110           0
     10453 WT5      14       MECN     H11      HGA3     0.090000        1.0080           0
     10454 WT5      14       MECN     H12      HGA3     0.090000        1.0080           0
     10455 WT5      14       MECN     H13      HGA3     0.090000        1.0080           0
     10456 WT5      14       MECN     C2       CG1N1    0.360000       12.0110           0
     10457 WT5      14       MECN     N3       NG1T1   -0.460000       14.0070           0
     10458 WT5      16       MECN     C1       CG331   -0.170000       12.0110           0
     10459 WT5      16       MECN     H11      HGA3     0.090000        1.0080           0
     10460 WT5      16       MECN     H12      HGA3     0.090000        1.0080           0
     10461 WT5      16       MECN     H13      HGA3     0.090000        1.0080           0
     10462 WT5      16       MECN     C2       CG1N1    0.360000       12.0110           0
     10463 WT5      16       MECN     N3       NG1T1   -0.460000       14.0070           0
     10464 WT5      17       MECN     C1       CG331   -0.170000       12.0110           0
     10465 WT5      17       MECN     H11      HGA3     0.090000        1.0080           0
     10466 WT5      17       MECN     H12      HGA3     0.090000        1.0080           0
     10467 WT5      17       MECN     H13      HGA3     0.090000        1.0080           0
     10468 WT5      17       MECN     C2       CG1N1    0.360000       12.0110           0
     10469 WT5      17       MECN     N3       NG1T1   -0.460000       14.0070           0
     10470 WT5      19       MECN     C1       CG331   -0.170000       12.0110           0
     10471 WT5      19       MECN     H11      HGA3     0.090000        1.0080           0
     10472 WT5      19       MECN     H12      HGA3     0.090000        1.0080           0
     10473 WT5      19       MECN     H13      HGA3     0.090000        1.0080           0
     10474 WT5      19       MECN     C2       CG1N1    0.360000       12.0110           0
     10475 WT5      19       MECN     N3       NG1T1   -0.460000       14.0070           0
     10476 WT5      21       MECN     C1       CG331   -0.170000       12.0110           0
     10477 WT5      21       MECN     H11      HGA3     0.090000        1.0080           0
     10478 WT5      21       MECN     H12      HGA3     0.090000        1.0080           0
     10479 WT5      21       MECN     H13      HGA3     0.090000        1.0080           0
     10480 WT5      21       MECN     C2       CG1N1    0.360000       12.0110           0
     10481 WT5      21       MECN     N3       NG1T1   -0.460000       14.0070           0
     10482 WT5      22       MECN     C1       CG331   -0.170000       12.0110           0
     10483 WT5      22       MECN     H11      HGA3     0.090000        1.0080           0
     10484 WT5      22       MECN     H12      HGA3     0.090000        1.0080           0
     10485 WT5      22       MECN     H13      HGA3     0.090000        1.0080           0
     10486 WT5      22       MECN     C2       CG1N1    0.360000       12.0110           0
     10487 WT5      22       MECN     N3       NG1T1   -0.460000       14.0070           0
     10488 WT5      24       MECN     C1       CG331   -0.170000       12.0110           0
     10489 WT5      24       MECN     H11      HGA3     0.090000        1.0080           0
     10490 WT5      24       MECN     H12      HGA3     0.090000        1.0080           0
     10491 WT5      24       MECN     H13      HGA3     0.090000        1.0080           0
     10492 WT5      24       MECN     C2       CG1N1    0.360000       12.0110           0
     10493 WT5      24       MECN     N3       NG1T1   -0.460000       14.0070           0
     10494 WT5      26       MECN     C1       CG331   -0.170000       12.0110           0
     10495 WT5      26       MECN     H11      HGA3     0.090000        1.0080           0
     10496 WT5      26       MECN     H12      HGA3     0.090000        1.0080           0
     10497 WT5      26       MECN     H13      HGA3     0.090000        1.0080           0
     10498 WT5      26       MECN     C2       CG1N1    0.360000       12.0110           0
     10499 WT5      26       MECN     N3       NG1T1   -0.460000       14.0070           0
     10500 WT5      27       MECN     C1       CG331   -0.170000       12.0110           0
     10501 WT5      27       MECN     H11      HGA3     0.090000        1.0080           0
     10502 WT5      27       MECN     H12      HGA3     0.090000        1.0080           0
     10503 WT5      27       MECN     H13      HGA3     0.090000        1.0080           0
     10504 WT5      27       MECN     C2       CG1N1    0.360000       12.0110           0
     10505 WT5      27       MECN     N3       NG1T1   -0.460000       14.0070           0
     10506 WT5      28       MECN     C1       CG331   -0.170000       12.0110           0
     10507 WT5      28       MECN     H11      HGA3     0.090000        1.0080           0
     10508 WT5      28       MECN     H12      HGA3     0.090000        1.0080           0
     10509 WT5      28       MECN     H13      HGA3     0.090000        1.0080           0
     10510 WT5      28       MECN     C2       CG1N1    0.360000       12.0110           0
     10511 WT5      28       MECN     N3       NG1T1   -0.460000       14.0070           0
     10512 WT5      31       MECN     C1       CG331   -0.170000       12.0110           0
     10513 WT5      31       MECN     H11      HGA3     0.090000        1.0080           0
     10514 WT5      31       MECN     H12      HGA3     0.090000        1.0080           0
     10515 WT5      31       MECN     H13      HGA3     0.090000        1.0080           0
     10516 WT5      31       MECN     C2       CG1N1    0.360000       12.0110           0
     10517 WT5      31       MECN     N3       NG1T1   -0.460000       14.0070           0
     10518 WT5      33       MECN     C1       CG331   -0.170000       12.0110           0
     10519 WT5      33       MECN     H11      HGA3     0.090000        1.0080           0
     10520 WT5      33       MECN     H12      HGA3     0.090000        1.0080           0
     10521 WT5      33       MECN     H13      HGA3     0.090000        1.0080           0
     10522 WT5      33       MECN     C2       CG1N1    0.360000       12.0110           0
     10523 WT5      33       MECN     N3       NG1T1   -0.460000       14.0070           0
     10524 WT5      34       MECN     C1       CG331   -0.170000       12.0110           0
     10525 WT5      34       MECN     H11      HGA3     0.090000        1.0080           0
     10526 WT5      34       MECN     H12      HGA3     0.090000        1.0080           0
     10527 WT5      34       MECN     H13      HGA3     0.090000        1.0080           0
     10528 WT5      34       MECN     C2       CG1N1    0.360000       12.0110           0
     10529 WT5      34       MECN     N3       NG1T1   -0.460000       14.0070           0
     10530 WT5      36       MECN     C1       CG331   -0.170000       12.0110           0
     10531 WT5      36       MECN     H11      HGA3     0.090000        1.0080           0
     10532 WT5      36       MECN     H12      HGA3     0.090000        1.0080           0
     10533 WT5      36       MECN     H13      HGA3     0.090000        1.0080           0
     10534 WT5      36       MECN     C2       CG1N1    0.360000       12.0110           0
     10535 WT5      36       MECN     N3       NG1T1   -0.460000       14.0070           0
     10536 WT5      37       MECN     C1       CG331   -0.170000       12.0110           0
     10537 WT5      37       MECN     H11      HGA3     0.090000        1.0080           0
     10538 WT5      37       MECN     H12      HGA3     0.090000        1.0080           0
     10539 WT5      37       MECN     H13      HGA3     0.090000        1.0080           0
     10540 WT5      37       MECN     C2       CG1N1    0.360000       12.0110           0
     10541 WT5      37       MECN     N3       NG1T1   -0.460000       14.0070           0
     10542 WT5      42       MECN     C1       CG331   -0.170000       12.0110           0
     10543 WT5      42       MECN     H11      HGA3     0.090000        1.0080           0
     10544 WT5      42       MECN     H12      HGA3     0.090000        1.0080           0
     10545 WT5      42       MECN     H13      HGA3     0.090000        1.0080           0
     10546 WT5      42       MECN     C2       CG1N1    0.360000       12.0110           0
     10547 WT5      42       MECN     N3       NG1T1   -0.460000       14.0070           0
     10548 WT5      44       MECN     C1       CG331   -0.170000       12.0110           0
     10549 WT5      44       MECN     H11      HGA3     0.090000        1.0080           0
     10550 WT5      44       MECN     H12      HGA3     0.090000        1.0080           0
     10551 WT5      44       MECN     H13      HGA3     0.090000        1.0080           0
     10552 WT5      44       MECN     C2       CG1N1    0.360000       12.0110           0
     10553 WT5      44       MECN     N3       NG1T1   -0.460000       14.0070           0
     10554 WT5      46       MECN     C1       CG331   -0.170000       12.0110           0
     10555 WT5      46       MECN     H11      HGA3     0.090000        1.0080           0
     10556 WT5      46       MECN     H12      HGA3     0.090000        1.0080           0
     10557 WT5      46       MECN     H13      HGA3     0.090000        1.0080           0
     10558 WT5      46       MECN     C2       CG1N1    0.360000       12.0110           0
     10559 WT5      46       MECN     N3       NG1T1   -0.460000       14.0070           0
     10560 WT5      50       MECN     C1       CG331   -0.170000       12.0110           0
     10561 WT5      50       MECN     H11      HGA3     0.090000        1.0080           0
     10562 WT5      50       MECN     H12      HGA3     0.090000        1.0080           0
     10563 WT5      50       MECN     H13      HGA3     0.090000        1.0080           0
     10564 WT5      50       MECN     C2       CG1N1    0.360000       12.0110           0
     10565 WT5      50       MECN     N3       NG1T1   -0.460000       14.0070           0
     10566 WT5      51       MECN     C1       CG331   -0.170000       12.0110           0
     10567 WT5      51       MECN     H11      HGA3     0.090000        1.0080           0
     10568 WT5      51       MECN     H12      HGA3     0.090000        1.0080           0
     10569 WT5      51       MECN     H13      HGA3     0.090000        1.0080           0
     10570 WT5      51       MECN     C2       CG1N1    0.360000       12.0110           0
     10571 WT5      51       MECN     N3       NG1T1   -0.460000       14.0070           0
     10572 WT5      53       MECN     C1       CG331   -0.170000       12.0110           0
     10573 WT5      53       MECN     H11      HGA3     0.090000        1.0080           0
     10574 WT5      53       MECN     H12      HGA3     0.090000        1.0080           0
     10575 WT5      53       MECN     H13      HGA3     0.090000        1.0080           0
     10576 WT5      53       MECN     C2       CG1N1    0.360000       12.0110           0
     10577 WT5      53       MECN     N3       NG1T1   -0.460000       14.0070           0
     10578 WT5      54       MECN     C1       CG331   -0.170000       12.0110           0
     10579 WT5      54       MECN     H11      HGA3     0.090000        1.0080           0
     10580 WT5      54       MECN     H12      HGA3     0.090000        1.0080           0
     10581 WT5      54       MECN     H13      HGA3     0.090000        1.0080           0
     10582 WT5      54       MECN     C2       CG1N1    0.360000       12.0110           0
     10583 WT5      54       MECN     N3       NG1T1   -0.460000       14.0070           0
     10584 WT5      58       MECN     C1       CG331   -0.170000       12.0110           0
     10585 WT5      58       MECN     H11      HGA3     0.090000        1.0080           0
     10586 WT5      58       MECN     H12      HGA3     0.090000        1.0080           0
     10587 WT5      58       MECN     H13      HGA3     0.090000        1.0080           0
     10588 WT5      58       MECN     C2       CG1N1    0.360000       12.0110           0
     10589 WT5      58       MECN     N3       NG1T1   -0.460000       14.0070           0
     10590 WT5      64       MECN     C1       CG331   -0.170000       12.0110           0
     10591 WT5      64       MECN     H11      HGA3     0.090000        1.0080           0
     10592 WT5      64       MECN     H12      HGA3     0.090000        1.0080           0
     10593 WT5      64       MECN     H13      HGA3     0.090000        1.0080           0
     10594 WT5      64       MECN     C2       CG1N1    0.360000       12.0110           0
     10595 WT5      64       MECN     N3       NG1T1   -0.460000       14.0070           0
     10596 WT5      65       MECN     C1       CG331   -0.170000       12.0110           0
     10597 WT5      65       MECN     H11      HGA3     0.090000        1.0080           0
     10598 WT5      65       MECN     H12      HGA3     0.090000        1.0080           0
     10599 WT5      65       MECN     H13      HGA3     0.090000        1.0080           0
     10600 WT5      65       MECN     C2       CG1N1    0.360000       12.0110           0
     10601 WT5      65       MECN     N3       NG1T1   -0.460000       14.0070           0
     10602 WT5      68       MECN     C1       CG331   -0.170000       12.0110           0
     10603 WT5      68       MECN     H11      HGA3     0.090000        1.0080           0
     10604 WT5      68       MECN     H12      HGA3     0.090000        1.0080           0
     10605 WT5      68       MECN     H13      HGA3     0.090000        1.0080           0
     10606 WT5      68       MECN     C2       CG1N1    0.360000       12.0110           0
     10607 WT5      68       MECN     N3       NG1T1   -0.460000       14.0070           0
     10608 WT5      69       MECN     C1       CG331   -0.170000       12.0110           0
     10609 WT5      69       MECN     H11      HGA3     0.090000        1.0080           0
     10610 WT5      69       MECN     H12      HGA3     0.090000        1.0080           0
     10611 WT5      69       MECN     H13      HGA3     0.090000        1.0080           0
     10612 WT5      69       MECN     C2       CG1N1    0.360000       12.0110           0
     10613 WT5      69       MECN     N3       NG1T1   -0.460000       14.0070           0
     10614 WT5      70       MECN     C1       CG331   -0.170000       12.0110           0
     10615 WT5      70       MECN     H11      HGA3     0.090000        1.0080           0
     10616 WT5      70       MECN     H12      HGA3     0.090000        1.0080           0
     10617 WT5      70       MECN     H13      HGA3     0.090000        1.0080           0
     10618 WT5      70       MECN     C2       CG1N1    0.360000       12.0110           0
     10619 WT5      70       MECN     N3       NG1T1   -0.460000       14.0070           0
     10620 WT5      71       MECN     C1       CG331   -0.170000       12.0110           0
     10621 WT5      71       MECN     H11      HGA3     0.090000        1.0080           0
     10622 WT5      71       MECN     H12      HGA3     0.090000        1.0080           0
     10623 WT5      71       MECN     H13      HGA3     0.090000        1.0080           0
     10624 WT5      71       MECN     C2       CG1N1    0.360000       12.0110           0
     10625 WT5      71       MECN     N3       NG1T1   -0.460000       14.0070           0
     10626 WT5      73       MECN     C1       CG331   -0.170000       12.0110           0
     10627 WT5      73       MECN     H11      HGA3     0.090000        1.0080           0
     10628 WT5      73       MECN     H12      HGA3     0.090000        1.0080           0
     10629 WT5      73       MECN     H13      HGA3     0.090000        1.0080           0
     10630 WT5      73       MECN     C2       CG1N1    0.360000       12.0110           0
     10631 WT5      73       MECN     N3       NG1T1   -0.460000       14.0070           0
     10632 WT5      74       MECN     C1       CG331   -0.170000       12.0110           0
     10633 WT5      74       MECN     H11      HGA3     0.090000        1.0080           0
     10634 WT5      74       MECN     H12      HGA3     0.090000        1.0080           0
     10635 WT5      74       MECN     H13      HGA3     0.090000        1.0080           0
     10636 WT5      74       MECN     C2       CG1N1    0.360000       12.0110           0
     10637 WT5      74       MECN     N3       NG1T1   -0.460000       14.0070           0
     10638 WT5      76       MECN     C1       CG331   -0.170000       12.0110           0
     10639 WT5      76       MECN     H11      HGA3     0.090000        1.0080           0
     10640 WT5      76       MECN     H12      HGA3     0.090000        1.0080           0
     10641 WT5      76       MECN     H13      HGA3     0.090000        1.0080           0
     10642 WT5      76       MECN     C2       CG1N1    0.360000       12.0110           0
     10643 WT5      76       MECN     N3       NG1T1   -0.460000       14.0070           0
     10644 WT5      77       MECN     C1       CG331   -0.170000       12.0110           0
     10645 WT5      77       MECN     H11      HGA3     0.090000        1.0080           0
     10646 WT5      77       MECN     H12      HGA3     0.090000        1.0080           0
     10647 WT5      77       MECN     H13      HGA3     0.090000        1.0080           0
     10648 WT5      77       MECN     C2       CG1N1    0.360000       12.0110           0
     10649 WT5      77       MECN     N3       NG1T1   -0.460000       14.0070           0
     10650 WT5      79       MECN     C1       CG331   -0.170000       12.0110           0
     10651 WT5      79       MECN     H11      HGA3     0.090000        1.0080           0
     10652 WT5      79       MECN     H12      HGA3     0.090000        1.0080           0
     10653 WT5      79       MECN     H13      HGA3     0.090000        1.0080           0
     10654 WT5      79       MECN     C2       CG1N1    0.360000       12.0110           0
     10655 WT5      79       MECN     N3       NG1T1   -0.460000       14.0070           0
     10656 WT5      81       MECN     C1       CG331   -0.170000       12.0110           0
     10657 WT5      81       MECN     H11      HGA3     0.090000        1.0080           0
     10658 WT5      81       MECN     H12      HGA3     0.090000        1.0080           0
     10659 WT5      81       MECN     H13      HGA3     0.090000        1.0080           0
     10660 WT5      81       MECN     C2       CG1N1    0.360000       12.0110           0
     10661 WT5      81       MECN     N3       NG1T1   -0.460000       14.0070           0
     10662 WT5      84       MECN     C1       CG331   -0.170000       12.0110           0
     10663 WT5      84       MECN     H11      HGA3     0.090000        1.0080           0
     10664 WT5      84       MECN     H12      HGA3     0.090000        1.0080           0
     10665 WT5      84       MECN     H13      HGA3     0.090000        1.0080           0
     10666 WT5      84       MECN     C2       CG1N1    0.360000       12.0110           0
     10667 WT5      84       MECN     N3       NG1T1   -0.460000       14.0070           0
     10668 WT5      85       MECN     C1       CG331   -0.170000       12.0110           0
     10669 WT5      85       MECN     H11      HGA3     0.090000        1.0080           0
     10670 WT5      85       MECN     H12      HGA3     0.090000        1.0080           0
     10671 WT5      85       MECN     H13      HGA3     0.090000        1.0080           0
     10672 WT5      85       MECN     C2       CG1N1    0.360000       12.0110           0
     10673 WT5      85       MECN     N3       NG1T1   -0.460000       14.0070           0
     10674 WT5      86       MECN     C1       CG331   -0.170000       12.0110           0
     10675 WT5      86       MECN     H11      HGA3     0.090000        1.0080           0
     10676 WT5      86       MECN     H12      HGA3     0.090000        1.0080           0
     10677 WT5      86       MECN     H13      HGA3     0.090000        1.0080           0
     10678 WT5      86       MECN     C2       CG1N1    0.360000       12.0110           0
     10679 WT5      86       MECN     N3       NG1T1   -0.460000       14.0070           0
     10680 WT5      87       MECN     C1       CG331   -0.170000       12.0110           0
     10681 WT5      87       MECN     H11      HGA3     0.090000        1.0080           0
     10682 WT5      87       MECN     H12      HGA3     0.090000        1.0080           0
     10683 WT5      87       MECN     H13      HGA3     0.090000        1.0080           0
     10684 WT5      87       MECN     C2       CG1N1    0.360000       12.0110           0
     10685 WT5      87       MECN     N3       NG1T1   -0.460000       14.0070           0
     10686 WT5      91       MECN     C1       CG331   -0.170000       12.0110           0
     10687 WT5      91       MECN     H11      HGA3     0.090000        1.0080           0
     10688 WT5      91       MECN     H12      HGA3     0.090000        1.0080           0
     10689 WT5      91       MECN     H13      HGA3     0.090000        1.0080           0
     10690 WT5      91       MECN     C2       CG1N1    0.360000       12.0110           0
     10691 WT5      91       MECN     N3       NG1T1   -0.460000       14.0070           0
     10692 WT5      94       MECN     C1       CG331   -0.170000       12.0110           0
     10693 WT5      94       MECN     H11      HGA3     0.090000        1.0080           0
     10694 WT5      94       MECN     H12      HGA3     0.090000        1.0080           0
     10695 WT5      94       MECN     H13      HGA3     0.090000        1.0080           0
     10696 WT5      94       MECN     C2       CG1N1    0.360000       12.0110           0
     10697 WT5      94       MECN     N3       NG1T1   -0.460000       14.0070           0
     10698 WT5      98       MECN     C1       CG331   -0.170000       12.0110           0
     10699 WT5      98       MECN     H11      HGA3     0.090000        1.0080           0
     10700 WT5      98       MECN     H12      HGA3     0.090000        1.0080           0
     10701 WT5      98       MECN     H13      HGA3     0.090000        1.0080           0
     10702 WT5      98       MECN     C2       CG1N1    0.360000       12.0110           0
     10703 WT5      98       MECN     N3       NG1T1   -0.460000       14.0070           0
     10704 WT5      99       MECN     C1       CG331   -0.170000       12.0110           0
     10705 WT5      99       MECN     H11      HGA3     0.090000        1.0080           0
     10706 WT5      99       MECN     H12      HGA3     0.090000        1.0080           0
     10707 WT5      99       MECN     H13      HGA3     0.090000        1.0080           0
     10708 WT5      99       MECN     C2       CG1N1    0.360000       12.0110           0
     10709 WT5      99       MECN     N3       NG1T1   -0.460000       14.0070           0
     10710 WT5      101      MECN     C1       CG331   -0.170000       12.0110           0
     10711 WT5      101      MECN     H11      HGA3     0.090000        1.0080           0
     10712 WT5      101      MECN     H12      HGA3     0.090000        1.0080           0
     10713 WT5      101      MECN     H13      HGA3     0.090000        1.0080           0
     10714 WT5      101      MECN     C2       CG1N1    0.360000       12.0110           0
     10715 WT5      101      MECN     N3       NG1T1   -0.460000       14.0070           0
     10716 WT5      103      MECN     C1       CG331   -0.170000       12.0110           0
     10717 WT5      103      MECN     H11      HGA3     0.090000        1.0080           0
     10718 WT5      103      MECN     H12      HGA3     0.090000        1.0080           0
     10719 WT5      103      MECN     H13      HGA3     0.090000        1.0080           0
     10720 WT5      103      MECN     C2       CG1N1    0.360000       12.0110           0
     10721 WT5      103      MECN     N3       NG1T1   -0.460000       14.0070           0
     10722 WT5      105      MECN     C1       CG331   -0.170000       12.0110           0
     10723 WT5      105      MECN     H11      HGA3     0.090000        1.0080           0
     10724 WT5      105      MECN     H12      HGA3     0.090000        1.0080           0
     10725 WT5      105      MECN     H13      HGA3     0.090000        1.0080           0
     10726 WT5      105      MECN     C2       CG1N1    0.360000       12.0110           0
     10727 WT5      105      MECN     N3       NG1T1   -0.460000       14.0070           0
     10728 WT5      109      MECN     C1       CG331   -0.170000       12.0110           0
     10729 WT5      109      MECN     H11      HGA3     0.090000        1.0080           0
     10730 WT5      109      MECN     H12      HGA3     0.090000        1.0080           0
     10731 WT5      109      MECN     H13      HGA3     0.090000        1.0080           0
     10732 WT5      109      MECN     C2       CG1N1    0.360000       12.0110           0
     10733 WT5      109      MECN     N3       NG1T1   -0.460000       14.0070           0
     10734 WT5      110      MECN     C1       CG331   -0.170000       12.0110           0
     10735 WT5      110      MECN     H11      HGA3     0.090000        1.0080           0
     10736 WT5      110      MECN     H12      HGA3     0.090000        1.0080           0
     10737 WT5      110      MECN     H13      HGA3     0.090000        1.0080           0
     10738 WT5      110      MECN     C2       CG1N1    0.360000       12.0110           0
     10739 WT5      110      MECN     N3       NG1T1   -0.460000       14.0070           0
     10740 WT5      112      MECN     C1       CG331   -0.170000       12.0110           0
     10741 WT5      112      MECN     H11      HGA3     0.090000        1.0080           0
     10742 WT5      112      MECN     H12      HGA3     0.090000        1.0080           0
     10743 WT5      112      MECN     H13      HGA3     0.090000        1.0080           0
     10744 WT5      112      MECN     C2       CG1N1    0.360000       12.0110           0
     10745 WT5      112      MECN     N3       NG1T1   -0.460000       14.0070           0
     10746 WT5      113      MECN     C1       CG331   -0.170000       12.0110           0
     10747 WT5      113      MECN     H11      HGA3     0.090000        1.0080           0
     10748 WT5      113      MECN     H12      HGA3     0.090000        1.0080           0
     10749 WT5      113      MECN     H13      HGA3     0.090000        1.0080           0
     10750 WT5      113      MECN     C2       CG1N1    0.360000       12.0110           0
     10751 WT5      113      MECN     N3       NG1T1   -0.460000       14.0070           0
     10752 WT5      114      MECN     C1       CG331   -0.170000       12.0110           0
     10753 WT5      114      MECN     H11      HGA3     0.090000        1.0080           0
     10754 WT5      114      MECN     H12      HGA3     0.090000        1.0080           0
     10755 WT5      114      MECN     H13      HGA3     0.090000        1.0080           0
     10756 WT5      114      MECN     C2       CG1N1    0.360000       12.0110           0
     10757 WT5      114      MECN     N3       NG1T1   -0.460000       14.0070           0
     10758 WT5      116      MECN     C1       CG331   -0.170000       12.0110           0
     10759 WT5      116      MECN     H11      HGA3     0.090000        1.0080           0
     10760 WT5      116      MECN     H12      HGA3     0.090000        1.0080           0
     10761 WT5      116      MECN     H13      HGA3     0.090000        1.0080           0
     10762 WT5      116      MECN     C2       CG1N1    0.360000       12.0110           0
     10763 WT5      116      MECN     N3       NG1T1   -0.460000       14.0070           0
     10764 WT5      120      MECN     C1       CG331   -0.170000       12.0110           0
     10765 WT5      120      MECN     H11      HGA3     0.090000        1.0080           0
     10766 WT5      120      MECN     H12      HGA3     0.090000        1.0080           0
     10767 WT5      120      MECN     H13      HGA3     0.090000        1.0080           0
     10768 WT5      120      MECN     C2       CG1N1    0.360000       12.0110           0
     10769 WT5      120      MECN     N3       NG1T1   -0.460000       14.0070           0
     10770 WT5      123      MECN     C1       CG331   -0.170000       12.0110           0
     10771 WT5      123      MECN     H11      HGA3     0.090000        1.0080           0
     10772 WT5      123      MECN     H12      HGA3     0.090000        1.0080           0
     10773 WT5      123      MECN     H13      HGA3     0.090000        1.0080           0
     10774 WT5      123      MECN     C2       CG1N1    0.360000       12.0110           0
     10775 WT5      123      MECN     N3       NG1T1   -0.460000       14.0070           0
     10776 WT5      125      MECN     C1       CG331   -0.170000       12.0110           0
     10777 WT5      125      MECN     H11      HGA3     0.090000        1.0080           0
     10778 WT5      125      MECN     H12      HGA3     0.090000        1.0080           0
     10779 WT5      125      MECN     H13      HGA3     0.090000        1.0080           0
     10780 WT5      125      MECN     C2       CG1N1    0.360000       12.0110           0
     10781 WT5      125      MECN     N3       NG1T1   -0.460000       14.0070           0
     10782 WT5      127      MECN     C1       CG331   -0.170000       12.0110           0
     10783 WT5      127      MECN     H11      HGA3     0.090000        1.0080           0
     10784 WT5      127      MECN     H12      HGA3     0.090000        1.0080           0
     10785 WT5      127      MECN     H13      HGA3     0.090000        1.0080           0
     10786 WT5      127      MECN     C2       CG1N1    0.360000       12.0110           0
     10787 WT5      127      MECN     N3       NG1T1   -0.460000       14.0070           0
     10788 WT5      128      MECN     C1       CG331   -0.170000       12.0110           0
     10789 WT5      128      MECN     H11      HGA3     0.090000        1.0080           0
     10790 WT5      128      MECN     H12      HGA3     0.090000        1.0080           0
     10791 WT5      128      MECN     H13      HGA3     0.090000        1.0080           0
     10792 WT5      128      MECN     C2       CG1N1    0.360000       12.0110           0
     10793 WT5      128      MECN     N3       NG1T1   -0.460000       14.0070           0
     10794 WT5      132      MECN     C1       CG331   -0.170000       12.0110           0
     10795 WT5      132      MECN     H11      HGA3     0.090000        1.0080           0
     10796 WT5      132      MECN     H12      HGA3     0.090000        1.0080           0
     10797 WT5      132      MECN     H13      HGA3     0.090000        1.0080           0
     10798 WT5      132      MECN     C2       CG1N1    0.360000       12.0110           0
     10799 WT5      132      MECN     N3       NG1T1   -0.460000       14.0070           0
     10800 WT5      138      MECN     C1       CG331   -0.170000       12.0110           0
     10801 WT5      138      MECN     H11      HGA3     0.090000        1.0080           0
     10802 WT5      138      MECN     H12      HGA3     0.090000        1.0080           0
     10803 WT5      138      MECN     H13      HGA3     0.090000        1.0080           0
     10804 WT5      138      MECN     C2       CG1N1    0.360000       12.0110           0
     10805 WT5      138      MECN     N3       NG1T1   -0.460000       14.0070           0
     10806 WT5      139      MECN     C1       CG331   -0.170000       12.0110           0
     10807 WT5      139      MECN     H11      HGA3     0.090000        1.0080           0
     10808 WT5      139      MECN     H12      HGA3     0.090000        1.0080           0
     10809 WT5      139      MECN     H13      HGA3     0.090000        1.0080           0
     10810 WT5      139      MECN     C2       CG1N1    0.360000       12.0110           0
     10811 WT5      139      MECN     N3       NG1T1   -0.460000       14.0070           0
     10812 WT5      140      MECN     C1       CG331   -0.170000       12.0110           0
     10813 WT5      140      MECN     H11      HGA3     0.090000        1.0080           0
     10814 WT5      140      MECN     H12      HGA3     0.090000        1.0080           0
     10815 WT5      140      MECN     H13      HGA3     0.090000        1.0080           0
     10816 WT5      140      MECN     C2       CG1N1    0.360000       12.0110           0
     10817 WT5      140      MECN     N3       NG1T1   -0.460000       14.0070           0
     10818 WT5      149      MECN     C1       CG331   -0.170000       12.0110           0
     10819 WT5      149      MECN     H11      HGA3     0.090000        1.0080           0
     10820 WT5      149      MECN     H12      HGA3     0.090000        1.0080           0
     10821 WT5      149      MECN     H13      HGA3     0.090000        1.0080           0
     10822 WT5      149      MECN     C2       CG1N1    0.360000       12.0110           0
     10823 WT5      149      MECN     N3       NG1T1   -0.460000       14.0070           0
     10824 WT5      155      MECN     C1       CG331   -0.170000       12.0110           0
     10825 WT5      155      MECN     H11      HGA3     0.090000        1.0080           0
     10826 WT5      155      MECN     H12      HGA3     0.090000        1.0080           0
     10827 WT5      155      MECN     H13      HGA3     0.090000        1.0080           0
     10828 WT5      155      MECN     C2       CG1N1    0.360000       12.0110           0
     10829 WT5      155      MECN     N3       NG1T1   -0.460000       14.0070           0
     10830 WT5      156      MECN     C1       CG331   -0.170000       12.0110           0
     10831 WT5      156      MECN     H11      HGA3     0.090000        1.0080           0
     10832 WT5      156      MECN     H12      HGA3     0.090000        1.0080           0
     10833 WT5      156      MECN     H13      HGA3     0.090000        1.0080           0
     10834 WT5      156      MECN     C2       CG1N1    0.360000       12.0110           0
     10835 WT5      156      MECN     N3       NG1T1   -0.460000       14.0070           0
     10836 WT5      157      MECN     C1       CG331   -0.170000       12.0110           0
     10837 WT5      157      MECN     H11      HGA3     0.090000        1.0080           0
     10838 WT5      157      MECN     H12      HGA3     0.090000        1.0080           0
     10839 WT5      157      MECN     H13      HGA3     0.090000        1.0080           0
     10840 WT5      157      MECN     C2       CG1N1    0.360000       12.0110           0
     10841 WT5      157      MECN     N3       NG1T1   -0.460000       14.0070           0
     10842 WT5      158      MECN     C1       CG331   -0.170000       12.0110           0
     10843 WT5      158      MECN     H11      HGA3     0.090000        1.0080           0
     10844 WT5      158      MECN     H12      HGA3     0.090000        1.0080           0
     10845 WT5      158      MECN     H13      HGA3     0.090000        1.0080           0
     10846 WT5      158      MECN     C2       CG1N1    0.360000       12.0110           0
     10847 WT5      158      MECN     N3       NG1T1   -0.460000       14.0070           0
     10848 WT5      160      MECN     C1       CG331   -0.170000       12.0110           0
     10849 WT5      160      MECN     H11      HGA3     0.090000        1.0080           0
     10850 WT5      160      MECN     H12      HGA3     0.090000        1.0080           0
     10851 WT5      160      MECN     H13      HGA3     0.090000        1.0080           0
     10852 WT5      160      MECN     C2       CG1N1    0.360000       12.0110           0
     10853 WT5      160      MECN     N3       NG1T1   -0.460000       14.0070           0
     10854 WT5      167      MECN     C1       CG331   -0.170000       12.0110           0
     10855 WT5      167      MECN     H11      HGA3     0.090000        1.0080           0
     10856 WT5      167      MECN     H12      HGA3     0.090000        1.0080           0
     10857 WT5      167      MECN     H13      HGA3     0.090000        1.0080           0
     10858 WT5      167      MECN     C2       CG1N1    0.360000       12.0110           0
     10859 WT5      167      MECN     N3       NG1T1   -0.460000       14.0070           0
     10860 WT5      169      MECN     C1       CG331   -0.170000       12.0110           0
     10861 WT5      169      MECN     H11      HGA3     0.090000        1.0080           0
     10862 WT5      169      MECN     H12      HGA3     0.090000        1.0080           0
     10863 WT5      169      MECN     H13      HGA3     0.090000        1.0080           0
     10864 WT5      169      MECN     C2       CG1N1    0.360000       12.0110           0
     10865 WT5      169      MECN     N3       NG1T1   -0.460000       14.0070           0
     10866 WT5      170      MECN     C1       CG331   -0.170000       12.0110           0
     10867 WT5      170      MECN     H11      HGA3     0.090000        1.0080           0
     10868 WT5      170      MECN     H12      HGA3     0.090000        1.0080           0
     10869 WT5      170      MECN     H13      HGA3     0.090000        1.0080           0
     10870 WT5      170      MECN     C2       CG1N1    0.360000       12.0110           0
     10871 WT5      170      MECN     N3       NG1T1   -0.460000       14.0070           0
     10872 WT5      171      MECN     C1       CG331   -0.170000       12.0110           0
     10873 WT5      171      MECN     H11      HGA3     0.090000        1.0080           0
     10874 WT5      171      MECN     H12      HGA3     0.090000        1.0080           0
     10875 WT5      171      MECN     H13      HGA3     0.090000        1.0080           0
     10876 WT5      171      MECN     C2       CG1N1    0.360000       12.0110           0
     10877 WT5      171      MECN     N3       NG1T1   -0.460000       14.0070           0
     10878 WT5      172      MECN     C1       CG331   -0.170000       12.0110           0
     10879 WT5      172      MECN     H11      HGA3     0.090000        1.0080           0
     10880 WT5      172      MECN     H12      HGA3     0.090000        1.0080           0
     10881 WT5      172      MECN     H13      HGA3     0.090000        1.0080           0
     10882 WT5      172      MECN     C2       CG1N1    0.360000       12.0110           0
     10883 WT5      172      MECN     N3       NG1T1   -0.460000       14.0070           0
     10884 WT5      174      MECN     C1       CG331   -0.170000       12.0110           0
     10885 WT5      174      MECN     H11      HGA3     0.090000        1.0080           0
     10886 WT5      174      MECN     H12      HGA3     0.090000        1.0080           0
     10887 WT5      174      MECN     H13      HGA3     0.090000        1.0080           0
     10888 WT5      174      MECN     C2       CG1N1    0.360000       12.0110           0
     10889 WT5      174      MECN     N3       NG1T1   -0.460000       14.0070           0
     10890 WT5      176      MECN     C1       CG331   -0.170000       12.0110           0
     10891 WT5      176      MECN     H11      HGA3     0.090000        1.0080           0
     10892 WT5      176      MECN     H12      HGA3     0.090000        1.0080           0
     10893 WT5      176      MECN     H13      HGA3     0.090000        1.0080           0
     10894 WT5      176      MECN     C2       CG1N1    0.360000       12.0110           0
     10895 WT5      176      MECN     N3       NG1T1   -0.460000       14.0070           0
     10896 WT5      180      MECN     C1       CG331   -0.170000       12.0110           0
     10897 WT5      180      MECN     H11      HGA3     0.090000        1.0080           0
     10898 WT5      180      MECN     H12      HGA3     0.090000        1.0080           0
     10899 WT5      180      MECN     H13      HGA3     0.090000        1.0080           0
     10900 WT5      180      MECN     C2       CG1N1    0.360000       12.0110           0
     10901 WT5      180      MECN     N3       NG1T1   -0.460000       14.0070           0
     10902 WT5      183      MECN     C1       CG331   -0.170000       12.0110           0
     10903 WT5      183      MECN     H11      HGA3     0.090000        1.0080           0
     10904 WT5      183      MECN     H12      HGA3     0.090000        1.0080           0
     10905 WT5      183      MECN     H13      HGA3     0.090000        1.0080           0
     10906 WT5      183      MECN     C2       CG1N1    0.360000       12.0110           0
     10907 WT5      183      MECN     N3       NG1T1   -0.460000       14.0070           0
     10908 WT5      185      MECN     C1       CG331   -0.170000       12.0110           0
     10909 WT5      185      MECN     H11      HGA3     0.090000        1.0080           0
     10910 WT5      185      MECN     H12      HGA3     0.090000        1.0080           0
     10911 WT5      185      MECN     H13      HGA3     0.090000        1.0080           0
     10912 WT5      185      MECN     C2       CG1N1    0.360000       12.0110           0
     10913 WT5      185      MECN     N3       NG1T1   -0.460000       14.0070           0
     10914 WT5      187      MECN     C1       CG331   -0.170000       12.0110           0
     10915 WT5      187      MECN     H11      HGA3     0.090000        1.0080           0
     10916 WT5      187      MECN     H12      HGA3     0.090000        1.0080           0
     10917 WT5      187      MECN     H13      HGA3     0.090000        1.0080           0
     10918 WT5      187      MECN     C2       CG1N1    0.360000       12.0110           0
     10919 WT5      187      MECN     N3       NG1T1   -0.460000       14.0070           0
     10920 WT5      188      MECN     C1       CG331   -0.170000       12.0110           0
     10921 WT5      188      MECN     H11      HGA3     0.090000        1.0080           0
     10922 WT5      188      MECN     H12      HGA3     0.090000        1.0080           0
     10923 WT5      188      MECN     H13      HGA3     0.090000        1.0080           0
     10924 WT5      188      MECN     C2       CG1N1    0.360000       12.0110           0
     10925 WT5      188      MECN     N3       NG1T1   -0.460000       14.0070           0
     10926 WT5      200      MECN     C1       CG331   -0.170000       12.0110           0
     10927 WT5      200      MECN     H11      HGA3     0.090000        1.0080           0
     10928 WT5      200      MECN     H12      HGA3     0.090000        1.0080           0
     10929 WT5      200      MECN     H13      HGA3     0.090000        1.0080           0
     10930 WT5      200      MECN     C2       CG1N1    0.360000       12.0110           0
     10931 WT5      200      MECN     N3       NG1T1   -0.460000       14.0070           0
     10932 WT5      206      MECN     C1       CG331   -0.170000       12.0110           0
     10933 WT5      206      MECN     H11      HGA3     0.090000        1.0080           0
     10934 WT5      206      MECN     H12      HGA3     0.090000        1.0080           0
     10935 WT5      206      MECN     H13      HGA3     0.090000        1.0080           0
     10936 WT5      206      MECN     C2       CG1N1    0.360000       12.0110           0
     10937 WT5      206      MECN     N3       NG1T1   -0.460000       14.0070           0
     10938 WT5      209      MECN     C1       CG331   -0.170000       12.0110           0
     10939 WT5      209      MECN     H11      HGA3     0.090000        1.0080           0
     10940 WT5      209      MECN     H12      HGA3     0.090000        1.0080           0
     10941 WT5      209      MECN     H13      HGA3     0.090000        1.0080           0
     10942 WT5      209      MECN     C2       CG1N1    0.360000       12.0110           0
     10943 WT5      209      MECN     N3       NG1T1   -0.460000       14.0070           0
     10944 WT5      210      MECN     C1       CG331   -0.170000       12.0110           0
     10945 WT5      210      MECN     H11      HGA3     0.090000        1.0080           0
     10946 WT5      210      MECN     H12      HGA3     0.090000        1.0080           0
     10947 WT5      210      MECN     H13      HGA3     0.090000        1.0080           0
     10948 WT5      210      MECN     C2       CG1N1    0.360000       12.0110           0
     10949 WT5      210      MECN     N3       NG1T1   -0.460000       14.0070           0
     10950 WT5      214      MECN     C1       CG331   -0.170000       12.0110           0
     10951 WT5      214      MECN     H11      HGA3     0.090000        1.0080           0
     10952 WT5      214      MECN     H12      HGA3     0.090000        1.0080           0
     10953 WT5      214      MECN     H13      HGA3     0.090000        1.0080           0
     10954 WT5      214      MECN     C2       CG1N1    0.360000       12.0110           0
     10955 WT5      214      MECN     N3       NG1T1   -0.460000       14.0070           0
     10956 WT5      215      MECN     C1       CG331   -0.170000       12.0110           0
     10957 WT5      215      MECN     H11      HGA3     0.090000        1.0080           0
     10958 WT5      215      MECN     H12      HGA3     0.090000        1.0080           0
     10959 WT5      215      MECN     H13      HGA3     0.090000        1.0080           0
     10960 WT5      215      MECN     C2       CG1N1    0.360000       12.0110           0
     10961 WT5      215      MECN     N3       NG1T1   -0.460000       14.0070           0
     10962 WT5      216      MECN     C1       CG331   -0.170000       12.0110           0
     10963 WT5      216      MECN     H11      HGA3     0.090000        1.0080           0
     10964 WT5      216      MECN     H12      HGA3     0.090000        1.0080           0
     10965 WT5      216      MECN     H13      HGA3     0.090000        1.0080           0
     10966 WT5      216      MECN     C2       CG1N1    0.360000       12.0110           0
     10967 WT5      216      MECN     N3       NG1T1   -0.460000       14.0070           0
     10968 WT5      220      MECN     C1       CG331   -0.170000       12.0110           0
     10969 WT5      220      MECN     H11      HGA3     0.090000        1.0080           0
     10970 WT5      220      MECN     H12      HGA3     0.090000        1.0080           0
     10971 WT5      220      MECN     H13      HGA3     0.090000        1.0080           0
     10972 WT5      220      MECN     C2       CG1N1    0.360000       12.0110           0
     10973 WT5      220      MECN     N3       NG1T1   -0.460000       14.0070           0
     10974 WT5      222      MECN     C1       CG331   -0.170000       12.0110           0
     10975 WT5      222      MECN     H11      HGA3     0.090000        1.0080           0
     10976 WT5      222      MECN     H12      HGA3     0.090000        1.0080           0
     10977 WT5      222      MECN     H13      HGA3     0.090000        1.0080           0
     10978 WT5      222      MECN     C2       CG1N1    0.360000       12.0110           0
     10979 WT5      222      MECN     N3       NG1T1   -0.460000       14.0070           0
     10980 WT5      224      MECN     C1       CG331   -0.170000       12.0110           0
     10981 WT5      224      MECN     H11      HGA3     0.090000        1.0080           0
     10982 WT5      224      MECN     H12      HGA3     0.090000        1.0080           0
     10983 WT5      224      MECN     H13      HGA3     0.090000        1.0080           0
     10984 WT5      224      MECN     C2       CG1N1    0.360000       12.0110           0
     10985 WT5      224      MECN     N3       NG1T1   -0.460000       14.0070           0
     10986 WT5      226      MECN     C1       CG331   -0.170000       12.0110           0
     10987 WT5      226      MECN     H11      HGA3     0.090000        1.0080           0
     10988 WT5      226      MECN     H12      HGA3     0.090000        1.0080           0
     10989 WT5      226      MECN     H13      HGA3     0.090000        1.0080           0
     10990 WT5      226      MECN     C2       CG1N1    0.360000       12.0110           0
     10991 WT5      226      MECN     N3       NG1T1   -0.460000       14.0070           0
     10992 WT5      227      MECN     C1       CG331   -0.170000       12.0110           0
     10993 WT5      227      MECN     H11      HGA3     0.090000        1.0080           0
     10994 WT5      227      MECN     H12      HGA3     0.090000        1.0080           0
     10995 WT5      227      MECN     H13      HGA3     0.090000        1.0080           0
     10996 WT5      227      MECN     C2       CG1N1    0.360000       12.0110           0
     10997 WT5      227      MECN     N3       NG1T1   -0.460000       14.0070           0
     10998 WT5      228      MECN     C1       CG331   -0.170000       12.0110           0
     10999 WT5      228      MECN     H11      HGA3     0.090000        1.0080           0
     11000 WT5      228      MECN     H12      HGA3     0.090000        1.0080           0
     11001 WT5      228      MECN     H13      HGA3     0.090000        1.0080           0
     11002 WT5      228      MECN     C2       CG1N1    0.360000       12.0110           0
     11003 WT5      228      MECN     N3       NG1T1   -0.460000       14.0070           0
     11004 WT5      229      MECN     C1       CG331   -0.170000       12.0110           0
     11005 WT5      229      MECN     H11      HGA3     0.090000        1.0080           0
     11006 WT5      229      MECN     H12      HGA3     0.090000        1.0080           0
     11007 WT5      229      MECN     H13      HGA3     0.090000        1.0080           0
     11008 WT5      229      MECN     C2       CG1N1    0.360000       12.0110           0
     11009 WT5      229      MECN     N3       NG1T1   -0.460000       14.0070           0
     11010 WT5      234      MECN     C1       CG331   -0.170000       12.0110           0
     11011 WT5      234      MECN     H11      HGA3     0.090000        1.0080           0
     11012 WT5      234      MECN     H12      HGA3     0.090000        1.0080           0
     11013 WT5      234      MECN     H13      HGA3     0.090000        1.0080           0
     11014 WT5      234      MECN     C2       CG1N1    0.360000       12.0110           0
     11015 WT5      234      MECN     N3       NG1T1   -0.460000       14.0070           0
     11016 WT5      236      MECN     C1       CG331   -0.170000       12.0110           0
     11017 WT5      236      MECN     H11      HGA3     0.090000        1.0080           0
     11018 WT5      236      MECN     H12      HGA3     0.090000        1.0080           0
     11019 WT5      236      MECN     H13      HGA3     0.090000        1.0080           0
     11020 WT5      236      MECN     C2       CG1N1    0.360000       12.0110           0
     11021 WT5      236      MECN     N3       NG1T1   -0.460000       14.0070           0
     11022 WT5      237      MECN     C1       CG331   -0.170000       12.0110           0
     11023 WT5      237      MECN     H11      HGA3     0.090000        1.0080           0
     11024 WT5      237      MECN     H12      HGA3     0.090000        1.0080           0
     11025 WT5      237      MECN     H13      HGA3     0.090000        1.0080           0
     11026 WT5      237      MECN     C2       CG1N1    0.360000       12.0110           0
     11027 WT5      237      MECN     N3       NG1T1   -0.460000       14.0070           0
     11028 WT5      238      MECN     C1       CG331   -0.170000       12.0110           0
     11029 WT5      238      MECN     H11      HGA3     0.090000        1.0080           0
     11030 WT5      238      MECN     H12      HGA3     0.090000        1.0080           0
     11031 WT5      238      MECN     H13      HGA3     0.090000        1.0080           0
     11032 WT5      238      MECN     C2       CG1N1    0.360000       12.0110           0
     11033 WT5      238      MECN     N3       NG1T1   -0.460000       14.0070           0
     11034 WT5      239      MECN     C1       CG331   -0.170000       12.0110           0
     11035 WT5      239      MECN     H11      HGA3     0.090000        1.0080           0
     11036 WT5      239      MECN     H12      HGA3     0.090000        1.0080           0
     11037 WT5      239      MECN     H13      HGA3     0.090000        1.0080           0
     11038 WT5      239      MECN     C2       CG1N1    0.360000       12.0110           0
     11039 WT5      239      MECN     N3       NG1T1   -0.460000       14.0070           0
     11040 WT5      240      MECN     C1       CG331   -0.170000       12.0110           0
     11041 WT5      240      MECN     H11      HGA3     0.090000        1.0080           0
     11042 WT5      240      MECN     H12      HGA3     0.090000        1.0080           0
     11043 WT5      240      MECN     H13      HGA3     0.090000        1.0080           0
     11044 WT5      240      MECN     C2       CG1N1    0.360000       12.0110           0
     11045 WT5      240      MECN     N3       NG1T1   -0.460000       14.0070           0
     11046 WT5      242      MECN     C1       CG331   -0.170000       12.0110           0
     11047 WT5      242      MECN     H11      HGA3     0.090000        1.0080           0
     11048 WT5      242      MECN     H12      HGA3     0.090000        1.0080           0
     11049 WT5      242      MECN     H13      HGA3     0.090000        1.0080           0
     11050 WT5      242      MECN     C2       CG1N1    0.360000       12.0110           0
     11051 WT5      242      MECN     N3       NG1T1   -0.460000       14.0070           0
     11052 WT5      245      MECN     C1       CG331   -0.170000       12.0110           0
     11053 WT5      245      MECN     H11      HGA3     0.090000        1.0080           0
     11054 WT5      245      MECN     H12      HGA3     0.090000        1.0080           0
     11055 WT5      245      MECN     H13      HGA3     0.090000        1.0080           0
     11056 WT5      245      MECN     C2       CG1N1    0.360000       12.0110           0
     11057 WT5      245      MECN     N3       NG1T1   -0.460000       14.0070           0
     11058 WT5      249      MECN     C1       CG331   -0.170000       12.0110           0
     11059 WT5      249      MECN     H11      HGA3     0.090000        1.0080           0
     11060 WT5      249      MECN     H12      HGA3     0.090000        1.0080           0
     11061 WT5      249      MECN     H13      HGA3     0.090000        1.0080           0
     11062 WT5      249      MECN     C2       CG1N1    0.360000       12.0110           0
     11063 WT5      249      MECN     N3       NG1T1   -0.460000       14.0070           0
     11064 WT5      250      MECN     C1       CG331   -0.170000       12.0110           0
     11065 WT5      250      MECN     H11      HGA3     0.090000        1.0080           0
     11066 WT5      250      MECN     H12      HGA3     0.090000        1.0080           0
     11067 WT5      250      MECN     H13      HGA3     0.090000        1.0080           0
     11068 WT5      250      MECN     C2       CG1N1    0.360000       12.0110           0
     11069 WT5      250      MECN     N3       NG1T1   -0.460000       14.0070           0
     11070 WT5      254      MECN     C1       CG331   -0.170000       12.0110           0
     11071 WT5      254      MECN     H11      HGA3     0.090000        1.0080           0
     11072 WT5      254      MECN     H12      HGA3     0.090000        1.0080           0
     11073 WT5      254      MECN     H13      HGA3     0.090000        1.0080           0
     11074 WT5      254      MECN     C2       CG1N1    0.360000       12.0110           0
     11075 WT5      254      MECN     N3       NG1T1   -0.460000       14.0070           0
     11076 WT5      256      MECN     C1       CG331   -0.170000       12.0110           0
     11077 WT5      256      MECN     H11      HGA3     0.090000        1.0080           0
     11078 WT5      256      MECN     H12      HGA3     0.090000        1.0080           0
     11079 WT5      256      MECN     H13      HGA3     0.090000        1.0080           0
     11080 WT5      256      MECN     C2       CG1N1    0.360000       12.0110           0
     11081 WT5      256      MECN     N3       NG1T1   -0.460000       14.0070           0
     11082 WT5      259      MECN     C1       CG331   -0.170000       12.0110           0
     11083 WT5      259      MECN     H11      HGA3     0.090000        1.0080           0
     11084 WT5      259      MECN     H12      HGA3     0.090000        1.0080           0
     11085 WT5      259      MECN     H13      HGA3     0.090000        1.0080           0
     11086 WT5      259      MECN     C2       CG1N1    0.360000       12.0110           0
     11087 WT5      259      MECN     N3       NG1T1   -0.460000       14.0070           0
     11088 WT5      260      MECN     C1       CG331   -0.170000       12.0110           0
     11089 WT5      260      MECN     H11      HGA3     0.090000        1.0080           0
     11090 WT5      260      MECN     H12      HGA3     0.090000        1.0080           0
     11091 WT5      260      MECN     H13      HGA3     0.090000        1.0080           0
     11092 WT5      260      MECN     C2       CG1N1    0.360000       12.0110           0
     11093 WT5      260      MECN     N3       NG1T1   -0.460000       14.0070           0
     11094 WT5      261      MECN     C1       CG331   -0.170000       12.0110           0
     11095 WT5      261      MECN     H11      HGA3     0.090000        1.0080           0
     11096 WT5      261      MECN     H12      HGA3     0.090000        1.0080           0
     11097 WT5      261      MECN     H13      HGA3     0.090000        1.0080           0
     11098 WT5      261      MECN     C2       CG1N1    0.360000       12.0110           0
     11099 WT5      261      MECN     N3       NG1T1   -0.460000       14.0070           0
     11100 WT5      267      MECN     C1       CG331   -0.170000       12.0110           0
     11101 WT5      267      MECN     H11      HGA3     0.090000        1.0080           0
     11102 WT5      267      MECN     H12      HGA3     0.090000        1.0080           0
     11103 WT5      267      MECN     H13      HGA3     0.090000        1.0080           0
     11104 WT5      267      MECN     C2       CG1N1    0.360000       12.0110           0
     11105 WT5      267      MECN     N3       NG1T1   -0.460000       14.0070           0
     11106 WT5      268      MECN     C1       CG331   -0.170000       12.0110           0
     11107 WT5      268      MECN     H11      HGA3     0.090000        1.0080           0
     11108 WT5      268      MECN     H12      HGA3     0.090000        1.0080           0
     11109 WT5      268      MECN     H13      HGA3     0.090000        1.0080           0
     11110 WT5      268      MECN     C2       CG1N1    0.360000       12.0110           0
     11111 WT5      268      MECN     N3       NG1T1   -0.460000       14.0070           0
     11112 WT5      269      MECN     C1       CG331   -0.170000       12.0110           0
     11113 WT5      269      MECN     H11      HGA3     0.090000        1.0080           0
     11114 WT5      269      MECN     H12      HGA3     0.090000        1.0080           0
     11115 WT5      269      MECN     H13      HGA3     0.090000        1.0080           0
     11116 WT5      269      MECN     C2       CG1N1    0.360000       12.0110           0
     11117 WT5      269      MECN     N3       NG1T1   -0.460000       14.0070           0
     11118 WT5      270      MECN     C1       CG331   -0.170000       12.0110           0
     11119 WT5      270      MECN     H11      HGA3     0.090000        1.0080           0
     11120 WT5      270      MECN     H12      HGA3     0.090000        1.0080           0
     11121 WT5      270      MECN     H13      HGA3     0.090000        1.0080           0
     11122 WT5      270      MECN     C2       CG1N1    0.360000       12.0110           0
     11123 WT5      270      MECN     N3       NG1T1   -0.460000       14.0070           0
     11124 WT5      273      MECN     C1       CG331   -0.170000       12.0110           0
     11125 WT5      273      MECN     H11      HGA3     0.090000        1.0080           0
     11126 WT5      273      MECN     H12      HGA3     0.090000        1.0080           0
     11127 WT5      273      MECN     H13      HGA3     0.090000        1.0080           0
     11128 WT5      273      MECN     C2       CG1N1    0.360000       12.0110           0
     11129 WT5      273      MECN     N3       NG1T1   -0.460000       14.0070           0
     11130 WT5      277      MECN     C1       CG331   -0.170000       12.0110           0
     11131 WT5      277      MECN     H11      HGA3     0.090000        1.0080           0
     11132 WT5      277      MECN     H12      HGA3     0.090000        1.0080           0
     11133 WT5      277      MECN     H13      HGA3     0.090000        1.0080           0
     11134 WT5      277      MECN     C2       CG1N1    0.360000       12.0110           0
     11135 WT5      277      MECN     N3       NG1T1   -0.460000       14.0070           0
     11136 WT5      284      MECN     C1       CG331   -0.170000       12.0110           0
     11137 WT5      284      MECN     H11      HGA3     0.090000        1.0080           0
     11138 WT5      284      MECN     H12      HGA3     0.090000        1.0080           0
     11139 WT5      284      MECN     H13      HGA3     0.090000        1.0080           0
     11140 WT5      284      MECN     C2       CG1N1    0.360000       12.0110           0
     11141 WT5      284      MECN     N3       NG1T1   -0.460000       14.0070           0
     11142 WT5      286      MECN     C1       CG331   -0.170000       12.0110           0
     11143 WT5      286      MECN     H11      HGA3     0.090000        1.0080           0
     11144 WT5      286      MECN     H12      HGA3     0.090000        1.0080           0
     11145 WT5      286      MECN     H13      HGA3     0.090000        1.0080           0
     11146 WT5      286      MECN     C2       CG1N1    0.360000       12.0110           0
     11147 WT5      286      MECN     N3       NG1T1   -0.460000       14.0070           0
     11148 WT5      287      MECN     C1       CG331   -0.170000       12.0110           0
     11149 WT5      287      MECN     H11      HGA3     0.090000        1.0080           0
     11150 WT5      287      MECN     H12      HGA3     0.090000        1.0080           0
     11151 WT5      287      MECN     H13      HGA3     0.090000        1.0080           0
     11152 WT5      287      MECN     C2       CG1N1    0.360000       12.0110           0
     11153 WT5      287      MECN     N3       NG1T1   -0.460000       14.0070           0
     11154 WT5      289      MECN     C1       CG331   -0.170000       12.0110           0
     11155 WT5      289      MECN     H11      HGA3     0.090000        1.0080           0
     11156 WT5      289      MECN     H12      HGA3     0.090000        1.0080           0
     11157 WT5      289      MECN     H13      HGA3     0.090000        1.0080           0
     11158 WT5      289      MECN     C2       CG1N1    0.360000       12.0110           0
     11159 WT5      289      MECN     N3       NG1T1   -0.460000       14.0070           0
     11160 WT5      291      MECN     C1       CG331   -0.170000       12.0110           0
     11161 WT5      291      MECN     H11      HGA3     0.090000        1.0080           0
     11162 WT5      291      MECN     H12      HGA3     0.090000        1.0080           0
     11163 WT5      291      MECN     H13      HGA3     0.090000        1.0080           0
     11164 WT5      291      MECN     C2       CG1N1    0.360000       12.0110           0
     11165 WT5      291      MECN     N3       NG1T1   -0.460000       14.0070           0
     11166 WT5      292      MECN     C1       CG331   -0.170000       12.0110           0
     11167 WT5      292      MECN     H11      HGA3     0.090000        1.0080           0
     11168 WT5      292      MECN     H12      HGA3     0.090000        1.0080           0
     11169 WT5      292      MECN     H13      HGA3     0.090000        1.0080           0
     11170 WT5      292      MECN     C2       CG1N1    0.360000       12.0110           0
     11171 WT5      292      MECN     N3       NG1T1   -0.460000       14.0070           0
     11172 WT5      293      MECN     C1       CG331   -0.170000       12.0110           0
     11173 WT5      293      MECN     H11      HGA3     0.090000        1.0080           0
     11174 WT5      293      MECN     H12      HGA3     0.090000        1.0080           0
     11175 WT5      293      MECN     H13      HGA3     0.090000        1.0080           0
     11176 WT5      293      MECN     C2       CG1N1    0.360000       12.0110           0
     11177 WT5      293      MECN     N3       NG1T1   -0.460000       14.0070           0
     11178 WT5      298      MECN     C1       CG331   -0.170000       12.0110           0
     11179 WT5      298      MECN     H11      HGA3     0.090000        1.0080           0
     11180 WT5      298      MECN     H12      HGA3     0.090000        1.0080           0
     11181 WT5      298      MECN     H13      HGA3     0.090000        1.0080           0
     11182 WT5      298      MECN     C2       CG1N1    0.360000       12.0110           0
     11183 WT5      298      MECN     N3       NG1T1   -0.460000       14.0070           0
     11184 WT5      299      MECN     C1       CG331   -0.170000       12.0110           0
     11185 WT5      299      MECN     H11      HGA3     0.090000        1.0080           0
     11186 WT5      299      MECN     H12      HGA3     0.090000        1.0080           0
     11187 WT5      299      MECN     H13      HGA3     0.090000        1.0080           0
     11188 WT5      299      MECN     C2       CG1N1    0.360000       12.0110           0
     11189 WT5      299      MECN     N3       NG1T1   -0.460000       14.0070           0
     11190 WT5      303      MECN     C1       CG331   -0.170000       12.0110           0
     11191 WT5      303      MECN     H11      HGA3     0.090000        1.0080           0
     11192 WT5      303      MECN     H12      HGA3     0.090000        1.0080           0
     11193 WT5      303      MECN     H13      HGA3     0.090000        1.0080           0
     11194 WT5      303      MECN     C2       CG1N1    0.360000       12.0110           0
     11195 WT5      303      MECN     N3       NG1T1   -0.460000       14.0070           0
     11196 WT5      306      MECN     C1       CG331   -0.170000       12.0110           0
     11197 WT5      306      MECN     H11      HGA3     0.090000        1.0080           0
     11198 WT5      306      MECN     H12      HGA3     0.090000        1.0080           0
     11199 WT5      306      MECN     H13      HGA3     0.090000        1.0080           0
     11200 WT5      306      MECN     C2       CG1N1    0.360000       12.0110           0
     11201 WT5      306      MECN     N3       NG1T1   -0.460000       14.0070           0
     11202 WT5      310      MECN     C1       CG331   -0.170000       12.0110           0
     11203 WT5      310      MECN     H11      HGA3     0.090000        1.0080           0
     11204 WT5      310      MECN     H12      HGA3     0.090000        1.0080           0
     11205 WT5      310      MECN     H13      HGA3     0.090000        1.0080           0
     11206 WT5      310      MECN     C2       CG1N1    0.360000       12.0110           0
     11207 WT5      310      MECN     N3       NG1T1   -0.460000       14.0070           0
     11208 WT5      312      MECN     C1       CG331   -0.170000       12.0110           0
     11209 WT5      312      MECN     H11      HGA3     0.090000        1.0080           0
     11210 WT5      312      MECN     H12      HGA3     0.090000        1.0080           0
     11211 WT5      312      MECN     H13      HGA3     0.090000        1.0080           0
     11212 WT5      312      MECN     C2       CG1N1    0.360000       12.0110           0
     11213 WT5      312      MECN     N3       NG1T1   -0.460000       14.0070           0
     11214 WT5      313      MECN     C1       CG331   -0.170000       12.0110           0
     11215 WT5      313      MECN     H11      HGA3     0.090000        1.0080           0
     11216 WT5      313      MECN     H12      HGA3     0.090000        1.0080           0
     11217 WT5      313      MECN     H13      HGA3     0.090000        1.0080           0
     11218 WT5      313      MECN     C2       CG1N1    0.360000       12.0110           0
     11219 WT5      313      MECN     N3       NG1T1   -0.460000       14.0070           0
     11220 WT5      316      MECN     C1       CG331   -0.170000       12.0110           0
     11221 WT5      316      MECN     H11      HGA3     0.090000        1.0080           0
     11222 WT5      316      MECN     H12      HGA3     0.090000        1.0080           0
     11223 WT5      316      MECN     H13      HGA3     0.090000        1.0080           0
     11224 WT5      316      MECN     C2       CG1N1    0.360000       12.0110           0
     11225 WT5      316      MECN     N3       NG1T1   -0.460000       14.0070           0
     11226 WT5      320      MECN     C1       CG331   -0.170000       12.0110           0
     11227 WT5      320      MECN     H11      HGA3     0.090000        1.0080           0
     11228 WT5      320      MECN     H12      HGA3     0.090000        1.0080           0
     11229 WT5      320      MECN     H13      HGA3     0.090000        1.0080           0
     11230 WT5      320      MECN     C2       CG1N1    0.360000       12.0110           0
     11231 WT5      320      MECN     N3       NG1T1   -0.460000       14.0070           0
     11232 WT5      321      MECN     C1       CG331   -0.170000       12.0110           0
     11233 WT5      321      MECN     H11      HGA3     0.090000        1.0080           0
     11234 WT5      321      MECN     H12      HGA3     0.090000        1.0080           0
     11235 WT5      321      MECN     H13      HGA3     0.090000        1.0080           0
     11236 WT5      321      MECN     C2       CG1N1    0.360000       12.0110           0
     11237 WT5      321      MECN     N3       NG1T1   -0.460000       14.0070           0
     11238 WT5      322      MECN     C1       CG331   -0.170000       12.0110           0
     11239 WT5      322      MECN     H11      HGA3     0.090000        1.0080           0
     11240 WT5      322      MECN     H12      HGA3     0.090000        1.0080           0
     11241 WT5      322      MECN     H13      HGA3     0.090000        1.0080           0
     11242 WT5      322      MECN     C2       CG1N1    0.360000       12.0110           0
     11243 WT5      322      MECN     N3       NG1T1   -0.460000       14.0070           0
     11244 WT5      324      MECN     C1       CG331   -0.170000       12.0110           0
     11245 WT5      324      MECN     H11      HGA3     0.090000        1.0080           0
     11246 WT5      324      MECN     H12      HGA3     0.090000        1.0080           0
     11247 WT5      324      MECN     H13      HGA3     0.090000        1.0080           0
     11248 WT5      324      MECN     C2       CG1N1    0.360000       12.0110           0
     11249 WT5      324      MECN     N3       NG1T1   -0.460000       14.0070           0
     11250 WT5      329      MECN     C1       CG331   -0.170000       12.0110           0
     11251 WT5      329      MECN     H11      HGA3     0.090000        1.0080           0
     11252 WT5      329      MECN     H12      HGA3     0.090000        1.0080           0
     11253 WT5      329      MECN     H13      HGA3     0.090000        1.0080           0
     11254 WT5      329      MECN     C2       CG1N1    0.360000       12.0110           0
     11255 WT5      329      MECN     N3       NG1T1   -0.460000       14.0070           0
     11256 WT5      331      MECN     C1       CG331   -0.170000       12.0110           0
     11257 WT5      331      MECN     H11      HGA3     0.090000        1.0080           0
     11258 WT5      331      MECN     H12      HGA3     0.090000        1.0080           0
     11259 WT5      331      MECN     H13      HGA3     0.090000        1.0080           0
     11260 WT5      331      MECN     C2       CG1N1    0.360000       12.0110           0
     11261 WT5      331      MECN     N3       NG1T1   -0.460000       14.0070           0
     11262 WT5      337      MECN     C1       CG331   -0.170000       12.0110           0
     11263 WT5      337      MECN     H11      HGA3     0.090000        1.0080           0
     11264 WT5      337      MECN     H12      HGA3     0.090000        1.0080           0
     11265 WT5      337      MECN     H13      HGA3     0.090000        1.0080           0
     11266 WT5      337      MECN     C2       CG1N1    0.360000       12.0110           0
     11267 WT5      337      MECN     N3       NG1T1   -0.460000       14.0070           0
     11268 WT5      338      MECN     C1       CG331   -0.170000       12.0110           0
     11269 WT5      338      MECN     H11      HGA3     0.090000        1.0080           0
     11270 WT5      338      MECN     H12      HGA3     0.090000        1.0080           0
     11271 WT5      338      MECN     H13      HGA3     0.090000        1.0080           0
     11272 WT5      338      MECN     C2       CG1N1    0.360000       12.0110           0
     11273 WT5      338      MECN     N3       NG1T1   -0.460000       14.0070           0
     11274 WT5      342      MECN     C1       CG331   -0.170000       12.0110           0
     11275 WT5      342      MECN     H11      HGA3     0.090000        1.0080           0
     11276 WT5      342      MECN     H12      HGA3     0.090000        1.0080           0
     11277 WT5      342      MECN     H13      HGA3     0.090000        1.0080           0
     11278 WT5      342      MECN     C2       CG1N1    0.360000       12.0110           0
     11279 WT5      342      MECN     N3       NG1T1   -0.460000       14.0070           0
     11280 WT5      349      MECN     C1       CG331   -0.170000       12.0110           0
     11281 WT5      349      MECN     H11      HGA3     0.090000        1.0080           0
     11282 WT5      349      MECN     H12      HGA3     0.090000        1.0080           0
     11283 WT5      349      MECN     H13      HGA3     0.090000        1.0080           0
     11284 WT5      349      MECN     C2       CG1N1    0.360000       12.0110           0
     11285 WT5      349      MECN     N3       NG1T1   -0.460000       14.0070           0
     11286 WT5      350      MECN     C1       CG331   -0.170000       12.0110           0
     11287 WT5      350      MECN     H11      HGA3     0.090000        1.0080           0
     11288 WT5      350      MECN     H12      HGA3     0.090000        1.0080           0
     11289 WT5      350      MECN     H13      HGA3     0.090000        1.0080           0
     11290 WT5      350      MECN     C2       CG1N1    0.360000       12.0110           0
     11291 WT5      350      MECN     N3       NG1T1   -0.460000       14.0070           0
     11292 WT5      351      MECN     C1       CG331   -0.170000       12.0110           0
     11293 WT5      351      MECN     H11      HGA3     0.090000        1.0080           0
     11294 WT5      351      MECN     H12      HGA3     0.090000        1.0080           0
     11295 WT5      351      MECN     H13      HGA3     0.090000        1.0080           0
     11296 WT5      351      MECN     C2       CG1N1    0.360000       12.0110           0
     11297 WT5      351      MECN     N3       NG1T1   -0.460000       14.0070           0
     11298 WT5      352      MECN     C1       CG331   -0.170000       12.0110           0
     11299 WT5      352      MECN     H11      HGA3     0.090000        1.0080           0
     11300 WT5      352      MECN     H12      HGA3     0.090000        1.0080           0
     11301 WT5      352      MECN     H13      HGA3     0.090000        1.0080           0
     11302 WT5      352      MECN     C2       CG1N1    0.360000       12.0110           0
     11303 WT5      352      MECN     N3       NG1T1   -0.460000       14.0070           0
     11304 WT5      354      MECN     C1       CG331   -0.170000       12.0110           0
     11305 WT5      354      MECN     H11      HGA3     0.090000        1.0080           0
     11306 WT5      354      MECN     H12      HGA3     0.090000        1.0080           0
     11307 WT5      354      MECN     H13      HGA3     0.090000        1.0080           0
     11308 WT5      354      MECN     C2       CG1N1    0.360000       12.0110           0
     11309 WT5      354      MECN     N3       NG1T1   -0.460000       14.0070           0
     11310 WT5      355      MECN     C1       CG331   -0.170000       12.0110           0
     11311 WT5      355      MECN     H11      HGA3     0.090000        1.0080           0
     11312 WT5      355      MECN     H12      HGA3     0.090000        1.0080           0
     11313 WT5      355      MECN     H13      HGA3     0.090000        1.0080           0
     11314 WT5      355      MECN     C2       CG1N1    0.360000       12.0110           0
     11315 WT5      355      MECN     N3       NG1T1   -0.460000       14.0070           0
     11316 WT5      357      MECN     C1       CG331   -0.170000       12.0110           0
     11317 WT5      357      MECN     H11      HGA3     0.090000        1.0080           0
     11318 WT5      357      MECN     H12      HGA3     0.090000        1.0080           0
     11319 WT5      357      MECN     H13      HGA3     0.090000        1.0080           0
     11320 WT5      357      MECN     C2       CG1N1    0.360000       12.0110           0
     11321 WT5      357      MECN     N3       NG1T1   -0.460000       14.0070           0
     11322 WT5      358      MECN     C1       CG331   -0.170000       12.0110           0
     11323 WT5      358      MECN     H11      HGA3     0.090000        1.0080           0
     11324 WT5      358      MECN     H12      HGA3     0.090000        1.0080           0
     11325 WT5      358      MECN     H13      HGA3     0.090000        1.0080           0
     11326 WT5      358      MECN     C2       CG1N1    0.360000       12.0110           0
     11327 WT5      358      MECN     N3       NG1T1   -0.460000       14.0070           0
     11328 WT5      363      MECN     C1       CG331   -0.170000       12.0110           0
     11329 WT5      363      MECN     H11      HGA3     0.090000        1.0080           0
     11330 WT5      363      MECN     H12      HGA3     0.090000        1.0080           0
     11331 WT5      363      MECN     H13      HGA3     0.090000        1.0080           0
     11332 WT5      363      MECN     C2       CG1N1    0.360000       12.0110           0
     11333 WT5      363      MECN     N3       NG1T1   -0.460000       14.0070           0
     11334 WT5      365      MECN     C1       CG331   -0.170000       12.0110           0
     11335 WT5      365      MECN     H11      HGA3     0.090000        1.0080           0
     11336 WT5      365      MECN     H12      HGA3     0.090000        1.0080           0
     11337 WT5      365      MECN     H13      HGA3     0.090000        1.0080           0
     11338 WT5      365      MECN     C2       CG1N1    0.360000       12.0110           0
     11339 WT5      365      MECN     N3       NG1T1   -0.460000       14.0070           0
     11340 WT5      366      MECN     C1       CG331   -0.170000       12.0110           0
     11341 WT5      366      MECN     H11      HGA3     0.090000        1.0080           0
     11342 WT5      366      MECN     H12      HGA3     0.090000        1.0080           0
     11343 WT5      366      MECN     H13      HGA3     0.090000        1.0080           0
     11344 WT5      366      MECN     C2       CG1N1    0.360000       12.0110           0
     11345 WT5      366      MECN     N3       NG1T1   -0.460000       14.0070           0
     11346 WT5      368      MECN     C1       CG331   -0.170000       12.0110           0
     11347 WT5      368      MECN     H11      HGA3     0.090000        1.0080           0
     11348 WT5      368      MECN     H12      HGA3     0.090000        1.0080           0
     11349 WT5      368      MECN     H13      HGA3     0.090000        1.0080           0
     11350 WT5      368      MECN     C2       CG1N1    0.360000       12.0110           0
     11351 WT5      368      MECN     N3       NG1T1   -0.460000       14.0070           0
     11352 WT5      370      MECN     C1       CG331   -0.170000       12.0110           0
     11353 WT5      370      MECN     H11      HGA3     0.090000        1.0080           0
     11354 WT5      370      MECN     H12      HGA3     0.090000        1.0080           0
     11355 WT5      370      MECN     H13      HGA3     0.090000        1.0080           0
     11356 WT5      370      MECN     C2       CG1N1    0.360000       12.0110           0
     11357 WT5      370      MECN     N3       NG1T1   -0.460000       14.0070           0
     11358 WT5      372      MECN     C1       CG331   -0.170000       12.0110           0
     11359 WT5      372      MECN     H11      HGA3     0.090000        1.0080           0
     11360 WT5      372      MECN     H12      HGA3     0.090000        1.0080           0
     11361 WT5      372      MECN     H13      HGA3     0.090000        1.0080           0
     11362 WT5      372      MECN     C2       CG1N1    0.360000       12.0110           0
     11363 WT5      372      MECN     N3       NG1T1   -0.460000       14.0070           0
     11364 WT5      379      MECN     C1       CG331   -0.170000       12.0110           0
     11365 WT5      379      MECN     H11      HGA3     0.090000        1.0080           0
     11366 WT5      379      MECN     H12      HGA3     0.090000        1.0080           0
     11367 WT5      379      MECN     H13      HGA3     0.090000        1.0080           0
     11368 WT5      379      MECN     C2       CG1N1    0.360000       12.0110           0
     11369 WT5      379      MECN     N3       NG1T1   -0.460000       14.0070           0
     11370 WT5      381      MECN     C1       CG331   -0.170000       12.0110           0
     11371 WT5      381      MECN     H11      HGA3     0.090000        1.0080           0
     11372 WT5      381      MECN     H12      HGA3     0.090000        1.0080           0
     11373 WT5      381      MECN     H13      HGA3     0.090000        1.0080           0
     11374 WT5      381      MECN     C2       CG1N1    0.360000       12.0110           0
     11375 WT5      381      MECN     N3       NG1T1   -0.460000       14.0070           0
     11376 WT5      387      MECN     C1       CG331   -0.170000       12.0110           0
     11377 WT5      387      MECN     H11      HGA3     0.090000        1.0080           0
     11378 WT5      387      MECN     H12      HGA3     0.090000        1.0080           0
     11379 WT5      387      MECN     H13      HGA3     0.090000        1.0080           0
     11380 WT5      387      MECN     C2       CG1N1    0.360000       12.0110           0
     11381 WT5      387      MECN     N3       NG1T1   -0.460000       14.0070           0
     11382 WT5      390      MECN     C1       CG331   -0.170000       12.0110           0
     11383 WT5      390      MECN     H11      HGA3     0.090000        1.0080           0
     11384 WT5      390      MECN     H12      HGA3     0.090000        1.0080           0
     11385 WT5      390      MECN     H13      HGA3     0.090000        1.0080           0
     11386 WT5      390      MECN     C2       CG1N1    0.360000       12.0110           0
     11387 WT5      390      MECN     N3       NG1T1   -0.460000       14.0070           0
     11388 WT5      392      MECN     C1       CG331   -0.170000       12.0110           0
     11389 WT5      392      MECN     H11      HGA3     0.090000        1.0080           0
     11390 WT5      392      MECN     H12      HGA3     0.090000        1.0080           0
     11391 WT5      392      MECN     H13      HGA3     0.090000        1.0080           0
     11392 WT5      392      MECN     C2       CG1N1    0.360000       12.0110           0
     11393 WT5      392      MECN     N3       NG1T1   -0.460000       14.0070           0
     11394 WT5      396      MECN     C1       CG331   -0.170000       12.0110           0
     11395 WT5      396      MECN     H11      HGA3     0.090000        1.0080           0
     11396 WT5      396      MECN     H12      HGA3     0.090000        1.0080           0
     11397 WT5      396      MECN     H13      HGA3     0.090000        1.0080           0
     11398 WT5      396      MECN     C2       CG1N1    0.360000       12.0110           0
     11399 WT5      396      MECN     N3       NG1T1   -0.460000       14.0070           0
     11400 WT5      397      MECN     C1       CG331   -0.170000       12.0110           0
     11401 WT5      397      MECN     H11      HGA3     0.090000        1.0080           0
     11402 WT5      397      MECN     H12      HGA3     0.090000        1.0080           0
     11403 WT5      397      MECN     H13      HGA3     0.090000        1.0080           0
     11404 WT5      397      MECN     C2       CG1N1    0.360000       12.0110           0
     11405 WT5      397      MECN     N3       NG1T1   -0.460000       14.0070           0
     11406 WT5      398      MECN     C1       CG331   -0.170000       12.0110           0
     11407 WT5      398      MECN     H11      HGA3     0.090000        1.0080           0
     11408 WT5      398      MECN     H12      HGA3     0.090000        1.0080           0
     11409 WT5      398      MECN     H13      HGA3     0.090000        1.0080           0
     11410 WT5      398      MECN     C2       CG1N1    0.360000       12.0110           0
     11411 WT5      398      MECN     N3       NG1T1   -0.460000       14.0070           0
     11412 WT5      399      MECN     C1       CG331   -0.170000       12.0110           0
     11413 WT5      399      MECN     H11      HGA3     0.090000        1.0080           0
     11414 WT5      399      MECN     H12      HGA3     0.090000        1.0080           0
     11415 WT5      399      MECN     H13      HGA3     0.090000        1.0080           0
     11416 WT5      399      MECN     C2       CG1N1    0.360000       12.0110           0
     11417 WT5      399      MECN     N3       NG1T1   -0.460000       14.0070           0
     11418 WT5      402      MECN     C1       CG331   -0.170000       12.0110           0
     11419 WT5      402      MECN     H11      HGA3     0.090000        1.0080           0
     11420 WT5      402      MECN     H12      HGA3     0.090000        1.0080           0
     11421 WT5      402      MECN     H13      HGA3     0.090000        1.0080           0
     11422 WT5      402      MECN     C2       CG1N1    0.360000       12.0110           0
     11423 WT5      402      MECN     N3       NG1T1   -0.460000       14.0070           0
     11424 WT5      404      MECN     C1       CG331   -0.170000       12.0110           0
     11425 WT5      404      MECN     H11      HGA3     0.090000        1.0080           0
     11426 WT5      404      MECN     H12      HGA3     0.090000        1.0080           0
     11427 WT5      404      MECN     H13      HGA3     0.090000        1.0080           0
     11428 WT5      404      MECN     C2       CG1N1    0.360000       12.0110           0
     11429 WT5      404      MECN     N3       NG1T1   -0.460000       14.0070           0
     11430 WT5      407      MECN     C1       CG331   -0.170000       12.0110           0
     11431 WT5      407      MECN     H11      HGA3     0.090000        1.0080           0
     11432 WT5      407      MECN     H12      HGA3     0.090000        1.0080           0
     11433 WT5      407      MECN     H13      HGA3     0.090000        1.0080           0
     11434 WT5      407      MECN     C2       CG1N1    0.360000       12.0110           0
     11435 WT5      407      MECN     N3       NG1T1   -0.460000       14.0070           0
     11436 WT5      408      MECN     C1       CG331   -0.170000       12.0110           0
     11437 WT5      408      MECN     H11      HGA3     0.090000        1.0080           0
     11438 WT5      408      MECN     H12      HGA3     0.090000        1.0080           0
     11439 WT5      408      MECN     H13      HGA3     0.090000        1.0080           0
     11440 WT5      408      MECN     C2       CG1N1    0.360000       12.0110           0
     11441 WT5      408      MECN     N3       NG1T1   -0.460000       14.0070           0
     11442 WT5      411      MECN     C1       CG331   -0.170000       12.0110           0
     11443 WT5      411      MECN     H11      HGA3     0.090000        1.0080           0
     11444 WT5      411      MECN     H12      HGA3     0.090000        1.0080           0
     11445 WT5      411      MECN     H13      HGA3     0.090000        1.0080           0
     11446 WT5      411      MECN     C2       CG1N1    0.360000       12.0110           0
     11447 WT5      411      MECN     N3       NG1T1   -0.460000       14.0070           0
     11448 WT5      412      MECN     C1       CG331   -0.170000       12.0110           0
     11449 WT5      412      MECN     H11      HGA3     0.090000        1.0080           0
     11450 WT5      412      MECN     H12      HGA3     0.090000        1.0080           0
     11451 WT5      412      MECN     H13      HGA3     0.090000        1.0080           0
     11452 WT5      412      MECN     C2       CG1N1    0.360000       12.0110           0
     11453 WT5      412      MECN     N3       NG1T1   -0.460000       14.0070           0
     11454 WT5      419      MECN     C1       CG331   -0.170000       12.0110           0
     11455 WT5      419      MECN     H11      HGA3     0.090000        1.0080           0
     11456 WT5      419      MECN     H12      HGA3     0.090000        1.0080           0
     11457 WT5      419      MECN     H13      HGA3     0.090000        1.0080           0
     11458 WT5      419      MECN     C2       CG1N1    0.360000       12.0110           0
     11459 WT5      419      MECN     N3       NG1T1   -0.460000       14.0070           0
     11460 WT5      424      MECN     C1       CG331   -0.170000       12.0110           0
     11461 WT5      424      MECN     H11      HGA3     0.090000        1.0080           0
     11462 WT5      424      MECN     H12      HGA3     0.090000        1.0080           0
     11463 WT5      424      MECN     H13      HGA3     0.090000        1.0080           0
     11464 WT5      424      MECN     C2       CG1N1    0.360000       12.0110           0
     11465 WT5      424      MECN     N3       NG1T1   -0.460000       14.0070           0
     11466 WT5      425      MECN     C1       CG331   -0.170000       12.0110           0
     11467 WT5      425      MECN     H11      HGA3     0.090000        1.0080           0
     11468 WT5      425      MECN     H12      HGA3     0.090000        1.0080           0
     11469 WT5      425      MECN     H13      HGA3     0.090000        1.0080           0
     11470 WT5      425      MECN     C2       CG1N1    0.360000       12.0110           0
     11471 WT5      425      MECN     N3       NG1T1   -0.460000       14.0070           0
     11472 WT5      426      MECN     C1       CG331   -0.170000       12.0110           0
     11473 WT5      426      MECN     H11      HGA3     0.090000        1.0080           0
     11474 WT5      426      MECN     H12      HGA3     0.090000        1.0080           0
     11475 WT5      426      MECN     H13      HGA3     0.090000        1.0080           0
     11476 WT5      426      MECN     C2       CG1N1    0.360000       12.0110           0
     11477 WT5      426      MECN     N3       NG1T1   -0.460000       14.0070           0
     11478 WT5      428      MECN     C1       CG331   -0.170000       12.0110           0
     11479 WT5      428      MECN     H11      HGA3     0.090000        1.0080           0
     11480 WT5      428      MECN     H12      HGA3     0.090000        1.0080           0
     11481 WT5      428      MECN     H13      HGA3     0.090000        1.0080           0
     11482 WT5      428      MECN     C2       CG1N1    0.360000       12.0110           0
     11483 WT5      428      MECN     N3       NG1T1   -0.460000       14.0070           0
     11484 WT5      444      MECN     C1       CG331   -0.170000       12.0110           0
     11485 WT5      444      MECN     H11      HGA3     0.090000        1.0080           0
     11486 WT5      444      MECN     H12      HGA3     0.090000        1.0080           0
     11487 WT5      444      MECN     H13      HGA3     0.090000        1.0080           0
     11488 WT5      444      MECN     C2       CG1N1    0.360000       12.0110           0
     11489 WT5      444      MECN     N3       NG1T1   -0.460000       14.0070           0
     11490 WT5      447      MECN     C1       CG331   -0.170000       12.0110           0
     11491 WT5      447      MECN     H11      HGA3     0.090000        1.0080           0
     11492 WT5      447      MECN     H12      HGA3     0.090000        1.0080           0
     11493 WT5      447      MECN     H13      HGA3     0.090000        1.0080           0
     11494 WT5      447      MECN     C2       CG1N1    0.360000       12.0110           0
     11495 WT5      447      MECN     N3       NG1T1   -0.460000       14.0070           0
     11496 WT5      450      MECN     C1       CG331   -0.170000       12.0110           0
     11497 WT5      450      MECN     H11      HGA3     0.090000        1.0080           0
     11498 WT5      450      MECN     H12      HGA3     0.090000        1.0080           0
     11499 WT5      450      MECN     H13      HGA3     0.090000        1.0080           0
     11500 WT5      450      MECN     C2       CG1N1    0.360000       12.0110           0
     11501 WT5      450      MECN     N3       NG1T1   -0.460000       14.0070           0
     11502 WT5      457      MECN     C1       CG331   -0.170000       12.0110           0
     11503 WT5      457      MECN     H11      HGA3     0.090000        1.0080           0
     11504 WT5      457      MECN     H12      HGA3     0.090000        1.0080           0
     11505 WT5      457      MECN     H13      HGA3     0.090000        1.0080           0
     11506 WT5      457      MECN     C2       CG1N1    0.360000       12.0110           0
     11507 WT5      457      MECN     N3       NG1T1   -0.460000       14.0070           0
     11508 WT5      459      MECN     C1       CG331   -0.170000       12.0110           0
     11509 WT5      459      MECN     H11      HGA3     0.090000        1.0080           0
     11510 WT5      459      MECN     H12      HGA3     0.090000        1.0080           0
     11511 WT5      459      MECN     H13      HGA3     0.090000        1.0080           0
     11512 WT5      459      MECN     C2       CG1N1    0.360000       12.0110           0
     11513 WT5      459      MECN     N3       NG1T1   -0.460000       14.0070           0
     11514 WT5      460      MECN     C1       CG331   -0.170000       12.0110           0
     11515 WT5      460      MECN     H11      HGA3     0.090000        1.0080           0
     11516 WT5      460      MECN     H12      HGA3     0.090000        1.0080           0
     11517 WT5      460      MECN     H13      HGA3     0.090000        1.0080           0
     11518 WT5      460      MECN     C2       CG1N1    0.360000       12.0110           0
     11519 WT5      460      MECN     N3       NG1T1   -0.460000       14.0070           0
     11520 WT5      463      MECN     C1       CG331   -0.170000       12.0110           0
     11521 WT5      463      MECN     H11      HGA3     0.090000        1.0080           0
     11522 WT5      463      MECN     H12      HGA3     0.090000        1.0080           0
     11523 WT5      463      MECN     H13      HGA3     0.090000        1.0080           0
     11524 WT5      463      MECN     C2       CG1N1    0.360000       12.0110           0
     11525 WT5      463      MECN     N3       NG1T1   -0.460000       14.0070           0
     11526 WT5      465      MECN     C1       CG331   -0.170000       12.0110           0
     11527 WT5      465      MECN     H11      HGA3     0.090000        1.0080           0
     11528 WT5      465      MECN     H12      HGA3     0.090000        1.0080           0
     11529 WT5      465      MECN     H13      HGA3     0.090000        1.0080           0
     11530 WT5      465      MECN     C2       CG1N1    0.360000       12.0110           0
     11531 WT5      465      MECN     N3       NG1T1   -0.460000       14.0070           0
     11532 WT5      467      MECN     C1       CG331   -0.170000       12.0110           0
     11533 WT5      467      MECN     H11      HGA3     0.090000        1.0080           0
     11534 WT5      467      MECN     H12      HGA3     0.090000        1.0080           0
     11535 WT5      467      MECN     H13      HGA3     0.090000        1.0080           0
     11536 WT5      467      MECN     C2       CG1N1    0.360000       12.0110           0
     11537 WT5      467      MECN     N3       NG1T1   -0.460000       14.0070           0
     11538 WT5      469      MECN     C1       CG331   -0.170000       12.0110           0
     11539 WT5      469      MECN     H11      HGA3     0.090000        1.0080           0
     11540 WT5      469      MECN     H12      HGA3     0.090000        1.0080           0
     11541 WT5      469      MECN     H13      HGA3     0.090000        1.0080           0
     11542 WT5      469      MECN     C2       CG1N1    0.360000       12.0110           0
     11543 WT5      469      MECN     N3       NG1T1   -0.460000       14.0070           0
     11544 WT5      473      MECN     C1       CG331   -0.170000       12.0110           0
     11545 WT5      473      MECN     H11      HGA3     0.090000        1.0080           0
     11546 WT5      473      MECN     H12      HGA3     0.090000        1.0080           0
     11547 WT5      473      MECN     H13      HGA3     0.090000        1.0080           0
     11548 WT5      473      MECN     C2       CG1N1    0.360000       12.0110           0
     11549 WT5      473      MECN     N3       NG1T1   -0.460000       14.0070           0
     11550 WT5      475      MECN     C1       CG331   -0.170000       12.0110           0
     11551 WT5      475      MECN     H11      HGA3     0.090000        1.0080           0
     11552 WT5      475      MECN     H12      HGA3     0.090000        1.0080           0
     11553 WT5      475      MECN     H13      HGA3     0.090000        1.0080           0
     11554 WT5      475      MECN     C2       CG1N1    0.360000       12.0110           0
     11555 WT5      475      MECN     N3       NG1T1   -0.460000       14.0070           0
     11556 WT5      485      MECN     C1       CG331   -0.170000       12.0110           0
     11557 WT5      485      MECN     H11      HGA3     0.090000        1.0080           0
     11558 WT5      485      MECN     H12      HGA3     0.090000        1.0080           0
     11559 WT5      485      MECN     H13      HGA3     0.090000        1.0080           0
     11560 WT5      485      MECN     C2       CG1N1    0.360000       12.0110           0
     11561 WT5      485      MECN     N3       NG1T1   -0.460000       14.0070           0
     11562 WT5      486      MECN     C1       CG331   -0.170000       12.0110           0
     11563 WT5      486      MECN     H11      HGA3     0.090000        1.0080           0
     11564 WT5      486      MECN     H12      HGA3     0.090000        1.0080           0
     11565 WT5      486      MECN     H13      HGA3     0.090000        1.0080           0
     11566 WT5      486      MECN     C2       CG1N1    0.360000       12.0110           0
     11567 WT5      486      MECN     N3       NG1T1   -0.460000       14.0070           0
     11568 WT5      487      MECN     C1       CG331   -0.170000       12.0110           0
     11569 WT5      487      MECN     H11      HGA3     0.090000        1.0080           0
     11570 WT5      487      MECN     H12      HGA3     0.090000        1.0080           0
     11571 WT5      487      MECN     H13      HGA3     0.090000        1.0080           0
     11572 WT5      487      MECN     C2       CG1N1    0.360000       12.0110           0
     11573 WT5      487      MECN     N3       NG1T1   -0.460000       14.0070           0
     11574 WT5      492      MECN     C1       CG331   -0.170000       12.0110           0
     11575 WT5      492      MECN     H11      HGA3     0.090000        1.0080           0
     11576 WT5      492      MECN     H12      HGA3     0.090000        1.0080           0
     11577 WT5      492      MECN     H13      HGA3     0.090000        1.0080           0
     11578 WT5      492      MECN     C2       CG1N1    0.360000       12.0110           0
     11579 WT5      492      MECN     N3       NG1T1   -0.460000       14.0070           0
     11580 WT5      500      MECN     C1       CG331   -0.170000       12.0110           0
     11581 WT5      500      MECN     H11      HGA3     0.090000        1.0080           0
     11582 WT5      500      MECN     H12      HGA3     0.090000        1.0080           0
     11583 WT5      500      MECN     H13      HGA3     0.090000        1.0080           0
     11584 WT5      500      MECN     C2       CG1N1    0.360000       12.0110           0
     11585 WT5      500      MECN     N3       NG1T1   -0.460000       14.0070           0
     11586 WT5      512      MECN     C1       CG331   -0.170000       12.0110           0
     11587 WT5      512      MECN     H11      HGA3     0.090000        1.0080           0
     11588 WT5      512      MECN     H12      HGA3     0.090000        1.0080           0
     11589 WT5      512      MECN     H13      HGA3     0.090000        1.0080           0
     11590 WT5      512      MECN     C2       CG1N1    0.360000       12.0110           0
     11591 WT5      512      MECN     N3       NG1T1   -0.460000       14.0070           0
     11592 WT5      513      MECN     C1       CG331   -0.170000       12.0110           0
     11593 WT5      513      MECN     H11      HGA3     0.090000        1.0080           0
     11594 WT5      513      MECN     H12      HGA3     0.090000        1.0080           0
     11595 WT5      513      MECN     H13      HGA3     0.090000        1.0080           0
     11596 WT5      513      MECN     C2       CG1N1    0.360000       12.0110           0
     11597 WT5      513      MECN     N3       NG1T1   -0.460000       14.0070           0
     11598 WT5      517      MECN     C1       CG331   -0.170000       12.0110           0
     11599 WT5      517      MECN     H11      HGA3     0.090000        1.0080           0
     11600 WT5      517      MECN     H12      HGA3     0.090000        1.0080           0
     11601 WT5      517      MECN     H13      HGA3     0.090000        1.0080           0
     11602 WT5      517      MECN     C2       CG1N1    0.360000       12.0110           0
     11603 WT5      517      MECN     N3       NG1T1   -0.460000       14.0070           0
     11604 WT5      521      MECN     C1       CG331   -0.170000       12.0110           0
     11605 WT5      521      MECN     H11      HGA3     0.090000        1.0080           0
     11606 WT5      521      MECN     H12      HGA3     0.090000        1.0080           0
     11607 WT5      521      MECN     H13      HGA3     0.090000        1.0080           0
     11608 WT5      521      MECN     C2       CG1N1    0.360000       12.0110           0
     11609 WT5      521      MECN     N3       NG1T1   -0.460000       14.0070           0
     11610 WT5      523      MECN     C1       CG331   -0.170000       12.0110           0
     11611 WT5      523      MECN     H11      HGA3     0.090000        1.0080           0
     11612 WT5      523      MECN     H12      HGA3     0.090000        1.0080           0
     11613 WT5      523      MECN     H13      HGA3     0.090000        1.0080           0
     11614 WT5      523      MECN     C2       CG1N1    0.360000       12.0110           0
     11615 WT5      523      MECN     N3       NG1T1   -0.460000       14.0070           0
     11616 WT5      524      MECN     C1       CG331   -0.170000       12.0110           0
     11617 WT5      524      MECN     H11      HGA3     0.090000        1.0080           0
     11618 WT5      524      MECN     H12      HGA3     0.090000        1.0080           0
     11619 WT5      524      MECN     H13      HGA3     0.090000        1.0080           0
     11620 WT5      524      MECN     C2       CG1N1    0.360000       12.0110           0
     11621 WT5      524      MECN     N3       NG1T1   -0.460000       14.0070           0
     11622 WT5      527      MECN     C1       CG331   -0.170000       12.0110           0
     11623 WT5      527      MECN     H11      HGA3     0.090000        1.0080           0
     11624 WT5      527      MECN     H12      HGA3     0.090000        1.0080           0
     11625 WT5      527      MECN     H13      HGA3     0.090000        1.0080           0
     11626 WT5      527      MECN     C2       CG1N1    0.360000       12.0110           0
     11627 WT5      527      MECN     N3       NG1T1   -0.460000       14.0070           0
     11628 WT5      530      MECN     C1       CG331   -0.170000       12.0110           0
     11629 WT5      530      MECN     H11      HGA3     0.090000        1.0080           0
     11630 WT5      530      MECN     H12      HGA3     0.090000        1.0080           0
     11631 WT5      530      MECN     H13      HGA3     0.090000        1.0080           0
     11632 WT5      530      MECN     C2       CG1N1    0.360000       12.0110           0
     11633 WT5      530      MECN     N3       NG1T1   -0.460000       14.0070           0
     11634 WT5      531      MECN     C1       CG331   -0.170000       12.0110           0
     11635 WT5      531      MECN     H11      HGA3     0.090000        1.0080           0
     11636 WT5      531      MECN     H12      HGA3     0.090000        1.0080           0
     11637 WT5      531      MECN     H13      HGA3     0.090000        1.0080           0
     11638 WT5      531      MECN     C2       CG1N1    0.360000       12.0110           0
     11639 WT5      531      MECN     N3       NG1T1   -0.460000       14.0070           0
     11640 WT5      532      MECN     C1       CG331   -0.170000       12.0110           0
     11641 WT5      532      MECN     H11      HGA3     0.090000        1.0080           0
     11642 WT5      532      MECN     H12      HGA3     0.090000        1.0080           0
     11643 WT5      532      MECN     H13      HGA3     0.090000        1.0080           0
     11644 WT5      532      MECN     C2       CG1N1    0.360000       12.0110           0
     11645 WT5      532      MECN     N3       NG1T1   -0.460000       14.0070           0
     11646 WT5      537      MECN     C1       CG331   -0.170000       12.0110           0
     11647 WT5      537      MECN     H11      HGA3     0.090000        1.0080           0
     11648 WT5      537      MECN     H12      HGA3     0.090000        1.0080           0
     11649 WT5      537      MECN     H13      HGA3     0.090000        1.0080           0
     11650 WT5      537      MECN     C2       CG1N1    0.360000       12.0110           0
     11651 WT5      537      MECN     N3       NG1T1   -0.460000       14.0070           0
     11652 WT5      543      MECN     C1       CG331   -0.170000       12.0110           0
     11653 WT5      543      MECN     H11      HGA3     0.090000        1.0080           0
     11654 WT5      543      MECN     H12      HGA3     0.090000        1.0080           0
     11655 WT5      543      MECN     H13      HGA3     0.090000        1.0080           0
     11656 WT5      543      MECN     C2       CG1N1    0.360000       12.0110           0
     11657 WT5      543      MECN     N3       NG1T1   -0.460000       14.0070           0
     11658 WT5      544      MECN     C1       CG331   -0.170000       12.0110           0
     11659 WT5      544      MECN     H11      HGA3     0.090000        1.0080           0
     11660 WT5      544      MECN     H12      HGA3     0.090000        1.0080           0
     11661 WT5      544      MECN     H13      HGA3     0.090000        1.0080           0
     11662 WT5      544      MECN     C2       CG1N1    0.360000       12.0110           0
     11663 WT5      544      MECN     N3       NG1T1   -0.460000       14.0070           0
     11664 WT5      549      MECN     C1       CG331   -0.170000       12.0110           0
     11665 WT5      549      MECN     H11      HGA3     0.090000        1.0080           0
     11666 WT5      549      MECN     H12      HGA3     0.090000        1.0080           0
     11667 WT5      549      MECN     H13      HGA3     0.090000        1.0080           0
     11668 WT5      549      MECN     C2       CG1N1    0.360000       12.0110           0
     11669 WT5      549      MECN     N3       NG1T1   -0.460000       14.0070           0
     11670 WT5      556      MECN     C1       CG331   -0.170000       12.0110           0
     11671 WT5      556      MECN     H11      HGA3     0.090000        1.0080           0
     11672 WT5      556      MECN     H12      HGA3     0.090000        1.0080           0
     11673 WT5      556      MECN     H13      HGA3     0.090000        1.0080           0
     11674 WT5      556      MECN     C2       CG1N1    0.360000       12.0110           0
     11675 WT5      556      MECN     N3       NG1T1   -0.460000       14.0070           0
     11676 WT5      557      MECN     C1       CG331   -0.170000       12.0110           0
     11677 WT5      557      MECN     H11      HGA3     0.090000        1.0080           0
     11678 WT5      557      MECN     H12      HGA3     0.090000        1.0080           0
     11679 WT5      557      MECN     H13      HGA3     0.090000        1.0080           0
     11680 WT5      557      MECN     C2       CG1N1    0.360000       12.0110           0
     11681 WT5      557      MECN     N3       NG1T1   -0.460000       14.0070           0
     11682 WT5      558      MECN     C1       CG331   -0.170000       12.0110           0
     11683 WT5      558      MECN     H11      HGA3     0.090000        1.0080           0
     11684 WT5      558      MECN     H12      HGA3     0.090000        1.0080           0
     11685 WT5      558      MECN     H13      HGA3     0.090000        1.0080           0
     11686 WT5      558      MECN     C2       CG1N1    0.360000       12.0110           0
     11687 WT5      558      MECN     N3       NG1T1   -0.460000       14.0070           0
     11688 WT5      560      MECN     C1       CG331   -0.170000       12.0110           0
     11689 WT5      560      MECN     H11      HGA3     0.090000        1.0080           0
     11690 WT5      560      MECN     H12      HGA3     0.090000        1.0080           0
     11691 WT5      560      MECN     H13      HGA3     0.090000        1.0080           0
     11692 WT5      560      MECN     C2       CG1N1    0.360000       12.0110           0
     11693 WT5      560      MECN     N3       NG1T1   -0.460000       14.0070           0
     11694 WT5      563      MECN     C1       CG331   -0.170000       12.0110           0
     11695 WT5      563      MECN     H11      HGA3     0.090000        1.0080           0
     11696 WT5      563      MECN     H12      HGA3     0.090000        1.0080           0
     11697 WT5      563      MECN     H13      HGA3     0.090000        1.0080           0
     11698 WT5      563      MECN     C2       CG1N1    0.360000       12.0110           0
     11699 WT5      563      MECN     N3       NG1T1   -0.460000       14.0070           0
     11700 WT5      564      MECN     C1       CG331   -0.170000       12.0110           0
     11701 WT5      564      MECN     H11      HGA3     0.090000        1.0080           0
     11702 WT5      564      MECN     H12      HGA3     0.090000        1.0080           0
     11703 WT5      564      MECN     H13      HGA3     0.090000        1.0080           0
     11704 WT5      564      MECN     C2       CG1N1    0.360000       12.0110           0
     11705 WT5      564      MECN     N3       NG1T1   -0.460000       14.0070           0
     11706 WT5      565      MECN     C1       CG331   -0.170000       12.0110           0
     11707 WT5      565      MECN     H11      HGA3     0.090000        1.0080           0
     11708 WT5      565      MECN     H12      HGA3     0.090000        1.0080           0
     11709 WT5      565      MECN     H13      HGA3     0.090000        1.0080           0
     11710 WT5      565      MECN     C2       CG1N1    0.360000       12.0110           0
     11711 WT5      565      MECN     N3       NG1T1   -0.460000       14.0070           0
     11712 WT5      566      MECN     C1       CG331   -0.170000       12.0110           0
     11713 WT5      566      MECN     H11      HGA3     0.090000        1.0080           0
     11714 WT5      566      MECN     H12      HGA3     0.090000        1.0080           0
     11715 WT5      566      MECN     H13      HGA3     0.090000        1.0080           0
     11716 WT5      566      MECN     C2       CG1N1    0.360000       12.0110           0
     11717 WT5      566      MECN     N3       NG1T1   -0.460000       14.0070           0
     11718 WT5      567      MECN     C1       CG331   -0.170000       12.0110           0
     11719 WT5      567      MECN     H11      HGA3     0.090000        1.0080           0
     11720 WT5      567      MECN     H12      HGA3     0.090000        1.0080           0
     11721 WT5      567      MECN     H13      HGA3     0.090000        1.0080           0
     11722 WT5      567      MECN     C2       CG1N1    0.360000       12.0110           0
     11723 WT5      567      MECN     N3       NG1T1   -0.460000       14.0070           0
     11724 WT5      568      MECN     C1       CG331   -0.170000       12.0110           0
     11725 WT5      568      MECN     H11      HGA3     0.090000        1.0080           0
     11726 WT5      568      MECN     H12      HGA3     0.090000        1.0080           0
     11727 WT5      568      MECN     H13      HGA3     0.090000        1.0080           0
     11728 WT5      568      MECN     C2       CG1N1    0.360000       12.0110           0
     11729 WT5      568      MECN     N3       NG1T1   -0.460000       14.0070           0
     11730 WT5      570      MECN     C1       CG331   -0.170000       12.0110           0
     11731 WT5      570      MECN     H11      HGA3     0.090000        1.0080           0
     11732 WT5      570      MECN     H12      HGA3     0.090000        1.0080           0
     11733 WT5      570      MECN     H13      HGA3     0.090000        1.0080           0
     11734 WT5      570      MECN     C2       CG1N1    0.360000       12.0110           0
     11735 WT5      570      MECN     N3       NG1T1   -0.460000       14.0070           0
     11736 WT5      572      MECN     C1       CG331   -0.170000       12.0110           0
     11737 WT5      572      MECN     H11      HGA3     0.090000        1.0080           0
     11738 WT5      572      MECN     H12      HGA3     0.090000        1.0080           0
     11739 WT5      572      MECN     H13      HGA3     0.090000        1.0080           0
     11740 WT5      572      MECN     C2       CG1N1    0.360000       12.0110           0
     11741 WT5      572      MECN     N3       NG1T1   -0.460000       14.0070           0
     11742 WT5      574      MECN     C1       CG331   -0.170000       12.0110           0
     11743 WT5      574      MECN     H11      HGA3     0.090000        1.0080           0
     11744 WT5      574      MECN     H12      HGA3     0.090000        1.0080           0
     11745 WT5      574      MECN     H13      HGA3     0.090000        1.0080           0
     11746 WT5      574      MECN     C2       CG1N1    0.360000       12.0110           0
     11747 WT5      574      MECN     N3       NG1T1   -0.460000       14.0070           0
     11748 WT5      576      MECN     C1       CG331   -0.170000       12.0110           0
     11749 WT5      576      MECN     H11      HGA3     0.090000        1.0080           0
     11750 WT5      576      MECN     H12      HGA3     0.090000        1.0080           0
     11751 WT5      576      MECN     H13      HGA3     0.090000        1.0080           0
     11752 WT5      576      MECN     C2       CG1N1    0.360000       12.0110           0
     11753 WT5      576      MECN     N3       NG1T1   -0.460000       14.0070           0
     11754 WT5      581      MECN     C1       CG331   -0.170000       12.0110           0
     11755 WT5      581      MECN     H11      HGA3     0.090000        1.0080           0
     11756 WT5      581      MECN     H12      HGA3     0.090000        1.0080           0
     11757 WT5      581      MECN     H13      HGA3     0.090000        1.0080           0
     11758 WT5      581      MECN     C2       CG1N1    0.360000       12.0110           0
     11759 WT5      581      MECN     N3       NG1T1   -0.460000       14.0070           0
     11760 WT5      584      MECN     C1       CG331   -0.170000       12.0110           0
     11761 WT5      584      MECN     H11      HGA3     0.090000        1.0080           0
     11762 WT5      584      MECN     H12      HGA3     0.090000        1.0080           0
     11763 WT5      584      MECN     H13      HGA3     0.090000        1.0080           0
     11764 WT5      584      MECN     C2       CG1N1    0.360000       12.0110           0
     11765 WT5      584      MECN     N3       NG1T1   -0.460000       14.0070           0
     11766 WT5      586      MECN     C1       CG331   -0.170000       12.0110           0
     11767 WT5      586      MECN     H11      HGA3     0.090000        1.0080           0
     11768 WT5      586      MECN     H12      HGA3     0.090000        1.0080           0
     11769 WT5      586      MECN     H13      HGA3     0.090000        1.0080           0
     11770 WT5      586      MECN     C2       CG1N1    0.360000       12.0110           0
     11771 WT5      586      MECN     N3       NG1T1   -0.460000       14.0070           0
     11772 WT5      591      MECN     C1       CG331   -0.170000       12.0110           0
     11773 WT5      591      MECN     H11      HGA3     0.090000        1.0080           0
     11774 WT5      591      MECN     H12      HGA3     0.090000        1.0080           0
     11775 WT5      591      MECN     H13      HGA3     0.090000        1.0080           0
     11776 WT5      591      MECN     C2       CG1N1    0.360000       12.0110           0
     11777 WT5      591      MECN     N3       NG1T1   -0.460000       14.0070           0
     11778 WT5      594      MECN     C1       CG331   -0.170000       12.0110           0
     11779 WT5      594      MECN     H11      HGA3     0.090000        1.0080           0
     11780 WT5      594      MECN     H12      HGA3     0.090000        1.0080           0
     11781 WT5      594      MECN     H13      HGA3     0.090000        1.0080           0
     11782 WT5      594      MECN     C2       CG1N1    0.360000       12.0110           0
     11783 WT5      594      MECN     N3       NG1T1   -0.460000       14.0070           0
     11784 WT5      596      MECN     C1       CG331   -0.170000       12.0110           0
     11785 WT5      596      MECN     H11      HGA3     0.090000        1.0080           0
     11786 WT5      596      MECN     H12      HGA3     0.090000        1.0080           0
     11787 WT5      596      MECN     H13      HGA3     0.090000        1.0080           0
     11788 WT5      596      MECN     C2       CG1N1    0.360000       12.0110           0
     11789 WT5      596      MECN     N3       NG1T1   -0.460000       14.0070           0
     11790 WT5      599      MECN     C1       CG331   -0.170000       12.0110           0
     11791 WT5      599      MECN     H11      HGA3     0.090000        1.0080           0
     11792 WT5      599      MECN     H12      HGA3     0.090000        1.0080           0
     11793 WT5      599      MECN     H13      HGA3     0.090000        1.0080           0
     11794 WT5      599      MECN     C2       CG1N1    0.360000       12.0110           0
     11795 WT5      599      MECN     N3       NG1T1   -0.460000       14.0070           0
     11796 WT5      601      MECN     C1       CG331   -0.170000       12.0110           0
     11797 WT5      601      MECN     H11      HGA3     0.090000        1.0080           0
     11798 WT5      601      MECN     H12      HGA3     0.090000        1.0080           0
     11799 WT5      601      MECN     H13      HGA3     0.090000        1.0080           0
     11800 WT5      601      MECN     C2       CG1N1    0.360000       12.0110           0
     11801 WT5      601      MECN     N3       NG1T1   -0.460000       14.0070           0
     11802 WT5      603      MECN     C1       CG331   -0.170000       12.0110           0
     11803 WT5      603      MECN     H11      HGA3     0.090000        1.0080           0
     11804 WT5      603      MECN     H12      HGA3     0.090000        1.0080           0
     11805 WT5      603      MECN     H13      HGA3     0.090000        1.0080           0
     11806 WT5      603      MECN     C2       CG1N1    0.360000       12.0110           0
     11807 WT5      603      MECN     N3       NG1T1   -0.460000       14.0070           0
     11808 WT5      606      MECN     C1       CG331   -0.170000       12.0110           0
     11809 WT5      606      MECN     H11      HGA3     0.090000        1.0080           0
     11810 WT5      606      MECN     H12      HGA3     0.090000        1.0080           0
     11811 WT5      606      MECN     H13      HGA3     0.090000        1.0080           0
     11812 WT5      606      MECN     C2       CG1N1    0.360000       12.0110           0
     11813 WT5      606      MECN     N3       NG1T1   -0.460000       14.0070           0
     11814 WT5      609      MECN     C1       CG331   -0.170000       12.0110           0
     11815 WT5      609      MECN     H11      HGA3     0.090000        1.0080           0
     11816 WT5      609      MECN     H12      HGA3     0.090000        1.0080           0
     11817 WT5      609      MECN     H13      HGA3     0.090000        1.0080           0
     11818 WT5      609      MECN     C2       CG1N1    0.360000       12.0110           0
     11819 WT5      609      MECN     N3       NG1T1   -0.460000       14.0070           0
     11820 WT5      610      MECN     C1       CG331   -0.170000       12.0110           0
     11821 WT5      610      MECN     H11      HGA3     0.090000        1.0080           0
     11822 WT5      610      MECN     H12      HGA3     0.090000        1.0080           0
     11823 WT5      610      MECN     H13      HGA3     0.090000        1.0080           0
     11824 WT5      610      MECN     C2       CG1N1    0.360000       12.0110           0
     11825 WT5      610      MECN     N3       NG1T1   -0.460000       14.0070           0
     11826 WT5      611      MECN     C1       CG331   -0.170000       12.0110           0
     11827 WT5      611      MECN     H11      HGA3     0.090000        1.0080           0
     11828 WT5      611      MECN     H12      HGA3     0.090000        1.0080           0
     11829 WT5      611      MECN     H13      HGA3     0.090000        1.0080           0
     11830 WT5      611      MECN     C2       CG1N1    0.360000       12.0110           0
     11831 WT5      611      MECN     N3       NG1T1   -0.460000       14.0070           0
     11832 WT5      612      MECN     C1       CG331   -0.170000       12.0110           0
     11833 WT5      612      MECN     H11      HGA3     0.090000        1.0080           0
     11834 WT5      612      MECN     H12      HGA3     0.090000        1.0080           0
     11835 WT5      612      MECN     H13      HGA3     0.090000        1.0080           0
     11836 WT5      612      MECN     C2       CG1N1    0.360000       12.0110           0
     11837 WT5      612      MECN     N3       NG1T1   -0.460000       14.0070           0
     11838 WT5      614      MECN     C1       CG331   -0.170000       12.0110           0
     11839 WT5      614      MECN     H11      HGA3     0.090000        1.0080           0
     11840 WT5      614      MECN     H12      HGA3     0.090000        1.0080           0
     11841 WT5      614      MECN     H13      HGA3     0.090000        1.0080           0
     11842 WT5      614      MECN     C2       CG1N1    0.360000       12.0110           0
     11843 WT5      614      MECN     N3       NG1T1   -0.460000       14.0070           0
     11844 WT5      616      MECN     C1       CG331   -0.170000       12.0110           0
     11845 WT5      616      MECN     H11      HGA3     0.090000        1.0080           0
     11846 WT5      616      MECN     H12      HGA3     0.090000        1.0080           0
     11847 WT5      616      MECN     H13      HGA3     0.090000        1.0080           0
     11848 WT5      616      MECN     C2       CG1N1    0.360000       12.0110           0
     11849 WT5      616      MECN     N3       NG1T1   -0.460000       14.0070           0
     11850 WT5      617      MECN     C1       CG331   -0.170000       12.0110           0
     11851 WT5      617      MECN     H11      HGA3     0.090000        1.0080           0
     11852 WT5      617      MECN     H12      HGA3     0.090000        1.0080           0
     11853 WT5      617      MECN     H13      HGA3     0.090000        1.0080           0
     11854 WT5      617      MECN     C2       CG1N1    0.360000       12.0110           0
     11855 WT5      617      MECN     N3       NG1T1   -0.460000       14.0070           0
     11856 WT5      620      MECN     C1       CG331   -0.170000       12.0110           0
     11857 WT5      620      MECN     H11      HGA3     0.090000        1.0080           0
     11858 WT5      620      MECN     H12      HGA3     0.090000        1.0080           0
     11859 WT5      620      MECN     H13      HGA3     0.090000        1.0080           0
     11860 WT5      620      MECN     C2       CG1N1    0.360000       12.0110           0
     11861 WT5      620      MECN     N3       NG1T1   -0.460000       14.0070           0
     11862 WT5      625      MECN     C1       CG331   -0.170000       12.0110           0
     11863 WT5      625      MECN     H11      HGA3     0.090000        1.0080           0
     11864 WT5      625      MECN     H12      HGA3     0.090000        1.0080           0
     11865 WT5      625      MECN     H13      HGA3     0.090000        1.0080           0
     11866 WT5      625      MECN     C2       CG1N1    0.360000       12.0110           0
     11867 WT5      625      MECN     N3       NG1T1   -0.460000       14.0070           0
     11868 WT5      628      MECN     C1       CG331   -0.170000       12.0110           0
     11869 WT5      628      MECN     H11      HGA3     0.090000        1.0080           0
     11870 WT5      628      MECN     H12      HGA3     0.090000        1.0080           0
     11871 WT5      628      MECN     H13      HGA3     0.090000        1.0080           0
     11872 WT5      628      MECN     C2       CG1N1    0.360000       12.0110           0
     11873 WT5      628      MECN     N3       NG1T1   -0.460000       14.0070           0
     11874 WT5      630      MECN     C1       CG331   -0.170000       12.0110           0
     11875 WT5      630      MECN     H11      HGA3     0.090000        1.0080           0
     11876 WT5      630      MECN     H12      HGA3     0.090000        1.0080           0
     11877 WT5      630      MECN     H13      HGA3     0.090000        1.0080           0
     11878 WT5      630      MECN     C2       CG1N1    0.360000       12.0110           0
     11879 WT5      630      MECN     N3       NG1T1   -0.460000       14.0070           0
     11880 WT5      632      MECN     C1       CG331   -0.170000       12.0110           0
     11881 WT5      632      MECN     H11      HGA3     0.090000        1.0080           0
     11882 WT5      632      MECN     H12      HGA3     0.090000        1.0080           0
     11883 WT5      632      MECN     H13      HGA3     0.090000        1.0080           0
     11884 WT5      632      MECN     C2       CG1N1    0.360000       12.0110           0
     11885 WT5      632      MECN     N3       NG1T1   -0.460000       14.0070           0
     11886 WT5      633      MECN     C1       CG331   -0.170000       12.0110           0
     11887 WT5      633      MECN     H11      HGA3     0.090000        1.0080           0
     11888 WT5      633      MECN     H12      HGA3     0.090000        1.0080           0
     11889 WT5      633      MECN     H13      HGA3     0.090000        1.0080           0
     11890 WT5      633      MECN     C2       CG1N1    0.360000       12.0110           0
     11891 WT5      633      MECN     N3       NG1T1   -0.460000       14.0070           0
     11892 WT5      636      MECN     C1       CG331   -0.170000       12.0110           0
     11893 WT5      636      MECN     H11      HGA3     0.090000        1.0080           0
     11894 WT5      636      MECN     H12      HGA3     0.090000        1.0080           0
     11895 WT5      636      MECN     H13      HGA3     0.090000        1.0080           0
     11896 WT5      636      MECN     C2       CG1N1    0.360000       12.0110           0
     11897 WT5      636      MECN     N3       NG1T1   -0.460000       14.0070           0
     11898 WT5      638      MECN     C1       CG331   -0.170000       12.0110           0
     11899 WT5      638      MECN     H11      HGA3     0.090000        1.0080           0
     11900 WT5      638      MECN     H12      HGA3     0.090000        1.0080           0
     11901 WT5      638      MECN     H13      HGA3     0.090000        1.0080           0
     11902 WT5      638      MECN     C2       CG1N1    0.360000       12.0110           0
     11903 WT5      638      MECN     N3       NG1T1   -0.460000       14.0070           0
     11904 WT5      639      MECN     C1       CG331   -0.170000       12.0110           0
     11905 WT5      639      MECN     H11      HGA3     0.090000        1.0080           0
     11906 WT5      639      MECN     H12      HGA3     0.090000        1.0080           0
     11907 WT5      639      MECN     H13      HGA3     0.090000        1.0080           0
     11908 WT5      639      MECN     C2       CG1N1    0.360000       12.0110           0
     11909 WT5      639      MECN     N3       NG1T1   -0.460000       14.0070           0
     11910 WT5      641      MECN     C1       CG331   -0.170000       12.0110           0
     11911 WT5      641      MECN     H11      HGA3     0.090000        1.0080           0
     11912 WT5      641      MECN     H12      HGA3     0.090000        1.0080           0
     11913 WT5      641      MECN     H13      HGA3     0.090000        1.0080           0
     11914 WT5      641      MECN     C2       CG1N1    0.360000       12.0110           0
     11915 WT5      641      MECN     N3       NG1T1   -0.460000       14.0070           0
     11916 WT5      642      MECN     C1       CG331   -0.170000       12.0110           0
     11917 WT5      642      MECN     H11      HGA3     0.090000        1.0080           0
     11918 WT5      642      MECN     H12      HGA3     0.090000        1.0080           0
     11919 WT5      642      MECN     H13      HGA3     0.090000        1.0080           0
     11920 WT5      642      MECN     C2       CG1N1    0.360000       12.0110           0
     11921 WT5      642      MECN     N3       NG1T1   -0.460000       14.0070           0
     11922 WT5      644      MECN     C1       CG331   -0.170000       12.0110           0
     11923 WT5      644      MECN     H11      HGA3     0.090000        1.0080           0
     11924 WT5      644      MECN     H12      HGA3     0.090000        1.0080           0
     11925 WT5      644      MECN     H13      HGA3     0.090000        1.0080           0
     11926 WT5      644      MECN     C2       CG1N1    0.360000       12.0110           0
     11927 WT5      644      MECN     N3       NG1T1   -0.460000       14.0070           0
     11928 WT5      646      MECN     C1       CG331   -0.170000       12.0110           0
     11929 WT5      646      MECN     H11      HGA3     0.090000        1.0080           0
     11930 WT5      646      MECN     H12      HGA3     0.090000        1.0080           0
     11931 WT5      646      MECN     H13      HGA3     0.090000        1.0080           0
     11932 WT5      646      MECN     C2       CG1N1    0.360000       12.0110           0
     11933 WT5      646      MECN     N3       NG1T1   -0.460000       14.0070           0
     11934 WT5      650      MECN     C1       CG331   -0.170000       12.0110           0
     11935 WT5      650      MECN     H11      HGA3     0.090000        1.0080           0
     11936 WT5      650      MECN     H12      HGA3     0.090000        1.0080           0
     11937 WT5      650      MECN     H13      HGA3     0.090000        1.0080           0
     11938 WT5      650      MECN     C2       CG1N1    0.360000       12.0110           0
     11939 WT5      650      MECN     N3       NG1T1   -0.460000       14.0070           0
     11940 WT5      651      MECN     C1       CG331   -0.170000       12.0110           0
     11941 WT5      651      MECN     H11      HGA3     0.090000        1.0080           0
     11942 WT5      651      MECN     H12      HGA3     0.090000        1.0080           0
     11943 WT5      651      MECN     H13      HGA3     0.090000        1.0080           0
     11944 WT5      651      MECN     C2       CG1N1    0.360000       12.0110           0
     11945 WT5      651      MECN     N3       NG1T1   -0.460000       14.0070           0
     11946 WT5      655      MECN     C1       CG331   -0.170000       12.0110           0
     11947 WT5      655      MECN     H11      HGA3     0.090000        1.0080           0
     11948 WT5      655      MECN     H12      HGA3     0.090000        1.0080           0
     11949 WT5      655      MECN     H13      HGA3     0.090000        1.0080           0
     11950 WT5      655      MECN     C2       CG1N1    0.360000       12.0110           0
     11951 WT5      655      MECN     N3       NG1T1   -0.460000       14.0070           0
     11952 WT5      656      MECN     C1       CG331   -0.170000       12.0110           0
     11953 WT5      656      MECN     H11      HGA3     0.090000        1.0080           0
     11954 WT5      656      MECN     H12      HGA3     0.090000        1.0080           0
     11955 WT5      656      MECN     H13      HGA3     0.090000        1.0080           0
     11956 WT5      656      MECN     C2       CG1N1    0.360000       12.0110           0
     11957 WT5      656      MECN     N3       NG1T1   -0.460000       14.0070           0
     11958 WT5      657      MECN     C1       CG331   -0.170000       12.0110           0
     11959 WT5      657      MECN     H11      HGA3     0.090000        1.0080           0
     11960 WT5      657      MECN     H12      HGA3     0.090000        1.0080           0
     11961 WT5      657      MECN     H13      HGA3     0.090000        1.0080           0
     11962 WT5      657      MECN     C2       CG1N1    0.360000       12.0110           0
     11963 WT5      657      MECN     N3       NG1T1   -0.460000       14.0070           0
     11964 WT5      658      MECN     C1       CG331   -0.170000       12.0110           0
     11965 WT5      658      MECN     H11      HGA3     0.090000        1.0080           0
     11966 WT5      658      MECN     H12      HGA3     0.090000        1.0080           0
     11967 WT5      658      MECN     H13      HGA3     0.090000        1.0080           0
     11968 WT5      658      MECN     C2       CG1N1    0.360000       12.0110           0
     11969 WT5      658      MECN     N3       NG1T1   -0.460000       14.0070           0
     11970 WT5      661      MECN     C1       CG331   -0.170000       12.0110           0
     11971 WT5      661      MECN     H11      HGA3     0.090000        1.0080           0
     11972 WT5      661      MECN     H12      HGA3     0.090000        1.0080           0
     11973 WT5      661      MECN     H13      HGA3     0.090000        1.0080           0
     11974 WT5      661      MECN     C2       CG1N1    0.360000       12.0110           0
     11975 WT5      661      MECN     N3       NG1T1   -0.460000       14.0070           0
     11976 WT5      663      MECN     C1       CG331   -0.170000       12.0110           0
     11977 WT5      663      MECN     H11      HGA3     0.090000        1.0080           0
     11978 WT5      663      MECN     H12      HGA3     0.090000        1.0080           0
     11979 WT5      663      MECN     H13      HGA3     0.090000        1.0080           0
     11980 WT5      663      MECN     C2       CG1N1    0.360000       12.0110           0
     11981 WT5      663      MECN     N3       NG1T1   -0.460000       14.0070           0
     11982 WT5      664      MECN     C1       CG331   -0.170000       12.0110           0
     11983 WT5      664      MECN     H11      HGA3     0.090000        1.0080           0
     11984 WT5      664      MECN     H12      HGA3     0.090000        1.0080           0
     11985 WT5      664      MECN     H13      HGA3     0.090000        1.0080           0
     11986 WT5      664      MECN     C2       CG1N1    0.360000       12.0110           0
     11987 WT5      664      MECN     N3       NG1T1   -0.460000       14.0070           0
     11988 WT5      667      MECN     C1       CG331   -0.170000       12.0110           0
     11989 WT5      667      MECN     H11      HGA3     0.090000        1.0080           0
     11990 WT5      667      MECN     H12      HGA3     0.090000        1.0080           0
     11991 WT5      667      MECN     H13      HGA3     0.090000        1.0080           0
     11992 WT5      667      MECN     C2       CG1N1    0.360000       12.0110           0
     11993 WT5      667      MECN     N3       NG1T1   -0.460000       14.0070           0
     11994 WT5      668      MECN     C1       CG331   -0.170000       12.0110           0
     11995 WT5      668      MECN     H11      HGA3     0.090000        1.0080           0
     11996 WT5      668      MECN     H12      HGA3     0.090000        1.0080           0
     11997 WT5      668      MECN     H13      HGA3     0.090000        1.0080           0
     11998 WT5      668      MECN     C2       CG1N1    0.360000       12.0110           0
     11999 WT5      668      MECN     N3       NG1T1   -0.460000       14.0070           0
     12000 WT5      670      MECN     C1       CG331   -0.170000       12.0110           0
     12001 WT5      670      MECN     H11      HGA3     0.090000        1.0080           0
     12002 WT5      670      MECN     H12      HGA3     0.090000        1.0080           0
     12003 WT5      670      MECN     H13      HGA3     0.090000        1.0080           0
     12004 WT5      670      MECN     C2       CG1N1    0.360000       12.0110           0
     12005 WT5      670      MECN     N3       NG1T1   -0.460000       14.0070           0
     12006 WT5      672      MECN     C1       CG331   -0.170000       12.0110           0
     12007 WT5      672      MECN     H11      HGA3     0.090000        1.0080           0
     12008 WT5      672      MECN     H12      HGA3     0.090000        1.0080           0
     12009 WT5      672      MECN     H13      HGA3     0.090000        1.0080           0
     12010 WT5      672      MECN     C2       CG1N1    0.360000       12.0110           0
     12011 WT5      672      MECN     N3       NG1T1   -0.460000       14.0070           0
     12012 WT5      673      MECN     C1       CG331   -0.170000       12.0110           0
     12013 WT5      673      MECN     H11      HGA3     0.090000        1.0080           0
     12014 WT5      673      MECN     H12      HGA3     0.090000        1.0080           0
     12015 WT5      673      MECN     H13      HGA3     0.090000        1.0080           0
     12016 WT5      673      MECN     C2       CG1N1    0.360000       12.0110           0
     12017 WT5      673      MECN     N3       NG1T1   -0.460000       14.0070           0
     12018 WT5      677      MECN     C1       CG331   -0.170000       12.0110           0
     12019 WT5      677      MECN     H11      HGA3     0.090000        1.0080           0
     12020 WT5      677      MECN     H12      HGA3     0.090000        1.0080           0
     12021 WT5      677      MECN     H13      HGA3     0.090000        1.0080           0
     12022 WT5      677      MECN     C2       CG1N1    0.360000       12.0110           0
     12023 WT5      677      MECN     N3       NG1T1   -0.460000       14.0070           0
     12024 WT5      678      MECN     C1       CG331   -0.170000       12.0110           0
     12025 WT5      678      MECN     H11      HGA3     0.090000        1.0080           0
     12026 WT5      678      MECN     H12      HGA3     0.090000        1.0080           0
     12027 WT5      678      MECN     H13      HGA3     0.090000        1.0080           0
     12028 WT5      678      MECN     C2       CG1N1    0.360000       12.0110           0
     12029 WT5      678      MECN     N3       NG1T1   -0.460000       14.0070           0
     12030 WT5      679      MECN     C1       CG331   -0.170000       12.0110           0
     12031 WT5      679      MECN     H11      HGA3     0.090000        1.0080           0
     12032 WT5      679      MECN     H12      HGA3     0.090000        1.0080           0
     12033 WT5      679      MECN     H13      HGA3     0.090000        1.0080           0
     12034 WT5      679      MECN     C2       CG1N1    0.360000       12.0110           0
     12035 WT5      679      MECN     N3       NG1T1   -0.460000       14.0070           0
     12036 WT5      681      MECN     C1       CG331   -0.170000       12.0110           0
     12037 WT5      681      MECN     H11      HGA3     0.090000        1.0080           0
     12038 WT5      681      MECN     H12      HGA3     0.090000        1.0080           0
     12039 WT5      681      MECN     H13      HGA3     0.090000        1.0080           0
     12040 WT5      681      MECN     C2       CG1N1    0.360000       12.0110           0
     12041 WT5      681      MECN     N3       NG1T1   -0.460000       14.0070           0
     12042 WT5      687      MECN     C1       CG331   -0.170000       12.0110           0
     12043 WT5      687      MECN     H11      HGA3     0.090000        1.0080           0
     12044 WT5      687      MECN     H12      HGA3     0.090000        1.0080           0
     12045 WT5      687      MECN     H13      HGA3     0.090000        1.0080           0
     12046 WT5      687      MECN     C2       CG1N1    0.360000       12.0110           0
     12047 WT5      687      MECN     N3       NG1T1   -0.460000       14.0070           0
     12048 WT5      688      MECN     C1       CG331   -0.170000       12.0110           0
     12049 WT5      688      MECN     H11      HGA3     0.090000        1.0080           0
     12050 WT5      688      MECN     H12      HGA3     0.090000        1.0080           0
     12051 WT5      688      MECN     H13      HGA3     0.090000        1.0080           0
     12052 WT5      688      MECN     C2       CG1N1    0.360000       12.0110           0
     12053 WT5      688      MECN     N3       NG1T1   -0.460000       14.0070           0
     12054 WT5      689      MECN     C1       CG331   -0.170000       12.0110           0
     12055 WT5      689      MECN     H11      HGA3     0.090000        1.0080           0
     12056 WT5      689      MECN     H12      HGA3     0.090000        1.0080           0
     12057 WT5      689      MECN     H13      HGA3     0.090000        1.0080           0
     12058 WT5      689      MECN     C2       CG1N1    0.360000       12.0110           0
     12059 WT5      689      MECN     N3       NG1T1   -0.460000       14.0070           0
     12060 WT5      691      MECN     C1       CG331   -0.170000       12.0110           0
     12061 WT5      691      MECN     H11      HGA3     0.090000        1.0080           0
     12062 WT5      691      MECN     H12      HGA3     0.090000        1.0080           0
     12063 WT5      691      MECN     H13      HGA3     0.090000        1.0080           0
     12064 WT5      691      MECN     C2       CG1N1    0.360000       12.0110           0
     12065 WT5      691      MECN     N3       NG1T1   -0.460000       14.0070           0
     12066 WT5      692      MECN     C1       CG331   -0.170000       12.0110           0
     12067 WT5      692      MECN     H11      HGA3     0.090000        1.0080           0
     12068 WT5      692      MECN     H12      HGA3     0.090000        1.0080           0
     12069 WT5      692      MECN     H13      HGA3     0.090000        1.0080           0
     12070 WT5      692      MECN     C2       CG1N1    0.360000       12.0110           0
     12071 WT5      692      MECN     N3       NG1T1   -0.460000       14.0070           0
     12072 WT5      695      MECN     C1       CG331   -0.170000       12.0110           0
     12073 WT5      695      MECN     H11      HGA3     0.090000        1.0080           0
     12074 WT5      695      MECN     H12      HGA3     0.090000        1.0080           0
     12075 WT5      695      MECN     H13      HGA3     0.090000        1.0080           0
     12076 WT5      695      MECN     C2       CG1N1    0.360000       12.0110           0
     12077 WT5      695      MECN     N3       NG1T1   -0.460000       14.0070           0
     12078 WT5      696      MECN     C1       CG331   -0.170000       12.0110           0
     12079 WT5      696      MECN     H11      HGA3     0.090000        1.0080           0
     12080 WT5      696      MECN     H12      HGA3     0.090000        1.0080           0
     12081 WT5      696      MECN     H13      HGA3     0.090000        1.0080           0
     12082 WT5      696      MECN     C2       CG1N1    0.360000       12.0110           0
     12083 WT5      696      MECN     N3       NG1T1   -0.460000       14.0070           0
     12084 WT5      699      MECN     C1       CG331   -0.170000       12.0110           0
     12085 WT5      699      MECN     H11      HGA3     0.090000        1.0080           0
     12086 WT5      699      MECN     H12      HGA3     0.090000        1.0080           0
     12087 WT5      699      MECN     H13      HGA3     0.090000        1.0080           0
     12088 WT5      699      MECN     C2       CG1N1    0.360000       12.0110           0
     12089 WT5      699      MECN     N3       NG1T1   -0.460000       14.0070           0
     12090 WT5      703      MECN     C1       CG331   -0.170000       12.0110           0
     12091 WT5      703      MECN     H11      HGA3     0.090000        1.0080           0
     12092 WT5      703      MECN     H12      HGA3     0.090000        1.0080           0
     12093 WT5      703      MECN     H13      HGA3     0.090000        1.0080           0
     12094 WT5      703      MECN     C2       CG1N1    0.360000       12.0110           0
     12095 WT5      703      MECN     N3       NG1T1   -0.460000       14.0070           0
     12096 WT5      705      MECN     C1       CG331   -0.170000       12.0110           0
     12097 WT5      705      MECN     H11      HGA3     0.090000        1.0080           0
     12098 WT5      705      MECN     H12      HGA3     0.090000        1.0080           0
     12099 WT5      705      MECN     H13      HGA3     0.090000        1.0080           0
     12100 WT5      705      MECN     C2       CG1N1    0.360000       12.0110           0
     12101 WT5      705      MECN     N3       NG1T1   -0.460000       14.0070           0
     12102 WT5      706      MECN     C1       CG331   -0.170000       12.0110           0
     12103 WT5      706      MECN     H11      HGA3     0.090000        1.0080           0
     12104 WT5      706      MECN     H12      HGA3     0.090000        1.0080           0
     12105 WT5      706      MECN     H13      HGA3     0.090000        1.0080           0
     12106 WT5      706      MECN     C2       CG1N1    0.360000       12.0110           0
     12107 WT5      706      MECN     N3       NG1T1   -0.460000       14.0070           0
     12108 WT5      707      MECN     C1       CG331   -0.170000       12.0110           0
     12109 WT5      707      MECN     H11      HGA3     0.090000        1.0080           0
     12110 WT5      707      MECN     H12      HGA3     0.090000        1.0080           0
     12111 WT5      707      MECN     H13      HGA3     0.090000        1.0080           0
     12112 WT5      707      MECN     C2       CG1N1    0.360000       12.0110           0
     12113 WT5      707      MECN     N3       NG1T1   -0.460000       14.0070           0
     12114 WT5      711      MECN     C1       CG331   -0.170000       12.0110           0
     12115 WT5      711      MECN     H11      HGA3     0.090000        1.0080           0
     12116 WT5      711      MECN     H12      HGA3     0.090000        1.0080           0
     12117 WT5      711      MECN     H13      HGA3     0.090000        1.0080           0
     12118 WT5      711      MECN     C2       CG1N1    0.360000       12.0110           0
     12119 WT5      711      MECN     N3       NG1T1   -0.460000       14.0070           0
     12120 WT5      715      MECN     C1       CG331   -0.170000       12.0110           0
     12121 WT5      715      MECN     H11      HGA3     0.090000        1.0080           0
     12122 WT5      715      MECN     H12      HGA3     0.090000        1.0080           0
     12123 WT5      715      MECN     H13      HGA3     0.090000        1.0080           0
     12124 WT5      715      MECN     C2       CG1N1    0.360000       12.0110           0
     12125 WT5      715      MECN     N3       NG1T1   -0.460000       14.0070           0
     12126 WT5      718      MECN     C1       CG331   -0.170000       12.0110           0
     12127 WT5      718      MECN     H11      HGA3     0.090000        1.0080           0
     12128 WT5      718      MECN     H12      HGA3     0.090000        1.0080           0
     12129 WT5      718      MECN     H13      HGA3     0.090000        1.0080           0
     12130 WT5      718      MECN     C2       CG1N1    0.360000       12.0110           0
     12131 WT5      718      MECN     N3       NG1T1   -0.460000       14.0070           0
     12132 WT5      719      MECN     C1       CG331   -0.170000       12.0110           0
     12133 WT5      719      MECN     H11      HGA3     0.090000        1.0080           0
     12134 WT5      719      MECN     H12      HGA3     0.090000        1.0080           0
     12135 WT5      719      MECN     H13      HGA3     0.090000        1.0080           0
     12136 WT5      719      MECN     C2       CG1N1    0.360000       12.0110           0
     12137 WT5      719      MECN     N3       NG1T1   -0.460000       14.0070           0
     12138 WT5      722      MECN     C1       CG331   -0.170000       12.0110           0
     12139 WT5      722      MECN     H11      HGA3     0.090000        1.0080           0
     12140 WT5      722      MECN     H12      HGA3     0.090000        1.0080           0
     12141 WT5      722      MECN     H13      HGA3     0.090000        1.0080           0
     12142 WT5      722      MECN     C2       CG1N1    0.360000       12.0110           0
     12143 WT5      722      MECN     N3       NG1T1   -0.460000       14.0070           0
     12144 WT5      724      MECN     C1       CG331   -0.170000       12.0110           0
     12145 WT5      724      MECN     H11      HGA3     0.090000        1.0080           0
     12146 WT5      724      MECN     H12      HGA3     0.090000        1.0080           0
     12147 WT5      724      MECN     H13      HGA3     0.090000        1.0080           0
     12148 WT5      724      MECN     C2       CG1N1    0.360000       12.0110           0
     12149 WT5      724      MECN     N3       NG1T1   -0.460000       14.0070           0
     12150 WT5      725      MECN     C1       CG331   -0.170000       12.0110           0
     12151 WT5      725      MECN     H11      HGA3     0.090000        1.0080           0
     12152 WT5      725      MECN     H12      HGA3     0.090000        1.0080           0
     12153 WT5      725      MECN     H13      HGA3     0.090000        1.0080           0
     12154 WT5      725      MECN     C2       CG1N1    0.360000       12.0110           0
     12155 WT5      725      MECN     N3       NG1T1   -0.460000       14.0070           0
     12156 WT5      727      MECN     C1       CG331   -0.170000       12.0110           0
     12157 WT5      727      MECN     H11      HGA3     0.090000        1.0080           0
     12158 WT5      727      MECN     H12      HGA3     0.090000        1.0080           0
     12159 WT5      727      MECN     H13      HGA3     0.090000        1.0080           0
     12160 WT5      727      MECN     C2       CG1N1    0.360000       12.0110           0
     12161 WT5      727      MECN     N3       NG1T1   -0.460000       14.0070           0
     12162 WT5      728      MECN     C1       CG331   -0.170000       12.0110           0
     12163 WT5      728      MECN     H11      HGA3     0.090000        1.0080           0
     12164 WT5      728      MECN     H12      HGA3     0.090000        1.0080           0
     12165 WT5      728      MECN     H13      HGA3     0.090000        1.0080           0
     12166 WT5      728      MECN     C2       CG1N1    0.360000       12.0110           0
     12167 WT5      728      MECN     N3       NG1T1   -0.460000       14.0070           0
     12168 WT5      736      MECN     C1       CG331   -0.170000       12.0110           0
     12169 WT5      736      MECN     H11      HGA3     0.090000        1.0080           0
     12170 WT5      736      MECN     H12      HGA3     0.090000        1.0080           0
     12171 WT5      736      MECN     H13      HGA3     0.090000        1.0080           0
     12172 WT5      736      MECN     C2       CG1N1    0.360000       12.0110           0
     12173 WT5      736      MECN     N3       NG1T1   -0.460000       14.0070           0
     12174 WT5      738      MECN     C1       CG331   -0.170000       12.0110           0
     12175 WT5      738      MECN     H11      HGA3     0.090000        1.0080           0
     12176 WT5      738      MECN     H12      HGA3     0.090000        1.0080           0
     12177 WT5      738      MECN     H13      HGA3     0.090000        1.0080           0
     12178 WT5      738      MECN     C2       CG1N1    0.360000       12.0110           0
     12179 WT5      738      MECN     N3       NG1T1   -0.460000       14.0070           0
     12180 WT5      739      MECN     C1       CG331   -0.170000       12.0110           0
     12181 WT5      739      MECN     H11      HGA3     0.090000        1.0080           0
     12182 WT5      739      MECN     H12      HGA3     0.090000        1.0080           0
     12183 WT5      739      MECN     H13      HGA3     0.090000        1.0080           0
     12184 WT5      739      MECN     C2       CG1N1    0.360000       12.0110           0
     12185 WT5      739      MECN     N3       NG1T1   -0.460000       14.0070           0
     12186 WT5      742      MECN     C1       CG331   -0.170000       12.0110           0
     12187 WT5      742      MECN     H11      HGA3     0.090000        1.0080           0
     12188 WT5      742      MECN     H12      HGA3     0.090000        1.0080           0
     12189 WT5      742      MECN     H13      HGA3     0.090000        1.0080           0
     12190 WT5      742      MECN     C2       CG1N1    0.360000       12.0110           0
     12191 WT5      742      MECN     N3       NG1T1   -0.460000       14.0070           0
     12192 WT5      744      MECN     C1       CG331   -0.170000       12.0110           0
     12193 WT5      744      MECN     H11      HGA3     0.090000        1.0080           0
     12194 WT5      744      MECN     H12      HGA3     0.090000        1.0080           0
     12195 WT5      744      MECN     H13      HGA3     0.090000        1.0080           0
     12196 WT5      744      MECN     C2       CG1N1    0.360000       12.0110           0
     12197 WT5      744      MECN     N3       NG1T1   -0.460000       14.0070           0
     12198 WT5      745      MECN     C1       CG331   -0.170000       12.0110           0
     12199 WT5      745      MECN     H11      HGA3     0.090000        1.0080           0
     12200 WT5      745      MECN     H12      HGA3     0.090000        1.0080           0
     12201 WT5      745      MECN     H13      HGA3     0.090000        1.0080           0
     12202 WT5      745      MECN     C2       CG1N1    0.360000       12.0110           0
     12203 WT5      745      MECN     N3       NG1T1   -0.460000       14.0070           0
     12204 WT5      749      MECN     C1       CG331   -0.170000       12.0110           0
     12205 WT5      749      MECN     H11      HGA3     0.090000        1.0080           0
     12206 WT5      749      MECN     H12      HGA3     0.090000        1.0080           0
     12207 WT5      749      MECN     H13      HGA3     0.090000        1.0080           0
     12208 WT5      749      MECN     C2       CG1N1    0.360000       12.0110           0
     12209 WT5      749      MECN     N3       NG1T1   -0.460000       14.0070           0
     12210 WT5      751      MECN     C1       CG331   -0.170000       12.0110           0
     12211 WT5      751      MECN     H11      HGA3     0.090000        1.0080           0
     12212 WT5      751      MECN     H12      HGA3     0.090000        1.0080           0
     12213 WT5      751      MECN     H13      HGA3     0.090000        1.0080           0
     12214 WT5      751      MECN     C2       CG1N1    0.360000       12.0110           0
     12215 WT5      751      MECN     N3       NG1T1   -0.460000       14.0070           0
     12216 WT5      758      MECN     C1       CG331   -0.170000       12.0110           0
     12217 WT5      758      MECN     H11      HGA3     0.090000        1.0080           0
     12218 WT5      758      MECN     H12      HGA3     0.090000        1.0080           0
     12219 WT5      758      MECN     H13      HGA3     0.090000        1.0080           0
     12220 WT5      758      MECN     C2       CG1N1    0.360000       12.0110           0
     12221 WT5      758      MECN     N3       NG1T1   -0.460000       14.0070           0
     12222 WT5      759      MECN     C1       CG331   -0.170000       12.0110           0
     12223 WT5      759      MECN     H11      HGA3     0.090000        1.0080           0
     12224 WT5      759      MECN     H12      HGA3     0.090000        1.0080           0
     12225 WT5      759      MECN     H13      HGA3     0.090000        1.0080           0
     12226 WT5      759      MECN     C2       CG1N1    0.360000       12.0110           0
     12227 WT5      759      MECN     N3       NG1T1   -0.460000       14.0070           0
     12228 WT5      762      MECN     C1       CG331   -0.170000       12.0110           0
     12229 WT5      762      MECN     H11      HGA3     0.090000        1.0080           0
     12230 WT5      762      MECN     H12      HGA3     0.090000        1.0080           0
     12231 WT5      762      MECN     H13      HGA3     0.090000        1.0080           0
     12232 WT5      762      MECN     C2       CG1N1    0.360000       12.0110           0
     12233 WT5      762      MECN     N3       NG1T1   -0.460000       14.0070           0
     12234 WT5      770      MECN     C1       CG331   -0.170000       12.0110           0
     12235 WT5      770      MECN     H11      HGA3     0.090000        1.0080           0
     12236 WT5      770      MECN     H12      HGA3     0.090000        1.0080           0
     12237 WT5      770      MECN     H13      HGA3     0.090000        1.0080           0
     12238 WT5      770      MECN     C2       CG1N1    0.360000       12.0110           0
     12239 WT5      770      MECN     N3       NG1T1   -0.460000       14.0070           0
     12240 WT5      771      MECN     C1       CG331   -0.170000       12.0110           0
     12241 WT5      771      MECN     H11      HGA3     0.090000        1.0080           0
     12242 WT5      771      MECN     H12      HGA3     0.090000        1.0080           0
     12243 WT5      771      MECN     H13      HGA3     0.090000        1.0080           0
     12244 WT5      771      MECN     C2       CG1N1    0.360000       12.0110           0
     12245 WT5      771      MECN     N3       NG1T1   -0.460000       14.0070           0
     12246 WT5      774      MECN     C1       CG331   -0.170000       12.0110           0
     12247 WT5      774      MECN     H11      HGA3     0.090000        1.0080           0
     12248 WT5      774      MECN     H12      HGA3     0.090000        1.0080           0
     12249 WT5      774      MECN     H13      HGA3     0.090000        1.0080           0
     12250 WT5      774      MECN     C2       CG1N1    0.360000       12.0110           0
     12251 WT5      774      MECN     N3       NG1T1   -0.460000       14.0070           0
     12252 WT5      777      MECN     C1       CG331   -0.170000       12.0110           0
     12253 WT5      777      MECN     H11      HGA3     0.090000        1.0080           0
     12254 WT5      777      MECN     H12      HGA3     0.090000        1.0080           0
     12255 WT5      777      MECN     H13      HGA3     0.090000        1.0080           0
     12256 WT5      777      MECN     C2       CG1N1    0.360000       12.0110           0
     12257 WT5      777      MECN     N3       NG1T1   -0.460000       14.0070           0
     12258 WT5      780      MECN     C1       CG331   -0.170000       12.0110           0
     12259 WT5      780      MECN     H11      HGA3     0.090000        1.0080           0
     12260 WT5      780      MECN     H12      HGA3     0.090000        1.0080           0
     12261 WT5      780      MECN     H13      HGA3     0.090000        1.0080           0
     12262 WT5      780      MECN     C2       CG1N1    0.360000       12.0110           0
     12263 WT5      780      MECN     N3       NG1T1   -0.460000       14.0070           0
     12264 WT5      781      MECN     C1       CG331   -0.170000       12.0110           0
     12265 WT5      781      MECN     H11      HGA3     0.090000        1.0080           0
     12266 WT5      781      MECN     H12      HGA3     0.090000        1.0080           0
     12267 WT5      781      MECN     H13      HGA3     0.090000        1.0080           0
     12268 WT5      781      MECN     C2       CG1N1    0.360000       12.0110           0
     12269 WT5      781      MECN     N3       NG1T1   -0.460000       14.0070           0
     12270 WT5      785      MECN     C1       CG331   -0.170000       12.0110           0
     12271 WT5      785      MECN     H11      HGA3     0.090000        1.0080           0
     12272 WT5      785      MECN     H12      HGA3     0.090000        1.0080           0
     12273 WT5      785      MECN     H13      HGA3     0.090000        1.0080           0
     12274 WT5      785      MECN     C2       CG1N1    0.360000       12.0110           0
     12275 WT5      785      MECN     N3       NG1T1   -0.460000       14.0070           0
     12276 WT5      790      MECN     C1       CG331   -0.170000       12.0110           0
     12277 WT5      790      MECN     H11      HGA3     0.090000        1.0080           0
     12278 WT5      790      MECN     H12      HGA3     0.090000        1.0080           0
     12279 WT5      790      MECN     H13      HGA3     0.090000        1.0080           0
     12280 WT5      790      MECN     C2       CG1N1    0.360000       12.0110           0
     12281 WT5      790      MECN     N3       NG1T1   -0.460000       14.0070           0
     12282 WT5      791      MECN     C1       CG331   -0.170000       12.0110           0
     12283 WT5      791      MECN     H11      HGA3     0.090000        1.0080           0
     12284 WT5      791      MECN     H12      HGA3     0.090000        1.0080           0
     12285 WT5      791      MECN     H13      HGA3     0.090000        1.0080           0
     12286 WT5      791      MECN     C2       CG1N1    0.360000       12.0110           0
     12287 WT5      791      MECN     N3       NG1T1   -0.460000       14.0070           0
     12288 WT5      792      MECN     C1       CG331   -0.170000       12.0110           0
     12289 WT5      792      MECN     H11      HGA3     0.090000        1.0080           0
     12290 WT5      792      MECN     H12      HGA3     0.090000        1.0080           0
     12291 WT5      792      MECN     H13      HGA3     0.090000        1.0080           0
     12292 WT5      792      MECN     C2       CG1N1    0.360000       12.0110           0
     12293 WT5      792      MECN     N3       NG1T1   -0.460000       14.0070           0
     12294 WT5      793      MECN     C1       CG331   -0.170000       12.0110           0
     12295 WT5      793      MECN     H11      HGA3     0.090000        1.0080           0
     12296 WT5      793      MECN     H12      HGA3     0.090000        1.0080           0
     12297 WT5      793      MECN     H13      HGA3     0.090000        1.0080           0
     12298 WT5      793      MECN     C2       CG1N1    0.360000       12.0110           0
     12299 WT5      793      MECN     N3       NG1T1   -0.460000       14.0070           0
     12300 WT5      804      MECN     C1       CG331   -0.170000       12.0110           0
     12301 WT5      804      MECN     H11      HGA3     0.090000        1.0080           0
     12302 WT5      804      MECN     H12      HGA3     0.090000        1.0080           0
     12303 WT5      804      MECN     H13      HGA3     0.090000        1.0080           0
     12304 WT5      804      MECN     C2       CG1N1    0.360000       12.0110           0
     12305 WT5      804      MECN     N3       NG1T1   -0.460000       14.0070           0
     12306 WT5      805      MECN     C1       CG331   -0.170000       12.0110           0
     12307 WT5      805      MECN     H11      HGA3     0.090000        1.0080           0
     12308 WT5      805      MECN     H12      HGA3     0.090000        1.0080           0
     12309 WT5      805      MECN     H13      HGA3     0.090000        1.0080           0
     12310 WT5      805      MECN     C2       CG1N1    0.360000       12.0110           0
     12311 WT5      805      MECN     N3       NG1T1   -0.460000       14.0070           0
     12312 WT5      807      MECN     C1       CG331   -0.170000       12.0110           0
     12313 WT5      807      MECN     H11      HGA3     0.090000        1.0080           0
     12314 WT5      807      MECN     H12      HGA3     0.090000        1.0080           0
     12315 WT5      807      MECN     H13      HGA3     0.090000        1.0080           0
     12316 WT5      807      MECN     C2       CG1N1    0.360000       12.0110           0
     12317 WT5      807      MECN     N3       NG1T1   -0.460000       14.0070           0
     12318 WT5      808      MECN     C1       CG331   -0.170000       12.0110           0
     12319 WT5      808      MECN     H11      HGA3     0.090000        1.0080           0
     12320 WT5      808      MECN     H12      HGA3     0.090000        1.0080           0
     12321 WT5      808      MECN     H13      HGA3     0.090000        1.0080           0
     12322 WT5      808      MECN     C2       CG1N1    0.360000       12.0110           0
     12323 WT5      808      MECN     N3       NG1T1   -0.460000       14.0070           0
     12324 WT5      810      MECN     C1       CG331   -0.170000       12.0110           0
     12325 WT5      810      MECN     H11      HGA3     0.090000        1.0080           0
     12326 WT5      810      MECN     H12      HGA3     0.090000        1.0080           0
     12327 WT5      810      MECN     H13      HGA3     0.090000        1.0080           0
     12328 WT5      810      MECN     C2       CG1N1    0.360000       12.0110           0
     12329 WT5      810      MECN     N3       NG1T1   -0.460000       14.0070           0
     12330 WT5      811      MECN     C1       CG331   -0.170000       12.0110           0
     12331 WT5      811      MECN     H11      HGA3     0.090000        1.0080           0
     12332 WT5      811      MECN     H12      HGA3     0.090000        1.0080           0
     12333 WT5      811      MECN     H13      HGA3     0.090000        1.0080           0
     12334 WT5      811      MECN     C2       CG1N1    0.360000       12.0110           0
     12335 WT5      811      MECN     N3       NG1T1   -0.460000       14.0070           0
     12336 WT5      813      MECN     C1       CG331   -0.170000       12.0110           0
     12337 WT5      813      MECN     H11      HGA3     0.090000        1.0080           0
     12338 WT5      813      MECN     H12      HGA3     0.090000        1.0080           0
     12339 WT5      813      MECN     H13      HGA3     0.090000        1.0080           0
     12340 WT5      813      MECN     C2       CG1N1    0.360000       12.0110           0
     12341 WT5      813      MECN     N3       NG1T1   -0.460000       14.0070           0
     12342 WT5      820      MECN     C1       CG331   -0.170000       12.0110           0
     12343 WT5      820      MECN     H11      HGA3     0.090000        1.0080           0
     12344 WT5      820      MECN     H12      HGA3     0.090000        1.0080           0
     12345 WT5      820      MECN     H13      HGA3     0.090000        1.0080           0
     12346 WT5      820      MECN     C2       CG1N1    0.360000       12.0110           0
     12347 WT5      820      MECN     N3       NG1T1   -0.460000       14.0070           0
     12348 WT5      825      MECN     C1       CG331   -0.170000       12.0110           0
     12349 WT5      825      MECN     H11      HGA3     0.090000        1.0080           0
     12350 WT5      825      MECN     H12      HGA3     0.090000        1.0080           0
     12351 WT5      825      MECN     H13      HGA3     0.090000        1.0080           0
     12352 WT5      825      MECN     C2       CG1N1    0.360000       12.0110           0
     12353 WT5      825      MECN     N3       NG1T1   -0.460000       14.0070           0
     12354 WT5      830      MECN     C1       CG331   -0.170000       12.0110           0
     12355 WT5      830      MECN     H11      HGA3     0.090000        1.0080           0
     12356 WT5      830      MECN     H12      HGA3     0.090000        1.0080           0
     12357 WT5      830      MECN     H13      HGA3     0.090000        1.0080           0
     12358 WT5      830      MECN     C2       CG1N1    0.360000       12.0110           0
     12359 WT5      830      MECN     N3       NG1T1   -0.460000       14.0070           0
     12360 WT5      832      MECN     C1       CG331   -0.170000       12.0110           0
     12361 WT5      832      MECN     H11      HGA3     0.090000        1.0080           0
     12362 WT5      832      MECN     H12      HGA3     0.090000        1.0080           0
     12363 WT5      832      MECN     H13      HGA3     0.090000        1.0080           0
     12364 WT5      832      MECN     C2       CG1N1    0.360000       12.0110           0
     12365 WT5      832      MECN     N3       NG1T1   -0.460000       14.0070           0
     12366 WT5      836      MECN     C1       CG331   -0.170000       12.0110           0
     12367 WT5      836      MECN     H11      HGA3     0.090000        1.0080           0
     12368 WT5      836      MECN     H12      HGA3     0.090000        1.0080           0
     12369 WT5      836      MECN     H13      HGA3     0.090000        1.0080           0
     12370 WT5      836      MECN     C2       CG1N1    0.360000       12.0110           0
     12371 WT5      836      MECN     N3       NG1T1   -0.460000       14.0070           0
     12372 WT5      837      MECN     C1       CG331   -0.170000       12.0110           0
     12373 WT5      837      MECN     H11      HGA3     0.090000        1.0080           0
     12374 WT5      837      MECN     H12      HGA3     0.090000        1.0080           0
     12375 WT5      837      MECN     H13      HGA3     0.090000        1.0080           0
     12376 WT5      837      MECN     C2       CG1N1    0.360000       12.0110           0
     12377 WT5      837      MECN     N3       NG1T1   -0.460000       14.0070           0
     12378 WT5      838      MECN     C1       CG331   -0.170000       12.0110           0
     12379 WT5      838      MECN     H11      HGA3     0.090000        1.0080           0
     12380 WT5      838      MECN     H12      HGA3     0.090000        1.0080           0
     12381 WT5      838      MECN     H13      HGA3     0.090000        1.0080           0
     12382 WT5      838      MECN     C2       CG1N1    0.360000       12.0110           0
     12383 WT5      838      MECN     N3       NG1T1   -0.460000       14.0070           0
     12384 WT5      839      MECN     C1       CG331   -0.170000       12.0110           0
     12385 WT5      839      MECN     H11      HGA3     0.090000        1.0080           0
     12386 WT5      839      MECN     H12      HGA3     0.090000        1.0080           0
     12387 WT5      839      MECN     H13      HGA3     0.090000        1.0080           0
     12388 WT5      839      MECN     C2       CG1N1    0.360000       12.0110           0
     12389 WT5      839      MECN     N3       NG1T1   -0.460000       14.0070           0
     12390 WT5      841      MECN     C1       CG331   -0.170000       12.0110           0
     12391 WT5      841      MECN     H11      HGA3     0.090000        1.0080           0
     12392 WT5      841      MECN     H12      HGA3     0.090000        1.0080           0
     12393 WT5      841      MECN     H13      HGA3     0.090000        1.0080           0
     12394 WT5      841      MECN     C2       CG1N1    0.360000       12.0110           0
     12395 WT5      841      MECN     N3       NG1T1   -0.460000       14.0070           0
     12396 WT5      845      MECN     C1       CG331   -0.170000       12.0110           0
     12397 WT5      845      MECN     H11      HGA3     0.090000        1.0080           0
     12398 WT5      845      MECN     H12      HGA3     0.090000        1.0080           0
     12399 WT5      845      MECN     H13      HGA3     0.090000        1.0080           0
     12400 WT5      845      MECN     C2       CG1N1    0.360000       12.0110           0
     12401 WT5      845      MECN     N3       NG1T1   -0.460000       14.0070           0
     12402 WT5      846      MECN     C1       CG331   -0.170000       12.0110           0
     12403 WT5      846      MECN     H11      HGA3     0.090000        1.0080           0
     12404 WT5      846      MECN     H12      HGA3     0.090000        1.0080           0
     12405 WT5      846      MECN     H13      HGA3     0.090000        1.0080           0
     12406 WT5      846      MECN     C2       CG1N1    0.360000       12.0110           0
     12407 WT5      846      MECN     N3       NG1T1   -0.460000       14.0070           0
     12408 WT5      851      MECN     C1       CG331   -0.170000       12.0110           0
     12409 WT5      851      MECN     H11      HGA3     0.090000        1.0080           0
     12410 WT5      851      MECN     H12      HGA3     0.090000        1.0080           0
     12411 WT5      851      MECN     H13      HGA3     0.090000        1.0080           0
     12412 WT5      851      MECN     C2       CG1N1    0.360000       12.0110           0
     12413 WT5      851      MECN     N3       NG1T1   -0.460000       14.0070           0
     12414 WT5      853      MECN     C1       CG331   -0.170000       12.0110           0
     12415 WT5      853      MECN     H11      HGA3     0.090000        1.0080           0
     12416 WT5      853      MECN     H12      HGA3     0.090000        1.0080           0
     12417 WT5      853      MECN     H13      HGA3     0.090000        1.0080           0
     12418 WT5      853      MECN     C2       CG1N1    0.360000       12.0110           0
     12419 WT5      853      MECN     N3       NG1T1   -0.460000       14.0070           0
     12420 WT5      854      MECN     C1       CG331   -0.170000       12.0110           0
     12421 WT5      854      MECN     H11      HGA3     0.090000        1.0080           0
     12422 WT5      854      MECN     H12      HGA3     0.090000        1.0080           0
     12423 WT5      854      MECN     H13      HGA3     0.090000        1.0080           0
     12424 WT5      854      MECN     C2       CG1N1    0.360000       12.0110           0
     12425 WT5      854      MECN     N3       NG1T1   -0.460000       14.0070           0
     12426 WT5      855      MECN     C1       CG331   -0.170000       12.0110           0
     12427 WT5      855      MECN     H11      HGA3     0.090000        1.0080           0
     12428 WT5      855      MECN     H12      HGA3     0.090000        1.0080           0
     12429 WT5      855      MECN     H13      HGA3     0.090000        1.0080           0
     12430 WT5      855      MECN     C2       CG1N1    0.360000       12.0110           0
     12431 WT5      855      MECN     N3       NG1T1   -0.460000       14.0070           0
     12432 WT5      863      MECN     C1       CG331   -0.170000       12.0110           0
     12433 WT5      863      MECN     H11      HGA3     0.090000        1.0080           0
     12434 WT5      863      MECN     H12      HGA3     0.090000        1.0080           0
     12435 WT5      863      MECN     H13      HGA3     0.090000        1.0080           0
     12436 WT5      863      MECN     C2       CG1N1    0.360000       12.0110           0
     12437 WT5      863      MECN     N3       NG1T1   -0.460000       14.0070           0
     12438 WT5      866      MECN     C1       CG331   -0.170000       12.0110           0
     12439 WT5      866      MECN     H11      HGA3     0.090000        1.0080           0
     12440 WT5      866      MECN     H12      HGA3     0.090000        1.0080           0
     12441 WT5      866      MECN     H13      HGA3     0.090000        1.0080           0
     12442 WT5      866      MECN     C2       CG1N1    0.360000       12.0110           0
     12443 WT5      866      MECN     N3       NG1T1   -0.460000       14.0070           0
     12444 WT5      870      MECN     C1       CG331   -0.170000       12.0110           0
     12445 WT5      870      MECN     H11      HGA3     0.090000        1.0080           0
     12446 WT5      870      MECN     H12      HGA3     0.090000        1.0080           0
     12447 WT5      870      MECN     H13      HGA3     0.090000        1.0080           0
     12448 WT5      870      MECN     C2       CG1N1    0.360000       12.0110           0
     12449 WT5      870      MECN     N3       NG1T1   -0.460000       14.0070           0
     12450 WT5      871      MECN     C1       CG331   -0.170000       12.0110           0
     12451 WT5      871      MECN     H11      HGA3     0.090000        1.0080           0
     12452 WT5      871      MECN     H12      HGA3     0.090000        1.0080           0
     12453 WT5      871      MECN     H13      HGA3     0.090000        1.0080           0
     12454 WT5      871      MECN     C2       CG1N1    0.360000       12.0110           0
     12455 WT5      871      MECN     N3       NG1T1   -0.460000       14.0070           0
     12456 WT5      875      MECN     C1       CG331   -0.170000       12.0110           0
     12457 WT5      875      MECN     H11      HGA3     0.090000        1.0080           0
     12458 WT5      875      MECN     H12      HGA3     0.090000        1.0080           0
     12459 WT5      875      MECN     H13      HGA3     0.090000        1.0080           0
     12460 WT5      875      MECN     C2       CG1N1    0.360000       12.0110           0
     12461 WT5      875      MECN     N3       NG1T1   -0.460000       14.0070           0
     12462 WT5      877      MECN     C1       CG331   -0.170000       12.0110           0
     12463 WT5      877      MECN     H11      HGA3     0.090000        1.0080           0
     12464 WT5      877      MECN     H12      HGA3     0.090000        1.0080           0
     12465 WT5      877      MECN     H13      HGA3     0.090000        1.0080           0
     12466 WT5      877      MECN     C2       CG1N1    0.360000       12.0110           0
     12467 WT5      877      MECN     N3       NG1T1   -0.460000       14.0070           0
     12468 WT5      879      MECN     C1       CG331   -0.170000       12.0110           0
     12469 WT5      879      MECN     H11      HGA3     0.090000        1.0080           0
     12470 WT5      879      MECN     H12      HGA3     0.090000        1.0080           0
     12471 WT5      879      MECN     H13      HGA3     0.090000        1.0080           0
     12472 WT5      879      MECN     C2       CG1N1    0.360000       12.0110           0
     12473 WT5      879      MECN     N3       NG1T1   -0.460000       14.0070           0
     12474 WT5      880      MECN     C1       CG331   -0.170000       12.0110           0
     12475 WT5      880      MECN     H11      HGA3     0.090000        1.0080           0
     12476 WT5      880      MECN     H12      HGA3     0.090000        1.0080           0
     12477 WT5      880      MECN     H13      HGA3     0.090000        1.0080           0
     12478 WT5      880      MECN     C2       CG1N1    0.360000       12.0110           0
     12479 WT5      880      MECN     N3       NG1T1   -0.460000       14.0070           0
     12480 WT5      881      MECN     C1       CG331   -0.170000       12.0110           0
     12481 WT5      881      MECN     H11      HGA3     0.090000        1.0080           0
     12482 WT5      881      MECN     H12      HGA3     0.090000        1.0080           0
     12483 WT5      881      MECN     H13      HGA3     0.090000        1.0080           0
     12484 WT5      881      MECN     C2       CG1N1    0.360000       12.0110           0
     12485 WT5      881      MECN     N3       NG1T1   -0.460000       14.0070           0
     12486 WT5      882      MECN     C1       CG331   -0.170000       12.0110           0
     12487 WT5      882      MECN     H11      HGA3     0.090000        1.0080           0
     12488 WT5      882      MECN     H12      HGA3     0.090000        1.0080           0
     12489 WT5      882      MECN     H13      HGA3     0.090000        1.0080           0
     12490 WT5      882      MECN     C2       CG1N1    0.360000       12.0110           0
     12491 WT5      882      MECN     N3       NG1T1   -0.460000       14.0070           0
     12492 WT5      883      MECN     C1       CG331   -0.170000       12.0110           0
     12493 WT5      883      MECN     H11      HGA3     0.090000        1.0080           0
     12494 WT5      883      MECN     H12      HGA3     0.090000        1.0080           0
     12495 WT5      883      MECN     H13      HGA3     0.090000        1.0080           0
     12496 WT5      883      MECN     C2       CG1N1    0.360000       12.0110           0
     12497 WT5      883      MECN     N3       NG1T1   -0.460000       14.0070           0
     12498 WT5      884      MECN     C1       CG331   -0.170000       12.0110           0
     12499 WT5      884      MECN     H11      HGA3     0.090000        1.0080           0
     12500 WT5      884      MECN     H12      HGA3     0.090000        1.0080           0
     12501 WT5      884      MECN     H13      HGA3     0.090000        1.0080           0
     12502 WT5      884      MECN     C2       CG1N1    0.360000       12.0110           0
     12503 WT5      884      MECN     N3       NG1T1   -0.460000       14.0070           0
     12504 WT5      892      MECN     C1       CG331   -0.170000       12.0110           0
     12505 WT5      892      MECN     H11      HGA3     0.090000        1.0080           0
     12506 WT5      892      MECN     H12      HGA3     0.090000        1.0080           0
     12507 WT5      892      MECN     H13      HGA3     0.090000        1.0080           0
     12508 WT5      892      MECN     C2       CG1N1    0.360000       12.0110           0
     12509 WT5      892      MECN     N3       NG1T1   -0.460000       14.0070           0
     12510 WT5      895      MECN     C1       CG331   -0.170000       12.0110           0
     12511 WT5      895      MECN     H11      HGA3     0.090000        1.0080           0
     12512 WT5      895      MECN     H12      HGA3     0.090000        1.0080           0
     12513 WT5      895      MECN     H13      HGA3     0.090000        1.0080           0
     12514 WT5      895      MECN     C2       CG1N1    0.360000       12.0110           0
     12515 WT5      895      MECN     N3       NG1T1   -0.460000       14.0070           0
     12516 WT5      897      MECN     C1       CG331   -0.170000       12.0110           0
     12517 WT5      897      MECN     H11      HGA3     0.090000        1.0080           0
     12518 WT5      897      MECN     H12      HGA3     0.090000        1.0080           0
     12519 WT5      897      MECN     H13      HGA3     0.090000        1.0080           0
     12520 WT5      897      MECN     C2       CG1N1    0.360000       12.0110           0
     12521 WT5      897      MECN     N3       NG1T1   -0.460000       14.0070           0
     12522 WT5      898      MECN     C1       CG331   -0.170000       12.0110           0
     12523 WT5      898      MECN     H11      HGA3     0.090000        1.0080           0
     12524 WT5      898      MECN     H12      HGA3     0.090000        1.0080           0
     12525 WT5      898      MECN     H13      HGA3     0.090000        1.0080           0
     12526 WT5      898      MECN     C2       CG1N1    0.360000       12.0110           0
     12527 WT5      898      MECN     N3       NG1T1   -0.460000       14.0070           0
     12528 WT5      899      MECN     C1       CG331   -0.170000       12.0110           0
     12529 WT5      899      MECN     H11      HGA3     0.090000        1.0080           0
     12530 WT5      899      MECN     H12      HGA3     0.090000        1.0080           0
     12531 WT5      899      MECN     H13      HGA3     0.090000        1.0080           0
     12532 WT5      899      MECN     C2       CG1N1    0.360000       12.0110           0
     12533 WT5      899      MECN     N3       NG1T1   -0.460000       14.0070           0
     12534 WT5      901      MECN     C1       CG331   -0.170000       12.0110           0
     12535 WT5      901      MECN     H11      HGA3     0.090000        1.0080           0
     12536 WT5      901      MECN     H12      HGA3     0.090000        1.0080           0
     12537 WT5      901      MECN     H13      HGA3     0.090000        1.0080           0
     12538 WT5      901      MECN     C2       CG1N1    0.360000       12.0110           0
     12539 WT5      901      MECN     N3       NG1T1   -0.460000       14.0070           0
     12540 WT5      903      MECN     C1       CG331   -0.170000       12.0110           0
     12541 WT5      903      MECN     H11      HGA3     0.090000        1.0080           0
     12542 WT5      903      MECN     H12      HGA3     0.090000        1.0080           0
     12543 WT5      903      MECN     H13      HGA3     0.090000        1.0080           0
     12544 WT5      903      MECN     C2       CG1N1    0.360000       12.0110           0
     12545 WT5      903      MECN     N3       NG1T1   -0.460000       14.0070           0
     12546 WT5      904      MECN     C1       CG331   -0.170000       12.0110           0
     12547 WT5      904      MECN     H11      HGA3     0.090000        1.0080           0
     12548 WT5      904      MECN     H12      HGA3     0.090000        1.0080           0
     12549 WT5      904      MECN     H13      HGA3     0.090000        1.0080           0
     12550 WT5      904      MECN     C2       CG1N1    0.360000       12.0110           0
     12551 WT5      904      MECN     N3       NG1T1   -0.460000       14.0070           0
     12552 WT5      907      MECN     C1       CG331   -0.170000       12.0110           0
     12553 WT5      907      MECN     H11      HGA3     0.090000        1.0080           0
     12554 WT5      907      MECN     H12      HGA3     0.090000        1.0080           0
     12555 WT5      907      MECN     H13      HGA3     0.090000        1.0080           0
     12556 WT5      907      MECN     C2       CG1N1    0.360000       12.0110           0
     12557 WT5      907      MECN     N3       NG1T1   -0.460000       14.0070           0
     12558 WT5      908      MECN     C1       CG331   -0.170000       12.0110           0
     12559 WT5      908      MECN     H11      HGA3     0.090000        1.0080           0
     12560 WT5      908      MECN     H12      HGA3     0.090000        1.0080           0
     12561 WT5      908      MECN     H13      HGA3     0.090000        1.0080           0
     12562 WT5      908      MECN     C2       CG1N1    0.360000       12.0110           0
     12563 WT5      908      MECN     N3       NG1T1   -0.460000       14.0070           0
     12564 WT5      912      MECN     C1       CG331   -0.170000       12.0110           0
     12565 WT5      912      MECN     H11      HGA3     0.090000        1.0080           0
     12566 WT5      912      MECN     H12      HGA3     0.090000        1.0080           0
     12567 WT5      912      MECN     H13      HGA3     0.090000        1.0080           0
     12568 WT5      912      MECN     C2       CG1N1    0.360000       12.0110           0
     12569 WT5      912      MECN     N3       NG1T1   -0.460000       14.0070           0
     12570 WT5      914      MECN     C1       CG331   -0.170000       12.0110           0
     12571 WT5      914      MECN     H11      HGA3     0.090000        1.0080           0
     12572 WT5      914      MECN     H12      HGA3     0.090000        1.0080           0
     12573 WT5      914      MECN     H13      HGA3     0.090000        1.0080           0
     12574 WT5      914      MECN     C2       CG1N1    0.360000       12.0110           0
     12575 WT5      914      MECN     N3       NG1T1   -0.460000       14.0070           0
     12576 WT5      916      MECN     C1       CG331   -0.170000       12.0110           0
     12577 WT5      916      MECN     H11      HGA3     0.090000        1.0080           0
     12578 WT5      916      MECN     H12      HGA3     0.090000        1.0080           0
     12579 WT5      916      MECN     H13      HGA3     0.090000        1.0080           0
     12580 WT5      916      MECN     C2       CG1N1    0.360000       12.0110           0
     12581 WT5      916      MECN     N3       NG1T1   -0.460000       14.0070           0
     12582 WT5      918      MECN     C1       CG331   -0.170000       12.0110           0
     12583 WT5      918      MECN     H11      HGA3     0.090000        1.0080           0
     12584 WT5      918      MECN     H12      HGA3     0.090000        1.0080           0
     12585 WT5      918      MECN     H13      HGA3     0.090000        1.0080           0
     12586 WT5      918      MECN     C2       CG1N1    0.360000       12.0110           0
     12587 WT5      918      MECN     N3       NG1T1   -0.460000       14.0070           0
     12588 WT5      919      MECN     C1       CG331   -0.170000       12.0110           0
     12589 WT5      919      MECN     H11      HGA3     0.090000        1.0080           0
     12590 WT5      919      MECN     H12      HGA3     0.090000        1.0080           0
     12591 WT5      919      MECN     H13      HGA3     0.090000        1.0080           0
     12592 WT5      919      MECN     C2       CG1N1    0.360000       12.0110           0
     12593 WT5      919      MECN     N3       NG1T1   -0.460000       14.0070           0
     12594 WT5      922      MECN     C1       CG331   -0.170000       12.0110           0
     12595 WT5      922      MECN     H11      HGA3     0.090000        1.0080           0
     12596 WT5      922      MECN     H12      HGA3     0.090000        1.0080           0
     12597 WT5      922      MECN     H13      HGA3     0.090000        1.0080           0
     12598 WT5      922      MECN     C2       CG1N1    0.360000       12.0110           0
     12599 WT5      922      MECN     N3       NG1T1   -0.460000       14.0070           0
     12600 WT5      927      MECN     C1       CG331   -0.170000       12.0110           0
     12601 WT5      927      MECN     H11      HGA3     0.090000        1.0080           0
     12602 WT5      927      MECN     H12      HGA3     0.090000        1.0080           0
     12603 WT5      927      MECN     H13      HGA3     0.090000        1.0080           0
     12604 WT5      927      MECN     C2       CG1N1    0.360000       12.0110           0
     12605 WT5      927      MECN     N3       NG1T1   -0.460000       14.0070           0
     12606 WT5      929      MECN     C1       CG331   -0.170000       12.0110           0
     12607 WT5      929      MECN     H11      HGA3     0.090000        1.0080           0
     12608 WT5      929      MECN     H12      HGA3     0.090000        1.0080           0
     12609 WT5      929      MECN     H13      HGA3     0.090000        1.0080           0
     12610 WT5      929      MECN     C2       CG1N1    0.360000       12.0110           0
     12611 WT5      929      MECN     N3       NG1T1   -0.460000       14.0070           0
     12612 WT5      930      MECN     C1       CG331   -0.170000       12.0110           0
     12613 WT5      930      MECN     H11      HGA3     0.090000        1.0080           0
     12614 WT5      930      MECN     H12      HGA3     0.090000        1.0080           0
     12615 WT5      930      MECN     H13      HGA3     0.090000        1.0080           0
     12616 WT5      930      MECN     C2       CG1N1    0.360000       12.0110           0
     12617 WT5      930      MECN     N3       NG1T1   -0.460000       14.0070           0
     12618 WT5      932      MECN     C1       CG331   -0.170000       12.0110           0
     12619 WT5      932      MECN     H11      HGA3     0.090000        1.0080           0
     12620 WT5      932      MECN     H12      HGA3     0.090000        1.0080           0
     12621 WT5      932      MECN     H13      HGA3     0.090000        1.0080           0
     12622 WT5      932      MECN     C2       CG1N1    0.360000       12.0110           0
     12623 WT5      932      MECN     N3       NG1T1   -0.460000       14.0070           0
     12624 WT5      934      MECN     C1       CG331   -0.170000       12.0110           0
     12625 WT5      934      MECN     H11      HGA3     0.090000        1.0080           0
     12626 WT5      934      MECN     H12      HGA3     0.090000        1.0080           0
     12627 WT5      934      MECN     H13      HGA3     0.090000        1.0080           0
     12628 WT5      934      MECN     C2       CG1N1    0.360000       12.0110           0
     12629 WT5      934      MECN     N3       NG1T1   -0.460000       14.0070           0
     12630 WT5      935      MECN     C1       CG331   -0.170000       12.0110           0
     12631 WT5      935      MECN     H11      HGA3     0.090000        1.0080           0
     12632 WT5      935      MECN     H12      HGA3     0.090000        1.0080           0
     12633 WT5      935      MECN     H13      HGA3     0.090000        1.0080           0
     12634 WT5      935      MECN     C2       CG1N1    0.360000       12.0110           0
     12635 WT5      935      MECN     N3       NG1T1   -0.460000       14.0070           0
     12636 WT5      937      MECN     C1       CG331   -0.170000       12.0110           0
     12637 WT5      937      MECN     H11      HGA3     0.090000        1.0080           0
     12638 WT5      937      MECN     H12      HGA3     0.090000        1.0080           0
     12639 WT5      937      MECN     H13      HGA3     0.090000        1.0080           0
     12640 WT5      937      MECN     C2       CG1N1    0.360000       12.0110           0
     12641 WT5      937      MECN     N3       NG1T1   -0.460000       14.0070           0
     12642 WT5      938      MECN     C1       CG331   -0.170000       12.0110           0
     12643 WT5      938      MECN     H11      HGA3     0.090000        1.0080           0
     12644 WT5      938      MECN     H12      HGA3     0.090000        1.0080           0
     12645 WT5      938      MECN     H13      HGA3     0.090000        1.0080           0
     12646 WT5      938      MECN     C2       CG1N1    0.360000       12.0110           0
     12647 WT5      938      MECN     N3       NG1T1   -0.460000       14.0070           0
     12648 WT5      939      MECN     C1       CG331   -0.170000       12.0110           0
     12649 WT5      939      MECN     H11      HGA3     0.090000        1.0080           0
     12650 WT5      939      MECN     H12      HGA3     0.090000        1.0080           0
     12651 WT5      939      MECN     H13      HGA3     0.090000        1.0080           0
     12652 WT5      939      MECN     C2       CG1N1    0.360000       12.0110           0
     12653 WT5      939      MECN     N3       NG1T1   -0.460000       14.0070           0
     12654 WT5      941      MECN     C1       CG331   -0.170000       12.0110           0
     12655 WT5      941      MECN     H11      HGA3     0.090000        1.0080           0
     12656 WT5      941      MECN     H12      HGA3     0.090000        1.0080           0
     12657 WT5      941      MECN     H13      HGA3     0.090000        1.0080           0
     12658 WT5      941      MECN     C2       CG1N1    0.360000       12.0110           0
     12659 WT5      941      MECN     N3       NG1T1   -0.460000       14.0070           0
     12660 WT5      942      MECN     C1       CG331   -0.170000       12.0110           0
     12661 WT5      942      MECN     H11      HGA3     0.090000        1.0080           0
     12662 WT5      942      MECN     H12      HGA3     0.090000        1.0080           0
     12663 WT5      942      MECN     H13      HGA3     0.090000        1.0080           0
     12664 WT5      942      MECN     C2       CG1N1    0.360000       12.0110           0
     12665 WT5      942      MECN     N3       NG1T1   -0.460000       14.0070           0
     12666 WT5      947      MECN     C1       CG331   -0.170000       12.0110           0
     12667 WT5      947      MECN     H11      HGA3     0.090000        1.0080           0
     12668 WT5      947      MECN     H12      HGA3     0.090000        1.0080           0
     12669 WT5      947      MECN     H13      HGA3     0.090000        1.0080           0
     12670 WT5      947      MECN     C2       CG1N1    0.360000       12.0110           0
     12671 WT5      947      MECN     N3       NG1T1   -0.460000       14.0070           0
     12672 WT5      948      MECN     C1       CG331   -0.170000       12.0110           0
     12673 WT5      948      MECN     H11      HGA3     0.090000        1.0080           0
     12674 WT5      948      MECN     H12      HGA3     0.090000        1.0080           0
     12675 WT5      948      MECN     H13      HGA3     0.090000        1.0080           0
     12676 WT5      948      MECN     C2       CG1N1    0.360000       12.0110           0
     12677 WT5      948      MECN     N3       NG1T1   -0.460000       14.0070           0
     12678 WT5      949      MECN     C1       CG331   -0.170000       12.0110           0
     12679 WT5      949      MECN     H11      HGA3     0.090000        1.0080           0
     12680 WT5      949      MECN     H12      HGA3     0.090000        1.0080           0
     12681 WT5      949      MECN     H13      HGA3     0.090000        1.0080           0
     12682 WT5      949      MECN     C2       CG1N1    0.360000       12.0110           0
     12683 WT5      949      MECN     N3       NG1T1   -0.460000       14.0070           0
     12684 WT5      950      MECN     C1       CG331   -0.170000       12.0110           0
     12685 WT5      950      MECN     H11      HGA3     0.090000        1.0080           0
     12686 WT5      950      MECN     H12      HGA3     0.090000        1.0080           0
     12687 WT5      950      MECN     H13      HGA3     0.090000        1.0080           0
     12688 WT5      950      MECN     C2       CG1N1    0.360000       12.0110           0
     12689 WT5      950      MECN     N3       NG1T1   -0.460000       14.0070           0
     12690 WT5      953      MECN     C1       CG331   -0.170000       12.0110           0
     12691 WT5      953      MECN     H11      HGA3     0.090000        1.0080           0
     12692 WT5      953      MECN     H12      HGA3     0.090000        1.0080           0
     12693 WT5      953      MECN     H13      HGA3     0.090000        1.0080           0
     12694 WT5      953      MECN     C2       CG1N1    0.360000       12.0110           0
     12695 WT5      953      MECN     N3       NG1T1   -0.460000       14.0070           0
     12696 WT5      957      MECN     C1       CG331   -0.170000       12.0110           0
     12697 WT5      957      MECN     H11      HGA3     0.090000        1.0080           0
     12698 WT5      957      MECN     H12      HGA3     0.090000        1.0080           0
     12699 WT5      957      MECN     H13      HGA3     0.090000        1.0080           0
     12700 WT5      957      MECN     C2       CG1N1    0.360000       12.0110           0
     12701 WT5      957      MECN     N3       NG1T1   -0.460000       14.0070           0
     12702 WT5      958      MECN     C1       CG331   -0.170000       12.0110           0
     12703 WT5      958      MECN     H11      HGA3     0.090000        1.0080           0
     12704 WT5      958      MECN     H12      HGA3     0.090000        1.0080           0
     12705 WT5      958      MECN     H13      HGA3     0.090000        1.0080           0
     12706 WT5      958      MECN     C2       CG1N1    0.360000       12.0110           0
     12707 WT5      958      MECN     N3       NG1T1   -0.460000       14.0070           0
     12708 WT5      959      MECN     C1       CG331   -0.170000       12.0110           0
     12709 WT5      959      MECN     H11      HGA3     0.090000        1.0080           0
     12710 WT5      959      MECN     H12      HGA3     0.090000        1.0080           0
     12711 WT5      959      MECN     H13      HGA3     0.090000        1.0080           0
     12712 WT5      959      MECN     C2       CG1N1    0.360000       12.0110           0
     12713 WT5      959      MECN     N3       NG1T1   -0.460000       14.0070           0
     12714 WT5      960      MECN     C1       CG331   -0.170000       12.0110           0
     12715 WT5      960      MECN     H11      HGA3     0.090000        1.0080           0
     12716 WT5      960      MECN     H12      HGA3     0.090000        1.0080           0
     12717 WT5      960      MECN     H13      HGA3     0.090000        1.0080           0
     12718 WT5      960      MECN     C2       CG1N1    0.360000       12.0110           0
     12719 WT5      960      MECN     N3       NG1T1   -0.460000       14.0070           0
     12720 WT5      963      MECN     C1       CG331   -0.170000       12.0110           0
     12721 WT5      963      MECN     H11      HGA3     0.090000        1.0080           0
     12722 WT5      963      MECN     H12      HGA3     0.090000        1.0080           0
     12723 WT5      963      MECN     H13      HGA3     0.090000        1.0080           0
     12724 WT5      963      MECN     C2       CG1N1    0.360000       12.0110           0
     12725 WT5      963      MECN     N3       NG1T1   -0.460000       14.0070           0
     12726 WT5      964      MECN     C1       CG331   -0.170000       12.0110           0
     12727 WT5      964      MECN     H11      HGA3     0.090000        1.0080           0
     12728 WT5      964      MECN     H12      HGA3     0.090000        1.0080           0
     12729 WT5      964      MECN     H13      HGA3     0.090000        1.0080           0
     12730 WT5      964      MECN     C2       CG1N1    0.360000       12.0110           0
     12731 WT5      964      MECN     N3       NG1T1   -0.460000       14.0070           0
     12732 WT5      967      MECN     C1       CG331   -0.170000       12.0110           0
     12733 WT5      967      MECN     H11      HGA3     0.090000        1.0080           0
     12734 WT5      967      MECN     H12      HGA3     0.090000        1.0080           0
     12735 WT5      967      MECN     H13      HGA3     0.090000        1.0080           0
     12736 WT5      967      MECN     C2       CG1N1    0.360000       12.0110           0
     12737 WT5      967      MECN     N3       NG1T1   -0.460000       14.0070           0
     12738 WT5      968      MECN     C1       CG331   -0.170000       12.0110           0
     12739 WT5      968      MECN     H11      HGA3     0.090000        1.0080           0
     12740 WT5      968      MECN     H12      HGA3     0.090000        1.0080           0
     12741 WT5      968      MECN     H13      HGA3     0.090000        1.0080           0
     12742 WT5      968      MECN     C2       CG1N1    0.360000       12.0110           0
     12743 WT5      968      MECN     N3       NG1T1   -0.460000       14.0070           0
     12744 WT5      969      MECN     C1       CG331   -0.170000       12.0110           0
     12745 WT5      969      MECN     H11      HGA3     0.090000        1.0080           0
     12746 WT5      969      MECN     H12      HGA3     0.090000        1.0080           0
     12747 WT5      969      MECN     H13      HGA3     0.090000        1.0080           0
     12748 WT5      969      MECN     C2       CG1N1    0.360000       12.0110           0
     12749 WT5      969      MECN     N3       NG1T1   -0.460000       14.0070           0
     12750 WT5      970      MECN     C1       CG331   -0.170000       12.0110           0
     12751 WT5      970      MECN     H11      HGA3     0.090000        1.0080           0
     12752 WT5      970      MECN     H12      HGA3     0.090000        1.0080           0
     12753 WT5      970      MECN     H13      HGA3     0.090000        1.0080           0
     12754 WT5      970      MECN     C2       CG1N1    0.360000       12.0110           0
     12755 WT5      970      MECN     N3       NG1T1   -0.460000       14.0070           0
     12756 WT5      971      MECN     C1       CG331   -0.170000       12.0110           0
     12757 WT5      971      MECN     H11      HGA3     0.090000        1.0080           0
     12758 WT5      971      MECN     H12      HGA3     0.090000        1.0080           0
     12759 WT5      971      MECN     H13      HGA3     0.090000        1.0080           0
     12760 WT5      971      MECN     C2       CG1N1    0.360000       12.0110           0
     12761 WT5      971      MECN     N3       NG1T1   -0.460000       14.0070           0
     12762 WT5      974      MECN     C1       CG331   -0.170000       12.0110           0
     12763 WT5      974      MECN     H11      HGA3     0.090000        1.0080           0
     12764 WT5      974      MECN     H12      HGA3     0.090000        1.0080           0
     12765 WT5      974      MECN     H13      HGA3     0.090000        1.0080           0
     12766 WT5      974      MECN     C2       CG1N1    0.360000       12.0110           0
     12767 WT5      974      MECN     N3       NG1T1   -0.460000       14.0070           0
     12768 WT5      975      MECN     C1       CG331   -0.170000       12.0110           0
     12769 WT5      975      MECN     H11      HGA3     0.090000        1.0080           0
     12770 WT5      975      MECN     H12      HGA3     0.090000        1.0080           0
     12771 WT5      975      MECN     H13      HGA3     0.090000        1.0080           0
     12772 WT5      975      MECN     C2       CG1N1    0.360000       12.0110           0
     12773 WT5      975      MECN     N3       NG1T1   -0.460000       14.0070           0
     12774 WT5      982      MECN     C1       CG331   -0.170000       12.0110           0
     12775 WT5      982      MECN     H11      HGA3     0.090000        1.0080           0
     12776 WT5      982      MECN     H12      HGA3     0.090000        1.0080           0
     12777 WT5      982      MECN     H13      HGA3     0.090000        1.0080           0
     12778 WT5      982      MECN     C2       CG1N1    0.360000       12.0110           0
     12779 WT5      982      MECN     N3       NG1T1   -0.460000       14.0070           0
     12780 WT5      983      MECN     C1       CG331   -0.170000       12.0110           0
     12781 WT5      983      MECN     H11      HGA3     0.090000        1.0080           0
     12782 WT5      983      MECN     H12      HGA3     0.090000        1.0080           0
     12783 WT5      983      MECN     H13      HGA3     0.090000        1.0080           0
     12784 WT5      983      MECN     C2       CG1N1    0.360000       12.0110           0
     12785 WT5      983      MECN     N3       NG1T1   -0.460000       14.0070           0
     12786 WT5      986      MECN     C1       CG331   -0.170000       12.0110           0
     12787 WT5      986      MECN     H11      HGA3     0.090000        1.0080           0
     12788 WT5      986      MECN     H12      HGA3     0.090000        1.0080           0
     12789 WT5      986      MECN     H13      HGA3     0.090000        1.0080           0
     12790 WT5      986      MECN     C2       CG1N1    0.360000       12.0110           0
     12791 WT5      986      MECN     N3       NG1T1   -0.460000       14.0070           0
     12792 WT5      987      MECN     C1       CG331   -0.170000       12.0110           0
     12793 WT5      987      MECN     H11      HGA3     0.090000        1.0080           0
     12794 WT5      987      MECN     H12      HGA3     0.090000        1.0080           0
     12795 WT5      987      MECN     H13      HGA3     0.090000        1.0080           0
     12796 WT5      987      MECN     C2       CG1N1    0.360000       12.0110           0
     12797 WT5      987      MECN     N3       NG1T1   -0.460000       14.0070           0
     12798 WT5      989      MECN     C1       CG331   -0.170000       12.0110           0
     12799 WT5      989      MECN     H11      HGA3     0.090000        1.0080           0
     12800 WT5      989      MECN     H12      HGA3     0.090000        1.0080           0
     12801 WT5      989      MECN     H13      HGA3     0.090000        1.0080           0
     12802 WT5      989      MECN     C2       CG1N1    0.360000       12.0110           0
     12803 WT5      989      MECN     N3       NG1T1   -0.460000       14.0070           0
     12804 WT5      990      MECN     C1       CG331   -0.170000       12.0110           0
     12805 WT5      990      MECN     H11      HGA3     0.090000        1.0080           0
     12806 WT5      990      MECN     H12      HGA3     0.090000        1.0080           0
     12807 WT5      990      MECN     H13      HGA3     0.090000        1.0080           0
     12808 WT5      990      MECN     C2       CG1N1    0.360000       12.0110           0
     12809 WT5      990      MECN     N3       NG1T1   -0.460000       14.0070           0
     12810 WT5      994      MECN     C1       CG331   -0.170000       12.0110           0
     12811 WT5      994      MECN     H11      HGA3     0.090000        1.0080           0
     12812 WT5      994      MECN     H12      HGA3     0.090000        1.0080           0
     12813 WT5      994      MECN     H13      HGA3     0.090000        1.0080           0
     12814 WT5      994      MECN     C2       CG1N1    0.360000       12.0110           0
     12815 WT5      994      MECN     N3       NG1T1   -0.460000       14.0070           0
     12816 WT5      995      MECN     C1       CG331   -0.170000       12.0110           0
     12817 WT5      995      MECN     H11      HGA3     0.090000        1.0080           0
     12818 WT5      995      MECN     H12      HGA3     0.090000        1.0080           0
     12819 WT5      995      MECN     H13      HGA3     0.090000        1.0080           0
     12820 WT5      995      MECN     C2       CG1N1    0.360000       12.0110           0
     12821 WT5      995      MECN     N3       NG1T1   -0.460000       14.0070           0
     12822 WT5      997      MECN     C1       CG331   -0.170000       12.0110           0
     12823 WT5      997      MECN     H11      HGA3     0.090000        1.0080           0
     12824 WT5      997      MECN     H12      HGA3     0.090000        1.0080           0
     12825 WT5      997      MECN     H13      HGA3     0.090000        1.0080           0
     12826 WT5      997      MECN     C2       CG1N1    0.360000       12.0110           0
     12827 WT5      997      MECN     N3       NG1T1   -0.460000       14.0070           0
     12828 WT5      999      MECN     C1       CG331   -0.170000       12.0110           0
     12829 WT5      999      MECN     H11      HGA3     0.090000        1.0080           0
     12830 WT5      999      MECN     H12      HGA3     0.090000        1.0080           0
     12831 WT5      999      MECN     H13      HGA3     0.090000        1.0080           0
     12832 WT5      999      MECN     C2       CG1N1    0.360000       12.0110           0
     12833 WT5      999      MECN     N3       NG1T1   -0.460000       14.0070           0
     12834 WT5      1001     MECN     C1       CG331   -0.170000       12.0110           0
     12835 WT5      1001     MECN     H11      HGA3     0.090000        1.0080           0
     12836 WT5      1001     MECN     H12      HGA3     0.090000        1.0080           0
     12837 WT5      1001     MECN     H13      HGA3     0.090000        1.0080           0
     12838 WT5      1001     MECN     C2       CG1N1    0.360000       12.0110           0
     12839 WT5      1001     MECN     N3       NG1T1   -0.460000       14.0070           0
     12840 WT5      1002     MECN     C1       CG331   -0.170000       12.0110           0
     12841 WT5      1002     MECN     H11      HGA3     0.090000        1.0080           0
     12842 WT5      1002     MECN     H12      HGA3     0.090000        1.0080           0
     12843 WT5      1002     MECN     H13      HGA3     0.090000        1.0080           0
     12844 WT5      1002     MECN     C2       CG1N1    0.360000       12.0110           0
     12845 WT5      1002     MECN     N3       NG1T1   -0.460000       14.0070           0
     12846 WT5      1004     MECN     C1       CG331   -0.170000       12.0110           0
     12847 WT5      1004     MECN     H11      HGA3     0.090000        1.0080           0
     12848 WT5      1004     MECN     H12      HGA3     0.090000        1.0080           0
     12849 WT5      1004     MECN     H13      HGA3     0.090000        1.0080           0
     12850 WT5      1004     MECN     C2       CG1N1    0.360000       12.0110           0
     12851 WT5      1004     MECN     N3       NG1T1   -0.460000       14.0070           0
     12852 WT5      1005     MECN     C1       CG331   -0.170000       12.0110           0
     12853 WT5      1005     MECN     H11      HGA3     0.090000        1.0080           0
     12854 WT5      1005     MECN     H12      HGA3     0.090000        1.0080           0
     12855 WT5      1005     MECN     H13      HGA3     0.090000        1.0080           0
     12856 WT5      1005     MECN     C2       CG1N1    0.360000       12.0110           0
     12857 WT5      1005     MECN     N3       NG1T1   -0.460000       14.0070           0
     12858 WT5      1010     MECN     C1       CG331   -0.170000       12.0110           0
     12859 WT5      1010     MECN     H11      HGA3     0.090000        1.0080           0
     12860 WT5      1010     MECN     H12      HGA3     0.090000        1.0080           0
     12861 WT5      1010     MECN     H13      HGA3     0.090000        1.0080           0
     12862 WT5      1010     MECN     C2       CG1N1    0.360000       12.0110           0
     12863 WT5      1010     MECN     N3       NG1T1   -0.460000       14.0070           0
     12864 WT5      1015     MECN     C1       CG331   -0.170000       12.0110           0
     12865 WT5      1015     MECN     H11      HGA3     0.090000        1.0080           0
     12866 WT5      1015     MECN     H12      HGA3     0.090000        1.0080           0
     12867 WT5      1015     MECN     H13      HGA3     0.090000        1.0080           0
     12868 WT5      1015     MECN     C2       CG1N1    0.360000       12.0110           0
     12869 WT5      1015     MECN     N3       NG1T1   -0.460000       14.0070           0
     12870 WT5      1016     MECN     C1       CG331   -0.170000       12.0110           0
     12871 WT5      1016     MECN     H11      HGA3     0.090000        1.0080           0
     12872 WT5      1016     MECN     H12      HGA3     0.090000        1.0080           0
     12873 WT5      1016     MECN     H13      HGA3     0.090000        1.0080           0
     12874 WT5      1016     MECN     C2       CG1N1    0.360000       12.0110           0
     12875 WT5      1016     MECN     N3       NG1T1   -0.460000       14.0070           0
     12876 WT5      1019     MECN     C1       CG331   -0.170000       12.0110           0
     12877 WT5      1019     MECN     H11      HGA3     0.090000        1.0080           0
     12878 WT5      1019     MECN     H12      HGA3     0.090000        1.0080           0
     12879 WT5      1019     MECN     H13      HGA3     0.090000        1.0080           0
     12880 WT5      1019     MECN     C2       CG1N1    0.360000       12.0110           0
     12881 WT5      1019     MECN     N3       NG1T1   -0.460000       14.0070           0
     12882 WT5      1020     MECN     C1       CG331   -0.170000       12.0110           0
     12883 WT5      1020     MECN     H11      HGA3     0.090000        1.0080           0
     12884 WT5      1020     MECN     H12      HGA3     0.090000        1.0080           0
     12885 WT5      1020     MECN     H13      HGA3     0.090000        1.0080           0
     12886 WT5      1020     MECN     C2       CG1N1    0.360000       12.0110           0
     12887 WT5      1020     MECN     N3       NG1T1   -0.460000       14.0070           0
     12888 WT5      1022     MECN     C1       CG331   -0.170000       12.0110           0
     12889 WT5      1022     MECN     H11      HGA3     0.090000        1.0080           0
     12890 WT5      1022     MECN     H12      HGA3     0.090000        1.0080           0
     12891 WT5      1022     MECN     H13      HGA3     0.090000        1.0080           0
     12892 WT5      1022     MECN     C2       CG1N1    0.360000       12.0110           0
     12893 WT5      1022     MECN     N3       NG1T1   -0.460000       14.0070           0
     12894 WT5      1023     MECN     C1       CG331   -0.170000       12.0110           0
     12895 WT5      1023     MECN     H11      HGA3     0.090000        1.0080           0
     12896 WT5      1023     MECN     H12      HGA3     0.090000        1.0080           0
     12897 WT5      1023     MECN     H13      HGA3     0.090000        1.0080           0
     12898 WT5      1023     MECN     C2       CG1N1    0.360000       12.0110           0
     12899 WT5      1023     MECN     N3       NG1T1   -0.460000       14.0070           0
     12900 WT5      1024     MECN     C1       CG331   -0.170000       12.0110           0
     12901 WT5      1024     MECN     H11      HGA3     0.090000        1.0080           0
     12902 WT5      1024     MECN     H12      HGA3     0.090000        1.0080           0
     12903 WT5      1024     MECN     H13      HGA3     0.090000        1.0080           0
     12904 WT5      1024     MECN     C2       CG1N1    0.360000       12.0110           0
     12905 WT5      1024     MECN     N3       NG1T1   -0.460000       14.0070           0
     12906 WT5      1025     MECN     C1       CG331   -0.170000       12.0110           0
     12907 WT5      1025     MECN     H11      HGA3     0.090000        1.0080           0
     12908 WT5      1025     MECN     H12      HGA3     0.090000        1.0080           0
     12909 WT5      1025     MECN     H13      HGA3     0.090000        1.0080           0
     12910 WT5      1025     MECN     C2       CG1N1    0.360000       12.0110           0
     12911 WT5      1025     MECN     N3       NG1T1   -0.460000       14.0070           0
     12912 WT5      1026     MECN     C1       CG331   -0.170000       12.0110           0
     12913 WT5      1026     MECN     H11      HGA3     0.090000        1.0080           0
     12914 WT5      1026     MECN     H12      HGA3     0.090000        1.0080           0
     12915 WT5      1026     MECN     H13      HGA3     0.090000        1.0080           0
     12916 WT5      1026     MECN     C2       CG1N1    0.360000       12.0110           0
     12917 WT5      1026     MECN     N3       NG1T1   -0.460000       14.0070           0
     12918 WT5      1027     MECN     C1       CG331   -0.170000       12.0110           0
     12919 WT5      1027     MECN     H11      HGA3     0.090000        1.0080           0
     12920 WT5      1027     MECN     H12      HGA3     0.090000        1.0080           0
     12921 WT5      1027     MECN     H13      HGA3     0.090000        1.0080           0
     12922 WT5      1027     MECN     C2       CG1N1    0.360000       12.0110           0
     12923 WT5      1027     MECN     N3       NG1T1   -0.460000       14.0070           0
     12924 WT5      1030     MECN     C1       CG331   -0.170000       12.0110           0
     12925 WT5      1030     MECN     H11      HGA3     0.090000        1.0080           0
     12926 WT5      1030     MECN     H12      HGA3     0.090000        1.0080           0
     12927 WT5      1030     MECN     H13      HGA3     0.090000        1.0080           0
     12928 WT5      1030     MECN     C2       CG1N1    0.360000       12.0110           0
     12929 WT5      1030     MECN     N3       NG1T1   -0.460000       14.0070           0
     12930 WT5      1036     MECN     C1       CG331   -0.170000       12.0110           0
     12931 WT5      1036     MECN     H11      HGA3     0.090000        1.0080           0
     12932 WT5      1036     MECN     H12      HGA3     0.090000        1.0080           0
     12933 WT5      1036     MECN     H13      HGA3     0.090000        1.0080           0
     12934 WT5      1036     MECN     C2       CG1N1    0.360000       12.0110           0
     12935 WT5      1036     MECN     N3       NG1T1   -0.460000       14.0070           0
     12936 WT5      1037     MECN     C1       CG331   -0.170000       12.0110           0
     12937 WT5      1037     MECN     H11      HGA3     0.090000        1.0080           0
     12938 WT5      1037     MECN     H12      HGA3     0.090000        1.0080           0
     12939 WT5      1037     MECN     H13      HGA3     0.090000        1.0080           0
     12940 WT5      1037     MECN     C2       CG1N1    0.360000       12.0110           0
     12941 WT5      1037     MECN     N3       NG1T1   -0.460000       14.0070           0
     12942 WT5      1038     MECN     C1       CG331   -0.170000       12.0110           0
     12943 WT5      1038     MECN     H11      HGA3     0.090000        1.0080           0
     12944 WT5      1038     MECN     H12      HGA3     0.090000        1.0080           0
     12945 WT5      1038     MECN     H13      HGA3     0.090000        1.0080           0
     12946 WT5      1038     MECN     C2       CG1N1    0.360000       12.0110           0
     12947 WT5      1038     MECN     N3       NG1T1   -0.460000       14.0070           0
     12948 WT5      1045     MECN     C1       CG331   -0.170000       12.0110           0
     12949 WT5      1045     MECN     H11      HGA3     0.090000        1.0080           0
     12950 WT5      1045     MECN     H12      HGA3     0.090000        1.0080           0
     12951 WT5      1045     MECN     H13      HGA3     0.090000        1.0080           0
     12952 WT5      1045     MECN     C2       CG1N1    0.360000       12.0110           0
     12953 WT5      1045     MECN     N3       NG1T1   -0.460000       14.0070           0
     12954 WT5      1046     MECN     C1       CG331   -0.170000       12.0110           0
     12955 WT5      1046     MECN     H11      HGA3     0.090000        1.0080           0
     12956 WT5      1046     MECN     H12      HGA3     0.090000        1.0080           0
     12957 WT5      1046     MECN     H13      HGA3     0.090000        1.0080           0
     12958 WT5      1046     MECN     C2       CG1N1    0.360000       12.0110           0
     12959 WT5      1046     MECN     N3       NG1T1   -0.460000       14.0070           0
     12960 WT5      1047     MECN     C1       CG331   -0.170000       12.0110           0
     12961 WT5      1047     MECN     H11      HGA3     0.090000        1.0080           0
     12962 WT5      1047     MECN     H12      HGA3     0.090000        1.0080           0
     12963 WT5      1047     MECN     H13      HGA3     0.090000        1.0080           0
     12964 WT5      1047     MECN     C2       CG1N1    0.360000       12.0110           0
     12965 WT5      1047     MECN     N3       NG1T1   -0.460000       14.0070           0
     12966 WT5      1048     MECN     C1       CG331   -0.170000       12.0110           0
     12967 WT5      1048     MECN     H11      HGA3     0.090000        1.0080           0
     12968 WT5      1048     MECN     H12      HGA3     0.090000        1.0080           0
     12969 WT5      1048     MECN     H13      HGA3     0.090000        1.0080           0
     12970 WT5      1048     MECN     C2       CG1N1    0.360000       12.0110           0
     12971 WT5      1048     MECN     N3       NG1T1   -0.460000       14.0070           0
     12972 WT5      1050     MECN     C1       CG331   -0.170000       12.0110           0
     12973 WT5      1050     MECN     H11      HGA3     0.090000        1.0080           0
     12974 WT5      1050     MECN     H12      HGA3     0.090000        1.0080           0
     12975 WT5      1050     MECN     H13      HGA3     0.090000        1.0080           0
     12976 WT5      1050     MECN     C2       CG1N1    0.360000       12.0110           0
     12977 WT5      1050     MECN     N3       NG1T1   -0.460000       14.0070           0
     12978 WT5      1053     MECN     C1       CG331   -0.170000       12.0110           0
     12979 WT5      1053     MECN     H11      HGA3     0.090000        1.0080           0
     12980 WT5      1053     MECN     H12      HGA3     0.090000        1.0080           0
     12981 WT5      1053     MECN     H13      HGA3     0.090000        1.0080           0
     12982 WT5      1053     MECN     C2       CG1N1    0.360000       12.0110           0
     12983 WT5      1053     MECN     N3       NG1T1   -0.460000       14.0070           0
     12984 WT5      1056     MECN     C1       CG331   -0.170000       12.0110           0
     12985 WT5      1056     MECN     H11      HGA3     0.090000        1.0080           0
     12986 WT5      1056     MECN     H12      HGA3     0.090000        1.0080           0
     12987 WT5      1056     MECN     H13      HGA3     0.090000        1.0080           0
     12988 WT5      1056     MECN     C2       CG1N1    0.360000       12.0110           0
     12989 WT5      1056     MECN     N3       NG1T1   -0.460000       14.0070           0
     12990 WT5      1060     MECN     C1       CG331   -0.170000       12.0110           0
     12991 WT5      1060     MECN     H11      HGA3     0.090000        1.0080           0
     12992 WT5      1060     MECN     H12      HGA3     0.090000        1.0080           0
     12993 WT5      1060     MECN     H13      HGA3     0.090000        1.0080           0
     12994 WT5      1060     MECN     C2       CG1N1    0.360000       12.0110           0
     12995 WT5      1060     MECN     N3       NG1T1   -0.460000       14.0070           0
     12996 WT5      1062     MECN     C1       CG331   -0.170000       12.0110           0
     12997 WT5      1062     MECN     H11      HGA3     0.090000        1.0080           0
     12998 WT5      1062     MECN     H12      HGA3     0.090000        1.0080           0
     12999 WT5      1062     MECN     H13      HGA3     0.090000        1.0080           0
     13000 WT5      1062     MECN     C2       CG1N1    0.360000       12.0110           0
     13001 WT5      1062     MECN     N3       NG1T1   -0.460000       14.0070           0
     13002 WT5      1065     MECN     C1       CG331   -0.170000       12.0110           0
     13003 WT5      1065     MECN     H11      HGA3     0.090000        1.0080           0
     13004 WT5      1065     MECN     H12      HGA3     0.090000        1.0080           0
     13005 WT5      1065     MECN     H13      HGA3     0.090000        1.0080           0
     13006 WT5      1065     MECN     C2       CG1N1    0.360000       12.0110           0
     13007 WT5      1065     MECN     N3       NG1T1   -0.460000       14.0070           0
     13008 WT5      1066     MECN     C1       CG331   -0.170000       12.0110           0
     13009 WT5      1066     MECN     H11      HGA3     0.090000        1.0080           0
     13010 WT5      1066     MECN     H12      HGA3     0.090000        1.0080           0
     13011 WT5      1066     MECN     H13      HGA3     0.090000        1.0080           0
     13012 WT5      1066     MECN     C2       CG1N1    0.360000       12.0110           0
     13013 WT5      1066     MECN     N3       NG1T1   -0.460000       14.0070           0
     13014 WT5      1068     MECN     C1       CG331   -0.170000       12.0110           0
     13015 WT5      1068     MECN     H11      HGA3     0.090000        1.0080           0
     13016 WT5      1068     MECN     H12      HGA3     0.090000        1.0080           0
     13017 WT5      1068     MECN     H13      HGA3     0.090000        1.0080           0
     13018 WT5      1068     MECN     C2       CG1N1    0.360000       12.0110           0
     13019 WT5      1068     MECN     N3       NG1T1   -0.460000       14.0070           0
     13020 WT5      1069     MECN     C1       CG331   -0.170000       12.0110           0
     13021 WT5      1069     MECN     H11      HGA3     0.090000        1.0080           0
     13022 WT5      1069     MECN     H12      HGA3     0.090000        1.0080           0
     13023 WT5      1069     MECN     H13      HGA3     0.090000        1.0080           0
     13024 WT5      1069     MECN     C2       CG1N1    0.360000       12.0110           0
     13025 WT5      1069     MECN     N3       NG1T1   -0.460000       14.0070           0
     13026 WT5      1073     MECN     C1       CG331   -0.170000       12.0110           0
     13027 WT5      1073     MECN     H11      HGA3     0.090000        1.0080           0
     13028 WT5      1073     MECN     H12      HGA3     0.090000        1.0080           0
     13029 WT5      1073     MECN     H13      HGA3     0.090000        1.0080           0
     13030 WT5      1073     MECN     C2       CG1N1    0.360000       12.0110           0
     13031 WT5      1073     MECN     N3       NG1T1   -0.460000       14.0070           0
     13032 WT5      1077     MECN     C1       CG331   -0.170000       12.0110           0
     13033 WT5      1077     MECN     H11      HGA3     0.090000        1.0080           0
     13034 WT5      1077     MECN     H12      HGA3     0.090000        1.0080           0
     13035 WT5      1077     MECN     H13      HGA3     0.090000        1.0080           0
     13036 WT5      1077     MECN     C2       CG1N1    0.360000       12.0110           0
     13037 WT5      1077     MECN     N3       NG1T1   -0.460000       14.0070           0
     13038 WT5      1078     MECN     C1       CG331   -0.170000       12.0110           0
     13039 WT5      1078     MECN     H11      HGA3     0.090000        1.0080           0
     13040 WT5      1078     MECN     H12      HGA3     0.090000        1.0080           0
     13041 WT5      1078     MECN     H13      HGA3     0.090000        1.0080           0
     13042 WT5      1078     MECN     C2       CG1N1    0.360000       12.0110           0
     13043 WT5      1078     MECN     N3       NG1T1   -0.460000       14.0070           0
     13044 WT5      1080     MECN     C1       CG331   -0.170000       12.0110           0
     13045 WT5      1080     MECN     H11      HGA3     0.090000        1.0080           0
     13046 WT5      1080     MECN     H12      HGA3     0.090000        1.0080           0
     13047 WT5      1080     MECN     H13      HGA3     0.090000        1.0080           0
     13048 WT5      1080     MECN     C2       CG1N1    0.360000       12.0110           0
     13049 WT5      1080     MECN     N3       NG1T1   -0.460000       14.0070           0
     13050 WT5      1081     MECN     C1       CG331   -0.170000       12.0110           0
     13051 WT5      1081     MECN     H11      HGA3     0.090000        1.0080           0
     13052 WT5      1081     MECN     H12      HGA3     0.090000        1.0080           0
     13053 WT5      1081     MECN     H13      HGA3     0.090000        1.0080           0
     13054 WT5      1081     MECN     C2       CG1N1    0.360000       12.0110           0
     13055 WT5      1081     MECN     N3       NG1T1   -0.460000       14.0070           0
     13056 WT5      1085     MECN     C1       CG331   -0.170000       12.0110           0
     13057 WT5      1085     MECN     H11      HGA3     0.090000        1.0080           0
     13058 WT5      1085     MECN     H12      HGA3     0.090000        1.0080           0
     13059 WT5      1085     MECN     H13      HGA3     0.090000        1.0080           0
     13060 WT5      1085     MECN     C2       CG1N1    0.360000       12.0110           0
     13061 WT5      1085     MECN     N3       NG1T1   -0.460000       14.0070           0
     13062 WT5      1088     MECN     C1       CG331   -0.170000       12.0110           0
     13063 WT5      1088     MECN     H11      HGA3     0.090000        1.0080           0
     13064 WT5      1088     MECN     H12      HGA3     0.090000        1.0080           0
     13065 WT5      1088     MECN     H13      HGA3     0.090000        1.0080           0
     13066 WT5      1088     MECN     C2       CG1N1    0.360000       12.0110           0
     13067 WT5      1088     MECN     N3       NG1T1   -0.460000       14.0070           0
     13068 WT5      1091     MECN     C1       CG331   -0.170000       12.0110           0
     13069 WT5      1091     MECN     H11      HGA3     0.090000        1.0080           0
     13070 WT5      1091     MECN     H12      HGA3     0.090000        1.0080           0
     13071 WT5      1091     MECN     H13      HGA3     0.090000        1.0080           0
     13072 WT5      1091     MECN     C2       CG1N1    0.360000       12.0110           0
     13073 WT5      1091     MECN     N3       NG1T1   -0.460000       14.0070           0
     13074 WT5      1092     MECN     C1       CG331   -0.170000       12.0110           0
     13075 WT5      1092     MECN     H11      HGA3     0.090000        1.0080           0
     13076 WT5      1092     MECN     H12      HGA3     0.090000        1.0080           0
     13077 WT5      1092     MECN     H13      HGA3     0.090000        1.0080           0
     13078 WT5      1092     MECN     C2       CG1N1    0.360000       12.0110           0
     13079 WT5      1092     MECN     N3       NG1T1   -0.460000       14.0070           0
     13080 WT5      1094     MECN     C1       CG331   -0.170000       12.0110           0
     13081 WT5      1094     MECN     H11      HGA3     0.090000        1.0080           0
     13082 WT5      1094     MECN     H12      HGA3     0.090000        1.0080           0
     13083 WT5      1094     MECN     H13      HGA3     0.090000        1.0080           0
     13084 WT5      1094     MECN     C2       CG1N1    0.360000       12.0110           0
     13085 WT5      1094     MECN     N3       NG1T1   -0.460000       14.0070           0
     13086 WT5      1095     MECN     C1       CG331   -0.170000       12.0110           0
     13087 WT5      1095     MECN     H11      HGA3     0.090000        1.0080           0
     13088 WT5      1095     MECN     H12      HGA3     0.090000        1.0080           0
     13089 WT5      1095     MECN     H13      HGA3     0.090000        1.0080           0
     13090 WT5      1095     MECN     C2       CG1N1    0.360000       12.0110           0
     13091 WT5      1095     MECN     N3       NG1T1   -0.460000       14.0070           0
     13092 WT5      1096     MECN     C1       CG331   -0.170000       12.0110           0
     13093 WT5      1096     MECN     H11      HGA3     0.090000        1.0080           0
     13094 WT5      1096     MECN     H12      HGA3     0.090000        1.0080           0
     13095 WT5      1096     MECN     H13      HGA3     0.090000        1.0080           0
     13096 WT5      1096     MECN     C2       CG1N1    0.360000       12.0110           0
     13097 WT5      1096     MECN     N3       NG1T1   -0.460000       14.0070           0
     13098 WT5      1098     MECN     C1       CG331   -0.170000       12.0110           0
     13099 WT5      1098     MECN     H11      HGA3     0.090000        1.0080           0
     13100 WT5      1098     MECN     H12      HGA3     0.090000        1.0080           0
     13101 WT5      1098     MECN     H13      HGA3     0.090000        1.0080           0
     13102 WT5      1098     MECN     C2       CG1N1    0.360000       12.0110           0
     13103 WT5      1098     MECN     N3       NG1T1   -0.460000       14.0070           0
     13104 WT5      1099     MECN     C1       CG331   -0.170000       12.0110           0
     13105 WT5      1099     MECN     H11      HGA3     0.090000        1.0080           0
     13106 WT5      1099     MECN     H12      HGA3     0.090000        1.0080           0
     13107 WT5      1099     MECN     H13      HGA3     0.090000        1.0080           0
     13108 WT5      1099     MECN     C2       CG1N1    0.360000       12.0110           0
     13109 WT5      1099     MECN     N3       NG1T1   -0.460000       14.0070           0
     13110 WT5      1100     MECN     C1       CG331   -0.170000       12.0110           0
     13111 WT5      1100     MECN     H11      HGA3     0.090000        1.0080           0
     13112 WT5      1100     MECN     H12      HGA3     0.090000        1.0080           0
     13113 WT5      1100     MECN     H13      HGA3     0.090000        1.0080           0
     13114 WT5      1100     MECN     C2       CG1N1    0.360000       12.0110           0
     13115 WT5      1100     MECN     N3       NG1T1   -0.460000       14.0070           0
     13116 WT5      1101     MECN     C1       CG331   -0.170000       12.0110           0
     13117 WT5      1101     MECN     H11      HGA3     0.090000        1.0080           0
     13118 WT5      1101     MECN     H12      HGA3     0.090000        1.0080           0
     13119 WT5      1101     MECN     H13      HGA3     0.090000        1.0080           0
     13120 WT5      1101     MECN     C2       CG1N1    0.360000       12.0110           0
     13121 WT5      1101     MECN     N3       NG1T1   -0.460000       14.0070           0
     13122 WT5      1103     MECN     C1       CG331   -0.170000       12.0110           0
     13123 WT5      1103     MECN     H11      HGA3     0.090000        1.0080           0
     13124 WT5      1103     MECN     H12      HGA3     0.090000        1.0080           0
     13125 WT5      1103     MECN     H13      HGA3     0.090000        1.0080           0
     13126 WT5      1103     MECN     C2       CG1N1    0.360000       12.0110           0
     13127 WT5      1103     MECN     N3       NG1T1   -0.460000       14.0070           0
     13128 WT5      1110     MECN     C1       CG331   -0.170000       12.0110           0
     13129 WT5      1110     MECN     H11      HGA3     0.090000        1.0080           0
     13130 WT5      1110     MECN     H12      HGA3     0.090000        1.0080           0
     13131 WT5      1110     MECN     H13      HGA3     0.090000        1.0080           0
     13132 WT5      1110     MECN     C2       CG1N1    0.360000       12.0110           0
     13133 WT5      1110     MECN     N3       NG1T1   -0.460000       14.0070           0
     13134 WT5      1111     MECN     C1       CG331   -0.170000       12.0110           0
     13135 WT5      1111     MECN     H11      HGA3     0.090000        1.0080           0
     13136 WT5      1111     MECN     H12      HGA3     0.090000        1.0080           0
     13137 WT5      1111     MECN     H13      HGA3     0.090000        1.0080           0
     13138 WT5      1111     MECN     C2       CG1N1    0.360000       12.0110           0
     13139 WT5      1111     MECN     N3       NG1T1   -0.460000       14.0070           0
     13140 WT5      1114     MECN     C1       CG331   -0.170000       12.0110           0
     13141 WT5      1114     MECN     H11      HGA3     0.090000        1.0080           0
     13142 WT5      1114     MECN     H12      HGA3     0.090000        1.0080           0
     13143 WT5      1114     MECN     H13      HGA3     0.090000        1.0080           0
     13144 WT5      1114     MECN     C2       CG1N1    0.360000       12.0110           0
     13145 WT5      1114     MECN     N3       NG1T1   -0.460000       14.0070           0
     13146 WT5      1115     MECN     C1       CG331   -0.170000       12.0110           0
     13147 WT5      1115     MECN     H11      HGA3     0.090000        1.0080           0
     13148 WT5      1115     MECN     H12      HGA3     0.090000        1.0080           0
     13149 WT5      1115     MECN     H13      HGA3     0.090000        1.0080           0
     13150 WT5      1115     MECN     C2       CG1N1    0.360000       12.0110           0
     13151 WT5      1115     MECN     N3       NG1T1   -0.460000       14.0070           0
     13152 WT5      1116     MECN     C1       CG331   -0.170000       12.0110           0
     13153 WT5      1116     MECN     H11      HGA3     0.090000        1.0080           0
     13154 WT5      1116     MECN     H12      HGA3     0.090000        1.0080           0
     13155 WT5      1116     MECN     H13      HGA3     0.090000        1.0080           0
     13156 WT5      1116     MECN     C2       CG1N1    0.360000       12.0110           0
     13157 WT5      1116     MECN     N3       NG1T1   -0.460000       14.0070           0
     13158 WT5      1120     MECN     C1       CG331   -0.170000       12.0110           0
     13159 WT5      1120     MECN     H11      HGA3     0.090000        1.0080           0
     13160 WT5      1120     MECN     H12      HGA3     0.090000        1.0080           0
     13161 WT5      1120     MECN     H13      HGA3     0.090000        1.0080           0
     13162 WT5      1120     MECN     C2       CG1N1    0.360000       12.0110           0
     13163 WT5      1120     MECN     N3       NG1T1   -0.460000       14.0070           0
     13164 WT5      1123     MECN     C1       CG331   -0.170000       12.0110           0
     13165 WT5      1123     MECN     H11      HGA3     0.090000        1.0080           0
     13166 WT5      1123     MECN     H12      HGA3     0.090000        1.0080           0
     13167 WT5      1123     MECN     H13      HGA3     0.090000        1.0080           0
     13168 WT5      1123     MECN     C2       CG1N1    0.360000       12.0110           0
     13169 WT5      1123     MECN     N3       NG1T1   -0.460000       14.0070           0
     13170 WT5      1125     MECN     C1       CG331   -0.170000       12.0110           0
     13171 WT5      1125     MECN     H11      HGA3     0.090000        1.0080           0
     13172 WT5      1125     MECN     H12      HGA3     0.090000        1.0080           0
     13173 WT5      1125     MECN     H13      HGA3     0.090000        1.0080           0
     13174 WT5      1125     MECN     C2       CG1N1    0.360000       12.0110           0
     13175 WT5      1125     MECN     N3       NG1T1   -0.460000       14.0070           0
     13176 WT5      1128     MECN     C1       CG331   -0.170000       12.0110           0
     13177 WT5      1128     MECN     H11      HGA3     0.090000        1.0080           0
     13178 WT5      1128     MECN     H12      HGA3     0.090000        1.0080           0
     13179 WT5      1128     MECN     H13      HGA3     0.090000        1.0080           0
     13180 WT5      1128     MECN     C2       CG1N1    0.360000       12.0110           0
     13181 WT5      1128     MECN     N3       NG1T1   -0.460000       14.0070           0
     13182 WT5      1129     MECN     C1       CG331   -0.170000       12.0110           0
     13183 WT5      1129     MECN     H11      HGA3     0.090000        1.0080           0
     13184 WT5      1129     MECN     H12      HGA3     0.090000        1.0080           0
     13185 WT5      1129     MECN     H13      HGA3     0.090000        1.0080           0
     13186 WT5      1129     MECN     C2       CG1N1    0.360000       12.0110           0
     13187 WT5      1129     MECN     N3       NG1T1   -0.460000       14.0070           0
     13188 WT5      1135     MECN     C1       CG331   -0.170000       12.0110           0
     13189 WT5      1135     MECN     H11      HGA3     0.090000        1.0080           0
     13190 WT5      1135     MECN     H12      HGA3     0.090000        1.0080           0
     13191 WT5      1135     MECN     H13      HGA3     0.090000        1.0080           0
     13192 WT5      1135     MECN     C2       CG1N1    0.360000       12.0110           0
     13193 WT5      1135     MECN     N3       NG1T1   -0.460000       14.0070           0
     13194 WT5      1137     MECN     C1       CG331   -0.170000       12.0110           0
     13195 WT5      1137     MECN     H11      HGA3     0.090000        1.0080           0
     13196 WT5      1137     MECN     H12      HGA3     0.090000        1.0080           0
     13197 WT5      1137     MECN     H13      HGA3     0.090000        1.0080           0
     13198 WT5      1137     MECN     C2       CG1N1    0.360000       12.0110           0
     13199 WT5      1137     MECN     N3       NG1T1   -0.460000       14.0070           0
     13200 WT5      1141     MECN     C1       CG331   -0.170000       12.0110           0
     13201 WT5      1141     MECN     H11      HGA3     0.090000        1.0080           0
     13202 WT5      1141     MECN     H12      HGA3     0.090000        1.0080           0
     13203 WT5      1141     MECN     H13      HGA3     0.090000        1.0080           0
     13204 WT5      1141     MECN     C2       CG1N1    0.360000       12.0110           0
     13205 WT5      1141     MECN     N3       NG1T1   -0.460000       14.0070           0
     13206 WT5      1143     MECN     C1       CG331   -0.170000       12.0110           0
     13207 WT5      1143     MECN     H11      HGA3     0.090000        1.0080           0
     13208 WT5      1143     MECN     H12      HGA3     0.090000        1.0080           0
     13209 WT5      1143     MECN     H13      HGA3     0.090000        1.0080           0
     13210 WT5      1143     MECN     C2       CG1N1    0.360000       12.0110           0
     13211 WT5      1143     MECN     N3       NG1T1   -0.460000       14.0070           0
     13212 WT5      1144     MECN     C1       CG331   -0.170000       12.0110           0
     13213 WT5      1144     MECN     H11      HGA3     0.090000        1.0080           0
     13214 WT5      1144     MECN     H12      HGA3     0.090000        1.0080           0
     13215 WT5      1144     MECN     H13      HGA3     0.090000        1.0080           0
     13216 WT5      1144     MECN     C2       CG1N1    0.360000       12.0110           0
     13217 WT5      1144     MECN     N3       NG1T1   -0.460000       14.0070           0
     13218 WT5      1145     MECN     C1       CG331   -0.170000       12.0110           0
     13219 WT5      1145     MECN     H11      HGA3     0.090000        1.0080           0
     13220 WT5      1145     MECN     H12      HGA3     0.090000        1.0080           0
     13221 WT5      1145     MECN     H13      HGA3     0.090000        1.0080           0
     13222 WT5      1145     MECN     C2       CG1N1    0.360000       12.0110           0
     13223 WT5      1145     MECN     N3       NG1T1   -0.460000       14.0070           0
     13224 WT5      1147     MECN     C1       CG331   -0.170000       12.0110           0
     13225 WT5      1147     MECN     H11      HGA3     0.090000        1.0080           0
     13226 WT5      1147     MECN     H12      HGA3     0.090000        1.0080           0
     13227 WT5      1147     MECN     H13      HGA3     0.090000        1.0080           0
     13228 WT5      1147     MECN     C2       CG1N1    0.360000       12.0110           0
     13229 WT5      1147     MECN     N3       NG1T1   -0.460000       14.0070           0
     13230 WT5      1150     MECN     C1       CG331   -0.170000       12.0110           0
     13231 WT5      1150     MECN     H11      HGA3     0.090000        1.0080           0
     13232 WT5      1150     MECN     H12      HGA3     0.090000        1.0080           0
     13233 WT5      1150     MECN     H13      HGA3     0.090000        1.0080           0
     13234 WT5      1150     MECN     C2       CG1N1    0.360000       12.0110           0
     13235 WT5      1150     MECN     N3       NG1T1   -0.460000       14.0070           0
     13236 WT5      1152     MECN     C1       CG331   -0.170000       12.0110           0
     13237 WT5      1152     MECN     H11      HGA3     0.090000        1.0080           0
     13238 WT5      1152     MECN     H12      HGA3     0.090000        1.0080           0
     13239 WT5      1152     MECN     H13      HGA3     0.090000        1.0080           0
     13240 WT5      1152     MECN     C2       CG1N1    0.360000       12.0110           0
     13241 WT5      1152     MECN     N3       NG1T1   -0.460000       14.0070           0
     13242 WT5      1153     MECN     C1       CG331   -0.170000       12.0110           0
     13243 WT5      1153     MECN     H11      HGA3     0.090000        1.0080           0
     13244 WT5      1153     MECN     H12      HGA3     0.090000        1.0080           0
     13245 WT5      1153     MECN     H13      HGA3     0.090000        1.0080           0
     13246 WT5      1153     MECN     C2       CG1N1    0.360000       12.0110           0
     13247 WT5      1153     MECN     N3       NG1T1   -0.460000       14.0070           0
     13248 WT5      1154     MECN     C1       CG331   -0.170000       12.0110           0
     13249 WT5      1154     MECN     H11      HGA3     0.090000        1.0080           0
     13250 WT5      1154     MECN     H12      HGA3     0.090000        1.0080           0
     13251 WT5      1154     MECN     H13      HGA3     0.090000        1.0080           0
     13252 WT5      1154     MECN     C2       CG1N1    0.360000       12.0110           0
     13253 WT5      1154     MECN     N3       NG1T1   -0.460000       14.0070           0
     13254 WT5      1156     MECN     C1       CG331   -0.170000       12.0110           0
     13255 WT5      1156     MECN     H11      HGA3     0.090000        1.0080           0
     13256 WT5      1156     MECN     H12      HGA3     0.090000        1.0080           0
     13257 WT5      1156     MECN     H13      HGA3     0.090000        1.0080           0
     13258 WT5      1156     MECN     C2       CG1N1    0.360000       12.0110           0
     13259 WT5      1156     MECN     N3       NG1T1   -0.460000       14.0070           0
     13260 WT5      1159     MECN     C1       CG331   -0.170000       12.0110           0
     13261 WT5      1159     MECN     H11      HGA3     0.090000        1.0080           0
     13262 WT5      1159     MECN     H12      HGA3     0.090000        1.0080           0
     13263 WT5      1159     MECN     H13      HGA3     0.090000        1.0080           0
     13264 WT5      1159     MECN     C2       CG1N1    0.360000       12.0110           0
     13265 WT5      1159     MECN     N3       NG1T1   -0.460000       14.0070           0
     13266 WT5      1160     MECN     C1       CG331   -0.170000       12.0110           0
     13267 WT5      1160     MECN     H11      HGA3     0.090000        1.0080           0
     13268 WT5      1160     MECN     H12      HGA3     0.090000        1.0080           0
     13269 WT5      1160     MECN     H13      HGA3     0.090000        1.0080           0
     13270 WT5      1160     MECN     C2       CG1N1    0.360000       12.0110           0
     13271 WT5      1160     MECN     N3       NG1T1   -0.460000       14.0070           0
     13272 WT5      1169     MECN     C1       CG331   -0.170000       12.0110           0
     13273 WT5      1169     MECN     H11      HGA3     0.090000        1.0080           0
     13274 WT5      1169     MECN     H12      HGA3     0.090000        1.0080           0
     13275 WT5      1169     MECN     H13      HGA3     0.090000        1.0080           0
     13276 WT5      1169     MECN     C2       CG1N1    0.360000       12.0110           0
     13277 WT5      1169     MECN     N3       NG1T1   -0.460000       14.0070           0
     13278 WT5      1175     MECN     C1       CG331   -0.170000       12.0110           0
     13279 WT5      1175     MECN     H11      HGA3     0.090000        1.0080           0
     13280 WT5      1175     MECN     H12      HGA3     0.090000        1.0080           0
     13281 WT5      1175     MECN     H13      HGA3     0.090000        1.0080           0
     13282 WT5      1175     MECN     C2       CG1N1    0.360000       12.0110           0
     13283 WT5      1175     MECN     N3       NG1T1   -0.460000       14.0070           0
     13284 WT5      1176     MECN     C1       CG331   -0.170000       12.0110           0
     13285 WT5      1176     MECN     H11      HGA3     0.090000        1.0080           0
     13286 WT5      1176     MECN     H12      HGA3     0.090000        1.0080           0
     13287 WT5      1176     MECN     H13      HGA3     0.090000        1.0080           0
     13288 WT5      1176     MECN     C2       CG1N1    0.360000       12.0110           0
     13289 WT5      1176     MECN     N3       NG1T1   -0.460000       14.0070           0
     13290 WT5      1177     MECN     C1       CG331   -0.170000       12.0110           0
     13291 WT5      1177     MECN     H11      HGA3     0.090000        1.0080           0
     13292 WT5      1177     MECN     H12      HGA3     0.090000        1.0080           0
     13293 WT5      1177     MECN     H13      HGA3     0.090000        1.0080           0
     13294 WT5      1177     MECN     C2       CG1N1    0.360000       12.0110           0
     13295 WT5      1177     MECN     N3       NG1T1   -0.460000       14.0070           0
     13296 WT5      1178     MECN     C1       CG331   -0.170000       12.0110           0
     13297 WT5      1178     MECN     H11      HGA3     0.090000        1.0080           0
     13298 WT5      1178     MECN     H12      HGA3     0.090000        1.0080           0
     13299 WT5      1178     MECN     H13      HGA3     0.090000        1.0080           0
     13300 WT5      1178     MECN     C2       CG1N1    0.360000       12.0110           0
     13301 WT5      1178     MECN     N3       NG1T1   -0.460000       14.0070           0
     13302 WT5      1182     MECN     C1       CG331   -0.170000       12.0110           0
     13303 WT5      1182     MECN     H11      HGA3     0.090000        1.0080           0
     13304 WT5      1182     MECN     H12      HGA3     0.090000        1.0080           0
     13305 WT5      1182     MECN     H13      HGA3     0.090000        1.0080           0
     13306 WT5      1182     MECN     C2       CG1N1    0.360000       12.0110           0
     13307 WT5      1182     MECN     N3       NG1T1   -0.460000       14.0070           0
     13308 WT5      1183     MECN     C1       CG331   -0.170000       12.0110           0
     13309 WT5      1183     MECN     H11      HGA3     0.090000        1.0080           0
     13310 WT5      1183     MECN     H12      HGA3     0.090000        1.0080           0
     13311 WT5      1183     MECN     H13      HGA3     0.090000        1.0080           0
     13312 WT5      1183     MECN     C2       CG1N1    0.360000       12.0110           0
     13313 WT5      1183     MECN     N3       NG1T1   -0.460000       14.0070           0
     13314 WT5      1184     MECN     C1       CG331   -0.170000       12.0110           0
     13315 WT5      1184     MECN     H11      HGA3     0.090000        1.0080           0
     13316 WT5      1184     MECN     H12      HGA3     0.090000        1.0080           0
     13317 WT5      1184     MECN     H13      HGA3     0.090000        1.0080           0
     13318 WT5      1184     MECN     C2       CG1N1    0.360000       12.0110           0
     13319 WT5      1184     MECN     N3       NG1T1   -0.460000       14.0070           0
     13320 WT5      1186     MECN     C1       CG331   -0.170000       12.0110           0
     13321 WT5      1186     MECN     H11      HGA3     0.090000        1.0080           0
     13322 WT5      1186     MECN     H12      HGA3     0.090000        1.0080           0
     13323 WT5      1186     MECN     H13      HGA3     0.090000        1.0080           0
     13324 WT5      1186     MECN     C2       CG1N1    0.360000       12.0110           0
     13325 WT5      1186     MECN     N3       NG1T1   -0.460000       14.0070           0
     13326 WT5      1187     MECN     C1       CG331   -0.170000       12.0110           0
     13327 WT5      1187     MECN     H11      HGA3     0.090000        1.0080           0
     13328 WT5      1187     MECN     H12      HGA3     0.090000        1.0080           0
     13329 WT5      1187     MECN     H13      HGA3     0.090000        1.0080           0
     13330 WT5      1187     MECN     C2       CG1N1    0.360000       12.0110           0
     13331 WT5      1187     MECN     N3       NG1T1   -0.460000       14.0070           0
     13332 WT5      1189     MECN     C1       CG331   -0.170000       12.0110           0
     13333 WT5      1189     MECN     H11      HGA3     0.090000        1.0080           0
     13334 WT5      1189     MECN     H12      HGA3     0.090000        1.0080           0
     13335 WT5      1189     MECN     H13      HGA3     0.090000        1.0080           0
     13336 WT5      1189     MECN     C2       CG1N1    0.360000       12.0110           0
     13337 WT5      1189     MECN     N3       NG1T1   -0.460000       14.0070           0
     13338 WT5      1192     MECN     C1       CG331   -0.170000       12.0110           0
     13339 WT5      1192     MECN     H11      HGA3     0.090000        1.0080           0
     13340 WT5      1192     MECN     H12      HGA3     0.090000        1.0080           0
     13341 WT5      1192     MECN     H13      HGA3     0.090000        1.0080           0
     13342 WT5      1192     MECN     C2       CG1N1    0.360000       12.0110           0
     13343 WT5      1192     MECN     N3       NG1T1   -0.460000       14.0070           0
     13344 WT5      1194     MECN     C1       CG331   -0.170000       12.0110           0
     13345 WT5      1194     MECN     H11      HGA3     0.090000        1.0080           0
     13346 WT5      1194     MECN     H12      HGA3     0.090000        1.0080           0
     13347 WT5      1194     MECN     H13      HGA3     0.090000        1.0080           0
     13348 WT5      1194     MECN     C2       CG1N1    0.360000       12.0110           0
     13349 WT5      1194     MECN     N3       NG1T1   -0.460000       14.0070           0
     13350 WT5      1195     MECN     C1       CG331   -0.170000       12.0110           0
     13351 WT5      1195     MECN     H11      HGA3     0.090000        1.0080           0
     13352 WT5      1195     MECN     H12      HGA3     0.090000        1.0080           0
     13353 WT5      1195     MECN     H13      HGA3     0.090000        1.0080           0
     13354 WT5      1195     MECN     C2       CG1N1    0.360000       12.0110           0
     13355 WT5      1195     MECN     N3       NG1T1   -0.460000       14.0070           0
     13356 WT5      1196     MECN     C1       CG331   -0.170000       12.0110           0
     13357 WT5      1196     MECN     H11      HGA3     0.090000        1.0080           0
     13358 WT5      1196     MECN     H12      HGA3     0.090000        1.0080           0
     13359 WT5      1196     MECN     H13      HGA3     0.090000        1.0080           0
     13360 WT5      1196     MECN     C2       CG1N1    0.360000       12.0110           0
     13361 WT5      1196     MECN     N3       NG1T1   -0.460000       14.0070           0
     13362 WT5      1198     MECN     C1       CG331   -0.170000       12.0110           0
     13363 WT5      1198     MECN     H11      HGA3     0.090000        1.0080           0
     13364 WT5      1198     MECN     H12      HGA3     0.090000        1.0080           0
     13365 WT5      1198     MECN     H13      HGA3     0.090000        1.0080           0
     13366 WT5      1198     MECN     C2       CG1N1    0.360000       12.0110           0
     13367 WT5      1198     MECN     N3       NG1T1   -0.460000       14.0070           0
     13368 WT5      1201     MECN     C1       CG331   -0.170000       12.0110           0
     13369 WT5      1201     MECN     H11      HGA3     0.090000        1.0080           0
     13370 WT5      1201     MECN     H12      HGA3     0.090000        1.0080           0
     13371 WT5      1201     MECN     H13      HGA3     0.090000        1.0080           0
     13372 WT5      1201     MECN     C2       CG1N1    0.360000       12.0110           0
     13373 WT5      1201     MECN     N3       NG1T1   -0.460000       14.0070           0
     13374 WT5      1207     MECN     C1       CG331   -0.170000       12.0110           0
     13375 WT5      1207     MECN     H11      HGA3     0.090000        1.0080           0
     13376 WT5      1207     MECN     H12      HGA3     0.090000        1.0080           0
     13377 WT5      1207     MECN     H13      HGA3     0.090000        1.0080           0
     13378 WT5      1207     MECN     C2       CG1N1    0.360000       12.0110           0
     13379 WT5      1207     MECN     N3       NG1T1   -0.460000       14.0070           0
     13380 WT5      1208     MECN     C1       CG331   -0.170000       12.0110           0
     13381 WT5      1208     MECN     H11      HGA3     0.090000        1.0080           0
     13382 WT5      1208     MECN     H12      HGA3     0.090000        1.0080           0
     13383 WT5      1208     MECN     H13      HGA3     0.090000        1.0080           0
     13384 WT5      1208     MECN     C2       CG1N1    0.360000       12.0110           0
     13385 WT5      1208     MECN     N3       NG1T1   -0.460000       14.0070           0
     13386 WT5      1209     MECN     C1       CG331   -0.170000       12.0110           0
     13387 WT5      1209     MECN     H11      HGA3     0.090000        1.0080           0
     13388 WT5      1209     MECN     H12      HGA3     0.090000        1.0080           0
     13389 WT5      1209     MECN     H13      HGA3     0.090000        1.0080           0
     13390 WT5      1209     MECN     C2       CG1N1    0.360000       12.0110           0
     13391 WT5      1209     MECN     N3       NG1T1   -0.460000       14.0070           0
     13392 WT5      1212     MECN     C1       CG331   -0.170000       12.0110           0
     13393 WT5      1212     MECN     H11      HGA3     0.090000        1.0080           0
     13394 WT5      1212     MECN     H12      HGA3     0.090000        1.0080           0
     13395 WT5      1212     MECN     H13      HGA3     0.090000        1.0080           0
     13396 WT5      1212     MECN     C2       CG1N1    0.360000       12.0110           0
     13397 WT5      1212     MECN     N3       NG1T1   -0.460000       14.0070           0
     13398 WT5      1214     MECN     C1       CG331   -0.170000       12.0110           0
     13399 WT5      1214     MECN     H11      HGA3     0.090000        1.0080           0
     13400 WT5      1214     MECN     H12      HGA3     0.090000        1.0080           0
     13401 WT5      1214     MECN     H13      HGA3     0.090000        1.0080           0
     13402 WT5      1214     MECN     C2       CG1N1    0.360000       12.0110           0
     13403 WT5      1214     MECN     N3       NG1T1   -0.460000       14.0070           0
     13404 WT5      1215     MECN     C1       CG331   -0.170000       12.0110           0
     13405 WT5      1215     MECN     H11      HGA3     0.090000        1.0080           0
     13406 WT5      1215     MECN     H12      HGA3     0.090000        1.0080           0
     13407 WT5      1215     MECN     H13      HGA3     0.090000        1.0080           0
     13408 WT5      1215     MECN     C2       CG1N1    0.360000       12.0110           0
     13409 WT5      1215     MECN     N3       NG1T1   -0.460000       14.0070           0
     13410 WT5      1216     MECN     C1       CG331   -0.170000       12.0110           0
     13411 WT5      1216     MECN     H11      HGA3     0.090000        1.0080           0
     13412 WT5      1216     MECN     H12      HGA3     0.090000        1.0080           0
     13413 WT5      1216     MECN     H13      HGA3     0.090000        1.0080           0
     13414 WT5      1216     MECN     C2       CG1N1    0.360000       12.0110           0
     13415 WT5      1216     MECN     N3       NG1T1   -0.460000       14.0070           0
     13416 WT5      1218     MECN     C1       CG331   -0.170000       12.0110           0
     13417 WT5      1218     MECN     H11      HGA3     0.090000        1.0080           0
     13418 WT5      1218     MECN     H12      HGA3     0.090000        1.0080           0
     13419 WT5      1218     MECN     H13      HGA3     0.090000        1.0080           0
     13420 WT5      1218     MECN     C2       CG1N1    0.360000       12.0110           0
     13421 WT5      1218     MECN     N3       NG1T1   -0.460000       14.0070           0
     13422 WT5      1221     MECN     C1       CG331   -0.170000       12.0110           0
     13423 WT5      1221     MECN     H11      HGA3     0.090000        1.0080           0
     13424 WT5      1221     MECN     H12      HGA3     0.090000        1.0080           0
     13425 WT5      1221     MECN     H13      HGA3     0.090000        1.0080           0
     13426 WT5      1221     MECN     C2       CG1N1    0.360000       12.0110           0
     13427 WT5      1221     MECN     N3       NG1T1   -0.460000       14.0070           0
     13428 WT5      1229     MECN     C1       CG331   -0.170000       12.0110           0
     13429 WT5      1229     MECN     H11      HGA3     0.090000        1.0080           0
     13430 WT5      1229     MECN     H12      HGA3     0.090000        1.0080           0
     13431 WT5      1229     MECN     H13      HGA3     0.090000        1.0080           0
     13432 WT5      1229     MECN     C2       CG1N1    0.360000       12.0110           0
     13433 WT5      1229     MECN     N3       NG1T1   -0.460000       14.0070           0
     13434 WT5      1233     MECN     C1       CG331   -0.170000       12.0110           0
     13435 WT5      1233     MECN     H11      HGA3     0.090000        1.0080           0
     13436 WT5      1233     MECN     H12      HGA3     0.090000        1.0080           0
     13437 WT5      1233     MECN     H13      HGA3     0.090000        1.0080           0
     13438 WT5      1233     MECN     C2       CG1N1    0.360000       12.0110           0
     13439 WT5      1233     MECN     N3       NG1T1   -0.460000       14.0070           0
     13440 WT5      1236     MECN     C1       CG331   -0.170000       12.0110           0
     13441 WT5      1236     MECN     H11      HGA3     0.090000        1.0080           0
     13442 WT5      1236     MECN     H12      HGA3     0.090000        1.0080           0
     13443 WT5      1236     MECN     H13      HGA3     0.090000        1.0080           0
     13444 WT5      1236     MECN     C2       CG1N1    0.360000       12.0110           0
     13445 WT5      1236     MECN     N3       NG1T1   -0.460000       14.0070           0
     13446 WT5      1241     MECN     C1       CG331   -0.170000       12.0110           0
     13447 WT5      1241     MECN     H11      HGA3     0.090000        1.0080           0
     13448 WT5      1241     MECN     H12      HGA3     0.090000        1.0080           0
     13449 WT5      1241     MECN     H13      HGA3     0.090000        1.0080           0
     13450 WT5      1241     MECN     C2       CG1N1    0.360000       12.0110           0
     13451 WT5      1241     MECN     N3       NG1T1   -0.460000       14.0070           0
     13452 WT5      1243     MECN     C1       CG331   -0.170000       12.0110           0
     13453 WT5      1243     MECN     H11      HGA3     0.090000        1.0080           0
     13454 WT5      1243     MECN     H12      HGA3     0.090000        1.0080           0
     13455 WT5      1243     MECN     H13      HGA3     0.090000        1.0080           0
     13456 WT5      1243     MECN     C2       CG1N1    0.360000       12.0110           0
     13457 WT5      1243     MECN     N3       NG1T1   -0.460000       14.0070           0
     13458 WT5      1245     MECN     C1       CG331   -0.170000       12.0110           0
     13459 WT5      1245     MECN     H11      HGA3     0.090000        1.0080           0
     13460 WT5      1245     MECN     H12      HGA3     0.090000        1.0080           0
     13461 WT5      1245     MECN     H13      HGA3     0.090000        1.0080           0
     13462 WT5      1245     MECN     C2       CG1N1    0.360000       12.0110           0
     13463 WT5      1245     MECN     N3       NG1T1   -0.460000       14.0070           0
     13464 WT5      1246     MECN     C1       CG331   -0.170000       12.0110           0
     13465 WT5      1246     MECN     H11      HGA3     0.090000        1.0080           0
     13466 WT5      1246     MECN     H12      HGA3     0.090000        1.0080           0
     13467 WT5      1246     MECN     H13      HGA3     0.090000        1.0080           0
     13468 WT5      1246     MECN     C2       CG1N1    0.360000       12.0110           0
     13469 WT5      1246     MECN     N3       NG1T1   -0.460000       14.0070           0
     13470 WT5      1248     MECN     C1       CG331   -0.170000       12.0110           0
     13471 WT5      1248     MECN     H11      HGA3     0.090000        1.0080           0
     13472 WT5      1248     MECN     H12      HGA3     0.090000        1.0080           0
     13473 WT5      1248     MECN     H13      HGA3     0.090000        1.0080           0
     13474 WT5      1248     MECN     C2       CG1N1    0.360000       12.0110           0
     13475 WT5      1248     MECN     N3       NG1T1   -0.460000       14.0070           0
     13476 WT5      1251     MECN     C1       CG331   -0.170000       12.0110           0
     13477 WT5      1251     MECN     H11      HGA3     0.090000        1.0080           0
     13478 WT5      1251     MECN     H12      HGA3     0.090000        1.0080           0
     13479 WT5      1251     MECN     H13      HGA3     0.090000        1.0080           0
     13480 WT5      1251     MECN     C2       CG1N1    0.360000       12.0110           0
     13481 WT5      1251     MECN     N3       NG1T1   -0.460000       14.0070           0
     13482 WT5      1253     MECN     C1       CG331   -0.170000       12.0110           0
     13483 WT5      1253     MECN     H11      HGA3     0.090000        1.0080           0
     13484 WT5      1253     MECN     H12      HGA3     0.090000        1.0080           0
     13485 WT5      1253     MECN     H13      HGA3     0.090000        1.0080           0
     13486 WT5      1253     MECN     C2       CG1N1    0.360000       12.0110           0
     13487 WT5      1253     MECN     N3       NG1T1   -0.460000       14.0070           0
     13488 WT5      1258     MECN     C1       CG331   -0.170000       12.0110           0
     13489 WT5      1258     MECN     H11      HGA3     0.090000        1.0080           0
     13490 WT5      1258     MECN     H12      HGA3     0.090000        1.0080           0
     13491 WT5      1258     MECN     H13      HGA3     0.090000        1.0080           0
     13492 WT5      1258     MECN     C2       CG1N1    0.360000       12.0110           0
     13493 WT5      1258     MECN     N3       NG1T1   -0.460000       14.0070           0
     13494 WT5      1260     MECN     C1       CG331   -0.170000       12.0110           0
     13495 WT5      1260     MECN     H11      HGA3     0.090000        1.0080           0
     13496 WT5      1260     MECN     H12      HGA3     0.090000        1.0080           0
     13497 WT5      1260     MECN     H13      HGA3     0.090000        1.0080           0
     13498 WT5      1260     MECN     C2       CG1N1    0.360000       12.0110           0
     13499 WT5      1260     MECN     N3       NG1T1   -0.460000       14.0070           0
     13500 WT5      1263     MECN     C1       CG331   -0.170000       12.0110           0
     13501 WT5      1263     MECN     H11      HGA3     0.090000        1.0080           0
     13502 WT5      1263     MECN     H12      HGA3     0.090000        1.0080           0
     13503 WT5      1263     MECN     H13      HGA3     0.090000        1.0080           0
     13504 WT5      1263     MECN     C2       CG1N1    0.360000       12.0110           0
     13505 WT5      1263     MECN     N3       NG1T1   -0.460000       14.0070           0
     13506 WT5      1266     MECN     C1       CG331   -0.170000       12.0110           0
     13507 WT5      1266     MECN     H11      HGA3     0.090000        1.0080           0
     13508 WT5      1266     MECN     H12      HGA3     0.090000        1.0080           0
     13509 WT5      1266     MECN     H13      HGA3     0.090000        1.0080           0
     13510 WT5      1266     MECN     C2       CG1N1    0.360000       12.0110           0
     13511 WT5      1266     MECN     N3       NG1T1   -0.460000       14.0070           0
     13512 WT5      1267     MECN     C1       CG331   -0.170000       12.0110           0
     13513 WT5      1267     MECN     H11      HGA3     0.090000        1.0080           0
     13514 WT5      1267     MECN     H12      HGA3     0.090000        1.0080           0
     13515 WT5      1267     MECN     H13      HGA3     0.090000        1.0080           0
     13516 WT5      1267     MECN     C2       CG1N1    0.360000       12.0110           0
     13517 WT5      1267     MECN     N3       NG1T1   -0.460000       14.0070           0
     13518 WT5      1270     MECN     C1       CG331   -0.170000       12.0110           0
     13519 WT5      1270     MECN     H11      HGA3     0.090000        1.0080           0
     13520 WT5      1270     MECN     H12      HGA3     0.090000        1.0080           0
     13521 WT5      1270     MECN     H13      HGA3     0.090000        1.0080           0
     13522 WT5      1270     MECN     C2       CG1N1    0.360000       12.0110           0
     13523 WT5      1270     MECN     N3       NG1T1   -0.460000       14.0070           0
     13524 WT5      1273     MECN     C1       CG331   -0.170000       12.0110           0
     13525 WT5      1273     MECN     H11      HGA3     0.090000        1.0080           0
     13526 WT5      1273     MECN     H12      HGA3     0.090000        1.0080           0
     13527 WT5      1273     MECN     H13      HGA3     0.090000        1.0080           0
     13528 WT5      1273     MECN     C2       CG1N1    0.360000       12.0110           0
     13529 WT5      1273     MECN     N3       NG1T1   -0.460000       14.0070           0
     13530 WT5      1275     MECN     C1       CG331   -0.170000       12.0110           0
     13531 WT5      1275     MECN     H11      HGA3     0.090000        1.0080           0
     13532 WT5      1275     MECN     H12      HGA3     0.090000        1.0080           0
     13533 WT5      1275     MECN     H13      HGA3     0.090000        1.0080           0
     13534 WT5      1275     MECN     C2       CG1N1    0.360000       12.0110           0
     13535 WT5      1275     MECN     N3       NG1T1   -0.460000       14.0070           0
     13536 WT5      1278     MECN     C1       CG331   -0.170000       12.0110           0
     13537 WT5      1278     MECN     H11      HGA3     0.090000        1.0080           0
     13538 WT5      1278     MECN     H12      HGA3     0.090000        1.0080           0
     13539 WT5      1278     MECN     H13      HGA3     0.090000        1.0080           0
     13540 WT5      1278     MECN     C2       CG1N1    0.360000       12.0110           0
     13541 WT5      1278     MECN     N3       NG1T1   -0.460000       14.0070           0
     13542 WT5      1279     MECN     C1       CG331   -0.170000       12.0110           0
     13543 WT5      1279     MECN     H11      HGA3     0.090000        1.0080           0
     13544 WT5      1279     MECN     H12      HGA3     0.090000        1.0080           0
     13545 WT5      1279     MECN     H13      HGA3     0.090000        1.0080           0
     13546 WT5      1279     MECN     C2       CG1N1    0.360000       12.0110           0
     13547 WT5      1279     MECN     N3       NG1T1   -0.460000       14.0070           0
     13548 WT5      1281     MECN     C1       CG331   -0.170000       12.0110           0
     13549 WT5      1281     MECN     H11      HGA3     0.090000        1.0080           0
     13550 WT5      1281     MECN     H12      HGA3     0.090000        1.0080           0
     13551 WT5      1281     MECN     H13      HGA3     0.090000        1.0080           0
     13552 WT5      1281     MECN     C2       CG1N1    0.360000       12.0110           0
     13553 WT5      1281     MECN     N3       NG1T1   -0.460000       14.0070           0
     13554 WT5      1282     MECN     C1       CG331   -0.170000       12.0110           0
     13555 WT5      1282     MECN     H11      HGA3     0.090000        1.0080           0
     13556 WT5      1282     MECN     H12      HGA3     0.090000        1.0080           0
     13557 WT5      1282     MECN     H13      HGA3     0.090000        1.0080           0
     13558 WT5      1282     MECN     C2       CG1N1    0.360000       12.0110           0
     13559 WT5      1282     MECN     N3       NG1T1   -0.460000       14.0070           0
     13560 WT5      1284     MECN     C1       CG331   -0.170000       12.0110           0
     13561 WT5      1284     MECN     H11      HGA3     0.090000        1.0080           0
     13562 WT5      1284     MECN     H12      HGA3     0.090000        1.0080           0
     13563 WT5      1284     MECN     H13      HGA3     0.090000        1.0080           0
     13564 WT5      1284     MECN     C2       CG1N1    0.360000       12.0110           0
     13565 WT5      1284     MECN     N3       NG1T1   -0.460000       14.0070           0
     13566 WT5      1285     MECN     C1       CG331   -0.170000       12.0110           0
     13567 WT5      1285     MECN     H11      HGA3     0.090000        1.0080           0
     13568 WT5      1285     MECN     H12      HGA3     0.090000        1.0080           0
     13569 WT5      1285     MECN     H13      HGA3     0.090000        1.0080           0
     13570 WT5      1285     MECN     C2       CG1N1    0.360000       12.0110           0
     13571 WT5      1285     MECN     N3       NG1T1   -0.460000       14.0070           0
     13572 WT5      1287     MECN     C1       CG331   -0.170000       12.0110           0
     13573 WT5      1287     MECN     H11      HGA3     0.090000        1.0080           0
     13574 WT5      1287     MECN     H12      HGA3     0.090000        1.0080           0
     13575 WT5      1287     MECN     H13      HGA3     0.090000        1.0080           0
     13576 WT5      1287     MECN     C2       CG1N1    0.360000       12.0110           0
     13577 WT5      1287     MECN     N3       NG1T1   -0.460000       14.0070           0
     13578 WT5      1294     MECN     C1       CG331   -0.170000       12.0110           0
     13579 WT5      1294     MECN     H11      HGA3     0.090000        1.0080           0
     13580 WT5      1294     MECN     H12      HGA3     0.090000        1.0080           0
     13581 WT5      1294     MECN     H13      HGA3     0.090000        1.0080           0
     13582 WT5      1294     MECN     C2       CG1N1    0.360000       12.0110           0
     13583 WT5      1294     MECN     N3       NG1T1   -0.460000       14.0070           0
     13584 WT5      1303     MECN     C1       CG331   -0.170000       12.0110           0
     13585 WT5      1303     MECN     H11      HGA3     0.090000        1.0080           0
     13586 WT5      1303     MECN     H12      HGA3     0.090000        1.0080           0
     13587 WT5      1303     MECN     H13      HGA3     0.090000        1.0080           0
     13588 WT5      1303     MECN     C2       CG1N1    0.360000       12.0110           0
     13589 WT5      1303     MECN     N3       NG1T1   -0.460000       14.0070           0
     13590 WT5      1304     MECN     C1       CG331   -0.170000       12.0110           0
     13591 WT5      1304     MECN     H11      HGA3     0.090000        1.0080           0
     13592 WT5      1304     MECN     H12      HGA3     0.090000        1.0080           0
     13593 WT5      1304     MECN     H13      HGA3     0.090000        1.0080           0
     13594 WT5      1304     MECN     C2       CG1N1    0.360000       12.0110           0
     13595 WT5      1304     MECN     N3       NG1T1   -0.460000       14.0070           0
     13596 WT5      1306     MECN     C1       CG331   -0.170000       12.0110           0
     13597 WT5      1306     MECN     H11      HGA3     0.090000        1.0080           0
     13598 WT5      1306     MECN     H12      HGA3     0.090000        1.0080           0
     13599 WT5      1306     MECN     H13      HGA3     0.090000        1.0080           0
     13600 WT5      1306     MECN     C2       CG1N1    0.360000       12.0110           0
     13601 WT5      1306     MECN     N3       NG1T1   -0.460000       14.0070           0
     13602 WT5      1307     MECN     C1       CG331   -0.170000       12.0110           0
     13603 WT5      1307     MECN     H11      HGA3     0.090000        1.0080           0
     13604 WT5      1307     MECN     H12      HGA3     0.090000        1.0080           0
     13605 WT5      1307     MECN     H13      HGA3     0.090000        1.0080           0
     13606 WT5      1307     MECN     C2       CG1N1    0.360000       12.0110           0
     13607 WT5      1307     MECN     N3       NG1T1   -0.460000       14.0070           0
     13608 WT5      1310     MECN     C1       CG331   -0.170000       12.0110           0
     13609 WT5      1310     MECN     H11      HGA3     0.090000        1.0080           0
     13610 WT5      1310     MECN     H12      HGA3     0.090000        1.0080           0
     13611 WT5      1310     MECN     H13      HGA3     0.090000        1.0080           0
     13612 WT5      1310     MECN     C2       CG1N1    0.360000       12.0110           0
     13613 WT5      1310     MECN     N3       NG1T1   -0.460000       14.0070           0
     13614 WT5      1312     MECN     C1       CG331   -0.170000       12.0110           0
     13615 WT5      1312     MECN     H11      HGA3     0.090000        1.0080           0
     13616 WT5      1312     MECN     H12      HGA3     0.090000        1.0080           0
     13617 WT5      1312     MECN     H13      HGA3     0.090000        1.0080           0
     13618 WT5      1312     MECN     C2       CG1N1    0.360000       12.0110           0
     13619 WT5      1312     MECN     N3       NG1T1   -0.460000       14.0070           0
     13620 WT5      1314     MECN     C1       CG331   -0.170000       12.0110           0
     13621 WT5      1314     MECN     H11      HGA3     0.090000        1.0080           0
     13622 WT5      1314     MECN     H12      HGA3     0.090000        1.0080           0
     13623 WT5      1314     MECN     H13      HGA3     0.090000        1.0080           0
     13624 WT5      1314     MECN     C2       CG1N1    0.360000       12.0110           0
     13625 WT5      1314     MECN     N3       NG1T1   -0.460000       14.0070           0
     13626 WT5      1315     MECN     C1       CG331   -0.170000       12.0110           0
     13627 WT5      1315     MECN     H11      HGA3     0.090000        1.0080           0
     13628 WT5      1315     MECN     H12      HGA3     0.090000        1.0080           0
     13629 WT5      1315     MECN     H13      HGA3     0.090000        1.0080           0
     13630 WT5      1315     MECN     C2       CG1N1    0.360000       12.0110           0
     13631 WT5      1315     MECN     N3       NG1T1   -0.460000       14.0070           0
     13632 WT5      1317     MECN     C1       CG331   -0.170000       12.0110           0
     13633 WT5      1317     MECN     H11      HGA3     0.090000        1.0080           0
     13634 WT5      1317     MECN     H12      HGA3     0.090000        1.0080           0
     13635 WT5      1317     MECN     H13      HGA3     0.090000        1.0080           0
     13636 WT5      1317     MECN     C2       CG1N1    0.360000       12.0110           0
     13637 WT5      1317     MECN     N3       NG1T1   -0.460000       14.0070           0
     13638 WT5      1320     MECN     C1       CG331   -0.170000       12.0110           0
     13639 WT5      1320     MECN     H11      HGA3     0.090000        1.0080           0
     13640 WT5      1320     MECN     H12      HGA3     0.090000        1.0080           0
     13641 WT5      1320     MECN     H13      HGA3     0.090000        1.0080           0
     13642 WT5      1320     MECN     C2       CG1N1    0.360000       12.0110           0
     13643 WT5      1320     MECN     N3       NG1T1   -0.460000       14.0070           0
     13644 WT5      1323     MECN     C1       CG331   -0.170000       12.0110           0
     13645 WT5      1323     MECN     H11      HGA3     0.090000        1.0080           0
     13646 WT5      1323     MECN     H12      HGA3     0.090000        1.0080           0
     13647 WT5      1323     MECN     H13      HGA3     0.090000        1.0080           0
     13648 WT5      1323     MECN     C2       CG1N1    0.360000       12.0110           0
     13649 WT5      1323     MECN     N3       NG1T1   -0.460000       14.0070           0
     13650 WT5      1326     MECN     C1       CG331   -0.170000       12.0110           0
     13651 WT5      1326     MECN     H11      HGA3     0.090000        1.0080           0
     13652 WT5      1326     MECN     H12      HGA3     0.090000        1.0080           0
     13653 WT5      1326     MECN     H13      HGA3     0.090000        1.0080           0
     13654 WT5      1326     MECN     C2       CG1N1    0.360000       12.0110           0
     13655 WT5      1326     MECN     N3       NG1T1   -0.460000       14.0070           0
     13656 WT5      1329     MECN     C1       CG331   -0.170000       12.0110           0
     13657 WT5      1329     MECN     H11      HGA3     0.090000        1.0080           0
     13658 WT5      1329     MECN     H12      HGA3     0.090000        1.0080           0
     13659 WT5      1329     MECN     H13      HGA3     0.090000        1.0080           0
     13660 WT5      1329     MECN     C2       CG1N1    0.360000       12.0110           0
     13661 WT5      1329     MECN     N3       NG1T1   -0.460000       14.0070           0
     13662 WT5      1330     MECN     C1       CG331   -0.170000       12.0110           0
     13663 WT5      1330     MECN     H11      HGA3     0.090000        1.0080           0
     13664 WT5      1330     MECN     H12      HGA3     0.090000        1.0080           0
     13665 WT5      1330     MECN     H13      HGA3     0.090000        1.0080           0
     13666 WT5      1330     MECN     C2       CG1N1    0.360000       12.0110           0
     13667 WT5      1330     MECN     N3       NG1T1   -0.460000       14.0070           0
     13668 WT6      2        MECN     C1       CG331   -0.170000       12.0110           0
     13669 WT6      2        MECN     H11      HGA3     0.090000        1.0080           0
     13670 WT6      2        MECN     H12      HGA3     0.090000        1.0080           0
     13671 WT6      2        MECN     H13      HGA3     0.090000        1.0080           0
     13672 WT6      2        MECN     C2       CG1N1    0.360000       12.0110           0
     13673 WT6      2        MECN     N3       NG1T1   -0.460000       14.0070           0
     13674 WT6      3        MECN     C1       CG331   -0.170000       12.0110           0
     13675 WT6      3        MECN     H11      HGA3     0.090000        1.0080           0
     13676 WT6      3        MECN     H12      HGA3     0.090000        1.0080           0
     13677 WT6      3        MECN     H13      HGA3     0.090000        1.0080           0
     13678 WT6      3        MECN     C2       CG1N1    0.360000       12.0110           0
     13679 WT6      3        MECN     N3       NG1T1   -0.460000       14.0070           0
     13680 WT6      5        MECN     C1       CG331   -0.170000       12.0110           0
     13681 WT6      5        MECN     H11      HGA3     0.090000        1.0080           0
     13682 WT6      5        MECN     H12      HGA3     0.090000        1.0080           0
     13683 WT6      5        MECN     H13      HGA3     0.090000        1.0080           0
     13684 WT6      5        MECN     C2       CG1N1    0.360000       12.0110           0
     13685 WT6      5        MECN     N3       NG1T1   -0.460000       14.0070           0
     13686 WT6      10       MECN     C1       CG331   -0.170000       12.0110           0
     13687 WT6      10       MECN     H11      HGA3     0.090000        1.0080           0
     13688 WT6      10       MECN     H12      HGA3     0.090000        1.0080           0
     13689 WT6      10       MECN     H13      HGA3     0.090000        1.0080           0
     13690 WT6      10       MECN     C2       CG1N1    0.360000       12.0110           0
     13691 WT6      10       MECN     N3       NG1T1   -0.460000       14.0070           0
     13692 WT6      12       MECN     C1       CG331   -0.170000       12.0110           0
     13693 WT6      12       MECN     H11      HGA3     0.090000        1.0080           0
     13694 WT6      12       MECN     H12      HGA3     0.090000        1.0080           0
     13695 WT6      12       MECN     H13      HGA3     0.090000        1.0080           0
     13696 WT6      12       MECN     C2       CG1N1    0.360000       12.0110           0
     13697 WT6      12       MECN     N3       NG1T1   -0.460000       14.0070           0
     13698 WT6      13       MECN     C1       CG331   -0.170000       12.0110           0
     13699 WT6      13       MECN     H11      HGA3     0.090000        1.0080           0
     13700 WT6      13       MECN     H12      HGA3     0.090000        1.0080           0
     13701 WT6      13       MECN     H13      HGA3     0.090000        1.0080           0
     13702 WT6      13       MECN     C2       CG1N1    0.360000       12.0110           0
     13703 WT6      13       MECN     N3       NG1T1   -0.460000       14.0070           0
     13704 WT6      14       MECN     C1       CG331   -0.170000       12.0110           0
     13705 WT6      14       MECN     H11      HGA3     0.090000        1.0080           0
     13706 WT6      14       MECN     H12      HGA3     0.090000        1.0080           0
     13707 WT6      14       MECN     H13      HGA3     0.090000        1.0080           0
     13708 WT6      14       MECN     C2       CG1N1    0.360000       12.0110           0
     13709 WT6      14       MECN     N3       NG1T1   -0.460000       14.0070           0
     13710 WT6      17       MECN     C1       CG331   -0.170000       12.0110           0
     13711 WT6      17       MECN     H11      HGA3     0.090000        1.0080           0
     13712 WT6      17       MECN     H12      HGA3     0.090000        1.0080           0
     13713 WT6      17       MECN     H13      HGA3     0.090000        1.0080           0
     13714 WT6      17       MECN     C2       CG1N1    0.360000       12.0110           0
     13715 WT6      17       MECN     N3       NG1T1   -0.460000       14.0070           0
     13716 WT6      19       MECN     C1       CG331   -0.170000       12.0110           0
     13717 WT6      19       MECN     H11      HGA3     0.090000        1.0080           0
     13718 WT6      19       MECN     H12      HGA3     0.090000        1.0080           0
     13719 WT6      19       MECN     H13      HGA3     0.090000        1.0080           0
     13720 WT6      19       MECN     C2       CG1N1    0.360000       12.0110           0
     13721 WT6      19       MECN     N3       NG1T1   -0.460000       14.0070           0
     13722 WT6      21       MECN     C1       CG331   -0.170000       12.0110           0
     13723 WT6      21       MECN     H11      HGA3     0.090000        1.0080           0
     13724 WT6      21       MECN     H12      HGA3     0.090000        1.0080           0
     13725 WT6      21       MECN     H13      HGA3     0.090000        1.0080           0
     13726 WT6      21       MECN     C2       CG1N1    0.360000       12.0110           0
     13727 WT6      21       MECN     N3       NG1T1   -0.460000       14.0070           0
     13728 WT6      22       MECN     C1       CG331   -0.170000       12.0110           0
     13729 WT6      22       MECN     H11      HGA3     0.090000        1.0080           0
     13730 WT6      22       MECN     H12      HGA3     0.090000        1.0080           0
     13731 WT6      22       MECN     H13      HGA3     0.090000        1.0080           0
     13732 WT6      22       MECN     C2       CG1N1    0.360000       12.0110           0
     13733 WT6      22       MECN     N3       NG1T1   -0.460000       14.0070           0
     13734 WT6      24       MECN     C1       CG331   -0.170000       12.0110           0
     13735 WT6      24       MECN     H11      HGA3     0.090000        1.0080           0
     13736 WT6      24       MECN     H12      HGA3     0.090000        1.0080           0
     13737 WT6      24       MECN     H13      HGA3     0.090000        1.0080           0
     13738 WT6      24       MECN     C2       CG1N1    0.360000       12.0110           0
     13739 WT6      24       MECN     N3       NG1T1   -0.460000       14.0070           0
     13740 WT6      26       MECN     C1       CG331   -0.170000       12.0110           0
     13741 WT6      26       MECN     H11      HGA3     0.090000        1.0080           0
     13742 WT6      26       MECN     H12      HGA3     0.090000        1.0080           0
     13743 WT6      26       MECN     H13      HGA3     0.090000        1.0080           0
     13744 WT6      26       MECN     C2       CG1N1    0.360000       12.0110           0
     13745 WT6      26       MECN     N3       NG1T1   -0.460000       14.0070           0
     13746 WT6      27       MECN     C1       CG331   -0.170000       12.0110           0
     13747 WT6      27       MECN     H11      HGA3     0.090000        1.0080           0
     13748 WT6      27       MECN     H12      HGA3     0.090000        1.0080           0
     13749 WT6      27       MECN     H13      HGA3     0.090000        1.0080           0
     13750 WT6      27       MECN     C2       CG1N1    0.360000       12.0110           0
     13751 WT6      27       MECN     N3       NG1T1   -0.460000       14.0070           0
     13752 WT6      28       MECN     C1       CG331   -0.170000       12.0110           0
     13753 WT6      28       MECN     H11      HGA3     0.090000        1.0080           0
     13754 WT6      28       MECN     H12      HGA3     0.090000        1.0080           0
     13755 WT6      28       MECN     H13      HGA3     0.090000        1.0080           0
     13756 WT6      28       MECN     C2       CG1N1    0.360000       12.0110           0
     13757 WT6      28       MECN     N3       NG1T1   -0.460000       14.0070           0
     13758 WT6      44       MECN     C1       CG331   -0.170000       12.0110           0
     13759 WT6      44       MECN     H11      HGA3     0.090000        1.0080           0
     13760 WT6      44       MECN     H12      HGA3     0.090000        1.0080           0
     13761 WT6      44       MECN     H13      HGA3     0.090000        1.0080           0
     13762 WT6      44       MECN     C2       CG1N1    0.360000       12.0110           0
     13763 WT6      44       MECN     N3       NG1T1   -0.460000       14.0070           0
     13764 WT6      51       MECN     C1       CG331   -0.170000       12.0110           0
     13765 WT6      51       MECN     H11      HGA3     0.090000        1.0080           0
     13766 WT6      51       MECN     H12      HGA3     0.090000        1.0080           0
     13767 WT6      51       MECN     H13      HGA3     0.090000        1.0080           0
     13768 WT6      51       MECN     C2       CG1N1    0.360000       12.0110           0
     13769 WT6      51       MECN     N3       NG1T1   -0.460000       14.0070           0
     13770 WT6      53       MECN     C1       CG331   -0.170000       12.0110           0
     13771 WT6      53       MECN     H11      HGA3     0.090000        1.0080           0
     13772 WT6      53       MECN     H12      HGA3     0.090000        1.0080           0
     13773 WT6      53       MECN     H13      HGA3     0.090000        1.0080           0
     13774 WT6      53       MECN     C2       CG1N1    0.360000       12.0110           0
     13775 WT6      53       MECN     N3       NG1T1   -0.460000       14.0070           0
     13776 WT6      64       MECN     C1       CG331   -0.170000       12.0110           0
     13777 WT6      64       MECN     H11      HGA3     0.090000        1.0080           0
     13778 WT6      64       MECN     H12      HGA3     0.090000        1.0080           0
     13779 WT6      64       MECN     H13      HGA3     0.090000        1.0080           0
     13780 WT6      64       MECN     C2       CG1N1    0.360000       12.0110           0
     13781 WT6      64       MECN     N3       NG1T1   -0.460000       14.0070           0
     13782 WT6      65       MECN     C1       CG331   -0.170000       12.0110           0
     13783 WT6      65       MECN     H11      HGA3     0.090000        1.0080           0
     13784 WT6      65       MECN     H12      HGA3     0.090000        1.0080           0
     13785 WT6      65       MECN     H13      HGA3     0.090000        1.0080           0
     13786 WT6      65       MECN     C2       CG1N1    0.360000       12.0110           0
     13787 WT6      65       MECN     N3       NG1T1   -0.460000       14.0070           0
     13788 WT6      68       MECN     C1       CG331   -0.170000       12.0110           0
     13789 WT6      68       MECN     H11      HGA3     0.090000        1.0080           0
     13790 WT6      68       MECN     H12      HGA3     0.090000        1.0080           0
     13791 WT6      68       MECN     H13      HGA3     0.090000        1.0080           0
     13792 WT6      68       MECN     C2       CG1N1    0.360000       12.0110           0
     13793 WT6      68       MECN     N3       NG1T1   -0.460000       14.0070           0
     13794 WT6      69       MECN     C1       CG331   -0.170000       12.0110           0
     13795 WT6      69       MECN     H11      HGA3     0.090000        1.0080           0
     13796 WT6      69       MECN     H12      HGA3     0.090000        1.0080           0
     13797 WT6      69       MECN     H13      HGA3     0.090000        1.0080           0
     13798 WT6      69       MECN     C2       CG1N1    0.360000       12.0110           0
     13799 WT6      69       MECN     N3       NG1T1   -0.460000       14.0070           0
     13800 WT6      70       MECN     C1       CG331   -0.170000       12.0110           0
     13801 WT6      70       MECN     H11      HGA3     0.090000        1.0080           0
     13802 WT6      70       MECN     H12      HGA3     0.090000        1.0080           0
     13803 WT6      70       MECN     H13      HGA3     0.090000        1.0080           0
     13804 WT6      70       MECN     C2       CG1N1    0.360000       12.0110           0
     13805 WT6      70       MECN     N3       NG1T1   -0.460000       14.0070           0
     13806 WT6      73       MECN     C1       CG331   -0.170000       12.0110           0
     13807 WT6      73       MECN     H11      HGA3     0.090000        1.0080           0
     13808 WT6      73       MECN     H12      HGA3     0.090000        1.0080           0
     13809 WT6      73       MECN     H13      HGA3     0.090000        1.0080           0
     13810 WT6      73       MECN     C2       CG1N1    0.360000       12.0110           0
     13811 WT6      73       MECN     N3       NG1T1   -0.460000       14.0070           0
     13812 WT6      74       MECN     C1       CG331   -0.170000       12.0110           0
     13813 WT6      74       MECN     H11      HGA3     0.090000        1.0080           0
     13814 WT6      74       MECN     H12      HGA3     0.090000        1.0080           0
     13815 WT6      74       MECN     H13      HGA3     0.090000        1.0080           0
     13816 WT6      74       MECN     C2       CG1N1    0.360000       12.0110           0
     13817 WT6      74       MECN     N3       NG1T1   -0.460000       14.0070           0
     13818 WT6      76       MECN     C1       CG331   -0.170000       12.0110           0
     13819 WT6      76       MECN     H11      HGA3     0.090000        1.0080           0
     13820 WT6      76       MECN     H12      HGA3     0.090000        1.0080           0
     13821 WT6      76       MECN     H13      HGA3     0.090000        1.0080           0
     13822 WT6      76       MECN     C2       CG1N1    0.360000       12.0110           0
     13823 WT6      76       MECN     N3       NG1T1   -0.460000       14.0070           0
     13824 WT6      77       MECN     C1       CG331   -0.170000       12.0110           0
     13825 WT6      77       MECN     H11      HGA3     0.090000        1.0080           0
     13826 WT6      77       MECN     H12      HGA3     0.090000        1.0080           0
     13827 WT6      77       MECN     H13      HGA3     0.090000        1.0080           0
     13828 WT6      77       MECN     C2       CG1N1    0.360000       12.0110           0
     13829 WT6      77       MECN     N3       NG1T1   -0.460000       14.0070           0
     13830 WT6      85       MECN     C1       CG331   -0.170000       12.0110           0
     13831 WT6      85       MECN     H11      HGA3     0.090000        1.0080           0
     13832 WT6      85       MECN     H12      HGA3     0.090000        1.0080           0
     13833 WT6      85       MECN     H13      HGA3     0.090000        1.0080           0
     13834 WT6      85       MECN     C2       CG1N1    0.360000       12.0110           0
     13835 WT6      85       MECN     N3       NG1T1   -0.460000       14.0070           0
     13836 WT6      87       MECN     C1       CG331   -0.170000       12.0110           0
     13837 WT6      87       MECN     H11      HGA3     0.090000        1.0080           0
     13838 WT6      87       MECN     H12      HGA3     0.090000        1.0080           0
     13839 WT6      87       MECN     H13      HGA3     0.090000        1.0080           0
     13840 WT6      87       MECN     C2       CG1N1    0.360000       12.0110           0
     13841 WT6      87       MECN     N3       NG1T1   -0.460000       14.0070           0
     13842 WT6      98       MECN     C1       CG331   -0.170000       12.0110           0
     13843 WT6      98       MECN     H11      HGA3     0.090000        1.0080           0
     13844 WT6      98       MECN     H12      HGA3     0.090000        1.0080           0
     13845 WT6      98       MECN     H13      HGA3     0.090000        1.0080           0
     13846 WT6      98       MECN     C2       CG1N1    0.360000       12.0110           0
     13847 WT6      98       MECN     N3       NG1T1   -0.460000       14.0070           0
     13848 WT6      99       MECN     C1       CG331   -0.170000       12.0110           0
     13849 WT6      99       MECN     H11      HGA3     0.090000        1.0080           0
     13850 WT6      99       MECN     H12      HGA3     0.090000        1.0080           0
     13851 WT6      99       MECN     H13      HGA3     0.090000        1.0080           0
     13852 WT6      99       MECN     C2       CG1N1    0.360000       12.0110           0
     13853 WT6      99       MECN     N3       NG1T1   -0.460000       14.0070           0
     13854 WT6      102      MECN     C1       CG331   -0.170000       12.0110           0
     13855 WT6      102      MECN     H11      HGA3     0.090000        1.0080           0
     13856 WT6      102      MECN     H12      HGA3     0.090000        1.0080           0
     13857 WT6      102      MECN     H13      HGA3     0.090000        1.0080           0
     13858 WT6      102      MECN     C2       CG1N1    0.360000       12.0110           0
     13859 WT6      102      MECN     N3       NG1T1   -0.460000       14.0070           0
     13860 WT6      103      MECN     C1       CG331   -0.170000       12.0110           0
     13861 WT6      103      MECN     H11      HGA3     0.090000        1.0080           0
     13862 WT6      103      MECN     H12      HGA3     0.090000        1.0080           0
     13863 WT6      103      MECN     H13      HGA3     0.090000        1.0080           0
     13864 WT6      103      MECN     C2       CG1N1    0.360000       12.0110           0
     13865 WT6      103      MECN     N3       NG1T1   -0.460000       14.0070           0
     13866 WT6      109      MECN     C1       CG331   -0.170000       12.0110           0
     13867 WT6      109      MECN     H11      HGA3     0.090000        1.0080           0
     13868 WT6      109      MECN     H12      HGA3     0.090000        1.0080           0
     13869 WT6      109      MECN     H13      HGA3     0.090000        1.0080           0
     13870 WT6      109      MECN     C2       CG1N1    0.360000       12.0110           0
     13871 WT6      109      MECN     N3       NG1T1   -0.460000       14.0070           0
     13872 WT6      110      MECN     C1       CG331   -0.170000       12.0110           0
     13873 WT6      110      MECN     H11      HGA3     0.090000        1.0080           0
     13874 WT6      110      MECN     H12      HGA3     0.090000        1.0080           0
     13875 WT6      110      MECN     H13      HGA3     0.090000        1.0080           0
     13876 WT6      110      MECN     C2       CG1N1    0.360000       12.0110           0
     13877 WT6      110      MECN     N3       NG1T1   -0.460000       14.0070           0
     13878 WT6      112      MECN     C1       CG331   -0.170000       12.0110           0
     13879 WT6      112      MECN     H11      HGA3     0.090000        1.0080           0
     13880 WT6      112      MECN     H12      HGA3     0.090000        1.0080           0
     13881 WT6      112      MECN     H13      HGA3     0.090000        1.0080           0
     13882 WT6      112      MECN     C2       CG1N1    0.360000       12.0110           0
     13883 WT6      112      MECN     N3       NG1T1   -0.460000       14.0070           0
     13884 WT6      113      MECN     C1       CG331   -0.170000       12.0110           0
     13885 WT6      113      MECN     H11      HGA3     0.090000        1.0080           0
     13886 WT6      113      MECN     H12      HGA3     0.090000        1.0080           0
     13887 WT6      113      MECN     H13      HGA3     0.090000        1.0080           0
     13888 WT6      113      MECN     C2       CG1N1    0.360000       12.0110           0
     13889 WT6      113      MECN     N3       NG1T1   -0.460000       14.0070           0
     13890 WT6      114      MECN     C1       CG331   -0.170000       12.0110           0
     13891 WT6      114      MECN     H11      HGA3     0.090000        1.0080           0
     13892 WT6      114      MECN     H12      HGA3     0.090000        1.0080           0
     13893 WT6      114      MECN     H13      HGA3     0.090000        1.0080           0
     13894 WT6      114      MECN     C2       CG1N1    0.360000       12.0110           0
     13895 WT6      114      MECN     N3       NG1T1   -0.460000       14.0070           0
     13896 WT6      116      MECN     C1       CG331   -0.170000       12.0110           0
     13897 WT6      116      MECN     H11      HGA3     0.090000        1.0080           0
     13898 WT6      116      MECN     H12      HGA3     0.090000        1.0080           0
     13899 WT6      116      MECN     H13      HGA3     0.090000        1.0080           0
     13900 WT6      116      MECN     C2       CG1N1    0.360000       12.0110           0
     13901 WT6      116      MECN     N3       NG1T1   -0.460000       14.0070           0
     13902 WT6      123      MECN     C1       CG331   -0.170000       12.0110           0
     13903 WT6      123      MECN     H11      HGA3     0.090000        1.0080           0
     13904 WT6      123      MECN     H12      HGA3     0.090000        1.0080           0
     13905 WT6      123      MECN     H13      HGA3     0.090000        1.0080           0
     13906 WT6      123      MECN     C2       CG1N1    0.360000       12.0110           0
     13907 WT6      123      MECN     N3       NG1T1   -0.460000       14.0070           0
     13908 WT6      125      MECN     C1       CG331   -0.170000       12.0110           0
     13909 WT6      125      MECN     H11      HGA3     0.090000        1.0080           0
     13910 WT6      125      MECN     H12      HGA3     0.090000        1.0080           0
     13911 WT6      125      MECN     H13      HGA3     0.090000        1.0080           0
     13912 WT6      125      MECN     C2       CG1N1    0.360000       12.0110           0
     13913 WT6      125      MECN     N3       NG1T1   -0.460000       14.0070           0
     13914 WT6      127      MECN     C1       CG331   -0.170000       12.0110           0
     13915 WT6      127      MECN     H11      HGA3     0.090000        1.0080           0
     13916 WT6      127      MECN     H12      HGA3     0.090000        1.0080           0
     13917 WT6      127      MECN     H13      HGA3     0.090000        1.0080           0
     13918 WT6      127      MECN     C2       CG1N1    0.360000       12.0110           0
     13919 WT6      127      MECN     N3       NG1T1   -0.460000       14.0070           0
     13920 WT6      128      MECN     C1       CG331   -0.170000       12.0110           0
     13921 WT6      128      MECN     H11      HGA3     0.090000        1.0080           0
     13922 WT6      128      MECN     H12      HGA3     0.090000        1.0080           0
     13923 WT6      128      MECN     H13      HGA3     0.090000        1.0080           0
     13924 WT6      128      MECN     C2       CG1N1    0.360000       12.0110           0
     13925 WT6      128      MECN     N3       NG1T1   -0.460000       14.0070           0
     13926 WT6      132      MECN     C1       CG331   -0.170000       12.0110           0
     13927 WT6      132      MECN     H11      HGA3     0.090000        1.0080           0
     13928 WT6      132      MECN     H12      HGA3     0.090000        1.0080           0
     13929 WT6      132      MECN     H13      HGA3     0.090000        1.0080           0
     13930 WT6      132      MECN     C2       CG1N1    0.360000       12.0110           0
     13931 WT6      132      MECN     N3       NG1T1   -0.460000       14.0070           0
     13932 WT6      139      MECN     C1       CG331   -0.170000       12.0110           0
     13933 WT6      139      MECN     H11      HGA3     0.090000        1.0080           0
     13934 WT6      139      MECN     H12      HGA3     0.090000        1.0080           0
     13935 WT6      139      MECN     H13      HGA3     0.090000        1.0080           0
     13936 WT6      139      MECN     C2       CG1N1    0.360000       12.0110           0
     13937 WT6      139      MECN     N3       NG1T1   -0.460000       14.0070           0
     13938 WT6      140      MECN     C1       CG331   -0.170000       12.0110           0
     13939 WT6      140      MECN     H11      HGA3     0.090000        1.0080           0
     13940 WT6      140      MECN     H12      HGA3     0.090000        1.0080           0
     13941 WT6      140      MECN     H13      HGA3     0.090000        1.0080           0
     13942 WT6      140      MECN     C2       CG1N1    0.360000       12.0110           0
     13943 WT6      140      MECN     N3       NG1T1   -0.460000       14.0070           0
     13944 WT6      155      MECN     C1       CG331   -0.170000       12.0110           0
     13945 WT6      155      MECN     H11      HGA3     0.090000        1.0080           0
     13946 WT6      155      MECN     H12      HGA3     0.090000        1.0080           0
     13947 WT6      155      MECN     H13      HGA3     0.090000        1.0080           0
     13948 WT6      155      MECN     C2       CG1N1    0.360000       12.0110           0
     13949 WT6      155      MECN     N3       NG1T1   -0.460000       14.0070           0
     13950 WT6      156      MECN     C1       CG331   -0.170000       12.0110           0
     13951 WT6      156      MECN     H11      HGA3     0.090000        1.0080           0
     13952 WT6      156      MECN     H12      HGA3     0.090000        1.0080           0
     13953 WT6      156      MECN     H13      HGA3     0.090000        1.0080           0
     13954 WT6      156      MECN     C2       CG1N1    0.360000       12.0110           0
     13955 WT6      156      MECN     N3       NG1T1   -0.460000       14.0070           0
     13956 WT6      157      MECN     C1       CG331   -0.170000       12.0110           0
     13957 WT6      157      MECN     H11      HGA3     0.090000        1.0080           0
     13958 WT6      157      MECN     H12      HGA3     0.090000        1.0080           0
     13959 WT6      157      MECN     H13      HGA3     0.090000        1.0080           0
     13960 WT6      157      MECN     C2       CG1N1    0.360000       12.0110           0
     13961 WT6      157      MECN     N3       NG1T1   -0.460000       14.0070           0
     13962 WT6      158      MECN     C1       CG331   -0.170000       12.0110           0
     13963 WT6      158      MECN     H11      HGA3     0.090000        1.0080           0
     13964 WT6      158      MECN     H12      HGA3     0.090000        1.0080           0
     13965 WT6      158      MECN     H13      HGA3     0.090000        1.0080           0
     13966 WT6      158      MECN     C2       CG1N1    0.360000       12.0110           0
     13967 WT6      158      MECN     N3       NG1T1   -0.460000       14.0070           0
     13968 WT6      160      MECN     C1       CG331   -0.170000       12.0110           0
     13969 WT6      160      MECN     H11      HGA3     0.090000        1.0080           0
     13970 WT6      160      MECN     H12      HGA3     0.090000        1.0080           0
     13971 WT6      160      MECN     H13      HGA3     0.090000        1.0080           0
     13972 WT6      160      MECN     C2       CG1N1    0.360000       12.0110           0
     13973 WT6      160      MECN     N3       NG1T1   -0.460000       14.0070           0
     13974 WT6      161      MECN     C1       CG331   -0.170000       12.0110           0
     13975 WT6      161      MECN     H11      HGA3     0.090000        1.0080           0
     13976 WT6      161      MECN     H12      HGA3     0.090000        1.0080           0
     13977 WT6      161      MECN     H13      HGA3     0.090000        1.0080           0
     13978 WT6      161      MECN     C2       CG1N1    0.360000       12.0110           0
     13979 WT6      161      MECN     N3       NG1T1   -0.460000       14.0070           0
     13980 WT6      167      MECN     C1       CG331   -0.170000       12.0110           0
     13981 WT6      167      MECN     H11      HGA3     0.090000        1.0080           0
     13982 WT6      167      MECN     H12      HGA3     0.090000        1.0080           0
     13983 WT6      167      MECN     H13      HGA3     0.090000        1.0080           0
     13984 WT6      167      MECN     C2       CG1N1    0.360000       12.0110           0
     13985 WT6      167      MECN     N3       NG1T1   -0.460000       14.0070           0
     13986 WT6      169      MECN     C1       CG331   -0.170000       12.0110           0
     13987 WT6      169      MECN     H11      HGA3     0.090000        1.0080           0
     13988 WT6      169      MECN     H12      HGA3     0.090000        1.0080           0
     13989 WT6      169      MECN     H13      HGA3     0.090000        1.0080           0
     13990 WT6      169      MECN     C2       CG1N1    0.360000       12.0110           0
     13991 WT6      169      MECN     N3       NG1T1   -0.460000       14.0070           0
     13992 WT6      170      MECN     C1       CG331   -0.170000       12.0110           0
     13993 WT6      170      MECN     H11      HGA3     0.090000        1.0080           0
     13994 WT6      170      MECN     H12      HGA3     0.090000        1.0080           0
     13995 WT6      170      MECN     H13      HGA3     0.090000        1.0080           0
     13996 WT6      170      MECN     C2       CG1N1    0.360000       12.0110           0
     13997 WT6      170      MECN     N3       NG1T1   -0.460000       14.0070           0
     13998 WT6      172      MECN     C1       CG331   -0.170000       12.0110           0
     13999 WT6      172      MECN     H11      HGA3     0.090000        1.0080           0
     14000 WT6      172      MECN     H12      HGA3     0.090000        1.0080           0
     14001 WT6      172      MECN     H13      HGA3     0.090000        1.0080           0
     14002 WT6      172      MECN     C2       CG1N1    0.360000       12.0110           0
     14003 WT6      172      MECN     N3       NG1T1   -0.460000       14.0070           0
     14004 WT6      174      MECN     C1       CG331   -0.170000       12.0110           0
     14005 WT6      174      MECN     H11      HGA3     0.090000        1.0080           0
     14006 WT6      174      MECN     H12      HGA3     0.090000        1.0080           0
     14007 WT6      174      MECN     H13      HGA3     0.090000        1.0080           0
     14008 WT6      174      MECN     C2       CG1N1    0.360000       12.0110           0
     14009 WT6      174      MECN     N3       NG1T1   -0.460000       14.0070           0
     14010 WT6      176      MECN     C1       CG331   -0.170000       12.0110           0
     14011 WT6      176      MECN     H11      HGA3     0.090000        1.0080           0
     14012 WT6      176      MECN     H12      HGA3     0.090000        1.0080           0
     14013 WT6      176      MECN     H13      HGA3     0.090000        1.0080           0
     14014 WT6      176      MECN     C2       CG1N1    0.360000       12.0110           0
     14015 WT6      176      MECN     N3       NG1T1   -0.460000       14.0070           0
     14016 WT6      177      MECN     C1       CG331   -0.170000       12.0110           0
     14017 WT6      177      MECN     H11      HGA3     0.090000        1.0080           0
     14018 WT6      177      MECN     H12      HGA3     0.090000        1.0080           0
     14019 WT6      177      MECN     H13      HGA3     0.090000        1.0080           0
     14020 WT6      177      MECN     C2       CG1N1    0.360000       12.0110           0
     14021 WT6      177      MECN     N3       NG1T1   -0.460000       14.0070           0
     14022 WT6      180      MECN     C1       CG331   -0.170000       12.0110           0
     14023 WT6      180      MECN     H11      HGA3     0.090000        1.0080           0
     14024 WT6      180      MECN     H12      HGA3     0.090000        1.0080           0
     14025 WT6      180      MECN     H13      HGA3     0.090000        1.0080           0
     14026 WT6      180      MECN     C2       CG1N1    0.360000       12.0110           0
     14027 WT6      180      MECN     N3       NG1T1   -0.460000       14.0070           0
     14028 WT6      183      MECN     C1       CG331   -0.170000       12.0110           0
     14029 WT6      183      MECN     H11      HGA3     0.090000        1.0080           0
     14030 WT6      183      MECN     H12      HGA3     0.090000        1.0080           0
     14031 WT6      183      MECN     H13      HGA3     0.090000        1.0080           0
     14032 WT6      183      MECN     C2       CG1N1    0.360000       12.0110           0
     14033 WT6      183      MECN     N3       NG1T1   -0.460000       14.0070           0
     14034 WT6      185      MECN     C1       CG331   -0.170000       12.0110           0
     14035 WT6      185      MECN     H11      HGA3     0.090000        1.0080           0
     14036 WT6      185      MECN     H12      HGA3     0.090000        1.0080           0
     14037 WT6      185      MECN     H13      HGA3     0.090000        1.0080           0
     14038 WT6      185      MECN     C2       CG1N1    0.360000       12.0110           0
     14039 WT6      185      MECN     N3       NG1T1   -0.460000       14.0070           0
     14040 WT6      187      MECN     C1       CG331   -0.170000       12.0110           0
     14041 WT6      187      MECN     H11      HGA3     0.090000        1.0080           0
     14042 WT6      187      MECN     H12      HGA3     0.090000        1.0080           0
     14043 WT6      187      MECN     H13      HGA3     0.090000        1.0080           0
     14044 WT6      187      MECN     C2       CG1N1    0.360000       12.0110           0
     14045 WT6      187      MECN     N3       NG1T1   -0.460000       14.0070           0
     14046 WT6      188      MECN     C1       CG331   -0.170000       12.0110           0
     14047 WT6      188      MECN     H11      HGA3     0.090000        1.0080           0
     14048 WT6      188      MECN     H12      HGA3     0.090000        1.0080           0
     14049 WT6      188      MECN     H13      HGA3     0.090000        1.0080           0
     14050 WT6      188      MECN     C2       CG1N1    0.360000       12.0110           0
     14051 WT6      188      MECN     N3       NG1T1   -0.460000       14.0070           0
     14052 WT6      193      MECN     C1       CG331   -0.170000       12.0110           0
     14053 WT6      193      MECN     H11      HGA3     0.090000        1.0080           0
     14054 WT6      193      MECN     H12      HGA3     0.090000        1.0080           0
     14055 WT6      193      MECN     H13      HGA3     0.090000        1.0080           0
     14056 WT6      193      MECN     C2       CG1N1    0.360000       12.0110           0
     14057 WT6      193      MECN     N3       NG1T1   -0.460000       14.0070           0
     14058 WT6      195      MECN     C1       CG331   -0.170000       12.0110           0
     14059 WT6      195      MECN     H11      HGA3     0.090000        1.0080           0
     14060 WT6      195      MECN     H12      HGA3     0.090000        1.0080           0
     14061 WT6      195      MECN     H13      HGA3     0.090000        1.0080           0
     14062 WT6      195      MECN     C2       CG1N1    0.360000       12.0110           0
     14063 WT6      195      MECN     N3       NG1T1   -0.460000       14.0070           0
     14064 WT6      206      MECN     C1       CG331   -0.170000       12.0110           0
     14065 WT6      206      MECN     H11      HGA3     0.090000        1.0080           0
     14066 WT6      206      MECN     H12      HGA3     0.090000        1.0080           0
     14067 WT6      206      MECN     H13      HGA3     0.090000        1.0080           0
     14068 WT6      206      MECN     C2       CG1N1    0.360000       12.0110           0
     14069 WT6      206      MECN     N3       NG1T1   -0.460000       14.0070           0
     14070 WT6      210      MECN     C1       CG331   -0.170000       12.0110           0
     14071 WT6      210      MECN     H11      HGA3     0.090000        1.0080           0
     14072 WT6      210      MECN     H12      HGA3     0.090000        1.0080           0
     14073 WT6      210      MECN     H13      HGA3     0.090000        1.0080           0
     14074 WT6      210      MECN     C2       CG1N1    0.360000       12.0110           0
     14075 WT6      210      MECN     N3       NG1T1   -0.460000       14.0070           0
     14076 WT6      211      MECN     C1       CG331   -0.170000       12.0110           0
     14077 WT6      211      MECN     H11      HGA3     0.090000        1.0080           0
     14078 WT6      211      MECN     H12      HGA3     0.090000        1.0080           0
     14079 WT6      211      MECN     H13      HGA3     0.090000        1.0080           0
     14080 WT6      211      MECN     C2       CG1N1    0.360000       12.0110           0
     14081 WT6      211      MECN     N3       NG1T1   -0.460000       14.0070           0
     14082 WT6      213      MECN     C1       CG331   -0.170000       12.0110           0
     14083 WT6      213      MECN     H11      HGA3     0.090000        1.0080           0
     14084 WT6      213      MECN     H12      HGA3     0.090000        1.0080           0
     14085 WT6      213      MECN     H13      HGA3     0.090000        1.0080           0
     14086 WT6      213      MECN     C2       CG1N1    0.360000       12.0110           0
     14087 WT6      213      MECN     N3       NG1T1   -0.460000       14.0070           0
     14088 WT6      214      MECN     C1       CG331   -0.170000       12.0110           0
     14089 WT6      214      MECN     H11      HGA3     0.090000        1.0080           0
     14090 WT6      214      MECN     H12      HGA3     0.090000        1.0080           0
     14091 WT6      214      MECN     H13      HGA3     0.090000        1.0080           0
     14092 WT6      214      MECN     C2       CG1N1    0.360000       12.0110           0
     14093 WT6      214      MECN     N3       NG1T1   -0.460000       14.0070           0
     14094 WT6      220      MECN     C1       CG331   -0.170000       12.0110           0
     14095 WT6      220      MECN     H11      HGA3     0.090000        1.0080           0
     14096 WT6      220      MECN     H12      HGA3     0.090000        1.0080           0
     14097 WT6      220      MECN     H13      HGA3     0.090000        1.0080           0
     14098 WT6      220      MECN     C2       CG1N1    0.360000       12.0110           0
     14099 WT6      220      MECN     N3       NG1T1   -0.460000       14.0070           0
     14100 WT6      222      MECN     C1       CG331   -0.170000       12.0110           0
     14101 WT6      222      MECN     H11      HGA3     0.090000        1.0080           0
     14102 WT6      222      MECN     H12      HGA3     0.090000        1.0080           0
     14103 WT6      222      MECN     H13      HGA3     0.090000        1.0080           0
     14104 WT6      222      MECN     C2       CG1N1    0.360000       12.0110           0
     14105 WT6      222      MECN     N3       NG1T1   -0.460000       14.0070           0
     14106 WT6      224      MECN     C1       CG331   -0.170000       12.0110           0
     14107 WT6      224      MECN     H11      HGA3     0.090000        1.0080           0
     14108 WT6      224      MECN     H12      HGA3     0.090000        1.0080           0
     14109 WT6      224      MECN     H13      HGA3     0.090000        1.0080           0
     14110 WT6      224      MECN     C2       CG1N1    0.360000       12.0110           0
     14111 WT6      224      MECN     N3       NG1T1   -0.460000       14.0070           0
     14112 WT6      225      MECN     C1       CG331   -0.170000       12.0110           0
     14113 WT6      225      MECN     H11      HGA3     0.090000        1.0080           0
     14114 WT6      225      MECN     H12      HGA3     0.090000        1.0080           0
     14115 WT6      225      MECN     H13      HGA3     0.090000        1.0080           0
     14116 WT6      225      MECN     C2       CG1N1    0.360000       12.0110           0
     14117 WT6      225      MECN     N3       NG1T1   -0.460000       14.0070           0
     14118 WT6      226      MECN     C1       CG331   -0.170000       12.0110           0
     14119 WT6      226      MECN     H11      HGA3     0.090000        1.0080           0
     14120 WT6      226      MECN     H12      HGA3     0.090000        1.0080           0
     14121 WT6      226      MECN     H13      HGA3     0.090000        1.0080           0
     14122 WT6      226      MECN     C2       CG1N1    0.360000       12.0110           0
     14123 WT6      226      MECN     N3       NG1T1   -0.460000       14.0070           0
     14124 WT6      227      MECN     C1       CG331   -0.170000       12.0110           0
     14125 WT6      227      MECN     H11      HGA3     0.090000        1.0080           0
     14126 WT6      227      MECN     H12      HGA3     0.090000        1.0080           0
     14127 WT6      227      MECN     H13      HGA3     0.090000        1.0080           0
     14128 WT6      227      MECN     C2       CG1N1    0.360000       12.0110           0
     14129 WT6      227      MECN     N3       NG1T1   -0.460000       14.0070           0
     14130 WT6      228      MECN     C1       CG331   -0.170000       12.0110           0
     14131 WT6      228      MECN     H11      HGA3     0.090000        1.0080           0
     14132 WT6      228      MECN     H12      HGA3     0.090000        1.0080           0
     14133 WT6      228      MECN     H13      HGA3     0.090000        1.0080           0
     14134 WT6      228      MECN     C2       CG1N1    0.360000       12.0110           0
     14135 WT6      228      MECN     N3       NG1T1   -0.460000       14.0070           0
     14136 WT6      229      MECN     C1       CG331   -0.170000       12.0110           0
     14137 WT6      229      MECN     H11      HGA3     0.090000        1.0080           0
     14138 WT6      229      MECN     H12      HGA3     0.090000        1.0080           0
     14139 WT6      229      MECN     H13      HGA3     0.090000        1.0080           0
     14140 WT6      229      MECN     C2       CG1N1    0.360000       12.0110           0
     14141 WT6      229      MECN     N3       NG1T1   -0.460000       14.0070           0
     14142 WT6      234      MECN     C1       CG331   -0.170000       12.0110           0
     14143 WT6      234      MECN     H11      HGA3     0.090000        1.0080           0
     14144 WT6      234      MECN     H12      HGA3     0.090000        1.0080           0
     14145 WT6      234      MECN     H13      HGA3     0.090000        1.0080           0
     14146 WT6      234      MECN     C2       CG1N1    0.360000       12.0110           0
     14147 WT6      234      MECN     N3       NG1T1   -0.460000       14.0070           0
     14148 WT6      236      MECN     C1       CG331   -0.170000       12.0110           0
     14149 WT6      236      MECN     H11      HGA3     0.090000        1.0080           0
     14150 WT6      236      MECN     H12      HGA3     0.090000        1.0080           0
     14151 WT6      236      MECN     H13      HGA3     0.090000        1.0080           0
     14152 WT6      236      MECN     C2       CG1N1    0.360000       12.0110           0
     14153 WT6      236      MECN     N3       NG1T1   -0.460000       14.0070           0
     14154 WT6      237      MECN     C1       CG331   -0.170000       12.0110           0
     14155 WT6      237      MECN     H11      HGA3     0.090000        1.0080           0
     14156 WT6      237      MECN     H12      HGA3     0.090000        1.0080           0
     14157 WT6      237      MECN     H13      HGA3     0.090000        1.0080           0
     14158 WT6      237      MECN     C2       CG1N1    0.360000       12.0110           0
     14159 WT6      237      MECN     N3       NG1T1   -0.460000       14.0070           0
     14160 WT6      238      MECN     C1       CG331   -0.170000       12.0110           0
     14161 WT6      238      MECN     H11      HGA3     0.090000        1.0080           0
     14162 WT6      238      MECN     H12      HGA3     0.090000        1.0080           0
     14163 WT6      238      MECN     H13      HGA3     0.090000        1.0080           0
     14164 WT6      238      MECN     C2       CG1N1    0.360000       12.0110           0
     14165 WT6      238      MECN     N3       NG1T1   -0.460000       14.0070           0
     14166 WT6      239      MECN     C1       CG331   -0.170000       12.0110           0
     14167 WT6      239      MECN     H11      HGA3     0.090000        1.0080           0
     14168 WT6      239      MECN     H12      HGA3     0.090000        1.0080           0
     14169 WT6      239      MECN     H13      HGA3     0.090000        1.0080           0
     14170 WT6      239      MECN     C2       CG1N1    0.360000       12.0110           0
     14171 WT6      239      MECN     N3       NG1T1   -0.460000       14.0070           0
     14172 WT6      240      MECN     C1       CG331   -0.170000       12.0110           0
     14173 WT6      240      MECN     H11      HGA3     0.090000        1.0080           0
     14174 WT6      240      MECN     H12      HGA3     0.090000        1.0080           0
     14175 WT6      240      MECN     H13      HGA3     0.090000        1.0080           0
     14176 WT6      240      MECN     C2       CG1N1    0.360000       12.0110           0
     14177 WT6      240      MECN     N3       NG1T1   -0.460000       14.0070           0
     14178 WT6      242      MECN     C1       CG331   -0.170000       12.0110           0
     14179 WT6      242      MECN     H11      HGA3     0.090000        1.0080           0
     14180 WT6      242      MECN     H12      HGA3     0.090000        1.0080           0
     14181 WT6      242      MECN     H13      HGA3     0.090000        1.0080           0
     14182 WT6      242      MECN     C2       CG1N1    0.360000       12.0110           0
     14183 WT6      242      MECN     N3       NG1T1   -0.460000       14.0070           0
     14184 WT6      249      MECN     C1       CG331   -0.170000       12.0110           0
     14185 WT6      249      MECN     H11      HGA3     0.090000        1.0080           0
     14186 WT6      249      MECN     H12      HGA3     0.090000        1.0080           0
     14187 WT6      249      MECN     H13      HGA3     0.090000        1.0080           0
     14188 WT6      249      MECN     C2       CG1N1    0.360000       12.0110           0
     14189 WT6      249      MECN     N3       NG1T1   -0.460000       14.0070           0
     14190 WT6      250      MECN     C1       CG331   -0.170000       12.0110           0
     14191 WT6      250      MECN     H11      HGA3     0.090000        1.0080           0
     14192 WT6      250      MECN     H12      HGA3     0.090000        1.0080           0
     14193 WT6      250      MECN     H13      HGA3     0.090000        1.0080           0
     14194 WT6      250      MECN     C2       CG1N1    0.360000       12.0110           0
     14195 WT6      250      MECN     N3       NG1T1   -0.460000       14.0070           0
     14196 WT6      254      MECN     C1       CG331   -0.170000       12.0110           0
     14197 WT6      254      MECN     H11      HGA3     0.090000        1.0080           0
     14198 WT6      254      MECN     H12      HGA3     0.090000        1.0080           0
     14199 WT6      254      MECN     H13      HGA3     0.090000        1.0080           0
     14200 WT6      254      MECN     C2       CG1N1    0.360000       12.0110           0
     14201 WT6      254      MECN     N3       NG1T1   -0.460000       14.0070           0
     14202 WT6      255      MECN     C1       CG331   -0.170000       12.0110           0
     14203 WT6      255      MECN     H11      HGA3     0.090000        1.0080           0
     14204 WT6      255      MECN     H12      HGA3     0.090000        1.0080           0
     14205 WT6      255      MECN     H13      HGA3     0.090000        1.0080           0
     14206 WT6      255      MECN     C2       CG1N1    0.360000       12.0110           0
     14207 WT6      255      MECN     N3       NG1T1   -0.460000       14.0070           0
     14208 WT6      257      MECN     C1       CG331   -0.170000       12.0110           0
     14209 WT6      257      MECN     H11      HGA3     0.090000        1.0080           0
     14210 WT6      257      MECN     H12      HGA3     0.090000        1.0080           0
     14211 WT6      257      MECN     H13      HGA3     0.090000        1.0080           0
     14212 WT6      257      MECN     C2       CG1N1    0.360000       12.0110           0
     14213 WT6      257      MECN     N3       NG1T1   -0.460000       14.0070           0
     14214 WT6      259      MECN     C1       CG331   -0.170000       12.0110           0
     14215 WT6      259      MECN     H11      HGA3     0.090000        1.0080           0
     14216 WT6      259      MECN     H12      HGA3     0.090000        1.0080           0
     14217 WT6      259      MECN     H13      HGA3     0.090000        1.0080           0
     14218 WT6      259      MECN     C2       CG1N1    0.360000       12.0110           0
     14219 WT6      259      MECN     N3       NG1T1   -0.460000       14.0070           0
     14220 WT6      261      MECN     C1       CG331   -0.170000       12.0110           0
     14221 WT6      261      MECN     H11      HGA3     0.090000        1.0080           0
     14222 WT6      261      MECN     H12      HGA3     0.090000        1.0080           0
     14223 WT6      261      MECN     H13      HGA3     0.090000        1.0080           0
     14224 WT6      261      MECN     C2       CG1N1    0.360000       12.0110           0
     14225 WT6      261      MECN     N3       NG1T1   -0.460000       14.0070           0
     14226 WT6      268      MECN     C1       CG331   -0.170000       12.0110           0
     14227 WT6      268      MECN     H11      HGA3     0.090000        1.0080           0
     14228 WT6      268      MECN     H12      HGA3     0.090000        1.0080           0
     14229 WT6      268      MECN     H13      HGA3     0.090000        1.0080           0
     14230 WT6      268      MECN     C2       CG1N1    0.360000       12.0110           0
     14231 WT6      268      MECN     N3       NG1T1   -0.460000       14.0070           0
     14232 WT6      269      MECN     C1       CG331   -0.170000       12.0110           0
     14233 WT6      269      MECN     H11      HGA3     0.090000        1.0080           0
     14234 WT6      269      MECN     H12      HGA3     0.090000        1.0080           0
     14235 WT6      269      MECN     H13      HGA3     0.090000        1.0080           0
     14236 WT6      269      MECN     C2       CG1N1    0.360000       12.0110           0
     14237 WT6      269      MECN     N3       NG1T1   -0.460000       14.0070           0
     14238 WT6      277      MECN     C1       CG331   -0.170000       12.0110           0
     14239 WT6      277      MECN     H11      HGA3     0.090000        1.0080           0
     14240 WT6      277      MECN     H12      HGA3     0.090000        1.0080           0
     14241 WT6      277      MECN     H13      HGA3     0.090000        1.0080           0
     14242 WT6      277      MECN     C2       CG1N1    0.360000       12.0110           0
     14243 WT6      277      MECN     N3       NG1T1   -0.460000       14.0070           0
     14244 WT6      282      MECN     C1       CG331   -0.170000       12.0110           0
     14245 WT6      282      MECN     H11      HGA3     0.090000        1.0080           0
     14246 WT6      282      MECN     H12      HGA3     0.090000        1.0080           0
     14247 WT6      282      MECN     H13      HGA3     0.090000        1.0080           0
     14248 WT6      282      MECN     C2       CG1N1    0.360000       12.0110           0
     14249 WT6      282      MECN     N3       NG1T1   -0.460000       14.0070           0
     14250 WT6      284      MECN     C1       CG331   -0.170000       12.0110           0
     14251 WT6      284      MECN     H11      HGA3     0.090000        1.0080           0
     14252 WT6      284      MECN     H12      HGA3     0.090000        1.0080           0
     14253 WT6      284      MECN     H13      HGA3     0.090000        1.0080           0
     14254 WT6      284      MECN     C2       CG1N1    0.360000       12.0110           0
     14255 WT6      284      MECN     N3       NG1T1   -0.460000       14.0070           0
     14256 WT6      286      MECN     C1       CG331   -0.170000       12.0110           0
     14257 WT6      286      MECN     H11      HGA3     0.090000        1.0080           0
     14258 WT6      286      MECN     H12      HGA3     0.090000        1.0080           0
     14259 WT6      286      MECN     H13      HGA3     0.090000        1.0080           0
     14260 WT6      286      MECN     C2       CG1N1    0.360000       12.0110           0
     14261 WT6      286      MECN     N3       NG1T1   -0.460000       14.0070           0
     14262 WT6      291      MECN     C1       CG331   -0.170000       12.0110           0
     14263 WT6      291      MECN     H11      HGA3     0.090000        1.0080           0
     14264 WT6      291      MECN     H12      HGA3     0.090000        1.0080           0
     14265 WT6      291      MECN     H13      HGA3     0.090000        1.0080           0
     14266 WT6      291      MECN     C2       CG1N1    0.360000       12.0110           0
     14267 WT6      291      MECN     N3       NG1T1   -0.460000       14.0070           0
     14268 WT6      293      MECN     C1       CG331   -0.170000       12.0110           0
     14269 WT6      293      MECN     H11      HGA3     0.090000        1.0080           0
     14270 WT6      293      MECN     H12      HGA3     0.090000        1.0080           0
     14271 WT6      293      MECN     H13      HGA3     0.090000        1.0080           0
     14272 WT6      293      MECN     C2       CG1N1    0.360000       12.0110           0
     14273 WT6      293      MECN     N3       NG1T1   -0.460000       14.0070           0
     14274 WT6      296      MECN     C1       CG331   -0.170000       12.0110           0
     14275 WT6      296      MECN     H11      HGA3     0.090000        1.0080           0
     14276 WT6      296      MECN     H12      HGA3     0.090000        1.0080           0
     14277 WT6      296      MECN     H13      HGA3     0.090000        1.0080           0
     14278 WT6      296      MECN     C2       CG1N1    0.360000       12.0110           0
     14279 WT6      296      MECN     N3       NG1T1   -0.460000       14.0070           0
     14280 WT6      302      MECN     C1       CG331   -0.170000       12.0110           0
     14281 WT6      302      MECN     H11      HGA3     0.090000        1.0080           0
     14282 WT6      302      MECN     H12      HGA3     0.090000        1.0080           0
     14283 WT6      302      MECN     H13      HGA3     0.090000        1.0080           0
     14284 WT6      302      MECN     C2       CG1N1    0.360000       12.0110           0
     14285 WT6      302      MECN     N3       NG1T1   -0.460000       14.0070           0
     14286 WT6      303      MECN     C1       CG331   -0.170000       12.0110           0
     14287 WT6      303      MECN     H11      HGA3     0.090000        1.0080           0
     14288 WT6      303      MECN     H12      HGA3     0.090000        1.0080           0
     14289 WT6      303      MECN     H13      HGA3     0.090000        1.0080           0
     14290 WT6      303      MECN     C2       CG1N1    0.360000       12.0110           0
     14291 WT6      303      MECN     N3       NG1T1   -0.460000       14.0070           0
     14292 WT6      306      MECN     C1       CG331   -0.170000       12.0110           0
     14293 WT6      306      MECN     H11      HGA3     0.090000        1.0080           0
     14294 WT6      306      MECN     H12      HGA3     0.090000        1.0080           0
     14295 WT6      306      MECN     H13      HGA3     0.090000        1.0080           0
     14296 WT6      306      MECN     C2       CG1N1    0.360000       12.0110           0
     14297 WT6      306      MECN     N3       NG1T1   -0.460000       14.0070           0
     14298 WT6      308      MECN     C1       CG331   -0.170000       12.0110           0
     14299 WT6      308      MECN     H11      HGA3     0.090000        1.0080           0
     14300 WT6      308      MECN     H12      HGA3     0.090000        1.0080           0
     14301 WT6      308      MECN     H13      HGA3     0.090000        1.0080           0
     14302 WT6      308      MECN     C2       CG1N1    0.360000       12.0110           0
     14303 WT6      308      MECN     N3       NG1T1   -0.460000       14.0070           0
     14304 WT6      316      MECN     C1       CG331   -0.170000       12.0110           0
     14305 WT6      316      MECN     H11      HGA3     0.090000        1.0080           0
     14306 WT6      316      MECN     H12      HGA3     0.090000        1.0080           0
     14307 WT6      316      MECN     H13      HGA3     0.090000        1.0080           0
     14308 WT6      316      MECN     C2       CG1N1    0.360000       12.0110           0
     14309 WT6      316      MECN     N3       NG1T1   -0.460000       14.0070           0
     14310 WT6      320      MECN     C1       CG331   -0.170000       12.0110           0
     14311 WT6      320      MECN     H11      HGA3     0.090000        1.0080           0
     14312 WT6      320      MECN     H12      HGA3     0.090000        1.0080           0
     14313 WT6      320      MECN     H13      HGA3     0.090000        1.0080           0
     14314 WT6      320      MECN     C2       CG1N1    0.360000       12.0110           0
     14315 WT6      320      MECN     N3       NG1T1   -0.460000       14.0070           0
     14316 WT6      321      MECN     C1       CG331   -0.170000       12.0110           0
     14317 WT6      321      MECN     H11      HGA3     0.090000        1.0080           0
     14318 WT6      321      MECN     H12      HGA3     0.090000        1.0080           0
     14319 WT6      321      MECN     H13      HGA3     0.090000        1.0080           0
     14320 WT6      321      MECN     C2       CG1N1    0.360000       12.0110           0
     14321 WT6      321      MECN     N3       NG1T1   -0.460000       14.0070           0
     14322 WT6      323      MECN     C1       CG331   -0.170000       12.0110           0
     14323 WT6      323      MECN     H11      HGA3     0.090000        1.0080           0
     14324 WT6      323      MECN     H12      HGA3     0.090000        1.0080           0
     14325 WT6      323      MECN     H13      HGA3     0.090000        1.0080           0
     14326 WT6      323      MECN     C2       CG1N1    0.360000       12.0110           0
     14327 WT6      323      MECN     N3       NG1T1   -0.460000       14.0070           0
     14328 WT6      324      MECN     C1       CG331   -0.170000       12.0110           0
     14329 WT6      324      MECN     H11      HGA3     0.090000        1.0080           0
     14330 WT6      324      MECN     H12      HGA3     0.090000        1.0080           0
     14331 WT6      324      MECN     H13      HGA3     0.090000        1.0080           0
     14332 WT6      324      MECN     C2       CG1N1    0.360000       12.0110           0
     14333 WT6      324      MECN     N3       NG1T1   -0.460000       14.0070           0
     14334 WT6      326      MECN     C1       CG331   -0.170000       12.0110           0
     14335 WT6      326      MECN     H11      HGA3     0.090000        1.0080           0
     14336 WT6      326      MECN     H12      HGA3     0.090000        1.0080           0
     14337 WT6      326      MECN     H13      HGA3     0.090000        1.0080           0
     14338 WT6      326      MECN     C2       CG1N1    0.360000       12.0110           0
     14339 WT6      326      MECN     N3       NG1T1   -0.460000       14.0070           0
     14340 WT6      329      MECN     C1       CG331   -0.170000       12.0110           0
     14341 WT6      329      MECN     H11      HGA3     0.090000        1.0080           0
     14342 WT6      329      MECN     H12      HGA3     0.090000        1.0080           0
     14343 WT6      329      MECN     H13      HGA3     0.090000        1.0080           0
     14344 WT6      329      MECN     C2       CG1N1    0.360000       12.0110           0
     14345 WT6      329      MECN     N3       NG1T1   -0.460000       14.0070           0
     14346 WT6      331      MECN     C1       CG331   -0.170000       12.0110           0
     14347 WT6      331      MECN     H11      HGA3     0.090000        1.0080           0
     14348 WT6      331      MECN     H12      HGA3     0.090000        1.0080           0
     14349 WT6      331      MECN     H13      HGA3     0.090000        1.0080           0
     14350 WT6      331      MECN     C2       CG1N1    0.360000       12.0110           0
     14351 WT6      331      MECN     N3       NG1T1   -0.460000       14.0070           0
     14352 WT6      337      MECN     C1       CG331   -0.170000       12.0110           0
     14353 WT6      337      MECN     H11      HGA3     0.090000        1.0080           0
     14354 WT6      337      MECN     H12      HGA3     0.090000        1.0080           0
     14355 WT6      337      MECN     H13      HGA3     0.090000        1.0080           0
     14356 WT6      337      MECN     C2       CG1N1    0.360000       12.0110           0
     14357 WT6      337      MECN     N3       NG1T1   -0.460000       14.0070           0
     14358 WT6      348      MECN     C1       CG331   -0.170000       12.0110           0
     14359 WT6      348      MECN     H11      HGA3     0.090000        1.0080           0
     14360 WT6      348      MECN     H12      HGA3     0.090000        1.0080           0
     14361 WT6      348      MECN     H13      HGA3     0.090000        1.0080           0
     14362 WT6      348      MECN     C2       CG1N1    0.360000       12.0110           0
     14363 WT6      348      MECN     N3       NG1T1   -0.460000       14.0070           0
     14364 WT6      350      MECN     C1       CG331   -0.170000       12.0110           0
     14365 WT6      350      MECN     H11      HGA3     0.090000        1.0080           0
     14366 WT6      350      MECN     H12      HGA3     0.090000        1.0080           0
     14367 WT6      350      MECN     H13      HGA3     0.090000        1.0080           0
     14368 WT6      350      MECN     C2       CG1N1    0.360000       12.0110           0
     14369 WT6      350      MECN     N3       NG1T1   -0.460000       14.0070           0
     14370 WT6      351      MECN     C1       CG331   -0.170000       12.0110           0
     14371 WT6      351      MECN     H11      HGA3     0.090000        1.0080           0
     14372 WT6      351      MECN     H12      HGA3     0.090000        1.0080           0
     14373 WT6      351      MECN     H13      HGA3     0.090000        1.0080           0
     14374 WT6      351      MECN     C2       CG1N1    0.360000       12.0110           0
     14375 WT6      351      MECN     N3       NG1T1   -0.460000       14.0070           0
     14376 WT6      352      MECN     C1       CG331   -0.170000       12.0110           0
     14377 WT6      352      MECN     H11      HGA3     0.090000        1.0080           0
     14378 WT6      352      MECN     H12      HGA3     0.090000        1.0080           0
     14379 WT6      352      MECN     H13      HGA3     0.090000        1.0080           0
     14380 WT6      352      MECN     C2       CG1N1    0.360000       12.0110           0
     14381 WT6      352      MECN     N3       NG1T1   -0.460000       14.0070           0
     14382 WT6      354      MECN     C1       CG331   -0.170000       12.0110           0
     14383 WT6      354      MECN     H11      HGA3     0.090000        1.0080           0
     14384 WT6      354      MECN     H12      HGA3     0.090000        1.0080           0
     14385 WT6      354      MECN     H13      HGA3     0.090000        1.0080           0
     14386 WT6      354      MECN     C2       CG1N1    0.360000       12.0110           0
     14387 WT6      354      MECN     N3       NG1T1   -0.460000       14.0070           0
     14388 WT6      355      MECN     C1       CG331   -0.170000       12.0110           0
     14389 WT6      355      MECN     H11      HGA3     0.090000        1.0080           0
     14390 WT6      355      MECN     H12      HGA3     0.090000        1.0080           0
     14391 WT6      355      MECN     H13      HGA3     0.090000        1.0080           0
     14392 WT6      355      MECN     C2       CG1N1    0.360000       12.0110           0
     14393 WT6      355      MECN     N3       NG1T1   -0.460000       14.0070           0
     14394 WT6      356      MECN     C1       CG331   -0.170000       12.0110           0
     14395 WT6      356      MECN     H11      HGA3     0.090000        1.0080           0
     14396 WT6      356      MECN     H12      HGA3     0.090000        1.0080           0
     14397 WT6      356      MECN     H13      HGA3     0.090000        1.0080           0
     14398 WT6      356      MECN     C2       CG1N1    0.360000       12.0110           0
     14399 WT6      356      MECN     N3       NG1T1   -0.460000       14.0070           0
     14400 WT6      357      MECN     C1       CG331   -0.170000       12.0110           0
     14401 WT6      357      MECN     H11      HGA3     0.090000        1.0080           0
     14402 WT6      357      MECN     H12      HGA3     0.090000        1.0080           0
     14403 WT6      357      MECN     H13      HGA3     0.090000        1.0080           0
     14404 WT6      357      MECN     C2       CG1N1    0.360000       12.0110           0
     14405 WT6      357      MECN     N3       NG1T1   -0.460000       14.0070           0
     14406 WT6      358      MECN     C1       CG331   -0.170000       12.0110           0
     14407 WT6      358      MECN     H11      HGA3     0.090000        1.0080           0
     14408 WT6      358      MECN     H12      HGA3     0.090000        1.0080           0
     14409 WT6      358      MECN     H13      HGA3     0.090000        1.0080           0
     14410 WT6      358      MECN     C2       CG1N1    0.360000       12.0110           0
     14411 WT6      358      MECN     N3       NG1T1   -0.460000       14.0070           0
     14412 WT6      363      MECN     C1       CG331   -0.170000       12.0110           0
     14413 WT6      363      MECN     H11      HGA3     0.090000        1.0080           0
     14414 WT6      363      MECN     H12      HGA3     0.090000        1.0080           0
     14415 WT6      363      MECN     H13      HGA3     0.090000        1.0080           0
     14416 WT6      363      MECN     C2       CG1N1    0.360000       12.0110           0
     14417 WT6      363      MECN     N3       NG1T1   -0.460000       14.0070           0
     14418 WT6      365      MECN     C1       CG331   -0.170000       12.0110           0
     14419 WT6      365      MECN     H11      HGA3     0.090000        1.0080           0
     14420 WT6      365      MECN     H12      HGA3     0.090000        1.0080           0
     14421 WT6      365      MECN     H13      HGA3     0.090000        1.0080           0
     14422 WT6      365      MECN     C2       CG1N1    0.360000       12.0110           0
     14423 WT6      365      MECN     N3       NG1T1   -0.460000       14.0070           0
     14424 WT6      368      MECN     C1       CG331   -0.170000       12.0110           0
     14425 WT6      368      MECN     H11      HGA3     0.090000        1.0080           0
     14426 WT6      368      MECN     H12      HGA3     0.090000        1.0080           0
     14427 WT6      368      MECN     H13      HGA3     0.090000        1.0080           0
     14428 WT6      368      MECN     C2       CG1N1    0.360000       12.0110           0
     14429 WT6      368      MECN     N3       NG1T1   -0.460000       14.0070           0
     14430 WT6      370      MECN     C1       CG331   -0.170000       12.0110           0
     14431 WT6      370      MECN     H11      HGA3     0.090000        1.0080           0
     14432 WT6      370      MECN     H12      HGA3     0.090000        1.0080           0
     14433 WT6      370      MECN     H13      HGA3     0.090000        1.0080           0
     14434 WT6      370      MECN     C2       CG1N1    0.360000       12.0110           0
     14435 WT6      370      MECN     N3       NG1T1   -0.460000       14.0070           0
     14436 WT6      371      MECN     C1       CG331   -0.170000       12.0110           0
     14437 WT6      371      MECN     H11      HGA3     0.090000        1.0080           0
     14438 WT6      371      MECN     H12      HGA3     0.090000        1.0080           0
     14439 WT6      371      MECN     H13      HGA3     0.090000        1.0080           0
     14440 WT6      371      MECN     C2       CG1N1    0.360000       12.0110           0
     14441 WT6      371      MECN     N3       NG1T1   -0.460000       14.0070           0
     14442 WT6      372      MECN     C1       CG331   -0.170000       12.0110           0
     14443 WT6      372      MECN     H11      HGA3     0.090000        1.0080           0
     14444 WT6      372      MECN     H12      HGA3     0.090000        1.0080           0
     14445 WT6      372      MECN     H13      HGA3     0.090000        1.0080           0
     14446 WT6      372      MECN     C2       CG1N1    0.360000       12.0110           0
     14447 WT6      372      MECN     N3       NG1T1   -0.460000       14.0070           0
     14448 WT6      379      MECN     C1       CG331   -0.170000       12.0110           0
     14449 WT6      379      MECN     H11      HGA3     0.090000        1.0080           0
     14450 WT6      379      MECN     H12      HGA3     0.090000        1.0080           0
     14451 WT6      379      MECN     H13      HGA3     0.090000        1.0080           0
     14452 WT6      379      MECN     C2       CG1N1    0.360000       12.0110           0
     14453 WT6      379      MECN     N3       NG1T1   -0.460000       14.0070           0
     14454 WT6      382      MECN     C1       CG331   -0.170000       12.0110           0
     14455 WT6      382      MECN     H11      HGA3     0.090000        1.0080           0
     14456 WT6      382      MECN     H12      HGA3     0.090000        1.0080           0
     14457 WT6      382      MECN     H13      HGA3     0.090000        1.0080           0
     14458 WT6      382      MECN     C2       CG1N1    0.360000       12.0110           0
     14459 WT6      382      MECN     N3       NG1T1   -0.460000       14.0070           0
     14460 WT6      387      MECN     C1       CG331   -0.170000       12.0110           0
     14461 WT6      387      MECN     H11      HGA3     0.090000        1.0080           0
     14462 WT6      387      MECN     H12      HGA3     0.090000        1.0080           0
     14463 WT6      387      MECN     H13      HGA3     0.090000        1.0080           0
     14464 WT6      387      MECN     C2       CG1N1    0.360000       12.0110           0
     14465 WT6      387      MECN     N3       NG1T1   -0.460000       14.0070           0
     14466 WT6      388      MECN     C1       CG331   -0.170000       12.0110           0
     14467 WT6      388      MECN     H11      HGA3     0.090000        1.0080           0
     14468 WT6      388      MECN     H12      HGA3     0.090000        1.0080           0
     14469 WT6      388      MECN     H13      HGA3     0.090000        1.0080           0
     14470 WT6      388      MECN     C2       CG1N1    0.360000       12.0110           0
     14471 WT6      388      MECN     N3       NG1T1   -0.460000       14.0070           0
     14472 WT6      390      MECN     C1       CG331   -0.170000       12.0110           0
     14473 WT6      390      MECN     H11      HGA3     0.090000        1.0080           0
     14474 WT6      390      MECN     H12      HGA3     0.090000        1.0080           0
     14475 WT6      390      MECN     H13      HGA3     0.090000        1.0080           0
     14476 WT6      390      MECN     C2       CG1N1    0.360000       12.0110           0
     14477 WT6      390      MECN     N3       NG1T1   -0.460000       14.0070           0
     14478 WT6      396      MECN     C1       CG331   -0.170000       12.0110           0
     14479 WT6      396      MECN     H11      HGA3     0.090000        1.0080           0
     14480 WT6      396      MECN     H12      HGA3     0.090000        1.0080           0
     14481 WT6      396      MECN     H13      HGA3     0.090000        1.0080           0
     14482 WT6      396      MECN     C2       CG1N1    0.360000       12.0110           0
     14483 WT6      396      MECN     N3       NG1T1   -0.460000       14.0070           0
     14484 WT6      398      MECN     C1       CG331   -0.170000       12.0110           0
     14485 WT6      398      MECN     H11      HGA3     0.090000        1.0080           0
     14486 WT6      398      MECN     H12      HGA3     0.090000        1.0080           0
     14487 WT6      398      MECN     H13      HGA3     0.090000        1.0080           0
     14488 WT6      398      MECN     C2       CG1N1    0.360000       12.0110           0
     14489 WT6      398      MECN     N3       NG1T1   -0.460000       14.0070           0
     14490 WT6      399      MECN     C1       CG331   -0.170000       12.0110           0
     14491 WT6      399      MECN     H11      HGA3     0.090000        1.0080           0
     14492 WT6      399      MECN     H12      HGA3     0.090000        1.0080           0
     14493 WT6      399      MECN     H13      HGA3     0.090000        1.0080           0
     14494 WT6      399      MECN     C2       CG1N1    0.360000       12.0110           0
     14495 WT6      399      MECN     N3       NG1T1   -0.460000       14.0070           0
     14496 WT6      401      MECN     C1       CG331   -0.170000       12.0110           0
     14497 WT6      401      MECN     H11      HGA3     0.090000        1.0080           0
     14498 WT6      401      MECN     H12      HGA3     0.090000        1.0080           0
     14499 WT6      401      MECN     H13      HGA3     0.090000        1.0080           0
     14500 WT6      401      MECN     C2       CG1N1    0.360000       12.0110           0
     14501 WT6      401      MECN     N3       NG1T1   -0.460000       14.0070           0
     14502 WT6      407      MECN     C1       CG331   -0.170000       12.0110           0
     14503 WT6      407      MECN     H11      HGA3     0.090000        1.0080           0
     14504 WT6      407      MECN     H12      HGA3     0.090000        1.0080           0
     14505 WT6      407      MECN     H13      HGA3     0.090000        1.0080           0
     14506 WT6      407      MECN     C2       CG1N1    0.360000       12.0110           0
     14507 WT6      407      MECN     N3       NG1T1   -0.460000       14.0070           0
     14508 WT6      411      MECN     C1       CG331   -0.170000       12.0110           0
     14509 WT6      411      MECN     H11      HGA3     0.090000        1.0080           0
     14510 WT6      411      MECN     H12      HGA3     0.090000        1.0080           0
     14511 WT6      411      MECN     H13      HGA3     0.090000        1.0080           0
     14512 WT6      411      MECN     C2       CG1N1    0.360000       12.0110           0
     14513 WT6      411      MECN     N3       NG1T1   -0.460000       14.0070           0
     14514 WT6      415      MECN     C1       CG331   -0.170000       12.0110           0
     14515 WT6      415      MECN     H11      HGA3     0.090000        1.0080           0
     14516 WT6      415      MECN     H12      HGA3     0.090000        1.0080           0
     14517 WT6      415      MECN     H13      HGA3     0.090000        1.0080           0
     14518 WT6      415      MECN     C2       CG1N1    0.360000       12.0110           0
     14519 WT6      415      MECN     N3       NG1T1   -0.460000       14.0070           0
     14520 WT6      416      MECN     C1       CG331   -0.170000       12.0110           0
     14521 WT6      416      MECN     H11      HGA3     0.090000        1.0080           0
     14522 WT6      416      MECN     H12      HGA3     0.090000        1.0080           0
     14523 WT6      416      MECN     H13      HGA3     0.090000        1.0080           0
     14524 WT6      416      MECN     C2       CG1N1    0.360000       12.0110           0
     14525 WT6      416      MECN     N3       NG1T1   -0.460000       14.0070           0
     14526 WT6      419      MECN     C1       CG331   -0.170000       12.0110           0
     14527 WT6      419      MECN     H11      HGA3     0.090000        1.0080           0
     14528 WT6      419      MECN     H12      HGA3     0.090000        1.0080           0
     14529 WT6      419      MECN     H13      HGA3     0.090000        1.0080           0
     14530 WT6      419      MECN     C2       CG1N1    0.360000       12.0110           0
     14531 WT6      419      MECN     N3       NG1T1   -0.460000       14.0070           0
     14532 WT6      424      MECN     C1       CG331   -0.170000       12.0110           0
     14533 WT6      424      MECN     H11      HGA3     0.090000        1.0080           0
     14534 WT6      424      MECN     H12      HGA3     0.090000        1.0080           0
     14535 WT6      424      MECN     H13      HGA3     0.090000        1.0080           0
     14536 WT6      424      MECN     C2       CG1N1    0.360000       12.0110           0
     14537 WT6      424      MECN     N3       NG1T1   -0.460000       14.0070           0
     14538 WT6      425      MECN     C1       CG331   -0.170000       12.0110           0
     14539 WT6      425      MECN     H11      HGA3     0.090000        1.0080           0
     14540 WT6      425      MECN     H12      HGA3     0.090000        1.0080           0
     14541 WT6      425      MECN     H13      HGA3     0.090000        1.0080           0
     14542 WT6      425      MECN     C2       CG1N1    0.360000       12.0110           0
     14543 WT6      425      MECN     N3       NG1T1   -0.460000       14.0070           0
     14544 WT6      428      MECN     C1       CG331   -0.170000       12.0110           0
     14545 WT6      428      MECN     H11      HGA3     0.090000        1.0080           0
     14546 WT6      428      MECN     H12      HGA3     0.090000        1.0080           0
     14547 WT6      428      MECN     H13      HGA3     0.090000        1.0080           0
     14548 WT6      428      MECN     C2       CG1N1    0.360000       12.0110           0
     14549 WT6      428      MECN     N3       NG1T1   -0.460000       14.0070           0
     14550 WT6      430      MECN     C1       CG331   -0.170000       12.0110           0
     14551 WT6      430      MECN     H11      HGA3     0.090000        1.0080           0
     14552 WT6      430      MECN     H12      HGA3     0.090000        1.0080           0
     14553 WT6      430      MECN     H13      HGA3     0.090000        1.0080           0
     14554 WT6      430      MECN     C2       CG1N1    0.360000       12.0110           0
     14555 WT6      430      MECN     N3       NG1T1   -0.460000       14.0070           0
     14556 WT6      436      MECN     C1       CG331   -0.170000       12.0110           0
     14557 WT6      436      MECN     H11      HGA3     0.090000        1.0080           0
     14558 WT6      436      MECN     H12      HGA3     0.090000        1.0080           0
     14559 WT6      436      MECN     H13      HGA3     0.090000        1.0080           0
     14560 WT6      436      MECN     C2       CG1N1    0.360000       12.0110           0
     14561 WT6      436      MECN     N3       NG1T1   -0.460000       14.0070           0
     14562 WT6      439      MECN     C1       CG331   -0.170000       12.0110           0
     14563 WT6      439      MECN     H11      HGA3     0.090000        1.0080           0
     14564 WT6      439      MECN     H12      HGA3     0.090000        1.0080           0
     14565 WT6      439      MECN     H13      HGA3     0.090000        1.0080           0
     14566 WT6      439      MECN     C2       CG1N1    0.360000       12.0110           0
     14567 WT6      439      MECN     N3       NG1T1   -0.460000       14.0070           0
     14568 WT6      440      MECN     C1       CG331   -0.170000       12.0110           0
     14569 WT6      440      MECN     H11      HGA3     0.090000        1.0080           0
     14570 WT6      440      MECN     H12      HGA3     0.090000        1.0080           0
     14571 WT6      440      MECN     H13      HGA3     0.090000        1.0080           0
     14572 WT6      440      MECN     C2       CG1N1    0.360000       12.0110           0
     14573 WT6      440      MECN     N3       NG1T1   -0.460000       14.0070           0
     14574 WT6      444      MECN     C1       CG331   -0.170000       12.0110           0
     14575 WT6      444      MECN     H11      HGA3     0.090000        1.0080           0
     14576 WT6      444      MECN     H12      HGA3     0.090000        1.0080           0
     14577 WT6      444      MECN     H13      HGA3     0.090000        1.0080           0
     14578 WT6      444      MECN     C2       CG1N1    0.360000       12.0110           0
     14579 WT6      444      MECN     N3       NG1T1   -0.460000       14.0070           0
     14580 WT6      447      MECN     C1       CG331   -0.170000       12.0110           0
     14581 WT6      447      MECN     H11      HGA3     0.090000        1.0080           0
     14582 WT6      447      MECN     H12      HGA3     0.090000        1.0080           0
     14583 WT6      447      MECN     H13      HGA3     0.090000        1.0080           0
     14584 WT6      447      MECN     C2       CG1N1    0.360000       12.0110           0
     14585 WT6      447      MECN     N3       NG1T1   -0.460000       14.0070           0
     14586 WT6      450      MECN     C1       CG331   -0.170000       12.0110           0
     14587 WT6      450      MECN     H11      HGA3     0.090000        1.0080           0
     14588 WT6      450      MECN     H12      HGA3     0.090000        1.0080           0
     14589 WT6      450      MECN     H13      HGA3     0.090000        1.0080           0
     14590 WT6      450      MECN     C2       CG1N1    0.360000       12.0110           0
     14591 WT6      450      MECN     N3       NG1T1   -0.460000       14.0070           0
     14592 WT6      451      MECN     C1       CG331   -0.170000       12.0110           0
     14593 WT6      451      MECN     H11      HGA3     0.090000        1.0080           0
     14594 WT6      451      MECN     H12      HGA3     0.090000        1.0080           0
     14595 WT6      451      MECN     H13      HGA3     0.090000        1.0080           0
     14596 WT6      451      MECN     C2       CG1N1    0.360000       12.0110           0
     14597 WT6      451      MECN     N3       NG1T1   -0.460000       14.0070           0
     14598 WT6      457      MECN     C1       CG331   -0.170000       12.0110           0
     14599 WT6      457      MECN     H11      HGA3     0.090000        1.0080           0
     14600 WT6      457      MECN     H12      HGA3     0.090000        1.0080           0
     14601 WT6      457      MECN     H13      HGA3     0.090000        1.0080           0
     14602 WT6      457      MECN     C2       CG1N1    0.360000       12.0110           0
     14603 WT6      457      MECN     N3       NG1T1   -0.460000       14.0070           0
     14604 WT6      459      MECN     C1       CG331   -0.170000       12.0110           0
     14605 WT6      459      MECN     H11      HGA3     0.090000        1.0080           0
     14606 WT6      459      MECN     H12      HGA3     0.090000        1.0080           0
     14607 WT6      459      MECN     H13      HGA3     0.090000        1.0080           0
     14608 WT6      459      MECN     C2       CG1N1    0.360000       12.0110           0
     14609 WT6      459      MECN     N3       NG1T1   -0.460000       14.0070           0
     14610 WT6      460      MECN     C1       CG331   -0.170000       12.0110           0
     14611 WT6      460      MECN     H11      HGA3     0.090000        1.0080           0
     14612 WT6      460      MECN     H12      HGA3     0.090000        1.0080           0
     14613 WT6      460      MECN     H13      HGA3     0.090000        1.0080           0
     14614 WT6      460      MECN     C2       CG1N1    0.360000       12.0110           0
     14615 WT6      460      MECN     N3       NG1T1   -0.460000       14.0070           0
     14616 WT6      463      MECN     C1       CG331   -0.170000       12.0110           0
     14617 WT6      463      MECN     H11      HGA3     0.090000        1.0080           0
     14618 WT6      463      MECN     H12      HGA3     0.090000        1.0080           0
     14619 WT6      463      MECN     H13      HGA3     0.090000        1.0080           0
     14620 WT6      463      MECN     C2       CG1N1    0.360000       12.0110           0
     14621 WT6      463      MECN     N3       NG1T1   -0.460000       14.0070           0
     14622 WT6      472      MECN     C1       CG331   -0.170000       12.0110           0
     14623 WT6      472      MECN     H11      HGA3     0.090000        1.0080           0
     14624 WT6      472      MECN     H12      HGA3     0.090000        1.0080           0
     14625 WT6      472      MECN     H13      HGA3     0.090000        1.0080           0
     14626 WT6      472      MECN     C2       CG1N1    0.360000       12.0110           0
     14627 WT6      472      MECN     N3       NG1T1   -0.460000       14.0070           0
     14628 WT6      473      MECN     C1       CG331   -0.170000       12.0110           0
     14629 WT6      473      MECN     H11      HGA3     0.090000        1.0080           0
     14630 WT6      473      MECN     H12      HGA3     0.090000        1.0080           0
     14631 WT6      473      MECN     H13      HGA3     0.090000        1.0080           0
     14632 WT6      473      MECN     C2       CG1N1    0.360000       12.0110           0
     14633 WT6      473      MECN     N3       NG1T1   -0.460000       14.0070           0
     14634 WT6      475      MECN     C1       CG331   -0.170000       12.0110           0
     14635 WT6      475      MECN     H11      HGA3     0.090000        1.0080           0
     14636 WT6      475      MECN     H12      HGA3     0.090000        1.0080           0
     14637 WT6      475      MECN     H13      HGA3     0.090000        1.0080           0
     14638 WT6      475      MECN     C2       CG1N1    0.360000       12.0110           0
     14639 WT6      475      MECN     N3       NG1T1   -0.460000       14.0070           0
     14640 WT6      484      MECN     C1       CG331   -0.170000       12.0110           0
     14641 WT6      484      MECN     H11      HGA3     0.090000        1.0080           0
     14642 WT6      484      MECN     H12      HGA3     0.090000        1.0080           0
     14643 WT6      484      MECN     H13      HGA3     0.090000        1.0080           0
     14644 WT6      484      MECN     C2       CG1N1    0.360000       12.0110           0
     14645 WT6      484      MECN     N3       NG1T1   -0.460000       14.0070           0
     14646 WT6      485      MECN     C1       CG331   -0.170000       12.0110           0
     14647 WT6      485      MECN     H11      HGA3     0.090000        1.0080           0
     14648 WT6      485      MECN     H12      HGA3     0.090000        1.0080           0
     14649 WT6      485      MECN     H13      HGA3     0.090000        1.0080           0
     14650 WT6      485      MECN     C2       CG1N1    0.360000       12.0110           0
     14651 WT6      485      MECN     N3       NG1T1   -0.460000       14.0070           0
     14652 WT6      486      MECN     C1       CG331   -0.170000       12.0110           0
     14653 WT6      486      MECN     H11      HGA3     0.090000        1.0080           0
     14654 WT6      486      MECN     H12      HGA3     0.090000        1.0080           0
     14655 WT6      486      MECN     H13      HGA3     0.090000        1.0080           0
     14656 WT6      486      MECN     C2       CG1N1    0.360000       12.0110           0
     14657 WT6      486      MECN     N3       NG1T1   -0.460000       14.0070           0
     14658 WT6      487      MECN     C1       CG331   -0.170000       12.0110           0
     14659 WT6      487      MECN     H11      HGA3     0.090000        1.0080           0
     14660 WT6      487      MECN     H12      HGA3     0.090000        1.0080           0
     14661 WT6      487      MECN     H13      HGA3     0.090000        1.0080           0
     14662 WT6      487      MECN     C2       CG1N1    0.360000       12.0110           0
     14663 WT6      487      MECN     N3       NG1T1   -0.460000       14.0070           0
     14664 WT6      488      MECN     C1       CG331   -0.170000       12.0110           0
     14665 WT6      488      MECN     H11      HGA3     0.090000        1.0080           0
     14666 WT6      488      MECN     H12      HGA3     0.090000        1.0080           0
     14667 WT6      488      MECN     H13      HGA3     0.090000        1.0080           0
     14668 WT6      488      MECN     C2       CG1N1    0.360000       12.0110           0
     14669 WT6      488      MECN     N3       NG1T1   -0.460000       14.0070           0
     14670 WT6      500      MECN     C1       CG331   -0.170000       12.0110           0
     14671 WT6      500      MECN     H11      HGA3     0.090000        1.0080           0
     14672 WT6      500      MECN     H12      HGA3     0.090000        1.0080           0
     14673 WT6      500      MECN     H13      HGA3     0.090000        1.0080           0
     14674 WT6      500      MECN     C2       CG1N1    0.360000       12.0110           0
     14675 WT6      500      MECN     N3       NG1T1   -0.460000       14.0070           0
     14676 WT6      508      MECN     C1       CG331   -0.170000       12.0110           0
     14677 WT6      508      MECN     H11      HGA3     0.090000        1.0080           0
     14678 WT6      508      MECN     H12      HGA3     0.090000        1.0080           0
     14679 WT6      508      MECN     H13      HGA3     0.090000        1.0080           0
     14680 WT6      508      MECN     C2       CG1N1    0.360000       12.0110           0
     14681 WT6      508      MECN     N3       NG1T1   -0.460000       14.0070           0
     14682 WT6      512      MECN     C1       CG331   -0.170000       12.0110           0
     14683 WT6      512      MECN     H11      HGA3     0.090000        1.0080           0
     14684 WT6      512      MECN     H12      HGA3     0.090000        1.0080           0
     14685 WT6      512      MECN     H13      HGA3     0.090000        1.0080           0
     14686 WT6      512      MECN     C2       CG1N1    0.360000       12.0110           0
     14687 WT6      512      MECN     N3       NG1T1   -0.460000       14.0070           0
     14688 WT6      513      MECN     C1       CG331   -0.170000       12.0110           0
     14689 WT6      513      MECN     H11      HGA3     0.090000        1.0080           0
     14690 WT6      513      MECN     H12      HGA3     0.090000        1.0080           0
     14691 WT6      513      MECN     H13      HGA3     0.090000        1.0080           0
     14692 WT6      513      MECN     C2       CG1N1    0.360000       12.0110           0
     14693 WT6      513      MECN     N3       NG1T1   -0.460000       14.0070           0
     14694 WT6      518      MECN     C1       CG331   -0.170000       12.0110           0
     14695 WT6      518      MECN     H11      HGA3     0.090000        1.0080           0
     14696 WT6      518      MECN     H12      HGA3     0.090000        1.0080           0
     14697 WT6      518      MECN     H13      HGA3     0.090000        1.0080           0
     14698 WT6      518      MECN     C2       CG1N1    0.360000       12.0110           0
     14699 WT6      518      MECN     N3       NG1T1   -0.460000       14.0070           0
     14700 WT6      521      MECN     C1       CG331   -0.170000       12.0110           0
     14701 WT6      521      MECN     H11      HGA3     0.090000        1.0080           0
     14702 WT6      521      MECN     H12      HGA3     0.090000        1.0080           0
     14703 WT6      521      MECN     H13      HGA3     0.090000        1.0080           0
     14704 WT6      521      MECN     C2       CG1N1    0.360000       12.0110           0
     14705 WT6      521      MECN     N3       NG1T1   -0.460000       14.0070           0
     14706 WT6      523      MECN     C1       CG331   -0.170000       12.0110           0
     14707 WT6      523      MECN     H11      HGA3     0.090000        1.0080           0
     14708 WT6      523      MECN     H12      HGA3     0.090000        1.0080           0
     14709 WT6      523      MECN     H13      HGA3     0.090000        1.0080           0
     14710 WT6      523      MECN     C2       CG1N1    0.360000       12.0110           0
     14711 WT6      523      MECN     N3       NG1T1   -0.460000       14.0070           0
     14712 WT6      526      MECN     C1       CG331   -0.170000       12.0110           0
     14713 WT6      526      MECN     H11      HGA3     0.090000        1.0080           0
     14714 WT6      526      MECN     H12      HGA3     0.090000        1.0080           0
     14715 WT6      526      MECN     H13      HGA3     0.090000        1.0080           0
     14716 WT6      526      MECN     C2       CG1N1    0.360000       12.0110           0
     14717 WT6      526      MECN     N3       NG1T1   -0.460000       14.0070           0
     14718 WT6      530      MECN     C1       CG331   -0.170000       12.0110           0
     14719 WT6      530      MECN     H11      HGA3     0.090000        1.0080           0
     14720 WT6      530      MECN     H12      HGA3     0.090000        1.0080           0
     14721 WT6      530      MECN     H13      HGA3     0.090000        1.0080           0
     14722 WT6      530      MECN     C2       CG1N1    0.360000       12.0110           0
     14723 WT6      530      MECN     N3       NG1T1   -0.460000       14.0070           0
     14724 WT6      532      MECN     C1       CG331   -0.170000       12.0110           0
     14725 WT6      532      MECN     H11      HGA3     0.090000        1.0080           0
     14726 WT6      532      MECN     H12      HGA3     0.090000        1.0080           0
     14727 WT6      532      MECN     H13      HGA3     0.090000        1.0080           0
     14728 WT6      532      MECN     C2       CG1N1    0.360000       12.0110           0
     14729 WT6      532      MECN     N3       NG1T1   -0.460000       14.0070           0
     14730 WT6      537      MECN     C1       CG331   -0.170000       12.0110           0
     14731 WT6      537      MECN     H11      HGA3     0.090000        1.0080           0
     14732 WT6      537      MECN     H12      HGA3     0.090000        1.0080           0
     14733 WT6      537      MECN     H13      HGA3     0.090000        1.0080           0
     14734 WT6      537      MECN     C2       CG1N1    0.360000       12.0110           0
     14735 WT6      537      MECN     N3       NG1T1   -0.460000       14.0070           0
     14736 WT6      541      MECN     C1       CG331   -0.170000       12.0110           0
     14737 WT6      541      MECN     H11      HGA3     0.090000        1.0080           0
     14738 WT6      541      MECN     H12      HGA3     0.090000        1.0080           0
     14739 WT6      541      MECN     H13      HGA3     0.090000        1.0080           0
     14740 WT6      541      MECN     C2       CG1N1    0.360000       12.0110           0
     14741 WT6      541      MECN     N3       NG1T1   -0.460000       14.0070           0
     14742 WT6      542      MECN     C1       CG331   -0.170000       12.0110           0
     14743 WT6      542      MECN     H11      HGA3     0.090000        1.0080           0
     14744 WT6      542      MECN     H12      HGA3     0.090000        1.0080           0
     14745 WT6      542      MECN     H13      HGA3     0.090000        1.0080           0
     14746 WT6      542      MECN     C2       CG1N1    0.360000       12.0110           0
     14747 WT6      542      MECN     N3       NG1T1   -0.460000       14.0070           0
     14748 WT6      546      MECN     C1       CG331   -0.170000       12.0110           0
     14749 WT6      546      MECN     H11      HGA3     0.090000        1.0080           0
     14750 WT6      546      MECN     H12      HGA3     0.090000        1.0080           0
     14751 WT6      546      MECN     H13      HGA3     0.090000        1.0080           0
     14752 WT6      546      MECN     C2       CG1N1    0.360000       12.0110           0
     14753 WT6      546      MECN     N3       NG1T1   -0.460000       14.0070           0
     14754 WT6      549      MECN     C1       CG331   -0.170000       12.0110           0
     14755 WT6      549      MECN     H11      HGA3     0.090000        1.0080           0
     14756 WT6      549      MECN     H12      HGA3     0.090000        1.0080           0
     14757 WT6      549      MECN     H13      HGA3     0.090000        1.0080           0
     14758 WT6      549      MECN     C2       CG1N1    0.360000       12.0110           0
     14759 WT6      549      MECN     N3       NG1T1   -0.460000       14.0070           0
     14760 WT6      557      MECN     C1       CG331   -0.170000       12.0110           0
     14761 WT6      557      MECN     H11      HGA3     0.090000        1.0080           0
     14762 WT6      557      MECN     H12      HGA3     0.090000        1.0080           0
     14763 WT6      557      MECN     H13      HGA3     0.090000        1.0080           0
     14764 WT6      557      MECN     C2       CG1N1    0.360000       12.0110           0
     14765 WT6      557      MECN     N3       NG1T1   -0.460000       14.0070           0
     14766 WT6      560      MECN     C1       CG331   -0.170000       12.0110           0
     14767 WT6      560      MECN     H11      HGA3     0.090000        1.0080           0
     14768 WT6      560      MECN     H12      HGA3     0.090000        1.0080           0
     14769 WT6      560      MECN     H13      HGA3     0.090000        1.0080           0
     14770 WT6      560      MECN     C2       CG1N1    0.360000       12.0110           0
     14771 WT6      560      MECN     N3       NG1T1   -0.460000       14.0070           0
     14772 WT6      563      MECN     C1       CG331   -0.170000       12.0110           0
     14773 WT6      563      MECN     H11      HGA3     0.090000        1.0080           0
     14774 WT6      563      MECN     H12      HGA3     0.090000        1.0080           0
     14775 WT6      563      MECN     H13      HGA3     0.090000        1.0080           0
     14776 WT6      563      MECN     C2       CG1N1    0.360000       12.0110           0
     14777 WT6      563      MECN     N3       NG1T1   -0.460000       14.0070           0
     14778 WT6      564      MECN     C1       CG331   -0.170000       12.0110           0
     14779 WT6      564      MECN     H11      HGA3     0.090000        1.0080           0
     14780 WT6      564      MECN     H12      HGA3     0.090000        1.0080           0
     14781 WT6      564      MECN     H13      HGA3     0.090000        1.0080           0
     14782 WT6      564      MECN     C2       CG1N1    0.360000       12.0110           0
     14783 WT6      564      MECN     N3       NG1T1   -0.460000       14.0070           0
     14784 WT6      565      MECN     C1       CG331   -0.170000       12.0110           0
     14785 WT6      565      MECN     H11      HGA3     0.090000        1.0080           0
     14786 WT6      565      MECN     H12      HGA3     0.090000        1.0080           0
     14787 WT6      565      MECN     H13      HGA3     0.090000        1.0080           0
     14788 WT6      565      MECN     C2       CG1N1    0.360000       12.0110           0
     14789 WT6      565      MECN     N3       NG1T1   -0.460000       14.0070           0
     14790 WT6      567      MECN     C1       CG331   -0.170000       12.0110           0
     14791 WT6      567      MECN     H11      HGA3     0.090000        1.0080           0
     14792 WT6      567      MECN     H12      HGA3     0.090000        1.0080           0
     14793 WT6      567      MECN     H13      HGA3     0.090000        1.0080           0
     14794 WT6      567      MECN     C2       CG1N1    0.360000       12.0110           0
     14795 WT6      567      MECN     N3       NG1T1   -0.460000       14.0070           0
     14796 WT6      568      MECN     C1       CG331   -0.170000       12.0110           0
     14797 WT6      568      MECN     H11      HGA3     0.090000        1.0080           0
     14798 WT6      568      MECN     H12      HGA3     0.090000        1.0080           0
     14799 WT6      568      MECN     H13      HGA3     0.090000        1.0080           0
     14800 WT6      568      MECN     C2       CG1N1    0.360000       12.0110           0
     14801 WT6      568      MECN     N3       NG1T1   -0.460000       14.0070           0
     14802 WT6      569      MECN     C1       CG331   -0.170000       12.0110           0
     14803 WT6      569      MECN     H11      HGA3     0.090000        1.0080           0
     14804 WT6      569      MECN     H12      HGA3     0.090000        1.0080           0
     14805 WT6      569      MECN     H13      HGA3     0.090000        1.0080           0
     14806 WT6      569      MECN     C2       CG1N1    0.360000       12.0110           0
     14807 WT6      569      MECN     N3       NG1T1   -0.460000       14.0070           0
     14808 WT6      570      MECN     C1       CG331   -0.170000       12.0110           0
     14809 WT6      570      MECN     H11      HGA3     0.090000        1.0080           0
     14810 WT6      570      MECN     H12      HGA3     0.090000        1.0080           0
     14811 WT6      570      MECN     H13      HGA3     0.090000        1.0080           0
     14812 WT6      570      MECN     C2       CG1N1    0.360000       12.0110           0
     14813 WT6      570      MECN     N3       NG1T1   -0.460000       14.0070           0
     14814 WT6      572      MECN     C1       CG331   -0.170000       12.0110           0
     14815 WT6      572      MECN     H11      HGA3     0.090000        1.0080           0
     14816 WT6      572      MECN     H12      HGA3     0.090000        1.0080           0
     14817 WT6      572      MECN     H13      HGA3     0.090000        1.0080           0
     14818 WT6      572      MECN     C2       CG1N1    0.360000       12.0110           0
     14819 WT6      572      MECN     N3       NG1T1   -0.460000       14.0070           0
     14820 WT6      574      MECN     C1       CG331   -0.170000       12.0110           0
     14821 WT6      574      MECN     H11      HGA3     0.090000        1.0080           0
     14822 WT6      574      MECN     H12      HGA3     0.090000        1.0080           0
     14823 WT6      574      MECN     H13      HGA3     0.090000        1.0080           0
     14824 WT6      574      MECN     C2       CG1N1    0.360000       12.0110           0
     14825 WT6      574      MECN     N3       NG1T1   -0.460000       14.0070           0
     14826 WT6      579      MECN     C1       CG331   -0.170000       12.0110           0
     14827 WT6      579      MECN     H11      HGA3     0.090000        1.0080           0
     14828 WT6      579      MECN     H12      HGA3     0.090000        1.0080           0
     14829 WT6      579      MECN     H13      HGA3     0.090000        1.0080           0
     14830 WT6      579      MECN     C2       CG1N1    0.360000       12.0110           0
     14831 WT6      579      MECN     N3       NG1T1   -0.460000       14.0070           0
     14832 WT6      581      MECN     C1       CG331   -0.170000       12.0110           0
     14833 WT6      581      MECN     H11      HGA3     0.090000        1.0080           0
     14834 WT6      581      MECN     H12      HGA3     0.090000        1.0080           0
     14835 WT6      581      MECN     H13      HGA3     0.090000        1.0080           0
     14836 WT6      581      MECN     C2       CG1N1    0.360000       12.0110           0
     14837 WT6      581      MECN     N3       NG1T1   -0.460000       14.0070           0
     14838 WT6      584      MECN     C1       CG331   -0.170000       12.0110           0
     14839 WT6      584      MECN     H11      HGA3     0.090000        1.0080           0
     14840 WT6      584      MECN     H12      HGA3     0.090000        1.0080           0
     14841 WT6      584      MECN     H13      HGA3     0.090000        1.0080           0
     14842 WT6      584      MECN     C2       CG1N1    0.360000       12.0110           0
     14843 WT6      584      MECN     N3       NG1T1   -0.460000       14.0070           0
     14844 WT6      585      MECN     C1       CG331   -0.170000       12.0110           0
     14845 WT6      585      MECN     H11      HGA3     0.090000        1.0080           0
     14846 WT6      585      MECN     H12      HGA3     0.090000        1.0080           0
     14847 WT6      585      MECN     H13      HGA3     0.090000        1.0080           0
     14848 WT6      585      MECN     C2       CG1N1    0.360000       12.0110           0
     14849 WT6      585      MECN     N3       NG1T1   -0.460000       14.0070           0
     14850 WT6      591      MECN     C1       CG331   -0.170000       12.0110           0
     14851 WT6      591      MECN     H11      HGA3     0.090000        1.0080           0
     14852 WT6      591      MECN     H12      HGA3     0.090000        1.0080           0
     14853 WT6      591      MECN     H13      HGA3     0.090000        1.0080           0
     14854 WT6      591      MECN     C2       CG1N1    0.360000       12.0110           0
     14855 WT6      591      MECN     N3       NG1T1   -0.460000       14.0070           0
     14856 WT6      594      MECN     C1       CG331   -0.170000       12.0110           0
     14857 WT6      594      MECN     H11      HGA3     0.090000        1.0080           0
     14858 WT6      594      MECN     H12      HGA3     0.090000        1.0080           0
     14859 WT6      594      MECN     H13      HGA3     0.090000        1.0080           0
     14860 WT6      594      MECN     C2       CG1N1    0.360000       12.0110           0
     14861 WT6      594      MECN     N3       NG1T1   -0.460000       14.0070           0
     14862 WT6      596      MECN     C1       CG331   -0.170000       12.0110           0
     14863 WT6      596      MECN     H11      HGA3     0.090000        1.0080           0
     14864 WT6      596      MECN     H12      HGA3     0.090000        1.0080           0
     14865 WT6      596      MECN     H13      HGA3     0.090000        1.0080           0
     14866 WT6      596      MECN     C2       CG1N1    0.360000       12.0110           0
     14867 WT6      596      MECN     N3       NG1T1   -0.460000       14.0070           0
     14868 WT6      603      MECN     C1       CG331   -0.170000       12.0110           0
     14869 WT6      603      MECN     H11      HGA3     0.090000        1.0080           0
     14870 WT6      603      MECN     H12      HGA3     0.090000        1.0080           0
     14871 WT6      603      MECN     H13      HGA3     0.090000        1.0080           0
     14872 WT6      603      MECN     C2       CG1N1    0.360000       12.0110           0
     14873 WT6      603      MECN     N3       NG1T1   -0.460000       14.0070           0
     14874 WT6      605      MECN     C1       CG331   -0.170000       12.0110           0
     14875 WT6      605      MECN     H11      HGA3     0.090000        1.0080           0
     14876 WT6      605      MECN     H12      HGA3     0.090000        1.0080           0
     14877 WT6      605      MECN     H13      HGA3     0.090000        1.0080           0
     14878 WT6      605      MECN     C2       CG1N1    0.360000       12.0110           0
     14879 WT6      605      MECN     N3       NG1T1   -0.460000       14.0070           0
     14880 WT6      606      MECN     C1       CG331   -0.170000       12.0110           0
     14881 WT6      606      MECN     H11      HGA3     0.090000        1.0080           0
     14882 WT6      606      MECN     H12      HGA3     0.090000        1.0080           0
     14883 WT6      606      MECN     H13      HGA3     0.090000        1.0080           0
     14884 WT6      606      MECN     C2       CG1N1    0.360000       12.0110           0
     14885 WT6      606      MECN     N3       NG1T1   -0.460000       14.0070           0
     14886 WT6      609      MECN     C1       CG331   -0.170000       12.0110           0
     14887 WT6      609      MECN     H11      HGA3     0.090000        1.0080           0
     14888 WT6      609      MECN     H12      HGA3     0.090000        1.0080           0
     14889 WT6      609      MECN     H13      HGA3     0.090000        1.0080           0
     14890 WT6      609      MECN     C2       CG1N1    0.360000       12.0110           0
     14891 WT6      609      MECN     N3       NG1T1   -0.460000       14.0070           0
     14892 WT6      610      MECN     C1       CG331   -0.170000       12.0110           0
     14893 WT6      610      MECN     H11      HGA3     0.090000        1.0080           0
     14894 WT6      610      MECN     H12      HGA3     0.090000        1.0080           0
     14895 WT6      610      MECN     H13      HGA3     0.090000        1.0080           0
     14896 WT6      610      MECN     C2       CG1N1    0.360000       12.0110           0
     14897 WT6      610      MECN     N3       NG1T1   -0.460000       14.0070           0
     14898 WT6      612      MECN     C1       CG331   -0.170000       12.0110           0
     14899 WT6      612      MECN     H11      HGA3     0.090000        1.0080           0
     14900 WT6      612      MECN     H12      HGA3     0.090000        1.0080           0
     14901 WT6      612      MECN     H13      HGA3     0.090000        1.0080           0
     14902 WT6      612      MECN     C2       CG1N1    0.360000       12.0110           0
     14903 WT6      612      MECN     N3       NG1T1   -0.460000       14.0070           0
     14904 WT6      614      MECN     C1       CG331   -0.170000       12.0110           0
     14905 WT6      614      MECN     H11      HGA3     0.090000        1.0080           0
     14906 WT6      614      MECN     H12      HGA3     0.090000        1.0080           0
     14907 WT6      614      MECN     H13      HGA3     0.090000        1.0080           0
     14908 WT6      614      MECN     C2       CG1N1    0.360000       12.0110           0
     14909 WT6      614      MECN     N3       NG1T1   -0.460000       14.0070           0
     14910 WT6      616      MECN     C1       CG331   -0.170000       12.0110           0
     14911 WT6      616      MECN     H11      HGA3     0.090000        1.0080           0
     14912 WT6      616      MECN     H12      HGA3     0.090000        1.0080           0
     14913 WT6      616      MECN     H13      HGA3     0.090000        1.0080           0
     14914 WT6      616      MECN     C2       CG1N1    0.360000       12.0110           0
     14915 WT6      616      MECN     N3       NG1T1   -0.460000       14.0070           0
     14916 WT6      623      MECN     C1       CG331   -0.170000       12.0110           0
     14917 WT6      623      MECN     H11      HGA3     0.090000        1.0080           0
     14918 WT6      623      MECN     H12      HGA3     0.090000        1.0080           0
     14919 WT6      623      MECN     H13      HGA3     0.090000        1.0080           0
     14920 WT6      623      MECN     C2       CG1N1    0.360000       12.0110           0
     14921 WT6      623      MECN     N3       NG1T1   -0.460000       14.0070           0
     14922 WT6      628      MECN     C1       CG331   -0.170000       12.0110           0
     14923 WT6      628      MECN     H11      HGA3     0.090000        1.0080           0
     14924 WT6      628      MECN     H12      HGA3     0.090000        1.0080           0
     14925 WT6      628      MECN     H13      HGA3     0.090000        1.0080           0
     14926 WT6      628      MECN     C2       CG1N1    0.360000       12.0110           0
     14927 WT6      628      MECN     N3       NG1T1   -0.460000       14.0070           0
     14928 WT6      630      MECN     C1       CG331   -0.170000       12.0110           0
     14929 WT6      630      MECN     H11      HGA3     0.090000        1.0080           0
     14930 WT6      630      MECN     H12      HGA3     0.090000        1.0080           0
     14931 WT6      630      MECN     H13      HGA3     0.090000        1.0080           0
     14932 WT6      630      MECN     C2       CG1N1    0.360000       12.0110           0
     14933 WT6      630      MECN     N3       NG1T1   -0.460000       14.0070           0
     14934 WT6      632      MECN     C1       CG331   -0.170000       12.0110           0
     14935 WT6      632      MECN     H11      HGA3     0.090000        1.0080           0
     14936 WT6      632      MECN     H12      HGA3     0.090000        1.0080           0
     14937 WT6      632      MECN     H13      HGA3     0.090000        1.0080           0
     14938 WT6      632      MECN     C2       CG1N1    0.360000       12.0110           0
     14939 WT6      632      MECN     N3       NG1T1   -0.460000       14.0070           0
     14940 WT6      638      MECN     C1       CG331   -0.170000       12.0110           0
     14941 WT6      638      MECN     H11      HGA3     0.090000        1.0080           0
     14942 WT6      638      MECN     H12      HGA3     0.090000        1.0080           0
     14943 WT6      638      MECN     H13      HGA3     0.090000        1.0080           0
     14944 WT6      638      MECN     C2       CG1N1    0.360000       12.0110           0
     14945 WT6      638      MECN     N3       NG1T1   -0.460000       14.0070           0
     14946 WT6      642      MECN     C1       CG331   -0.170000       12.0110           0
     14947 WT6      642      MECN     H11      HGA3     0.090000        1.0080           0
     14948 WT6      642      MECN     H12      HGA3     0.090000        1.0080           0
     14949 WT6      642      MECN     H13      HGA3     0.090000        1.0080           0
     14950 WT6      642      MECN     C2       CG1N1    0.360000       12.0110           0
     14951 WT6      642      MECN     N3       NG1T1   -0.460000       14.0070           0
     14952 WT6      650      MECN     C1       CG331   -0.170000       12.0110           0
     14953 WT6      650      MECN     H11      HGA3     0.090000        1.0080           0
     14954 WT6      650      MECN     H12      HGA3     0.090000        1.0080           0
     14955 WT6      650      MECN     H13      HGA3     0.090000        1.0080           0
     14956 WT6      650      MECN     C2       CG1N1    0.360000       12.0110           0
     14957 WT6      650      MECN     N3       NG1T1   -0.460000       14.0070           0
     14958 WT6      658      MECN     C1       CG331   -0.170000       12.0110           0
     14959 WT6      658      MECN     H11      HGA3     0.090000        1.0080           0
     14960 WT6      658      MECN     H12      HGA3     0.090000        1.0080           0
     14961 WT6      658      MECN     H13      HGA3     0.090000        1.0080           0
     14962 WT6      658      MECN     C2       CG1N1    0.360000       12.0110           0
     14963 WT6      658      MECN     N3       NG1T1   -0.460000       14.0070           0
     14964 WT6      659      MECN     C1       CG331   -0.170000       12.0110           0
     14965 WT6      659      MECN     H11      HGA3     0.090000        1.0080           0
     14966 WT6      659      MECN     H12      HGA3     0.090000        1.0080           0
     14967 WT6      659      MECN     H13      HGA3     0.090000        1.0080           0
     14968 WT6      659      MECN     C2       CG1N1    0.360000       12.0110           0
     14969 WT6      659      MECN     N3       NG1T1   -0.460000       14.0070           0
     14970 WT6      663      MECN     C1       CG331   -0.170000       12.0110           0
     14971 WT6      663      MECN     H11      HGA3     0.090000        1.0080           0
     14972 WT6      663      MECN     H12      HGA3     0.090000        1.0080           0
     14973 WT6      663      MECN     H13      HGA3     0.090000        1.0080           0
     14974 WT6      663      MECN     C2       CG1N1    0.360000       12.0110           0
     14975 WT6      663      MECN     N3       NG1T1   -0.460000       14.0070           0
     14976 WT6      668      MECN     C1       CG331   -0.170000       12.0110           0
     14977 WT6      668      MECN     H11      HGA3     0.090000        1.0080           0
     14978 WT6      668      MECN     H12      HGA3     0.090000        1.0080           0
     14979 WT6      668      MECN     H13      HGA3     0.090000        1.0080           0
     14980 WT6      668      MECN     C2       CG1N1    0.360000       12.0110           0
     14981 WT6      668      MECN     N3       NG1T1   -0.460000       14.0070           0
     14982 WT6      670      MECN     C1       CG331   -0.170000       12.0110           0
     14983 WT6      670      MECN     H11      HGA3     0.090000        1.0080           0
     14984 WT6      670      MECN     H12      HGA3     0.090000        1.0080           0
     14985 WT6      670      MECN     H13      HGA3     0.090000        1.0080           0
     14986 WT6      670      MECN     C2       CG1N1    0.360000       12.0110           0
     14987 WT6      670      MECN     N3       NG1T1   -0.460000       14.0070           0
     14988 WT6      674      MECN     C1       CG331   -0.170000       12.0110           0
     14989 WT6      674      MECN     H11      HGA3     0.090000        1.0080           0
     14990 WT6      674      MECN     H12      HGA3     0.090000        1.0080           0
     14991 WT6      674      MECN     H13      HGA3     0.090000        1.0080           0
     14992 WT6      674      MECN     C2       CG1N1    0.360000       12.0110           0
     14993 WT6      674      MECN     N3       NG1T1   -0.460000       14.0070           0
     14994 WT6      677      MECN     C1       CG331   -0.170000       12.0110           0
     14995 WT6      677      MECN     H11      HGA3     0.090000        1.0080           0
     14996 WT6      677      MECN     H12      HGA3     0.090000        1.0080           0
     14997 WT6      677      MECN     H13      HGA3     0.090000        1.0080           0
     14998 WT6      677      MECN     C2       CG1N1    0.360000       12.0110           0
     14999 WT6      677      MECN     N3       NG1T1   -0.460000       14.0070           0
     15000 WT6      679      MECN     C1       CG331   -0.170000       12.0110           0
     15001 WT6      679      MECN     H11      HGA3     0.090000        1.0080           0
     15002 WT6      679      MECN     H12      HGA3     0.090000        1.0080           0
     15003 WT6      679      MECN     H13      HGA3     0.090000        1.0080           0
     15004 WT6      679      MECN     C2       CG1N1    0.360000       12.0110           0
     15005 WT6      679      MECN     N3       NG1T1   -0.460000       14.0070           0
     15006 WT6      680      MECN     C1       CG331   -0.170000       12.0110           0
     15007 WT6      680      MECN     H11      HGA3     0.090000        1.0080           0
     15008 WT6      680      MECN     H12      HGA3     0.090000        1.0080           0
     15009 WT6      680      MECN     H13      HGA3     0.090000        1.0080           0
     15010 WT6      680      MECN     C2       CG1N1    0.360000       12.0110           0
     15011 WT6      680      MECN     N3       NG1T1   -0.460000       14.0070           0
     15012 WT6      681      MECN     C1       CG331   -0.170000       12.0110           0
     15013 WT6      681      MECN     H11      HGA3     0.090000        1.0080           0
     15014 WT6      681      MECN     H12      HGA3     0.090000        1.0080           0
     15015 WT6      681      MECN     H13      HGA3     0.090000        1.0080           0
     15016 WT6      681      MECN     C2       CG1N1    0.360000       12.0110           0
     15017 WT6      681      MECN     N3       NG1T1   -0.460000       14.0070           0
     15018 WT6      687      MECN     C1       CG331   -0.170000       12.0110           0
     15019 WT6      687      MECN     H11      HGA3     0.090000        1.0080           0
     15020 WT6      687      MECN     H12      HGA3     0.090000        1.0080           0
     15021 WT6      687      MECN     H13      HGA3     0.090000        1.0080           0
     15022 WT6      687      MECN     C2       CG1N1    0.360000       12.0110           0
     15023 WT6      687      MECN     N3       NG1T1   -0.460000       14.0070           0
     15024 WT6      688      MECN     C1       CG331   -0.170000       12.0110           0
     15025 WT6      688      MECN     H11      HGA3     0.090000        1.0080           0
     15026 WT6      688      MECN     H12      HGA3     0.090000        1.0080           0
     15027 WT6      688      MECN     H13      HGA3     0.090000        1.0080           0
     15028 WT6      688      MECN     C2       CG1N1    0.360000       12.0110           0
     15029 WT6      688      MECN     N3       NG1T1   -0.460000       14.0070           0
     15030 WT6      689      MECN     C1       CG331   -0.170000       12.0110           0
     15031 WT6      689      MECN     H11      HGA3     0.090000        1.0080           0
     15032 WT6      689      MECN     H12      HGA3     0.090000        1.0080           0
     15033 WT6      689      MECN     H13      HGA3     0.090000        1.0080           0
     15034 WT6      689      MECN     C2       CG1N1    0.360000       12.0110           0
     15035 WT6      689      MECN     N3       NG1T1   -0.460000       14.0070           0
     15036 WT6      692      MECN     C1       CG331   -0.170000       12.0110           0
     15037 WT6      692      MECN     H11      HGA3     0.090000        1.0080           0
     15038 WT6      692      MECN     H12      HGA3     0.090000        1.0080           0
     15039 WT6      692      MECN     H13      HGA3     0.090000        1.0080           0
     15040 WT6      692      MECN     C2       CG1N1    0.360000       12.0110           0
     15041 WT6      692      MECN     N3       NG1T1   -0.460000       14.0070           0
     15042 WT6      695      MECN     C1       CG331   -0.170000       12.0110           0
     15043 WT6      695      MECN     H11      HGA3     0.090000        1.0080           0
     15044 WT6      695      MECN     H12      HGA3     0.090000        1.0080           0
     15045 WT6      695      MECN     H13      HGA3     0.090000        1.0080           0
     15046 WT6      695      MECN     C2       CG1N1    0.360000       12.0110           0
     15047 WT6      695      MECN     N3       NG1T1   -0.460000       14.0070           0
     15048 WT6      696      MECN     C1       CG331   -0.170000       12.0110           0
     15049 WT6      696      MECN     H11      HGA3     0.090000        1.0080           0
     15050 WT6      696      MECN     H12      HGA3     0.090000        1.0080           0
     15051 WT6      696      MECN     H13      HGA3     0.090000        1.0080           0
     15052 WT6      696      MECN     C2       CG1N1    0.360000       12.0110           0
     15053 WT6      696      MECN     N3       NG1T1   -0.460000       14.0070           0
     15054 WT6      700      MECN     C1       CG331   -0.170000       12.0110           0
     15055 WT6      700      MECN     H11      HGA3     0.090000        1.0080           0
     15056 WT6      700      MECN     H12      HGA3     0.090000        1.0080           0
     15057 WT6      700      MECN     H13      HGA3     0.090000        1.0080           0
     15058 WT6      700      MECN     C2       CG1N1    0.360000       12.0110           0
     15059 WT6      700      MECN     N3       NG1T1   -0.460000       14.0070           0
     15060 WT6      703      MECN     C1       CG331   -0.170000       12.0110           0
     15061 WT6      703      MECN     H11      HGA3     0.090000        1.0080           0
     15062 WT6      703      MECN     H12      HGA3     0.090000        1.0080           0
     15063 WT6      703      MECN     H13      HGA3     0.090000        1.0080           0
     15064 WT6      703      MECN     C2       CG1N1    0.360000       12.0110           0
     15065 WT6      703      MECN     N3       NG1T1   -0.460000       14.0070           0
     15066 WT6      705      MECN     C1       CG331   -0.170000       12.0110           0
     15067 WT6      705      MECN     H11      HGA3     0.090000        1.0080           0
     15068 WT6      705      MECN     H12      HGA3     0.090000        1.0080           0
     15069 WT6      705      MECN     H13      HGA3     0.090000        1.0080           0
     15070 WT6      705      MECN     C2       CG1N1    0.360000       12.0110           0
     15071 WT6      705      MECN     N3       NG1T1   -0.460000       14.0070           0
     15072 WT6      706      MECN     C1       CG331   -0.170000       12.0110           0
     15073 WT6      706      MECN     H11      HGA3     0.090000        1.0080           0
     15074 WT6      706      MECN     H12      HGA3     0.090000        1.0080           0
     15075 WT6      706      MECN     H13      HGA3     0.090000        1.0080           0
     15076 WT6      706      MECN     C2       CG1N1    0.360000       12.0110           0
     15077 WT6      706      MECN     N3       NG1T1   -0.460000       14.0070           0
     15078 WT6      707      MECN     C1       CG331   -0.170000       12.0110           0
     15079 WT6      707      MECN     H11      HGA3     0.090000        1.0080           0
     15080 WT6      707      MECN     H12      HGA3     0.090000        1.0080           0
     15081 WT6      707      MECN     H13      HGA3     0.090000        1.0080           0
     15082 WT6      707      MECN     C2       CG1N1    0.360000       12.0110           0
     15083 WT6      707      MECN     N3       NG1T1   -0.460000       14.0070           0
     15084 WT6      710      MECN     C1       CG331   -0.170000       12.0110           0
     15085 WT6      710      MECN     H11      HGA3     0.090000        1.0080           0
     15086 WT6      710      MECN     H12      HGA3     0.090000        1.0080           0
     15087 WT6      710      MECN     H13      HGA3     0.090000        1.0080           0
     15088 WT6      710      MECN     C2       CG1N1    0.360000       12.0110           0
     15089 WT6      710      MECN     N3       NG1T1   -0.460000       14.0070           0
     15090 WT6      711      MECN     C1       CG331   -0.170000       12.0110           0
     15091 WT6      711      MECN     H11      HGA3     0.090000        1.0080           0
     15092 WT6      711      MECN     H12      HGA3     0.090000        1.0080           0
     15093 WT6      711      MECN     H13      HGA3     0.090000        1.0080           0
     15094 WT6      711      MECN     C2       CG1N1    0.360000       12.0110           0
     15095 WT6      711      MECN     N3       NG1T1   -0.460000       14.0070           0
     15096 WT6      714      MECN     C1       CG331   -0.170000       12.0110           0
     15097 WT6      714      MECN     H11      HGA3     0.090000        1.0080           0
     15098 WT6      714      MECN     H12      HGA3     0.090000        1.0080           0
     15099 WT6      714      MECN     H13      HGA3     0.090000        1.0080           0
     15100 WT6      714      MECN     C2       CG1N1    0.360000       12.0110           0
     15101 WT6      714      MECN     N3       NG1T1   -0.460000       14.0070           0
     15102 WT6      715      MECN     C1       CG331   -0.170000       12.0110           0
     15103 WT6      715      MECN     H11      HGA3     0.090000        1.0080           0
     15104 WT6      715      MECN     H12      HGA3     0.090000        1.0080           0
     15105 WT6      715      MECN     H13      HGA3     0.090000        1.0080           0
     15106 WT6      715      MECN     C2       CG1N1    0.360000       12.0110           0
     15107 WT6      715      MECN     N3       NG1T1   -0.460000       14.0070           0
     15108 WT6      718      MECN     C1       CG331   -0.170000       12.0110           0
     15109 WT6      718      MECN     H11      HGA3     0.090000        1.0080           0
     15110 WT6      718      MECN     H12      HGA3     0.090000        1.0080           0
     15111 WT6      718      MECN     H13      HGA3     0.090000        1.0080           0
     15112 WT6      718      MECN     C2       CG1N1    0.360000       12.0110           0
     15113 WT6      718      MECN     N3       NG1T1   -0.460000       14.0070           0
     15114 WT6      719      MECN     C1       CG331   -0.170000       12.0110           0
     15115 WT6      719      MECN     H11      HGA3     0.090000        1.0080           0
     15116 WT6      719      MECN     H12      HGA3     0.090000        1.0080           0
     15117 WT6      719      MECN     H13      HGA3     0.090000        1.0080           0
     15118 WT6      719      MECN     C2       CG1N1    0.360000       12.0110           0
     15119 WT6      719      MECN     N3       NG1T1   -0.460000       14.0070           0
     15120 WT6      725      MECN     C1       CG331   -0.170000       12.0110           0
     15121 WT6      725      MECN     H11      HGA3     0.090000        1.0080           0
     15122 WT6      725      MECN     H12      HGA3     0.090000        1.0080           0
     15123 WT6      725      MECN     H13      HGA3     0.090000        1.0080           0
     15124 WT6      725      MECN     C2       CG1N1    0.360000       12.0110           0
     15125 WT6      725      MECN     N3       NG1T1   -0.460000       14.0070           0
     15126 WT6      726      MECN     C1       CG331   -0.170000       12.0110           0
     15127 WT6      726      MECN     H11      HGA3     0.090000        1.0080           0
     15128 WT6      726      MECN     H12      HGA3     0.090000        1.0080           0
     15129 WT6      726      MECN     H13      HGA3     0.090000        1.0080           0
     15130 WT6      726      MECN     C2       CG1N1    0.360000       12.0110           0
     15131 WT6      726      MECN     N3       NG1T1   -0.460000       14.0070           0
     15132 WT6      728      MECN     C1       CG331   -0.170000       12.0110           0
     15133 WT6      728      MECN     H11      HGA3     0.090000        1.0080           0
     15134 WT6      728      MECN     H12      HGA3     0.090000        1.0080           0
     15135 WT6      728      MECN     H13      HGA3     0.090000        1.0080           0
     15136 WT6      728      MECN     C2       CG1N1    0.360000       12.0110           0
     15137 WT6      728      MECN     N3       NG1T1   -0.460000       14.0070           0
     15138 WT6      736      MECN     C1       CG331   -0.170000       12.0110           0
     15139 WT6      736      MECN     H11      HGA3     0.090000        1.0080           0
     15140 WT6      736      MECN     H12      HGA3     0.090000        1.0080           0
     15141 WT6      736      MECN     H13      HGA3     0.090000        1.0080           0
     15142 WT6      736      MECN     C2       CG1N1    0.360000       12.0110           0
     15143 WT6      736      MECN     N3       NG1T1   -0.460000       14.0070           0
     15144 WT6      738      MECN     C1       CG331   -0.170000       12.0110           0
     15145 WT6      738      MECN     H11      HGA3     0.090000        1.0080           0
     15146 WT6      738      MECN     H12      HGA3     0.090000        1.0080           0
     15147 WT6      738      MECN     H13      HGA3     0.090000        1.0080           0
     15148 WT6      738      MECN     C2       CG1N1    0.360000       12.0110           0
     15149 WT6      738      MECN     N3       NG1T1   -0.460000       14.0070           0
     15150 WT6      739      MECN     C1       CG331   -0.170000       12.0110           0
     15151 WT6      739      MECN     H11      HGA3     0.090000        1.0080           0
     15152 WT6      739      MECN     H12      HGA3     0.090000        1.0080           0
     15153 WT6      739      MECN     H13      HGA3     0.090000        1.0080           0
     15154 WT6      739      MECN     C2       CG1N1    0.360000       12.0110           0
     15155 WT6      739      MECN     N3       NG1T1   -0.460000       14.0070           0
     15156 WT6      742      MECN     C1       CG331   -0.170000       12.0110           0
     15157 WT6      742      MECN     H11      HGA3     0.090000        1.0080           0
     15158 WT6      742      MECN     H12      HGA3     0.090000        1.0080           0
     15159 WT6      742      MECN     H13      HGA3     0.090000        1.0080           0
     15160 WT6      742      MECN     C2       CG1N1    0.360000       12.0110           0
     15161 WT6      742      MECN     N3       NG1T1   -0.460000       14.0070           0
     15162 WT6      744      MECN     C1       CG331   -0.170000       12.0110           0
     15163 WT6      744      MECN     H11      HGA3     0.090000        1.0080           0
     15164 WT6      744      MECN     H12      HGA3     0.090000        1.0080           0
     15165 WT6      744      MECN     H13      HGA3     0.090000        1.0080           0
     15166 WT6      744      MECN     C2       CG1N1    0.360000       12.0110           0
     15167 WT6      744      MECN     N3       NG1T1   -0.460000       14.0070           0
     15168 WT6      745      MECN     C1       CG331   -0.170000       12.0110           0
     15169 WT6      745      MECN     H11      HGA3     0.090000        1.0080           0
     15170 WT6      745      MECN     H12      HGA3     0.090000        1.0080           0
     15171 WT6      745      MECN     H13      HGA3     0.090000        1.0080           0
     15172 WT6      745      MECN     C2       CG1N1    0.360000       12.0110           0
     15173 WT6      745      MECN     N3       NG1T1   -0.460000       14.0070           0
     15174 WT6      749      MECN     C1       CG331   -0.170000       12.0110           0
     15175 WT6      749      MECN     H11      HGA3     0.090000        1.0080           0
     15176 WT6      749      MECN     H12      HGA3     0.090000        1.0080           0
     15177 WT6      749      MECN     H13      HGA3     0.090000        1.0080           0
     15178 WT6      749      MECN     C2       CG1N1    0.360000       12.0110           0
     15179 WT6      749      MECN     N3       NG1T1   -0.460000       14.0070           0
     15180 WT6      751      MECN     C1       CG331   -0.170000       12.0110           0
     15181 WT6      751      MECN     H11      HGA3     0.090000        1.0080           0
     15182 WT6      751      MECN     H12      HGA3     0.090000        1.0080           0
     15183 WT6      751      MECN     H13      HGA3     0.090000        1.0080           0
     15184 WT6      751      MECN     C2       CG1N1    0.360000       12.0110           0
     15185 WT6      751      MECN     N3       NG1T1   -0.460000       14.0070           0
     15186 WT6      758      MECN     C1       CG331   -0.170000       12.0110           0
     15187 WT6      758      MECN     H11      HGA3     0.090000        1.0080           0
     15188 WT6      758      MECN     H12      HGA3     0.090000        1.0080           0
     15189 WT6      758      MECN     H13      HGA3     0.090000        1.0080           0
     15190 WT6      758      MECN     C2       CG1N1    0.360000       12.0110           0
     15191 WT6      758      MECN     N3       NG1T1   -0.460000       14.0070           0
     15192 WT6      759      MECN     C1       CG331   -0.170000       12.0110           0
     15193 WT6      759      MECN     H11      HGA3     0.090000        1.0080           0
     15194 WT6      759      MECN     H12      HGA3     0.090000        1.0080           0
     15195 WT6      759      MECN     H13      HGA3     0.090000        1.0080           0
     15196 WT6      759      MECN     C2       CG1N1    0.360000       12.0110           0
     15197 WT6      759      MECN     N3       NG1T1   -0.460000       14.0070           0
     15198 WT6      762      MECN     C1       CG331   -0.170000       12.0110           0
     15199 WT6      762      MECN     H11      HGA3     0.090000        1.0080           0
     15200 WT6      762      MECN     H12      HGA3     0.090000        1.0080           0
     15201 WT6      762      MECN     H13      HGA3     0.090000        1.0080           0
     15202 WT6      762      MECN     C2       CG1N1    0.360000       12.0110           0
     15203 WT6      762      MECN     N3       NG1T1   -0.460000       14.0070           0
     15204 WT6      777      MECN     C1       CG331   -0.170000       12.0110           0
     15205 WT6      777      MECN     H11      HGA3     0.090000        1.0080           0
     15206 WT6      777      MECN     H12      HGA3     0.090000        1.0080           0
     15207 WT6      777      MECN     H13      HGA3     0.090000        1.0080           0
     15208 WT6      777      MECN     C2       CG1N1    0.360000       12.0110           0
     15209 WT6      777      MECN     N3       NG1T1   -0.460000       14.0070           0
     15210 WT6      780      MECN     C1       CG331   -0.170000       12.0110           0
     15211 WT6      780      MECN     H11      HGA3     0.090000        1.0080           0
     15212 WT6      780      MECN     H12      HGA3     0.090000        1.0080           0
     15213 WT6      780      MECN     H13      HGA3     0.090000        1.0080           0
     15214 WT6      780      MECN     C2       CG1N1    0.360000       12.0110           0
     15215 WT6      780      MECN     N3       NG1T1   -0.460000       14.0070           0
     15216 WT6      781      MECN     C1       CG331   -0.170000       12.0110           0
     15217 WT6      781      MECN     H11      HGA3     0.090000        1.0080           0
     15218 WT6      781      MECN     H12      HGA3     0.090000        1.0080           0
     15219 WT6      781      MECN     H13      HGA3     0.090000        1.0080           0
     15220 WT6      781      MECN     C2       CG1N1    0.360000       12.0110           0
     15221 WT6      781      MECN     N3       NG1T1   -0.460000       14.0070           0
     15222 WT6      785      MECN     C1       CG331   -0.170000       12.0110           0
     15223 WT6      785      MECN     H11      HGA3     0.090000        1.0080           0
     15224 WT6      785      MECN     H12      HGA3     0.090000        1.0080           0
     15225 WT6      785      MECN     H13      HGA3     0.090000        1.0080           0
     15226 WT6      785      MECN     C2       CG1N1    0.360000       12.0110           0
     15227 WT6      785      MECN     N3       NG1T1   -0.460000       14.0070           0
     15228 WT6      787      MECN     C1       CG331   -0.170000       12.0110           0
     15229 WT6      787      MECN     H11      HGA3     0.090000        1.0080           0
     15230 WT6      787      MECN     H12      HGA3     0.090000        1.0080           0
     15231 WT6      787      MECN     H13      HGA3     0.090000        1.0080           0
     15232 WT6      787      MECN     C2       CG1N1    0.360000       12.0110           0
     15233 WT6      787      MECN     N3       NG1T1   -0.460000       14.0070           0
     15234 WT6      788      MECN     C1       CG331   -0.170000       12.0110           0
     15235 WT6      788      MECN     H11      HGA3     0.090000        1.0080           0
     15236 WT6      788      MECN     H12      HGA3     0.090000        1.0080           0
     15237 WT6      788      MECN     H13      HGA3     0.090000        1.0080           0
     15238 WT6      788      MECN     C2       CG1N1    0.360000       12.0110           0
     15239 WT6      788      MECN     N3       NG1T1   -0.460000       14.0070           0
     15240 WT6      790      MECN     C1       CG331   -0.170000       12.0110           0
     15241 WT6      790      MECN     H11      HGA3     0.090000        1.0080           0
     15242 WT6      790      MECN     H12      HGA3     0.090000        1.0080           0
     15243 WT6      790      MECN     H13      HGA3     0.090000        1.0080           0
     15244 WT6      790      MECN     C2       CG1N1    0.360000       12.0110           0
     15245 WT6      790      MECN     N3       NG1T1   -0.460000       14.0070           0
     15246 WT6      792      MECN     C1       CG331   -0.170000       12.0110           0
     15247 WT6      792      MECN     H11      HGA3     0.090000        1.0080           0
     15248 WT6      792      MECN     H12      HGA3     0.090000        1.0080           0
     15249 WT6      792      MECN     H13      HGA3     0.090000        1.0080           0
     15250 WT6      792      MECN     C2       CG1N1    0.360000       12.0110           0
     15251 WT6      792      MECN     N3       NG1T1   -0.460000       14.0070           0
     15252 WT6      794      MECN     C1       CG331   -0.170000       12.0110           0
     15253 WT6      794      MECN     H11      HGA3     0.090000        1.0080           0
     15254 WT6      794      MECN     H12      HGA3     0.090000        1.0080           0
     15255 WT6      794      MECN     H13      HGA3     0.090000        1.0080           0
     15256 WT6      794      MECN     C2       CG1N1    0.360000       12.0110           0
     15257 WT6      794      MECN     N3       NG1T1   -0.460000       14.0070           0
     15258 WT6      804      MECN     C1       CG331   -0.170000       12.0110           0
     15259 WT6      804      MECN     H11      HGA3     0.090000        1.0080           0
     15260 WT6      804      MECN     H12      HGA3     0.090000        1.0080           0
     15261 WT6      804      MECN     H13      HGA3     0.090000        1.0080           0
     15262 WT6      804      MECN     C2       CG1N1    0.360000       12.0110           0
     15263 WT6      804      MECN     N3       NG1T1   -0.460000       14.0070           0
     15264 WT6      805      MECN     C1       CG331   -0.170000       12.0110           0
     15265 WT6      805      MECN     H11      HGA3     0.090000        1.0080           0
     15266 WT6      805      MECN     H12      HGA3     0.090000        1.0080           0
     15267 WT6      805      MECN     H13      HGA3     0.090000        1.0080           0
     15268 WT6      805      MECN     C2       CG1N1    0.360000       12.0110           0
     15269 WT6      805      MECN     N3       NG1T1   -0.460000       14.0070           0
     15270 WT6      810      MECN     C1       CG331   -0.170000       12.0110           0
     15271 WT6      810      MECN     H11      HGA3     0.090000        1.0080           0
     15272 WT6      810      MECN     H12      HGA3     0.090000        1.0080           0
     15273 WT6      810      MECN     H13      HGA3     0.090000        1.0080           0
     15274 WT6      810      MECN     C2       CG1N1    0.360000       12.0110           0
     15275 WT6      810      MECN     N3       NG1T1   -0.460000       14.0070           0
     15276 WT6      811      MECN     C1       CG331   -0.170000       12.0110           0
     15277 WT6      811      MECN     H11      HGA3     0.090000        1.0080           0
     15278 WT6      811      MECN     H12      HGA3     0.090000        1.0080           0
     15279 WT6      811      MECN     H13      HGA3     0.090000        1.0080           0
     15280 WT6      811      MECN     C2       CG1N1    0.360000       12.0110           0
     15281 WT6      811      MECN     N3       NG1T1   -0.460000       14.0070           0
     15282 WT6      813      MECN     C1       CG331   -0.170000       12.0110           0
     15283 WT6      813      MECN     H11      HGA3     0.090000        1.0080           0
     15284 WT6      813      MECN     H12      HGA3     0.090000        1.0080           0
     15285 WT6      813      MECN     H13      HGA3     0.090000        1.0080           0
     15286 WT6      813      MECN     C2       CG1N1    0.360000       12.0110           0
     15287 WT6      813      MECN     N3       NG1T1   -0.460000       14.0070           0
     15288 WT6      818      MECN     C1       CG331   -0.170000       12.0110           0
     15289 WT6      818      MECN     H11      HGA3     0.090000        1.0080           0
     15290 WT6      818      MECN     H12      HGA3     0.090000        1.0080           0
     15291 WT6      818      MECN     H13      HGA3     0.090000        1.0080           0
     15292 WT6      818      MECN     C2       CG1N1    0.360000       12.0110           0
     15293 WT6      818      MECN     N3       NG1T1   -0.460000       14.0070           0
     15294 WT6      820      MECN     C1       CG331   -0.170000       12.0110           0
     15295 WT6      820      MECN     H11      HGA3     0.090000        1.0080           0
     15296 WT6      820      MECN     H12      HGA3     0.090000        1.0080           0
     15297 WT6      820      MECN     H13      HGA3     0.090000        1.0080           0
     15298 WT6      820      MECN     C2       CG1N1    0.360000       12.0110           0
     15299 WT6      820      MECN     N3       NG1T1   -0.460000       14.0070           0
     15300 WT6      825      MECN     C1       CG331   -0.170000       12.0110           0
     15301 WT6      825      MECN     H11      HGA3     0.090000        1.0080           0
     15302 WT6      825      MECN     H12      HGA3     0.090000        1.0080           0
     15303 WT6      825      MECN     H13      HGA3     0.090000        1.0080           0
     15304 WT6      825      MECN     C2       CG1N1    0.360000       12.0110           0
     15305 WT6      825      MECN     N3       NG1T1   -0.460000       14.0070           0
     15306 WT6      830      MECN     C1       CG331   -0.170000       12.0110           0
     15307 WT6      830      MECN     H11      HGA3     0.090000        1.0080           0
     15308 WT6      830      MECN     H12      HGA3     0.090000        1.0080           0
     15309 WT6      830      MECN     H13      HGA3     0.090000        1.0080           0
     15310 WT6      830      MECN     C2       CG1N1    0.360000       12.0110           0
     15311 WT6      830      MECN     N3       NG1T1   -0.460000       14.0070           0
     15312 WT6      832      MECN     C1       CG331   -0.170000       12.0110           0
     15313 WT6      832      MECN     H11      HGA3     0.090000        1.0080           0
     15314 WT6      832      MECN     H12      HGA3     0.090000        1.0080           0
     15315 WT6      832      MECN     H13      HGA3     0.090000        1.0080           0
     15316 WT6      832      MECN     C2       CG1N1    0.360000       12.0110           0
     15317 WT6      832      MECN     N3       NG1T1   -0.460000       14.0070           0
     15318 WT6      836      MECN     C1       CG331   -0.170000       12.0110           0
     15319 WT6      836      MECN     H11      HGA3     0.090000        1.0080           0
     15320 WT6      836      MECN     H12      HGA3     0.090000        1.0080           0
     15321 WT6      836      MECN     H13      HGA3     0.090000        1.0080           0
     15322 WT6      836      MECN     C2       CG1N1    0.360000       12.0110           0
     15323 WT6      836      MECN     N3       NG1T1   -0.460000       14.0070           0
     15324 WT6      837      MECN     C1       CG331   -0.170000       12.0110           0
     15325 WT6      837      MECN     H11      HGA3     0.090000        1.0080           0
     15326 WT6      837      MECN     H12      HGA3     0.090000        1.0080           0
     15327 WT6      837      MECN     H13      HGA3     0.090000        1.0080           0
     15328 WT6      837      MECN     C2       CG1N1    0.360000       12.0110           0
     15329 WT6      837      MECN     N3       NG1T1   -0.460000       14.0070           0
     15330 WT6      838      MECN     C1       CG331   -0.170000       12.0110           0
     15331 WT6      838      MECN     H11      HGA3     0.090000        1.0080           0
     15332 WT6      838      MECN     H12      HGA3     0.090000        1.0080           0
     15333 WT6      838      MECN     H13      HGA3     0.090000        1.0080           0
     15334 WT6      838      MECN     C2       CG1N1    0.360000       12.0110           0
     15335 WT6      838      MECN     N3       NG1T1   -0.460000       14.0070           0
     15336 WT6      839      MECN     C1       CG331   -0.170000       12.0110           0
     15337 WT6      839      MECN     H11      HGA3     0.090000        1.0080           0
     15338 WT6      839      MECN     H12      HGA3     0.090000        1.0080           0
     15339 WT6      839      MECN     H13      HGA3     0.090000        1.0080           0
     15340 WT6      839      MECN     C2       CG1N1    0.360000       12.0110           0
     15341 WT6      839      MECN     N3       NG1T1   -0.460000       14.0070           0
     15342 WT6      845      MECN     C1       CG331   -0.170000       12.0110           0
     15343 WT6      845      MECN     H11      HGA3     0.090000        1.0080           0
     15344 WT6      845      MECN     H12      HGA3     0.090000        1.0080           0
     15345 WT6      845      MECN     H13      HGA3     0.090000        1.0080           0
     15346 WT6      845      MECN     C2       CG1N1    0.360000       12.0110           0
     15347 WT6      845      MECN     N3       NG1T1   -0.460000       14.0070           0
     15348 WT6      848      MECN     C1       CG331   -0.170000       12.0110           0
     15349 WT6      848      MECN     H11      HGA3     0.090000        1.0080           0
     15350 WT6      848      MECN     H12      HGA3     0.090000        1.0080           0
     15351 WT6      848      MECN     H13      HGA3     0.090000        1.0080           0
     15352 WT6      848      MECN     C2       CG1N1    0.360000       12.0110           0
     15353 WT6      848      MECN     N3       NG1T1   -0.460000       14.0070           0
     15354 WT6      851      MECN     C1       CG331   -0.170000       12.0110           0
     15355 WT6      851      MECN     H11      HGA3     0.090000        1.0080           0
     15356 WT6      851      MECN     H12      HGA3     0.090000        1.0080           0
     15357 WT6      851      MECN     H13      HGA3     0.090000        1.0080           0
     15358 WT6      851      MECN     C2       CG1N1    0.360000       12.0110           0
     15359 WT6      851      MECN     N3       NG1T1   -0.460000       14.0070           0
     15360 WT6      853      MECN     C1       CG331   -0.170000       12.0110           0
     15361 WT6      853      MECN     H11      HGA3     0.090000        1.0080           0
     15362 WT6      853      MECN     H12      HGA3     0.090000        1.0080           0
     15363 WT6      853      MECN     H13      HGA3     0.090000        1.0080           0
     15364 WT6      853      MECN     C2       CG1N1    0.360000       12.0110           0
     15365 WT6      853      MECN     N3       NG1T1   -0.460000       14.0070           0
     15366 WT6      854      MECN     C1       CG331   -0.170000       12.0110           0
     15367 WT6      854      MECN     H11      HGA3     0.090000        1.0080           0
     15368 WT6      854      MECN     H12      HGA3     0.090000        1.0080           0
     15369 WT6      854      MECN     H13      HGA3     0.090000        1.0080           0
     15370 WT6      854      MECN     C2       CG1N1    0.360000       12.0110           0
     15371 WT6      854      MECN     N3       NG1T1   -0.460000       14.0070           0
     15372 WT6      855      MECN     C1       CG331   -0.170000       12.0110           0
     15373 WT6      855      MECN     H11      HGA3     0.090000        1.0080           0
     15374 WT6      855      MECN     H12      HGA3     0.090000        1.0080           0
     15375 WT6      855      MECN     H13      HGA3     0.090000        1.0080           0
     15376 WT6      855      MECN     C2       CG1N1    0.360000       12.0110           0
     15377 WT6      855      MECN     N3       NG1T1   -0.460000       14.0070           0
     15378 WT6      856      MECN     C1       CG331   -0.170000       12.0110           0
     15379 WT6      856      MECN     H11      HGA3     0.090000        1.0080           0
     15380 WT6      856      MECN     H12      HGA3     0.090000        1.0080           0
     15381 WT6      856      MECN     H13      HGA3     0.090000        1.0080           0
     15382 WT6      856      MECN     C2       CG1N1    0.360000       12.0110           0
     15383 WT6      856      MECN     N3       NG1T1   -0.460000       14.0070           0
     15384 WT6      862      MECN     C1       CG331   -0.170000       12.0110           0
     15385 WT6      862      MECN     H11      HGA3     0.090000        1.0080           0
     15386 WT6      862      MECN     H12      HGA3     0.090000        1.0080           0
     15387 WT6      862      MECN     H13      HGA3     0.090000        1.0080           0
     15388 WT6      862      MECN     C2       CG1N1    0.360000       12.0110           0
     15389 WT6      862      MECN     N3       NG1T1   -0.460000       14.0070           0
     15390 WT6      866      MECN     C1       CG331   -0.170000       12.0110           0
     15391 WT6      866      MECN     H11      HGA3     0.090000        1.0080           0
     15392 WT6      866      MECN     H12      HGA3     0.090000        1.0080           0
     15393 WT6      866      MECN     H13      HGA3     0.090000        1.0080           0
     15394 WT6      866      MECN     C2       CG1N1    0.360000       12.0110           0
     15395 WT6      866      MECN     N3       NG1T1   -0.460000       14.0070           0
     15396 WT6      867      MECN     C1       CG331   -0.170000       12.0110           0
     15397 WT6      867      MECN     H11      HGA3     0.090000        1.0080           0
     15398 WT6      867      MECN     H12      HGA3     0.090000        1.0080           0
     15399 WT6      867      MECN     H13      HGA3     0.090000        1.0080           0
     15400 WT6      867      MECN     C2       CG1N1    0.360000       12.0110           0
     15401 WT6      867      MECN     N3       NG1T1   -0.460000       14.0070           0
     15402 WT6      870      MECN     C1       CG331   -0.170000       12.0110           0
     15403 WT6      870      MECN     H11      HGA3     0.090000        1.0080           0
     15404 WT6      870      MECN     H12      HGA3     0.090000        1.0080           0
     15405 WT6      870      MECN     H13      HGA3     0.090000        1.0080           0
     15406 WT6      870      MECN     C2       CG1N1    0.360000       12.0110           0
     15407 WT6      870      MECN     N3       NG1T1   -0.460000       14.0070           0
     15408 WT6      871      MECN     C1       CG331   -0.170000       12.0110           0
     15409 WT6      871      MECN     H11      HGA3     0.090000        1.0080           0
     15410 WT6      871      MECN     H12      HGA3     0.090000        1.0080           0
     15411 WT6      871      MECN     H13      HGA3     0.090000        1.0080           0
     15412 WT6      871      MECN     C2       CG1N1    0.360000       12.0110           0
     15413 WT6      871      MECN     N3       NG1T1   -0.460000       14.0070           0
     15414 WT6      877      MECN     C1       CG331   -0.170000       12.0110           0
     15415 WT6      877      MECN     H11      HGA3     0.090000        1.0080           0
     15416 WT6      877      MECN     H12      HGA3     0.090000        1.0080           0
     15417 WT6      877      MECN     H13      HGA3     0.090000        1.0080           0
     15418 WT6      877      MECN     C2       CG1N1    0.360000       12.0110           0
     15419 WT6      877      MECN     N3       NG1T1   -0.460000       14.0070           0
     15420 WT6      879      MECN     C1       CG331   -0.170000       12.0110           0
     15421 WT6      879      MECN     H11      HGA3     0.090000        1.0080           0
     15422 WT6      879      MECN     H12      HGA3     0.090000        1.0080           0
     15423 WT6      879      MECN     H13      HGA3     0.090000        1.0080           0
     15424 WT6      879      MECN     C2       CG1N1    0.360000       12.0110           0
     15425 WT6      879      MECN     N3       NG1T1   -0.460000       14.0070           0
     15426 WT6      880      MECN     C1       CG331   -0.170000       12.0110           0
     15427 WT6      880      MECN     H11      HGA3     0.090000        1.0080           0
     15428 WT6      880      MECN     H12      HGA3     0.090000        1.0080           0
     15429 WT6      880      MECN     H13      HGA3     0.090000        1.0080           0
     15430 WT6      880      MECN     C2       CG1N1    0.360000       12.0110           0
     15431 WT6      880      MECN     N3       NG1T1   -0.460000       14.0070           0
     15432 WT6      881      MECN     C1       CG331   -0.170000       12.0110           0
     15433 WT6      881      MECN     H11      HGA3     0.090000        1.0080           0
     15434 WT6      881      MECN     H12      HGA3     0.090000        1.0080           0
     15435 WT6      881      MECN     H13      HGA3     0.090000        1.0080           0
     15436 WT6      881      MECN     C2       CG1N1    0.360000       12.0110           0
     15437 WT6      881      MECN     N3       NG1T1   -0.460000       14.0070           0
     15438 WT6      882      MECN     C1       CG331   -0.170000       12.0110           0
     15439 WT6      882      MECN     H11      HGA3     0.090000        1.0080           0
     15440 WT6      882      MECN     H12      HGA3     0.090000        1.0080           0
     15441 WT6      882      MECN     H13      HGA3     0.090000        1.0080           0
     15442 WT6      882      MECN     C2       CG1N1    0.360000       12.0110           0
     15443 WT6      882      MECN     N3       NG1T1   -0.460000       14.0070           0
     15444 WT6      883      MECN     C1       CG331   -0.170000       12.0110           0
     15445 WT6      883      MECN     H11      HGA3     0.090000        1.0080           0
     15446 WT6      883      MECN     H12      HGA3     0.090000        1.0080           0
     15447 WT6      883      MECN     H13      HGA3     0.090000        1.0080           0
     15448 WT6      883      MECN     C2       CG1N1    0.360000       12.0110           0
     15449 WT6      883      MECN     N3       NG1T1   -0.460000       14.0070           0
     15450 WT6      884      MECN     C1       CG331   -0.170000       12.0110           0
     15451 WT6      884      MECN     H11      HGA3     0.090000        1.0080           0
     15452 WT6      884      MECN     H12      HGA3     0.090000        1.0080           0
     15453 WT6      884      MECN     H13      HGA3     0.090000        1.0080           0
     15454 WT6      884      MECN     C2       CG1N1    0.360000       12.0110           0
     15455 WT6      884      MECN     N3       NG1T1   -0.460000       14.0070           0
     15456 WT6      901      MECN     C1       CG331   -0.170000       12.0110           0
     15457 WT6      901      MECN     H11      HGA3     0.090000        1.0080           0
     15458 WT6      901      MECN     H12      HGA3     0.090000        1.0080           0
     15459 WT6      901      MECN     H13      HGA3     0.090000        1.0080           0
     15460 WT6      901      MECN     C2       CG1N1    0.360000       12.0110           0
     15461 WT6      901      MECN     N3       NG1T1   -0.460000       14.0070           0
     15462 WT6      902      MECN     C1       CG331   -0.170000       12.0110           0
     15463 WT6      902      MECN     H11      HGA3     0.090000        1.0080           0
     15464 WT6      902      MECN     H12      HGA3     0.090000        1.0080           0
     15465 WT6      902      MECN     H13      HGA3     0.090000        1.0080           0
     15466 WT6      902      MECN     C2       CG1N1    0.360000       12.0110           0
     15467 WT6      902      MECN     N3       NG1T1   -0.460000       14.0070           0
     15468 WT6      903      MECN     C1       CG331   -0.170000       12.0110           0
     15469 WT6      903      MECN     H11      HGA3     0.090000        1.0080           0
     15470 WT6      903      MECN     H12      HGA3     0.090000        1.0080           0
     15471 WT6      903      MECN     H13      HGA3     0.090000        1.0080           0
     15472 WT6      903      MECN     C2       CG1N1    0.360000       12.0110           0
     15473 WT6      903      MECN     N3       NG1T1   -0.460000       14.0070           0
     15474 WT6      904      MECN     C1       CG331   -0.170000       12.0110           0
     15475 WT6      904      MECN     H11      HGA3     0.090000        1.0080           0
     15476 WT6      904      MECN     H12      HGA3     0.090000        1.0080           0
     15477 WT6      904      MECN     H13      HGA3     0.090000        1.0080           0
     15478 WT6      904      MECN     C2       CG1N1    0.360000       12.0110           0
     15479 WT6      904      MECN     N3       NG1T1   -0.460000       14.0070           0
     15480 WT6      907      MECN     C1       CG331   -0.170000       12.0110           0
     15481 WT6      907      MECN     H11      HGA3     0.090000        1.0080           0
     15482 WT6      907      MECN     H12      HGA3     0.090000        1.0080           0
     15483 WT6      907      MECN     H13      HGA3     0.090000        1.0080           0
     15484 WT6      907      MECN     C2       CG1N1    0.360000       12.0110           0
     15485 WT6      907      MECN     N3       NG1T1   -0.460000       14.0070           0
     15486 WT6      909      MECN     C1       CG331   -0.170000       12.0110           0
     15487 WT6      909      MECN     H11      HGA3     0.090000        1.0080           0
     15488 WT6      909      MECN     H12      HGA3     0.090000        1.0080           0
     15489 WT6      909      MECN     H13      HGA3     0.090000        1.0080           0
     15490 WT6      909      MECN     C2       CG1N1    0.360000       12.0110           0
     15491 WT6      909      MECN     N3       NG1T1   -0.460000       14.0070           0
     15492 WT6      912      MECN     C1       CG331   -0.170000       12.0110           0
     15493 WT6      912      MECN     H11      HGA3     0.090000        1.0080           0
     15494 WT6      912      MECN     H12      HGA3     0.090000        1.0080           0
     15495 WT6      912      MECN     H13      HGA3     0.090000        1.0080           0
     15496 WT6      912      MECN     C2       CG1N1    0.360000       12.0110           0
     15497 WT6      912      MECN     N3       NG1T1   -0.460000       14.0070           0
     15498 WT6      913      MECN     C1       CG331   -0.170000       12.0110           0
     15499 WT6      913      MECN     H11      HGA3     0.090000        1.0080           0
     15500 WT6      913      MECN     H12      HGA3     0.090000        1.0080           0
     15501 WT6      913      MECN     H13      HGA3     0.090000        1.0080           0
     15502 WT6      913      MECN     C2       CG1N1    0.360000       12.0110           0
     15503 WT6      913      MECN     N3       NG1T1   -0.460000       14.0070           0
     15504 WT6      923      MECN     C1       CG331   -0.170000       12.0110           0
     15505 WT6      923      MECN     H11      HGA3     0.090000        1.0080           0
     15506 WT6      923      MECN     H12      HGA3     0.090000        1.0080           0
     15507 WT6      923      MECN     H13      HGA3     0.090000        1.0080           0
     15508 WT6      923      MECN     C2       CG1N1    0.360000       12.0110           0
     15509 WT6      923      MECN     N3       NG1T1   -0.460000       14.0070           0
     15510 WT6      927      MECN     C1       CG331   -0.170000       12.0110           0
     15511 WT6      927      MECN     H11      HGA3     0.090000        1.0080           0
     15512 WT6      927      MECN     H12      HGA3     0.090000        1.0080           0
     15513 WT6      927      MECN     H13      HGA3     0.090000        1.0080           0
     15514 WT6      927      MECN     C2       CG1N1    0.360000       12.0110           0
     15515 WT6      927      MECN     N3       NG1T1   -0.460000       14.0070           0
     15516 WT6      929      MECN     C1       CG331   -0.170000       12.0110           0
     15517 WT6      929      MECN     H11      HGA3     0.090000        1.0080           0
     15518 WT6      929      MECN     H12      HGA3     0.090000        1.0080           0
     15519 WT6      929      MECN     H13      HGA3     0.090000        1.0080           0
     15520 WT6      929      MECN     C2       CG1N1    0.360000       12.0110           0
     15521 WT6      929      MECN     N3       NG1T1   -0.460000       14.0070           0
     15522 WT6      930      MECN     C1       CG331   -0.170000       12.0110           0
     15523 WT6      930      MECN     H11      HGA3     0.090000        1.0080           0
     15524 WT6      930      MECN     H12      HGA3     0.090000        1.0080           0
     15525 WT6      930      MECN     H13      HGA3     0.090000        1.0080           0
     15526 WT6      930      MECN     C2       CG1N1    0.360000       12.0110           0
     15527 WT6      930      MECN     N3       NG1T1   -0.460000       14.0070           0
     15528 WT6      932      MECN     C1       CG331   -0.170000       12.0110           0
     15529 WT6      932      MECN     H11      HGA3     0.090000        1.0080           0
     15530 WT6      932      MECN     H12      HGA3     0.090000        1.0080           0
     15531 WT6      932      MECN     H13      HGA3     0.090000        1.0080           0
     15532 WT6      932      MECN     C2       CG1N1    0.360000       12.0110           0
     15533 WT6      932      MECN     N3       NG1T1   -0.460000       14.0070           0
     15534 WT6      934      MECN     C1       CG331   -0.170000       12.0110           0
     15535 WT6      934      MECN     H11      HGA3     0.090000        1.0080           0
     15536 WT6      934      MECN     H12      HGA3     0.090000        1.0080           0
     15537 WT6      934      MECN     H13      HGA3     0.090000        1.0080           0
     15538 WT6      934      MECN     C2       CG1N1    0.360000       12.0110           0
     15539 WT6      934      MECN     N3       NG1T1   -0.460000       14.0070           0
     15540 WT6      937      MECN     C1       CG331   -0.170000       12.0110           0
     15541 WT6      937      MECN     H11      HGA3     0.090000        1.0080           0
     15542 WT6      937      MECN     H12      HGA3     0.090000        1.0080           0
     15543 WT6      937      MECN     H13      HGA3     0.090000        1.0080           0
     15544 WT6      937      MECN     C2       CG1N1    0.360000       12.0110           0
     15545 WT6      937      MECN     N3       NG1T1   -0.460000       14.0070           0
     15546 WT6      938      MECN     C1       CG331   -0.170000       12.0110           0
     15547 WT6      938      MECN     H11      HGA3     0.090000        1.0080           0
     15548 WT6      938      MECN     H12      HGA3     0.090000        1.0080           0
     15549 WT6      938      MECN     H13      HGA3     0.090000        1.0080           0
     15550 WT6      938      MECN     C2       CG1N1    0.360000       12.0110           0
     15551 WT6      938      MECN     N3       NG1T1   -0.460000       14.0070           0
     15552 WT6      942      MECN     C1       CG331   -0.170000       12.0110           0
     15553 WT6      942      MECN     H11      HGA3     0.090000        1.0080           0
     15554 WT6      942      MECN     H12      HGA3     0.090000        1.0080           0
     15555 WT6      942      MECN     H13      HGA3     0.090000        1.0080           0
     15556 WT6      942      MECN     C2       CG1N1    0.360000       12.0110           0
     15557 WT6      942      MECN     N3       NG1T1   -0.460000       14.0070           0
     15558 WT6      943      MECN     C1       CG331   -0.170000       12.0110           0
     15559 WT6      943      MECN     H11      HGA3     0.090000        1.0080           0
     15560 WT6      943      MECN     H12      HGA3     0.090000        1.0080           0
     15561 WT6      943      MECN     H13      HGA3     0.090000        1.0080           0
     15562 WT6      943      MECN     C2       CG1N1    0.360000       12.0110           0
     15563 WT6      943      MECN     N3       NG1T1   -0.460000       14.0070           0
     15564 WT6      945      MECN     C1       CG331   -0.170000       12.0110           0
     15565 WT6      945      MECN     H11      HGA3     0.090000        1.0080           0
     15566 WT6      945      MECN     H12      HGA3     0.090000        1.0080           0
     15567 WT6      945      MECN     H13      HGA3     0.090000        1.0080           0
     15568 WT6      945      MECN     C2       CG1N1    0.360000       12.0110           0
     15569 WT6      945      MECN     N3       NG1T1   -0.460000       14.0070           0
     15570 WT6      947      MECN     C1       CG331   -0.170000       12.0110           0
     15571 WT6      947      MECN     H11      HGA3     0.090000        1.0080           0
     15572 WT6      947      MECN     H12      HGA3     0.090000        1.0080           0
     15573 WT6      947      MECN     H13      HGA3     0.090000        1.0080           0
     15574 WT6      947      MECN     C2       CG1N1    0.360000       12.0110           0
     15575 WT6      947      MECN     N3       NG1T1   -0.460000       14.0070           0
     15576 WT6      948      MECN     C1       CG331   -0.170000       12.0110           0
     15577 WT6      948      MECN     H11      HGA3     0.090000        1.0080           0
     15578 WT6      948      MECN     H12      HGA3     0.090000        1.0080           0
     15579 WT6      948      MECN     H13      HGA3     0.090000        1.0080           0
     15580 WT6      948      MECN     C2       CG1N1    0.360000       12.0110           0
     15581 WT6      948      MECN     N3       NG1T1   -0.460000       14.0070           0
     15582 WT6      949      MECN     C1       CG331   -0.170000       12.0110           0
     15583 WT6      949      MECN     H11      HGA3     0.090000        1.0080           0
     15584 WT6      949      MECN     H12      HGA3     0.090000        1.0080           0
     15585 WT6      949      MECN     H13      HGA3     0.090000        1.0080           0
     15586 WT6      949      MECN     C2       CG1N1    0.360000       12.0110           0
     15587 WT6      949      MECN     N3       NG1T1   -0.460000       14.0070           0
     15588 WT6      950      MECN     C1       CG331   -0.170000       12.0110           0
     15589 WT6      950      MECN     H11      HGA3     0.090000        1.0080           0
     15590 WT6      950      MECN     H12      HGA3     0.090000        1.0080           0
     15591 WT6      950      MECN     H13      HGA3     0.090000        1.0080           0
     15592 WT6      950      MECN     C2       CG1N1    0.360000       12.0110           0
     15593 WT6      950      MECN     N3       NG1T1   -0.460000       14.0070           0
     15594 WT6      953      MECN     C1       CG331   -0.170000       12.0110           0
     15595 WT6      953      MECN     H11      HGA3     0.090000        1.0080           0
     15596 WT6      953      MECN     H12      HGA3     0.090000        1.0080           0
     15597 WT6      953      MECN     H13      HGA3     0.090000        1.0080           0
     15598 WT6      953      MECN     C2       CG1N1    0.360000       12.0110           0
     15599 WT6      953      MECN     N3       NG1T1   -0.460000       14.0070           0
     15600 WT6      957      MECN     C1       CG331   -0.170000       12.0110           0
     15601 WT6      957      MECN     H11      HGA3     0.090000        1.0080           0
     15602 WT6      957      MECN     H12      HGA3     0.090000        1.0080           0
     15603 WT6      957      MECN     H13      HGA3     0.090000        1.0080           0
     15604 WT6      957      MECN     C2       CG1N1    0.360000       12.0110           0
     15605 WT6      957      MECN     N3       NG1T1   -0.460000       14.0070           0
     15606 WT6      958      MECN     C1       CG331   -0.170000       12.0110           0
     15607 WT6      958      MECN     H11      HGA3     0.090000        1.0080           0
     15608 WT6      958      MECN     H12      HGA3     0.090000        1.0080           0
     15609 WT6      958      MECN     H13      HGA3     0.090000        1.0080           0
     15610 WT6      958      MECN     C2       CG1N1    0.360000       12.0110           0
     15611 WT6      958      MECN     N3       NG1T1   -0.460000       14.0070           0
     15612 WT6      959      MECN     C1       CG331   -0.170000       12.0110           0
     15613 WT6      959      MECN     H11      HGA3     0.090000        1.0080           0
     15614 WT6      959      MECN     H12      HGA3     0.090000        1.0080           0
     15615 WT6      959      MECN     H13      HGA3     0.090000        1.0080           0
     15616 WT6      959      MECN     C2       CG1N1    0.360000       12.0110           0
     15617 WT6      959      MECN     N3       NG1T1   -0.460000       14.0070           0
     15618 WT6      960      MECN     C1       CG331   -0.170000       12.0110           0
     15619 WT6      960      MECN     H11      HGA3     0.090000        1.0080           0
     15620 WT6      960      MECN     H12      HGA3     0.090000        1.0080           0
     15621 WT6      960      MECN     H13      HGA3     0.090000        1.0080           0
     15622 WT6      960      MECN     C2       CG1N1    0.360000       12.0110           0
     15623 WT6      960      MECN     N3       NG1T1   -0.460000       14.0070           0
     15624 WT6      963      MECN     C1       CG331   -0.170000       12.0110           0
     15625 WT6      963      MECN     H11      HGA3     0.090000        1.0080           0
     15626 WT6      963      MECN     H12      HGA3     0.090000        1.0080           0
     15627 WT6      963      MECN     H13      HGA3     0.090000        1.0080           0
     15628 WT6      963      MECN     C2       CG1N1    0.360000       12.0110           0
     15629 WT6      963      MECN     N3       NG1T1   -0.460000       14.0070           0
     15630 WT6      964      MECN     C1       CG331   -0.170000       12.0110           0
     15631 WT6      964      MECN     H11      HGA3     0.090000        1.0080           0
     15632 WT6      964      MECN     H12      HGA3     0.090000        1.0080           0
     15633 WT6      964      MECN     H13      HGA3     0.090000        1.0080           0
     15634 WT6      964      MECN     C2       CG1N1    0.360000       12.0110           0
     15635 WT6      964      MECN     N3       NG1T1   -0.460000       14.0070           0
     15636 WT6      967      MECN     C1       CG331   -0.170000       12.0110           0
     15637 WT6      967      MECN     H11      HGA3     0.090000        1.0080           0
     15638 WT6      967      MECN     H12      HGA3     0.090000        1.0080           0
     15639 WT6      967      MECN     H13      HGA3     0.090000        1.0080           0
     15640 WT6      967      MECN     C2       CG1N1    0.360000       12.0110           0
     15641 WT6      967      MECN     N3       NG1T1   -0.460000       14.0070           0
     15642 WT6      969      MECN     C1       CG331   -0.170000       12.0110           0
     15643 WT6      969      MECN     H11      HGA3     0.090000        1.0080           0
     15644 WT6      969      MECN     H12      HGA3     0.090000        1.0080           0
     15645 WT6      969      MECN     H13      HGA3     0.090000        1.0080           0
     15646 WT6      969      MECN     C2       CG1N1    0.360000       12.0110           0
     15647 WT6      969      MECN     N3       NG1T1   -0.460000       14.0070           0
     15648 WT6      970      MECN     C1       CG331   -0.170000       12.0110           0
     15649 WT6      970      MECN     H11      HGA3     0.090000        1.0080           0
     15650 WT6      970      MECN     H12      HGA3     0.090000        1.0080           0
     15651 WT6      970      MECN     H13      HGA3     0.090000        1.0080           0
     15652 WT6      970      MECN     C2       CG1N1    0.360000       12.0110           0
     15653 WT6      970      MECN     N3       NG1T1   -0.460000       14.0070           0
     15654 WT6      971      MECN     C1       CG331   -0.170000       12.0110           0
     15655 WT6      971      MECN     H11      HGA3     0.090000        1.0080           0
     15656 WT6      971      MECN     H12      HGA3     0.090000        1.0080           0
     15657 WT6      971      MECN     H13      HGA3     0.090000        1.0080           0
     15658 WT6      971      MECN     C2       CG1N1    0.360000       12.0110           0
     15659 WT6      971      MECN     N3       NG1T1   -0.460000       14.0070           0
     15660 WT6      974      MECN     C1       CG331   -0.170000       12.0110           0
     15661 WT6      974      MECN     H11      HGA3     0.090000        1.0080           0
     15662 WT6      974      MECN     H12      HGA3     0.090000        1.0080           0
     15663 WT6      974      MECN     H13      HGA3     0.090000        1.0080           0
     15664 WT6      974      MECN     C2       CG1N1    0.360000       12.0110           0
     15665 WT6      974      MECN     N3       NG1T1   -0.460000       14.0070           0
     15666 WT6      975      MECN     C1       CG331   -0.170000       12.0110           0
     15667 WT6      975      MECN     H11      HGA3     0.090000        1.0080           0
     15668 WT6      975      MECN     H12      HGA3     0.090000        1.0080           0
     15669 WT6      975      MECN     H13      HGA3     0.090000        1.0080           0
     15670 WT6      975      MECN     C2       CG1N1    0.360000       12.0110           0
     15671 WT6      975      MECN     N3       NG1T1   -0.460000       14.0070           0
     15672 WT6      988      MECN     C1       CG331   -0.170000       12.0110           0
     15673 WT6      988      MECN     H11      HGA3     0.090000        1.0080           0
     15674 WT6      988      MECN     H12      HGA3     0.090000        1.0080           0
     15675 WT6      988      MECN     H13      HGA3     0.090000        1.0080           0
     15676 WT6      988      MECN     C2       CG1N1    0.360000       12.0110           0
     15677 WT6      988      MECN     N3       NG1T1   -0.460000       14.0070           0
     15678 WT6      995      MECN     C1       CG331   -0.170000       12.0110           0
     15679 WT6      995      MECN     H11      HGA3     0.090000        1.0080           0
     15680 WT6      995      MECN     H12      HGA3     0.090000        1.0080           0
     15681 WT6      995      MECN     H13      HGA3     0.090000        1.0080           0
     15682 WT6      995      MECN     C2       CG1N1    0.360000       12.0110           0
     15683 WT6      995      MECN     N3       NG1T1   -0.460000       14.0070           0
     15684 WT6      997      MECN     C1       CG331   -0.170000       12.0110           0
     15685 WT6      997      MECN     H11      HGA3     0.090000        1.0080           0
     15686 WT6      997      MECN     H12      HGA3     0.090000        1.0080           0
     15687 WT6      997      MECN     H13      HGA3     0.090000        1.0080           0
     15688 WT6      997      MECN     C2       CG1N1    0.360000       12.0110           0
     15689 WT6      997      MECN     N3       NG1T1   -0.460000       14.0070           0
     15690 WT6      999      MECN     C1       CG331   -0.170000       12.0110           0
     15691 WT6      999      MECN     H11      HGA3     0.090000        1.0080           0
     15692 WT6      999      MECN     H12      HGA3     0.090000        1.0080           0
     15693 WT6      999      MECN     H13      HGA3     0.090000        1.0080           0
     15694 WT6      999      MECN     C2       CG1N1    0.360000       12.0110           0
     15695 WT6      999      MECN     N3       NG1T1   -0.460000       14.0070           0
     15696 WT6      1001     MECN     C1       CG331   -0.170000       12.0110           0
     15697 WT6      1001     MECN     H11      HGA3     0.090000        1.0080           0
     15698 WT6      1001     MECN     H12      HGA3     0.090000        1.0080           0
     15699 WT6      1001     MECN     H13      HGA3     0.090000        1.0080           0
     15700 WT6      1001     MECN     C2       CG1N1    0.360000       12.0110           0
     15701 WT6      1001     MECN     N3       NG1T1   -0.460000       14.0070           0
     15702 WT6      1002     MECN     C1       CG331   -0.170000       12.0110           0
     15703 WT6      1002     MECN     H11      HGA3     0.090000        1.0080           0
     15704 WT6      1002     MECN     H12      HGA3     0.090000        1.0080           0
     15705 WT6      1002     MECN     H13      HGA3     0.090000        1.0080           0
     15706 WT6      1002     MECN     C2       CG1N1    0.360000       12.0110           0
     15707 WT6      1002     MECN     N3       NG1T1   -0.460000       14.0070           0
     15708 WT6      1004     MECN     C1       CG331   -0.170000       12.0110           0
     15709 WT6      1004     MECN     H11      HGA3     0.090000        1.0080           0
     15710 WT6      1004     MECN     H12      HGA3     0.090000        1.0080           0
     15711 WT6      1004     MECN     H13      HGA3     0.090000        1.0080           0
     15712 WT6      1004     MECN     C2       CG1N1    0.360000       12.0110           0
     15713 WT6      1004     MECN     N3       NG1T1   -0.460000       14.0070           0
     15714 WT6      1005     MECN     C1       CG331   -0.170000       12.0110           0
     15715 WT6      1005     MECN     H11      HGA3     0.090000        1.0080           0
     15716 WT6      1005     MECN     H12      HGA3     0.090000        1.0080           0
     15717 WT6      1005     MECN     H13      HGA3     0.090000        1.0080           0
     15718 WT6      1005     MECN     C2       CG1N1    0.360000       12.0110           0
     15719 WT6      1005     MECN     N3       NG1T1   -0.460000       14.0070           0
     15720 WT6      1006     MECN     C1       CG331   -0.170000       12.0110           0
     15721 WT6      1006     MECN     H11      HGA3     0.090000        1.0080           0
     15722 WT6      1006     MECN     H12      HGA3     0.090000        1.0080           0
     15723 WT6      1006     MECN     H13      HGA3     0.090000        1.0080           0
     15724 WT6      1006     MECN     C2       CG1N1    0.360000       12.0110           0
     15725 WT6      1006     MECN     N3       NG1T1   -0.460000       14.0070           0
     15726 WT6      1015     MECN     C1       CG331   -0.170000       12.0110           0
     15727 WT6      1015     MECN     H11      HGA3     0.090000        1.0080           0
     15728 WT6      1015     MECN     H12      HGA3     0.090000        1.0080           0
     15729 WT6      1015     MECN     H13      HGA3     0.090000        1.0080           0
     15730 WT6      1015     MECN     C2       CG1N1    0.360000       12.0110           0
     15731 WT6      1015     MECN     N3       NG1T1   -0.460000       14.0070           0
     15732 WT6      1016     MECN     C1       CG331   -0.170000       12.0110           0
     15733 WT6      1016     MECN     H11      HGA3     0.090000        1.0080           0
     15734 WT6      1016     MECN     H12      HGA3     0.090000        1.0080           0
     15735 WT6      1016     MECN     H13      HGA3     0.090000        1.0080           0
     15736 WT6      1016     MECN     C2       CG1N1    0.360000       12.0110           0
     15737 WT6      1016     MECN     N3       NG1T1   -0.460000       14.0070           0
     15738 WT6      1022     MECN     C1       CG331   -0.170000       12.0110           0
     15739 WT6      1022     MECN     H11      HGA3     0.090000        1.0080           0
     15740 WT6      1022     MECN     H12      HGA3     0.090000        1.0080           0
     15741 WT6      1022     MECN     H13      HGA3     0.090000        1.0080           0
     15742 WT6      1022     MECN     C2       CG1N1    0.360000       12.0110           0
     15743 WT6      1022     MECN     N3       NG1T1   -0.460000       14.0070           0
     15744 WT6      1024     MECN     C1       CG331   -0.170000       12.0110           0
     15745 WT6      1024     MECN     H11      HGA3     0.090000        1.0080           0
     15746 WT6      1024     MECN     H12      HGA3     0.090000        1.0080           0
     15747 WT6      1024     MECN     H13      HGA3     0.090000        1.0080           0
     15748 WT6      1024     MECN     C2       CG1N1    0.360000       12.0110           0
     15749 WT6      1024     MECN     N3       NG1T1   -0.460000       14.0070           0
     15750 WT6      1025     MECN     C1       CG331   -0.170000       12.0110           0
     15751 WT6      1025     MECN     H11      HGA3     0.090000        1.0080           0
     15752 WT6      1025     MECN     H12      HGA3     0.090000        1.0080           0
     15753 WT6      1025     MECN     H13      HGA3     0.090000        1.0080           0
     15754 WT6      1025     MECN     C2       CG1N1    0.360000       12.0110           0
     15755 WT6      1025     MECN     N3       NG1T1   -0.460000       14.0070           0
     15756 WT6      1026     MECN     C1       CG331   -0.170000       12.0110           0
     15757 WT6      1026     MECN     H11      HGA3     0.090000        1.0080           0
     15758 WT6      1026     MECN     H12      HGA3     0.090000        1.0080           0
     15759 WT6      1026     MECN     H13      HGA3     0.090000        1.0080           0
     15760 WT6      1026     MECN     C2       CG1N1    0.360000       12.0110           0
     15761 WT6      1026     MECN     N3       NG1T1   -0.460000       14.0070           0
     15762 WT6      1027     MECN     C1       CG331   -0.170000       12.0110           0
     15763 WT6      1027     MECN     H11      HGA3     0.090000        1.0080           0
     15764 WT6      1027     MECN     H12      HGA3     0.090000        1.0080           0
     15765 WT6      1027     MECN     H13      HGA3     0.090000        1.0080           0
     15766 WT6      1027     MECN     C2       CG1N1    0.360000       12.0110           0
     15767 WT6      1027     MECN     N3       NG1T1   -0.460000       14.0070           0
     15768 WT6      1036     MECN     C1       CG331   -0.170000       12.0110           0
     15769 WT6      1036     MECN     H11      HGA3     0.090000        1.0080           0
     15770 WT6      1036     MECN     H12      HGA3     0.090000        1.0080           0
     15771 WT6      1036     MECN     H13      HGA3     0.090000        1.0080           0
     15772 WT6      1036     MECN     C2       CG1N1    0.360000       12.0110           0
     15773 WT6      1036     MECN     N3       NG1T1   -0.460000       14.0070           0
     15774 WT6      1037     MECN     C1       CG331   -0.170000       12.0110           0
     15775 WT6      1037     MECN     H11      HGA3     0.090000        1.0080           0
     15776 WT6      1037     MECN     H12      HGA3     0.090000        1.0080           0
     15777 WT6      1037     MECN     H13      HGA3     0.090000        1.0080           0
     15778 WT6      1037     MECN     C2       CG1N1    0.360000       12.0110           0
     15779 WT6      1037     MECN     N3       NG1T1   -0.460000       14.0070           0
     15780 WT6      1038     MECN     C1       CG331   -0.170000       12.0110           0
     15781 WT6      1038     MECN     H11      HGA3     0.090000        1.0080           0
     15782 WT6      1038     MECN     H12      HGA3     0.090000        1.0080           0
     15783 WT6      1038     MECN     H13      HGA3     0.090000        1.0080           0
     15784 WT6      1038     MECN     C2       CG1N1    0.360000       12.0110           0
     15785 WT6      1038     MECN     N3       NG1T1   -0.460000       14.0070           0
     15786 WT6      1045     MECN     C1       CG331   -0.170000       12.0110           0
     15787 WT6      1045     MECN     H11      HGA3     0.090000        1.0080           0
     15788 WT6      1045     MECN     H12      HGA3     0.090000        1.0080           0
     15789 WT6      1045     MECN     H13      HGA3     0.090000        1.0080           0
     15790 WT6      1045     MECN     C2       CG1N1    0.360000       12.0110           0
     15791 WT6      1045     MECN     N3       NG1T1   -0.460000       14.0070           0
     15792 WT6      1046     MECN     C1       CG331   -0.170000       12.0110           0
     15793 WT6      1046     MECN     H11      HGA3     0.090000        1.0080           0
     15794 WT6      1046     MECN     H12      HGA3     0.090000        1.0080           0
     15795 WT6      1046     MECN     H13      HGA3     0.090000        1.0080           0
     15796 WT6      1046     MECN     C2       CG1N1    0.360000       12.0110           0
     15797 WT6      1046     MECN     N3       NG1T1   -0.460000       14.0070           0
     15798 WT6      1047     MECN     C1       CG331   -0.170000       12.0110           0
     15799 WT6      1047     MECN     H11      HGA3     0.090000        1.0080           0
     15800 WT6      1047     MECN     H12      HGA3     0.090000        1.0080           0
     15801 WT6      1047     MECN     H13      HGA3     0.090000        1.0080           0
     15802 WT6      1047     MECN     C2       CG1N1    0.360000       12.0110           0
     15803 WT6      1047     MECN     N3       NG1T1   -0.460000       14.0070           0
     15804 WT6      1054     MECN     C1       CG331   -0.170000       12.0110           0
     15805 WT6      1054     MECN     H11      HGA3     0.090000        1.0080           0
     15806 WT6      1054     MECN     H12      HGA3     0.090000        1.0080           0
     15807 WT6      1054     MECN     H13      HGA3     0.090000        1.0080           0
     15808 WT6      1054     MECN     C2       CG1N1    0.360000       12.0110           0
     15809 WT6      1054     MECN     N3       NG1T1   -0.460000       14.0070           0
     15810 WT6      1056     MECN     C1       CG331   -0.170000       12.0110           0
     15811 WT6      1056     MECN     H11      HGA3     0.090000        1.0080           0
     15812 WT6      1056     MECN     H12      HGA3     0.090000        1.0080           0
     15813 WT6      1056     MECN     H13      HGA3     0.090000        1.0080           0
     15814 WT6      1056     MECN     C2       CG1N1    0.360000       12.0110           0
     15815 WT6      1056     MECN     N3       NG1T1   -0.460000       14.0070           0
     15816 WT6      1060     MECN     C1       CG331   -0.170000       12.0110           0
     15817 WT6      1060     MECN     H11      HGA3     0.090000        1.0080           0
     15818 WT6      1060     MECN     H12      HGA3     0.090000        1.0080           0
     15819 WT6      1060     MECN     H13      HGA3     0.090000        1.0080           0
     15820 WT6      1060     MECN     C2       CG1N1    0.360000       12.0110           0
     15821 WT6      1060     MECN     N3       NG1T1   -0.460000       14.0070           0
     15822 WT6      1064     MECN     C1       CG331   -0.170000       12.0110           0
     15823 WT6      1064     MECN     H11      HGA3     0.090000        1.0080           0
     15824 WT6      1064     MECN     H12      HGA3     0.090000        1.0080           0
     15825 WT6      1064     MECN     H13      HGA3     0.090000        1.0080           0
     15826 WT6      1064     MECN     C2       CG1N1    0.360000       12.0110           0
     15827 WT6      1064     MECN     N3       NG1T1   -0.460000       14.0070           0
     15828 WT6      1065     MECN     C1       CG331   -0.170000       12.0110           0
     15829 WT6      1065     MECN     H11      HGA3     0.090000        1.0080           0
     15830 WT6      1065     MECN     H12      HGA3     0.090000        1.0080           0
     15831 WT6      1065     MECN     H13      HGA3     0.090000        1.0080           0
     15832 WT6      1065     MECN     C2       CG1N1    0.360000       12.0110           0
     15833 WT6      1065     MECN     N3       NG1T1   -0.460000       14.0070           0
     15834 WT6      1066     MECN     C1       CG331   -0.170000       12.0110           0
     15835 WT6      1066     MECN     H11      HGA3     0.090000        1.0080           0
     15836 WT6      1066     MECN     H12      HGA3     0.090000        1.0080           0
     15837 WT6      1066     MECN     H13      HGA3     0.090000        1.0080           0
     15838 WT6      1066     MECN     C2       CG1N1    0.360000       12.0110           0
     15839 WT6      1066     MECN     N3       NG1T1   -0.460000       14.0070           0
     15840 WT6      1068     MECN     C1       CG331   -0.170000       12.0110           0
     15841 WT6      1068     MECN     H11      HGA3     0.090000        1.0080           0
     15842 WT6      1068     MECN     H12      HGA3     0.090000        1.0080           0
     15843 WT6      1068     MECN     H13      HGA3     0.090000        1.0080           0
     15844 WT6      1068     MECN     C2       CG1N1    0.360000       12.0110           0
     15845 WT6      1068     MECN     N3       NG1T1   -0.460000       14.0070           0
     15846 WT6      1069     MECN     C1       CG331   -0.170000       12.0110           0
     15847 WT6      1069     MECN     H11      HGA3     0.090000        1.0080           0
     15848 WT6      1069     MECN     H12      HGA3     0.090000        1.0080           0
     15849 WT6      1069     MECN     H13      HGA3     0.090000        1.0080           0
     15850 WT6      1069     MECN     C2       CG1N1    0.360000       12.0110           0
     15851 WT6      1069     MECN     N3       NG1T1   -0.460000       14.0070           0
     15852 WT6      1073     MECN     C1       CG331   -0.170000       12.0110           0
     15853 WT6      1073     MECN     H11      HGA3     0.090000        1.0080           0
     15854 WT6      1073     MECN     H12      HGA3     0.090000        1.0080           0
     15855 WT6      1073     MECN     H13      HGA3     0.090000        1.0080           0
     15856 WT6      1073     MECN     C2       CG1N1    0.360000       12.0110           0
     15857 WT6      1073     MECN     N3       NG1T1   -0.460000       14.0070           0
     15858 WT6      1077     MECN     C1       CG331   -0.170000       12.0110           0
     15859 WT6      1077     MECN     H11      HGA3     0.090000        1.0080           0
     15860 WT6      1077     MECN     H12      HGA3     0.090000        1.0080           0
     15861 WT6      1077     MECN     H13      HGA3     0.090000        1.0080           0
     15862 WT6      1077     MECN     C2       CG1N1    0.360000       12.0110           0
     15863 WT6      1077     MECN     N3       NG1T1   -0.460000       14.0070           0
     15864 WT6      1078     MECN     C1       CG331   -0.170000       12.0110           0
     15865 WT6      1078     MECN     H11      HGA3     0.090000        1.0080           0
     15866 WT6      1078     MECN     H12      HGA3     0.090000        1.0080           0
     15867 WT6      1078     MECN     H13      HGA3     0.090000        1.0080           0
     15868 WT6      1078     MECN     C2       CG1N1    0.360000       12.0110           0
     15869 WT6      1078     MECN     N3       NG1T1   -0.460000       14.0070           0
     15870 WT6      1088     MECN     C1       CG331   -0.170000       12.0110           0
     15871 WT6      1088     MECN     H11      HGA3     0.090000        1.0080           0
     15872 WT6      1088     MECN     H12      HGA3     0.090000        1.0080           0
     15873 WT6      1088     MECN     H13      HGA3     0.090000        1.0080           0
     15874 WT6      1088     MECN     C2       CG1N1    0.360000       12.0110           0
     15875 WT6      1088     MECN     N3       NG1T1   -0.460000       14.0070           0
     15876 WT6      1092     MECN     C1       CG331   -0.170000       12.0110           0
     15877 WT6      1092     MECN     H11      HGA3     0.090000        1.0080           0
     15878 WT6      1092     MECN     H12      HGA3     0.090000        1.0080           0
     15879 WT6      1092     MECN     H13      HGA3     0.090000        1.0080           0
     15880 WT6      1092     MECN     C2       CG1N1    0.360000       12.0110           0
     15881 WT6      1092     MECN     N3       NG1T1   -0.460000       14.0070           0
     15882 WT6      1096     MECN     C1       CG331   -0.170000       12.0110           0
     15883 WT6      1096     MECN     H11      HGA3     0.090000        1.0080           0
     15884 WT6      1096     MECN     H12      HGA3     0.090000        1.0080           0
     15885 WT6      1096     MECN     H13      HGA3     0.090000        1.0080           0
     15886 WT6      1096     MECN     C2       CG1N1    0.360000       12.0110           0
     15887 WT6      1096     MECN     N3       NG1T1   -0.460000       14.0070           0
     15888 WT6      1099     MECN     C1       CG331   -0.170000       12.0110           0
     15889 WT6      1099     MECN     H11      HGA3     0.090000        1.0080           0
     15890 WT6      1099     MECN     H12      HGA3     0.090000        1.0080           0
     15891 WT6      1099     MECN     H13      HGA3     0.090000        1.0080           0
     15892 WT6      1099     MECN     C2       CG1N1    0.360000       12.0110           0
     15893 WT6      1099     MECN     N3       NG1T1   -0.460000       14.0070           0
     15894 WT6      1100     MECN     C1       CG331   -0.170000       12.0110           0
     15895 WT6      1100     MECN     H11      HGA3     0.090000        1.0080           0
     15896 WT6      1100     MECN     H12      HGA3     0.090000        1.0080           0
     15897 WT6      1100     MECN     H13      HGA3     0.090000        1.0080           0
     15898 WT6      1100     MECN     C2       CG1N1    0.360000       12.0110           0
     15899 WT6      1100     MECN     N3       NG1T1   -0.460000       14.0070           0
     15900 WT6      1101     MECN     C1       CG331   -0.170000       12.0110           0
     15901 WT6      1101     MECN     H11      HGA3     0.090000        1.0080           0
     15902 WT6      1101     MECN     H12      HGA3     0.090000        1.0080           0
     15903 WT6      1101     MECN     H13      HGA3     0.090000        1.0080           0
     15904 WT6      1101     MECN     C2       CG1N1    0.360000       12.0110           0
     15905 WT6      1101     MECN     N3       NG1T1   -0.460000       14.0070           0
     15906 WT6      1103     MECN     C1       CG331   -0.170000       12.0110           0
     15907 WT6      1103     MECN     H11      HGA3     0.090000        1.0080           0
     15908 WT6      1103     MECN     H12      HGA3     0.090000        1.0080           0
     15909 WT6      1103     MECN     H13      HGA3     0.090000        1.0080           0
     15910 WT6      1103     MECN     C2       CG1N1    0.360000       12.0110           0
     15911 WT6      1103     MECN     N3       NG1T1   -0.460000       14.0070           0
     15912 WT6      1107     MECN     C1       CG331   -0.170000       12.0110           0
     15913 WT6      1107     MECN     H11      HGA3     0.090000        1.0080           0
     15914 WT6      1107     MECN     H12      HGA3     0.090000        1.0080           0
     15915 WT6      1107     MECN     H13      HGA3     0.090000        1.0080           0
     15916 WT6      1107     MECN     C2       CG1N1    0.360000       12.0110           0
     15917 WT6      1107     MECN     N3       NG1T1   -0.460000       14.0070           0
     15918 WT6      1110     MECN     C1       CG331   -0.170000       12.0110           0
     15919 WT6      1110     MECN     H11      HGA3     0.090000        1.0080           0
     15920 WT6      1110     MECN     H12      HGA3     0.090000        1.0080           0
     15921 WT6      1110     MECN     H13      HGA3     0.090000        1.0080           0
     15922 WT6      1110     MECN     C2       CG1N1    0.360000       12.0110           0
     15923 WT6      1110     MECN     N3       NG1T1   -0.460000       14.0070           0
     15924 WT6      1111     MECN     C1       CG331   -0.170000       12.0110           0
     15925 WT6      1111     MECN     H11      HGA3     0.090000        1.0080           0
     15926 WT6      1111     MECN     H12      HGA3     0.090000        1.0080           0
     15927 WT6      1111     MECN     H13      HGA3     0.090000        1.0080           0
     15928 WT6      1111     MECN     C2       CG1N1    0.360000       12.0110           0
     15929 WT6      1111     MECN     N3       NG1T1   -0.460000       14.0070           0
     15930 WT6      1114     MECN     C1       CG331   -0.170000       12.0110           0
     15931 WT6      1114     MECN     H11      HGA3     0.090000        1.0080           0
     15932 WT6      1114     MECN     H12      HGA3     0.090000        1.0080           0
     15933 WT6      1114     MECN     H13      HGA3     0.090000        1.0080           0
     15934 WT6      1114     MECN     C2       CG1N1    0.360000       12.0110           0
     15935 WT6      1114     MECN     N3       NG1T1   -0.460000       14.0070           0
     15936 WT6      1116     MECN     C1       CG331   -0.170000       12.0110           0
     15937 WT6      1116     MECN     H11      HGA3     0.090000        1.0080           0
     15938 WT6      1116     MECN     H12      HGA3     0.090000        1.0080           0
     15939 WT6      1116     MECN     H13      HGA3     0.090000        1.0080           0
     15940 WT6      1116     MECN     C2       CG1N1    0.360000       12.0110           0
     15941 WT6      1116     MECN     N3       NG1T1   -0.460000       14.0070           0
     15942 WT6      1117     MECN     C1       CG331   -0.170000       12.0110           0
     15943 WT6      1117     MECN     H11      HGA3     0.090000        1.0080           0
     15944 WT6      1117     MECN     H12      HGA3     0.090000        1.0080           0
     15945 WT6      1117     MECN     H13      HGA3     0.090000        1.0080           0
     15946 WT6      1117     MECN     C2       CG1N1    0.360000       12.0110           0
     15947 WT6      1117     MECN     N3       NG1T1   -0.460000       14.0070           0
     15948 WT6      1119     MECN     C1       CG331   -0.170000       12.0110           0
     15949 WT6      1119     MECN     H11      HGA3     0.090000        1.0080           0
     15950 WT6      1119     MECN     H12      HGA3     0.090000        1.0080           0
     15951 WT6      1119     MECN     H13      HGA3     0.090000        1.0080           0
     15952 WT6      1119     MECN     C2       CG1N1    0.360000       12.0110           0
     15953 WT6      1119     MECN     N3       NG1T1   -0.460000       14.0070           0
     15954 WT6      1121     MECN     C1       CG331   -0.170000       12.0110           0
     15955 WT6      1121     MECN     H11      HGA3     0.090000        1.0080           0
     15956 WT6      1121     MECN     H12      HGA3     0.090000        1.0080           0
     15957 WT6      1121     MECN     H13      HGA3     0.090000        1.0080           0
     15958 WT6      1121     MECN     C2       CG1N1    0.360000       12.0110           0
     15959 WT6      1121     MECN     N3       NG1T1   -0.460000       14.0070           0
     15960 WT6      1123     MECN     C1       CG331   -0.170000       12.0110           0
     15961 WT6      1123     MECN     H11      HGA3     0.090000        1.0080           0
     15962 WT6      1123     MECN     H12      HGA3     0.090000        1.0080           0
     15963 WT6      1123     MECN     H13      HGA3     0.090000        1.0080           0
     15964 WT6      1123     MECN     C2       CG1N1    0.360000       12.0110           0
     15965 WT6      1123     MECN     N3       NG1T1   -0.460000       14.0070           0
     15966 WT6      1128     MECN     C1       CG331   -0.170000       12.0110           0
     15967 WT6      1128     MECN     H11      HGA3     0.090000        1.0080           0
     15968 WT6      1128     MECN     H12      HGA3     0.090000        1.0080           0
     15969 WT6      1128     MECN     H13      HGA3     0.090000        1.0080           0
     15970 WT6      1128     MECN     C2       CG1N1    0.360000       12.0110           0
     15971 WT6      1128     MECN     N3       NG1T1   -0.460000       14.0070           0
     15972 WT6      1129     MECN     C1       CG331   -0.170000       12.0110           0
     15973 WT6      1129     MECN     H11      HGA3     0.090000        1.0080           0
     15974 WT6      1129     MECN     H12      HGA3     0.090000        1.0080           0
     15975 WT6      1129     MECN     H13      HGA3     0.090000        1.0080           0
     15976 WT6      1129     MECN     C2       CG1N1    0.360000       12.0110           0
     15977 WT6      1129     MECN     N3       NG1T1   -0.460000       14.0070           0
     15978 WT6      1135     MECN     C1       CG331   -0.170000       12.0110           0
     15979 WT6      1135     MECN     H11      HGA3     0.090000        1.0080           0
     15980 WT6      1135     MECN     H12      HGA3     0.090000        1.0080           0
     15981 WT6      1135     MECN     H13      HGA3     0.090000        1.0080           0
     15982 WT6      1135     MECN     C2       CG1N1    0.360000       12.0110           0
     15983 WT6      1135     MECN     N3       NG1T1   -0.460000       14.0070           0
     15984 WT6      1136     MECN     C1       CG331   -0.170000       12.0110           0
     15985 WT6      1136     MECN     H11      HGA3     0.090000        1.0080           0
     15986 WT6      1136     MECN     H12      HGA3     0.090000        1.0080           0
     15987 WT6      1136     MECN     H13      HGA3     0.090000        1.0080           0
     15988 WT6      1136     MECN     C2       CG1N1    0.360000       12.0110           0
     15989 WT6      1136     MECN     N3       NG1T1   -0.460000       14.0070           0
     15990 WT6      1144     MECN     C1       CG331   -0.170000       12.0110           0
     15991 WT6      1144     MECN     H11      HGA3     0.090000        1.0080           0
     15992 WT6      1144     MECN     H12      HGA3     0.090000        1.0080           0
     15993 WT6      1144     MECN     H13      HGA3     0.090000        1.0080           0
     15994 WT6      1144     MECN     C2       CG1N1    0.360000       12.0110           0
     15995 WT6      1144     MECN     N3       NG1T1   -0.460000       14.0070           0
     15996 WT6      1145     MECN     C1       CG331   -0.170000       12.0110           0
     15997 WT6      1145     MECN     H11      HGA3     0.090000        1.0080           0
     15998 WT6      1145     MECN     H12      HGA3     0.090000        1.0080           0
     15999 WT6      1145     MECN     H13      HGA3     0.090000        1.0080           0
     16000 WT6      1145     MECN     C2       CG1N1    0.360000       12.0110           0
     16001 WT6      1145     MECN     N3       NG1T1   -0.460000       14.0070           0
     16002 WT6      1147     MECN     C1       CG331   -0.170000       12.0110           0
     16003 WT6      1147     MECN     H11      HGA3     0.090000        1.0080           0
     16004 WT6      1147     MECN     H12      HGA3     0.090000        1.0080           0
     16005 WT6      1147     MECN     H13      HGA3     0.090000        1.0080           0
     16006 WT6      1147     MECN     C2       CG1N1    0.360000       12.0110           0
     16007 WT6      1147     MECN     N3       NG1T1   -0.460000       14.0070           0
     16008 WT6      1150     MECN     C1       CG331   -0.170000       12.0110           0
     16009 WT6      1150     MECN     H11      HGA3     0.090000        1.0080           0
     16010 WT6      1150     MECN     H12      HGA3     0.090000        1.0080           0
     16011 WT6      1150     MECN     H13      HGA3     0.090000        1.0080           0
     16012 WT6      1150     MECN     C2       CG1N1    0.360000       12.0110           0
     16013 WT6      1150     MECN     N3       NG1T1   -0.460000       14.0070           0
     16014 WT6      1152     MECN     C1       CG331   -0.170000       12.0110           0
     16015 WT6      1152     MECN     H11      HGA3     0.090000        1.0080           0
     16016 WT6      1152     MECN     H12      HGA3     0.090000        1.0080           0
     16017 WT6      1152     MECN     H13      HGA3     0.090000        1.0080           0
     16018 WT6      1152     MECN     C2       CG1N1    0.360000       12.0110           0
     16019 WT6      1152     MECN     N3       NG1T1   -0.460000       14.0070           0
     16020 WT6      1153     MECN     C1       CG331   -0.170000       12.0110           0
     16021 WT6      1153     MECN     H11      HGA3     0.090000        1.0080           0
     16022 WT6      1153     MECN     H12      HGA3     0.090000        1.0080           0
     16023 WT6      1153     MECN     H13      HGA3     0.090000        1.0080           0
     16024 WT6      1153     MECN     C2       CG1N1    0.360000       12.0110           0
     16025 WT6      1153     MECN     N3       NG1T1   -0.460000       14.0070           0
     16026 WT6      1154     MECN     C1       CG331   -0.170000       12.0110           0
     16027 WT6      1154     MECN     H11      HGA3     0.090000        1.0080           0
     16028 WT6      1154     MECN     H12      HGA3     0.090000        1.0080           0
     16029 WT6      1154     MECN     H13      HGA3     0.090000        1.0080           0
     16030 WT6      1154     MECN     C2       CG1N1    0.360000       12.0110           0
     16031 WT6      1154     MECN     N3       NG1T1   -0.460000       14.0070           0
     16032 WT6      1156     MECN     C1       CG331   -0.170000       12.0110           0
     16033 WT6      1156     MECN     H11      HGA3     0.090000        1.0080           0
     16034 WT6      1156     MECN     H12      HGA3     0.090000        1.0080           0
     16035 WT6      1156     MECN     H13      HGA3     0.090000        1.0080           0
     16036 WT6      1156     MECN     C2       CG1N1    0.360000       12.0110           0
     16037 WT6      1156     MECN     N3       NG1T1   -0.460000       14.0070           0
     16038 WT6      1159     MECN     C1       CG331   -0.170000       12.0110           0
     16039 WT6      1159     MECN     H11      HGA3     0.090000        1.0080           0
     16040 WT6      1159     MECN     H12      HGA3     0.090000        1.0080           0
     16041 WT6      1159     MECN     H13      HGA3     0.090000        1.0080           0
     16042 WT6      1159     MECN     C2       CG1N1    0.360000       12.0110           0
     16043 WT6      1159     MECN     N3       NG1T1   -0.460000       14.0070           0
     16044 WT6      1160     MECN     C1       CG331   -0.170000       12.0110           0
     16045 WT6      1160     MECN     H11      HGA3     0.090000        1.0080           0
     16046 WT6      1160     MECN     H12      HGA3     0.090000        1.0080           0
     16047 WT6      1160     MECN     H13      HGA3     0.090000        1.0080           0
     16048 WT6      1160     MECN     C2       CG1N1    0.360000       12.0110           0
     16049 WT6      1160     MECN     N3       NG1T1   -0.460000       14.0070           0
     16050 WT6      1169     MECN     C1       CG331   -0.170000       12.0110           0
     16051 WT6      1169     MECN     H11      HGA3     0.090000        1.0080           0
     16052 WT6      1169     MECN     H12      HGA3     0.090000        1.0080           0
     16053 WT6      1169     MECN     H13      HGA3     0.090000        1.0080           0
     16054 WT6      1169     MECN     C2       CG1N1    0.360000       12.0110           0
     16055 WT6      1169     MECN     N3       NG1T1   -0.460000       14.0070           0
     16056 WT6      1175     MECN     C1       CG331   -0.170000       12.0110           0
     16057 WT6      1175     MECN     H11      HGA3     0.090000        1.0080           0
     16058 WT6      1175     MECN     H12      HGA3     0.090000        1.0080           0
     16059 WT6      1175     MECN     H13      HGA3     0.090000        1.0080           0
     16060 WT6      1175     MECN     C2       CG1N1    0.360000       12.0110           0
     16061 WT6      1175     MECN     N3       NG1T1   -0.460000       14.0070           0
     16062 WT6      1176     MECN     C1       CG331   -0.170000       12.0110           0
     16063 WT6      1176     MECN     H11      HGA3     0.090000        1.0080           0
     16064 WT6      1176     MECN     H12      HGA3     0.090000        1.0080           0
     16065 WT6      1176     MECN     H13      HGA3     0.090000        1.0080           0
     16066 WT6      1176     MECN     C2       CG1N1    0.360000       12.0110           0
     16067 WT6      1176     MECN     N3       NG1T1   -0.460000       14.0070           0
     16068 WT6      1177     MECN     C1       CG331   -0.170000       12.0110           0
     16069 WT6      1177     MECN     H11      HGA3     0.090000        1.0080           0
     16070 WT6      1177     MECN     H12      HGA3     0.090000        1.0080           0
     16071 WT6      1177     MECN     H13      HGA3     0.090000        1.0080           0
     16072 WT6      1177     MECN     C2       CG1N1    0.360000       12.0110           0
     16073 WT6      1177     MECN     N3       NG1T1   -0.460000       14.0070           0
     16074 WT6      1182     MECN     C1       CG331   -0.170000       12.0110           0
     16075 WT6      1182     MECN     H11      HGA3     0.090000        1.0080           0
     16076 WT6      1182     MECN     H12      HGA3     0.090000        1.0080           0
     16077 WT6      1182     MECN     H13      HGA3     0.090000        1.0080           0
     16078 WT6      1182     MECN     C2       CG1N1    0.360000       12.0110           0
     16079 WT6      1182     MECN     N3       NG1T1   -0.460000       14.0070           0
     16080 WT6      1183     MECN     C1       CG331   -0.170000       12.0110           0
     16081 WT6      1183     MECN     H11      HGA3     0.090000        1.0080           0
     16082 WT6      1183     MECN     H12      HGA3     0.090000        1.0080           0
     16083 WT6      1183     MECN     H13      HGA3     0.090000        1.0080           0
     16084 WT6      1183     MECN     C2       CG1N1    0.360000       12.0110           0
     16085 WT6      1183     MECN     N3       NG1T1   -0.460000       14.0070           0
     16086 WT6      1186     MECN     C1       CG331   -0.170000       12.0110           0
     16087 WT6      1186     MECN     H11      HGA3     0.090000        1.0080           0
     16088 WT6      1186     MECN     H12      HGA3     0.090000        1.0080           0
     16089 WT6      1186     MECN     H13      HGA3     0.090000        1.0080           0
     16090 WT6      1186     MECN     C2       CG1N1    0.360000       12.0110           0
     16091 WT6      1186     MECN     N3       NG1T1   -0.460000       14.0070           0
     16092 WT6      1187     MECN     C1       CG331   -0.170000       12.0110           0
     16093 WT6      1187     MECN     H11      HGA3     0.090000        1.0080           0
     16094 WT6      1187     MECN     H12      HGA3     0.090000        1.0080           0
     16095 WT6      1187     MECN     H13      HGA3     0.090000        1.0080           0
     16096 WT6      1187     MECN     C2       CG1N1    0.360000       12.0110           0
     16097 WT6      1187     MECN     N3       NG1T1   -0.460000       14.0070           0
     16098 WT6      1189     MECN     C1       CG331   -0.170000       12.0110           0
     16099 WT6      1189     MECN     H11      HGA3     0.090000        1.0080           0
     16100 WT6      1189     MECN     H12      HGA3     0.090000        1.0080           0
     16101 WT6      1189     MECN     H13      HGA3     0.090000        1.0080           0
     16102 WT6      1189     MECN     C2       CG1N1    0.360000       12.0110           0
     16103 WT6      1189     MECN     N3       NG1T1   -0.460000       14.0070           0
     16104 WT6      1192     MECN     C1       CG331   -0.170000       12.0110           0
     16105 WT6      1192     MECN     H11      HGA3     0.090000        1.0080           0
     16106 WT6      1192     MECN     H12      HGA3     0.090000        1.0080           0
     16107 WT6      1192     MECN     H13      HGA3     0.090000        1.0080           0
     16108 WT6      1192     MECN     C2       CG1N1    0.360000       12.0110           0
     16109 WT6      1192     MECN     N3       NG1T1   -0.460000       14.0070           0
     16110 WT6      1194     MECN     C1       CG331   -0.170000       12.0110           0
     16111 WT6      1194     MECN     H11      HGA3     0.090000        1.0080           0
     16112 WT6      1194     MECN     H12      HGA3     0.090000        1.0080           0
     16113 WT6      1194     MECN     H13      HGA3     0.090000        1.0080           0
     16114 WT6      1194     MECN     C2       CG1N1    0.360000       12.0110           0
     16115 WT6      1194     MECN     N3       NG1T1   -0.460000       14.0070           0
     16116 WT6      1196     MECN     C1       CG331   -0.170000       12.0110           0
     16117 WT6      1196     MECN     H11      HGA3     0.090000        1.0080           0
     16118 WT6      1196     MECN     H12      HGA3     0.090000        1.0080           0
     16119 WT6      1196     MECN     H13      HGA3     0.090000        1.0080           0
     16120 WT6      1196     MECN     C2       CG1N1    0.360000       12.0110           0
     16121 WT6      1196     MECN     N3       NG1T1   -0.460000       14.0070           0
     16122 WT6      1198     MECN     C1       CG331   -0.170000       12.0110           0
     16123 WT6      1198     MECN     H11      HGA3     0.090000        1.0080           0
     16124 WT6      1198     MECN     H12      HGA3     0.090000        1.0080           0
     16125 WT6      1198     MECN     H13      HGA3     0.090000        1.0080           0
     16126 WT6      1198     MECN     C2       CG1N1    0.360000       12.0110           0
     16127 WT6      1198     MECN     N3       NG1T1   -0.460000       14.0070           0
     16128 WT6      1201     MECN     C1       CG331   -0.170000       12.0110           0
     16129 WT6      1201     MECN     H11      HGA3     0.090000        1.0080           0
     16130 WT6      1201     MECN     H12      HGA3     0.090000        1.0080           0
     16131 WT6      1201     MECN     H13      HGA3     0.090000        1.0080           0
     16132 WT6      1201     MECN     C2       CG1N1    0.360000       12.0110           0
     16133 WT6      1201     MECN     N3       NG1T1   -0.460000       14.0070           0
     16134 WT6      1207     MECN     C1       CG331   -0.170000       12.0110           0
     16135 WT6      1207     MECN     H11      HGA3     0.090000        1.0080           0
     16136 WT6      1207     MECN     H12      HGA3     0.090000        1.0080           0
     16137 WT6      1207     MECN     H13      HGA3     0.090000        1.0080           0
     16138 WT6      1207     MECN     C2       CG1N1    0.360000       12.0110           0
     16139 WT6      1207     MECN     N3       NG1T1   -0.460000       14.0070           0
     16140 WT6      1208     MECN     C1       CG331   -0.170000       12.0110           0
     16141 WT6      1208     MECN     H11      HGA3     0.090000        1.0080           0
     16142 WT6      1208     MECN     H12      HGA3     0.090000        1.0080           0
     16143 WT6      1208     MECN     H13      HGA3     0.090000        1.0080           0
     16144 WT6      1208     MECN     C2       CG1N1    0.360000       12.0110           0
     16145 WT6      1208     MECN     N3       NG1T1   -0.460000       14.0070           0
     16146 WT6      1209     MECN     C1       CG331   -0.170000       12.0110           0
     16147 WT6      1209     MECN     H11      HGA3     0.090000        1.0080           0
     16148 WT6      1209     MECN     H12      HGA3     0.090000        1.0080           0
     16149 WT6      1209     MECN     H13      HGA3     0.090000        1.0080           0
     16150 WT6      1209     MECN     C2       CG1N1    0.360000       12.0110           0
     16151 WT6      1209     MECN     N3       NG1T1   -0.460000       14.0070           0
     16152 WT6      1212     MECN     C1       CG331   -0.170000       12.0110           0
     16153 WT6      1212     MECN     H11      HGA3     0.090000        1.0080           0
     16154 WT6      1212     MECN     H12      HGA3     0.090000        1.0080           0
     16155 WT6      1212     MECN     H13      HGA3     0.090000        1.0080           0
     16156 WT6      1212     MECN     C2       CG1N1    0.360000       12.0110           0
     16157 WT6      1212     MECN     N3       NG1T1   -0.460000       14.0070           0
     16158 WT6      1214     MECN     C1       CG331   -0.170000       12.0110           0
     16159 WT6      1214     MECN     H11      HGA3     0.090000        1.0080           0
     16160 WT6      1214     MECN     H12      HGA3     0.090000        1.0080           0
     16161 WT6      1214     MECN     H13      HGA3     0.090000        1.0080           0
     16162 WT6      1214     MECN     C2       CG1N1    0.360000       12.0110           0
     16163 WT6      1214     MECN     N3       NG1T1   -0.460000       14.0070           0
     16164 WT6      1215     MECN     C1       CG331   -0.170000       12.0110           0
     16165 WT6      1215     MECN     H11      HGA3     0.090000        1.0080           0
     16166 WT6      1215     MECN     H12      HGA3     0.090000        1.0080           0
     16167 WT6      1215     MECN     H13      HGA3     0.090000        1.0080           0
     16168 WT6      1215     MECN     C2       CG1N1    0.360000       12.0110           0
     16169 WT6      1215     MECN     N3       NG1T1   -0.460000       14.0070           0
     16170 WT6      1216     MECN     C1       CG331   -0.170000       12.0110           0
     16171 WT6      1216     MECN     H11      HGA3     0.090000        1.0080           0
     16172 WT6      1216     MECN     H12      HGA3     0.090000        1.0080           0
     16173 WT6      1216     MECN     H13      HGA3     0.090000        1.0080           0
     16174 WT6      1216     MECN     C2       CG1N1    0.360000       12.0110           0
     16175 WT6      1216     MECN     N3       NG1T1   -0.460000       14.0070           0
     16176 WT6      1221     MECN     C1       CG331   -0.170000       12.0110           0
     16177 WT6      1221     MECN     H11      HGA3     0.090000        1.0080           0
     16178 WT6      1221     MECN     H12      HGA3     0.090000        1.0080           0
     16179 WT6      1221     MECN     H13      HGA3     0.090000        1.0080           0
     16180 WT6      1221     MECN     C2       CG1N1    0.360000       12.0110           0
     16181 WT6      1221     MECN     N3       NG1T1   -0.460000       14.0070           0
     16182 WT6      1228     MECN     C1       CG331   -0.170000       12.0110           0
     16183 WT6      1228     MECN     H11      HGA3     0.090000        1.0080           0
     16184 WT6      1228     MECN     H12      HGA3     0.090000        1.0080           0
     16185 WT6      1228     MECN     H13      HGA3     0.090000        1.0080           0
     16186 WT6      1228     MECN     C2       CG1N1    0.360000       12.0110           0
     16187 WT6      1228     MECN     N3       NG1T1   -0.460000       14.0070           0
     16188 WT6      1233     MECN     C1       CG331   -0.170000       12.0110           0
     16189 WT6      1233     MECN     H11      HGA3     0.090000        1.0080           0
     16190 WT6      1233     MECN     H12      HGA3     0.090000        1.0080           0
     16191 WT6      1233     MECN     H13      HGA3     0.090000        1.0080           0
     16192 WT6      1233     MECN     C2       CG1N1    0.360000       12.0110           0
     16193 WT6      1233     MECN     N3       NG1T1   -0.460000       14.0070           0
     16194 WT6      1234     MECN     C1       CG331   -0.170000       12.0110           0
     16195 WT6      1234     MECN     H11      HGA3     0.090000        1.0080           0
     16196 WT6      1234     MECN     H12      HGA3     0.090000        1.0080           0
     16197 WT6      1234     MECN     H13      HGA3     0.090000        1.0080           0
     16198 WT6      1234     MECN     C2       CG1N1    0.360000       12.0110           0
     16199 WT6      1234     MECN     N3       NG1T1   -0.460000       14.0070           0
     16200 WT6      1236     MECN     C1       CG331   -0.170000       12.0110           0
     16201 WT6      1236     MECN     H11      HGA3     0.090000        1.0080           0
     16202 WT6      1236     MECN     H12      HGA3     0.090000        1.0080           0
     16203 WT6      1236     MECN     H13      HGA3     0.090000        1.0080           0
     16204 WT6      1236     MECN     C2       CG1N1    0.360000       12.0110           0
     16205 WT6      1236     MECN     N3       NG1T1   -0.460000       14.0070           0
     16206 WT6      1241     MECN     C1       CG331   -0.170000       12.0110           0
     16207 WT6      1241     MECN     H11      HGA3     0.090000        1.0080           0
     16208 WT6      1241     MECN     H12      HGA3     0.090000        1.0080           0
     16209 WT6      1241     MECN     H13      HGA3     0.090000        1.0080           0
     16210 WT6      1241     MECN     C2       CG1N1    0.360000       12.0110           0
     16211 WT6      1241     MECN     N3       NG1T1   -0.460000       14.0070           0
     16212 WT6      1242     MECN     C1       CG331   -0.170000       12.0110           0
     16213 WT6      1242     MECN     H11      HGA3     0.090000        1.0080           0
     16214 WT6      1242     MECN     H12      HGA3     0.090000        1.0080           0
     16215 WT6      1242     MECN     H13      HGA3     0.090000        1.0080           0
     16216 WT6      1242     MECN     C2       CG1N1    0.360000       12.0110           0
     16217 WT6      1242     MECN     N3       NG1T1   -0.460000       14.0070           0
     16218 WT6      1245     MECN     C1       CG331   -0.170000       12.0110           0
     16219 WT6      1245     MECN     H11      HGA3     0.090000        1.0080           0
     16220 WT6      1245     MECN     H12      HGA3     0.090000        1.0080           0
     16221 WT6      1245     MECN     H13      HGA3     0.090000        1.0080           0
     16222 WT6      1245     MECN     C2       CG1N1    0.360000       12.0110           0
     16223 WT6      1245     MECN     N3       NG1T1   -0.460000       14.0070           0
     16224 WT6      1246     MECN     C1       CG331   -0.170000       12.0110           0
     16225 WT6      1246     MECN     H11      HGA3     0.090000        1.0080           0
     16226 WT6      1246     MECN     H12      HGA3     0.090000        1.0080           0
     16227 WT6      1246     MECN     H13      HGA3     0.090000        1.0080           0
     16228 WT6      1246     MECN     C2       CG1N1    0.360000       12.0110           0
     16229 WT6      1246     MECN     N3       NG1T1   -0.460000       14.0070           0
     16230 WT6      1248     MECN     C1       CG331   -0.170000       12.0110           0
     16231 WT6      1248     MECN     H11      HGA3     0.090000        1.0080           0
     16232 WT6      1248     MECN     H12      HGA3     0.090000        1.0080           0
     16233 WT6      1248     MECN     H13      HGA3     0.090000        1.0080           0
     16234 WT6      1248     MECN     C2       CG1N1    0.360000       12.0110           0
     16235 WT6      1248     MECN     N3       NG1T1   -0.460000       14.0070           0
     16236 WT6      1251     MECN     C1       CG331   -0.170000       12.0110           0
     16237 WT6      1251     MECN     H11      HGA3     0.090000        1.0080           0
     16238 WT6      1251     MECN     H12      HGA3     0.090000        1.0080           0
     16239 WT6      1251     MECN     H13      HGA3     0.090000        1.0080           0
     16240 WT6      1251     MECN     C2       CG1N1    0.360000       12.0110           0
     16241 WT6      1251     MECN     N3       NG1T1   -0.460000       14.0070           0
     16242 WT6      1258     MECN     C1       CG331   -0.170000       12.0110           0
     16243 WT6      1258     MECN     H11      HGA3     0.090000        1.0080           0
     16244 WT6      1258     MECN     H12      HGA3     0.090000        1.0080           0
     16245 WT6      1258     MECN     H13      HGA3     0.090000        1.0080           0
     16246 WT6      1258     MECN     C2       CG1N1    0.360000       12.0110           0
     16247 WT6      1258     MECN     N3       NG1T1   -0.460000       14.0070           0
     16248 WT6      1260     MECN     C1       CG331   -0.170000       12.0110           0
     16249 WT6      1260     MECN     H11      HGA3     0.090000        1.0080           0
     16250 WT6      1260     MECN     H12      HGA3     0.090000        1.0080           0
     16251 WT6      1260     MECN     H13      HGA3     0.090000        1.0080           0
     16252 WT6      1260     MECN     C2       CG1N1    0.360000       12.0110           0
     16253 WT6      1260     MECN     N3       NG1T1   -0.460000       14.0070           0
     16254 WT6      1263     MECN     C1       CG331   -0.170000       12.0110           0
     16255 WT6      1263     MECN     H11      HGA3     0.090000        1.0080           0
     16256 WT6      1263     MECN     H12      HGA3     0.090000        1.0080           0
     16257 WT6      1263     MECN     H13      HGA3     0.090000        1.0080           0
     16258 WT6      1263     MECN     C2       CG1N1    0.360000       12.0110           0
     16259 WT6      1263     MECN     N3       NG1T1   -0.460000       14.0070           0
     16260 WT6      1266     MECN     C1       CG331   -0.170000       12.0110           0
     16261 WT6      1266     MECN     H11      HGA3     0.090000        1.0080           0
     16262 WT6      1266     MECN     H12      HGA3     0.090000        1.0080           0
     16263 WT6      1266     MECN     H13      HGA3     0.090000        1.0080           0
     16264 WT6      1266     MECN     C2       CG1N1    0.360000       12.0110           0
     16265 WT6      1266     MECN     N3       NG1T1   -0.460000       14.0070           0
     16266 WT6      1275     MECN     C1       CG331   -0.170000       12.0110           0
     16267 WT6      1275     MECN     H11      HGA3     0.090000        1.0080           0
     16268 WT6      1275     MECN     H12      HGA3     0.090000        1.0080           0
     16269 WT6      1275     MECN     H13      HGA3     0.090000        1.0080           0
     16270 WT6      1275     MECN     C2       CG1N1    0.360000       12.0110           0
     16271 WT6      1275     MECN     N3       NG1T1   -0.460000       14.0070           0
     16272 WT6      1278     MECN     C1       CG331   -0.170000       12.0110           0
     16273 WT6      1278     MECN     H11      HGA3     0.090000        1.0080           0
     16274 WT6      1278     MECN     H12      HGA3     0.090000        1.0080           0
     16275 WT6      1278     MECN     H13      HGA3     0.090000        1.0080           0
     16276 WT6      1278     MECN     C2       CG1N1    0.360000       12.0110           0
     16277 WT6      1278     MECN     N3       NG1T1   -0.460000       14.0070           0
     16278 WT6      1279     MECN     C1       CG331   -0.170000       12.0110           0
     16279 WT6      1279     MECN     H11      HGA3     0.090000        1.0080           0
     16280 WT6      1279     MECN     H12      HGA3     0.090000        1.0080           0
     16281 WT6      1279     MECN     H13      HGA3     0.090000        1.0080           0
     16282 WT6      1279     MECN     C2       CG1N1    0.360000       12.0110           0
     16283 WT6      1279     MECN     N3       NG1T1   -0.460000       14.0070           0
     16284 WT6      1282     MECN     C1       CG331   -0.170000       12.0110           0
     16285 WT6      1282     MECN     H11      HGA3     0.090000        1.0080           0
     16286 WT6      1282     MECN     H12      HGA3     0.090000        1.0080           0
     16287 WT6      1282     MECN     H13      HGA3     0.090000        1.0080           0
     16288 WT6      1282     MECN     C2       CG1N1    0.360000       12.0110           0
     16289 WT6      1282     MECN     N3       NG1T1   -0.460000       14.0070           0
     16290 WT6      1285     MECN     C1       CG331   -0.170000       12.0110           0
     16291 WT6      1285     MECN     H11      HGA3     0.090000        1.0080           0
     16292 WT6      1285     MECN     H12      HGA3     0.090000        1.0080           0
     16293 WT6      1285     MECN     H13      HGA3     0.090000        1.0080           0
     16294 WT6      1285     MECN     C2       CG1N1    0.360000       12.0110           0
     16295 WT6      1285     MECN     N3       NG1T1   -0.460000       14.0070           0
     16296 WT6      1296     MECN     C1       CG331   -0.170000       12.0110           0
     16297 WT6      1296     MECN     H11      HGA3     0.090000        1.0080           0
     16298 WT6      1296     MECN     H12      HGA3     0.090000        1.0080           0
     16299 WT6      1296     MECN     H13      HGA3     0.090000        1.0080           0
     16300 WT6      1296     MECN     C2       CG1N1    0.360000       12.0110           0
     16301 WT6      1296     MECN     N3       NG1T1   -0.460000       14.0070           0
     16302 WT6      1314     MECN     C1       CG331   -0.170000       12.0110           0
     16303 WT6      1314     MECN     H11      HGA3     0.090000        1.0080           0
     16304 WT6      1314     MECN     H12      HGA3     0.090000        1.0080           0
     16305 WT6      1314     MECN     H13      HGA3     0.090000        1.0080           0
     16306 WT6      1314     MECN     C2       CG1N1    0.360000       12.0110           0
     16307 WT6      1314     MECN     N3       NG1T1   -0.460000       14.0070           0
     16308 WT6      1320     MECN     C1       CG331   -0.170000       12.0110           0
     16309 WT6      1320     MECN     H11      HGA3     0.090000        1.0080           0
     16310 WT6      1320     MECN     H12      HGA3     0.090000        1.0080           0
     16311 WT6      1320     MECN     H13      HGA3     0.090000        1.0080           0
     16312 WT6      1320     MECN     C2       CG1N1    0.360000       12.0110           0
     16313 WT6      1320     MECN     N3       NG1T1   -0.460000       14.0070           0
     16314 WT6      1321     MECN     C1       CG331   -0.170000       12.0110           0
     16315 WT6      1321     MECN     H11      HGA3     0.090000        1.0080           0
     16316 WT6      1321     MECN     H12      HGA3     0.090000        1.0080           0
     16317 WT6      1321     MECN     H13      HGA3     0.090000        1.0080           0
     16318 WT6      1321     MECN     C2       CG1N1    0.360000       12.0110           0
     16319 WT6      1321     MECN     N3       NG1T1   -0.460000       14.0070           0
     16320 WT6      1322     MECN     C1       CG331   -0.170000       12.0110           0
     16321 WT6      1322     MECN     H11      HGA3     0.090000        1.0080           0
     16322 WT6      1322     MECN     H12      HGA3     0.090000        1.0080           0
     16323 WT6      1322     MECN     H13      HGA3     0.090000        1.0080           0
     16324 WT6      1322     MECN     C2       CG1N1    0.360000       12.0110           0
     16325 WT6      1322     MECN     N3       NG1T1   -0.460000       14.0070           0
     16326 WT6      1323     MECN     C1       CG331   -0.170000       12.0110           0
     16327 WT6      1323     MECN     H11      HGA3     0.090000        1.0080           0
     16328 WT6      1323     MECN     H12      HGA3     0.090000        1.0080           0
     16329 WT6      1323     MECN     H13      HGA3     0.090000        1.0080           0
     16330 WT6      1323     MECN     C2       CG1N1    0.360000       12.0110           0
     16331 WT6      1323     MECN     N3       NG1T1   -0.460000       14.0070           0
     16332 WT6      1329     MECN     C1       CG331   -0.170000       12.0110           0
     16333 WT6      1329     MECN     H11      HGA3     0.090000        1.0080           0
     16334 WT6      1329     MECN     H12      HGA3     0.090000        1.0080           0
     16335 WT6      1329     MECN     H13      HGA3     0.090000        1.0080           0
     16336 WT6      1329     MECN     C2       CG1N1    0.360000       12.0110           0
     16337 WT6      1329     MECN     N3       NG1T1   -0.460000       14.0070           0
     16338 WT6      1330     MECN     C1       CG331   -0.170000       12.0110           0
     16339 WT6      1330     MECN     H11      HGA3     0.090000        1.0080           0
     16340 WT6      1330     MECN     H12      HGA3     0.090000        1.0080           0
     16341 WT6      1330     MECN     H13      HGA3     0.090000        1.0080           0
     16342 WT6      1330     MECN     C2       CG1N1    0.360000       12.0110           0
     16343 WT6      1330     MECN     N3       NG1T1   -0.460000       14.0070           0
     16344 WT7      1        MECN     C1       CG331   -0.170000       12.0110           0
     16345 WT7      1        MECN     H11      HGA3     0.090000        1.0080           0
     16346 WT7      1        MECN     H12      HGA3     0.090000        1.0080           0
     16347 WT7      1        MECN     H13      HGA3     0.090000        1.0080           0
     16348 WT7      1        MECN     C2       CG1N1    0.360000       12.0110           0
     16349 WT7      1        MECN     N3       NG1T1   -0.460000       14.0070           0
     16350 WT7      4        MECN     C1       CG331   -0.170000       12.0110           0
     16351 WT7      4        MECN     H11      HGA3     0.090000        1.0080           0
     16352 WT7      4        MECN     H12      HGA3     0.090000        1.0080           0
     16353 WT7      4        MECN     H13      HGA3     0.090000        1.0080           0
     16354 WT7      4        MECN     C2       CG1N1    0.360000       12.0110           0
     16355 WT7      4        MECN     N3       NG1T1   -0.460000       14.0070           0
     16356 WT7      9        MECN     C1       CG331   -0.170000       12.0110           0
     16357 WT7      9        MECN     H11      HGA3     0.090000        1.0080           0
     16358 WT7      9        MECN     H12      HGA3     0.090000        1.0080           0
     16359 WT7      9        MECN     H13      HGA3     0.090000        1.0080           0
     16360 WT7      9        MECN     C2       CG1N1    0.360000       12.0110           0
     16361 WT7      9        MECN     N3       NG1T1   -0.460000       14.0070           0
     16362 WT7      17       MECN     C1       CG331   -0.170000       12.0110           0
     16363 WT7      17       MECN     H11      HGA3     0.090000        1.0080           0
     16364 WT7      17       MECN     H12      HGA3     0.090000        1.0080           0
     16365 WT7      17       MECN     H13      HGA3     0.090000        1.0080           0
     16366 WT7      17       MECN     C2       CG1N1    0.360000       12.0110           0
     16367 WT7      17       MECN     N3       NG1T1   -0.460000       14.0070           0
     16368 WT7      31       MECN     C1       CG331   -0.170000       12.0110           0
     16369 WT7      31       MECN     H11      HGA3     0.090000        1.0080           0
     16370 WT7      31       MECN     H12      HGA3     0.090000        1.0080           0
     16371 WT7      31       MECN     H13      HGA3     0.090000        1.0080           0
     16372 WT7      31       MECN     C2       CG1N1    0.360000       12.0110           0
     16373 WT7      31       MECN     N3       NG1T1   -0.460000       14.0070           0
     16374 WT7      33       MECN     C1       CG331   -0.170000       12.0110           0
     16375 WT7      33       MECN     H11      HGA3     0.090000        1.0080           0
     16376 WT7      33       MECN     H12      HGA3     0.090000        1.0080           0
     16377 WT7      33       MECN     H13      HGA3     0.090000        1.0080           0
     16378 WT7      33       MECN     C2       CG1N1    0.360000       12.0110           0
     16379 WT7      33       MECN     N3       NG1T1   -0.460000       14.0070           0
     16380 WT7      34       MECN     C1       CG331   -0.170000       12.0110           0
     16381 WT7      34       MECN     H11      HGA3     0.090000        1.0080           0
     16382 WT7      34       MECN     H12      HGA3     0.090000        1.0080           0
     16383 WT7      34       MECN     H13      HGA3     0.090000        1.0080           0
     16384 WT7      34       MECN     C2       CG1N1    0.360000       12.0110           0
     16385 WT7      34       MECN     N3       NG1T1   -0.460000       14.0070           0
     16386 WT7      36       MECN     C1       CG331   -0.170000       12.0110           0
     16387 WT7      36       MECN     H11      HGA3     0.090000        1.0080           0
     16388 WT7      36       MECN     H12      HGA3     0.090000        1.0080           0
     16389 WT7      36       MECN     H13      HGA3     0.090000        1.0080           0
     16390 WT7      36       MECN     C2       CG1N1    0.360000       12.0110           0
     16391 WT7      36       MECN     N3       NG1T1   -0.460000       14.0070           0
     16392 WT7      37       MECN     C1       CG331   -0.170000       12.0110           0
     16393 WT7      37       MECN     H11      HGA3     0.090000        1.0080           0
     16394 WT7      37       MECN     H12      HGA3     0.090000        1.0080           0
     16395 WT7      37       MECN     H13      HGA3     0.090000        1.0080           0
     16396 WT7      37       MECN     C2       CG1N1    0.360000       12.0110           0
     16397 WT7      37       MECN     N3       NG1T1   -0.460000       14.0070           0
     16398 WT7      42       MECN     C1       CG331   -0.170000       12.0110           0
     16399 WT7      42       MECN     H11      HGA3     0.090000        1.0080           0
     16400 WT7      42       MECN     H12      HGA3     0.090000        1.0080           0
     16401 WT7      42       MECN     H13      HGA3     0.090000        1.0080           0
     16402 WT7      42       MECN     C2       CG1N1    0.360000       12.0110           0
     16403 WT7      42       MECN     N3       NG1T1   -0.460000       14.0070           0
     16404 WT7      46       MECN     C1       CG331   -0.170000       12.0110           0
     16405 WT7      46       MECN     H11      HGA3     0.090000        1.0080           0
     16406 WT7      46       MECN     H12      HGA3     0.090000        1.0080           0
     16407 WT7      46       MECN     H13      HGA3     0.090000        1.0080           0
     16408 WT7      46       MECN     C2       CG1N1    0.360000       12.0110           0
     16409 WT7      46       MECN     N3       NG1T1   -0.460000       14.0070           0
     16410 WT7      71       MECN     C1       CG331   -0.170000       12.0110           0
     16411 WT7      71       MECN     H11      HGA3     0.090000        1.0080           0
     16412 WT7      71       MECN     H12      HGA3     0.090000        1.0080           0
     16413 WT7      71       MECN     H13      HGA3     0.090000        1.0080           0
     16414 WT7      71       MECN     C2       CG1N1    0.360000       12.0110           0
     16415 WT7      71       MECN     N3       NG1T1   -0.460000       14.0070           0
     16416 WT7      73       MECN     C1       CG331   -0.170000       12.0110           0
     16417 WT7      73       MECN     H11      HGA3     0.090000        1.0080           0
     16418 WT7      73       MECN     H12      HGA3     0.090000        1.0080           0
     16419 WT7      73       MECN     H13      HGA3     0.090000        1.0080           0
     16420 WT7      73       MECN     C2       CG1N1    0.360000       12.0110           0
     16421 WT7      73       MECN     N3       NG1T1   -0.460000       14.0070           0
     16422 WT7      81       MECN     C1       CG331   -0.170000       12.0110           0
     16423 WT7      81       MECN     H11      HGA3     0.090000        1.0080           0
     16424 WT7      81       MECN     H12      HGA3     0.090000        1.0080           0
     16425 WT7      81       MECN     H13      HGA3     0.090000        1.0080           0
     16426 WT7      81       MECN     C2       CG1N1    0.360000       12.0110           0
     16427 WT7      81       MECN     N3       NG1T1   -0.460000       14.0070           0
     16428 WT7      84       MECN     C1       CG331   -0.170000       12.0110           0
     16429 WT7      84       MECN     H11      HGA3     0.090000        1.0080           0
     16430 WT7      84       MECN     H12      HGA3     0.090000        1.0080           0
     16431 WT7      84       MECN     H13      HGA3     0.090000        1.0080           0
     16432 WT7      84       MECN     C2       CG1N1    0.360000       12.0110           0
     16433 WT7      84       MECN     N3       NG1T1   -0.460000       14.0070           0
     16434 WT7      86       MECN     C1       CG331   -0.170000       12.0110           0
     16435 WT7      86       MECN     H11      HGA3     0.090000        1.0080           0
     16436 WT7      86       MECN     H12      HGA3     0.090000        1.0080           0
     16437 WT7      86       MECN     H13      HGA3     0.090000        1.0080           0
     16438 WT7      86       MECN     C2       CG1N1    0.360000       12.0110           0
     16439 WT7      86       MECN     N3       NG1T1   -0.460000       14.0070           0
     16440 WT7      91       MECN     C1       CG331   -0.170000       12.0110           0
     16441 WT7      91       MECN     H11      HGA3     0.090000        1.0080           0
     16442 WT7      91       MECN     H12      HGA3     0.090000        1.0080           0
     16443 WT7      91       MECN     H13      HGA3     0.090000        1.0080           0
     16444 WT7      91       MECN     C2       CG1N1    0.360000       12.0110           0
     16445 WT7      91       MECN     N3       NG1T1   -0.460000       14.0070           0
     16446 WT7      94       MECN     C1       CG331   -0.170000       12.0110           0
     16447 WT7      94       MECN     H11      HGA3     0.090000        1.0080           0
     16448 WT7      94       MECN     H12      HGA3     0.090000        1.0080           0
     16449 WT7      94       MECN     H13      HGA3     0.090000        1.0080           0
     16450 WT7      94       MECN     C2       CG1N1    0.360000       12.0110           0
     16451 WT7      94       MECN     N3       NG1T1   -0.460000       14.0070           0
     16452 WT7      101      MECN     C1       CG331   -0.170000       12.0110           0
     16453 WT7      101      MECN     H11      HGA3     0.090000        1.0080           0
     16454 WT7      101      MECN     H12      HGA3     0.090000        1.0080           0
     16455 WT7      101      MECN     H13      HGA3     0.090000        1.0080           0
     16456 WT7      101      MECN     C2       CG1N1    0.360000       12.0110           0
     16457 WT7      101      MECN     N3       NG1T1   -0.460000       14.0070           0
     16458 WT7      102      MECN     C1       CG331   -0.170000       12.0110           0
     16459 WT7      102      MECN     H11      HGA3     0.090000        1.0080           0
     16460 WT7      102      MECN     H12      HGA3     0.090000        1.0080           0
     16461 WT7      102      MECN     H13      HGA3     0.090000        1.0080           0
     16462 WT7      102      MECN     C2       CG1N1    0.360000       12.0110           0
     16463 WT7      102      MECN     N3       NG1T1   -0.460000       14.0070           0
     16464 WT7      120      MECN     C1       CG331   -0.170000       12.0110           0
     16465 WT7      120      MECN     H11      HGA3     0.090000        1.0080           0
     16466 WT7      120      MECN     H12      HGA3     0.090000        1.0080           0
     16467 WT7      120      MECN     H13      HGA3     0.090000        1.0080           0
     16468 WT7      120      MECN     C2       CG1N1    0.360000       12.0110           0
     16469 WT7      120      MECN     N3       NG1T1   -0.460000       14.0070           0
     16470 WT7      138      MECN     C1       CG331   -0.170000       12.0110           0
     16471 WT7      138      MECN     H11      HGA3     0.090000        1.0080           0
     16472 WT7      138      MECN     H12      HGA3     0.090000        1.0080           0
     16473 WT7      138      MECN     H13      HGA3     0.090000        1.0080           0
     16474 WT7      138      MECN     C2       CG1N1    0.360000       12.0110           0
     16475 WT7      138      MECN     N3       NG1T1   -0.460000       14.0070           0
     16476 WT7      149      MECN     C1       CG331   -0.170000       12.0110           0
     16477 WT7      149      MECN     H11      HGA3     0.090000        1.0080           0
     16478 WT7      149      MECN     H12      HGA3     0.090000        1.0080           0
     16479 WT7      149      MECN     H13      HGA3     0.090000        1.0080           0
     16480 WT7      149      MECN     C2       CG1N1    0.360000       12.0110           0
     16481 WT7      149      MECN     N3       NG1T1   -0.460000       14.0070           0
     16482 WT7      158      MECN     C1       CG331   -0.170000       12.0110           0
     16483 WT7      158      MECN     H11      HGA3     0.090000        1.0080           0
     16484 WT7      158      MECN     H12      HGA3     0.090000        1.0080           0
     16485 WT7      158      MECN     H13      HGA3     0.090000        1.0080           0
     16486 WT7      158      MECN     C2       CG1N1    0.360000       12.0110           0
     16487 WT7      158      MECN     N3       NG1T1   -0.460000       14.0070           0
     16488 WT7      161      MECN     C1       CG331   -0.170000       12.0110           0
     16489 WT7      161      MECN     H11      HGA3     0.090000        1.0080           0
     16490 WT7      161      MECN     H12      HGA3     0.090000        1.0080           0
     16491 WT7      161      MECN     H13      HGA3     0.090000        1.0080           0
     16492 WT7      161      MECN     C2       CG1N1    0.360000       12.0110           0
     16493 WT7      161      MECN     N3       NG1T1   -0.460000       14.0070           0
     16494 WT7      176      MECN     C1       CG331   -0.170000       12.0110           0
     16495 WT7      176      MECN     H11      HGA3     0.090000        1.0080           0
     16496 WT7      176      MECN     H12      HGA3     0.090000        1.0080           0
     16497 WT7      176      MECN     H13      HGA3     0.090000        1.0080           0
     16498 WT7      176      MECN     C2       CG1N1    0.360000       12.0110           0
     16499 WT7      176      MECN     N3       NG1T1   -0.460000       14.0070           0
     16500 WT7      177      MECN     C1       CG331   -0.170000       12.0110           0
     16501 WT7      177      MECN     H11      HGA3     0.090000        1.0080           0
     16502 WT7      177      MECN     H12      HGA3     0.090000        1.0080           0
     16503 WT7      177      MECN     H13      HGA3     0.090000        1.0080           0
     16504 WT7      177      MECN     C2       CG1N1    0.360000       12.0110           0
     16505 WT7      177      MECN     N3       NG1T1   -0.460000       14.0070           0
     16506 WT7      183      MECN     C1       CG331   -0.170000       12.0110           0
     16507 WT7      183      MECN     H11      HGA3     0.090000        1.0080           0
     16508 WT7      183      MECN     H12      HGA3     0.090000        1.0080           0
     16509 WT7      183      MECN     H13      HGA3     0.090000        1.0080           0
     16510 WT7      183      MECN     C2       CG1N1    0.360000       12.0110           0
     16511 WT7      183      MECN     N3       NG1T1   -0.460000       14.0070           0
     16512 WT7      193      MECN     C1       CG331   -0.170000       12.0110           0
     16513 WT7      193      MECN     H11      HGA3     0.090000        1.0080           0
     16514 WT7      193      MECN     H12      HGA3     0.090000        1.0080           0
     16515 WT7      193      MECN     H13      HGA3     0.090000        1.0080           0
     16516 WT7      193      MECN     C2       CG1N1    0.360000       12.0110           0
     16517 WT7      193      MECN     N3       NG1T1   -0.460000       14.0070           0
     16518 WT7      195      MECN     C1       CG331   -0.170000       12.0110           0
     16519 WT7      195      MECN     H11      HGA3     0.090000        1.0080           0
     16520 WT7      195      MECN     H12      HGA3     0.090000        1.0080           0
     16521 WT7      195      MECN     H13      HGA3     0.090000        1.0080           0
     16522 WT7      195      MECN     C2       CG1N1    0.360000       12.0110           0
     16523 WT7      195      MECN     N3       NG1T1   -0.460000       14.0070           0
     16524 WT7      200      MECN     C1       CG331   -0.170000       12.0110           0
     16525 WT7      200      MECN     H11      HGA3     0.090000        1.0080           0
     16526 WT7      200      MECN     H12      HGA3     0.090000        1.0080           0
     16527 WT7      200      MECN     H13      HGA3     0.090000        1.0080           0
     16528 WT7      200      MECN     C2       CG1N1    0.360000       12.0110           0
     16529 WT7      200      MECN     N3       NG1T1   -0.460000       14.0070           0
     16530 WT7      209      MECN     C1       CG331   -0.170000       12.0110           0
     16531 WT7      209      MECN     H11      HGA3     0.090000        1.0080           0
     16532 WT7      209      MECN     H12      HGA3     0.090000        1.0080           0
     16533 WT7      209      MECN     H13      HGA3     0.090000        1.0080           0
     16534 WT7      209      MECN     C2       CG1N1    0.360000       12.0110           0
     16535 WT7      209      MECN     N3       NG1T1   -0.460000       14.0070           0
     16536 WT7      210      MECN     C1       CG331   -0.170000       12.0110           0
     16537 WT7      210      MECN     H11      HGA3     0.090000        1.0080           0
     16538 WT7      210      MECN     H12      HGA3     0.090000        1.0080           0
     16539 WT7      210      MECN     H13      HGA3     0.090000        1.0080           0
     16540 WT7      210      MECN     C2       CG1N1    0.360000       12.0110           0
     16541 WT7      210      MECN     N3       NG1T1   -0.460000       14.0070           0
     16542 WT7      211      MECN     C1       CG331   -0.170000       12.0110           0
     16543 WT7      211      MECN     H11      HGA3     0.090000        1.0080           0
     16544 WT7      211      MECN     H12      HGA3     0.090000        1.0080           0
     16545 WT7      211      MECN     H13      HGA3     0.090000        1.0080           0
     16546 WT7      211      MECN     C2       CG1N1    0.360000       12.0110           0
     16547 WT7      211      MECN     N3       NG1T1   -0.460000       14.0070           0
     16548 WT7      213      MECN     C1       CG331   -0.170000       12.0110           0
     16549 WT7      213      MECN     H11      HGA3     0.090000        1.0080           0
     16550 WT7      213      MECN     H12      HGA3     0.090000        1.0080           0
     16551 WT7      213      MECN     H13      HGA3     0.090000        1.0080           0
     16552 WT7      213      MECN     C2       CG1N1    0.360000       12.0110           0
     16553 WT7      213      MECN     N3       NG1T1   -0.460000       14.0070           0
     16554 WT7      215      MECN     C1       CG331   -0.170000       12.0110           0
     16555 WT7      215      MECN     H11      HGA3     0.090000        1.0080           0
     16556 WT7      215      MECN     H12      HGA3     0.090000        1.0080           0
     16557 WT7      215      MECN     H13      HGA3     0.090000        1.0080           0
     16558 WT7      215      MECN     C2       CG1N1    0.360000       12.0110           0
     16559 WT7      215      MECN     N3       NG1T1   -0.460000       14.0070           0
     16560 WT7      225      MECN     C1       CG331   -0.170000       12.0110           0
     16561 WT7      225      MECN     H11      HGA3     0.090000        1.0080           0
     16562 WT7      225      MECN     H12      HGA3     0.090000        1.0080           0
     16563 WT7      225      MECN     H13      HGA3     0.090000        1.0080           0
     16564 WT7      225      MECN     C2       CG1N1    0.360000       12.0110           0
     16565 WT7      225      MECN     N3       NG1T1   -0.460000       14.0070           0
     16566 WT7      228      MECN     C1       CG331   -0.170000       12.0110           0
     16567 WT7      228      MECN     H11      HGA3     0.090000        1.0080           0
     16568 WT7      228      MECN     H12      HGA3     0.090000        1.0080           0
     16569 WT7      228      MECN     H13      HGA3     0.090000        1.0080           0
     16570 WT7      228      MECN     C2       CG1N1    0.360000       12.0110           0
     16571 WT7      228      MECN     N3       NG1T1   -0.460000       14.0070           0
     16572 WT7      245      MECN     C1       CG331   -0.170000       12.0110           0
     16573 WT7      245      MECN     H11      HGA3     0.090000        1.0080           0
     16574 WT7      245      MECN     H12      HGA3     0.090000        1.0080           0
     16575 WT7      245      MECN     H13      HGA3     0.090000        1.0080           0
     16576 WT7      245      MECN     C2       CG1N1    0.360000       12.0110           0
     16577 WT7      245      MECN     N3       NG1T1   -0.460000       14.0070           0
     16578 WT7      256      MECN     C1       CG331   -0.170000       12.0110           0
     16579 WT7      256      MECN     H11      HGA3     0.090000        1.0080           0
     16580 WT7      256      MECN     H12      HGA3     0.090000        1.0080           0
     16581 WT7      256      MECN     H13      HGA3     0.090000        1.0080           0
     16582 WT7      256      MECN     C2       CG1N1    0.360000       12.0110           0
     16583 WT7      256      MECN     N3       NG1T1   -0.460000       14.0070           0
     16584 WT7      257      MECN     C1       CG331   -0.170000       12.0110           0
     16585 WT7      257      MECN     H11      HGA3     0.090000        1.0080           0
     16586 WT7      257      MECN     H12      HGA3     0.090000        1.0080           0
     16587 WT7      257      MECN     H13      HGA3     0.090000        1.0080           0
     16588 WT7      257      MECN     C2       CG1N1    0.360000       12.0110           0
     16589 WT7      257      MECN     N3       NG1T1   -0.460000       14.0070           0
     16590 WT7      259      MECN     C1       CG331   -0.170000       12.0110           0
     16591 WT7      259      MECN     H11      HGA3     0.090000        1.0080           0
     16592 WT7      259      MECN     H12      HGA3     0.090000        1.0080           0
     16593 WT7      259      MECN     H13      HGA3     0.090000        1.0080           0
     16594 WT7      259      MECN     C2       CG1N1    0.360000       12.0110           0
     16595 WT7      259      MECN     N3       NG1T1   -0.460000       14.0070           0
     16596 WT7      260      MECN     C1       CG331   -0.170000       12.0110           0
     16597 WT7      260      MECN     H11      HGA3     0.090000        1.0080           0
     16598 WT7      260      MECN     H12      HGA3     0.090000        1.0080           0
     16599 WT7      260      MECN     H13      HGA3     0.090000        1.0080           0
     16600 WT7      260      MECN     C2       CG1N1    0.360000       12.0110           0
     16601 WT7      260      MECN     N3       NG1T1   -0.460000       14.0070           0
     16602 WT7      273      MECN     C1       CG331   -0.170000       12.0110           0
     16603 WT7      273      MECN     H11      HGA3     0.090000        1.0080           0
     16604 WT7      273      MECN     H12      HGA3     0.090000        1.0080           0
     16605 WT7      273      MECN     H13      HGA3     0.090000        1.0080           0
     16606 WT7      273      MECN     C2       CG1N1    0.360000       12.0110           0
     16607 WT7      273      MECN     N3       NG1T1   -0.460000       14.0070           0
     16608 WT7      289      MECN     C1       CG331   -0.170000       12.0110           0
     16609 WT7      289      MECN     H11      HGA3     0.090000        1.0080           0
     16610 WT7      289      MECN     H12      HGA3     0.090000        1.0080           0
     16611 WT7      289      MECN     H13      HGA3     0.090000        1.0080           0
     16612 WT7      289      MECN     C2       CG1N1    0.360000       12.0110           0
     16613 WT7      289      MECN     N3       NG1T1   -0.460000       14.0070           0
     16614 WT7      299      MECN     C1       CG331   -0.170000       12.0110           0
     16615 WT7      299      MECN     H11      HGA3     0.090000        1.0080           0
     16616 WT7      299      MECN     H12      HGA3     0.090000        1.0080           0
     16617 WT7      299      MECN     H13      HGA3     0.090000        1.0080           0
     16618 WT7      299      MECN     C2       CG1N1    0.360000       12.0110           0
     16619 WT7      299      MECN     N3       NG1T1   -0.460000       14.0070           0
     16620 WT7      302      MECN     C1       CG331   -0.170000       12.0110           0
     16621 WT7      302      MECN     H11      HGA3     0.090000        1.0080           0
     16622 WT7      302      MECN     H12      HGA3     0.090000        1.0080           0
     16623 WT7      302      MECN     H13      HGA3     0.090000        1.0080           0
     16624 WT7      302      MECN     C2       CG1N1    0.360000       12.0110           0
     16625 WT7      302      MECN     N3       NG1T1   -0.460000       14.0070           0
     16626 WT7      303      MECN     C1       CG331   -0.170000       12.0110           0
     16627 WT7      303      MECN     H11      HGA3     0.090000        1.0080           0
     16628 WT7      303      MECN     H12      HGA3     0.090000        1.0080           0
     16629 WT7      303      MECN     H13      HGA3     0.090000        1.0080           0
     16630 WT7      303      MECN     C2       CG1N1    0.360000       12.0110           0
     16631 WT7      303      MECN     N3       NG1T1   -0.460000       14.0070           0
     16632 WT7      308      MECN     C1       CG331   -0.170000       12.0110           0
     16633 WT7      308      MECN     H11      HGA3     0.090000        1.0080           0
     16634 WT7      308      MECN     H12      HGA3     0.090000        1.0080           0
     16635 WT7      308      MECN     H13      HGA3     0.090000        1.0080           0
     16636 WT7      308      MECN     C2       CG1N1    0.360000       12.0110           0
     16637 WT7      308      MECN     N3       NG1T1   -0.460000       14.0070           0
     16638 WT7      312      MECN     C1       CG331   -0.170000       12.0110           0
     16639 WT7      312      MECN     H11      HGA3     0.090000        1.0080           0
     16640 WT7      312      MECN     H12      HGA3     0.090000        1.0080           0
     16641 WT7      312      MECN     H13      HGA3     0.090000        1.0080           0
     16642 WT7      312      MECN     C2       CG1N1    0.360000       12.0110           0
     16643 WT7      312      MECN     N3       NG1T1   -0.460000       14.0070           0
     16644 WT7      313      MECN     C1       CG331   -0.170000       12.0110           0
     16645 WT7      313      MECN     H11      HGA3     0.090000        1.0080           0
     16646 WT7      313      MECN     H12      HGA3     0.090000        1.0080           0
     16647 WT7      313      MECN     H13      HGA3     0.090000        1.0080           0
     16648 WT7      313      MECN     C2       CG1N1    0.360000       12.0110           0
     16649 WT7      313      MECN     N3       NG1T1   -0.460000       14.0070           0
     16650 WT7      323      MECN     C1       CG331   -0.170000       12.0110           0
     16651 WT7      323      MECN     H11      HGA3     0.090000        1.0080           0
     16652 WT7      323      MECN     H12      HGA3     0.090000        1.0080           0
     16653 WT7      323      MECN     H13      HGA3     0.090000        1.0080           0
     16654 WT7      323      MECN     C2       CG1N1    0.360000       12.0110           0
     16655 WT7      323      MECN     N3       NG1T1   -0.460000       14.0070           0
     16656 WT7      326      MECN     C1       CG331   -0.170000       12.0110           0
     16657 WT7      326      MECN     H11      HGA3     0.090000        1.0080           0
     16658 WT7      326      MECN     H12      HGA3     0.090000        1.0080           0
     16659 WT7      326      MECN     H13      HGA3     0.090000        1.0080           0
     16660 WT7      326      MECN     C2       CG1N1    0.360000       12.0110           0
     16661 WT7      326      MECN     N3       NG1T1   -0.460000       14.0070           0
     16662 WT7      348      MECN     C1       CG331   -0.170000       12.0110           0
     16663 WT7      348      MECN     H11      HGA3     0.090000        1.0080           0
     16664 WT7      348      MECN     H12      HGA3     0.090000        1.0080           0
     16665 WT7      348      MECN     H13      HGA3     0.090000        1.0080           0
     16666 WT7      348      MECN     C2       CG1N1    0.360000       12.0110           0
     16667 WT7      348      MECN     N3       NG1T1   -0.460000       14.0070           0
     16668 WT7      356      MECN     C1       CG331   -0.170000       12.0110           0
     16669 WT7      356      MECN     H11      HGA3     0.090000        1.0080           0
     16670 WT7      356      MECN     H12      HGA3     0.090000        1.0080           0
     16671 WT7      356      MECN     H13      HGA3     0.090000        1.0080           0
     16672 WT7      356      MECN     C2       CG1N1    0.360000       12.0110           0
     16673 WT7      356      MECN     N3       NG1T1   -0.460000       14.0070           0
     16674 WT7      366      MECN     C1       CG331   -0.170000       12.0110           0
     16675 WT7      366      MECN     H11      HGA3     0.090000        1.0080           0
     16676 WT7      366      MECN     H12      HGA3     0.090000        1.0080           0
     16677 WT7      366      MECN     H13      HGA3     0.090000        1.0080           0
     16678 WT7      366      MECN     C2       CG1N1    0.360000       12.0110           0
     16679 WT7      366      MECN     N3       NG1T1   -0.460000       14.0070           0
     16680 WT7      371      MECN     C1       CG331   -0.170000       12.0110           0
     16681 WT7      371      MECN     H11      HGA3     0.090000        1.0080           0
     16682 WT7      371      MECN     H12      HGA3     0.090000        1.0080           0
     16683 WT7      371      MECN     H13      HGA3     0.090000        1.0080           0
     16684 WT7      371      MECN     C2       CG1N1    0.360000       12.0110           0
     16685 WT7      371      MECN     N3       NG1T1   -0.460000       14.0070           0
     16686 WT7      381      MECN     C1       CG331   -0.170000       12.0110           0
     16687 WT7      381      MECN     H11      HGA3     0.090000        1.0080           0
     16688 WT7      381      MECN     H12      HGA3     0.090000        1.0080           0
     16689 WT7      381      MECN     H13      HGA3     0.090000        1.0080           0
     16690 WT7      381      MECN     C2       CG1N1    0.360000       12.0110           0
     16691 WT7      381      MECN     N3       NG1T1   -0.460000       14.0070           0
     16692 WT7      402      MECN     C1       CG331   -0.170000       12.0110           0
     16693 WT7      402      MECN     H11      HGA3     0.090000        1.0080           0
     16694 WT7      402      MECN     H12      HGA3     0.090000        1.0080           0
     16695 WT7      402      MECN     H13      HGA3     0.090000        1.0080           0
     16696 WT7      402      MECN     C2       CG1N1    0.360000       12.0110           0
     16697 WT7      402      MECN     N3       NG1T1   -0.460000       14.0070           0
     16698 WT7      404      MECN     C1       CG331   -0.170000       12.0110           0
     16699 WT7      404      MECN     H11      HGA3     0.090000        1.0080           0
     16700 WT7      404      MECN     H12      HGA3     0.090000        1.0080           0
     16701 WT7      404      MECN     H13      HGA3     0.090000        1.0080           0
     16702 WT7      404      MECN     C2       CG1N1    0.360000       12.0110           0
     16703 WT7      404      MECN     N3       NG1T1   -0.460000       14.0070           0
     16704 WT7      407      MECN     C1       CG331   -0.170000       12.0110           0
     16705 WT7      407      MECN     H11      HGA3     0.090000        1.0080           0
     16706 WT7      407      MECN     H12      HGA3     0.090000        1.0080           0
     16707 WT7      407      MECN     H13      HGA3     0.090000        1.0080           0
     16708 WT7      407      MECN     C2       CG1N1    0.360000       12.0110           0
     16709 WT7      407      MECN     N3       NG1T1   -0.460000       14.0070           0
     16710 WT7      412      MECN     C1       CG331   -0.170000       12.0110           0
     16711 WT7      412      MECN     H11      HGA3     0.090000        1.0080           0
     16712 WT7      412      MECN     H12      HGA3     0.090000        1.0080           0
     16713 WT7      412      MECN     H13      HGA3     0.090000        1.0080           0
     16714 WT7      412      MECN     C2       CG1N1    0.360000       12.0110           0
     16715 WT7      412      MECN     N3       NG1T1   -0.460000       14.0070           0
     16716 WT7      415      MECN     C1       CG331   -0.170000       12.0110           0
     16717 WT7      415      MECN     H11      HGA3     0.090000        1.0080           0
     16718 WT7      415      MECN     H12      HGA3     0.090000        1.0080           0
     16719 WT7      415      MECN     H13      HGA3     0.090000        1.0080           0
     16720 WT7      415      MECN     C2       CG1N1    0.360000       12.0110           0
     16721 WT7      415      MECN     N3       NG1T1   -0.460000       14.0070           0
     16722 WT7      416      MECN     C1       CG331   -0.170000       12.0110           0
     16723 WT7      416      MECN     H11      HGA3     0.090000        1.0080           0
     16724 WT7      416      MECN     H12      HGA3     0.090000        1.0080           0
     16725 WT7      416      MECN     H13      HGA3     0.090000        1.0080           0
     16726 WT7      416      MECN     C2       CG1N1    0.360000       12.0110           0
     16727 WT7      416      MECN     N3       NG1T1   -0.460000       14.0070           0
     16728 WT7      430      MECN     C1       CG331   -0.170000       12.0110           0
     16729 WT7      430      MECN     H11      HGA3     0.090000        1.0080           0
     16730 WT7      430      MECN     H12      HGA3     0.090000        1.0080           0
     16731 WT7      430      MECN     H13      HGA3     0.090000        1.0080           0
     16732 WT7      430      MECN     C2       CG1N1    0.360000       12.0110           0
     16733 WT7      430      MECN     N3       NG1T1   -0.460000       14.0070           0
     16734 WT7      439      MECN     C1       CG331   -0.170000       12.0110           0
     16735 WT7      439      MECN     H11      HGA3     0.090000        1.0080           0
     16736 WT7      439      MECN     H12      HGA3     0.090000        1.0080           0
     16737 WT7      439      MECN     H13      HGA3     0.090000        1.0080           0
     16738 WT7      439      MECN     C2       CG1N1    0.360000       12.0110           0
     16739 WT7      439      MECN     N3       NG1T1   -0.460000       14.0070           0
     16740 WT7      442      MECN     C1       CG331   -0.170000       12.0110           0
     16741 WT7      442      MECN     H11      HGA3     0.090000        1.0080           0
     16742 WT7      442      MECN     H12      HGA3     0.090000        1.0080           0
     16743 WT7      442      MECN     H13      HGA3     0.090000        1.0080           0
     16744 WT7      442      MECN     C2       CG1N1    0.360000       12.0110           0
     16745 WT7      442      MECN     N3       NG1T1   -0.460000       14.0070           0
     16746 WT7      444      MECN     C1       CG331   -0.170000       12.0110           0
     16747 WT7      444      MECN     H11      HGA3     0.090000        1.0080           0
     16748 WT7      444      MECN     H12      HGA3     0.090000        1.0080           0
     16749 WT7      444      MECN     H13      HGA3     0.090000        1.0080           0
     16750 WT7      444      MECN     C2       CG1N1    0.360000       12.0110           0
     16751 WT7      444      MECN     N3       NG1T1   -0.460000       14.0070           0
     16752 WT7      451      MECN     C1       CG331   -0.170000       12.0110           0
     16753 WT7      451      MECN     H11      HGA3     0.090000        1.0080           0
     16754 WT7      451      MECN     H12      HGA3     0.090000        1.0080           0
     16755 WT7      451      MECN     H13      HGA3     0.090000        1.0080           0
     16756 WT7      451      MECN     C2       CG1N1    0.360000       12.0110           0
     16757 WT7      451      MECN     N3       NG1T1   -0.460000       14.0070           0
     16758 WT7      465      MECN     C1       CG331   -0.170000       12.0110           0
     16759 WT7      465      MECN     H11      HGA3     0.090000        1.0080           0
     16760 WT7      465      MECN     H12      HGA3     0.090000        1.0080           0
     16761 WT7      465      MECN     H13      HGA3     0.090000        1.0080           0
     16762 WT7      465      MECN     C2       CG1N1    0.360000       12.0110           0
     16763 WT7      465      MECN     N3       NG1T1   -0.460000       14.0070           0
     16764 WT7      469      MECN     C1       CG331   -0.170000       12.0110           0
     16765 WT7      469      MECN     H11      HGA3     0.090000        1.0080           0
     16766 WT7      469      MECN     H12      HGA3     0.090000        1.0080           0
     16767 WT7      469      MECN     H13      HGA3     0.090000        1.0080           0
     16768 WT7      469      MECN     C2       CG1N1    0.360000       12.0110           0
     16769 WT7      469      MECN     N3       NG1T1   -0.460000       14.0070           0
     16770 WT7      472      MECN     C1       CG331   -0.170000       12.0110           0
     16771 WT7      472      MECN     H11      HGA3     0.090000        1.0080           0
     16772 WT7      472      MECN     H12      HGA3     0.090000        1.0080           0
     16773 WT7      472      MECN     H13      HGA3     0.090000        1.0080           0
     16774 WT7      472      MECN     C2       CG1N1    0.360000       12.0110           0
     16775 WT7      472      MECN     N3       NG1T1   -0.460000       14.0070           0
     16776 WT7      478      MECN     C1       CG331   -0.170000       12.0110           0
     16777 WT7      478      MECN     H11      HGA3     0.090000        1.0080           0
     16778 WT7      478      MECN     H12      HGA3     0.090000        1.0080           0
     16779 WT7      478      MECN     H13      HGA3     0.090000        1.0080           0
     16780 WT7      478      MECN     C2       CG1N1    0.360000       12.0110           0
     16781 WT7      478      MECN     N3       NG1T1   -0.460000       14.0070           0
     16782 WT7      484      MECN     C1       CG331   -0.170000       12.0110           0
     16783 WT7      484      MECN     H11      HGA3     0.090000        1.0080           0
     16784 WT7      484      MECN     H12      HGA3     0.090000        1.0080           0
     16785 WT7      484      MECN     H13      HGA3     0.090000        1.0080           0
     16786 WT7      484      MECN     C2       CG1N1    0.360000       12.0110           0
     16787 WT7      484      MECN     N3       NG1T1   -0.460000       14.0070           0
     16788 WT7      508      MECN     C1       CG331   -0.170000       12.0110           0
     16789 WT7      508      MECN     H11      HGA3     0.090000        1.0080           0
     16790 WT7      508      MECN     H12      HGA3     0.090000        1.0080           0
     16791 WT7      508      MECN     H13      HGA3     0.090000        1.0080           0
     16792 WT7      508      MECN     C2       CG1N1    0.360000       12.0110           0
     16793 WT7      508      MECN     N3       NG1T1   -0.460000       14.0070           0
     16794 WT7      512      MECN     C1       CG331   -0.170000       12.0110           0
     16795 WT7      512      MECN     H11      HGA3     0.090000        1.0080           0
     16796 WT7      512      MECN     H12      HGA3     0.090000        1.0080           0
     16797 WT7      512      MECN     H13      HGA3     0.090000        1.0080           0
     16798 WT7      512      MECN     C2       CG1N1    0.360000       12.0110           0
     16799 WT7      512      MECN     N3       NG1T1   -0.460000       14.0070           0
     16800 WT7      517      MECN     C1       CG331   -0.170000       12.0110           0
     16801 WT7      517      MECN     H11      HGA3     0.090000        1.0080           0
     16802 WT7      517      MECN     H12      HGA3     0.090000        1.0080           0
     16803 WT7      517      MECN     H13      HGA3     0.090000        1.0080           0
     16804 WT7      517      MECN     C2       CG1N1    0.360000       12.0110           0
     16805 WT7      517      MECN     N3       NG1T1   -0.460000       14.0070           0
     16806 WT7      518      MECN     C1       CG331   -0.170000       12.0110           0
     16807 WT7      518      MECN     H11      HGA3     0.090000        1.0080           0
     16808 WT7      518      MECN     H12      HGA3     0.090000        1.0080           0
     16809 WT7      518      MECN     H13      HGA3     0.090000        1.0080           0
     16810 WT7      518      MECN     C2       CG1N1    0.360000       12.0110           0
     16811 WT7      518      MECN     N3       NG1T1   -0.460000       14.0070           0
     16812 WT7      526      MECN     C1       CG331   -0.170000       12.0110           0
     16813 WT7      526      MECN     H11      HGA3     0.090000        1.0080           0
     16814 WT7      526      MECN     H12      HGA3     0.090000        1.0080           0
     16815 WT7      526      MECN     H13      HGA3     0.090000        1.0080           0
     16816 WT7      526      MECN     C2       CG1N1    0.360000       12.0110           0
     16817 WT7      526      MECN     N3       NG1T1   -0.460000       14.0070           0
     16818 WT7      527      MECN     C1       CG331   -0.170000       12.0110           0
     16819 WT7      527      MECN     H11      HGA3     0.090000        1.0080           0
     16820 WT7      527      MECN     H12      HGA3     0.090000        1.0080           0
     16821 WT7      527      MECN     H13      HGA3     0.090000        1.0080           0
     16822 WT7      527      MECN     C2       CG1N1    0.360000       12.0110           0
     16823 WT7      527      MECN     N3       NG1T1   -0.460000       14.0070           0
     16824 WT7      541      MECN     C1       CG331   -0.170000       12.0110           0
     16825 WT7      541      MECN     H11      HGA3     0.090000        1.0080           0
     16826 WT7      541      MECN     H12      HGA3     0.090000        1.0080           0
     16827 WT7      541      MECN     H13      HGA3     0.090000        1.0080           0
     16828 WT7      541      MECN     C2       CG1N1    0.360000       12.0110           0
     16829 WT7      541      MECN     N3       NG1T1   -0.460000       14.0070           0
     16830 WT7      542      MECN     C1       CG331   -0.170000       12.0110           0
     16831 WT7      542      MECN     H11      HGA3     0.090000        1.0080           0
     16832 WT7      542      MECN     H12      HGA3     0.090000        1.0080           0
     16833 WT7      542      MECN     H13      HGA3     0.090000        1.0080           0
     16834 WT7      542      MECN     C2       CG1N1    0.360000       12.0110           0
     16835 WT7      542      MECN     N3       NG1T1   -0.460000       14.0070           0
     16836 WT7      544      MECN     C1       CG331   -0.170000       12.0110           0
     16837 WT7      544      MECN     H11      HGA3     0.090000        1.0080           0
     16838 WT7      544      MECN     H12      HGA3     0.090000        1.0080           0
     16839 WT7      544      MECN     H13      HGA3     0.090000        1.0080           0
     16840 WT7      544      MECN     C2       CG1N1    0.360000       12.0110           0
     16841 WT7      544      MECN     N3       NG1T1   -0.460000       14.0070           0
     16842 WT7      546      MECN     C1       CG331   -0.170000       12.0110           0
     16843 WT7      546      MECN     H11      HGA3     0.090000        1.0080           0
     16844 WT7      546      MECN     H12      HGA3     0.090000        1.0080           0
     16845 WT7      546      MECN     H13      HGA3     0.090000        1.0080           0
     16846 WT7      546      MECN     C2       CG1N1    0.360000       12.0110           0
     16847 WT7      546      MECN     N3       NG1T1   -0.460000       14.0070           0
     16848 WT7      556      MECN     C1       CG331   -0.170000       12.0110           0
     16849 WT7      556      MECN     H11      HGA3     0.090000        1.0080           0
     16850 WT7      556      MECN     H12      HGA3     0.090000        1.0080           0
     16851 WT7      556      MECN     H13      HGA3     0.090000        1.0080           0
     16852 WT7      556      MECN     C2       CG1N1    0.360000       12.0110           0
     16853 WT7      556      MECN     N3       NG1T1   -0.460000       14.0070           0
     16854 WT7      558      MECN     C1       CG331   -0.170000       12.0110           0
     16855 WT7      558      MECN     H11      HGA3     0.090000        1.0080           0
     16856 WT7      558      MECN     H12      HGA3     0.090000        1.0080           0
     16857 WT7      558      MECN     H13      HGA3     0.090000        1.0080           0
     16858 WT7      558      MECN     C2       CG1N1    0.360000       12.0110           0
     16859 WT7      558      MECN     N3       NG1T1   -0.460000       14.0070           0
     16860 WT7      566      MECN     C1       CG331   -0.170000       12.0110           0
     16861 WT7      566      MECN     H11      HGA3     0.090000        1.0080           0
     16862 WT7      566      MECN     H12      HGA3     0.090000        1.0080           0
     16863 WT7      566      MECN     H13      HGA3     0.090000        1.0080           0
     16864 WT7      566      MECN     C2       CG1N1    0.360000       12.0110           0
     16865 WT7      566      MECN     N3       NG1T1   -0.460000       14.0070           0
     16866 WT7      569      MECN     C1       CG331   -0.170000       12.0110           0
     16867 WT7      569      MECN     H11      HGA3     0.090000        1.0080           0
     16868 WT7      569      MECN     H12      HGA3     0.090000        1.0080           0
     16869 WT7      569      MECN     H13      HGA3     0.090000        1.0080           0
     16870 WT7      569      MECN     C2       CG1N1    0.360000       12.0110           0
     16871 WT7      569      MECN     N3       NG1T1   -0.460000       14.0070           0
     16872 WT7      584      MECN     C1       CG331   -0.170000       12.0110           0
     16873 WT7      584      MECN     H11      HGA3     0.090000        1.0080           0
     16874 WT7      584      MECN     H12      HGA3     0.090000        1.0080           0
     16875 WT7      584      MECN     H13      HGA3     0.090000        1.0080           0
     16876 WT7      584      MECN     C2       CG1N1    0.360000       12.0110           0
     16877 WT7      584      MECN     N3       NG1T1   -0.460000       14.0070           0
     16878 WT7      585      MECN     C1       CG331   -0.170000       12.0110           0
     16879 WT7      585      MECN     H11      HGA3     0.090000        1.0080           0
     16880 WT7      585      MECN     H12      HGA3     0.090000        1.0080           0
     16881 WT7      585      MECN     H13      HGA3     0.090000        1.0080           0
     16882 WT7      585      MECN     C2       CG1N1    0.360000       12.0110           0
     16883 WT7      585      MECN     N3       NG1T1   -0.460000       14.0070           0
     16884 WT7      594      MECN     C1       CG331   -0.170000       12.0110           0
     16885 WT7      594      MECN     H11      HGA3     0.090000        1.0080           0
     16886 WT7      594      MECN     H12      HGA3     0.090000        1.0080           0
     16887 WT7      594      MECN     H13      HGA3     0.090000        1.0080           0
     16888 WT7      594      MECN     C2       CG1N1    0.360000       12.0110           0
     16889 WT7      594      MECN     N3       NG1T1   -0.460000       14.0070           0
     16890 WT7      599      MECN     C1       CG331   -0.170000       12.0110           0
     16891 WT7      599      MECN     H11      HGA3     0.090000        1.0080           0
     16892 WT7      599      MECN     H12      HGA3     0.090000        1.0080           0
     16893 WT7      599      MECN     H13      HGA3     0.090000        1.0080           0
     16894 WT7      599      MECN     C2       CG1N1    0.360000       12.0110           0
     16895 WT7      599      MECN     N3       NG1T1   -0.460000       14.0070           0
     16896 WT7      601      MECN     C1       CG331   -0.170000       12.0110           0
     16897 WT7      601      MECN     H11      HGA3     0.090000        1.0080           0
     16898 WT7      601      MECN     H12      HGA3     0.090000        1.0080           0
     16899 WT7      601      MECN     H13      HGA3     0.090000        1.0080           0
     16900 WT7      601      MECN     C2       CG1N1    0.360000       12.0110           0
     16901 WT7      601      MECN     N3       NG1T1   -0.460000       14.0070           0
     16902 WT7      605      MECN     C1       CG331   -0.170000       12.0110           0
     16903 WT7      605      MECN     H11      HGA3     0.090000        1.0080           0
     16904 WT7      605      MECN     H12      HGA3     0.090000        1.0080           0
     16905 WT7      605      MECN     H13      HGA3     0.090000        1.0080           0
     16906 WT7      605      MECN     C2       CG1N1    0.360000       12.0110           0
     16907 WT7      605      MECN     N3       NG1T1   -0.460000       14.0070           0
     16908 WT7      611      MECN     C1       CG331   -0.170000       12.0110           0
     16909 WT7      611      MECN     H11      HGA3     0.090000        1.0080           0
     16910 WT7      611      MECN     H12      HGA3     0.090000        1.0080           0
     16911 WT7      611      MECN     H13      HGA3     0.090000        1.0080           0
     16912 WT7      611      MECN     C2       CG1N1    0.360000       12.0110           0
     16913 WT7      611      MECN     N3       NG1T1   -0.460000       14.0070           0
     16914 WT7      617      MECN     C1       CG331   -0.170000       12.0110           0
     16915 WT7      617      MECN     H11      HGA3     0.090000        1.0080           0
     16916 WT7      617      MECN     H12      HGA3     0.090000        1.0080           0
     16917 WT7      617      MECN     H13      HGA3     0.090000        1.0080           0
     16918 WT7      617      MECN     C2       CG1N1    0.360000       12.0110           0
     16919 WT7      617      MECN     N3       NG1T1   -0.460000       14.0070           0
     16920 WT7      623      MECN     C1       CG331   -0.170000       12.0110           0
     16921 WT7      623      MECN     H11      HGA3     0.090000        1.0080           0
     16922 WT7      623      MECN     H12      HGA3     0.090000        1.0080           0
     16923 WT7      623      MECN     H13      HGA3     0.090000        1.0080           0
     16924 WT7      623      MECN     C2       CG1N1    0.360000       12.0110           0
     16925 WT7      623      MECN     N3       NG1T1   -0.460000       14.0070           0
     16926 WT7      625      MECN     C1       CG331   -0.170000       12.0110           0
     16927 WT7      625      MECN     H11      HGA3     0.090000        1.0080           0
     16928 WT7      625      MECN     H12      HGA3     0.090000        1.0080           0
     16929 WT7      625      MECN     H13      HGA3     0.090000        1.0080           0
     16930 WT7      625      MECN     C2       CG1N1    0.360000       12.0110           0
     16931 WT7      625      MECN     N3       NG1T1   -0.460000       14.0070           0
     16932 WT7      633      MECN     C1       CG331   -0.170000       12.0110           0
     16933 WT7      633      MECN     H11      HGA3     0.090000        1.0080           0
     16934 WT7      633      MECN     H12      HGA3     0.090000        1.0080           0
     16935 WT7      633      MECN     H13      HGA3     0.090000        1.0080           0
     16936 WT7      633      MECN     C2       CG1N1    0.360000       12.0110           0
     16937 WT7      633      MECN     N3       NG1T1   -0.460000       14.0070           0
     16938 WT7      641      MECN     C1       CG331   -0.170000       12.0110           0
     16939 WT7      641      MECN     H11      HGA3     0.090000        1.0080           0
     16940 WT7      641      MECN     H12      HGA3     0.090000        1.0080           0
     16941 WT7      641      MECN     H13      HGA3     0.090000        1.0080           0
     16942 WT7      641      MECN     C2       CG1N1    0.360000       12.0110           0
     16943 WT7      641      MECN     N3       NG1T1   -0.460000       14.0070           0
     16944 WT7      644      MECN     C1       CG331   -0.170000       12.0110           0
     16945 WT7      644      MECN     H11      HGA3     0.090000        1.0080           0
     16946 WT7      644      MECN     H12      HGA3     0.090000        1.0080           0
     16947 WT7      644      MECN     H13      HGA3     0.090000        1.0080           0
     16948 WT7      644      MECN     C2       CG1N1    0.360000       12.0110           0
     16949 WT7      644      MECN     N3       NG1T1   -0.460000       14.0070           0
     16950 WT7      646      MECN     C1       CG331   -0.170000       12.0110           0
     16951 WT7      646      MECN     H11      HGA3     0.090000        1.0080           0
     16952 WT7      646      MECN     H12      HGA3     0.090000        1.0080           0
     16953 WT7      646      MECN     H13      HGA3     0.090000        1.0080           0
     16954 WT7      646      MECN     C2       CG1N1    0.360000       12.0110           0
     16955 WT7      646      MECN     N3       NG1T1   -0.460000       14.0070           0
     16956 WT7      655      MECN     C1       CG331   -0.170000       12.0110           0
     16957 WT7      655      MECN     H11      HGA3     0.090000        1.0080           0
     16958 WT7      655      MECN     H12      HGA3     0.090000        1.0080           0
     16959 WT7      655      MECN     H13      HGA3     0.090000        1.0080           0
     16960 WT7      655      MECN     C2       CG1N1    0.360000       12.0110           0
     16961 WT7      655      MECN     N3       NG1T1   -0.460000       14.0070           0
     16962 WT7      656      MECN     C1       CG331   -0.170000       12.0110           0
     16963 WT7      656      MECN     H11      HGA3     0.090000        1.0080           0
     16964 WT7      656      MECN     H12      HGA3     0.090000        1.0080           0
     16965 WT7      656      MECN     H13      HGA3     0.090000        1.0080           0
     16966 WT7      656      MECN     C2       CG1N1    0.360000       12.0110           0
     16967 WT7      656      MECN     N3       NG1T1   -0.460000       14.0070           0
     16968 WT7      657      MECN     C1       CG331   -0.170000       12.0110           0
     16969 WT7      657      MECN     H11      HGA3     0.090000        1.0080           0
     16970 WT7      657      MECN     H12      HGA3     0.090000        1.0080           0
     16971 WT7      657      MECN     H13      HGA3     0.090000        1.0080           0
     16972 WT7      657      MECN     C2       CG1N1    0.360000       12.0110           0
     16973 WT7      657      MECN     N3       NG1T1   -0.460000       14.0070           0
     16974 WT7      664      MECN     C1       CG331   -0.170000       12.0110           0
     16975 WT7      664      MECN     H11      HGA3     0.090000        1.0080           0
     16976 WT7      664      MECN     H12      HGA3     0.090000        1.0080           0
     16977 WT7      664      MECN     H13      HGA3     0.090000        1.0080           0
     16978 WT7      664      MECN     C2       CG1N1    0.360000       12.0110           0
     16979 WT7      664      MECN     N3       NG1T1   -0.460000       14.0070           0
     16980 WT7      667      MECN     C1       CG331   -0.170000       12.0110           0
     16981 WT7      667      MECN     H11      HGA3     0.090000        1.0080           0
     16982 WT7      667      MECN     H12      HGA3     0.090000        1.0080           0
     16983 WT7      667      MECN     H13      HGA3     0.090000        1.0080           0
     16984 WT7      667      MECN     C2       CG1N1    0.360000       12.0110           0
     16985 WT7      667      MECN     N3       NG1T1   -0.460000       14.0070           0
     16986 WT7      672      MECN     C1       CG331   -0.170000       12.0110           0
     16987 WT7      672      MECN     H11      HGA3     0.090000        1.0080           0
     16988 WT7      672      MECN     H12      HGA3     0.090000        1.0080           0
     16989 WT7      672      MECN     H13      HGA3     0.090000        1.0080           0
     16990 WT7      672      MECN     C2       CG1N1    0.360000       12.0110           0
     16991 WT7      672      MECN     N3       NG1T1   -0.460000       14.0070           0
     16992 WT7      674      MECN     C1       CG331   -0.170000       12.0110           0
     16993 WT7      674      MECN     H11      HGA3     0.090000        1.0080           0
     16994 WT7      674      MECN     H12      HGA3     0.090000        1.0080           0
     16995 WT7      674      MECN     H13      HGA3     0.090000        1.0080           0
     16996 WT7      674      MECN     C2       CG1N1    0.360000       12.0110           0
     16997 WT7      674      MECN     N3       NG1T1   -0.460000       14.0070           0
     16998 WT7      678      MECN     C1       CG331   -0.170000       12.0110           0
     16999 WT7      678      MECN     H11      HGA3     0.090000        1.0080           0
     17000 WT7      678      MECN     H12      HGA3     0.090000        1.0080           0
     17001 WT7      678      MECN     H13      HGA3     0.090000        1.0080           0
     17002 WT7      678      MECN     C2       CG1N1    0.360000       12.0110           0
     17003 WT7      678      MECN     N3       NG1T1   -0.460000       14.0070           0
     17004 WT7      680      MECN     C1       CG331   -0.170000       12.0110           0
     17005 WT7      680      MECN     H11      HGA3     0.090000        1.0080           0
     17006 WT7      680      MECN     H12      HGA3     0.090000        1.0080           0
     17007 WT7      680      MECN     H13      HGA3     0.090000        1.0080           0
     17008 WT7      680      MECN     C2       CG1N1    0.360000       12.0110           0
     17009 WT7      680      MECN     N3       NG1T1   -0.460000       14.0070           0
     17010 WT7      681      MECN     C1       CG331   -0.170000       12.0110           0
     17011 WT7      681      MECN     H11      HGA3     0.090000        1.0080           0
     17012 WT7      681      MECN     H12      HGA3     0.090000        1.0080           0
     17013 WT7      681      MECN     H13      HGA3     0.090000        1.0080           0
     17014 WT7      681      MECN     C2       CG1N1    0.360000       12.0110           0
     17015 WT7      681      MECN     N3       NG1T1   -0.460000       14.0070           0
     17016 WT7      691      MECN     C1       CG331   -0.170000       12.0110           0
     17017 WT7      691      MECN     H11      HGA3     0.090000        1.0080           0
     17018 WT7      691      MECN     H12      HGA3     0.090000        1.0080           0
     17019 WT7      691      MECN     H13      HGA3     0.090000        1.0080           0
     17020 WT7      691      MECN     C2       CG1N1    0.360000       12.0110           0
     17021 WT7      691      MECN     N3       NG1T1   -0.460000       14.0070           0
     17022 WT7      696      MECN     C1       CG331   -0.170000       12.0110           0
     17023 WT7      696      MECN     H11      HGA3     0.090000        1.0080           0
     17024 WT7      696      MECN     H12      HGA3     0.090000        1.0080           0
     17025 WT7      696      MECN     H13      HGA3     0.090000        1.0080           0
     17026 WT7      696      MECN     C2       CG1N1    0.360000       12.0110           0
     17027 WT7      696      MECN     N3       NG1T1   -0.460000       14.0070           0
     17028 WT7      700      MECN     C1       CG331   -0.170000       12.0110           0
     17029 WT7      700      MECN     H11      HGA3     0.090000        1.0080           0
     17030 WT7      700      MECN     H12      HGA3     0.090000        1.0080           0
     17031 WT7      700      MECN     H13      HGA3     0.090000        1.0080           0
     17032 WT7      700      MECN     C2       CG1N1    0.360000       12.0110           0
     17033 WT7      700      MECN     N3       NG1T1   -0.460000       14.0070           0
     17034 WT7      710      MECN     C1       CG331   -0.170000       12.0110           0
     17035 WT7      710      MECN     H11      HGA3     0.090000        1.0080           0
     17036 WT7      710      MECN     H12      HGA3     0.090000        1.0080           0
     17037 WT7      710      MECN     H13      HGA3     0.090000        1.0080           0
     17038 WT7      710      MECN     C2       CG1N1    0.360000       12.0110           0
     17039 WT7      710      MECN     N3       NG1T1   -0.460000       14.0070           0
     17040 WT7      711      MECN     C1       CG331   -0.170000       12.0110           0
     17041 WT7      711      MECN     H11      HGA3     0.090000        1.0080           0
     17042 WT7      711      MECN     H12      HGA3     0.090000        1.0080           0
     17043 WT7      711      MECN     H13      HGA3     0.090000        1.0080           0
     17044 WT7      711      MECN     C2       CG1N1    0.360000       12.0110           0
     17045 WT7      711      MECN     N3       NG1T1   -0.460000       14.0070           0
     17046 WT7      714      MECN     C1       CG331   -0.170000       12.0110           0
     17047 WT7      714      MECN     H11      HGA3     0.090000        1.0080           0
     17048 WT7      714      MECN     H12      HGA3     0.090000        1.0080           0
     17049 WT7      714      MECN     H13      HGA3     0.090000        1.0080           0
     17050 WT7      714      MECN     C2       CG1N1    0.360000       12.0110           0
     17051 WT7      714      MECN     N3       NG1T1   -0.460000       14.0070           0
     17052 WT7      724      MECN     C1       CG331   -0.170000       12.0110           0
     17053 WT7      724      MECN     H11      HGA3     0.090000        1.0080           0
     17054 WT7      724      MECN     H12      HGA3     0.090000        1.0080           0
     17055 WT7      724      MECN     H13      HGA3     0.090000        1.0080           0
     17056 WT7      724      MECN     C2       CG1N1    0.360000       12.0110           0
     17057 WT7      724      MECN     N3       NG1T1   -0.460000       14.0070           0
     17058 WT7      725      MECN     C1       CG331   -0.170000       12.0110           0
     17059 WT7      725      MECN     H11      HGA3     0.090000        1.0080           0
     17060 WT7      725      MECN     H12      HGA3     0.090000        1.0080           0
     17061 WT7      725      MECN     H13      HGA3     0.090000        1.0080           0
     17062 WT7      725      MECN     C2       CG1N1    0.360000       12.0110           0
     17063 WT7      725      MECN     N3       NG1T1   -0.460000       14.0070           0
     17064 WT7      727      MECN     C1       CG331   -0.170000       12.0110           0
     17065 WT7      727      MECN     H11      HGA3     0.090000        1.0080           0
     17066 WT7      727      MECN     H12      HGA3     0.090000        1.0080           0
     17067 WT7      727      MECN     H13      HGA3     0.090000        1.0080           0
     17068 WT7      727      MECN     C2       CG1N1    0.360000       12.0110           0
     17069 WT7      727      MECN     N3       NG1T1   -0.460000       14.0070           0
     17070 WT7      751      MECN     C1       CG331   -0.170000       12.0110           0
     17071 WT7      751      MECN     H11      HGA3     0.090000        1.0080           0
     17072 WT7      751      MECN     H12      HGA3     0.090000        1.0080           0
     17073 WT7      751      MECN     H13      HGA3     0.090000        1.0080           0
     17074 WT7      751      MECN     C2       CG1N1    0.360000       12.0110           0
     17075 WT7      751      MECN     N3       NG1T1   -0.460000       14.0070           0
     17076 WT7      771      MECN     C1       CG331   -0.170000       12.0110           0
     17077 WT7      771      MECN     H11      HGA3     0.090000        1.0080           0
     17078 WT7      771      MECN     H12      HGA3     0.090000        1.0080           0
     17079 WT7      771      MECN     H13      HGA3     0.090000        1.0080           0
     17080 WT7      771      MECN     C2       CG1N1    0.360000       12.0110           0
     17081 WT7      771      MECN     N3       NG1T1   -0.460000       14.0070           0
     17082 WT7      774      MECN     C1       CG331   -0.170000       12.0110           0
     17083 WT7      774      MECN     H11      HGA3     0.090000        1.0080           0
     17084 WT7      774      MECN     H12      HGA3     0.090000        1.0080           0
     17085 WT7      774      MECN     H13      HGA3     0.090000        1.0080           0
     17086 WT7      774      MECN     C2       CG1N1    0.360000       12.0110           0
     17087 WT7      774      MECN     N3       NG1T1   -0.460000       14.0070           0
     17088 WT7      788      MECN     C1       CG331   -0.170000       12.0110           0
     17089 WT7      788      MECN     H11      HGA3     0.090000        1.0080           0
     17090 WT7      788      MECN     H12      HGA3     0.090000        1.0080           0
     17091 WT7      788      MECN     H13      HGA3     0.090000        1.0080           0
     17092 WT7      788      MECN     C2       CG1N1    0.360000       12.0110           0
     17093 WT7      788      MECN     N3       NG1T1   -0.460000       14.0070           0
     17094 WT7      793      MECN     C1       CG331   -0.170000       12.0110           0
     17095 WT7      793      MECN     H11      HGA3     0.090000        1.0080           0
     17096 WT7      793      MECN     H12      HGA3     0.090000        1.0080           0
     17097 WT7      793      MECN     H13      HGA3     0.090000        1.0080           0
     17098 WT7      793      MECN     C2       CG1N1    0.360000       12.0110           0
     17099 WT7      793      MECN     N3       NG1T1   -0.460000       14.0070           0
     17100 WT7      794      MECN     C1       CG331   -0.170000       12.0110           0
     17101 WT7      794      MECN     H11      HGA3     0.090000        1.0080           0
     17102 WT7      794      MECN     H12      HGA3     0.090000        1.0080           0
     17103 WT7      794      MECN     H13      HGA3     0.090000        1.0080           0
     17104 WT7      794      MECN     C2       CG1N1    0.360000       12.0110           0
     17105 WT7      794      MECN     N3       NG1T1   -0.460000       14.0070           0
     17106 WT7      807      MECN     C1       CG331   -0.170000       12.0110           0
     17107 WT7      807      MECN     H11      HGA3     0.090000        1.0080           0
     17108 WT7      807      MECN     H12      HGA3     0.090000        1.0080           0
     17109 WT7      807      MECN     H13      HGA3     0.090000        1.0080           0
     17110 WT7      807      MECN     C2       CG1N1    0.360000       12.0110           0
     17111 WT7      807      MECN     N3       NG1T1   -0.460000       14.0070           0
     17112 WT7      808      MECN     C1       CG331   -0.170000       12.0110           0
     17113 WT7      808      MECN     H11      HGA3     0.090000        1.0080           0
     17114 WT7      808      MECN     H12      HGA3     0.090000        1.0080           0
     17115 WT7      808      MECN     H13      HGA3     0.090000        1.0080           0
     17116 WT7      808      MECN     C2       CG1N1    0.360000       12.0110           0
     17117 WT7      808      MECN     N3       NG1T1   -0.460000       14.0070           0
     17118 WT7      832      MECN     C1       CG331   -0.170000       12.0110           0
     17119 WT7      832      MECN     H11      HGA3     0.090000        1.0080           0
     17120 WT7      832      MECN     H12      HGA3     0.090000        1.0080           0
     17121 WT7      832      MECN     H13      HGA3     0.090000        1.0080           0
     17122 WT7      832      MECN     C2       CG1N1    0.360000       12.0110           0
     17123 WT7      832      MECN     N3       NG1T1   -0.460000       14.0070           0
     17124 WT7      839      MECN     C1       CG331   -0.170000       12.0110           0
     17125 WT7      839      MECN     H11      HGA3     0.090000        1.0080           0
     17126 WT7      839      MECN     H12      HGA3     0.090000        1.0080           0
     17127 WT7      839      MECN     H13      HGA3     0.090000        1.0080           0
     17128 WT7      839      MECN     C2       CG1N1    0.360000       12.0110           0
     17129 WT7      839      MECN     N3       NG1T1   -0.460000       14.0070           0
     17130 WT7      841      MECN     C1       CG331   -0.170000       12.0110           0
     17131 WT7      841      MECN     H11      HGA3     0.090000        1.0080           0
     17132 WT7      841      MECN     H12      HGA3     0.090000        1.0080           0
     17133 WT7      841      MECN     H13      HGA3     0.090000        1.0080           0
     17134 WT7      841      MECN     C2       CG1N1    0.360000       12.0110           0
     17135 WT7      841      MECN     N3       NG1T1   -0.460000       14.0070           0
     17136 WT7      846      MECN     C1       CG331   -0.170000       12.0110           0
     17137 WT7      846      MECN     H11      HGA3     0.090000        1.0080           0
     17138 WT7      846      MECN     H12      HGA3     0.090000        1.0080           0
     17139 WT7      846      MECN     H13      HGA3     0.090000        1.0080           0
     17140 WT7      846      MECN     C2       CG1N1    0.360000       12.0110           0
     17141 WT7      846      MECN     N3       NG1T1   -0.460000       14.0070           0
     17142 WT7      848      MECN     C1       CG331   -0.170000       12.0110           0
     17143 WT7      848      MECN     H11      HGA3     0.090000        1.0080           0
     17144 WT7      848      MECN     H12      HGA3     0.090000        1.0080           0
     17145 WT7      848      MECN     H13      HGA3     0.090000        1.0080           0
     17146 WT7      848      MECN     C2       CG1N1    0.360000       12.0110           0
     17147 WT7      848      MECN     N3       NG1T1   -0.460000       14.0070           0
     17148 WT7      856      MECN     C1       CG331   -0.170000       12.0110           0
     17149 WT7      856      MECN     H11      HGA3     0.090000        1.0080           0
     17150 WT7      856      MECN     H12      HGA3     0.090000        1.0080           0
     17151 WT7      856      MECN     H13      HGA3     0.090000        1.0080           0
     17152 WT7      856      MECN     C2       CG1N1    0.360000       12.0110           0
     17153 WT7      856      MECN     N3       NG1T1   -0.460000       14.0070           0
     17154 WT7      862      MECN     C1       CG331   -0.170000       12.0110           0
     17155 WT7      862      MECN     H11      HGA3     0.090000        1.0080           0
     17156 WT7      862      MECN     H12      HGA3     0.090000        1.0080           0
     17157 WT7      862      MECN     H13      HGA3     0.090000        1.0080           0
     17158 WT7      862      MECN     C2       CG1N1    0.360000       12.0110           0
     17159 WT7      862      MECN     N3       NG1T1   -0.460000       14.0070           0
     17160 WT7      863      MECN     C1       CG331   -0.170000       12.0110           0
     17161 WT7      863      MECN     H11      HGA3     0.090000        1.0080           0
     17162 WT7      863      MECN     H12      HGA3     0.090000        1.0080           0
     17163 WT7      863      MECN     H13      HGA3     0.090000        1.0080           0
     17164 WT7      863      MECN     C2       CG1N1    0.360000       12.0110           0
     17165 WT7      863      MECN     N3       NG1T1   -0.460000       14.0070           0
     17166 WT7      875      MECN     C1       CG331   -0.170000       12.0110           0
     17167 WT7      875      MECN     H11      HGA3     0.090000        1.0080           0
     17168 WT7      875      MECN     H12      HGA3     0.090000        1.0080           0
     17169 WT7      875      MECN     H13      HGA3     0.090000        1.0080           0
     17170 WT7      875      MECN     C2       CG1N1    0.360000       12.0110           0
     17171 WT7      875      MECN     N3       NG1T1   -0.460000       14.0070           0
     17172 WT7      892      MECN     C1       CG331   -0.170000       12.0110           0
     17173 WT7      892      MECN     H11      HGA3     0.090000        1.0080           0
     17174 WT7      892      MECN     H12      HGA3     0.090000        1.0080           0
     17175 WT7      892      MECN     H13      HGA3     0.090000        1.0080           0
     17176 WT7      892      MECN     C2       CG1N1    0.360000       12.0110           0
     17177 WT7      892      MECN     N3       NG1T1   -0.460000       14.0070           0
     17178 WT7      895      MECN     C1       CG331   -0.170000       12.0110           0
     17179 WT7      895      MECN     H11      HGA3     0.090000        1.0080           0
     17180 WT7      895      MECN     H12      HGA3     0.090000        1.0080           0
     17181 WT7      895      MECN     H13      HGA3     0.090000        1.0080           0
     17182 WT7      895      MECN     C2       CG1N1    0.360000       12.0110           0
     17183 WT7      895      MECN     N3       NG1T1   -0.460000       14.0070           0
     17184 WT7      898      MECN     C1       CG331   -0.170000       12.0110           0
     17185 WT7      898      MECN     H11      HGA3     0.090000        1.0080           0
     17186 WT7      898      MECN     H12      HGA3     0.090000        1.0080           0
     17187 WT7      898      MECN     H13      HGA3     0.090000        1.0080           0
     17188 WT7      898      MECN     C2       CG1N1    0.360000       12.0110           0
     17189 WT7      898      MECN     N3       NG1T1   -0.460000       14.0070           0
     17190 WT7      902      MECN     C1       CG331   -0.170000       12.0110           0
     17191 WT7      902      MECN     H11      HGA3     0.090000        1.0080           0
     17192 WT7      902      MECN     H12      HGA3     0.090000        1.0080           0
     17193 WT7      902      MECN     H13      HGA3     0.090000        1.0080           0
     17194 WT7      902      MECN     C2       CG1N1    0.360000       12.0110           0
     17195 WT7      902      MECN     N3       NG1T1   -0.460000       14.0070           0
     17196 WT7      908      MECN     C1       CG331   -0.170000       12.0110           0
     17197 WT7      908      MECN     H11      HGA3     0.090000        1.0080           0
     17198 WT7      908      MECN     H12      HGA3     0.090000        1.0080           0
     17199 WT7      908      MECN     H13      HGA3     0.090000        1.0080           0
     17200 WT7      908      MECN     C2       CG1N1    0.360000       12.0110           0
     17201 WT7      908      MECN     N3       NG1T1   -0.460000       14.0070           0
     17202 WT7      909      MECN     C1       CG331   -0.170000       12.0110           0
     17203 WT7      909      MECN     H11      HGA3     0.090000        1.0080           0
     17204 WT7      909      MECN     H12      HGA3     0.090000        1.0080           0
     17205 WT7      909      MECN     H13      HGA3     0.090000        1.0080           0
     17206 WT7      909      MECN     C2       CG1N1    0.360000       12.0110           0
     17207 WT7      909      MECN     N3       NG1T1   -0.460000       14.0070           0
     17208 WT7      913      MECN     C1       CG331   -0.170000       12.0110           0
     17209 WT7      913      MECN     H11      HGA3     0.090000        1.0080           0
     17210 WT7      913      MECN     H12      HGA3     0.090000        1.0080           0
     17211 WT7      913      MECN     H13      HGA3     0.090000        1.0080           0
     17212 WT7      913      MECN     C2       CG1N1    0.360000       12.0110           0
     17213 WT7      913      MECN     N3       NG1T1   -0.460000       14.0070           0
     17214 WT7      914      MECN     C1       CG331   -0.170000       12.0110           0
     17215 WT7      914      MECN     H11      HGA3     0.090000        1.0080           0
     17216 WT7      914      MECN     H12      HGA3     0.090000        1.0080           0
     17217 WT7      914      MECN     H13      HGA3     0.090000        1.0080           0
     17218 WT7      914      MECN     C2       CG1N1    0.360000       12.0110           0
     17219 WT7      914      MECN     N3       NG1T1   -0.460000       14.0070           0
     17220 WT7      916      MECN     C1       CG331   -0.170000       12.0110           0
     17221 WT7      916      MECN     H11      HGA3     0.090000        1.0080           0
     17222 WT7      916      MECN     H12      HGA3     0.090000        1.0080           0
     17223 WT7      916      MECN     H13      HGA3     0.090000        1.0080           0
     17224 WT7      916      MECN     C2       CG1N1    0.360000       12.0110           0
     17225 WT7      916      MECN     N3       NG1T1   -0.460000       14.0070           0
     17226 WT7      919      MECN     C1       CG331   -0.170000       12.0110           0
     17227 WT7      919      MECN     H11      HGA3     0.090000        1.0080           0
     17228 WT7      919      MECN     H12      HGA3     0.090000        1.0080           0
     17229 WT7      919      MECN     H13      HGA3     0.090000        1.0080           0
     17230 WT7      919      MECN     C2       CG1N1    0.360000       12.0110           0
     17231 WT7      919      MECN     N3       NG1T1   -0.460000       14.0070           0
     17232 WT7      922      MECN     C1       CG331   -0.170000       12.0110           0
     17233 WT7      922      MECN     H11      HGA3     0.090000        1.0080           0
     17234 WT7      922      MECN     H12      HGA3     0.090000        1.0080           0
     17235 WT7      922      MECN     H13      HGA3     0.090000        1.0080           0
     17236 WT7      922      MECN     C2       CG1N1    0.360000       12.0110           0
     17237 WT7      922      MECN     N3       NG1T1   -0.460000       14.0070           0
     17238 WT7      923      MECN     C1       CG331   -0.170000       12.0110           0
     17239 WT7      923      MECN     H11      HGA3     0.090000        1.0080           0
     17240 WT7      923      MECN     H12      HGA3     0.090000        1.0080           0
     17241 WT7      923      MECN     H13      HGA3     0.090000        1.0080           0
     17242 WT7      923      MECN     C2       CG1N1    0.360000       12.0110           0
     17243 WT7      923      MECN     N3       NG1T1   -0.460000       14.0070           0
     17244 WT7      935      MECN     C1       CG331   -0.170000       12.0110           0
     17245 WT7      935      MECN     H11      HGA3     0.090000        1.0080           0
     17246 WT7      935      MECN     H12      HGA3     0.090000        1.0080           0
     17247 WT7      935      MECN     H13      HGA3     0.090000        1.0080           0
     17248 WT7      935      MECN     C2       CG1N1    0.360000       12.0110           0
     17249 WT7      935      MECN     N3       NG1T1   -0.460000       14.0070           0
     17250 WT7      938      MECN     C1       CG331   -0.170000       12.0110           0
     17251 WT7      938      MECN     H11      HGA3     0.090000        1.0080           0
     17252 WT7      938      MECN     H12      HGA3     0.090000        1.0080           0
     17253 WT7      938      MECN     H13      HGA3     0.090000        1.0080           0
     17254 WT7      938      MECN     C2       CG1N1    0.360000       12.0110           0
     17255 WT7      938      MECN     N3       NG1T1   -0.460000       14.0070           0
     17256 WT7      941      MECN     C1       CG331   -0.170000       12.0110           0
     17257 WT7      941      MECN     H11      HGA3     0.090000        1.0080           0
     17258 WT7      941      MECN     H12      HGA3     0.090000        1.0080           0
     17259 WT7      941      MECN     H13      HGA3     0.090000        1.0080           0
     17260 WT7      941      MECN     C2       CG1N1    0.360000       12.0110           0
     17261 WT7      941      MECN     N3       NG1T1   -0.460000       14.0070           0
     17262 WT7      943      MECN     C1       CG331   -0.170000       12.0110           0
     17263 WT7      943      MECN     H11      HGA3     0.090000        1.0080           0
     17264 WT7      943      MECN     H12      HGA3     0.090000        1.0080           0
     17265 WT7      943      MECN     H13      HGA3     0.090000        1.0080           0
     17266 WT7      943      MECN     C2       CG1N1    0.360000       12.0110           0
     17267 WT7      943      MECN     N3       NG1T1   -0.460000       14.0070           0
     17268 WT7      945      MECN     C1       CG331   -0.170000       12.0110           0
     17269 WT7      945      MECN     H11      HGA3     0.090000        1.0080           0
     17270 WT7      945      MECN     H12      HGA3     0.090000        1.0080           0
     17271 WT7      945      MECN     H13      HGA3     0.090000        1.0080           0
     17272 WT7      945      MECN     C2       CG1N1    0.360000       12.0110           0
     17273 WT7      945      MECN     N3       NG1T1   -0.460000       14.0070           0
     17274 WT7      949      MECN     C1       CG331   -0.170000       12.0110           0
     17275 WT7      949      MECN     H11      HGA3     0.090000        1.0080           0
     17276 WT7      949      MECN     H12      HGA3     0.090000        1.0080           0
     17277 WT7      949      MECN     H13      HGA3     0.090000        1.0080           0
     17278 WT7      949      MECN     C2       CG1N1    0.360000       12.0110           0
     17279 WT7      949      MECN     N3       NG1T1   -0.460000       14.0070           0
     17280 WT7      957      MECN     C1       CG331   -0.170000       12.0110           0
     17281 WT7      957      MECN     H11      HGA3     0.090000        1.0080           0
     17282 WT7      957      MECN     H12      HGA3     0.090000        1.0080           0
     17283 WT7      957      MECN     H13      HGA3     0.090000        1.0080           0
     17284 WT7      957      MECN     C2       CG1N1    0.360000       12.0110           0
     17285 WT7      957      MECN     N3       NG1T1   -0.460000       14.0070           0
     17286 WT7      968      MECN     C1       CG331   -0.170000       12.0110           0
     17287 WT7      968      MECN     H11      HGA3     0.090000        1.0080           0
     17288 WT7      968      MECN     H12      HGA3     0.090000        1.0080           0
     17289 WT7      968      MECN     H13      HGA3     0.090000        1.0080           0
     17290 WT7      968      MECN     C2       CG1N1    0.360000       12.0110           0
     17291 WT7      968      MECN     N3       NG1T1   -0.460000       14.0070           0
     17292 WT7      982      MECN     C1       CG331   -0.170000       12.0110           0
     17293 WT7      982      MECN     H11      HGA3     0.090000        1.0080           0
     17294 WT7      982      MECN     H12      HGA3     0.090000        1.0080           0
     17295 WT7      982      MECN     H13      HGA3     0.090000        1.0080           0
     17296 WT7      982      MECN     C2       CG1N1    0.360000       12.0110           0
     17297 WT7      982      MECN     N3       NG1T1   -0.460000       14.0070           0
     17298 WT7      987      MECN     C1       CG331   -0.170000       12.0110           0
     17299 WT7      987      MECN     H11      HGA3     0.090000        1.0080           0
     17300 WT7      987      MECN     H12      HGA3     0.090000        1.0080           0
     17301 WT7      987      MECN     H13      HGA3     0.090000        1.0080           0
     17302 WT7      987      MECN     C2       CG1N1    0.360000       12.0110           0
     17303 WT7      987      MECN     N3       NG1T1   -0.460000       14.0070           0
     17304 WT7      988      MECN     C1       CG331   -0.170000       12.0110           0
     17305 WT7      988      MECN     H11      HGA3     0.090000        1.0080           0
     17306 WT7      988      MECN     H12      HGA3     0.090000        1.0080           0
     17307 WT7      988      MECN     H13      HGA3     0.090000        1.0080           0
     17308 WT7      988      MECN     C2       CG1N1    0.360000       12.0110           0
     17309 WT7      988      MECN     N3       NG1T1   -0.460000       14.0070           0
     17310 WT7      989      MECN     C1       CG331   -0.170000       12.0110           0
     17311 WT7      989      MECN     H11      HGA3     0.090000        1.0080           0
     17312 WT7      989      MECN     H12      HGA3     0.090000        1.0080           0
     17313 WT7      989      MECN     H13      HGA3     0.090000        1.0080           0
     17314 WT7      989      MECN     C2       CG1N1    0.360000       12.0110           0
     17315 WT7      989      MECN     N3       NG1T1   -0.460000       14.0070           0
     17316 WT7      990      MECN     C1       CG331   -0.170000       12.0110           0
     17317 WT7      990      MECN     H11      HGA3     0.090000        1.0080           0
     17318 WT7      990      MECN     H12      HGA3     0.090000        1.0080           0
     17319 WT7      990      MECN     H13      HGA3     0.090000        1.0080           0
     17320 WT7      990      MECN     C2       CG1N1    0.360000       12.0110           0
     17321 WT7      990      MECN     N3       NG1T1   -0.460000       14.0070           0
     17322 WT7      994      MECN     C1       CG331   -0.170000       12.0110           0
     17323 WT7      994      MECN     H11      HGA3     0.090000        1.0080           0
     17324 WT7      994      MECN     H12      HGA3     0.090000        1.0080           0
     17325 WT7      994      MECN     H13      HGA3     0.090000        1.0080           0
     17326 WT7      994      MECN     C2       CG1N1    0.360000       12.0110           0
     17327 WT7      994      MECN     N3       NG1T1   -0.460000       14.0070           0
     17328 WT7      999      MECN     C1       CG331   -0.170000       12.0110           0
     17329 WT7      999      MECN     H11      HGA3     0.090000        1.0080           0
     17330 WT7      999      MECN     H12      HGA3     0.090000        1.0080           0
     17331 WT7      999      MECN     H13      HGA3     0.090000        1.0080           0
     17332 WT7      999      MECN     C2       CG1N1    0.360000       12.0110           0
     17333 WT7      999      MECN     N3       NG1T1   -0.460000       14.0070           0
     17334 WT7      1004     MECN     C1       CG331   -0.170000       12.0110           0
     17335 WT7      1004     MECN     H11      HGA3     0.090000        1.0080           0
     17336 WT7      1004     MECN     H12      HGA3     0.090000        1.0080           0
     17337 WT7      1004     MECN     H13      HGA3     0.090000        1.0080           0
     17338 WT7      1004     MECN     C2       CG1N1    0.360000       12.0110           0
     17339 WT7      1004     MECN     N3       NG1T1   -0.460000       14.0070           0
     17340 WT7      1010     MECN     C1       CG331   -0.170000       12.0110           0
     17341 WT7      1010     MECN     H11      HGA3     0.090000        1.0080           0
     17342 WT7      1010     MECN     H12      HGA3     0.090000        1.0080           0
     17343 WT7      1010     MECN     H13      HGA3     0.090000        1.0080           0
     17344 WT7      1010     MECN     C2       CG1N1    0.360000       12.0110           0
     17345 WT7      1010     MECN     N3       NG1T1   -0.460000       14.0070           0
     17346 WT7      1015     MECN     C1       CG331   -0.170000       12.0110           0
     17347 WT7      1015     MECN     H11      HGA3     0.090000        1.0080           0
     17348 WT7      1015     MECN     H12      HGA3     0.090000        1.0080           0
     17349 WT7      1015     MECN     H13      HGA3     0.090000        1.0080           0
     17350 WT7      1015     MECN     C2       CG1N1    0.360000       12.0110           0
     17351 WT7      1015     MECN     N3       NG1T1   -0.460000       14.0070           0
     17352 WT7      1019     MECN     C1       CG331   -0.170000       12.0110           0
     17353 WT7      1019     MECN     H11      HGA3     0.090000        1.0080           0
     17354 WT7      1019     MECN     H12      HGA3     0.090000        1.0080           0
     17355 WT7      1019     MECN     H13      HGA3     0.090000        1.0080           0
     17356 WT7      1019     MECN     C2       CG1N1    0.360000       12.0110           0
     17357 WT7      1019     MECN     N3       NG1T1   -0.460000       14.0070           0
     17358 WT7      1020     MECN     C1       CG331   -0.170000       12.0110           0
     17359 WT7      1020     MECN     H11      HGA3     0.090000        1.0080           0
     17360 WT7      1020     MECN     H12      HGA3     0.090000        1.0080           0
     17361 WT7      1020     MECN     H13      HGA3     0.090000        1.0080           0
     17362 WT7      1020     MECN     C2       CG1N1    0.360000       12.0110           0
     17363 WT7      1020     MECN     N3       NG1T1   -0.460000       14.0070           0
     17364 WT7      1023     MECN     C1       CG331   -0.170000       12.0110           0
     17365 WT7      1023     MECN     H11      HGA3     0.090000        1.0080           0
     17366 WT7      1023     MECN     H12      HGA3     0.090000        1.0080           0
     17367 WT7      1023     MECN     H13      HGA3     0.090000        1.0080           0
     17368 WT7      1023     MECN     C2       CG1N1    0.360000       12.0110           0
     17369 WT7      1023     MECN     N3       NG1T1   -0.460000       14.0070           0
     17370 WT7      1030     MECN     C1       CG331   -0.170000       12.0110           0
     17371 WT7      1030     MECN     H11      HGA3     0.090000        1.0080           0
     17372 WT7      1030     MECN     H12      HGA3     0.090000        1.0080           0
     17373 WT7      1030     MECN     H13      HGA3     0.090000        1.0080           0
     17374 WT7      1030     MECN     C2       CG1N1    0.360000       12.0110           0
     17375 WT7      1030     MECN     N3       NG1T1   -0.460000       14.0070           0
     17376 WT7      1036     MECN     C1       CG331   -0.170000       12.0110           0
     17377 WT7      1036     MECN     H11      HGA3     0.090000        1.0080           0
     17378 WT7      1036     MECN     H12      HGA3     0.090000        1.0080           0
     17379 WT7      1036     MECN     H13      HGA3     0.090000        1.0080           0
     17380 WT7      1036     MECN     C2       CG1N1    0.360000       12.0110           0
     17381 WT7      1036     MECN     N3       NG1T1   -0.460000       14.0070           0
     17382 WT7      1048     MECN     C1       CG331   -0.170000       12.0110           0
     17383 WT7      1048     MECN     H11      HGA3     0.090000        1.0080           0
     17384 WT7      1048     MECN     H12      HGA3     0.090000        1.0080           0
     17385 WT7      1048     MECN     H13      HGA3     0.090000        1.0080           0
     17386 WT7      1048     MECN     C2       CG1N1    0.360000       12.0110           0
     17387 WT7      1048     MECN     N3       NG1T1   -0.460000       14.0070           0
     17388 WT7      1053     MECN     C1       CG331   -0.170000       12.0110           0
     17389 WT7      1053     MECN     H11      HGA3     0.090000        1.0080           0
     17390 WT7      1053     MECN     H12      HGA3     0.090000        1.0080           0
     17391 WT7      1053     MECN     H13      HGA3     0.090000        1.0080           0
     17392 WT7      1053     MECN     C2       CG1N1    0.360000       12.0110           0
     17393 WT7      1053     MECN     N3       NG1T1   -0.460000       14.0070           0
     17394 WT7      1062     MECN     C1       CG331   -0.170000       12.0110           0
     17395 WT7      1062     MECN     H11      HGA3     0.090000        1.0080           0
     17396 WT7      1062     MECN     H12      HGA3     0.090000        1.0080           0
     17397 WT7      1062     MECN     H13      HGA3     0.090000        1.0080           0
     17398 WT7      1062     MECN     C2       CG1N1    0.360000       12.0110           0
     17399 WT7      1062     MECN     N3       NG1T1   -0.460000       14.0070           0
     17400 WT7      1068     MECN     C1       CG331   -0.170000       12.0110           0
     17401 WT7      1068     MECN     H11      HGA3     0.090000        1.0080           0
     17402 WT7      1068     MECN     H12      HGA3     0.090000        1.0080           0
     17403 WT7      1068     MECN     H13      HGA3     0.090000        1.0080           0
     17404 WT7      1068     MECN     C2       CG1N1    0.360000       12.0110           0
     17405 WT7      1068     MECN     N3       NG1T1   -0.460000       14.0070           0
     17406 WT7      1080     MECN     C1       CG331   -0.170000       12.0110           0
     17407 WT7      1080     MECN     H11      HGA3     0.090000        1.0080           0
     17408 WT7      1080     MECN     H12      HGA3     0.090000        1.0080           0
     17409 WT7      1080     MECN     H13      HGA3     0.090000        1.0080           0
     17410 WT7      1080     MECN     C2       CG1N1    0.360000       12.0110           0
     17411 WT7      1080     MECN     N3       NG1T1   -0.460000       14.0070           0
     17412 WT7      1081     MECN     C1       CG331   -0.170000       12.0110           0
     17413 WT7      1081     MECN     H11      HGA3     0.090000        1.0080           0
     17414 WT7      1081     MECN     H12      HGA3     0.090000        1.0080           0
     17415 WT7      1081     MECN     H13      HGA3     0.090000        1.0080           0
     17416 WT7      1081     MECN     C2       CG1N1    0.360000       12.0110           0
     17417 WT7      1081     MECN     N3       NG1T1   -0.460000       14.0070           0
     17418 WT7      1085     MECN     C1       CG331   -0.170000       12.0110           0
     17419 WT7      1085     MECN     H11      HGA3     0.090000        1.0080           0
     17420 WT7      1085     MECN     H12      HGA3     0.090000        1.0080           0
     17421 WT7      1085     MECN     H13      HGA3     0.090000        1.0080           0
     17422 WT7      1085     MECN     C2       CG1N1    0.360000       12.0110           0
     17423 WT7      1085     MECN     N3       NG1T1   -0.460000       14.0070           0
     17424 WT7      1091     MECN     C1       CG331   -0.170000       12.0110           0
     17425 WT7      1091     MECN     H11      HGA3     0.090000        1.0080           0
     17426 WT7      1091     MECN     H12      HGA3     0.090000        1.0080           0
     17427 WT7      1091     MECN     H13      HGA3     0.090000        1.0080           0
     17428 WT7      1091     MECN     C2       CG1N1    0.360000       12.0110           0
     17429 WT7      1091     MECN     N3       NG1T1   -0.460000       14.0070           0
     17430 WT7      1094     MECN     C1       CG331   -0.170000       12.0110           0
     17431 WT7      1094     MECN     H11      HGA3     0.090000        1.0080           0
     17432 WT7      1094     MECN     H12      HGA3     0.090000        1.0080           0
     17433 WT7      1094     MECN     H13      HGA3     0.090000        1.0080           0
     17434 WT7      1094     MECN     C2       CG1N1    0.360000       12.0110           0
     17435 WT7      1094     MECN     N3       NG1T1   -0.460000       14.0070           0
     17436 WT7      1095     MECN     C1       CG331   -0.170000       12.0110           0
     17437 WT7      1095     MECN     H11      HGA3     0.090000        1.0080           0
     17438 WT7      1095     MECN     H12      HGA3     0.090000        1.0080           0
     17439 WT7      1095     MECN     H13      HGA3     0.090000        1.0080           0
     17440 WT7      1095     MECN     C2       CG1N1    0.360000       12.0110           0
     17441 WT7      1095     MECN     N3       NG1T1   -0.460000       14.0070           0
     17442 WT7      1107     MECN     C1       CG331   -0.170000       12.0110           0
     17443 WT7      1107     MECN     H11      HGA3     0.090000        1.0080           0
     17444 WT7      1107     MECN     H12      HGA3     0.090000        1.0080           0
     17445 WT7      1107     MECN     H13      HGA3     0.090000        1.0080           0
     17446 WT7      1107     MECN     C2       CG1N1    0.360000       12.0110           0
     17447 WT7      1107     MECN     N3       NG1T1   -0.460000       14.0070           0
     17448 WT7      1115     MECN     C1       CG331   -0.170000       12.0110           0
     17449 WT7      1115     MECN     H11      HGA3     0.090000        1.0080           0
     17450 WT7      1115     MECN     H12      HGA3     0.090000        1.0080           0
     17451 WT7      1115     MECN     H13      HGA3     0.090000        1.0080           0
     17452 WT7      1115     MECN     C2       CG1N1    0.360000       12.0110           0
     17453 WT7      1115     MECN     N3       NG1T1   -0.460000       14.0070           0
     17454 WT7      1117     MECN     C1       CG331   -0.170000       12.0110           0
     17455 WT7      1117     MECN     H11      HGA3     0.090000        1.0080           0
     17456 WT7      1117     MECN     H12      HGA3     0.090000        1.0080           0
     17457 WT7      1117     MECN     H13      HGA3     0.090000        1.0080           0
     17458 WT7      1117     MECN     C2       CG1N1    0.360000       12.0110           0
     17459 WT7      1117     MECN     N3       NG1T1   -0.460000       14.0070           0
     17460 WT7      1120     MECN     C1       CG331   -0.170000       12.0110           0
     17461 WT7      1120     MECN     H11      HGA3     0.090000        1.0080           0
     17462 WT7      1120     MECN     H12      HGA3     0.090000        1.0080           0
     17463 WT7      1120     MECN     H13      HGA3     0.090000        1.0080           0
     17464 WT7      1120     MECN     C2       CG1N1    0.360000       12.0110           0
     17465 WT7      1120     MECN     N3       NG1T1   -0.460000       14.0070           0
     17466 WT7      1125     MECN     C1       CG331   -0.170000       12.0110           0
     17467 WT7      1125     MECN     H11      HGA3     0.090000        1.0080           0
     17468 WT7      1125     MECN     H12      HGA3     0.090000        1.0080           0
     17469 WT7      1125     MECN     H13      HGA3     0.090000        1.0080           0
     17470 WT7      1125     MECN     C2       CG1N1    0.360000       12.0110           0
     17471 WT7      1125     MECN     N3       NG1T1   -0.460000       14.0070           0
     17472 WT7      1136     MECN     C1       CG331   -0.170000       12.0110           0
     17473 WT7      1136     MECN     H11      HGA3     0.090000        1.0080           0
     17474 WT7      1136     MECN     H12      HGA3     0.090000        1.0080           0
     17475 WT7      1136     MECN     H13      HGA3     0.090000        1.0080           0
     17476 WT7      1136     MECN     C2       CG1N1    0.360000       12.0110           0
     17477 WT7      1136     MECN     N3       NG1T1   -0.460000       14.0070           0
     17478 WT7      1137     MECN     C1       CG331   -0.170000       12.0110           0
     17479 WT7      1137     MECN     H11      HGA3     0.090000        1.0080           0
     17480 WT7      1137     MECN     H12      HGA3     0.090000        1.0080           0
     17481 WT7      1137     MECN     H13      HGA3     0.090000        1.0080           0
     17482 WT7      1137     MECN     C2       CG1N1    0.360000       12.0110           0
     17483 WT7      1137     MECN     N3       NG1T1   -0.460000       14.0070           0
     17484 WT7      1147     MECN     C1       CG331   -0.170000       12.0110           0
     17485 WT7      1147     MECN     H11      HGA3     0.090000        1.0080           0
     17486 WT7      1147     MECN     H12      HGA3     0.090000        1.0080           0
     17487 WT7      1147     MECN     H13      HGA3     0.090000        1.0080           0
     17488 WT7      1147     MECN     C2       CG1N1    0.360000       12.0110           0
     17489 WT7      1147     MECN     N3       NG1T1   -0.460000       14.0070           0
     17490 WT7      1156     MECN     C1       CG331   -0.170000       12.0110           0
     17491 WT7      1156     MECN     H11      HGA3     0.090000        1.0080           0
     17492 WT7      1156     MECN     H12      HGA3     0.090000        1.0080           0
     17493 WT7      1156     MECN     H13      HGA3     0.090000        1.0080           0
     17494 WT7      1156     MECN     C2       CG1N1    0.360000       12.0110           0
     17495 WT7      1156     MECN     N3       NG1T1   -0.460000       14.0070           0
     17496 WT7      1178     MECN     C1       CG331   -0.170000       12.0110           0
     17497 WT7      1178     MECN     H11      HGA3     0.090000        1.0080           0
     17498 WT7      1178     MECN     H12      HGA3     0.090000        1.0080           0
     17499 WT7      1178     MECN     H13      HGA3     0.090000        1.0080           0
     17500 WT7      1178     MECN     C2       CG1N1    0.360000       12.0110           0
     17501 WT7      1178     MECN     N3       NG1T1   -0.460000       14.0070           0
     17502 WT7      1184     MECN     C1       CG331   -0.170000       12.0110           0
     17503 WT7      1184     MECN     H11      HGA3     0.090000        1.0080           0
     17504 WT7      1184     MECN     H12      HGA3     0.090000        1.0080           0
     17505 WT7      1184     MECN     H13      HGA3     0.090000        1.0080           0
     17506 WT7      1184     MECN     C2       CG1N1    0.360000       12.0110           0
     17507 WT7      1184     MECN     N3       NG1T1   -0.460000       14.0070           0
     17508 WT7      1196     MECN     C1       CG331   -0.170000       12.0110           0
     17509 WT7      1196     MECN     H11      HGA3     0.090000        1.0080           0
     17510 WT7      1196     MECN     H12      HGA3     0.090000        1.0080           0
     17511 WT7      1196     MECN     H13      HGA3     0.090000        1.0080           0
     17512 WT7      1196     MECN     C2       CG1N1    0.360000       12.0110           0
     17513 WT7      1196     MECN     N3       NG1T1   -0.460000       14.0070           0
     17514 WT7      1207     MECN     C1       CG331   -0.170000       12.0110           0
     17515 WT7      1207     MECN     H11      HGA3     0.090000        1.0080           0
     17516 WT7      1207     MECN     H12      HGA3     0.090000        1.0080           0
     17517 WT7      1207     MECN     H13      HGA3     0.090000        1.0080           0
     17518 WT7      1207     MECN     C2       CG1N1    0.360000       12.0110           0
     17519 WT7      1207     MECN     N3       NG1T1   -0.460000       14.0070           0
     17520 WT7      1215     MECN     C1       CG331   -0.170000       12.0110           0
     17521 WT7      1215     MECN     H11      HGA3     0.090000        1.0080           0
     17522 WT7      1215     MECN     H12      HGA3     0.090000        1.0080           0
     17523 WT7      1215     MECN     H13      HGA3     0.090000        1.0080           0
     17524 WT7      1215     MECN     C2       CG1N1    0.360000       12.0110           0
     17525 WT7      1215     MECN     N3       NG1T1   -0.460000       14.0070           0
     17526 WT7      1218     MECN     C1       CG331   -0.170000       12.0110           0
     17527 WT7      1218     MECN     H11      HGA3     0.090000        1.0080           0
     17528 WT7      1218     MECN     H12      HGA3     0.090000        1.0080           0
     17529 WT7      1218     MECN     H13      HGA3     0.090000        1.0080           0
     17530 WT7      1218     MECN     C2       CG1N1    0.360000       12.0110           0
     17531 WT7      1218     MECN     N3       NG1T1   -0.460000       14.0070           0
     17532 WT7      1229     MECN     C1       CG331   -0.170000       12.0110           0
     17533 WT7      1229     MECN     H11      HGA3     0.090000        1.0080           0
     17534 WT7      1229     MECN     H12      HGA3     0.090000        1.0080           0
     17535 WT7      1229     MECN     H13      HGA3     0.090000        1.0080           0
     17536 WT7      1229     MECN     C2       CG1N1    0.360000       12.0110           0
     17537 WT7      1229     MECN     N3       NG1T1   -0.460000       14.0070           0
     17538 WT7      1234     MECN     C1       CG331   -0.170000       12.0110           0
     17539 WT7      1234     MECN     H11      HGA3     0.090000        1.0080           0
     17540 WT7      1234     MECN     H12      HGA3     0.090000        1.0080           0
     17541 WT7      1234     MECN     H13      HGA3     0.090000        1.0080           0
     17542 WT7      1234     MECN     C2       CG1N1    0.360000       12.0110           0
     17543 WT7      1234     MECN     N3       NG1T1   -0.460000       14.0070           0
     17544 WT7      1245     MECN     C1       CG331   -0.170000       12.0110           0
     17545 WT7      1245     MECN     H11      HGA3     0.090000        1.0080           0
     17546 WT7      1245     MECN     H12      HGA3     0.090000        1.0080           0
     17547 WT7      1245     MECN     H13      HGA3     0.090000        1.0080           0
     17548 WT7      1245     MECN     C2       CG1N1    0.360000       12.0110           0
     17549 WT7      1245     MECN     N3       NG1T1   -0.460000       14.0070           0
     17550 WT7      1248     MECN     C1       CG331   -0.170000       12.0110           0
     17551 WT7      1248     MECN     H11      HGA3     0.090000        1.0080           0
     17552 WT7      1248     MECN     H12      HGA3     0.090000        1.0080           0
     17553 WT7      1248     MECN     H13      HGA3     0.090000        1.0080           0
     17554 WT7      1248     MECN     C2       CG1N1    0.360000       12.0110           0
     17555 WT7      1248     MECN     N3       NG1T1   -0.460000       14.0070           0
     17556 WT7      1253     MECN     C1       CG331   -0.170000       12.0110           0
     17557 WT7      1253     MECN     H11      HGA3     0.090000        1.0080           0
     17558 WT7      1253     MECN     H12      HGA3     0.090000        1.0080           0
     17559 WT7      1253     MECN     H13      HGA3     0.090000        1.0080           0
     17560 WT7      1253     MECN     C2       CG1N1    0.360000       12.0110           0
     17561 WT7      1253     MECN     N3       NG1T1   -0.460000       14.0070           0
     17562 WT7      1263     MECN     C1       CG331   -0.170000       12.0110           0
     17563 WT7      1263     MECN     H11      HGA3     0.090000        1.0080           0
     17564 WT7      1263     MECN     H12      HGA3     0.090000        1.0080           0
     17565 WT7      1263     MECN     H13      HGA3     0.090000        1.0080           0
     17566 WT7      1263     MECN     C2       CG1N1    0.360000       12.0110           0
     17567 WT7      1263     MECN     N3       NG1T1   -0.460000       14.0070           0
     17568 WT7      1270     MECN     C1       CG331   -0.170000       12.0110           0
     17569 WT7      1270     MECN     H11      HGA3     0.090000        1.0080           0
     17570 WT7      1270     MECN     H12      HGA3     0.090000        1.0080           0
     17571 WT7      1270     MECN     H13      HGA3     0.090000        1.0080           0
     17572 WT7      1270     MECN     C2       CG1N1    0.360000       12.0110           0
     17573 WT7      1270     MECN     N3       NG1T1   -0.460000       14.0070           0
     17574 WT7      1273     MECN     C1       CG331   -0.170000       12.0110           0
     17575 WT7      1273     MECN     H11      HGA3     0.090000        1.0080           0
     17576 WT7      1273     MECN     H12      HGA3     0.090000        1.0080           0
     17577 WT7      1273     MECN     H13      HGA3     0.090000        1.0080           0
     17578 WT7      1273     MECN     C2       CG1N1    0.360000       12.0110           0
     17579 WT7      1273     MECN     N3       NG1T1   -0.460000       14.0070           0
     17580 WT7      1284     MECN     C1       CG331   -0.170000       12.0110           0
     17581 WT7      1284     MECN     H11      HGA3     0.090000        1.0080           0
     17582 WT7      1284     MECN     H12      HGA3     0.090000        1.0080           0
     17583 WT7      1284     MECN     H13      HGA3     0.090000        1.0080           0
     17584 WT7      1284     MECN     C2       CG1N1    0.360000       12.0110           0
     17585 WT7      1284     MECN     N3       NG1T1   -0.460000       14.0070           0
     17586 WT7      1287     MECN     C1       CG331   -0.170000       12.0110           0
     17587 WT7      1287     MECN     H11      HGA3     0.090000        1.0080           0
     17588 WT7      1287     MECN     H12      HGA3     0.090000        1.0080           0
     17589 WT7      1287     MECN     H13      HGA3     0.090000        1.0080           0
     17590 WT7      1287     MECN     C2       CG1N1    0.360000       12.0110           0
     17591 WT7      1287     MECN     N3       NG1T1   -0.460000       14.0070           0
     17592 WT7      1294     MECN     C1       CG331   -0.170000       12.0110           0
     17593 WT7      1294     MECN     H11      HGA3     0.090000        1.0080           0
     17594 WT7      1294     MECN     H12      HGA3     0.090000        1.0080           0
     17595 WT7      1294     MECN     H13      HGA3     0.090000        1.0080           0
     17596 WT7      1294     MECN     C2       CG1N1    0.360000       12.0110           0
     17597 WT7      1294     MECN     N3       NG1T1   -0.460000       14.0070           0
     17598 WT7      1303     MECN     C1       CG331   -0.170000       12.0110           0
     17599 WT7      1303     MECN     H11      HGA3     0.090000        1.0080           0
     17600 WT7      1303     MECN     H12      HGA3     0.090000        1.0080           0
     17601 WT7      1303     MECN     H13      HGA3     0.090000        1.0080           0
     17602 WT7      1303     MECN     C2       CG1N1    0.360000       12.0110           0
     17603 WT7      1303     MECN     N3       NG1T1   -0.460000       14.0070           0
     17604 WT7      1306     MECN     C1       CG331   -0.170000       12.0110           0
     17605 WT7      1306     MECN     H11      HGA3     0.090000        1.0080           0
     17606 WT7      1306     MECN     H12      HGA3     0.090000        1.0080           0
     17607 WT7      1306     MECN     H13      HGA3     0.090000        1.0080           0
     17608 WT7      1306     MECN     C2       CG1N1    0.360000       12.0110           0
     17609 WT7      1306     MECN     N3       NG1T1   -0.460000       14.0070           0
     17610 WT7      1310     MECN     C1       CG331   -0.170000       12.0110           0
     17611 WT7      1310     MECN     H11      HGA3     0.090000        1.0080           0
     17612 WT7      1310     MECN     H12      HGA3     0.090000        1.0080           0
     17613 WT7      1310     MECN     H13      HGA3     0.090000        1.0080           0
     17614 WT7      1310     MECN     C2       CG1N1    0.360000       12.0110           0
     17615 WT7      1310     MECN     N3       NG1T1   -0.460000       14.0070           0
     17616 WT7      1315     MECN     C1       CG331   -0.170000       12.0110           0
     17617 WT7      1315     MECN     H11      HGA3     0.090000        1.0080           0
     17618 WT7      1315     MECN     H12      HGA3     0.090000        1.0080           0
     17619 WT7      1315     MECN     H13      HGA3     0.090000        1.0080           0
     17620 WT7      1315     MECN     C2       CG1N1    0.360000       12.0110           0
     17621 WT7      1315     MECN     N3       NG1T1   -0.460000       14.0070           0
     17622 WT7      1317     MECN     C1       CG331   -0.170000       12.0110           0
     17623 WT7      1317     MECN     H11      HGA3     0.090000        1.0080           0
     17624 WT7      1317     MECN     H12      HGA3     0.090000        1.0080           0
     17625 WT7      1317     MECN     H13      HGA3     0.090000        1.0080           0
     17626 WT7      1317     MECN     C2       CG1N1    0.360000       12.0110           0
     17627 WT7      1317     MECN     N3       NG1T1   -0.460000       14.0070           0
     17628 WT7      1326     MECN     C1       CG331   -0.170000       12.0110           0
     17629 WT7      1326     MECN     H11      HGA3     0.090000        1.0080           0
     17630 WT7      1326     MECN     H12      HGA3     0.090000        1.0080           0
     17631 WT7      1326     MECN     H13      HGA3     0.090000        1.0080           0
     17632 WT7      1326     MECN     C2       CG1N1    0.360000       12.0110           0
     17633 WT7      1326     MECN     N3       NG1T1   -0.460000       14.0070           0
     17634 WT7      1329     MECN     C1       CG331   -0.170000       12.0110           0
     17635 WT7      1329     MECN     H11      HGA3     0.090000        1.0080           0
     17636 WT7      1329     MECN     H12      HGA3     0.090000        1.0080           0
     17637 WT7      1329     MECN     H13      HGA3     0.090000        1.0080           0
     17638 WT7      1329     MECN     C2       CG1N1    0.360000       12.0110           0
     17639 WT7      1329     MECN     N3       NG1T1   -0.460000       14.0070           0
     17640 WT8      1        MECN     C1       CG331   -0.170000       12.0110           0
     17641 WT8      1        MECN     H11      HGA3     0.090000        1.0080           0
     17642 WT8      1        MECN     H12      HGA3     0.090000        1.0080           0
     17643 WT8      1        MECN     H13      HGA3     0.090000        1.0080           0
     17644 WT8      1        MECN     C2       CG1N1    0.360000       12.0110           0
     17645 WT8      1        MECN     N3       NG1T1   -0.460000       14.0070           0
     17646 WT8      2        MECN     C1       CG331   -0.170000       12.0110           0
     17647 WT8      2        MECN     H11      HGA3     0.090000        1.0080           0
     17648 WT8      2        MECN     H12      HGA3     0.090000        1.0080           0
     17649 WT8      2        MECN     H13      HGA3     0.090000        1.0080           0
     17650 WT8      2        MECN     C2       CG1N1    0.360000       12.0110           0
     17651 WT8      2        MECN     N3       NG1T1   -0.460000       14.0070           0
     17652 WT8      4        MECN     C1       CG331   -0.170000       12.0110           0
     17653 WT8      4        MECN     H11      HGA3     0.090000        1.0080           0
     17654 WT8      4        MECN     H12      HGA3     0.090000        1.0080           0
     17655 WT8      4        MECN     H13      HGA3     0.090000        1.0080           0
     17656 WT8      4        MECN     C2       CG1N1    0.360000       12.0110           0
     17657 WT8      4        MECN     N3       NG1T1   -0.460000       14.0070           0
     17658 WT8      5        MECN     C1       CG331   -0.170000       12.0110           0
     17659 WT8      5        MECN     H11      HGA3     0.090000        1.0080           0
     17660 WT8      5        MECN     H12      HGA3     0.090000        1.0080           0
     17661 WT8      5        MECN     H13      HGA3     0.090000        1.0080           0
     17662 WT8      5        MECN     C2       CG1N1    0.360000       12.0110           0
     17663 WT8      5        MECN     N3       NG1T1   -0.460000       14.0070           0
     17664 WT8      9        MECN     C1       CG331   -0.170000       12.0110           0
     17665 WT8      9        MECN     H11      HGA3     0.090000        1.0080           0
     17666 WT8      9        MECN     H12      HGA3     0.090000        1.0080           0
     17667 WT8      9        MECN     H13      HGA3     0.090000        1.0080           0
     17668 WT8      9        MECN     C2       CG1N1    0.360000       12.0110           0
     17669 WT8      9        MECN     N3       NG1T1   -0.460000       14.0070           0
     17670 WT8      13       MECN     C1       CG331   -0.170000       12.0110           0
     17671 WT8      13       MECN     H11      HGA3     0.090000        1.0080           0
     17672 WT8      13       MECN     H12      HGA3     0.090000        1.0080           0
     17673 WT8      13       MECN     H13      HGA3     0.090000        1.0080           0
     17674 WT8      13       MECN     C2       CG1N1    0.360000       12.0110           0
     17675 WT8      13       MECN     N3       NG1T1   -0.460000       14.0070           0
     17676 WT8      14       MECN     C1       CG331   -0.170000       12.0110           0
     17677 WT8      14       MECN     H11      HGA3     0.090000        1.0080           0
     17678 WT8      14       MECN     H12      HGA3     0.090000        1.0080           0
     17679 WT8      14       MECN     H13      HGA3     0.090000        1.0080           0
     17680 WT8      14       MECN     C2       CG1N1    0.360000       12.0110           0
     17681 WT8      14       MECN     N3       NG1T1   -0.460000       14.0070           0
     17682 WT8      19       MECN     C1       CG331   -0.170000       12.0110           0
     17683 WT8      19       MECN     H11      HGA3     0.090000        1.0080           0
     17684 WT8      19       MECN     H12      HGA3     0.090000        1.0080           0
     17685 WT8      19       MECN     H13      HGA3     0.090000        1.0080           0
     17686 WT8      19       MECN     C2       CG1N1    0.360000       12.0110           0
     17687 WT8      19       MECN     N3       NG1T1   -0.460000       14.0070           0
     17688 WT8      24       MECN     C1       CG331   -0.170000       12.0110           0
     17689 WT8      24       MECN     H11      HGA3     0.090000        1.0080           0
     17690 WT8      24       MECN     H12      HGA3     0.090000        1.0080           0
     17691 WT8      24       MECN     H13      HGA3     0.090000        1.0080           0
     17692 WT8      24       MECN     C2       CG1N1    0.360000       12.0110           0
     17693 WT8      24       MECN     N3       NG1T1   -0.460000       14.0070           0
     17694 WT8      26       MECN     C1       CG331   -0.170000       12.0110           0
     17695 WT8      26       MECN     H11      HGA3     0.090000        1.0080           0
     17696 WT8      26       MECN     H12      HGA3     0.090000        1.0080           0
     17697 WT8      26       MECN     H13      HGA3     0.090000        1.0080           0
     17698 WT8      26       MECN     C2       CG1N1    0.360000       12.0110           0
     17699 WT8      26       MECN     N3       NG1T1   -0.460000       14.0070           0
     17700 WT8      27       MECN     C1       CG331   -0.170000       12.0110           0
     17701 WT8      27       MECN     H11      HGA3     0.090000        1.0080           0
     17702 WT8      27       MECN     H12      HGA3     0.090000        1.0080           0
     17703 WT8      27       MECN     H13      HGA3     0.090000        1.0080           0
     17704 WT8      27       MECN     C2       CG1N1    0.360000       12.0110           0
     17705 WT8      27       MECN     N3       NG1T1   -0.460000       14.0070           0
     17706 WT8      28       MECN     C1       CG331   -0.170000       12.0110           0
     17707 WT8      28       MECN     H11      HGA3     0.090000        1.0080           0
     17708 WT8      28       MECN     H12      HGA3     0.090000        1.0080           0
     17709 WT8      28       MECN     H13      HGA3     0.090000        1.0080           0
     17710 WT8      28       MECN     C2       CG1N1    0.360000       12.0110           0
     17711 WT8      28       MECN     N3       NG1T1   -0.460000       14.0070           0
     17712 WT8      31       MECN     C1       CG331   -0.170000       12.0110           0
     17713 WT8      31       MECN     H11      HGA3     0.090000        1.0080           0
     17714 WT8      31       MECN     H12      HGA3     0.090000        1.0080           0
     17715 WT8      31       MECN     H13      HGA3     0.090000        1.0080           0
     17716 WT8      31       MECN     C2       CG1N1    0.360000       12.0110           0
     17717 WT8      31       MECN     N3       NG1T1   -0.460000       14.0070           0
     17718 WT8      33       MECN     C1       CG331   -0.170000       12.0110           0
     17719 WT8      33       MECN     H11      HGA3     0.090000        1.0080           0
     17720 WT8      33       MECN     H12      HGA3     0.090000        1.0080           0
     17721 WT8      33       MECN     H13      HGA3     0.090000        1.0080           0
     17722 WT8      33       MECN     C2       CG1N1    0.360000       12.0110           0
     17723 WT8      33       MECN     N3       NG1T1   -0.460000       14.0070           0
     17724 WT8      34       MECN     C1       CG331   -0.170000       12.0110           0
     17725 WT8      34       MECN     H11      HGA3     0.090000        1.0080           0
     17726 WT8      34       MECN     H12      HGA3     0.090000        1.0080           0
     17727 WT8      34       MECN     H13      HGA3     0.090000        1.0080           0
     17728 WT8      34       MECN     C2       CG1N1    0.360000       12.0110           0
     17729 WT8      34       MECN     N3       NG1T1   -0.460000       14.0070           0
     17730 WT8      36       MECN     C1       CG331   -0.170000       12.0110           0
     17731 WT8      36       MECN     H11      HGA3     0.090000        1.0080           0
     17732 WT8      36       MECN     H12      HGA3     0.090000        1.0080           0
     17733 WT8      36       MECN     H13      HGA3     0.090000        1.0080           0
     17734 WT8      36       MECN     C2       CG1N1    0.360000       12.0110           0
     17735 WT8      36       MECN     N3       NG1T1   -0.460000       14.0070           0
     17736 WT8      37       MECN     C1       CG331   -0.170000       12.0110           0
     17737 WT8      37       MECN     H11      HGA3     0.090000        1.0080           0
     17738 WT8      37       MECN     H12      HGA3     0.090000        1.0080           0
     17739 WT8      37       MECN     H13      HGA3     0.090000        1.0080           0
     17740 WT8      37       MECN     C2       CG1N1    0.360000       12.0110           0
     17741 WT8      37       MECN     N3       NG1T1   -0.460000       14.0070           0
     17742 WT8      42       MECN     C1       CG331   -0.170000       12.0110           0
     17743 WT8      42       MECN     H11      HGA3     0.090000        1.0080           0
     17744 WT8      42       MECN     H12      HGA3     0.090000        1.0080           0
     17745 WT8      42       MECN     H13      HGA3     0.090000        1.0080           0
     17746 WT8      42       MECN     C2       CG1N1    0.360000       12.0110           0
     17747 WT8      42       MECN     N3       NG1T1   -0.460000       14.0070           0
     17748 WT8      46       MECN     C1       CG331   -0.170000       12.0110           0
     17749 WT8      46       MECN     H11      HGA3     0.090000        1.0080           0
     17750 WT8      46       MECN     H12      HGA3     0.090000        1.0080           0
     17751 WT8      46       MECN     H13      HGA3     0.090000        1.0080           0
     17752 WT8      46       MECN     C2       CG1N1    0.360000       12.0110           0
     17753 WT8      46       MECN     N3       NG1T1   -0.460000       14.0070           0
     17754 WT8      51       MECN     C1       CG331   -0.170000       12.0110           0
     17755 WT8      51       MECN     H11      HGA3     0.090000        1.0080           0
     17756 WT8      51       MECN     H12      HGA3     0.090000        1.0080           0
     17757 WT8      51       MECN     H13      HGA3     0.090000        1.0080           0
     17758 WT8      51       MECN     C2       CG1N1    0.360000       12.0110           0
     17759 WT8      51       MECN     N3       NG1T1   -0.460000       14.0070           0
     17760 WT8      53       MECN     C1       CG331   -0.170000       12.0110           0
     17761 WT8      53       MECN     H11      HGA3     0.090000        1.0080           0
     17762 WT8      53       MECN     H12      HGA3     0.090000        1.0080           0
     17763 WT8      53       MECN     H13      HGA3     0.090000        1.0080           0
     17764 WT8      53       MECN     C2       CG1N1    0.360000       12.0110           0
     17765 WT8      53       MECN     N3       NG1T1   -0.460000       14.0070           0
     17766 WT8      65       MECN     C1       CG331   -0.170000       12.0110           0
     17767 WT8      65       MECN     H11      HGA3     0.090000        1.0080           0
     17768 WT8      65       MECN     H12      HGA3     0.090000        1.0080           0
     17769 WT8      65       MECN     H13      HGA3     0.090000        1.0080           0
     17770 WT8      65       MECN     C2       CG1N1    0.360000       12.0110           0
     17771 WT8      65       MECN     N3       NG1T1   -0.460000       14.0070           0
     17772 WT8      68       MECN     C1       CG331   -0.170000       12.0110           0
     17773 WT8      68       MECN     H11      HGA3     0.090000        1.0080           0
     17774 WT8      68       MECN     H12      HGA3     0.090000        1.0080           0
     17775 WT8      68       MECN     H13      HGA3     0.090000        1.0080           0
     17776 WT8      68       MECN     C2       CG1N1    0.360000       12.0110           0
     17777 WT8      68       MECN     N3       NG1T1   -0.460000       14.0070           0
     17778 WT8      69       MECN     C1       CG331   -0.170000       12.0110           0
     17779 WT8      69       MECN     H11      HGA3     0.090000        1.0080           0
     17780 WT8      69       MECN     H12      HGA3     0.090000        1.0080           0
     17781 WT8      69       MECN     H13      HGA3     0.090000        1.0080           0
     17782 WT8      69       MECN     C2       CG1N1    0.360000       12.0110           0
     17783 WT8      69       MECN     N3       NG1T1   -0.460000       14.0070           0
     17784 WT8      70       MECN     C1       CG331   -0.170000       12.0110           0
     17785 WT8      70       MECN     H11      HGA3     0.090000        1.0080           0
     17786 WT8      70       MECN     H12      HGA3     0.090000        1.0080           0
     17787 WT8      70       MECN     H13      HGA3     0.090000        1.0080           0
     17788 WT8      70       MECN     C2       CG1N1    0.360000       12.0110           0
     17789 WT8      70       MECN     N3       NG1T1   -0.460000       14.0070           0
     17790 WT8      71       MECN     C1       CG331   -0.170000       12.0110           0
     17791 WT8      71       MECN     H11      HGA3     0.090000        1.0080           0
     17792 WT8      71       MECN     H12      HGA3     0.090000        1.0080           0
     17793 WT8      71       MECN     H13      HGA3     0.090000        1.0080           0
     17794 WT8      71       MECN     C2       CG1N1    0.360000       12.0110           0
     17795 WT8      71       MECN     N3       NG1T1   -0.460000       14.0070           0
     17796 WT8      73       MECN     C1       CG331   -0.170000       12.0110           0
     17797 WT8      73       MECN     H11      HGA3     0.090000        1.0080           0
     17798 WT8      73       MECN     H12      HGA3     0.090000        1.0080           0
     17799 WT8      73       MECN     H13      HGA3     0.090000        1.0080           0
     17800 WT8      73       MECN     C2       CG1N1    0.360000       12.0110           0
     17801 WT8      73       MECN     N3       NG1T1   -0.460000       14.0070           0
     17802 WT8      77       MECN     C1       CG331   -0.170000       12.0110           0
     17803 WT8      77       MECN     H11      HGA3     0.090000        1.0080           0
     17804 WT8      77       MECN     H12      HGA3     0.090000        1.0080           0
     17805 WT8      77       MECN     H13      HGA3     0.090000        1.0080           0
     17806 WT8      77       MECN     C2       CG1N1    0.360000       12.0110           0
     17807 WT8      77       MECN     N3       NG1T1   -0.460000       14.0070           0
     17808 WT8      81       MECN     C1       CG331   -0.170000       12.0110           0
     17809 WT8      81       MECN     H11      HGA3     0.090000        1.0080           0
     17810 WT8      81       MECN     H12      HGA3     0.090000        1.0080           0
     17811 WT8      81       MECN     H13      HGA3     0.090000        1.0080           0
     17812 WT8      81       MECN     C2       CG1N1    0.360000       12.0110           0
     17813 WT8      81       MECN     N3       NG1T1   -0.460000       14.0070           0
     17814 WT8      84       MECN     C1       CG331   -0.170000       12.0110           0
     17815 WT8      84       MECN     H11      HGA3     0.090000        1.0080           0
     17816 WT8      84       MECN     H12      HGA3     0.090000        1.0080           0
     17817 WT8      84       MECN     H13      HGA3     0.090000        1.0080           0
     17818 WT8      84       MECN     C2       CG1N1    0.360000       12.0110           0
     17819 WT8      84       MECN     N3       NG1T1   -0.460000       14.0070           0
     17820 WT8      86       MECN     C1       CG331   -0.170000       12.0110           0
     17821 WT8      86       MECN     H11      HGA3     0.090000        1.0080           0
     17822 WT8      86       MECN     H12      HGA3     0.090000        1.0080           0
     17823 WT8      86       MECN     H13      HGA3     0.090000        1.0080           0
     17824 WT8      86       MECN     C2       CG1N1    0.360000       12.0110           0
     17825 WT8      86       MECN     N3       NG1T1   -0.460000       14.0070           0
     17826 WT8      87       MECN     C1       CG331   -0.170000       12.0110           0
     17827 WT8      87       MECN     H11      HGA3     0.090000        1.0080           0
     17828 WT8      87       MECN     H12      HGA3     0.090000        1.0080           0
     17829 WT8      87       MECN     H13      HGA3     0.090000        1.0080           0
     17830 WT8      87       MECN     C2       CG1N1    0.360000       12.0110           0
     17831 WT8      87       MECN     N3       NG1T1   -0.460000       14.0070           0
     17832 WT8      91       MECN     C1       CG331   -0.170000       12.0110           0
     17833 WT8      91       MECN     H11      HGA3     0.090000        1.0080           0
     17834 WT8      91       MECN     H12      HGA3     0.090000        1.0080           0
     17835 WT8      91       MECN     H13      HGA3     0.090000        1.0080           0
     17836 WT8      91       MECN     C2       CG1N1    0.360000       12.0110           0
     17837 WT8      91       MECN     N3       NG1T1   -0.460000       14.0070           0
     17838 WT8      94       MECN     C1       CG331   -0.170000       12.0110           0
     17839 WT8      94       MECN     H11      HGA3     0.090000        1.0080           0
     17840 WT8      94       MECN     H12      HGA3     0.090000        1.0080           0
     17841 WT8      94       MECN     H13      HGA3     0.090000        1.0080           0
     17842 WT8      94       MECN     C2       CG1N1    0.360000       12.0110           0
     17843 WT8      94       MECN     N3       NG1T1   -0.460000       14.0070           0
     17844 WT8      98       MECN     C1       CG331   -0.170000       12.0110           0
     17845 WT8      98       MECN     H11      HGA3     0.090000        1.0080           0
     17846 WT8      98       MECN     H12      HGA3     0.090000        1.0080           0
     17847 WT8      98       MECN     H13      HGA3     0.090000        1.0080           0
     17848 WT8      98       MECN     C2       CG1N1    0.360000       12.0110           0
     17849 WT8      98       MECN     N3       NG1T1   -0.460000       14.0070           0
     17850 WT8      99       MECN     C1       CG331   -0.170000       12.0110           0
     17851 WT8      99       MECN     H11      HGA3     0.090000        1.0080           0
     17852 WT8      99       MECN     H12      HGA3     0.090000        1.0080           0
     17853 WT8      99       MECN     H13      HGA3     0.090000        1.0080           0
     17854 WT8      99       MECN     C2       CG1N1    0.360000       12.0110           0
     17855 WT8      99       MECN     N3       NG1T1   -0.460000       14.0070           0
     17856 WT8      101      MECN     C1       CG331   -0.170000       12.0110           0
     17857 WT8      101      MECN     H11      HGA3     0.090000        1.0080           0
     17858 WT8      101      MECN     H12      HGA3     0.090000        1.0080           0
     17859 WT8      101      MECN     H13      HGA3     0.090000        1.0080           0
     17860 WT8      101      MECN     C2       CG1N1    0.360000       12.0110           0
     17861 WT8      101      MECN     N3       NG1T1   -0.460000       14.0070           0
     17862 WT8      114      MECN     C1       CG331   -0.170000       12.0110           0
     17863 WT8      114      MECN     H11      HGA3     0.090000        1.0080           0
     17864 WT8      114      MECN     H12      HGA3     0.090000        1.0080           0
     17865 WT8      114      MECN     H13      HGA3     0.090000        1.0080           0
     17866 WT8      114      MECN     C2       CG1N1    0.360000       12.0110           0
     17867 WT8      114      MECN     N3       NG1T1   -0.460000       14.0070           0
     17868 WT8      116      MECN     C1       CG331   -0.170000       12.0110           0
     17869 WT8      116      MECN     H11      HGA3     0.090000        1.0080           0
     17870 WT8      116      MECN     H12      HGA3     0.090000        1.0080           0
     17871 WT8      116      MECN     H13      HGA3     0.090000        1.0080           0
     17872 WT8      116      MECN     C2       CG1N1    0.360000       12.0110           0
     17873 WT8      116      MECN     N3       NG1T1   -0.460000       14.0070           0
     17874 WT8      120      MECN     C1       CG331   -0.170000       12.0110           0
     17875 WT8      120      MECN     H11      HGA3     0.090000        1.0080           0
     17876 WT8      120      MECN     H12      HGA3     0.090000        1.0080           0
     17877 WT8      120      MECN     H13      HGA3     0.090000        1.0080           0
     17878 WT8      120      MECN     C2       CG1N1    0.360000       12.0110           0
     17879 WT8      120      MECN     N3       NG1T1   -0.460000       14.0070           0
     17880 WT8      128      MECN     C1       CG331   -0.170000       12.0110           0
     17881 WT8      128      MECN     H11      HGA3     0.090000        1.0080           0
     17882 WT8      128      MECN     H12      HGA3     0.090000        1.0080           0
     17883 WT8      128      MECN     H13      HGA3     0.090000        1.0080           0
     17884 WT8      128      MECN     C2       CG1N1    0.360000       12.0110           0
     17885 WT8      128      MECN     N3       NG1T1   -0.460000       14.0070           0
     17886 WT8      132      MECN     C1       CG331   -0.170000       12.0110           0
     17887 WT8      132      MECN     H11      HGA3     0.090000        1.0080           0
     17888 WT8      132      MECN     H12      HGA3     0.090000        1.0080           0
     17889 WT8      132      MECN     H13      HGA3     0.090000        1.0080           0
     17890 WT8      132      MECN     C2       CG1N1    0.360000       12.0110           0
     17891 WT8      132      MECN     N3       NG1T1   -0.460000       14.0070           0
     17892 WT8      138      MECN     C1       CG331   -0.170000       12.0110           0
     17893 WT8      138      MECN     H11      HGA3     0.090000        1.0080           0
     17894 WT8      138      MECN     H12      HGA3     0.090000        1.0080           0
     17895 WT8      138      MECN     H13      HGA3     0.090000        1.0080           0
     17896 WT8      138      MECN     C2       CG1N1    0.360000       12.0110           0
     17897 WT8      138      MECN     N3       NG1T1   -0.460000       14.0070           0
     17898 WT8      139      MECN     C1       CG331   -0.170000       12.0110           0
     17899 WT8      139      MECN     H11      HGA3     0.090000        1.0080           0
     17900 WT8      139      MECN     H12      HGA3     0.090000        1.0080           0
     17901 WT8      139      MECN     H13      HGA3     0.090000        1.0080           0
     17902 WT8      139      MECN     C2       CG1N1    0.360000       12.0110           0
     17903 WT8      139      MECN     N3       NG1T1   -0.460000       14.0070           0
     17904 WT8      140      MECN     C1       CG331   -0.170000       12.0110           0
     17905 WT8      140      MECN     H11      HGA3     0.090000        1.0080           0
     17906 WT8      140      MECN     H12      HGA3     0.090000        1.0080           0
     17907 WT8      140      MECN     H13      HGA3     0.090000        1.0080           0
     17908 WT8      140      MECN     C2       CG1N1    0.360000       12.0110           0
     17909 WT8      140      MECN     N3       NG1T1   -0.460000       14.0070           0
     17910 WT8      149      MECN     C1       CG331   -0.170000       12.0110           0
     17911 WT8      149      MECN     H11      HGA3     0.090000        1.0080           0
     17912 WT8      149      MECN     H12      HGA3     0.090000        1.0080           0
     17913 WT8      149      MECN     H13      HGA3     0.090000        1.0080           0
     17914 WT8      149      MECN     C2       CG1N1    0.360000       12.0110           0
     17915 WT8      149      MECN     N3       NG1T1   -0.460000       14.0070           0
     17916 WT8      155      MECN     C1       CG331   -0.170000       12.0110           0
     17917 WT8      155      MECN     H11      HGA3     0.090000        1.0080           0
     17918 WT8      155      MECN     H12      HGA3     0.090000        1.0080           0
     17919 WT8      155      MECN     H13      HGA3     0.090000        1.0080           0
     17920 WT8      155      MECN     C2       CG1N1    0.360000       12.0110           0
     17921 WT8      155      MECN     N3       NG1T1   -0.460000       14.0070           0
     17922 WT8      156      MECN     C1       CG331   -0.170000       12.0110           0
     17923 WT8      156      MECN     H11      HGA3     0.090000        1.0080           0
     17924 WT8      156      MECN     H12      HGA3     0.090000        1.0080           0
     17925 WT8      156      MECN     H13      HGA3     0.090000        1.0080           0
     17926 WT8      156      MECN     C2       CG1N1    0.360000       12.0110           0
     17927 WT8      156      MECN     N3       NG1T1   -0.460000       14.0070           0
     17928 WT8      157      MECN     C1       CG331   -0.170000       12.0110           0
     17929 WT8      157      MECN     H11      HGA3     0.090000        1.0080           0
     17930 WT8      157      MECN     H12      HGA3     0.090000        1.0080           0
     17931 WT8      157      MECN     H13      HGA3     0.090000        1.0080           0
     17932 WT8      157      MECN     C2       CG1N1    0.360000       12.0110           0
     17933 WT8      157      MECN     N3       NG1T1   -0.460000       14.0070           0
     17934 WT8      158      MECN     C1       CG331   -0.170000       12.0110           0
     17935 WT8      158      MECN     H11      HGA3     0.090000        1.0080           0
     17936 WT8      158      MECN     H12      HGA3     0.090000        1.0080           0
     17937 WT8      158      MECN     H13      HGA3     0.090000        1.0080           0
     17938 WT8      158      MECN     C2       CG1N1    0.360000       12.0110           0
     17939 WT8      158      MECN     N3       NG1T1   -0.460000       14.0070           0
     17940 WT8      160      MECN     C1       CG331   -0.170000       12.0110           0
     17941 WT8      160      MECN     H11      HGA3     0.090000        1.0080           0
     17942 WT8      160      MECN     H12      HGA3     0.090000        1.0080           0
     17943 WT8      160      MECN     H13      HGA3     0.090000        1.0080           0
     17944 WT8      160      MECN     C2       CG1N1    0.360000       12.0110           0
     17945 WT8      160      MECN     N3       NG1T1   -0.460000       14.0070           0
     17946 WT8      167      MECN     C1       CG331   -0.170000       12.0110           0
     17947 WT8      167      MECN     H11      HGA3     0.090000        1.0080           0
     17948 WT8      167      MECN     H12      HGA3     0.090000        1.0080           0
     17949 WT8      167      MECN     H13      HGA3     0.090000        1.0080           0
     17950 WT8      167      MECN     C2       CG1N1    0.360000       12.0110           0
     17951 WT8      167      MECN     N3       NG1T1   -0.460000       14.0070           0
     17952 WT8      169      MECN     C1       CG331   -0.170000       12.0110           0
     17953 WT8      169      MECN     H11      HGA3     0.090000        1.0080           0
     17954 WT8      169      MECN     H12      HGA3     0.090000        1.0080           0
     17955 WT8      169      MECN     H13      HGA3     0.090000        1.0080           0
     17956 WT8      169      MECN     C2       CG1N1    0.360000       12.0110           0
     17957 WT8      169      MECN     N3       NG1T1   -0.460000       14.0070           0
     17958 WT8      170      MECN     C1       CG331   -0.170000       12.0110           0
     17959 WT8      170      MECN     H11      HGA3     0.090000        1.0080           0
     17960 WT8      170      MECN     H12      HGA3     0.090000        1.0080           0
     17961 WT8      170      MECN     H13      HGA3     0.090000        1.0080           0
     17962 WT8      170      MECN     C2       CG1N1    0.360000       12.0110           0
     17963 WT8      170      MECN     N3       NG1T1   -0.460000       14.0070           0
     17964 WT8      172      MECN     C1       CG331   -0.170000       12.0110           0
     17965 WT8      172      MECN     H11      HGA3     0.090000        1.0080           0
     17966 WT8      172      MECN     H12      HGA3     0.090000        1.0080           0
     17967 WT8      172      MECN     H13      HGA3     0.090000        1.0080           0
     17968 WT8      172      MECN     C2       CG1N1    0.360000       12.0110           0
     17969 WT8      172      MECN     N3       NG1T1   -0.460000       14.0070           0
     17970 WT8      176      MECN     C1       CG331   -0.170000       12.0110           0
     17971 WT8      176      MECN     H11      HGA3     0.090000        1.0080           0
     17972 WT8      176      MECN     H12      HGA3     0.090000        1.0080           0
     17973 WT8      176      MECN     H13      HGA3     0.090000        1.0080           0
     17974 WT8      176      MECN     C2       CG1N1    0.360000       12.0110           0
     17975 WT8      176      MECN     N3       NG1T1   -0.460000       14.0070           0
     17976 WT8      180      MECN     C1       CG331   -0.170000       12.0110           0
     17977 WT8      180      MECN     H11      HGA3     0.090000        1.0080           0
     17978 WT8      180      MECN     H12      HGA3     0.090000        1.0080           0
     17979 WT8      180      MECN     H13      HGA3     0.090000        1.0080           0
     17980 WT8      180      MECN     C2       CG1N1    0.360000       12.0110           0
     17981 WT8      180      MECN     N3       NG1T1   -0.460000       14.0070           0
     17982 WT8      183      MECN     C1       CG331   -0.170000       12.0110           0
     17983 WT8      183      MECN     H11      HGA3     0.090000        1.0080           0
     17984 WT8      183      MECN     H12      HGA3     0.090000        1.0080           0
     17985 WT8      183      MECN     H13      HGA3     0.090000        1.0080           0
     17986 WT8      183      MECN     C2       CG1N1    0.360000       12.0110           0
     17987 WT8      183      MECN     N3       NG1T1   -0.460000       14.0070           0
     17988 WT8      187      MECN     C1       CG331   -0.170000       12.0110           0
     17989 WT8      187      MECN     H11      HGA3     0.090000        1.0080           0
     17990 WT8      187      MECN     H12      HGA3     0.090000        1.0080           0
     17991 WT8      187      MECN     H13      HGA3     0.090000        1.0080           0
     17992 WT8      187      MECN     C2       CG1N1    0.360000       12.0110           0
     17993 WT8      187      MECN     N3       NG1T1   -0.460000       14.0070           0
     17994 WT8      188      MECN     C1       CG331   -0.170000       12.0110           0
     17995 WT8      188      MECN     H11      HGA3     0.090000        1.0080           0
     17996 WT8      188      MECN     H12      HGA3     0.090000        1.0080           0
     17997 WT8      188      MECN     H13      HGA3     0.090000        1.0080           0
     17998 WT8      188      MECN     C2       CG1N1    0.360000       12.0110           0
     17999 WT8      188      MECN     N3       NG1T1   -0.460000       14.0070           0
     18000 WT8      200      MECN     C1       CG331   -0.170000       12.0110           0
     18001 WT8      200      MECN     H11      HGA3     0.090000        1.0080           0
     18002 WT8      200      MECN     H12      HGA3     0.090000        1.0080           0
     18003 WT8      200      MECN     H13      HGA3     0.090000        1.0080           0
     18004 WT8      200      MECN     C2       CG1N1    0.360000       12.0110           0
     18005 WT8      200      MECN     N3       NG1T1   -0.460000       14.0070           0
     18006 WT8      206      MECN     C1       CG331   -0.170000       12.0110           0
     18007 WT8      206      MECN     H11      HGA3     0.090000        1.0080           0
     18008 WT8      206      MECN     H12      HGA3     0.090000        1.0080           0
     18009 WT8      206      MECN     H13      HGA3     0.090000        1.0080           0
     18010 WT8      206      MECN     C2       CG1N1    0.360000       12.0110           0
     18011 WT8      206      MECN     N3       NG1T1   -0.460000       14.0070           0
     18012 WT8      209      MECN     C1       CG331   -0.170000       12.0110           0
     18013 WT8      209      MECN     H11      HGA3     0.090000        1.0080           0
     18014 WT8      209      MECN     H12      HGA3     0.090000        1.0080           0
     18015 WT8      209      MECN     H13      HGA3     0.090000        1.0080           0
     18016 WT8      209      MECN     C2       CG1N1    0.360000       12.0110           0
     18017 WT8      209      MECN     N3       NG1T1   -0.460000       14.0070           0
     18018 WT8      210      MECN     C1       CG331   -0.170000       12.0110           0
     18019 WT8      210      MECN     H11      HGA3     0.090000        1.0080           0
     18020 WT8      210      MECN     H12      HGA3     0.090000        1.0080           0
     18021 WT8      210      MECN     H13      HGA3     0.090000        1.0080           0
     18022 WT8      210      MECN     C2       CG1N1    0.360000       12.0110           0
     18023 WT8      210      MECN     N3       NG1T1   -0.460000       14.0070           0
     18024 WT8      214      MECN     C1       CG331   -0.170000       12.0110           0
     18025 WT8      214      MECN     H11      HGA3     0.090000        1.0080           0
     18026 WT8      214      MECN     H12      HGA3     0.090000        1.0080           0
     18027 WT8      214      MECN     H13      HGA3     0.090000        1.0080           0
     18028 WT8      214      MECN     C2       CG1N1    0.360000       12.0110           0
     18029 WT8      214      MECN     N3       NG1T1   -0.460000       14.0070           0
     18030 WT8      222      MECN     C1       CG331   -0.170000       12.0110           0
     18031 WT8      222      MECN     H11      HGA3     0.090000        1.0080           0
     18032 WT8      222      MECN     H12      HGA3     0.090000        1.0080           0
     18033 WT8      222      MECN     H13      HGA3     0.090000        1.0080           0
     18034 WT8      222      MECN     C2       CG1N1    0.360000       12.0110           0
     18035 WT8      222      MECN     N3       NG1T1   -0.460000       14.0070           0
     18036 WT8      226      MECN     C1       CG331   -0.170000       12.0110           0
     18037 WT8      226      MECN     H11      HGA3     0.090000        1.0080           0
     18038 WT8      226      MECN     H12      HGA3     0.090000        1.0080           0
     18039 WT8      226      MECN     H13      HGA3     0.090000        1.0080           0
     18040 WT8      226      MECN     C2       CG1N1    0.360000       12.0110           0
     18041 WT8      226      MECN     N3       NG1T1   -0.460000       14.0070           0
     18042 WT8      227      MECN     C1       CG331   -0.170000       12.0110           0
     18043 WT8      227      MECN     H11      HGA3     0.090000        1.0080           0
     18044 WT8      227      MECN     H12      HGA3     0.090000        1.0080           0
     18045 WT8      227      MECN     H13      HGA3     0.090000        1.0080           0
     18046 WT8      227      MECN     C2       CG1N1    0.360000       12.0110           0
     18047 WT8      227      MECN     N3       NG1T1   -0.460000       14.0070           0
     18048 WT8      228      MECN     C1       CG331   -0.170000       12.0110           0
     18049 WT8      228      MECN     H11      HGA3     0.090000        1.0080           0
     18050 WT8      228      MECN     H12      HGA3     0.090000        1.0080           0
     18051 WT8      228      MECN     H13      HGA3     0.090000        1.0080           0
     18052 WT8      228      MECN     C2       CG1N1    0.360000       12.0110           0
     18053 WT8      228      MECN     N3       NG1T1   -0.460000       14.0070           0
     18054 WT8      234      MECN     C1       CG331   -0.170000       12.0110           0
     18055 WT8      234      MECN     H11      HGA3     0.090000        1.0080           0
     18056 WT8      234      MECN     H12      HGA3     0.090000        1.0080           0
     18057 WT8      234      MECN     H13      HGA3     0.090000        1.0080           0
     18058 WT8      234      MECN     C2       CG1N1    0.360000       12.0110           0
     18059 WT8      234      MECN     N3       NG1T1   -0.460000       14.0070           0
     18060 WT8      237      MECN     C1       CG331   -0.170000       12.0110           0
     18061 WT8      237      MECN     H11      HGA3     0.090000        1.0080           0
     18062 WT8      237      MECN     H12      HGA3     0.090000        1.0080           0
     18063 WT8      237      MECN     H13      HGA3     0.090000        1.0080           0
     18064 WT8      237      MECN     C2       CG1N1    0.360000       12.0110           0
     18065 WT8      237      MECN     N3       NG1T1   -0.460000       14.0070           0
     18066 WT8      239      MECN     C1       CG331   -0.170000       12.0110           0
     18067 WT8      239      MECN     H11      HGA3     0.090000        1.0080           0
     18068 WT8      239      MECN     H12      HGA3     0.090000        1.0080           0
     18069 WT8      239      MECN     H13      HGA3     0.090000        1.0080           0
     18070 WT8      239      MECN     C2       CG1N1    0.360000       12.0110           0
     18071 WT8      239      MECN     N3       NG1T1   -0.460000       14.0070           0
     18072 WT8      240      MECN     C1       CG331   -0.170000       12.0110           0
     18073 WT8      240      MECN     H11      HGA3     0.090000        1.0080           0
     18074 WT8      240      MECN     H12      HGA3     0.090000        1.0080           0
     18075 WT8      240      MECN     H13      HGA3     0.090000        1.0080           0
     18076 WT8      240      MECN     C2       CG1N1    0.360000       12.0110           0
     18077 WT8      240      MECN     N3       NG1T1   -0.460000       14.0070           0
     18078 WT8      242      MECN     C1       CG331   -0.170000       12.0110           0
     18079 WT8      242      MECN     H11      HGA3     0.090000        1.0080           0
     18080 WT8      242      MECN     H12      HGA3     0.090000        1.0080           0
     18081 WT8      242      MECN     H13      HGA3     0.090000        1.0080           0
     18082 WT8      242      MECN     C2       CG1N1    0.360000       12.0110           0
     18083 WT8      242      MECN     N3       NG1T1   -0.460000       14.0070           0
     18084 WT8      245      MECN     C1       CG331   -0.170000       12.0110           0
     18085 WT8      245      MECN     H11      HGA3     0.090000        1.0080           0
     18086 WT8      245      MECN     H12      HGA3     0.090000        1.0080           0
     18087 WT8      245      MECN     H13      HGA3     0.090000        1.0080           0
     18088 WT8      245      MECN     C2       CG1N1    0.360000       12.0110           0
     18089 WT8      245      MECN     N3       NG1T1   -0.460000       14.0070           0
     18090 WT8      249      MECN     C1       CG331   -0.170000       12.0110           0
     18091 WT8      249      MECN     H11      HGA3     0.090000        1.0080           0
     18092 WT8      249      MECN     H12      HGA3     0.090000        1.0080           0
     18093 WT8      249      MECN     H13      HGA3     0.090000        1.0080           0
     18094 WT8      249      MECN     C2       CG1N1    0.360000       12.0110           0
     18095 WT8      249      MECN     N3       NG1T1   -0.460000       14.0070           0
     18096 WT8      250      MECN     C1       CG331   -0.170000       12.0110           0
     18097 WT8      250      MECN     H11      HGA3     0.090000        1.0080           0
     18098 WT8      250      MECN     H12      HGA3     0.090000        1.0080           0
     18099 WT8      250      MECN     H13      HGA3     0.090000        1.0080           0
     18100 WT8      250      MECN     C2       CG1N1    0.360000       12.0110           0
     18101 WT8      250      MECN     N3       NG1T1   -0.460000       14.0070           0
     18102 WT8      254      MECN     C1       CG331   -0.170000       12.0110           0
     18103 WT8      254      MECN     H11      HGA3     0.090000        1.0080           0
     18104 WT8      254      MECN     H12      HGA3     0.090000        1.0080           0
     18105 WT8      254      MECN     H13      HGA3     0.090000        1.0080           0
     18106 WT8      254      MECN     C2       CG1N1    0.360000       12.0110           0
     18107 WT8      254      MECN     N3       NG1T1   -0.460000       14.0070           0
     18108 WT8      256      MECN     C1       CG331   -0.170000       12.0110           0
     18109 WT8      256      MECN     H11      HGA3     0.090000        1.0080           0
     18110 WT8      256      MECN     H12      HGA3     0.090000        1.0080           0
     18111 WT8      256      MECN     H13      HGA3     0.090000        1.0080           0
     18112 WT8      256      MECN     C2       CG1N1    0.360000       12.0110           0
     18113 WT8      256      MECN     N3       NG1T1   -0.460000       14.0070           0
     18114 WT8      259      MECN     C1       CG331   -0.170000       12.0110           0
     18115 WT8      259      MECN     H11      HGA3     0.090000        1.0080           0
     18116 WT8      259      MECN     H12      HGA3     0.090000        1.0080           0
     18117 WT8      259      MECN     H13      HGA3     0.090000        1.0080           0
     18118 WT8      259      MECN     C2       CG1N1    0.360000       12.0110           0
     18119 WT8      259      MECN     N3       NG1T1   -0.460000       14.0070           0
     18120 WT8      260      MECN     C1       CG331   -0.170000       12.0110           0
     18121 WT8      260      MECN     H11      HGA3     0.090000        1.0080           0
     18122 WT8      260      MECN     H12      HGA3     0.090000        1.0080           0
     18123 WT8      260      MECN     H13      HGA3     0.090000        1.0080           0
     18124 WT8      260      MECN     C2       CG1N1    0.360000       12.0110           0
     18125 WT8      260      MECN     N3       NG1T1   -0.460000       14.0070           0
     18126 WT8      261      MECN     C1       CG331   -0.170000       12.0110           0
     18127 WT8      261      MECN     H11      HGA3     0.090000        1.0080           0
     18128 WT8      261      MECN     H12      HGA3     0.090000        1.0080           0
     18129 WT8      261      MECN     H13      HGA3     0.090000        1.0080           0
     18130 WT8      261      MECN     C2       CG1N1    0.360000       12.0110           0
     18131 WT8      261      MECN     N3       NG1T1   -0.460000       14.0070           0
     18132 WT8      268      MECN     C1       CG331   -0.170000       12.0110           0
     18133 WT8      268      MECN     H11      HGA3     0.090000        1.0080           0
     18134 WT8      268      MECN     H12      HGA3     0.090000        1.0080           0
     18135 WT8      268      MECN     H13      HGA3     0.090000        1.0080           0
     18136 WT8      268      MECN     C2       CG1N1    0.360000       12.0110           0
     18137 WT8      268      MECN     N3       NG1T1   -0.460000       14.0070           0
     18138 WT8      269      MECN     C1       CG331   -0.170000       12.0110           0
     18139 WT8      269      MECN     H11      HGA3     0.090000        1.0080           0
     18140 WT8      269      MECN     H12      HGA3     0.090000        1.0080           0
     18141 WT8      269      MECN     H13      HGA3     0.090000        1.0080           0
     18142 WT8      269      MECN     C2       CG1N1    0.360000       12.0110           0
     18143 WT8      269      MECN     N3       NG1T1   -0.460000       14.0070           0
     18144 WT8      273      MECN     C1       CG331   -0.170000       12.0110           0
     18145 WT8      273      MECN     H11      HGA3     0.090000        1.0080           0
     18146 WT8      273      MECN     H12      HGA3     0.090000        1.0080           0
     18147 WT8      273      MECN     H13      HGA3     0.090000        1.0080           0
     18148 WT8      273      MECN     C2       CG1N1    0.360000       12.0110           0
     18149 WT8      273      MECN     N3       NG1T1   -0.460000       14.0070           0
     18150 WT8      277      MECN     C1       CG331   -0.170000       12.0110           0
     18151 WT8      277      MECN     H11      HGA3     0.090000        1.0080           0
     18152 WT8      277      MECN     H12      HGA3     0.090000        1.0080           0
     18153 WT8      277      MECN     H13      HGA3     0.090000        1.0080           0
     18154 WT8      277      MECN     C2       CG1N1    0.360000       12.0110           0
     18155 WT8      277      MECN     N3       NG1T1   -0.460000       14.0070           0
     18156 WT8      284      MECN     C1       CG331   -0.170000       12.0110           0
     18157 WT8      284      MECN     H11      HGA3     0.090000        1.0080           0
     18158 WT8      284      MECN     H12      HGA3     0.090000        1.0080           0
     18159 WT8      284      MECN     H13      HGA3     0.090000        1.0080           0
     18160 WT8      284      MECN     C2       CG1N1    0.360000       12.0110           0
     18161 WT8      284      MECN     N3       NG1T1   -0.460000       14.0070           0
     18162 WT8      289      MECN     C1       CG331   -0.170000       12.0110           0
     18163 WT8      289      MECN     H11      HGA3     0.090000        1.0080           0
     18164 WT8      289      MECN     H12      HGA3     0.090000        1.0080           0
     18165 WT8      289      MECN     H13      HGA3     0.090000        1.0080           0
     18166 WT8      289      MECN     C2       CG1N1    0.360000       12.0110           0
     18167 WT8      289      MECN     N3       NG1T1   -0.460000       14.0070           0
     18168 WT8      291      MECN     C1       CG331   -0.170000       12.0110           0
     18169 WT8      291      MECN     H11      HGA3     0.090000        1.0080           0
     18170 WT8      291      MECN     H12      HGA3     0.090000        1.0080           0
     18171 WT8      291      MECN     H13      HGA3     0.090000        1.0080           0
     18172 WT8      291      MECN     C2       CG1N1    0.360000       12.0110           0
     18173 WT8      291      MECN     N3       NG1T1   -0.460000       14.0070           0
     18174 WT8      293      MECN     C1       CG331   -0.170000       12.0110           0
     18175 WT8      293      MECN     H11      HGA3     0.090000        1.0080           0
     18176 WT8      293      MECN     H12      HGA3     0.090000        1.0080           0
     18177 WT8      293      MECN     H13      HGA3     0.090000        1.0080           0
     18178 WT8      293      MECN     C2       CG1N1    0.360000       12.0110           0
     18179 WT8      293      MECN     N3       NG1T1   -0.460000       14.0070           0
     18180 WT8      299      MECN     C1       CG331   -0.170000       12.0110           0
     18181 WT8      299      MECN     H11      HGA3     0.090000        1.0080           0
     18182 WT8      299      MECN     H12      HGA3     0.090000        1.0080           0
     18183 WT8      299      MECN     H13      HGA3     0.090000        1.0080           0
     18184 WT8      299      MECN     C2       CG1N1    0.360000       12.0110           0
     18185 WT8      299      MECN     N3       NG1T1   -0.460000       14.0070           0
     18186 WT8      303      MECN     C1       CG331   -0.170000       12.0110           0
     18187 WT8      303      MECN     H11      HGA3     0.090000        1.0080           0
     18188 WT8      303      MECN     H12      HGA3     0.090000        1.0080           0
     18189 WT8      303      MECN     H13      HGA3     0.090000        1.0080           0
     18190 WT8      303      MECN     C2       CG1N1    0.360000       12.0110           0
     18191 WT8      303      MECN     N3       NG1T1   -0.460000       14.0070           0
     18192 WT8      312      MECN     C1       CG331   -0.170000       12.0110           0
     18193 WT8      312      MECN     H11      HGA3     0.090000        1.0080           0
     18194 WT8      312      MECN     H12      HGA3     0.090000        1.0080           0
     18195 WT8      312      MECN     H13      HGA3     0.090000        1.0080           0
     18196 WT8      312      MECN     C2       CG1N1    0.360000       12.0110           0
     18197 WT8      312      MECN     N3       NG1T1   -0.460000       14.0070           0
     18198 WT8      313      MECN     C1       CG331   -0.170000       12.0110           0
     18199 WT8      313      MECN     H11      HGA3     0.090000        1.0080           0
     18200 WT8      313      MECN     H12      HGA3     0.090000        1.0080           0
     18201 WT8      313      MECN     H13      HGA3     0.090000        1.0080           0
     18202 WT8      313      MECN     C2       CG1N1    0.360000       12.0110           0
     18203 WT8      313      MECN     N3       NG1T1   -0.460000       14.0070           0
     18204 WT8      320      MECN     C1       CG331   -0.170000       12.0110           0
     18205 WT8      320      MECN     H11      HGA3     0.090000        1.0080           0
     18206 WT8      320      MECN     H12      HGA3     0.090000        1.0080           0
     18207 WT8      320      MECN     H13      HGA3     0.090000        1.0080           0
     18208 WT8      320      MECN     C2       CG1N1    0.360000       12.0110           0
     18209 WT8      320      MECN     N3       NG1T1   -0.460000       14.0070           0
     18210 WT8      321      MECN     C1       CG331   -0.170000       12.0110           0
     18211 WT8      321      MECN     H11      HGA3     0.090000        1.0080           0
     18212 WT8      321      MECN     H12      HGA3     0.090000        1.0080           0
     18213 WT8      321      MECN     H13      HGA3     0.090000        1.0080           0
     18214 WT8      321      MECN     C2       CG1N1    0.360000       12.0110           0
     18215 WT8      321      MECN     N3       NG1T1   -0.460000       14.0070           0
     18216 WT8      324      MECN     C1       CG331   -0.170000       12.0110           0
     18217 WT8      324      MECN     H11      HGA3     0.090000        1.0080           0
     18218 WT8      324      MECN     H12      HGA3     0.090000        1.0080           0
     18219 WT8      324      MECN     H13      HGA3     0.090000        1.0080           0
     18220 WT8      324      MECN     C2       CG1N1    0.360000       12.0110           0
     18221 WT8      324      MECN     N3       NG1T1   -0.460000       14.0070           0
     18222 WT8      329      MECN     C1       CG331   -0.170000       12.0110           0
     18223 WT8      329      MECN     H11      HGA3     0.090000        1.0080           0
     18224 WT8      329      MECN     H12      HGA3     0.090000        1.0080           0
     18225 WT8      329      MECN     H13      HGA3     0.090000        1.0080           0
     18226 WT8      329      MECN     C2       CG1N1    0.360000       12.0110           0
     18227 WT8      329      MECN     N3       NG1T1   -0.460000       14.0070           0
     18228 WT8      331      MECN     C1       CG331   -0.170000       12.0110           0
     18229 WT8      331      MECN     H11      HGA3     0.090000        1.0080           0
     18230 WT8      331      MECN     H12      HGA3     0.090000        1.0080           0
     18231 WT8      331      MECN     H13      HGA3     0.090000        1.0080           0
     18232 WT8      331      MECN     C2       CG1N1    0.360000       12.0110           0
     18233 WT8      331      MECN     N3       NG1T1   -0.460000       14.0070           0
     18234 WT8      350      MECN     C1       CG331   -0.170000       12.0110           0
     18235 WT8      350      MECN     H11      HGA3     0.090000        1.0080           0
     18236 WT8      350      MECN     H12      HGA3     0.090000        1.0080           0
     18237 WT8      350      MECN     H13      HGA3     0.090000        1.0080           0
     18238 WT8      350      MECN     C2       CG1N1    0.360000       12.0110           0
     18239 WT8      350      MECN     N3       NG1T1   -0.460000       14.0070           0
     18240 WT8      352      MECN     C1       CG331   -0.170000       12.0110           0
     18241 WT8      352      MECN     H11      HGA3     0.090000        1.0080           0
     18242 WT8      352      MECN     H12      HGA3     0.090000        1.0080           0
     18243 WT8      352      MECN     H13      HGA3     0.090000        1.0080           0
     18244 WT8      352      MECN     C2       CG1N1    0.360000       12.0110           0
     18245 WT8      352      MECN     N3       NG1T1   -0.460000       14.0070           0
     18246 WT8      354      MECN     C1       CG331   -0.170000       12.0110           0
     18247 WT8      354      MECN     H11      HGA3     0.090000        1.0080           0
     18248 WT8      354      MECN     H12      HGA3     0.090000        1.0080           0
     18249 WT8      354      MECN     H13      HGA3     0.090000        1.0080           0
     18250 WT8      354      MECN     C2       CG1N1    0.360000       12.0110           0
     18251 WT8      354      MECN     N3       NG1T1   -0.460000       14.0070           0
     18252 WT8      355      MECN     C1       CG331   -0.170000       12.0110           0
     18253 WT8      355      MECN     H11      HGA3     0.090000        1.0080           0
     18254 WT8      355      MECN     H12      HGA3     0.090000        1.0080           0
     18255 WT8      355      MECN     H13      HGA3     0.090000        1.0080           0
     18256 WT8      355      MECN     C2       CG1N1    0.360000       12.0110           0
     18257 WT8      355      MECN     N3       NG1T1   -0.460000       14.0070           0
     18258 WT8      357      MECN     C1       CG331   -0.170000       12.0110           0
     18259 WT8      357      MECN     H11      HGA3     0.090000        1.0080           0
     18260 WT8      357      MECN     H12      HGA3     0.090000        1.0080           0
     18261 WT8      357      MECN     H13      HGA3     0.090000        1.0080           0
     18262 WT8      357      MECN     C2       CG1N1    0.360000       12.0110           0
     18263 WT8      357      MECN     N3       NG1T1   -0.460000       14.0070           0
     18264 WT8      365      MECN     C1       CG331   -0.170000       12.0110           0
     18265 WT8      365      MECN     H11      HGA3     0.090000        1.0080           0
     18266 WT8      365      MECN     H12      HGA3     0.090000        1.0080           0
     18267 WT8      365      MECN     H13      HGA3     0.090000        1.0080           0
     18268 WT8      365      MECN     C2       CG1N1    0.360000       12.0110           0
     18269 WT8      365      MECN     N3       NG1T1   -0.460000       14.0070           0
     18270 WT8      366      MECN     C1       CG331   -0.170000       12.0110           0
     18271 WT8      366      MECN     H11      HGA3     0.090000        1.0080           0
     18272 WT8      366      MECN     H12      HGA3     0.090000        1.0080           0
     18273 WT8      366      MECN     H13      HGA3     0.090000        1.0080           0
     18274 WT8      366      MECN     C2       CG1N1    0.360000       12.0110           0
     18275 WT8      366      MECN     N3       NG1T1   -0.460000       14.0070           0
     18276 WT8      368      MECN     C1       CG331   -0.170000       12.0110           0
     18277 WT8      368      MECN     H11      HGA3     0.090000        1.0080           0
     18278 WT8      368      MECN     H12      HGA3     0.090000        1.0080           0
     18279 WT8      368      MECN     H13      HGA3     0.090000        1.0080           0
     18280 WT8      368      MECN     C2       CG1N1    0.360000       12.0110           0
     18281 WT8      368      MECN     N3       NG1T1   -0.460000       14.0070           0
     18282 WT8      370      MECN     C1       CG331   -0.170000       12.0110           0
     18283 WT8      370      MECN     H11      HGA3     0.090000        1.0080           0
     18284 WT8      370      MECN     H12      HGA3     0.090000        1.0080           0
     18285 WT8      370      MECN     H13      HGA3     0.090000        1.0080           0
     18286 WT8      370      MECN     C2       CG1N1    0.360000       12.0110           0
     18287 WT8      370      MECN     N3       NG1T1   -0.460000       14.0070           0
     18288 WT8      372      MECN     C1       CG331   -0.170000       12.0110           0
     18289 WT8      372      MECN     H11      HGA3     0.090000        1.0080           0
     18290 WT8      372      MECN     H12      HGA3     0.090000        1.0080           0
     18291 WT8      372      MECN     H13      HGA3     0.090000        1.0080           0
     18292 WT8      372      MECN     C2       CG1N1    0.360000       12.0110           0
     18293 WT8      372      MECN     N3       NG1T1   -0.460000       14.0070           0
     18294 WT8      379      MECN     C1       CG331   -0.170000       12.0110           0
     18295 WT8      379      MECN     H11      HGA3     0.090000        1.0080           0
     18296 WT8      379      MECN     H12      HGA3     0.090000        1.0080           0
     18297 WT8      379      MECN     H13      HGA3     0.090000        1.0080           0
     18298 WT8      379      MECN     C2       CG1N1    0.360000       12.0110           0
     18299 WT8      379      MECN     N3       NG1T1   -0.460000       14.0070           0
     18300 WT8      382      MECN     C1       CG331   -0.170000       12.0110           0
     18301 WT8      382      MECN     H11      HGA3     0.090000        1.0080           0
     18302 WT8      382      MECN     H12      HGA3     0.090000        1.0080           0
     18303 WT8      382      MECN     H13      HGA3     0.090000        1.0080           0
     18304 WT8      382      MECN     C2       CG1N1    0.360000       12.0110           0
     18305 WT8      382      MECN     N3       NG1T1   -0.460000       14.0070           0
     18306 WT8      390      MECN     C1       CG331   -0.170000       12.0110           0
     18307 WT8      390      MECN     H11      HGA3     0.090000        1.0080           0
     18308 WT8      390      MECN     H12      HGA3     0.090000        1.0080           0
     18309 WT8      390      MECN     H13      HGA3     0.090000        1.0080           0
     18310 WT8      390      MECN     C2       CG1N1    0.360000       12.0110           0
     18311 WT8      390      MECN     N3       NG1T1   -0.460000       14.0070           0
     18312 WT8      392      MECN     C1       CG331   -0.170000       12.0110           0
     18313 WT8      392      MECN     H11      HGA3     0.090000        1.0080           0
     18314 WT8      392      MECN     H12      HGA3     0.090000        1.0080           0
     18315 WT8      392      MECN     H13      HGA3     0.090000        1.0080           0
     18316 WT8      392      MECN     C2       CG1N1    0.360000       12.0110           0
     18317 WT8      392      MECN     N3       NG1T1   -0.460000       14.0070           0
     18318 WT8      396      MECN     C1       CG331   -0.170000       12.0110           0
     18319 WT8      396      MECN     H11      HGA3     0.090000        1.0080           0
     18320 WT8      396      MECN     H12      HGA3     0.090000        1.0080           0
     18321 WT8      396      MECN     H13      HGA3     0.090000        1.0080           0
     18322 WT8      396      MECN     C2       CG1N1    0.360000       12.0110           0
     18323 WT8      396      MECN     N3       NG1T1   -0.460000       14.0070           0
     18324 WT8      397      MECN     C1       CG331   -0.170000       12.0110           0
     18325 WT8      397      MECN     H11      HGA3     0.090000        1.0080           0
     18326 WT8      397      MECN     H12      HGA3     0.090000        1.0080           0
     18327 WT8      397      MECN     H13      HGA3     0.090000        1.0080           0
     18328 WT8      397      MECN     C2       CG1N1    0.360000       12.0110           0
     18329 WT8      397      MECN     N3       NG1T1   -0.460000       14.0070           0
     18330 WT8      398      MECN     C1       CG331   -0.170000       12.0110           0
     18331 WT8      398      MECN     H11      HGA3     0.090000        1.0080           0
     18332 WT8      398      MECN     H12      HGA3     0.090000        1.0080           0
     18333 WT8      398      MECN     H13      HGA3     0.090000        1.0080           0
     18334 WT8      398      MECN     C2       CG1N1    0.360000       12.0110           0
     18335 WT8      398      MECN     N3       NG1T1   -0.460000       14.0070           0
     18336 WT8      399      MECN     C1       CG331   -0.170000       12.0110           0
     18337 WT8      399      MECN     H11      HGA3     0.090000        1.0080           0
     18338 WT8      399      MECN     H12      HGA3     0.090000        1.0080           0
     18339 WT8      399      MECN     H13      HGA3     0.090000        1.0080           0
     18340 WT8      399      MECN     C2       CG1N1    0.360000       12.0110           0
     18341 WT8      399      MECN     N3       NG1T1   -0.460000       14.0070           0
     18342 WT8      402      MECN     C1       CG331   -0.170000       12.0110           0
     18343 WT8      402      MECN     H11      HGA3     0.090000        1.0080           0
     18344 WT8      402      MECN     H12      HGA3     0.090000        1.0080           0
     18345 WT8      402      MECN     H13      HGA3     0.090000        1.0080           0
     18346 WT8      402      MECN     C2       CG1N1    0.360000       12.0110           0
     18347 WT8      402      MECN     N3       NG1T1   -0.460000       14.0070           0
     18348 WT8      404      MECN     C1       CG331   -0.170000       12.0110           0
     18349 WT8      404      MECN     H11      HGA3     0.090000        1.0080           0
     18350 WT8      404      MECN     H12      HGA3     0.090000        1.0080           0
     18351 WT8      404      MECN     H13      HGA3     0.090000        1.0080           0
     18352 WT8      404      MECN     C2       CG1N1    0.360000       12.0110           0
     18353 WT8      404      MECN     N3       NG1T1   -0.460000       14.0070           0
     18354 WT8      407      MECN     C1       CG331   -0.170000       12.0110           0
     18355 WT8      407      MECN     H11      HGA3     0.090000        1.0080           0
     18356 WT8      407      MECN     H12      HGA3     0.090000        1.0080           0
     18357 WT8      407      MECN     H13      HGA3     0.090000        1.0080           0
     18358 WT8      407      MECN     C2       CG1N1    0.360000       12.0110           0
     18359 WT8      407      MECN     N3       NG1T1   -0.460000       14.0070           0
     18360 WT8      411      MECN     C1       CG331   -0.170000       12.0110           0
     18361 WT8      411      MECN     H11      HGA3     0.090000        1.0080           0
     18362 WT8      411      MECN     H12      HGA3     0.090000        1.0080           0
     18363 WT8      411      MECN     H13      HGA3     0.090000        1.0080           0
     18364 WT8      411      MECN     C2       CG1N1    0.360000       12.0110           0
     18365 WT8      411      MECN     N3       NG1T1   -0.460000       14.0070           0
     18366 WT8      412      MECN     C1       CG331   -0.170000       12.0110           0
     18367 WT8      412      MECN     H11      HGA3     0.090000        1.0080           0
     18368 WT8      412      MECN     H12      HGA3     0.090000        1.0080           0
     18369 WT8      412      MECN     H13      HGA3     0.090000        1.0080           0
     18370 WT8      412      MECN     C2       CG1N1    0.360000       12.0110           0
     18371 WT8      412      MECN     N3       NG1T1   -0.460000       14.0070           0
     18372 WT8      419      MECN     C1       CG331   -0.170000       12.0110           0
     18373 WT8      419      MECN     H11      HGA3     0.090000        1.0080           0
     18374 WT8      419      MECN     H12      HGA3     0.090000        1.0080           0
     18375 WT8      419      MECN     H13      HGA3     0.090000        1.0080           0
     18376 WT8      419      MECN     C2       CG1N1    0.360000       12.0110           0
     18377 WT8      419      MECN     N3       NG1T1   -0.460000       14.0070           0
     18378 WT8      424      MECN     C1       CG331   -0.170000       12.0110           0
     18379 WT8      424      MECN     H11      HGA3     0.090000        1.0080           0
     18380 WT8      424      MECN     H12      HGA3     0.090000        1.0080           0
     18381 WT8      424      MECN     H13      HGA3     0.090000        1.0080           0
     18382 WT8      424      MECN     C2       CG1N1    0.360000       12.0110           0
     18383 WT8      424      MECN     N3       NG1T1   -0.460000       14.0070           0
     18384 WT8      425      MECN     C1       CG331   -0.170000       12.0110           0
     18385 WT8      425      MECN     H11      HGA3     0.090000        1.0080           0
     18386 WT8      425      MECN     H12      HGA3     0.090000        1.0080           0
     18387 WT8      425      MECN     H13      HGA3     0.090000        1.0080           0
     18388 WT8      425      MECN     C2       CG1N1    0.360000       12.0110           0
     18389 WT8      425      MECN     N3       NG1T1   -0.460000       14.0070           0
     18390 WT8      426      MECN     C1       CG331   -0.170000       12.0110           0
     18391 WT8      426      MECN     H11      HGA3     0.090000        1.0080           0
     18392 WT8      426      MECN     H12      HGA3     0.090000        1.0080           0
     18393 WT8      426      MECN     H13      HGA3     0.090000        1.0080           0
     18394 WT8      426      MECN     C2       CG1N1    0.360000       12.0110           0
     18395 WT8      426      MECN     N3       NG1T1   -0.460000       14.0070           0
     18396 WT8      428      MECN     C1       CG331   -0.170000       12.0110           0
     18397 WT8      428      MECN     H11      HGA3     0.090000        1.0080           0
     18398 WT8      428      MECN     H12      HGA3     0.090000        1.0080           0
     18399 WT8      428      MECN     H13      HGA3     0.090000        1.0080           0
     18400 WT8      428      MECN     C2       CG1N1    0.360000       12.0110           0
     18401 WT8      428      MECN     N3       NG1T1   -0.460000       14.0070           0
     18402 WT8      442      MECN     C1       CG331   -0.170000       12.0110           0
     18403 WT8      442      MECN     H11      HGA3     0.090000        1.0080           0
     18404 WT8      442      MECN     H12      HGA3     0.090000        1.0080           0
     18405 WT8      442      MECN     H13      HGA3     0.090000        1.0080           0
     18406 WT8      442      MECN     C2       CG1N1    0.360000       12.0110           0
     18407 WT8      442      MECN     N3       NG1T1   -0.460000       14.0070           0
     18408 WT8      444      MECN     C1       CG331   -0.170000       12.0110           0
     18409 WT8      444      MECN     H11      HGA3     0.090000        1.0080           0
     18410 WT8      444      MECN     H12      HGA3     0.090000        1.0080           0
     18411 WT8      444      MECN     H13      HGA3     0.090000        1.0080           0
     18412 WT8      444      MECN     C2       CG1N1    0.360000       12.0110           0
     18413 WT8      444      MECN     N3       NG1T1   -0.460000       14.0070           0
     18414 WT8      447      MECN     C1       CG331   -0.170000       12.0110           0
     18415 WT8      447      MECN     H11      HGA3     0.090000        1.0080           0
     18416 WT8      447      MECN     H12      HGA3     0.090000        1.0080           0
     18417 WT8      447      MECN     H13      HGA3     0.090000        1.0080           0
     18418 WT8      447      MECN     C2       CG1N1    0.360000       12.0110           0
     18419 WT8      447      MECN     N3       NG1T1   -0.460000       14.0070           0
     18420 WT8      459      MECN     C1       CG331   -0.170000       12.0110           0
     18421 WT8      459      MECN     H11      HGA3     0.090000        1.0080           0
     18422 WT8      459      MECN     H12      HGA3     0.090000        1.0080           0
     18423 WT8      459      MECN     H13      HGA3     0.090000        1.0080           0
     18424 WT8      459      MECN     C2       CG1N1    0.360000       12.0110           0
     18425 WT8      459      MECN     N3       NG1T1   -0.460000       14.0070           0
     18426 WT8      460      MECN     C1       CG331   -0.170000       12.0110           0
     18427 WT8      460      MECN     H11      HGA3     0.090000        1.0080           0
     18428 WT8      460      MECN     H12      HGA3     0.090000        1.0080           0
     18429 WT8      460      MECN     H13      HGA3     0.090000        1.0080           0
     18430 WT8      460      MECN     C2       CG1N1    0.360000       12.0110           0
     18431 WT8      460      MECN     N3       NG1T1   -0.460000       14.0070           0
     18432 WT8      463      MECN     C1       CG331   -0.170000       12.0110           0
     18433 WT8      463      MECN     H11      HGA3     0.090000        1.0080           0
     18434 WT8      463      MECN     H12      HGA3     0.090000        1.0080           0
     18435 WT8      463      MECN     H13      HGA3     0.090000        1.0080           0
     18436 WT8      463      MECN     C2       CG1N1    0.360000       12.0110           0
     18437 WT8      463      MECN     N3       NG1T1   -0.460000       14.0070           0
     18438 WT8      465      MECN     C1       CG331   -0.170000       12.0110           0
     18439 WT8      465      MECN     H11      HGA3     0.090000        1.0080           0
     18440 WT8      465      MECN     H12      HGA3     0.090000        1.0080           0
     18441 WT8      465      MECN     H13      HGA3     0.090000        1.0080           0
     18442 WT8      465      MECN     C2       CG1N1    0.360000       12.0110           0
     18443 WT8      465      MECN     N3       NG1T1   -0.460000       14.0070           0
     18444 WT8      469      MECN     C1       CG331   -0.170000       12.0110           0
     18445 WT8      469      MECN     H11      HGA3     0.090000        1.0080           0
     18446 WT8      469      MECN     H12      HGA3     0.090000        1.0080           0
     18447 WT8      469      MECN     H13      HGA3     0.090000        1.0080           0
     18448 WT8      469      MECN     C2       CG1N1    0.360000       12.0110           0
     18449 WT8      469      MECN     N3       NG1T1   -0.460000       14.0070           0
     18450 WT8      473      MECN     C1       CG331   -0.170000       12.0110           0
     18451 WT8      473      MECN     H11      HGA3     0.090000        1.0080           0
     18452 WT8      473      MECN     H12      HGA3     0.090000        1.0080           0
     18453 WT8      473      MECN     H13      HGA3     0.090000        1.0080           0
     18454 WT8      473      MECN     C2       CG1N1    0.360000       12.0110           0
     18455 WT8      473      MECN     N3       NG1T1   -0.460000       14.0070           0
     18456 WT8      478      MECN     C1       CG331   -0.170000       12.0110           0
     18457 WT8      478      MECN     H11      HGA3     0.090000        1.0080           0
     18458 WT8      478      MECN     H12      HGA3     0.090000        1.0080           0
     18459 WT8      478      MECN     H13      HGA3     0.090000        1.0080           0
     18460 WT8      478      MECN     C2       CG1N1    0.360000       12.0110           0
     18461 WT8      478      MECN     N3       NG1T1   -0.460000       14.0070           0
     18462 WT8      487      MECN     C1       CG331   -0.170000       12.0110           0
     18463 WT8      487      MECN     H11      HGA3     0.090000        1.0080           0
     18464 WT8      487      MECN     H12      HGA3     0.090000        1.0080           0
     18465 WT8      487      MECN     H13      HGA3     0.090000        1.0080           0
     18466 WT8      487      MECN     C2       CG1N1    0.360000       12.0110           0
     18467 WT8      487      MECN     N3       NG1T1   -0.460000       14.0070           0
     18468 WT8      500      MECN     C1       CG331   -0.170000       12.0110           0
     18469 WT8      500      MECN     H11      HGA3     0.090000        1.0080           0
     18470 WT8      500      MECN     H12      HGA3     0.090000        1.0080           0
     18471 WT8      500      MECN     H13      HGA3     0.090000        1.0080           0
     18472 WT8      500      MECN     C2       CG1N1    0.360000       12.0110           0
     18473 WT8      500      MECN     N3       NG1T1   -0.460000       14.0070           0
     18474 WT8      512      MECN     C1       CG331   -0.170000       12.0110           0
     18475 WT8      512      MECN     H11      HGA3     0.090000        1.0080           0
     18476 WT8      512      MECN     H12      HGA3     0.090000        1.0080           0
     18477 WT8      512      MECN     H13      HGA3     0.090000        1.0080           0
     18478 WT8      512      MECN     C2       CG1N1    0.360000       12.0110           0
     18479 WT8      512      MECN     N3       NG1T1   -0.460000       14.0070           0
     18480 WT8      513      MECN     C1       CG331   -0.170000       12.0110           0
     18481 WT8      513      MECN     H11      HGA3     0.090000        1.0080           0
     18482 WT8      513      MECN     H12      HGA3     0.090000        1.0080           0
     18483 WT8      513      MECN     H13      HGA3     0.090000        1.0080           0
     18484 WT8      513      MECN     C2       CG1N1    0.360000       12.0110           0
     18485 WT8      513      MECN     N3       NG1T1   -0.460000       14.0070           0
     18486 WT8      517      MECN     C1       CG331   -0.170000       12.0110           0
     18487 WT8      517      MECN     H11      HGA3     0.090000        1.0080           0
     18488 WT8      517      MECN     H12      HGA3     0.090000        1.0080           0
     18489 WT8      517      MECN     H13      HGA3     0.090000        1.0080           0
     18490 WT8      517      MECN     C2       CG1N1    0.360000       12.0110           0
     18491 WT8      517      MECN     N3       NG1T1   -0.460000       14.0070           0
     18492 WT8      521      MECN     C1       CG331   -0.170000       12.0110           0
     18493 WT8      521      MECN     H11      HGA3     0.090000        1.0080           0
     18494 WT8      521      MECN     H12      HGA3     0.090000        1.0080           0
     18495 WT8      521      MECN     H13      HGA3     0.090000        1.0080           0
     18496 WT8      521      MECN     C2       CG1N1    0.360000       12.0110           0
     18497 WT8      521      MECN     N3       NG1T1   -0.460000       14.0070           0
     18498 WT8      524      MECN     C1       CG331   -0.170000       12.0110           0
     18499 WT8      524      MECN     H11      HGA3     0.090000        1.0080           0
     18500 WT8      524      MECN     H12      HGA3     0.090000        1.0080           0
     18501 WT8      524      MECN     H13      HGA3     0.090000        1.0080           0
     18502 WT8      524      MECN     C2       CG1N1    0.360000       12.0110           0
     18503 WT8      524      MECN     N3       NG1T1   -0.460000       14.0070           0
     18504 WT8      527      MECN     C1       CG331   -0.170000       12.0110           0
     18505 WT8      527      MECN     H11      HGA3     0.090000        1.0080           0
     18506 WT8      527      MECN     H12      HGA3     0.090000        1.0080           0
     18507 WT8      527      MECN     H13      HGA3     0.090000        1.0080           0
     18508 WT8      527      MECN     C2       CG1N1    0.360000       12.0110           0
     18509 WT8      527      MECN     N3       NG1T1   -0.460000       14.0070           0
     18510 WT8      544      MECN     C1       CG331   -0.170000       12.0110           0
     18511 WT8      544      MECN     H11      HGA3     0.090000        1.0080           0
     18512 WT8      544      MECN     H12      HGA3     0.090000        1.0080           0
     18513 WT8      544      MECN     H13      HGA3     0.090000        1.0080           0
     18514 WT8      544      MECN     C2       CG1N1    0.360000       12.0110           0
     18515 WT8      544      MECN     N3       NG1T1   -0.460000       14.0070           0
     18516 WT8      549      MECN     C1       CG331   -0.170000       12.0110           0
     18517 WT8      549      MECN     H11      HGA3     0.090000        1.0080           0
     18518 WT8      549      MECN     H12      HGA3     0.090000        1.0080           0
     18519 WT8      549      MECN     H13      HGA3     0.090000        1.0080           0
     18520 WT8      549      MECN     C2       CG1N1    0.360000       12.0110           0
     18521 WT8      549      MECN     N3       NG1T1   -0.460000       14.0070           0
     18522 WT8      556      MECN     C1       CG331   -0.170000       12.0110           0
     18523 WT8      556      MECN     H11      HGA3     0.090000        1.0080           0
     18524 WT8      556      MECN     H12      HGA3     0.090000        1.0080           0
     18525 WT8      556      MECN     H13      HGA3     0.090000        1.0080           0
     18526 WT8      556      MECN     C2       CG1N1    0.360000       12.0110           0
     18527 WT8      556      MECN     N3       NG1T1   -0.460000       14.0070           0
     18528 WT8      558      MECN     C1       CG331   -0.170000       12.0110           0
     18529 WT8      558      MECN     H11      HGA3     0.090000        1.0080           0
     18530 WT8      558      MECN     H12      HGA3     0.090000        1.0080           0
     18531 WT8      558      MECN     H13      HGA3     0.090000        1.0080           0
     18532 WT8      558      MECN     C2       CG1N1    0.360000       12.0110           0
     18533 WT8      558      MECN     N3       NG1T1   -0.460000       14.0070           0
     18534 WT8      563      MECN     C1       CG331   -0.170000       12.0110           0
     18535 WT8      563      MECN     H11      HGA3     0.090000        1.0080           0
     18536 WT8      563      MECN     H12      HGA3     0.090000        1.0080           0
     18537 WT8      563      MECN     H13      HGA3     0.090000        1.0080           0
     18538 WT8      563      MECN     C2       CG1N1    0.360000       12.0110           0
     18539 WT8      563      MECN     N3       NG1T1   -0.460000       14.0070           0
     18540 WT8      565      MECN     C1       CG331   -0.170000       12.0110           0
     18541 WT8      565      MECN     H11      HGA3     0.090000        1.0080           0
     18542 WT8      565      MECN     H12      HGA3     0.090000        1.0080           0
     18543 WT8      565      MECN     H13      HGA3     0.090000        1.0080           0
     18544 WT8      565      MECN     C2       CG1N1    0.360000       12.0110           0
     18545 WT8      565      MECN     N3       NG1T1   -0.460000       14.0070           0
     18546 WT8      566      MECN     C1       CG331   -0.170000       12.0110           0
     18547 WT8      566      MECN     H11      HGA3     0.090000        1.0080           0
     18548 WT8      566      MECN     H12      HGA3     0.090000        1.0080           0
     18549 WT8      566      MECN     H13      HGA3     0.090000        1.0080           0
     18550 WT8      566      MECN     C2       CG1N1    0.360000       12.0110           0
     18551 WT8      566      MECN     N3       NG1T1   -0.460000       14.0070           0
     18552 WT8      567      MECN     C1       CG331   -0.170000       12.0110           0
     18553 WT8      567      MECN     H11      HGA3     0.090000        1.0080           0
     18554 WT8      567      MECN     H12      HGA3     0.090000        1.0080           0
     18555 WT8      567      MECN     H13      HGA3     0.090000        1.0080           0
     18556 WT8      567      MECN     C2       CG1N1    0.360000       12.0110           0
     18557 WT8      567      MECN     N3       NG1T1   -0.460000       14.0070           0
     18558 WT8      568      MECN     C1       CG331   -0.170000       12.0110           0
     18559 WT8      568      MECN     H11      HGA3     0.090000        1.0080           0
     18560 WT8      568      MECN     H12      HGA3     0.090000        1.0080           0
     18561 WT8      568      MECN     H13      HGA3     0.090000        1.0080           0
     18562 WT8      568      MECN     C2       CG1N1    0.360000       12.0110           0
     18563 WT8      568      MECN     N3       NG1T1   -0.460000       14.0070           0
     18564 WT8      570      MECN     C1       CG331   -0.170000       12.0110           0
     18565 WT8      570      MECN     H11      HGA3     0.090000        1.0080           0
     18566 WT8      570      MECN     H12      HGA3     0.090000        1.0080           0
     18567 WT8      570      MECN     H13      HGA3     0.090000        1.0080           0
     18568 WT8      570      MECN     C2       CG1N1    0.360000       12.0110           0
     18569 WT8      570      MECN     N3       NG1T1   -0.460000       14.0070           0
     18570 WT8      572      MECN     C1       CG331   -0.170000       12.0110           0
     18571 WT8      572      MECN     H11      HGA3     0.090000        1.0080           0
     18572 WT8      572      MECN     H12      HGA3     0.090000        1.0080           0
     18573 WT8      572      MECN     H13      HGA3     0.090000        1.0080           0
     18574 WT8      572      MECN     C2       CG1N1    0.360000       12.0110           0
     18575 WT8      572      MECN     N3       NG1T1   -0.460000       14.0070           0
     18576 WT8      574      MECN     C1       CG331   -0.170000       12.0110           0
     18577 WT8      574      MECN     H11      HGA3     0.090000        1.0080           0
     18578 WT8      574      MECN     H12      HGA3     0.090000        1.0080           0
     18579 WT8      574      MECN     H13      HGA3     0.090000        1.0080           0
     18580 WT8      574      MECN     C2       CG1N1    0.360000       12.0110           0
     18581 WT8      574      MECN     N3       NG1T1   -0.460000       14.0070           0
     18582 WT8      576      MECN     C1       CG331   -0.170000       12.0110           0
     18583 WT8      576      MECN     H11      HGA3     0.090000        1.0080           0
     18584 WT8      576      MECN     H12      HGA3     0.090000        1.0080           0
     18585 WT8      576      MECN     H13      HGA3     0.090000        1.0080           0
     18586 WT8      576      MECN     C2       CG1N1    0.360000       12.0110           0
     18587 WT8      576      MECN     N3       NG1T1   -0.460000       14.0070           0
     18588 WT8      581      MECN     C1       CG331   -0.170000       12.0110           0
     18589 WT8      581      MECN     H11      HGA3     0.090000        1.0080           0
     18590 WT8      581      MECN     H12      HGA3     0.090000        1.0080           0
     18591 WT8      581      MECN     H13      HGA3     0.090000        1.0080           0
     18592 WT8      581      MECN     C2       CG1N1    0.360000       12.0110           0
     18593 WT8      581      MECN     N3       NG1T1   -0.460000       14.0070           0
     18594 WT8      584      MECN     C1       CG331   -0.170000       12.0110           0
     18595 WT8      584      MECN     H11      HGA3     0.090000        1.0080           0
     18596 WT8      584      MECN     H12      HGA3     0.090000        1.0080           0
     18597 WT8      584      MECN     H13      HGA3     0.090000        1.0080           0
     18598 WT8      584      MECN     C2       CG1N1    0.360000       12.0110           0
     18599 WT8      584      MECN     N3       NG1T1   -0.460000       14.0070           0
     18600 WT8      591      MECN     C1       CG331   -0.170000       12.0110           0
     18601 WT8      591      MECN     H11      HGA3     0.090000        1.0080           0
     18602 WT8      591      MECN     H12      HGA3     0.090000        1.0080           0
     18603 WT8      591      MECN     H13      HGA3     0.090000        1.0080           0
     18604 WT8      591      MECN     C2       CG1N1    0.360000       12.0110           0
     18605 WT8      591      MECN     N3       NG1T1   -0.460000       14.0070           0
     18606 WT8      594      MECN     C1       CG331   -0.170000       12.0110           0
     18607 WT8      594      MECN     H11      HGA3     0.090000        1.0080           0
     18608 WT8      594      MECN     H12      HGA3     0.090000        1.0080           0
     18609 WT8      594      MECN     H13      HGA3     0.090000        1.0080           0
     18610 WT8      594      MECN     C2       CG1N1    0.360000       12.0110           0
     18611 WT8      594      MECN     N3       NG1T1   -0.460000       14.0070           0
     18612 WT8      596      MECN     C1       CG331   -0.170000       12.0110           0
     18613 WT8      596      MECN     H11      HGA3     0.090000        1.0080           0
     18614 WT8      596      MECN     H12      HGA3     0.090000        1.0080           0
     18615 WT8      596      MECN     H13      HGA3     0.090000        1.0080           0
     18616 WT8      596      MECN     C2       CG1N1    0.360000       12.0110           0
     18617 WT8      596      MECN     N3       NG1T1   -0.460000       14.0070           0
     18618 WT8      599      MECN     C1       CG331   -0.170000       12.0110           0
     18619 WT8      599      MECN     H11      HGA3     0.090000        1.0080           0
     18620 WT8      599      MECN     H12      HGA3     0.090000        1.0080           0
     18621 WT8      599      MECN     H13      HGA3     0.090000        1.0080           0
     18622 WT8      599      MECN     C2       CG1N1    0.360000       12.0110           0
     18623 WT8      599      MECN     N3       NG1T1   -0.460000       14.0070           0
     18624 WT8      601      MECN     C1       CG331   -0.170000       12.0110           0
     18625 WT8      601      MECN     H11      HGA3     0.090000        1.0080           0
     18626 WT8      601      MECN     H12      HGA3     0.090000        1.0080           0
     18627 WT8      601      MECN     H13      HGA3     0.090000        1.0080           0
     18628 WT8      601      MECN     C2       CG1N1    0.360000       12.0110           0
     18629 WT8      601      MECN     N3       NG1T1   -0.460000       14.0070           0
     18630 WT8      603      MECN     C1       CG331   -0.170000       12.0110           0
     18631 WT8      603      MECN     H11      HGA3     0.090000        1.0080           0
     18632 WT8      603      MECN     H12      HGA3     0.090000        1.0080           0
     18633 WT8      603      MECN     H13      HGA3     0.090000        1.0080           0
     18634 WT8      603      MECN     C2       CG1N1    0.360000       12.0110           0
     18635 WT8      603      MECN     N3       NG1T1   -0.460000       14.0070           0
     18636 WT8      606      MECN     C1       CG331   -0.170000       12.0110           0
     18637 WT8      606      MECN     H11      HGA3     0.090000        1.0080           0
     18638 WT8      606      MECN     H12      HGA3     0.090000        1.0080           0
     18639 WT8      606      MECN     H13      HGA3     0.090000        1.0080           0
     18640 WT8      606      MECN     C2       CG1N1    0.360000       12.0110           0
     18641 WT8      606      MECN     N3       NG1T1   -0.460000       14.0070           0
     18642 WT8      609      MECN     C1       CG331   -0.170000       12.0110           0
     18643 WT8      609      MECN     H11      HGA3     0.090000        1.0080           0
     18644 WT8      609      MECN     H12      HGA3     0.090000        1.0080           0
     18645 WT8      609      MECN     H13      HGA3     0.090000        1.0080           0
     18646 WT8      609      MECN     C2       CG1N1    0.360000       12.0110           0
     18647 WT8      609      MECN     N3       NG1T1   -0.460000       14.0070           0
     18648 WT8      610      MECN     C1       CG331   -0.170000       12.0110           0
     18649 WT8      610      MECN     H11      HGA3     0.090000        1.0080           0
     18650 WT8      610      MECN     H12      HGA3     0.090000        1.0080           0
     18651 WT8      610      MECN     H13      HGA3     0.090000        1.0080           0
     18652 WT8      610      MECN     C2       CG1N1    0.360000       12.0110           0
     18653 WT8      610      MECN     N3       NG1T1   -0.460000       14.0070           0
     18654 WT8      611      MECN     C1       CG331   -0.170000       12.0110           0
     18655 WT8      611      MECN     H11      HGA3     0.090000        1.0080           0
     18656 WT8      611      MECN     H12      HGA3     0.090000        1.0080           0
     18657 WT8      611      MECN     H13      HGA3     0.090000        1.0080           0
     18658 WT8      611      MECN     C2       CG1N1    0.360000       12.0110           0
     18659 WT8      611      MECN     N3       NG1T1   -0.460000       14.0070           0
     18660 WT8      614      MECN     C1       CG331   -0.170000       12.0110           0
     18661 WT8      614      MECN     H11      HGA3     0.090000        1.0080           0
     18662 WT8      614      MECN     H12      HGA3     0.090000        1.0080           0
     18663 WT8      614      MECN     H13      HGA3     0.090000        1.0080           0
     18664 WT8      614      MECN     C2       CG1N1    0.360000       12.0110           0
     18665 WT8      614      MECN     N3       NG1T1   -0.460000       14.0070           0
     18666 WT8      616      MECN     C1       CG331   -0.170000       12.0110           0
     18667 WT8      616      MECN     H11      HGA3     0.090000        1.0080           0
     18668 WT8      616      MECN     H12      HGA3     0.090000        1.0080           0
     18669 WT8      616      MECN     H13      HGA3     0.090000        1.0080           0
     18670 WT8      616      MECN     C2       CG1N1    0.360000       12.0110           0
     18671 WT8      616      MECN     N3       NG1T1   -0.460000       14.0070           0
     18672 WT8      617      MECN     C1       CG331   -0.170000       12.0110           0
     18673 WT8      617      MECN     H11      HGA3     0.090000        1.0080           0
     18674 WT8      617      MECN     H12      HGA3     0.090000        1.0080           0
     18675 WT8      617      MECN     H13      HGA3     0.090000        1.0080           0
     18676 WT8      617      MECN     C2       CG1N1    0.360000       12.0110           0
     18677 WT8      617      MECN     N3       NG1T1   -0.460000       14.0070           0
     18678 WT8      625      MECN     C1       CG331   -0.170000       12.0110           0
     18679 WT8      625      MECN     H11      HGA3     0.090000        1.0080           0
     18680 WT8      625      MECN     H12      HGA3     0.090000        1.0080           0
     18681 WT8      625      MECN     H13      HGA3     0.090000        1.0080           0
     18682 WT8      625      MECN     C2       CG1N1    0.360000       12.0110           0
     18683 WT8      625      MECN     N3       NG1T1   -0.460000       14.0070           0
     18684 WT8      628      MECN     C1       CG331   -0.170000       12.0110           0
     18685 WT8      628      MECN     H11      HGA3     0.090000        1.0080           0
     18686 WT8      628      MECN     H12      HGA3     0.090000        1.0080           0
     18687 WT8      628      MECN     H13      HGA3     0.090000        1.0080           0
     18688 WT8      628      MECN     C2       CG1N1    0.360000       12.0110           0
     18689 WT8      628      MECN     N3       NG1T1   -0.460000       14.0070           0
     18690 WT8      630      MECN     C1       CG331   -0.170000       12.0110           0
     18691 WT8      630      MECN     H11      HGA3     0.090000        1.0080           0
     18692 WT8      630      MECN     H12      HGA3     0.090000        1.0080           0
     18693 WT8      630      MECN     H13      HGA3     0.090000        1.0080           0
     18694 WT8      630      MECN     C2       CG1N1    0.360000       12.0110           0
     18695 WT8      630      MECN     N3       NG1T1   -0.460000       14.0070           0
     18696 WT8      633      MECN     C1       CG331   -0.170000       12.0110           0
     18697 WT8      633      MECN     H11      HGA3     0.090000        1.0080           0
     18698 WT8      633      MECN     H12      HGA3     0.090000        1.0080           0
     18699 WT8      633      MECN     H13      HGA3     0.090000        1.0080           0
     18700 WT8      633      MECN     C2       CG1N1    0.360000       12.0110           0
     18701 WT8      633      MECN     N3       NG1T1   -0.460000       14.0070           0
     18702 WT8      638      MECN     C1       CG331   -0.170000       12.0110           0
     18703 WT8      638      MECN     H11      HGA3     0.090000        1.0080           0
     18704 WT8      638      MECN     H12      HGA3     0.090000        1.0080           0
     18705 WT8      638      MECN     H13      HGA3     0.090000        1.0080           0
     18706 WT8      638      MECN     C2       CG1N1    0.360000       12.0110           0
     18707 WT8      638      MECN     N3       NG1T1   -0.460000       14.0070           0
     18708 WT8      641      MECN     C1       CG331   -0.170000       12.0110           0
     18709 WT8      641      MECN     H11      HGA3     0.090000        1.0080           0
     18710 WT8      641      MECN     H12      HGA3     0.090000        1.0080           0
     18711 WT8      641      MECN     H13      HGA3     0.090000        1.0080           0
     18712 WT8      641      MECN     C2       CG1N1    0.360000       12.0110           0
     18713 WT8      641      MECN     N3       NG1T1   -0.460000       14.0070           0
     18714 WT8      644      MECN     C1       CG331   -0.170000       12.0110           0
     18715 WT8      644      MECN     H11      HGA3     0.090000        1.0080           0
     18716 WT8      644      MECN     H12      HGA3     0.090000        1.0080           0
     18717 WT8      644      MECN     H13      HGA3     0.090000        1.0080           0
     18718 WT8      644      MECN     C2       CG1N1    0.360000       12.0110           0
     18719 WT8      644      MECN     N3       NG1T1   -0.460000       14.0070           0
     18720 WT8      646      MECN     C1       CG331   -0.170000       12.0110           0
     18721 WT8      646      MECN     H11      HGA3     0.090000        1.0080           0
     18722 WT8      646      MECN     H12      HGA3     0.090000        1.0080           0
     18723 WT8      646      MECN     H13      HGA3     0.090000        1.0080           0
     18724 WT8      646      MECN     C2       CG1N1    0.360000       12.0110           0
     18725 WT8      646      MECN     N3       NG1T1   -0.460000       14.0070           0
     18726 WT8      655      MECN     C1       CG331   -0.170000       12.0110           0
     18727 WT8      655      MECN     H11      HGA3     0.090000        1.0080           0
     18728 WT8      655      MECN     H12      HGA3     0.090000        1.0080           0
     18729 WT8      655      MECN     H13      HGA3     0.090000        1.0080           0
     18730 WT8      655      MECN     C2       CG1N1    0.360000       12.0110           0
     18731 WT8      655      MECN     N3       NG1T1   -0.460000       14.0070           0
     18732 WT8      656      MECN     C1       CG331   -0.170000       12.0110           0
     18733 WT8      656      MECN     H11      HGA3     0.090000        1.0080           0
     18734 WT8      656      MECN     H12      HGA3     0.090000        1.0080           0
     18735 WT8      656      MECN     H13      HGA3     0.090000        1.0080           0
     18736 WT8      656      MECN     C2       CG1N1    0.360000       12.0110           0
     18737 WT8      656      MECN     N3       NG1T1   -0.460000       14.0070           0
     18738 WT8      657      MECN     C1       CG331   -0.170000       12.0110           0
     18739 WT8      657      MECN     H11      HGA3     0.090000        1.0080           0
     18740 WT8      657      MECN     H12      HGA3     0.090000        1.0080           0
     18741 WT8      657      MECN     H13      HGA3     0.090000        1.0080           0
     18742 WT8      657      MECN     C2       CG1N1    0.360000       12.0110           0
     18743 WT8      657      MECN     N3       NG1T1   -0.460000       14.0070           0
     18744 WT8      664      MECN     C1       CG331   -0.170000       12.0110           0
     18745 WT8      664      MECN     H11      HGA3     0.090000        1.0080           0
     18746 WT8      664      MECN     H12      HGA3     0.090000        1.0080           0
     18747 WT8      664      MECN     H13      HGA3     0.090000        1.0080           0
     18748 WT8      664      MECN     C2       CG1N1    0.360000       12.0110           0
     18749 WT8      664      MECN     N3       NG1T1   -0.460000       14.0070           0
     18750 WT8      667      MECN     C1       CG331   -0.170000       12.0110           0
     18751 WT8      667      MECN     H11      HGA3     0.090000        1.0080           0
     18752 WT8      667      MECN     H12      HGA3     0.090000        1.0080           0
     18753 WT8      667      MECN     H13      HGA3     0.090000        1.0080           0
     18754 WT8      667      MECN     C2       CG1N1    0.360000       12.0110           0
     18755 WT8      667      MECN     N3       NG1T1   -0.460000       14.0070           0
     18756 WT8      668      MECN     C1       CG331   -0.170000       12.0110           0
     18757 WT8      668      MECN     H11      HGA3     0.090000        1.0080           0
     18758 WT8      668      MECN     H12      HGA3     0.090000        1.0080           0
     18759 WT8      668      MECN     H13      HGA3     0.090000        1.0080           0
     18760 WT8      668      MECN     C2       CG1N1    0.360000       12.0110           0
     18761 WT8      668      MECN     N3       NG1T1   -0.460000       14.0070           0
     18762 WT8      672      MECN     C1       CG331   -0.170000       12.0110           0
     18763 WT8      672      MECN     H11      HGA3     0.090000        1.0080           0
     18764 WT8      672      MECN     H12      HGA3     0.090000        1.0080           0
     18765 WT8      672      MECN     H13      HGA3     0.090000        1.0080           0
     18766 WT8      672      MECN     C2       CG1N1    0.360000       12.0110           0
     18767 WT8      672      MECN     N3       NG1T1   -0.460000       14.0070           0
     18768 WT8      677      MECN     C1       CG331   -0.170000       12.0110           0
     18769 WT8      677      MECN     H11      HGA3     0.090000        1.0080           0
     18770 WT8      677      MECN     H12      HGA3     0.090000        1.0080           0
     18771 WT8      677      MECN     H13      HGA3     0.090000        1.0080           0
     18772 WT8      677      MECN     C2       CG1N1    0.360000       12.0110           0
     18773 WT8      677      MECN     N3       NG1T1   -0.460000       14.0070           0
     18774 WT8      678      MECN     C1       CG331   -0.170000       12.0110           0
     18775 WT8      678      MECN     H11      HGA3     0.090000        1.0080           0
     18776 WT8      678      MECN     H12      HGA3     0.090000        1.0080           0
     18777 WT8      678      MECN     H13      HGA3     0.090000        1.0080           0
     18778 WT8      678      MECN     C2       CG1N1    0.360000       12.0110           0
     18779 WT8      678      MECN     N3       NG1T1   -0.460000       14.0070           0
     18780 WT8      681      MECN     C1       CG331   -0.170000       12.0110           0
     18781 WT8      681      MECN     H11      HGA3     0.090000        1.0080           0
     18782 WT8      681      MECN     H12      HGA3     0.090000        1.0080           0
     18783 WT8      681      MECN     H13      HGA3     0.090000        1.0080           0
     18784 WT8      681      MECN     C2       CG1N1    0.360000       12.0110           0
     18785 WT8      681      MECN     N3       NG1T1   -0.460000       14.0070           0
     18786 WT8      687      MECN     C1       CG331   -0.170000       12.0110           0
     18787 WT8      687      MECN     H11      HGA3     0.090000        1.0080           0
     18788 WT8      687      MECN     H12      HGA3     0.090000        1.0080           0
     18789 WT8      687      MECN     H13      HGA3     0.090000        1.0080           0
     18790 WT8      687      MECN     C2       CG1N1    0.360000       12.0110           0
     18791 WT8      687      MECN     N3       NG1T1   -0.460000       14.0070           0
     18792 WT8      689      MECN     C1       CG331   -0.170000       12.0110           0
     18793 WT8      689      MECN     H11      HGA3     0.090000        1.0080           0
     18794 WT8      689      MECN     H12      HGA3     0.090000        1.0080           0
     18795 WT8      689      MECN     H13      HGA3     0.090000        1.0080           0
     18796 WT8      689      MECN     C2       CG1N1    0.360000       12.0110           0
     18797 WT8      689      MECN     N3       NG1T1   -0.460000       14.0070           0
     18798 WT8      691      MECN     C1       CG331   -0.170000       12.0110           0
     18799 WT8      691      MECN     H11      HGA3     0.090000        1.0080           0
     18800 WT8      691      MECN     H12      HGA3     0.090000        1.0080           0
     18801 WT8      691      MECN     H13      HGA3     0.090000        1.0080           0
     18802 WT8      691      MECN     C2       CG1N1    0.360000       12.0110           0
     18803 WT8      691      MECN     N3       NG1T1   -0.460000       14.0070           0
     18804 WT8      695      MECN     C1       CG331   -0.170000       12.0110           0
     18805 WT8      695      MECN     H11      HGA3     0.090000        1.0080           0
     18806 WT8      695      MECN     H12      HGA3     0.090000        1.0080           0
     18807 WT8      695      MECN     H13      HGA3     0.090000        1.0080           0
     18808 WT8      695      MECN     C2       CG1N1    0.360000       12.0110           0
     18809 WT8      695      MECN     N3       NG1T1   -0.460000       14.0070           0
     18810 WT8      696      MECN     C1       CG331   -0.170000       12.0110           0
     18811 WT8      696      MECN     H11      HGA3     0.090000        1.0080           0
     18812 WT8      696      MECN     H12      HGA3     0.090000        1.0080           0
     18813 WT8      696      MECN     H13      HGA3     0.090000        1.0080           0
     18814 WT8      696      MECN     C2       CG1N1    0.360000       12.0110           0
     18815 WT8      696      MECN     N3       NG1T1   -0.460000       14.0070           0
     18816 WT8      703      MECN     C1       CG331   -0.170000       12.0110           0
     18817 WT8      703      MECN     H11      HGA3     0.090000        1.0080           0
     18818 WT8      703      MECN     H12      HGA3     0.090000        1.0080           0
     18819 WT8      703      MECN     H13      HGA3     0.090000        1.0080           0
     18820 WT8      703      MECN     C2       CG1N1    0.360000       12.0110           0
     18821 WT8      703      MECN     N3       NG1T1   -0.460000       14.0070           0
     18822 WT8      705      MECN     C1       CG331   -0.170000       12.0110           0
     18823 WT8      705      MECN     H11      HGA3     0.090000        1.0080           0
     18824 WT8      705      MECN     H12      HGA3     0.090000        1.0080           0
     18825 WT8      705      MECN     H13      HGA3     0.090000        1.0080           0
     18826 WT8      705      MECN     C2       CG1N1    0.360000       12.0110           0
     18827 WT8      705      MECN     N3       NG1T1   -0.460000       14.0070           0
     18828 WT8      707      MECN     C1       CG331   -0.170000       12.0110           0
     18829 WT8      707      MECN     H11      HGA3     0.090000        1.0080           0
     18830 WT8      707      MECN     H12      HGA3     0.090000        1.0080           0
     18831 WT8      707      MECN     H13      HGA3     0.090000        1.0080           0
     18832 WT8      707      MECN     C2       CG1N1    0.360000       12.0110           0
     18833 WT8      707      MECN     N3       NG1T1   -0.460000       14.0070           0
     18834 WT8      711      MECN     C1       CG331   -0.170000       12.0110           0
     18835 WT8      711      MECN     H11      HGA3     0.090000        1.0080           0
     18836 WT8      711      MECN     H12      HGA3     0.090000        1.0080           0
     18837 WT8      711      MECN     H13      HGA3     0.090000        1.0080           0
     18838 WT8      711      MECN     C2       CG1N1    0.360000       12.0110           0
     18839 WT8      711      MECN     N3       NG1T1   -0.460000       14.0070           0
     18840 WT8      718      MECN     C1       CG331   -0.170000       12.0110           0
     18841 WT8      718      MECN     H11      HGA3     0.090000        1.0080           0
     18842 WT8      718      MECN     H12      HGA3     0.090000        1.0080           0
     18843 WT8      718      MECN     H13      HGA3     0.090000        1.0080           0
     18844 WT8      718      MECN     C2       CG1N1    0.360000       12.0110           0
     18845 WT8      718      MECN     N3       NG1T1   -0.460000       14.0070           0
     18846 WT8      719      MECN     C1       CG331   -0.170000       12.0110           0
     18847 WT8      719      MECN     H11      HGA3     0.090000        1.0080           0
     18848 WT8      719      MECN     H12      HGA3     0.090000        1.0080           0
     18849 WT8      719      MECN     H13      HGA3     0.090000        1.0080           0
     18850 WT8      719      MECN     C2       CG1N1    0.360000       12.0110           0
     18851 WT8      719      MECN     N3       NG1T1   -0.460000       14.0070           0
     18852 WT8      724      MECN     C1       CG331   -0.170000       12.0110           0
     18853 WT8      724      MECN     H11      HGA3     0.090000        1.0080           0
     18854 WT8      724      MECN     H12      HGA3     0.090000        1.0080           0
     18855 WT8      724      MECN     H13      HGA3     0.090000        1.0080           0
     18856 WT8      724      MECN     C2       CG1N1    0.360000       12.0110           0
     18857 WT8      724      MECN     N3       NG1T1   -0.460000       14.0070           0
     18858 WT8      725      MECN     C1       CG331   -0.170000       12.0110           0
     18859 WT8      725      MECN     H11      HGA3     0.090000        1.0080           0
     18860 WT8      725      MECN     H12      HGA3     0.090000        1.0080           0
     18861 WT8      725      MECN     H13      HGA3     0.090000        1.0080           0
     18862 WT8      725      MECN     C2       CG1N1    0.360000       12.0110           0
     18863 WT8      725      MECN     N3       NG1T1   -0.460000       14.0070           0
     18864 WT8      727      MECN     C1       CG331   -0.170000       12.0110           0
     18865 WT8      727      MECN     H11      HGA3     0.090000        1.0080           0
     18866 WT8      727      MECN     H12      HGA3     0.090000        1.0080           0
     18867 WT8      727      MECN     H13      HGA3     0.090000        1.0080           0
     18868 WT8      727      MECN     C2       CG1N1    0.360000       12.0110           0
     18869 WT8      727      MECN     N3       NG1T1   -0.460000       14.0070           0
     18870 WT8      736      MECN     C1       CG331   -0.170000       12.0110           0
     18871 WT8      736      MECN     H11      HGA3     0.090000        1.0080           0
     18872 WT8      736      MECN     H12      HGA3     0.090000        1.0080           0
     18873 WT8      736      MECN     H13      HGA3     0.090000        1.0080           0
     18874 WT8      736      MECN     C2       CG1N1    0.360000       12.0110           0
     18875 WT8      736      MECN     N3       NG1T1   -0.460000       14.0070           0
     18876 WT8      738      MECN     C1       CG331   -0.170000       12.0110           0
     18877 WT8      738      MECN     H11      HGA3     0.090000        1.0080           0
     18878 WT8      738      MECN     H12      HGA3     0.090000        1.0080           0
     18879 WT8      738      MECN     H13      HGA3     0.090000        1.0080           0
     18880 WT8      738      MECN     C2       CG1N1    0.360000       12.0110           0
     18881 WT8      738      MECN     N3       NG1T1   -0.460000       14.0070           0
     18882 WT8      739      MECN     C1       CG331   -0.170000       12.0110           0
     18883 WT8      739      MECN     H11      HGA3     0.090000        1.0080           0
     18884 WT8      739      MECN     H12      HGA3     0.090000        1.0080           0
     18885 WT8      739      MECN     H13      HGA3     0.090000        1.0080           0
     18886 WT8      739      MECN     C2       CG1N1    0.360000       12.0110           0
     18887 WT8      739      MECN     N3       NG1T1   -0.460000       14.0070           0
     18888 WT8      742      MECN     C1       CG331   -0.170000       12.0110           0
     18889 WT8      742      MECN     H11      HGA3     0.090000        1.0080           0
     18890 WT8      742      MECN     H12      HGA3     0.090000        1.0080           0
     18891 WT8      742      MECN     H13      HGA3     0.090000        1.0080           0
     18892 WT8      742      MECN     C2       CG1N1    0.360000       12.0110           0
     18893 WT8      742      MECN     N3       NG1T1   -0.460000       14.0070           0
     18894 WT8      745      MECN     C1       CG331   -0.170000       12.0110           0
     18895 WT8      745      MECN     H11      HGA3     0.090000        1.0080           0
     18896 WT8      745      MECN     H12      HGA3     0.090000        1.0080           0
     18897 WT8      745      MECN     H13      HGA3     0.090000        1.0080           0
     18898 WT8      745      MECN     C2       CG1N1    0.360000       12.0110           0
     18899 WT8      745      MECN     N3       NG1T1   -0.460000       14.0070           0
     18900 WT8      751      MECN     C1       CG331   -0.170000       12.0110           0
     18901 WT8      751      MECN     H11      HGA3     0.090000        1.0080           0
     18902 WT8      751      MECN     H12      HGA3     0.090000        1.0080           0
     18903 WT8      751      MECN     H13      HGA3     0.090000        1.0080           0
     18904 WT8      751      MECN     C2       CG1N1    0.360000       12.0110           0
     18905 WT8      751      MECN     N3       NG1T1   -0.460000       14.0070           0
     18906 WT8      758      MECN     C1       CG331   -0.170000       12.0110           0
     18907 WT8      758      MECN     H11      HGA3     0.090000        1.0080           0
     18908 WT8      758      MECN     H12      HGA3     0.090000        1.0080           0
     18909 WT8      758      MECN     H13      HGA3     0.090000        1.0080           0
     18910 WT8      758      MECN     C2       CG1N1    0.360000       12.0110           0
     18911 WT8      758      MECN     N3       NG1T1   -0.460000       14.0070           0
     18912 WT8      759      MECN     C1       CG331   -0.170000       12.0110           0
     18913 WT8      759      MECN     H11      HGA3     0.090000        1.0080           0
     18914 WT8      759      MECN     H12      HGA3     0.090000        1.0080           0
     18915 WT8      759      MECN     H13      HGA3     0.090000        1.0080           0
     18916 WT8      759      MECN     C2       CG1N1    0.360000       12.0110           0
     18917 WT8      759      MECN     N3       NG1T1   -0.460000       14.0070           0
     18918 WT8      771      MECN     C1       CG331   -0.170000       12.0110           0
     18919 WT8      771      MECN     H11      HGA3     0.090000        1.0080           0
     18920 WT8      771      MECN     H12      HGA3     0.090000        1.0080           0
     18921 WT8      771      MECN     H13      HGA3     0.090000        1.0080           0
     18922 WT8      771      MECN     C2       CG1N1    0.360000       12.0110           0
     18923 WT8      771      MECN     N3       NG1T1   -0.460000       14.0070           0
     18924 WT8      774      MECN     C1       CG331   -0.170000       12.0110           0
     18925 WT8      774      MECN     H11      HGA3     0.090000        1.0080           0
     18926 WT8      774      MECN     H12      HGA3     0.090000        1.0080           0
     18927 WT8      774      MECN     H13      HGA3     0.090000        1.0080           0
     18928 WT8      774      MECN     C2       CG1N1    0.360000       12.0110           0
     18929 WT8      774      MECN     N3       NG1T1   -0.460000       14.0070           0
     18930 WT8      785      MECN     C1       CG331   -0.170000       12.0110           0
     18931 WT8      785      MECN     H11      HGA3     0.090000        1.0080           0
     18932 WT8      785      MECN     H12      HGA3     0.090000        1.0080           0
     18933 WT8      785      MECN     H13      HGA3     0.090000        1.0080           0
     18934 WT8      785      MECN     C2       CG1N1    0.360000       12.0110           0
     18935 WT8      785      MECN     N3       NG1T1   -0.460000       14.0070           0
     18936 WT8      787      MECN     C1       CG331   -0.170000       12.0110           0
     18937 WT8      787      MECN     H11      HGA3     0.090000        1.0080           0
     18938 WT8      787      MECN     H12      HGA3     0.090000        1.0080           0
     18939 WT8      787      MECN     H13      HGA3     0.090000        1.0080           0
     18940 WT8      787      MECN     C2       CG1N1    0.360000       12.0110           0
     18941 WT8      787      MECN     N3       NG1T1   -0.460000       14.0070           0
     18942 WT8      790      MECN     C1       CG331   -0.170000       12.0110           0
     18943 WT8      790      MECN     H11      HGA3     0.090000        1.0080           0
     18944 WT8      790      MECN     H12      HGA3     0.090000        1.0080           0
     18945 WT8      790      MECN     H13      HGA3     0.090000        1.0080           0
     18946 WT8      790      MECN     C2       CG1N1    0.360000       12.0110           0
     18947 WT8      790      MECN     N3       NG1T1   -0.460000       14.0070           0
     18948 WT8      792      MECN     C1       CG331   -0.170000       12.0110           0
     18949 WT8      792      MECN     H11      HGA3     0.090000        1.0080           0
     18950 WT8      792      MECN     H12      HGA3     0.090000        1.0080           0
     18951 WT8      792      MECN     H13      HGA3     0.090000        1.0080           0
     18952 WT8      792      MECN     C2       CG1N1    0.360000       12.0110           0
     18953 WT8      792      MECN     N3       NG1T1   -0.460000       14.0070           0
     18954 WT8      793      MECN     C1       CG331   -0.170000       12.0110           0
     18955 WT8      793      MECN     H11      HGA3     0.090000        1.0080           0
     18956 WT8      793      MECN     H12      HGA3     0.090000        1.0080           0
     18957 WT8      793      MECN     H13      HGA3     0.090000        1.0080           0
     18958 WT8      793      MECN     C2       CG1N1    0.360000       12.0110           0
     18959 WT8      793      MECN     N3       NG1T1   -0.460000       14.0070           0
     18960 WT8      804      MECN     C1       CG331   -0.170000       12.0110           0
     18961 WT8      804      MECN     H11      HGA3     0.090000        1.0080           0
     18962 WT8      804      MECN     H12      HGA3     0.090000        1.0080           0
     18963 WT8      804      MECN     H13      HGA3     0.090000        1.0080           0
     18964 WT8      804      MECN     C2       CG1N1    0.360000       12.0110           0
     18965 WT8      804      MECN     N3       NG1T1   -0.460000       14.0070           0
     18966 WT8      807      MECN     C1       CG331   -0.170000       12.0110           0
     18967 WT8      807      MECN     H11      HGA3     0.090000        1.0080           0
     18968 WT8      807      MECN     H12      HGA3     0.090000        1.0080           0
     18969 WT8      807      MECN     H13      HGA3     0.090000        1.0080           0
     18970 WT8      807      MECN     C2       CG1N1    0.360000       12.0110           0
     18971 WT8      807      MECN     N3       NG1T1   -0.460000       14.0070           0
     18972 WT8      808      MECN     C1       CG331   -0.170000       12.0110           0
     18973 WT8      808      MECN     H11      HGA3     0.090000        1.0080           0
     18974 WT8      808      MECN     H12      HGA3     0.090000        1.0080           0
     18975 WT8      808      MECN     H13      HGA3     0.090000        1.0080           0
     18976 WT8      808      MECN     C2       CG1N1    0.360000       12.0110           0
     18977 WT8      808      MECN     N3       NG1T1   -0.460000       14.0070           0
     18978 WT8      811      MECN     C1       CG331   -0.170000       12.0110           0
     18979 WT8      811      MECN     H11      HGA3     0.090000        1.0080           0
     18980 WT8      811      MECN     H12      HGA3     0.090000        1.0080           0
     18981 WT8      811      MECN     H13      HGA3     0.090000        1.0080           0
     18982 WT8      811      MECN     C2       CG1N1    0.360000       12.0110           0
     18983 WT8      811      MECN     N3       NG1T1   -0.460000       14.0070           0
     18984 WT8      813      MECN     C1       CG331   -0.170000       12.0110           0
     18985 WT8      813      MECN     H11      HGA3     0.090000        1.0080           0
     18986 WT8      813      MECN     H12      HGA3     0.090000        1.0080           0
     18987 WT8      813      MECN     H13      HGA3     0.090000        1.0080           0
     18988 WT8      813      MECN     C2       CG1N1    0.360000       12.0110           0
     18989 WT8      813      MECN     N3       NG1T1   -0.460000       14.0070           0
     18990 WT8      820      MECN     C1       CG331   -0.170000       12.0110           0
     18991 WT8      820      MECN     H11      HGA3     0.090000        1.0080           0
     18992 WT8      820      MECN     H12      HGA3     0.090000        1.0080           0
     18993 WT8      820      MECN     H13      HGA3     0.090000        1.0080           0
     18994 WT8      820      MECN     C2       CG1N1    0.360000       12.0110           0
     18995 WT8      820      MECN     N3       NG1T1   -0.460000       14.0070           0
     18996 WT8      825      MECN     C1       CG331   -0.170000       12.0110           0
     18997 WT8      825      MECN     H11      HGA3     0.090000        1.0080           0
     18998 WT8      825      MECN     H12      HGA3     0.090000        1.0080           0
     18999 WT8      825      MECN     H13      HGA3     0.090000        1.0080           0
     19000 WT8      825      MECN     C2       CG1N1    0.360000       12.0110           0
     19001 WT8      825      MECN     N3       NG1T1   -0.460000       14.0070           0
     19002 WT8      830      MECN     C1       CG331   -0.170000       12.0110           0
     19003 WT8      830      MECN     H11      HGA3     0.090000        1.0080           0
     19004 WT8      830      MECN     H12      HGA3     0.090000        1.0080           0
     19005 WT8      830      MECN     H13      HGA3     0.090000        1.0080           0
     19006 WT8      830      MECN     C2       CG1N1    0.360000       12.0110           0
     19007 WT8      830      MECN     N3       NG1T1   -0.460000       14.0070           0
     19008 WT8      832      MECN     C1       CG331   -0.170000       12.0110           0
     19009 WT8      832      MECN     H11      HGA3     0.090000        1.0080           0
     19010 WT8      832      MECN     H12      HGA3     0.090000        1.0080           0
     19011 WT8      832      MECN     H13      HGA3     0.090000        1.0080           0
     19012 WT8      832      MECN     C2       CG1N1    0.360000       12.0110           0
     19013 WT8      832      MECN     N3       NG1T1   -0.460000       14.0070           0
     19014 WT8      836      MECN     C1       CG331   -0.170000       12.0110           0
     19015 WT8      836      MECN     H11      HGA3     0.090000        1.0080           0
     19016 WT8      836      MECN     H12      HGA3     0.090000        1.0080           0
     19017 WT8      836      MECN     H13      HGA3     0.090000        1.0080           0
     19018 WT8      836      MECN     C2       CG1N1    0.360000       12.0110           0
     19019 WT8      836      MECN     N3       NG1T1   -0.460000       14.0070           0
     19020 WT8      837      MECN     C1       CG331   -0.170000       12.0110           0
     19021 WT8      837      MECN     H11      HGA3     0.090000        1.0080           0
     19022 WT8      837      MECN     H12      HGA3     0.090000        1.0080           0
     19023 WT8      837      MECN     H13      HGA3     0.090000        1.0080           0
     19024 WT8      837      MECN     C2       CG1N1    0.360000       12.0110           0
     19025 WT8      837      MECN     N3       NG1T1   -0.460000       14.0070           0
     19026 WT8      839      MECN     C1       CG331   -0.170000       12.0110           0
     19027 WT8      839      MECN     H11      HGA3     0.090000        1.0080           0
     19028 WT8      839      MECN     H12      HGA3     0.090000        1.0080           0
     19029 WT8      839      MECN     H13      HGA3     0.090000        1.0080           0
     19030 WT8      839      MECN     C2       CG1N1    0.360000       12.0110           0
     19031 WT8      839      MECN     N3       NG1T1   -0.460000       14.0070           0
     19032 WT8      841      MECN     C1       CG331   -0.170000       12.0110           0
     19033 WT8      841      MECN     H11      HGA3     0.090000        1.0080           0
     19034 WT8      841      MECN     H12      HGA3     0.090000        1.0080           0
     19035 WT8      841      MECN     H13      HGA3     0.090000        1.0080           0
     19036 WT8      841      MECN     C2       CG1N1    0.360000       12.0110           0
     19037 WT8      841      MECN     N3       NG1T1   -0.460000       14.0070           0
     19038 WT8      845      MECN     C1       CG331   -0.170000       12.0110           0
     19039 WT8      845      MECN     H11      HGA3     0.090000        1.0080           0
     19040 WT8      845      MECN     H12      HGA3     0.090000        1.0080           0
     19041 WT8      845      MECN     H13      HGA3     0.090000        1.0080           0
     19042 WT8      845      MECN     C2       CG1N1    0.360000       12.0110           0
     19043 WT8      845      MECN     N3       NG1T1   -0.460000       14.0070           0
     19044 WT8      846      MECN     C1       CG331   -0.170000       12.0110           0
     19045 WT8      846      MECN     H11      HGA3     0.090000        1.0080           0
     19046 WT8      846      MECN     H12      HGA3     0.090000        1.0080           0
     19047 WT8      846      MECN     H13      HGA3     0.090000        1.0080           0
     19048 WT8      846      MECN     C2       CG1N1    0.360000       12.0110           0
     19049 WT8      846      MECN     N3       NG1T1   -0.460000       14.0070           0
     19050 WT8      851      MECN     C1       CG331   -0.170000       12.0110           0
     19051 WT8      851      MECN     H11      HGA3     0.090000        1.0080           0
     19052 WT8      851      MECN     H12      HGA3     0.090000        1.0080           0
     19053 WT8      851      MECN     H13      HGA3     0.090000        1.0080           0
     19054 WT8      851      MECN     C2       CG1N1    0.360000       12.0110           0
     19055 WT8      851      MECN     N3       NG1T1   -0.460000       14.0070           0
     19056 WT8      853      MECN     C1       CG331   -0.170000       12.0110           0
     19057 WT8      853      MECN     H11      HGA3     0.090000        1.0080           0
     19058 WT8      853      MECN     H12      HGA3     0.090000        1.0080           0
     19059 WT8      853      MECN     H13      HGA3     0.090000        1.0080           0
     19060 WT8      853      MECN     C2       CG1N1    0.360000       12.0110           0
     19061 WT8      853      MECN     N3       NG1T1   -0.460000       14.0070           0
     19062 WT8      854      MECN     C1       CG331   -0.170000       12.0110           0
     19063 WT8      854      MECN     H11      HGA3     0.090000        1.0080           0
     19064 WT8      854      MECN     H12      HGA3     0.090000        1.0080           0
     19065 WT8      854      MECN     H13      HGA3     0.090000        1.0080           0
     19066 WT8      854      MECN     C2       CG1N1    0.360000       12.0110           0
     19067 WT8      854      MECN     N3       NG1T1   -0.460000       14.0070           0
     19068 WT8      855      MECN     C1       CG331   -0.170000       12.0110           0
     19069 WT8      855      MECN     H11      HGA3     0.090000        1.0080           0
     19070 WT8      855      MECN     H12      HGA3     0.090000        1.0080           0
     19071 WT8      855      MECN     H13      HGA3     0.090000        1.0080           0
     19072 WT8      855      MECN     C2       CG1N1    0.360000       12.0110           0
     19073 WT8      855      MECN     N3       NG1T1   -0.460000       14.0070           0
     19074 WT8      863      MECN     C1       CG331   -0.170000       12.0110           0
     19075 WT8      863      MECN     H11      HGA3     0.090000        1.0080           0
     19076 WT8      863      MECN     H12      HGA3     0.090000        1.0080           0
     19077 WT8      863      MECN     H13      HGA3     0.090000        1.0080           0
     19078 WT8      863      MECN     C2       CG1N1    0.360000       12.0110           0
     19079 WT8      863      MECN     N3       NG1T1   -0.460000       14.0070           0
     19080 WT8      870      MECN     C1       CG331   -0.170000       12.0110           0
     19081 WT8      870      MECN     H11      HGA3     0.090000        1.0080           0
     19082 WT8      870      MECN     H12      HGA3     0.090000        1.0080           0
     19083 WT8      870      MECN     H13      HGA3     0.090000        1.0080           0
     19084 WT8      870      MECN     C2       CG1N1    0.360000       12.0110           0
     19085 WT8      870      MECN     N3       NG1T1   -0.460000       14.0070           0
     19086 WT8      875      MECN     C1       CG331   -0.170000       12.0110           0
     19087 WT8      875      MECN     H11      HGA3     0.090000        1.0080           0
     19088 WT8      875      MECN     H12      HGA3     0.090000        1.0080           0
     19089 WT8      875      MECN     H13      HGA3     0.090000        1.0080           0
     19090 WT8      875      MECN     C2       CG1N1    0.360000       12.0110           0
     19091 WT8      875      MECN     N3       NG1T1   -0.460000       14.0070           0
     19092 WT8      877      MECN     C1       CG331   -0.170000       12.0110           0
     19093 WT8      877      MECN     H11      HGA3     0.090000        1.0080           0
     19094 WT8      877      MECN     H12      HGA3     0.090000        1.0080           0
     19095 WT8      877      MECN     H13      HGA3     0.090000        1.0080           0
     19096 WT8      877      MECN     C2       CG1N1    0.360000       12.0110           0
     19097 WT8      877      MECN     N3       NG1T1   -0.460000       14.0070           0
     19098 WT8      880      MECN     C1       CG331   -0.170000       12.0110           0
     19099 WT8      880      MECN     H11      HGA3     0.090000        1.0080           0
     19100 WT8      880      MECN     H12      HGA3     0.090000        1.0080           0
     19101 WT8      880      MECN     H13      HGA3     0.090000        1.0080           0
     19102 WT8      880      MECN     C2       CG1N1    0.360000       12.0110           0
     19103 WT8      880      MECN     N3       NG1T1   -0.460000       14.0070           0
     19104 WT8      881      MECN     C1       CG331   -0.170000       12.0110           0
     19105 WT8      881      MECN     H11      HGA3     0.090000        1.0080           0
     19106 WT8      881      MECN     H12      HGA3     0.090000        1.0080           0
     19107 WT8      881      MECN     H13      HGA3     0.090000        1.0080           0
     19108 WT8      881      MECN     C2       CG1N1    0.360000       12.0110           0
     19109 WT8      881      MECN     N3       NG1T1   -0.460000       14.0070           0
     19110 WT8      884      MECN     C1       CG331   -0.170000       12.0110           0
     19111 WT8      884      MECN     H11      HGA3     0.090000        1.0080           0
     19112 WT8      884      MECN     H12      HGA3     0.090000        1.0080           0
     19113 WT8      884      MECN     H13      HGA3     0.090000        1.0080           0
     19114 WT8      884      MECN     C2       CG1N1    0.360000       12.0110           0
     19115 WT8      884      MECN     N3       NG1T1   -0.460000       14.0070           0
     19116 WT8      892      MECN     C1       CG331   -0.170000       12.0110           0
     19117 WT8      892      MECN     H11      HGA3     0.090000        1.0080           0
     19118 WT8      892      MECN     H12      HGA3     0.090000        1.0080           0
     19119 WT8      892      MECN     H13      HGA3     0.090000        1.0080           0
     19120 WT8      892      MECN     C2       CG1N1    0.360000       12.0110           0
     19121 WT8      892      MECN     N3       NG1T1   -0.460000       14.0070           0
     19122 WT8      895      MECN     C1       CG331   -0.170000       12.0110           0
     19123 WT8      895      MECN     H11      HGA3     0.090000        1.0080           0
     19124 WT8      895      MECN     H12      HGA3     0.090000        1.0080           0
     19125 WT8      895      MECN     H13      HGA3     0.090000        1.0080           0
     19126 WT8      895      MECN     C2       CG1N1    0.360000       12.0110           0
     19127 WT8      895      MECN     N3       NG1T1   -0.460000       14.0070           0
     19128 WT8      898      MECN     C1       CG331   -0.170000       12.0110           0
     19129 WT8      898      MECN     H11      HGA3     0.090000        1.0080           0
     19130 WT8      898      MECN     H12      HGA3     0.090000        1.0080           0
     19131 WT8      898      MECN     H13      HGA3     0.090000        1.0080           0
     19132 WT8      898      MECN     C2       CG1N1    0.360000       12.0110           0
     19133 WT8      898      MECN     N3       NG1T1   -0.460000       14.0070           0
     19134 WT8      901      MECN     C1       CG331   -0.170000       12.0110           0
     19135 WT8      901      MECN     H11      HGA3     0.090000        1.0080           0
     19136 WT8      901      MECN     H12      HGA3     0.090000        1.0080           0
     19137 WT8      901      MECN     H13      HGA3     0.090000        1.0080           0
     19138 WT8      901      MECN     C2       CG1N1    0.360000       12.0110           0
     19139 WT8      901      MECN     N3       NG1T1   -0.460000       14.0070           0
     19140 WT8      903      MECN     C1       CG331   -0.170000       12.0110           0
     19141 WT8      903      MECN     H11      HGA3     0.090000        1.0080           0
     19142 WT8      903      MECN     H12      HGA3     0.090000        1.0080           0
     19143 WT8      903      MECN     H13      HGA3     0.090000        1.0080           0
     19144 WT8      903      MECN     C2       CG1N1    0.360000       12.0110           0
     19145 WT8      903      MECN     N3       NG1T1   -0.460000       14.0070           0
     19146 WT8      908      MECN     C1       CG331   -0.170000       12.0110           0
     19147 WT8      908      MECN     H11      HGA3     0.090000        1.0080           0
     19148 WT8      908      MECN     H12      HGA3     0.090000        1.0080           0
     19149 WT8      908      MECN     H13      HGA3     0.090000        1.0080           0
     19150 WT8      908      MECN     C2       CG1N1    0.360000       12.0110           0
     19151 WT8      908      MECN     N3       NG1T1   -0.460000       14.0070           0
     19152 WT8      912      MECN     C1       CG331   -0.170000       12.0110           0
     19153 WT8      912      MECN     H11      HGA3     0.090000        1.0080           0
     19154 WT8      912      MECN     H12      HGA3     0.090000        1.0080           0
     19155 WT8      912      MECN     H13      HGA3     0.090000        1.0080           0
     19156 WT8      912      MECN     C2       CG1N1    0.360000       12.0110           0
     19157 WT8      912      MECN     N3       NG1T1   -0.460000       14.0070           0
     19158 WT8      914      MECN     C1       CG331   -0.170000       12.0110           0
     19159 WT8      914      MECN     H11      HGA3     0.090000        1.0080           0
     19160 WT8      914      MECN     H12      HGA3     0.090000        1.0080           0
     19161 WT8      914      MECN     H13      HGA3     0.090000        1.0080           0
     19162 WT8      914      MECN     C2       CG1N1    0.360000       12.0110           0
     19163 WT8      914      MECN     N3       NG1T1   -0.460000       14.0070           0
     19164 WT8      916      MECN     C1       CG331   -0.170000       12.0110           0
     19165 WT8      916      MECN     H11      HGA3     0.090000        1.0080           0
     19166 WT8      916      MECN     H12      HGA3     0.090000        1.0080           0
     19167 WT8      916      MECN     H13      HGA3     0.090000        1.0080           0
     19168 WT8      916      MECN     C2       CG1N1    0.360000       12.0110           0
     19169 WT8      916      MECN     N3       NG1T1   -0.460000       14.0070           0
     19170 WT8      918      MECN     C1       CG331   -0.170000       12.0110           0
     19171 WT8      918      MECN     H11      HGA3     0.090000        1.0080           0
     19172 WT8      918      MECN     H12      HGA3     0.090000        1.0080           0
     19173 WT8      918      MECN     H13      HGA3     0.090000        1.0080           0
     19174 WT8      918      MECN     C2       CG1N1    0.360000       12.0110           0
     19175 WT8      918      MECN     N3       NG1T1   -0.460000       14.0070           0
     19176 WT8      919      MECN     C1       CG331   -0.170000       12.0110           0
     19177 WT8      919      MECN     H11      HGA3     0.090000        1.0080           0
     19178 WT8      919      MECN     H12      HGA3     0.090000        1.0080           0
     19179 WT8      919      MECN     H13      HGA3     0.090000        1.0080           0
     19180 WT8      919      MECN     C2       CG1N1    0.360000       12.0110           0
     19181 WT8      919      MECN     N3       NG1T1   -0.460000       14.0070           0
     19182 WT8      922      MECN     C1       CG331   -0.170000       12.0110           0
     19183 WT8      922      MECN     H11      HGA3     0.090000        1.0080           0
     19184 WT8      922      MECN     H12      HGA3     0.090000        1.0080           0
     19185 WT8      922      MECN     H13      HGA3     0.090000        1.0080           0
     19186 WT8      922      MECN     C2       CG1N1    0.360000       12.0110           0
     19187 WT8      922      MECN     N3       NG1T1   -0.460000       14.0070           0
     19188 WT8      927      MECN     C1       CG331   -0.170000       12.0110           0
     19189 WT8      927      MECN     H11      HGA3     0.090000        1.0080           0
     19190 WT8      927      MECN     H12      HGA3     0.090000        1.0080           0
     19191 WT8      927      MECN     H13      HGA3     0.090000        1.0080           0
     19192 WT8      927      MECN     C2       CG1N1    0.360000       12.0110           0
     19193 WT8      927      MECN     N3       NG1T1   -0.460000       14.0070           0
     19194 WT8      929      MECN     C1       CG331   -0.170000       12.0110           0
     19195 WT8      929      MECN     H11      HGA3     0.090000        1.0080           0
     19196 WT8      929      MECN     H12      HGA3     0.090000        1.0080           0
     19197 WT8      929      MECN     H13      HGA3     0.090000        1.0080           0
     19198 WT8      929      MECN     C2       CG1N1    0.360000       12.0110           0
     19199 WT8      929      MECN     N3       NG1T1   -0.460000       14.0070           0
     19200 WT8      930      MECN     C1       CG331   -0.170000       12.0110           0
     19201 WT8      930      MECN     H11      HGA3     0.090000        1.0080           0
     19202 WT8      930      MECN     H12      HGA3     0.090000        1.0080           0
     19203 WT8      930      MECN     H13      HGA3     0.090000        1.0080           0
     19204 WT8      930      MECN     C2       CG1N1    0.360000       12.0110           0
     19205 WT8      930      MECN     N3       NG1T1   -0.460000       14.0070           0
     19206 WT8      932      MECN     C1       CG331   -0.170000       12.0110           0
     19207 WT8      932      MECN     H11      HGA3     0.090000        1.0080           0
     19208 WT8      932      MECN     H12      HGA3     0.090000        1.0080           0
     19209 WT8      932      MECN     H13      HGA3     0.090000        1.0080           0
     19210 WT8      932      MECN     C2       CG1N1    0.360000       12.0110           0
     19211 WT8      932      MECN     N3       NG1T1   -0.460000       14.0070           0
     19212 WT8      935      MECN     C1       CG331   -0.170000       12.0110           0
     19213 WT8      935      MECN     H11      HGA3     0.090000        1.0080           0
     19214 WT8      935      MECN     H12      HGA3     0.090000        1.0080           0
     19215 WT8      935      MECN     H13      HGA3     0.090000        1.0080           0
     19216 WT8      935      MECN     C2       CG1N1    0.360000       12.0110           0
     19217 WT8      935      MECN     N3       NG1T1   -0.460000       14.0070           0
     19218 WT8      937      MECN     C1       CG331   -0.170000       12.0110           0
     19219 WT8      937      MECN     H11      HGA3     0.090000        1.0080           0
     19220 WT8      937      MECN     H12      HGA3     0.090000        1.0080           0
     19221 WT8      937      MECN     H13      HGA3     0.090000        1.0080           0
     19222 WT8      937      MECN     C2       CG1N1    0.360000       12.0110           0
     19223 WT8      937      MECN     N3       NG1T1   -0.460000       14.0070           0
     19224 WT8      938      MECN     C1       CG331   -0.170000       12.0110           0
     19225 WT8      938      MECN     H11      HGA3     0.090000        1.0080           0
     19226 WT8      938      MECN     H12      HGA3     0.090000        1.0080           0
     19227 WT8      938      MECN     H13      HGA3     0.090000        1.0080           0
     19228 WT8      938      MECN     C2       CG1N1    0.360000       12.0110           0
     19229 WT8      938      MECN     N3       NG1T1   -0.460000       14.0070           0
     19230 WT8      941      MECN     C1       CG331   -0.170000       12.0110           0
     19231 WT8      941      MECN     H11      HGA3     0.090000        1.0080           0
     19232 WT8      941      MECN     H12      HGA3     0.090000        1.0080           0
     19233 WT8      941      MECN     H13      HGA3     0.090000        1.0080           0
     19234 WT8      941      MECN     C2       CG1N1    0.360000       12.0110           0
     19235 WT8      941      MECN     N3       NG1T1   -0.460000       14.0070           0
     19236 WT8      942      MECN     C1       CG331   -0.170000       12.0110           0
     19237 WT8      942      MECN     H11      HGA3     0.090000        1.0080           0
     19238 WT8      942      MECN     H12      HGA3     0.090000        1.0080           0
     19239 WT8      942      MECN     H13      HGA3     0.090000        1.0080           0
     19240 WT8      942      MECN     C2       CG1N1    0.360000       12.0110           0
     19241 WT8      942      MECN     N3       NG1T1   -0.460000       14.0070           0
     19242 WT8      947      MECN     C1       CG331   -0.170000       12.0110           0
     19243 WT8      947      MECN     H11      HGA3     0.090000        1.0080           0
     19244 WT8      947      MECN     H12      HGA3     0.090000        1.0080           0
     19245 WT8      947      MECN     H13      HGA3     0.090000        1.0080           0
     19246 WT8      947      MECN     C2       CG1N1    0.360000       12.0110           0
     19247 WT8      947      MECN     N3       NG1T1   -0.460000       14.0070           0
     19248 WT8      948      MECN     C1       CG331   -0.170000       12.0110           0
     19249 WT8      948      MECN     H11      HGA3     0.090000        1.0080           0
     19250 WT8      948      MECN     H12      HGA3     0.090000        1.0080           0
     19251 WT8      948      MECN     H13      HGA3     0.090000        1.0080           0
     19252 WT8      948      MECN     C2       CG1N1    0.360000       12.0110           0
     19253 WT8      948      MECN     N3       NG1T1   -0.460000       14.0070           0
     19254 WT8      949      MECN     C1       CG331   -0.170000       12.0110           0
     19255 WT8      949      MECN     H11      HGA3     0.090000        1.0080           0
     19256 WT8      949      MECN     H12      HGA3     0.090000        1.0080           0
     19257 WT8      949      MECN     H13      HGA3     0.090000        1.0080           0
     19258 WT8      949      MECN     C2       CG1N1    0.360000       12.0110           0
     19259 WT8      949      MECN     N3       NG1T1   -0.460000       14.0070           0
     19260 WT8      950      MECN     C1       CG331   -0.170000       12.0110           0
     19261 WT8      950      MECN     H11      HGA3     0.090000        1.0080           0
     19262 WT8      950      MECN     H12      HGA3     0.090000        1.0080           0
     19263 WT8      950      MECN     H13      HGA3     0.090000        1.0080           0
     19264 WT8      950      MECN     C2       CG1N1    0.360000       12.0110           0
     19265 WT8      950      MECN     N3       NG1T1   -0.460000       14.0070           0
     19266 WT8      953      MECN     C1       CG331   -0.170000       12.0110           0
     19267 WT8      953      MECN     H11      HGA3     0.090000        1.0080           0
     19268 WT8      953      MECN     H12      HGA3     0.090000        1.0080           0
     19269 WT8      953      MECN     H13      HGA3     0.090000        1.0080           0
     19270 WT8      953      MECN     C2       CG1N1    0.360000       12.0110           0
     19271 WT8      953      MECN     N3       NG1T1   -0.460000       14.0070           0
     19272 WT8      957      MECN     C1       CG331   -0.170000       12.0110           0
     19273 WT8      957      MECN     H11      HGA3     0.090000        1.0080           0
     19274 WT8      957      MECN     H12      HGA3     0.090000        1.0080           0
     19275 WT8      957      MECN     H13      HGA3     0.090000        1.0080           0
     19276 WT8      957      MECN     C2       CG1N1    0.360000       12.0110           0
     19277 WT8      957      MECN     N3       NG1T1   -0.460000       14.0070           0
     19278 WT8      958      MECN     C1       CG331   -0.170000       12.0110           0
     19279 WT8      958      MECN     H11      HGA3     0.090000        1.0080           0
     19280 WT8      958      MECN     H12      HGA3     0.090000        1.0080           0
     19281 WT8      958      MECN     H13      HGA3     0.090000        1.0080           0
     19282 WT8      958      MECN     C2       CG1N1    0.360000       12.0110           0
     19283 WT8      958      MECN     N3       NG1T1   -0.460000       14.0070           0
     19284 WT8      960      MECN     C1       CG331   -0.170000       12.0110           0
     19285 WT8      960      MECN     H11      HGA3     0.090000        1.0080           0
     19286 WT8      960      MECN     H12      HGA3     0.090000        1.0080           0
     19287 WT8      960      MECN     H13      HGA3     0.090000        1.0080           0
     19288 WT8      960      MECN     C2       CG1N1    0.360000       12.0110           0
     19289 WT8      960      MECN     N3       NG1T1   -0.460000       14.0070           0
     19290 WT8      964      MECN     C1       CG331   -0.170000       12.0110           0
     19291 WT8      964      MECN     H11      HGA3     0.090000        1.0080           0
     19292 WT8      964      MECN     H12      HGA3     0.090000        1.0080           0
     19293 WT8      964      MECN     H13      HGA3     0.090000        1.0080           0
     19294 WT8      964      MECN     C2       CG1N1    0.360000       12.0110           0
     19295 WT8      964      MECN     N3       NG1T1   -0.460000       14.0070           0
     19296 WT8      968      MECN     C1       CG331   -0.170000       12.0110           0
     19297 WT8      968      MECN     H11      HGA3     0.090000        1.0080           0
     19298 WT8      968      MECN     H12      HGA3     0.090000        1.0080           0
     19299 WT8      968      MECN     H13      HGA3     0.090000        1.0080           0
     19300 WT8      968      MECN     C2       CG1N1    0.360000       12.0110           0
     19301 WT8      968      MECN     N3       NG1T1   -0.460000       14.0070           0
     19302 WT8      969      MECN     C1       CG331   -0.170000       12.0110           0
     19303 WT8      969      MECN     H11      HGA3     0.090000        1.0080           0
     19304 WT8      969      MECN     H12      HGA3     0.090000        1.0080           0
     19305 WT8      969      MECN     H13      HGA3     0.090000        1.0080           0
     19306 WT8      969      MECN     C2       CG1N1    0.360000       12.0110           0
     19307 WT8      969      MECN     N3       NG1T1   -0.460000       14.0070           0
     19308 WT8      970      MECN     C1       CG331   -0.170000       12.0110           0
     19309 WT8      970      MECN     H11      HGA3     0.090000        1.0080           0
     19310 WT8      970      MECN     H12      HGA3     0.090000        1.0080           0
     19311 WT8      970      MECN     H13      HGA3     0.090000        1.0080           0
     19312 WT8      970      MECN     C2       CG1N1    0.360000       12.0110           0
     19313 WT8      970      MECN     N3       NG1T1   -0.460000       14.0070           0
     19314 WT8      971      MECN     C1       CG331   -0.170000       12.0110           0
     19315 WT8      971      MECN     H11      HGA3     0.090000        1.0080           0
     19316 WT8      971      MECN     H12      HGA3     0.090000        1.0080           0
     19317 WT8      971      MECN     H13      HGA3     0.090000        1.0080           0
     19318 WT8      971      MECN     C2       CG1N1    0.360000       12.0110           0
     19319 WT8      971      MECN     N3       NG1T1   -0.460000       14.0070           0
     19320 WT8      974      MECN     C1       CG331   -0.170000       12.0110           0
     19321 WT8      974      MECN     H11      HGA3     0.090000        1.0080           0
     19322 WT8      974      MECN     H12      HGA3     0.090000        1.0080           0
     19323 WT8      974      MECN     H13      HGA3     0.090000        1.0080           0
     19324 WT8      974      MECN     C2       CG1N1    0.360000       12.0110           0
     19325 WT8      974      MECN     N3       NG1T1   -0.460000       14.0070           0
     19326 WT8      975      MECN     C1       CG331   -0.170000       12.0110           0
     19327 WT8      975      MECN     H11      HGA3     0.090000        1.0080           0
     19328 WT8      975      MECN     H12      HGA3     0.090000        1.0080           0
     19329 WT8      975      MECN     H13      HGA3     0.090000        1.0080           0
     19330 WT8      975      MECN     C2       CG1N1    0.360000       12.0110           0
     19331 WT8      975      MECN     N3       NG1T1   -0.460000       14.0070           0
     19332 WT8      982      MECN     C1       CG331   -0.170000       12.0110           0
     19333 WT8      982      MECN     H11      HGA3     0.090000        1.0080           0
     19334 WT8      982      MECN     H12      HGA3     0.090000        1.0080           0
     19335 WT8      982      MECN     H13      HGA3     0.090000        1.0080           0
     19336 WT8      982      MECN     C2       CG1N1    0.360000       12.0110           0
     19337 WT8      982      MECN     N3       NG1T1   -0.460000       14.0070           0
     19338 WT8      987      MECN     C1       CG331   -0.170000       12.0110           0
     19339 WT8      987      MECN     H11      HGA3     0.090000        1.0080           0
     19340 WT8      987      MECN     H12      HGA3     0.090000        1.0080           0
     19341 WT8      987      MECN     H13      HGA3     0.090000        1.0080           0
     19342 WT8      987      MECN     C2       CG1N1    0.360000       12.0110           0
     19343 WT8      987      MECN     N3       NG1T1   -0.460000       14.0070           0
     19344 WT8      989      MECN     C1       CG331   -0.170000       12.0110           0
     19345 WT8      989      MECN     H11      HGA3     0.090000        1.0080           0
     19346 WT8      989      MECN     H12      HGA3     0.090000        1.0080           0
     19347 WT8      989      MECN     H13      HGA3     0.090000        1.0080           0
     19348 WT8      989      MECN     C2       CG1N1    0.360000       12.0110           0
     19349 WT8      989      MECN     N3       NG1T1   -0.460000       14.0070           0
     19350 WT8      990      MECN     C1       CG331   -0.170000       12.0110           0
     19351 WT8      990      MECN     H11      HGA3     0.090000        1.0080           0
     19352 WT8      990      MECN     H12      HGA3     0.090000        1.0080           0
     19353 WT8      990      MECN     H13      HGA3     0.090000        1.0080           0
     19354 WT8      990      MECN     C2       CG1N1    0.360000       12.0110           0
     19355 WT8      990      MECN     N3       NG1T1   -0.460000       14.0070           0
     19356 WT8      994      MECN     C1       CG331   -0.170000       12.0110           0
     19357 WT8      994      MECN     H11      HGA3     0.090000        1.0080           0
     19358 WT8      994      MECN     H12      HGA3     0.090000        1.0080           0
     19359 WT8      994      MECN     H13      HGA3     0.090000        1.0080           0
     19360 WT8      994      MECN     C2       CG1N1    0.360000       12.0110           0
     19361 WT8      994      MECN     N3       NG1T1   -0.460000       14.0070           0
     19362 WT8      995      MECN     C1       CG331   -0.170000       12.0110           0
     19363 WT8      995      MECN     H11      HGA3     0.090000        1.0080           0
     19364 WT8      995      MECN     H12      HGA3     0.090000        1.0080           0
     19365 WT8      995      MECN     H13      HGA3     0.090000        1.0080           0
     19366 WT8      995      MECN     C2       CG1N1    0.360000       12.0110           0
     19367 WT8      995      MECN     N3       NG1T1   -0.460000       14.0070           0
     19368 WT8      997      MECN     C1       CG331   -0.170000       12.0110           0
     19369 WT8      997      MECN     H11      HGA3     0.090000        1.0080           0
     19370 WT8      997      MECN     H12      HGA3     0.090000        1.0080           0
     19371 WT8      997      MECN     H13      HGA3     0.090000        1.0080           0
     19372 WT8      997      MECN     C2       CG1N1    0.360000       12.0110           0
     19373 WT8      997      MECN     N3       NG1T1   -0.460000       14.0070           0
     19374 WT8      999      MECN     C1       CG331   -0.170000       12.0110           0
     19375 WT8      999      MECN     H11      HGA3     0.090000        1.0080           0
     19376 WT8      999      MECN     H12      HGA3     0.090000        1.0080           0
     19377 WT8      999      MECN     H13      HGA3     0.090000        1.0080           0
     19378 WT8      999      MECN     C2       CG1N1    0.360000       12.0110           0
     19379 WT8      999      MECN     N3       NG1T1   -0.460000       14.0070           0
     19380 WT8      1002     MECN     C1       CG331   -0.170000       12.0110           0
     19381 WT8      1002     MECN     H11      HGA3     0.090000        1.0080           0
     19382 WT8      1002     MECN     H12      HGA3     0.090000        1.0080           0
     19383 WT8      1002     MECN     H13      HGA3     0.090000        1.0080           0
     19384 WT8      1002     MECN     C2       CG1N1    0.360000       12.0110           0
     19385 WT8      1002     MECN     N3       NG1T1   -0.460000       14.0070           0
     19386 WT8      1004     MECN     C1       CG331   -0.170000       12.0110           0
     19387 WT8      1004     MECN     H11      HGA3     0.090000        1.0080           0
     19388 WT8      1004     MECN     H12      HGA3     0.090000        1.0080           0
     19389 WT8      1004     MECN     H13      HGA3     0.090000        1.0080           0
     19390 WT8      1004     MECN     C2       CG1N1    0.360000       12.0110           0
     19391 WT8      1004     MECN     N3       NG1T1   -0.460000       14.0070           0
     19392 WT8      1010     MECN     C1       CG331   -0.170000       12.0110           0
     19393 WT8      1010     MECN     H11      HGA3     0.090000        1.0080           0
     19394 WT8      1010     MECN     H12      HGA3     0.090000        1.0080           0
     19395 WT8      1010     MECN     H13      HGA3     0.090000        1.0080           0
     19396 WT8      1010     MECN     C2       CG1N1    0.360000       12.0110           0
     19397 WT8      1010     MECN     N3       NG1T1   -0.460000       14.0070           0
     19398 WT8      1015     MECN     C1       CG331   -0.170000       12.0110           0
     19399 WT8      1015     MECN     H11      HGA3     0.090000        1.0080           0
     19400 WT8      1015     MECN     H12      HGA3     0.090000        1.0080           0
     19401 WT8      1015     MECN     H13      HGA3     0.090000        1.0080           0
     19402 WT8      1015     MECN     C2       CG1N1    0.360000       12.0110           0
     19403 WT8      1015     MECN     N3       NG1T1   -0.460000       14.0070           0
     19404 WT8      1019     MECN     C1       CG331   -0.170000       12.0110           0
     19405 WT8      1019     MECN     H11      HGA3     0.090000        1.0080           0
     19406 WT8      1019     MECN     H12      HGA3     0.090000        1.0080           0
     19407 WT8      1019     MECN     H13      HGA3     0.090000        1.0080           0
     19408 WT8      1019     MECN     C2       CG1N1    0.360000       12.0110           0
     19409 WT8      1019     MECN     N3       NG1T1   -0.460000       14.0070           0
     19410 WT8      1020     MECN     C1       CG331   -0.170000       12.0110           0
     19411 WT8      1020     MECN     H11      HGA3     0.090000        1.0080           0
     19412 WT8      1020     MECN     H12      HGA3     0.090000        1.0080           0
     19413 WT8      1020     MECN     H13      HGA3     0.090000        1.0080           0
     19414 WT8      1020     MECN     C2       CG1N1    0.360000       12.0110           0
     19415 WT8      1020     MECN     N3       NG1T1   -0.460000       14.0070           0
     19416 WT8      1022     MECN     C1       CG331   -0.170000       12.0110           0
     19417 WT8      1022     MECN     H11      HGA3     0.090000        1.0080           0
     19418 WT8      1022     MECN     H12      HGA3     0.090000        1.0080           0
     19419 WT8      1022     MECN     H13      HGA3     0.090000        1.0080           0
     19420 WT8      1022     MECN     C2       CG1N1    0.360000       12.0110           0
     19421 WT8      1022     MECN     N3       NG1T1   -0.460000       14.0070           0
     19422 WT8      1023     MECN     C1       CG331   -0.170000       12.0110           0
     19423 WT8      1023     MECN     H11      HGA3     0.090000        1.0080           0
     19424 WT8      1023     MECN     H12      HGA3     0.090000        1.0080           0
     19425 WT8      1023     MECN     H13      HGA3     0.090000        1.0080           0
     19426 WT8      1023     MECN     C2       CG1N1    0.360000       12.0110           0
     19427 WT8      1023     MECN     N3       NG1T1   -0.460000       14.0070           0
     19428 WT8      1024     MECN     C1       CG331   -0.170000       12.0110           0
     19429 WT8      1024     MECN     H11      HGA3     0.090000        1.0080           0
     19430 WT8      1024     MECN     H12      HGA3     0.090000        1.0080           0
     19431 WT8      1024     MECN     H13      HGA3     0.090000        1.0080           0
     19432 WT8      1024     MECN     C2       CG1N1    0.360000       12.0110           0
     19433 WT8      1024     MECN     N3       NG1T1   -0.460000       14.0070           0
     19434 WT8      1026     MECN     C1       CG331   -0.170000       12.0110           0
     19435 WT8      1026     MECN     H11      HGA3     0.090000        1.0080           0
     19436 WT8      1026     MECN     H12      HGA3     0.090000        1.0080           0
     19437 WT8      1026     MECN     H13      HGA3     0.090000        1.0080           0
     19438 WT8      1026     MECN     C2       CG1N1    0.360000       12.0110           0
     19439 WT8      1026     MECN     N3       NG1T1   -0.460000       14.0070           0
     19440 WT8      1030     MECN     C1       CG331   -0.170000       12.0110           0
     19441 WT8      1030     MECN     H11      HGA3     0.090000        1.0080           0
     19442 WT8      1030     MECN     H12      HGA3     0.090000        1.0080           0
     19443 WT8      1030     MECN     H13      HGA3     0.090000        1.0080           0
     19444 WT8      1030     MECN     C2       CG1N1    0.360000       12.0110           0
     19445 WT8      1030     MECN     N3       NG1T1   -0.460000       14.0070           0
     19446 WT8      1036     MECN     C1       CG331   -0.170000       12.0110           0
     19447 WT8      1036     MECN     H11      HGA3     0.090000        1.0080           0
     19448 WT8      1036     MECN     H12      HGA3     0.090000        1.0080           0
     19449 WT8      1036     MECN     H13      HGA3     0.090000        1.0080           0
     19450 WT8      1036     MECN     C2       CG1N1    0.360000       12.0110           0
     19451 WT8      1036     MECN     N3       NG1T1   -0.460000       14.0070           0
     19452 WT8      1037     MECN     C1       CG331   -0.170000       12.0110           0
     19453 WT8      1037     MECN     H11      HGA3     0.090000        1.0080           0
     19454 WT8      1037     MECN     H12      HGA3     0.090000        1.0080           0
     19455 WT8      1037     MECN     H13      HGA3     0.090000        1.0080           0
     19456 WT8      1037     MECN     C2       CG1N1    0.360000       12.0110           0
     19457 WT8      1037     MECN     N3       NG1T1   -0.460000       14.0070           0
     19458 WT8      1038     MECN     C1       CG331   -0.170000       12.0110           0
     19459 WT8      1038     MECN     H11      HGA3     0.090000        1.0080           0
     19460 WT8      1038     MECN     H12      HGA3     0.090000        1.0080           0
     19461 WT8      1038     MECN     H13      HGA3     0.090000        1.0080           0
     19462 WT8      1038     MECN     C2       CG1N1    0.360000       12.0110           0
     19463 WT8      1038     MECN     N3       NG1T1   -0.460000       14.0070           0
     19464 WT8      1045     MECN     C1       CG331   -0.170000       12.0110           0
     19465 WT8      1045     MECN     H11      HGA3     0.090000        1.0080           0
     19466 WT8      1045     MECN     H12      HGA3     0.090000        1.0080           0
     19467 WT8      1045     MECN     H13      HGA3     0.090000        1.0080           0
     19468 WT8      1045     MECN     C2       CG1N1    0.360000       12.0110           0
     19469 WT8      1045     MECN     N3       NG1T1   -0.460000       14.0070           0
     19470 WT8      1046     MECN     C1       CG331   -0.170000       12.0110           0
     19471 WT8      1046     MECN     H11      HGA3     0.090000        1.0080           0
     19472 WT8      1046     MECN     H12      HGA3     0.090000        1.0080           0
     19473 WT8      1046     MECN     H13      HGA3     0.090000        1.0080           0
     19474 WT8      1046     MECN     C2       CG1N1    0.360000       12.0110           0
     19475 WT8      1046     MECN     N3       NG1T1   -0.460000       14.0070           0
     19476 WT8      1047     MECN     C1       CG331   -0.170000       12.0110           0
     19477 WT8      1047     MECN     H11      HGA3     0.090000        1.0080           0
     19478 WT8      1047     MECN     H12      HGA3     0.090000        1.0080           0
     19479 WT8      1047     MECN     H13      HGA3     0.090000        1.0080           0
     19480 WT8      1047     MECN     C2       CG1N1    0.360000       12.0110           0
     19481 WT8      1047     MECN     N3       NG1T1   -0.460000       14.0070           0
     19482 WT8      1048     MECN     C1       CG331   -0.170000       12.0110           0
     19483 WT8      1048     MECN     H11      HGA3     0.090000        1.0080           0
     19484 WT8      1048     MECN     H12      HGA3     0.090000        1.0080           0
     19485 WT8      1048     MECN     H13      HGA3     0.090000        1.0080           0
     19486 WT8      1048     MECN     C2       CG1N1    0.360000       12.0110           0
     19487 WT8      1048     MECN     N3       NG1T1   -0.460000       14.0070           0
     19488 WT8      1053     MECN     C1       CG331   -0.170000       12.0110           0
     19489 WT8      1053     MECN     H11      HGA3     0.090000        1.0080           0
     19490 WT8      1053     MECN     H12      HGA3     0.090000        1.0080           0
     19491 WT8      1053     MECN     H13      HGA3     0.090000        1.0080           0
     19492 WT8      1053     MECN     C2       CG1N1    0.360000       12.0110           0
     19493 WT8      1053     MECN     N3       NG1T1   -0.460000       14.0070           0
     19494 WT8      1056     MECN     C1       CG331   -0.170000       12.0110           0
     19495 WT8      1056     MECN     H11      HGA3     0.090000        1.0080           0
     19496 WT8      1056     MECN     H12      HGA3     0.090000        1.0080           0
     19497 WT8      1056     MECN     H13      HGA3     0.090000        1.0080           0
     19498 WT8      1056     MECN     C2       CG1N1    0.360000       12.0110           0
     19499 WT8      1056     MECN     N3       NG1T1   -0.460000       14.0070           0
     19500 WT8      1062     MECN     C1       CG331   -0.170000       12.0110           0
     19501 WT8      1062     MECN     H11      HGA3     0.090000        1.0080           0
     19502 WT8      1062     MECN     H12      HGA3     0.090000        1.0080           0
     19503 WT8      1062     MECN     H13      HGA3     0.090000        1.0080           0
     19504 WT8      1062     MECN     C2       CG1N1    0.360000       12.0110           0
     19505 WT8      1062     MECN     N3       NG1T1   -0.460000       14.0070           0
     19506 WT8      1064     MECN     C1       CG331   -0.170000       12.0110           0
     19507 WT8      1064     MECN     H11      HGA3     0.090000        1.0080           0
     19508 WT8      1064     MECN     H12      HGA3     0.090000        1.0080           0
     19509 WT8      1064     MECN     H13      HGA3     0.090000        1.0080           0
     19510 WT8      1064     MECN     C2       CG1N1    0.360000       12.0110           0
     19511 WT8      1064     MECN     N3       NG1T1   -0.460000       14.0070           0
     19512 WT8      1065     MECN     C1       CG331   -0.170000       12.0110           0
     19513 WT8      1065     MECN     H11      HGA3     0.090000        1.0080           0
     19514 WT8      1065     MECN     H12      HGA3     0.090000        1.0080           0
     19515 WT8      1065     MECN     H13      HGA3     0.090000        1.0080           0
     19516 WT8      1065     MECN     C2       CG1N1    0.360000       12.0110           0
     19517 WT8      1065     MECN     N3       NG1T1   -0.460000       14.0070           0
     19518 WT8      1066     MECN     C1       CG331   -0.170000       12.0110           0
     19519 WT8      1066     MECN     H11      HGA3     0.090000        1.0080           0
     19520 WT8      1066     MECN     H12      HGA3     0.090000        1.0080           0
     19521 WT8      1066     MECN     H13      HGA3     0.090000        1.0080           0
     19522 WT8      1066     MECN     C2       CG1N1    0.360000       12.0110           0
     19523 WT8      1066     MECN     N3       NG1T1   -0.460000       14.0070           0
     19524 WT8      1068     MECN     C1       CG331   -0.170000       12.0110           0
     19525 WT8      1068     MECN     H11      HGA3     0.090000        1.0080           0
     19526 WT8      1068     MECN     H12      HGA3     0.090000        1.0080           0
     19527 WT8      1068     MECN     H13      HGA3     0.090000        1.0080           0
     19528 WT8      1068     MECN     C2       CG1N1    0.360000       12.0110           0
     19529 WT8      1068     MECN     N3       NG1T1   -0.460000       14.0070           0
     19530 WT8      1069     MECN     C1       CG331   -0.170000       12.0110           0
     19531 WT8      1069     MECN     H11      HGA3     0.090000        1.0080           0
     19532 WT8      1069     MECN     H12      HGA3     0.090000        1.0080           0
     19533 WT8      1069     MECN     H13      HGA3     0.090000        1.0080           0
     19534 WT8      1069     MECN     C2       CG1N1    0.360000       12.0110           0
     19535 WT8      1069     MECN     N3       NG1T1   -0.460000       14.0070           0
     19536 WT8      1073     MECN     C1       CG331   -0.170000       12.0110           0
     19537 WT8      1073     MECN     H11      HGA3     0.090000        1.0080           0
     19538 WT8      1073     MECN     H12      HGA3     0.090000        1.0080           0
     19539 WT8      1073     MECN     H13      HGA3     0.090000        1.0080           0
     19540 WT8      1073     MECN     C2       CG1N1    0.360000       12.0110           0
     19541 WT8      1073     MECN     N3       NG1T1   -0.460000       14.0070           0
     19542 WT8      1078     MECN     C1       CG331   -0.170000       12.0110           0
     19543 WT8      1078     MECN     H11      HGA3     0.090000        1.0080           0
     19544 WT8      1078     MECN     H12      HGA3     0.090000        1.0080           0
     19545 WT8      1078     MECN     H13      HGA3     0.090000        1.0080           0
     19546 WT8      1078     MECN     C2       CG1N1    0.360000       12.0110           0
     19547 WT8      1078     MECN     N3       NG1T1   -0.460000       14.0070           0
     19548 WT8      1080     MECN     C1       CG331   -0.170000       12.0110           0
     19549 WT8      1080     MECN     H11      HGA3     0.090000        1.0080           0
     19550 WT8      1080     MECN     H12      HGA3     0.090000        1.0080           0
     19551 WT8      1080     MECN     H13      HGA3     0.090000        1.0080           0
     19552 WT8      1080     MECN     C2       CG1N1    0.360000       12.0110           0
     19553 WT8      1080     MECN     N3       NG1T1   -0.460000       14.0070           0
     19554 WT8      1081     MECN     C1       CG331   -0.170000       12.0110           0
     19555 WT8      1081     MECN     H11      HGA3     0.090000        1.0080           0
     19556 WT8      1081     MECN     H12      HGA3     0.090000        1.0080           0
     19557 WT8      1081     MECN     H13      HGA3     0.090000        1.0080           0
     19558 WT8      1081     MECN     C2       CG1N1    0.360000       12.0110           0
     19559 WT8      1081     MECN     N3       NG1T1   -0.460000       14.0070           0
     19560 WT8      1085     MECN     C1       CG331   -0.170000       12.0110           0
     19561 WT8      1085     MECN     H11      HGA3     0.090000        1.0080           0
     19562 WT8      1085     MECN     H12      HGA3     0.090000        1.0080           0
     19563 WT8      1085     MECN     H13      HGA3     0.090000        1.0080           0
     19564 WT8      1085     MECN     C2       CG1N1    0.360000       12.0110           0
     19565 WT8      1085     MECN     N3       NG1T1   -0.460000       14.0070           0
     19566 WT8      1091     MECN     C1       CG331   -0.170000       12.0110           0
     19567 WT8      1091     MECN     H11      HGA3     0.090000        1.0080           0
     19568 WT8      1091     MECN     H12      HGA3     0.090000        1.0080           0
     19569 WT8      1091     MECN     H13      HGA3     0.090000        1.0080           0
     19570 WT8      1091     MECN     C2       CG1N1    0.360000       12.0110           0
     19571 WT8      1091     MECN     N3       NG1T1   -0.460000       14.0070           0
     19572 WT8      1092     MECN     C1       CG331   -0.170000       12.0110           0
     19573 WT8      1092     MECN     H11      HGA3     0.090000        1.0080           0
     19574 WT8      1092     MECN     H12      HGA3     0.090000        1.0080           0
     19575 WT8      1092     MECN     H13      HGA3     0.090000        1.0080           0
     19576 WT8      1092     MECN     C2       CG1N1    0.360000       12.0110           0
     19577 WT8      1092     MECN     N3       NG1T1   -0.460000       14.0070           0
     19578 WT8      1094     MECN     C1       CG331   -0.170000       12.0110           0
     19579 WT8      1094     MECN     H11      HGA3     0.090000        1.0080           0
     19580 WT8      1094     MECN     H12      HGA3     0.090000        1.0080           0
     19581 WT8      1094     MECN     H13      HGA3     0.090000        1.0080           0
     19582 WT8      1094     MECN     C2       CG1N1    0.360000       12.0110           0
     19583 WT8      1094     MECN     N3       NG1T1   -0.460000       14.0070           0
     19584 WT8      1095     MECN     C1       CG331   -0.170000       12.0110           0
     19585 WT8      1095     MECN     H11      HGA3     0.090000        1.0080           0
     19586 WT8      1095     MECN     H12      HGA3     0.090000        1.0080           0
     19587 WT8      1095     MECN     H13      HGA3     0.090000        1.0080           0
     19588 WT8      1095     MECN     C2       CG1N1    0.360000       12.0110           0
     19589 WT8      1095     MECN     N3       NG1T1   -0.460000       14.0070           0
     19590 WT8      1100     MECN     C1       CG331   -0.170000       12.0110           0
     19591 WT8      1100     MECN     H11      HGA3     0.090000        1.0080           0
     19592 WT8      1100     MECN     H12      HGA3     0.090000        1.0080           0
     19593 WT8      1100     MECN     H13      HGA3     0.090000        1.0080           0
     19594 WT8      1100     MECN     C2       CG1N1    0.360000       12.0110           0
     19595 WT8      1100     MECN     N3       NG1T1   -0.460000       14.0070           0
     19596 WT8      1103     MECN     C1       CG331   -0.170000       12.0110           0
     19597 WT8      1103     MECN     H11      HGA3     0.090000        1.0080           0
     19598 WT8      1103     MECN     H12      HGA3     0.090000        1.0080           0
     19599 WT8      1103     MECN     H13      HGA3     0.090000        1.0080           0
     19600 WT8      1103     MECN     C2       CG1N1    0.360000       12.0110           0
     19601 WT8      1103     MECN     N3       NG1T1   -0.460000       14.0070           0
     19602 WT8      1111     MECN     C1       CG331   -0.170000       12.0110           0
     19603 WT8      1111     MECN     H11      HGA3     0.090000        1.0080           0
     19604 WT8      1111     MECN     H12      HGA3     0.090000        1.0080           0
     19605 WT8      1111     MECN     H13      HGA3     0.090000        1.0080           0
     19606 WT8      1111     MECN     C2       CG1N1    0.360000       12.0110           0
     19607 WT8      1111     MECN     N3       NG1T1   -0.460000       14.0070           0
     19608 WT8      1114     MECN     C1       CG331   -0.170000       12.0110           0
     19609 WT8      1114     MECN     H11      HGA3     0.090000        1.0080           0
     19610 WT8      1114     MECN     H12      HGA3     0.090000        1.0080           0
     19611 WT8      1114     MECN     H13      HGA3     0.090000        1.0080           0
     19612 WT8      1114     MECN     C2       CG1N1    0.360000       12.0110           0
     19613 WT8      1114     MECN     N3       NG1T1   -0.460000       14.0070           0
     19614 WT8      1115     MECN     C1       CG331   -0.170000       12.0110           0
     19615 WT8      1115     MECN     H11      HGA3     0.090000        1.0080           0
     19616 WT8      1115     MECN     H12      HGA3     0.090000        1.0080           0
     19617 WT8      1115     MECN     H13      HGA3     0.090000        1.0080           0
     19618 WT8      1115     MECN     C2       CG1N1    0.360000       12.0110           0
     19619 WT8      1115     MECN     N3       NG1T1   -0.460000       14.0070           0
     19620 WT8      1116     MECN     C1       CG331   -0.170000       12.0110           0
     19621 WT8      1116     MECN     H11      HGA3     0.090000        1.0080           0
     19622 WT8      1116     MECN     H12      HGA3     0.090000        1.0080           0
     19623 WT8      1116     MECN     H13      HGA3     0.090000        1.0080           0
     19624 WT8      1116     MECN     C2       CG1N1    0.360000       12.0110           0
     19625 WT8      1116     MECN     N3       NG1T1   -0.460000       14.0070           0
     19626 WT8      1119     MECN     C1       CG331   -0.170000       12.0110           0
     19627 WT8      1119     MECN     H11      HGA3     0.090000        1.0080           0
     19628 WT8      1119     MECN     H12      HGA3     0.090000        1.0080           0
     19629 WT8      1119     MECN     H13      HGA3     0.090000        1.0080           0
     19630 WT8      1119     MECN     C2       CG1N1    0.360000       12.0110           0
     19631 WT8      1119     MECN     N3       NG1T1   -0.460000       14.0070           0
     19632 WT8      1120     MECN     C1       CG331   -0.170000       12.0110           0
     19633 WT8      1120     MECN     H11      HGA3     0.090000        1.0080           0
     19634 WT8      1120     MECN     H12      HGA3     0.090000        1.0080           0
     19635 WT8      1120     MECN     H13      HGA3     0.090000        1.0080           0
     19636 WT8      1120     MECN     C2       CG1N1    0.360000       12.0110           0
     19637 WT8      1120     MECN     N3       NG1T1   -0.460000       14.0070           0
     19638 WT8      1125     MECN     C1       CG331   -0.170000       12.0110           0
     19639 WT8      1125     MECN     H11      HGA3     0.090000        1.0080           0
     19640 WT8      1125     MECN     H12      HGA3     0.090000        1.0080           0
     19641 WT8      1125     MECN     H13      HGA3     0.090000        1.0080           0
     19642 WT8      1125     MECN     C2       CG1N1    0.360000       12.0110           0
     19643 WT8      1125     MECN     N3       NG1T1   -0.460000       14.0070           0
     19644 WT8      1128     MECN     C1       CG331   -0.170000       12.0110           0
     19645 WT8      1128     MECN     H11      HGA3     0.090000        1.0080           0
     19646 WT8      1128     MECN     H12      HGA3     0.090000        1.0080           0
     19647 WT8      1128     MECN     H13      HGA3     0.090000        1.0080           0
     19648 WT8      1128     MECN     C2       CG1N1    0.360000       12.0110           0
     19649 WT8      1128     MECN     N3       NG1T1   -0.460000       14.0070           0
     19650 WT8      1137     MECN     C1       CG331   -0.170000       12.0110           0
     19651 WT8      1137     MECN     H11      HGA3     0.090000        1.0080           0
     19652 WT8      1137     MECN     H12      HGA3     0.090000        1.0080           0
     19653 WT8      1137     MECN     H13      HGA3     0.090000        1.0080           0
     19654 WT8      1137     MECN     C2       CG1N1    0.360000       12.0110           0
     19655 WT8      1137     MECN     N3       NG1T1   -0.460000       14.0070           0
     19656 WT8      1144     MECN     C1       CG331   -0.170000       12.0110           0
     19657 WT8      1144     MECN     H11      HGA3     0.090000        1.0080           0
     19658 WT8      1144     MECN     H12      HGA3     0.090000        1.0080           0
     19659 WT8      1144     MECN     H13      HGA3     0.090000        1.0080           0
     19660 WT8      1144     MECN     C2       CG1N1    0.360000       12.0110           0
     19661 WT8      1144     MECN     N3       NG1T1   -0.460000       14.0070           0
     19662 WT8      1145     MECN     C1       CG331   -0.170000       12.0110           0
     19663 WT8      1145     MECN     H11      HGA3     0.090000        1.0080           0
     19664 WT8      1145     MECN     H12      HGA3     0.090000        1.0080           0
     19665 WT8      1145     MECN     H13      HGA3     0.090000        1.0080           0
     19666 WT8      1145     MECN     C2       CG1N1    0.360000       12.0110           0
     19667 WT8      1145     MECN     N3       NG1T1   -0.460000       14.0070           0
     19668 WT8      1147     MECN     C1       CG331   -0.170000       12.0110           0
     19669 WT8      1147     MECN     H11      HGA3     0.090000        1.0080           0
     19670 WT8      1147     MECN     H12      HGA3     0.090000        1.0080           0
     19671 WT8      1147     MECN     H13      HGA3     0.090000        1.0080           0
     19672 WT8      1147     MECN     C2       CG1N1    0.360000       12.0110           0
     19673 WT8      1147     MECN     N3       NG1T1   -0.460000       14.0070           0
     19674 WT8      1150     MECN     C1       CG331   -0.170000       12.0110           0
     19675 WT8      1150     MECN     H11      HGA3     0.090000        1.0080           0
     19676 WT8      1150     MECN     H12      HGA3     0.090000        1.0080           0
     19677 WT8      1150     MECN     H13      HGA3     0.090000        1.0080           0
     19678 WT8      1150     MECN     C2       CG1N1    0.360000       12.0110           0
     19679 WT8      1150     MECN     N3       NG1T1   -0.460000       14.0070           0
     19680 WT8      1152     MECN     C1       CG331   -0.170000       12.0110           0
     19681 WT8      1152     MECN     H11      HGA3     0.090000        1.0080           0
     19682 WT8      1152     MECN     H12      HGA3     0.090000        1.0080           0
     19683 WT8      1152     MECN     H13      HGA3     0.090000        1.0080           0
     19684 WT8      1152     MECN     C2       CG1N1    0.360000       12.0110           0
     19685 WT8      1152     MECN     N3       NG1T1   -0.460000       14.0070           0
     19686 WT8      1154     MECN     C1       CG331   -0.170000       12.0110           0
     19687 WT8      1154     MECN     H11      HGA3     0.090000        1.0080           0
     19688 WT8      1154     MECN     H12      HGA3     0.090000        1.0080           0
     19689 WT8      1154     MECN     H13      HGA3     0.090000        1.0080           0
     19690 WT8      1154     MECN     C2       CG1N1    0.360000       12.0110           0
     19691 WT8      1154     MECN     N3       NG1T1   -0.460000       14.0070           0
     19692 WT8      1156     MECN     C1       CG331   -0.170000       12.0110           0
     19693 WT8      1156     MECN     H11      HGA3     0.090000        1.0080           0
     19694 WT8      1156     MECN     H12      HGA3     0.090000        1.0080           0
     19695 WT8      1156     MECN     H13      HGA3     0.090000        1.0080           0
     19696 WT8      1156     MECN     C2       CG1N1    0.360000       12.0110           0
     19697 WT8      1156     MECN     N3       NG1T1   -0.460000       14.0070           0
     19698 WT8      1159     MECN     C1       CG331   -0.170000       12.0110           0
     19699 WT8      1159     MECN     H11      HGA3     0.090000        1.0080           0
     19700 WT8      1159     MECN     H12      HGA3     0.090000        1.0080           0
     19701 WT8      1159     MECN     H13      HGA3     0.090000        1.0080           0
     19702 WT8      1159     MECN     C2       CG1N1    0.360000       12.0110           0
     19703 WT8      1159     MECN     N3       NG1T1   -0.460000       14.0070           0
     19704 WT8      1160     MECN     C1       CG331   -0.170000       12.0110           0
     19705 WT8      1160     MECN     H11      HGA3     0.090000        1.0080           0
     19706 WT8      1160     MECN     H12      HGA3     0.090000        1.0080           0
     19707 WT8      1160     MECN     H13      HGA3     0.090000        1.0080           0
     19708 WT8      1160     MECN     C2       CG1N1    0.360000       12.0110           0
     19709 WT8      1160     MECN     N3       NG1T1   -0.460000       14.0070           0
     19710 WT8      1175     MECN     C1       CG331   -0.170000       12.0110           0
     19711 WT8      1175     MECN     H11      HGA3     0.090000        1.0080           0
     19712 WT8      1175     MECN     H12      HGA3     0.090000        1.0080           0
     19713 WT8      1175     MECN     H13      HGA3     0.090000        1.0080           0
     19714 WT8      1175     MECN     C2       CG1N1    0.360000       12.0110           0
     19715 WT8      1175     MECN     N3       NG1T1   -0.460000       14.0070           0
     19716 WT8      1176     MECN     C1       CG331   -0.170000       12.0110           0
     19717 WT8      1176     MECN     H11      HGA3     0.090000        1.0080           0
     19718 WT8      1176     MECN     H12      HGA3     0.090000        1.0080           0
     19719 WT8      1176     MECN     H13      HGA3     0.090000        1.0080           0
     19720 WT8      1176     MECN     C2       CG1N1    0.360000       12.0110           0
     19721 WT8      1176     MECN     N3       NG1T1   -0.460000       14.0070           0
     19722 WT8      1177     MECN     C1       CG331   -0.170000       12.0110           0
     19723 WT8      1177     MECN     H11      HGA3     0.090000        1.0080           0
     19724 WT8      1177     MECN     H12      HGA3     0.090000        1.0080           0
     19725 WT8      1177     MECN     H13      HGA3     0.090000        1.0080           0
     19726 WT8      1177     MECN     C2       CG1N1    0.360000       12.0110           0
     19727 WT8      1177     MECN     N3       NG1T1   -0.460000       14.0070           0
     19728 WT8      1178     MECN     C1       CG331   -0.170000       12.0110           0
     19729 WT8      1178     MECN     H11      HGA3     0.090000        1.0080           0
     19730 WT8      1178     MECN     H12      HGA3     0.090000        1.0080           0
     19731 WT8      1178     MECN     H13      HGA3     0.090000        1.0080           0
     19732 WT8      1178     MECN     C2       CG1N1    0.360000       12.0110           0
     19733 WT8      1178     MECN     N3       NG1T1   -0.460000       14.0070           0
     19734 WT8      1182     MECN     C1       CG331   -0.170000       12.0110           0
     19735 WT8      1182     MECN     H11      HGA3     0.090000        1.0080           0
     19736 WT8      1182     MECN     H12      HGA3     0.090000        1.0080           0
     19737 WT8      1182     MECN     H13      HGA3     0.090000        1.0080           0
     19738 WT8      1182     MECN     C2       CG1N1    0.360000       12.0110           0
     19739 WT8      1182     MECN     N3       NG1T1   -0.460000       14.0070           0
     19740 WT8      1183     MECN     C1       CG331   -0.170000       12.0110           0
     19741 WT8      1183     MECN     H11      HGA3     0.090000        1.0080           0
     19742 WT8      1183     MECN     H12      HGA3     0.090000        1.0080           0
     19743 WT8      1183     MECN     H13      HGA3     0.090000        1.0080           0
     19744 WT8      1183     MECN     C2       CG1N1    0.360000       12.0110           0
     19745 WT8      1183     MECN     N3       NG1T1   -0.460000       14.0070           0
     19746 WT8      1184     MECN     C1       CG331   -0.170000       12.0110           0
     19747 WT8      1184     MECN     H11      HGA3     0.090000        1.0080           0
     19748 WT8      1184     MECN     H12      HGA3     0.090000        1.0080           0
     19749 WT8      1184     MECN     H13      HGA3     0.090000        1.0080           0
     19750 WT8      1184     MECN     C2       CG1N1    0.360000       12.0110           0
     19751 WT8      1184     MECN     N3       NG1T1   -0.460000       14.0070           0
     19752 WT8      1186     MECN     C1       CG331   -0.170000       12.0110           0
     19753 WT8      1186     MECN     H11      HGA3     0.090000        1.0080           0
     19754 WT8      1186     MECN     H12      HGA3     0.090000        1.0080           0
     19755 WT8      1186     MECN     H13      HGA3     0.090000        1.0080           0
     19756 WT8      1186     MECN     C2       CG1N1    0.360000       12.0110           0
     19757 WT8      1186     MECN     N3       NG1T1   -0.460000       14.0070           0
     19758 WT8      1194     MECN     C1       CG331   -0.170000       12.0110           0
     19759 WT8      1194     MECN     H11      HGA3     0.090000        1.0080           0
     19760 WT8      1194     MECN     H12      HGA3     0.090000        1.0080           0
     19761 WT8      1194     MECN     H13      HGA3     0.090000        1.0080           0
     19762 WT8      1194     MECN     C2       CG1N1    0.360000       12.0110           0
     19763 WT8      1194     MECN     N3       NG1T1   -0.460000       14.0070           0
     19764 WT8      1196     MECN     C1       CG331   -0.170000       12.0110           0
     19765 WT8      1196     MECN     H11      HGA3     0.090000        1.0080           0
     19766 WT8      1196     MECN     H12      HGA3     0.090000        1.0080           0
     19767 WT8      1196     MECN     H13      HGA3     0.090000        1.0080           0
     19768 WT8      1196     MECN     C2       CG1N1    0.360000       12.0110           0
     19769 WT8      1196     MECN     N3       NG1T1   -0.460000       14.0070           0
     19770 WT8      1201     MECN     C1       CG331   -0.170000       12.0110           0
     19771 WT8      1201     MECN     H11      HGA3     0.090000        1.0080           0
     19772 WT8      1201     MECN     H12      HGA3     0.090000        1.0080           0
     19773 WT8      1201     MECN     H13      HGA3     0.090000        1.0080           0
     19774 WT8      1201     MECN     C2       CG1N1    0.360000       12.0110           0
     19775 WT8      1201     MECN     N3       NG1T1   -0.460000       14.0070           0
     19776 WT8      1207     MECN     C1       CG331   -0.170000       12.0110           0
     19777 WT8      1207     MECN     H11      HGA3     0.090000        1.0080           0
     19778 WT8      1207     MECN     H12      HGA3     0.090000        1.0080           0
     19779 WT8      1207     MECN     H13      HGA3     0.090000        1.0080           0
     19780 WT8      1207     MECN     C2       CG1N1    0.360000       12.0110           0
     19781 WT8      1207     MECN     N3       NG1T1   -0.460000       14.0070           0
     19782 WT8      1208     MECN     C1       CG331   -0.170000       12.0110           0
     19783 WT8      1208     MECN     H11      HGA3     0.090000        1.0080           0
     19784 WT8      1208     MECN     H12      HGA3     0.090000        1.0080           0
     19785 WT8      1208     MECN     H13      HGA3     0.090000        1.0080           0
     19786 WT8      1208     MECN     C2       CG1N1    0.360000       12.0110           0
     19787 WT8      1208     MECN     N3       NG1T1   -0.460000       14.0070           0
     19788 WT8      1209     MECN     C1       CG331   -0.170000       12.0110           0
     19789 WT8      1209     MECN     H11      HGA3     0.090000        1.0080           0
     19790 WT8      1209     MECN     H12      HGA3     0.090000        1.0080           0
     19791 WT8      1209     MECN     H13      HGA3     0.090000        1.0080           0
     19792 WT8      1209     MECN     C2       CG1N1    0.360000       12.0110           0
     19793 WT8      1209     MECN     N3       NG1T1   -0.460000       14.0070           0
     19794 WT8      1215     MECN     C1       CG331   -0.170000       12.0110           0
     19795 WT8      1215     MECN     H11      HGA3     0.090000        1.0080           0
     19796 WT8      1215     MECN     H12      HGA3     0.090000        1.0080           0
     19797 WT8      1215     MECN     H13      HGA3     0.090000        1.0080           0
     19798 WT8      1215     MECN     C2       CG1N1    0.360000       12.0110           0
     19799 WT8      1215     MECN     N3       NG1T1   -0.460000       14.0070           0
     19800 WT8      1216     MECN     C1       CG331   -0.170000       12.0110           0
     19801 WT8      1216     MECN     H11      HGA3     0.090000        1.0080           0
     19802 WT8      1216     MECN     H12      HGA3     0.090000        1.0080           0
     19803 WT8      1216     MECN     H13      HGA3     0.090000        1.0080           0
     19804 WT8      1216     MECN     C2       CG1N1    0.360000       12.0110           0
     19805 WT8      1216     MECN     N3       NG1T1   -0.460000       14.0070           0
     19806 WT8      1218     MECN     C1       CG331   -0.170000       12.0110           0
     19807 WT8      1218     MECN     H11      HGA3     0.090000        1.0080           0
     19808 WT8      1218     MECN     H12      HGA3     0.090000        1.0080           0
     19809 WT8      1218     MECN     H13      HGA3     0.090000        1.0080           0
     19810 WT8      1218     MECN     C2       CG1N1    0.360000       12.0110           0
     19811 WT8      1218     MECN     N3       NG1T1   -0.460000       14.0070           0
     19812 WT8      1221     MECN     C1       CG331   -0.170000       12.0110           0
     19813 WT8      1221     MECN     H11      HGA3     0.090000        1.0080           0
     19814 WT8      1221     MECN     H12      HGA3     0.090000        1.0080           0
     19815 WT8      1221     MECN     H13      HGA3     0.090000        1.0080           0
     19816 WT8      1221     MECN     C2       CG1N1    0.360000       12.0110           0
     19817 WT8      1221     MECN     N3       NG1T1   -0.460000       14.0070           0
     19818 WT8      1229     MECN     C1       CG331   -0.170000       12.0110           0
     19819 WT8      1229     MECN     H11      HGA3     0.090000        1.0080           0
     19820 WT8      1229     MECN     H12      HGA3     0.090000        1.0080           0
     19821 WT8      1229     MECN     H13      HGA3     0.090000        1.0080           0
     19822 WT8      1229     MECN     C2       CG1N1    0.360000       12.0110           0
     19823 WT8      1229     MECN     N3       NG1T1   -0.460000       14.0070           0
     19824 WT8      1233     MECN     C1       CG331   -0.170000       12.0110           0
     19825 WT8      1233     MECN     H11      HGA3     0.090000        1.0080           0
     19826 WT8      1233     MECN     H12      HGA3     0.090000        1.0080           0
     19827 WT8      1233     MECN     H13      HGA3     0.090000        1.0080           0
     19828 WT8      1233     MECN     C2       CG1N1    0.360000       12.0110           0
     19829 WT8      1233     MECN     N3       NG1T1   -0.460000       14.0070           0
     19830 WT8      1241     MECN     C1       CG331   -0.170000       12.0110           0
     19831 WT8      1241     MECN     H11      HGA3     0.090000        1.0080           0
     19832 WT8      1241     MECN     H12      HGA3     0.090000        1.0080           0
     19833 WT8      1241     MECN     H13      HGA3     0.090000        1.0080           0
     19834 WT8      1241     MECN     C2       CG1N1    0.360000       12.0110           0
     19835 WT8      1241     MECN     N3       NG1T1   -0.460000       14.0070           0
     19836 WT8      1243     MECN     C1       CG331   -0.170000       12.0110           0
     19837 WT8      1243     MECN     H11      HGA3     0.090000        1.0080           0
     19838 WT8      1243     MECN     H12      HGA3     0.090000        1.0080           0
     19839 WT8      1243     MECN     H13      HGA3     0.090000        1.0080           0
     19840 WT8      1243     MECN     C2       CG1N1    0.360000       12.0110           0
     19841 WT8      1243     MECN     N3       NG1T1   -0.460000       14.0070           0
     19842 WT8      1245     MECN     C1       CG331   -0.170000       12.0110           0
     19843 WT8      1245     MECN     H11      HGA3     0.090000        1.0080           0
     19844 WT8      1245     MECN     H12      HGA3     0.090000        1.0080           0
     19845 WT8      1245     MECN     H13      HGA3     0.090000        1.0080           0
     19846 WT8      1245     MECN     C2       CG1N1    0.360000       12.0110           0
     19847 WT8      1245     MECN     N3       NG1T1   -0.460000       14.0070           0
     19848 WT8      1248     MECN     C1       CG331   -0.170000       12.0110           0
     19849 WT8      1248     MECN     H11      HGA3     0.090000        1.0080           0
     19850 WT8      1248     MECN     H12      HGA3     0.090000        1.0080           0
     19851 WT8      1248     MECN     H13      HGA3     0.090000        1.0080           0
     19852 WT8      1248     MECN     C2       CG1N1    0.360000       12.0110           0
     19853 WT8      1248     MECN     N3       NG1T1   -0.460000       14.0070           0
     19854 WT8      1251     MECN     C1       CG331   -0.170000       12.0110           0
     19855 WT8      1251     MECN     H11      HGA3     0.090000        1.0080           0
     19856 WT8      1251     MECN     H12      HGA3     0.090000        1.0080           0
     19857 WT8      1251     MECN     H13      HGA3     0.090000        1.0080           0
     19858 WT8      1251     MECN     C2       CG1N1    0.360000       12.0110           0
     19859 WT8      1251     MECN     N3       NG1T1   -0.460000       14.0070           0
     19860 WT8      1253     MECN     C1       CG331   -0.170000       12.0110           0
     19861 WT8      1253     MECN     H11      HGA3     0.090000        1.0080           0
     19862 WT8      1253     MECN     H12      HGA3     0.090000        1.0080           0
     19863 WT8      1253     MECN     H13      HGA3     0.090000        1.0080           0
     19864 WT8      1253     MECN     C2       CG1N1    0.360000       12.0110           0
     19865 WT8      1253     MECN     N3       NG1T1   -0.460000       14.0070           0
     19866 WT8      1258     MECN     C1       CG331   -0.170000       12.0110           0
     19867 WT8      1258     MECN     H11      HGA3     0.090000        1.0080           0
     19868 WT8      1258     MECN     H12      HGA3     0.090000        1.0080           0
     19869 WT8      1258     MECN     H13      HGA3     0.090000        1.0080           0
     19870 WT8      1258     MECN     C2       CG1N1    0.360000       12.0110           0
     19871 WT8      1258     MECN     N3       NG1T1   -0.460000       14.0070           0
     19872 WT8      1260     MECN     C1       CG331   -0.170000       12.0110           0
     19873 WT8      1260     MECN     H11      HGA3     0.090000        1.0080           0
     19874 WT8      1260     MECN     H12      HGA3     0.090000        1.0080           0
     19875 WT8      1260     MECN     H13      HGA3     0.090000        1.0080           0
     19876 WT8      1260     MECN     C2       CG1N1    0.360000       12.0110           0
     19877 WT8      1260     MECN     N3       NG1T1   -0.460000       14.0070           0
     19878 WT8      1263     MECN     C1       CG331   -0.170000       12.0110           0
     19879 WT8      1263     MECN     H11      HGA3     0.090000        1.0080           0
     19880 WT8      1263     MECN     H12      HGA3     0.090000        1.0080           0
     19881 WT8      1263     MECN     H13      HGA3     0.090000        1.0080           0
     19882 WT8      1263     MECN     C2       CG1N1    0.360000       12.0110           0
     19883 WT8      1263     MECN     N3       NG1T1   -0.460000       14.0070           0
     19884 WT8      1270     MECN     C1       CG331   -0.170000       12.0110           0
     19885 WT8      1270     MECN     H11      HGA3     0.090000        1.0080           0
     19886 WT8      1270     MECN     H12      HGA3     0.090000        1.0080           0
     19887 WT8      1270     MECN     H13      HGA3     0.090000        1.0080           0
     19888 WT8      1270     MECN     C2       CG1N1    0.360000       12.0110           0
     19889 WT8      1270     MECN     N3       NG1T1   -0.460000       14.0070           0
     19890 WT8      1273     MECN     C1       CG331   -0.170000       12.0110           0
     19891 WT8      1273     MECN     H11      HGA3     0.090000        1.0080           0
     19892 WT8      1273     MECN     H12      HGA3     0.090000        1.0080           0
     19893 WT8      1273     MECN     H13      HGA3     0.090000        1.0080           0
     19894 WT8      1273     MECN     C2       CG1N1    0.360000       12.0110           0
     19895 WT8      1273     MECN     N3       NG1T1   -0.460000       14.0070           0
     19896 WT8      1282     MECN     C1       CG331   -0.170000       12.0110           0
     19897 WT8      1282     MECN     H11      HGA3     0.090000        1.0080           0
     19898 WT8      1282     MECN     H12      HGA3     0.090000        1.0080           0
     19899 WT8      1282     MECN     H13      HGA3     0.090000        1.0080           0
     19900 WT8      1282     MECN     C2       CG1N1    0.360000       12.0110           0
     19901 WT8      1282     MECN     N3       NG1T1   -0.460000       14.0070           0
     19902 WT8      1284     MECN     C1       CG331   -0.170000       12.0110           0
     19903 WT8      1284     MECN     H11      HGA3     0.090000        1.0080           0
     19904 WT8      1284     MECN     H12      HGA3     0.090000        1.0080           0
     19905 WT8      1284     MECN     H13      HGA3     0.090000        1.0080           0
     19906 WT8      1284     MECN     C2       CG1N1    0.360000       12.0110           0
     19907 WT8      1284     MECN     N3       NG1T1   -0.460000       14.0070           0
     19908 WT8      1285     MECN     C1       CG331   -0.170000       12.0110           0
     19909 WT8      1285     MECN     H11      HGA3     0.090000        1.0080           0
     19910 WT8      1285     MECN     H12      HGA3     0.090000        1.0080           0
     19911 WT8      1285     MECN     H13      HGA3     0.090000        1.0080           0
     19912 WT8      1285     MECN     C2       CG1N1    0.360000       12.0110           0
     19913 WT8      1285     MECN     N3       NG1T1   -0.460000       14.0070           0
     19914 WT8      1287     MECN     C1       CG331   -0.170000       12.0110           0
     19915 WT8      1287     MECN     H11      HGA3     0.090000        1.0080           0
     19916 WT8      1287     MECN     H12      HGA3     0.090000        1.0080           0
     19917 WT8      1287     MECN     H13      HGA3     0.090000        1.0080           0
     19918 WT8      1287     MECN     C2       CG1N1    0.360000       12.0110           0
     19919 WT8      1287     MECN     N3       NG1T1   -0.460000       14.0070           0
     19920 WT8      1294     MECN     C1       CG331   -0.170000       12.0110           0
     19921 WT8      1294     MECN     H11      HGA3     0.090000        1.0080           0
     19922 WT8      1294     MECN     H12      HGA3     0.090000        1.0080           0
     19923 WT8      1294     MECN     H13      HGA3     0.090000        1.0080           0
     19924 WT8      1294     MECN     C2       CG1N1    0.360000       12.0110           0
     19925 WT8      1294     MECN     N3       NG1T1   -0.460000       14.0070           0
     19926 WT8      1303     MECN     C1       CG331   -0.170000       12.0110           0
     19927 WT8      1303     MECN     H11      HGA3     0.090000        1.0080           0
     19928 WT8      1303     MECN     H12      HGA3     0.090000        1.0080           0
     19929 WT8      1303     MECN     H13      HGA3     0.090000        1.0080           0
     19930 WT8      1303     MECN     C2       CG1N1    0.360000       12.0110           0
     19931 WT8      1303     MECN     N3       NG1T1   -0.460000       14.0070           0
     19932 WT8      1306     MECN     C1       CG331   -0.170000       12.0110           0
     19933 WT8      1306     MECN     H11      HGA3     0.090000        1.0080           0
     19934 WT8      1306     MECN     H12      HGA3     0.090000        1.0080           0
     19935 WT8      1306     MECN     H13      HGA3     0.090000        1.0080           0
     19936 WT8      1306     MECN     C2       CG1N1    0.360000       12.0110           0
     19937 WT8      1306     MECN     N3       NG1T1   -0.460000       14.0070           0
     19938 WT8      1307     MECN     C1       CG331   -0.170000       12.0110           0
     19939 WT8      1307     MECN     H11      HGA3     0.090000        1.0080           0
     19940 WT8      1307     MECN     H12      HGA3     0.090000        1.0080           0
     19941 WT8      1307     MECN     H13      HGA3     0.090000        1.0080           0
     19942 WT8      1307     MECN     C2       CG1N1    0.360000       12.0110           0
     19943 WT8      1307     MECN     N3       NG1T1   -0.460000       14.0070           0
     19944 WT8      1310     MECN     C1       CG331   -0.170000       12.0110           0
     19945 WT8      1310     MECN     H11      HGA3     0.090000        1.0080           0
     19946 WT8      1310     MECN     H12      HGA3     0.090000        1.0080           0
     19947 WT8      1310     MECN     H13      HGA3     0.090000        1.0080           0
     19948 WT8      1310     MECN     C2       CG1N1    0.360000       12.0110           0
     19949 WT8      1310     MECN     N3       NG1T1   -0.460000       14.0070           0
     19950 WT8      1312     MECN     C1       CG331   -0.170000       12.0110           0
     19951 WT8      1312     MECN     H11      HGA3     0.090000        1.0080           0
     19952 WT8      1312     MECN     H12      HGA3     0.090000        1.0080           0
     19953 WT8      1312     MECN     H13      HGA3     0.090000        1.0080           0
     19954 WT8      1312     MECN     C2       CG1N1    0.360000       12.0110           0
     19955 WT8      1312     MECN     N3       NG1T1   -0.460000       14.0070           0
     19956 WT8      1314     MECN     C1       CG331   -0.170000       12.0110           0
     19957 WT8      1314     MECN     H11      HGA3     0.090000        1.0080           0
     19958 WT8      1314     MECN     H12      HGA3     0.090000        1.0080           0
     19959 WT8      1314     MECN     H13      HGA3     0.090000        1.0080           0
     19960 WT8      1314     MECN     C2       CG1N1    0.360000       12.0110           0
     19961 WT8      1314     MECN     N3       NG1T1   -0.460000       14.0070           0
     19962 WT8      1315     MECN     C1       CG331   -0.170000       12.0110           0
     19963 WT8      1315     MECN     H11      HGA3     0.090000        1.0080           0
     19964 WT8      1315     MECN     H12      HGA3     0.090000        1.0080           0
     19965 WT8      1315     MECN     H13      HGA3     0.090000        1.0080           0
     19966 WT8      1315     MECN     C2       CG1N1    0.360000       12.0110           0
     19967 WT8      1315     MECN     N3       NG1T1   -0.460000       14.0070           0
     19968 WT8      1317     MECN     C1       CG331   -0.170000       12.0110           0
     19969 WT8      1317     MECN     H11      HGA3     0.090000        1.0080           0
     19970 WT8      1317     MECN     H12      HGA3     0.090000        1.0080           0
     19971 WT8      1317     MECN     H13      HGA3     0.090000        1.0080           0
     19972 WT8      1317     MECN     C2       CG1N1    0.360000       12.0110           0
     19973 WT8      1317     MECN     N3       NG1T1   -0.460000       14.0070           0
     19974 WT8      1320     MECN     C1       CG331   -0.170000       12.0110           0
     19975 WT8      1320     MECN     H11      HGA3     0.090000        1.0080           0
     19976 WT8      1320     MECN     H12      HGA3     0.090000        1.0080           0
     19977 WT8      1320     MECN     H13      HGA3     0.090000        1.0080           0
     19978 WT8      1320     MECN     C2       CG1N1    0.360000       12.0110           0
     19979 WT8      1320     MECN     N3       NG1T1   -0.460000       14.0070           0
     19980 WT8      1326     MECN     C1       CG331   -0.170000       12.0110           0
     19981 WT8      1326     MECN     H11      HGA3     0.090000        1.0080           0
     19982 WT8      1326     MECN     H12      HGA3     0.090000        1.0080           0
     19983 WT8      1326     MECN     H13      HGA3     0.090000        1.0080           0
     19984 WT8      1326     MECN     C2       CG1N1    0.360000       12.0110           0
     19985 WT8      1326     MECN     N3       NG1T1   -0.460000       14.0070           0
     19986 WT8      1329     MECN     C1       CG331   -0.170000       12.0110           0
     19987 WT8      1329     MECN     H11      HGA3     0.090000        1.0080           0
     19988 WT8      1329     MECN     H12      HGA3     0.090000        1.0080           0
     19989 WT8      1329     MECN     H13      HGA3     0.090000        1.0080           0
     19990 WT8      1329     MECN     C2       CG1N1    0.360000       12.0110           0
     19991 WT8      1329     MECN     N3       NG1T1   -0.460000       14.0070           0
     19992 WT9      2        MECN     C1       CG331   -0.170000       12.0110           0
     19993 WT9      2        MECN     H11      HGA3     0.090000        1.0080           0
     19994 WT9      2        MECN     H12      HGA3     0.090000        1.0080           0
     19995 WT9      2        MECN     H13      HGA3     0.090000        1.0080           0
     19996 WT9      2        MECN     C2       CG1N1    0.360000       12.0110           0
     19997 WT9      2        MECN     N3       NG1T1   -0.460000       14.0070           0
     19998 WT9      5        MECN     C1       CG331   -0.170000       12.0110           0
     19999 WT9      5        MECN     H11      HGA3     0.090000        1.0080           0
     20000 WT9      5        MECN     H12      HGA3     0.090000        1.0080           0
     20001 WT9      5        MECN     H13      HGA3     0.090000        1.0080           0
     20002 WT9      5        MECN     C2       CG1N1    0.360000       12.0110           0
     20003 WT9      5        MECN     N3       NG1T1   -0.460000       14.0070           0
     20004 WT9      13       MECN     C1       CG331   -0.170000       12.0110           0
     20005 WT9      13       MECN     H11      HGA3     0.090000        1.0080           0
     20006 WT9      13       MECN     H12      HGA3     0.090000        1.0080           0
     20007 WT9      13       MECN     H13      HGA3     0.090000        1.0080           0
     20008 WT9      13       MECN     C2       CG1N1    0.360000       12.0110           0
     20009 WT9      13       MECN     N3       NG1T1   -0.460000       14.0070           0
     20010 WT9      14       MECN     C1       CG331   -0.170000       12.0110           0
     20011 WT9      14       MECN     H11      HGA3     0.090000        1.0080           0
     20012 WT9      14       MECN     H12      HGA3     0.090000        1.0080           0
     20013 WT9      14       MECN     H13      HGA3     0.090000        1.0080           0
     20014 WT9      14       MECN     C2       CG1N1    0.360000       12.0110           0
     20015 WT9      14       MECN     N3       NG1T1   -0.460000       14.0070           0
     20016 WT9      17       MECN     C1       CG331   -0.170000       12.0110           0
     20017 WT9      17       MECN     H11      HGA3     0.090000        1.0080           0
     20018 WT9      17       MECN     H12      HGA3     0.090000        1.0080           0
     20019 WT9      17       MECN     H13      HGA3     0.090000        1.0080           0
     20020 WT9      17       MECN     C2       CG1N1    0.360000       12.0110           0
     20021 WT9      17       MECN     N3       NG1T1   -0.460000       14.0070           0
     20022 WT9      19       MECN     C1       CG331   -0.170000       12.0110           0
     20023 WT9      19       MECN     H11      HGA3     0.090000        1.0080           0
     20024 WT9      19       MECN     H12      HGA3     0.090000        1.0080           0
     20025 WT9      19       MECN     H13      HGA3     0.090000        1.0080           0
     20026 WT9      19       MECN     C2       CG1N1    0.360000       12.0110           0
     20027 WT9      19       MECN     N3       NG1T1   -0.460000       14.0070           0
     20028 WT9      24       MECN     C1       CG331   -0.170000       12.0110           0
     20029 WT9      24       MECN     H11      HGA3     0.090000        1.0080           0
     20030 WT9      24       MECN     H12      HGA3     0.090000        1.0080           0
     20031 WT9      24       MECN     H13      HGA3     0.090000        1.0080           0
     20032 WT9      24       MECN     C2       CG1N1    0.360000       12.0110           0
     20033 WT9      24       MECN     N3       NG1T1   -0.460000       14.0070           0
     20034 WT9      26       MECN     C1       CG331   -0.170000       12.0110           0
     20035 WT9      26       MECN     H11      HGA3     0.090000        1.0080           0
     20036 WT9      26       MECN     H12      HGA3     0.090000        1.0080           0
     20037 WT9      26       MECN     H13      HGA3     0.090000        1.0080           0
     20038 WT9      26       MECN     C2       CG1N1    0.360000       12.0110           0
     20039 WT9      26       MECN     N3       NG1T1   -0.460000       14.0070           0
     20040 WT9      27       MECN     C1       CG331   -0.170000       12.0110           0
     20041 WT9      27       MECN     H11      HGA3     0.090000        1.0080           0
     20042 WT9      27       MECN     H12      HGA3     0.090000        1.0080           0
     20043 WT9      27       MECN     H13      HGA3     0.090000        1.0080           0
     20044 WT9      27       MECN     C2       CG1N1    0.360000       12.0110           0
     20045 WT9      27       MECN     N3       NG1T1   -0.460000       14.0070           0
     20046 WT9      28       MECN     C1       CG331   -0.170000       12.0110           0
     20047 WT9      28       MECN     H11      HGA3     0.090000        1.0080           0
     20048 WT9      28       MECN     H12      HGA3     0.090000        1.0080           0
     20049 WT9      28       MECN     H13      HGA3     0.090000        1.0080           0
     20050 WT9      28       MECN     C2       CG1N1    0.360000       12.0110           0
     20051 WT9      28       MECN     N3       NG1T1   -0.460000       14.0070           0
     20052 WT9      51       MECN     C1       CG331   -0.170000       12.0110           0
     20053 WT9      51       MECN     H11      HGA3     0.090000        1.0080           0
     20054 WT9      51       MECN     H12      HGA3     0.090000        1.0080           0
     20055 WT9      51       MECN     H13      HGA3     0.090000        1.0080           0
     20056 WT9      51       MECN     C2       CG1N1    0.360000       12.0110           0
     20057 WT9      51       MECN     N3       NG1T1   -0.460000       14.0070           0
     20058 WT9      53       MECN     C1       CG331   -0.170000       12.0110           0
     20059 WT9      53       MECN     H11      HGA3     0.090000        1.0080           0
     20060 WT9      53       MECN     H12      HGA3     0.090000        1.0080           0
     20061 WT9      53       MECN     H13      HGA3     0.090000        1.0080           0
     20062 WT9      53       MECN     C2       CG1N1    0.360000       12.0110           0
     20063 WT9      53       MECN     N3       NG1T1   -0.460000       14.0070           0
     20064 WT9      68       MECN     C1       CG331   -0.170000       12.0110           0
     20065 WT9      68       MECN     H11      HGA3     0.090000        1.0080           0
     20066 WT9      68       MECN     H12      HGA3     0.090000        1.0080           0
     20067 WT9      68       MECN     H13      HGA3     0.090000        1.0080           0
     20068 WT9      68       MECN     C2       CG1N1    0.360000       12.0110           0
     20069 WT9      68       MECN     N3       NG1T1   -0.460000       14.0070           0
     20070 WT9      69       MECN     C1       CG331   -0.170000       12.0110           0
     20071 WT9      69       MECN     H11      HGA3     0.090000        1.0080           0
     20072 WT9      69       MECN     H12      HGA3     0.090000        1.0080           0
     20073 WT9      69       MECN     H13      HGA3     0.090000        1.0080           0
     20074 WT9      69       MECN     C2       CG1N1    0.360000       12.0110           0
     20075 WT9      69       MECN     N3       NG1T1   -0.460000       14.0070           0
     20076 WT9      70       MECN     C1       CG331   -0.170000       12.0110           0
     20077 WT9      70       MECN     H11      HGA3     0.090000        1.0080           0
     20078 WT9      70       MECN     H12      HGA3     0.090000        1.0080           0
     20079 WT9      70       MECN     H13      HGA3     0.090000        1.0080           0
     20080 WT9      70       MECN     C2       CG1N1    0.360000       12.0110           0
     20081 WT9      70       MECN     N3       NG1T1   -0.460000       14.0070           0
     20082 WT9      73       MECN     C1       CG331   -0.170000       12.0110           0
     20083 WT9      73       MECN     H11      HGA3     0.090000        1.0080           0
     20084 WT9      73       MECN     H12      HGA3     0.090000        1.0080           0
     20085 WT9      73       MECN     H13      HGA3     0.090000        1.0080           0
     20086 WT9      73       MECN     C2       CG1N1    0.360000       12.0110           0
     20087 WT9      73       MECN     N3       NG1T1   -0.460000       14.0070           0
     20088 WT9      77       MECN     C1       CG331   -0.170000       12.0110           0
     20089 WT9      77       MECN     H11      HGA3     0.090000        1.0080           0
     20090 WT9      77       MECN     H12      HGA3     0.090000        1.0080           0
     20091 WT9      77       MECN     H13      HGA3     0.090000        1.0080           0
     20092 WT9      77       MECN     C2       CG1N1    0.360000       12.0110           0
     20093 WT9      77       MECN     N3       NG1T1   -0.460000       14.0070           0
     20094 WT9      87       MECN     C1       CG331   -0.170000       12.0110           0
     20095 WT9      87       MECN     H11      HGA3     0.090000        1.0080           0
     20096 WT9      87       MECN     H12      HGA3     0.090000        1.0080           0
     20097 WT9      87       MECN     H13      HGA3     0.090000        1.0080           0
     20098 WT9      87       MECN     C2       CG1N1    0.360000       12.0110           0
     20099 WT9      87       MECN     N3       NG1T1   -0.460000       14.0070           0
     20100 WT9      98       MECN     C1       CG331   -0.170000       12.0110           0
     20101 WT9      98       MECN     H11      HGA3     0.090000        1.0080           0
     20102 WT9      98       MECN     H12      HGA3     0.090000        1.0080           0
     20103 WT9      98       MECN     H13      HGA3     0.090000        1.0080           0
     20104 WT9      98       MECN     C2       CG1N1    0.360000       12.0110           0
     20105 WT9      98       MECN     N3       NG1T1   -0.460000       14.0070           0
     20106 WT9      99       MECN     C1       CG331   -0.170000       12.0110           0
     20107 WT9      99       MECN     H11      HGA3     0.090000        1.0080           0
     20108 WT9      99       MECN     H12      HGA3     0.090000        1.0080           0
     20109 WT9      99       MECN     H13      HGA3     0.090000        1.0080           0
     20110 WT9      99       MECN     C2       CG1N1    0.360000       12.0110           0
     20111 WT9      99       MECN     N3       NG1T1   -0.460000       14.0070           0
     20112 WT9      102      MECN     C1       CG331   -0.170000       12.0110           0
     20113 WT9      102      MECN     H11      HGA3     0.090000        1.0080           0
     20114 WT9      102      MECN     H12      HGA3     0.090000        1.0080           0
     20115 WT9      102      MECN     H13      HGA3     0.090000        1.0080           0
     20116 WT9      102      MECN     C2       CG1N1    0.360000       12.0110           0
     20117 WT9      102      MECN     N3       NG1T1   -0.460000       14.0070           0
     20118 WT9      103      MECN     C1       CG331   -0.170000       12.0110           0
     20119 WT9      103      MECN     H11      HGA3     0.090000        1.0080           0
     20120 WT9      103      MECN     H12      HGA3     0.090000        1.0080           0
     20121 WT9      103      MECN     H13      HGA3     0.090000        1.0080           0
     20122 WT9      103      MECN     C2       CG1N1    0.360000       12.0110           0
     20123 WT9      103      MECN     N3       NG1T1   -0.460000       14.0070           0
     20124 WT9      114      MECN     C1       CG331   -0.170000       12.0110           0
     20125 WT9      114      MECN     H11      HGA3     0.090000        1.0080           0
     20126 WT9      114      MECN     H12      HGA3     0.090000        1.0080           0
     20127 WT9      114      MECN     H13      HGA3     0.090000        1.0080           0
     20128 WT9      114      MECN     C2       CG1N1    0.360000       12.0110           0
     20129 WT9      114      MECN     N3       NG1T1   -0.460000       14.0070           0
     20130 WT9      116      MECN     C1       CG331   -0.170000       12.0110           0
     20131 WT9      116      MECN     H11      HGA3     0.090000        1.0080           0
     20132 WT9      116      MECN     H12      HGA3     0.090000        1.0080           0
     20133 WT9      116      MECN     H13      HGA3     0.090000        1.0080           0
     20134 WT9      116      MECN     C2       CG1N1    0.360000       12.0110           0
     20135 WT9      116      MECN     N3       NG1T1   -0.460000       14.0070           0
     20136 WT9      128      MECN     C1       CG331   -0.170000       12.0110           0
     20137 WT9      128      MECN     H11      HGA3     0.090000        1.0080           0
     20138 WT9      128      MECN     H12      HGA3     0.090000        1.0080           0
     20139 WT9      128      MECN     H13      HGA3     0.090000        1.0080           0
     20140 WT9      128      MECN     C2       CG1N1    0.360000       12.0110           0
     20141 WT9      128      MECN     N3       NG1T1   -0.460000       14.0070           0
     20142 WT9      132      MECN     C1       CG331   -0.170000       12.0110           0
     20143 WT9      132      MECN     H11      HGA3     0.090000        1.0080           0
     20144 WT9      132      MECN     H12      HGA3     0.090000        1.0080           0
     20145 WT9      132      MECN     H13      HGA3     0.090000        1.0080           0
     20146 WT9      132      MECN     C2       CG1N1    0.360000       12.0110           0
     20147 WT9      132      MECN     N3       NG1T1   -0.460000       14.0070           0
     20148 WT9      139      MECN     C1       CG331   -0.170000       12.0110           0
     20149 WT9      139      MECN     H11      HGA3     0.090000        1.0080           0
     20150 WT9      139      MECN     H12      HGA3     0.090000        1.0080           0
     20151 WT9      139      MECN     H13      HGA3     0.090000        1.0080           0
     20152 WT9      139      MECN     C2       CG1N1    0.360000       12.0110           0
     20153 WT9      139      MECN     N3       NG1T1   -0.460000       14.0070           0
     20154 WT9      140      MECN     C1       CG331   -0.170000       12.0110           0
     20155 WT9      140      MECN     H11      HGA3     0.090000        1.0080           0
     20156 WT9      140      MECN     H12      HGA3     0.090000        1.0080           0
     20157 WT9      140      MECN     H13      HGA3     0.090000        1.0080           0
     20158 WT9      140      MECN     C2       CG1N1    0.360000       12.0110           0
     20159 WT9      140      MECN     N3       NG1T1   -0.460000       14.0070           0
     20160 WT9      155      MECN     C1       CG331   -0.170000       12.0110           0
     20161 WT9      155      MECN     H11      HGA3     0.090000        1.0080           0
     20162 WT9      155      MECN     H12      HGA3     0.090000        1.0080           0
     20163 WT9      155      MECN     H13      HGA3     0.090000        1.0080           0
     20164 WT9      155      MECN     C2       CG1N1    0.360000       12.0110           0
     20165 WT9      155      MECN     N3       NG1T1   -0.460000       14.0070           0
     20166 WT9      156      MECN     C1       CG331   -0.170000       12.0110           0
     20167 WT9      156      MECN     H11      HGA3     0.090000        1.0080           0
     20168 WT9      156      MECN     H12      HGA3     0.090000        1.0080           0
     20169 WT9      156      MECN     H13      HGA3     0.090000        1.0080           0
     20170 WT9      156      MECN     C2       CG1N1    0.360000       12.0110           0
     20171 WT9      156      MECN     N3       NG1T1   -0.460000       14.0070           0
     20172 WT9      158      MECN     C1       CG331   -0.170000       12.0110           0
     20173 WT9      158      MECN     H11      HGA3     0.090000        1.0080           0
     20174 WT9      158      MECN     H12      HGA3     0.090000        1.0080           0
     20175 WT9      158      MECN     H13      HGA3     0.090000        1.0080           0
     20176 WT9      158      MECN     C2       CG1N1    0.360000       12.0110           0
     20177 WT9      158      MECN     N3       NG1T1   -0.460000       14.0070           0
     20178 WT9      160      MECN     C1       CG331   -0.170000       12.0110           0
     20179 WT9      160      MECN     H11      HGA3     0.090000        1.0080           0
     20180 WT9      160      MECN     H12      HGA3     0.090000        1.0080           0
     20181 WT9      160      MECN     H13      HGA3     0.090000        1.0080           0
     20182 WT9      160      MECN     C2       CG1N1    0.360000       12.0110           0
     20183 WT9      160      MECN     N3       NG1T1   -0.460000       14.0070           0
     20184 WT9      161      MECN     C1       CG331   -0.170000       12.0110           0
     20185 WT9      161      MECN     H11      HGA3     0.090000        1.0080           0
     20186 WT9      161      MECN     H12      HGA3     0.090000        1.0080           0
     20187 WT9      161      MECN     H13      HGA3     0.090000        1.0080           0
     20188 WT9      161      MECN     C2       CG1N1    0.360000       12.0110           0
     20189 WT9      161      MECN     N3       NG1T1   -0.460000       14.0070           0
     20190 WT9      167      MECN     C1       CG331   -0.170000       12.0110           0
     20191 WT9      167      MECN     H11      HGA3     0.090000        1.0080           0
     20192 WT9      167      MECN     H12      HGA3     0.090000        1.0080           0
     20193 WT9      167      MECN     H13      HGA3     0.090000        1.0080           0
     20194 WT9      167      MECN     C2       CG1N1    0.360000       12.0110           0
     20195 WT9      167      MECN     N3       NG1T1   -0.460000       14.0070           0
     20196 WT9      169      MECN     C1       CG331   -0.170000       12.0110           0
     20197 WT9      169      MECN     H11      HGA3     0.090000        1.0080           0
     20198 WT9      169      MECN     H12      HGA3     0.090000        1.0080           0
     20199 WT9      169      MECN     H13      HGA3     0.090000        1.0080           0
     20200 WT9      169      MECN     C2       CG1N1    0.360000       12.0110           0
     20201 WT9      169      MECN     N3       NG1T1   -0.460000       14.0070           0
     20202 WT9      170      MECN     C1       CG331   -0.170000       12.0110           0
     20203 WT9      170      MECN     H11      HGA3     0.090000        1.0080           0
     20204 WT9      170      MECN     H12      HGA3     0.090000        1.0080           0
     20205 WT9      170      MECN     H13      HGA3     0.090000        1.0080           0
     20206 WT9      170      MECN     C2       CG1N1    0.360000       12.0110           0
     20207 WT9      170      MECN     N3       NG1T1   -0.460000       14.0070           0
     20208 WT9      176      MECN     C1       CG331   -0.170000       12.0110           0
     20209 WT9      176      MECN     H11      HGA3     0.090000        1.0080           0
     20210 WT9      176      MECN     H12      HGA3     0.090000        1.0080           0
     20211 WT9      176      MECN     H13      HGA3     0.090000        1.0080           0
     20212 WT9      176      MECN     C2       CG1N1    0.360000       12.0110           0
     20213 WT9      176      MECN     N3       NG1T1   -0.460000       14.0070           0
     20214 WT9      177      MECN     C1       CG331   -0.170000       12.0110           0
     20215 WT9      177      MECN     H11      HGA3     0.090000        1.0080           0
     20216 WT9      177      MECN     H12      HGA3     0.090000        1.0080           0
     20217 WT9      177      MECN     H13      HGA3     0.090000        1.0080           0
     20218 WT9      177      MECN     C2       CG1N1    0.360000       12.0110           0
     20219 WT9      177      MECN     N3       NG1T1   -0.460000       14.0070           0
     20220 WT9      180      MECN     C1       CG331   -0.170000       12.0110           0
     20221 WT9      180      MECN     H11      HGA3     0.090000        1.0080           0
     20222 WT9      180      MECN     H12      HGA3     0.090000        1.0080           0
     20223 WT9      180      MECN     H13      HGA3     0.090000        1.0080           0
     20224 WT9      180      MECN     C2       CG1N1    0.360000       12.0110           0
     20225 WT9      180      MECN     N3       NG1T1   -0.460000       14.0070           0
     20226 WT9      183      MECN     C1       CG331   -0.170000       12.0110           0
     20227 WT9      183      MECN     H11      HGA3     0.090000        1.0080           0
     20228 WT9      183      MECN     H12      HGA3     0.090000        1.0080           0
     20229 WT9      183      MECN     H13      HGA3     0.090000        1.0080           0
     20230 WT9      183      MECN     C2       CG1N1    0.360000       12.0110           0
     20231 WT9      183      MECN     N3       NG1T1   -0.460000       14.0070           0
     20232 WT9      187      MECN     C1       CG331   -0.170000       12.0110           0
     20233 WT9      187      MECN     H11      HGA3     0.090000        1.0080           0
     20234 WT9      187      MECN     H12      HGA3     0.090000        1.0080           0
     20235 WT9      187      MECN     H13      HGA3     0.090000        1.0080           0
     20236 WT9      187      MECN     C2       CG1N1    0.360000       12.0110           0
     20237 WT9      187      MECN     N3       NG1T1   -0.460000       14.0070           0
     20238 WT9      188      MECN     C1       CG331   -0.170000       12.0110           0
     20239 WT9      188      MECN     H11      HGA3     0.090000        1.0080           0
     20240 WT9      188      MECN     H12      HGA3     0.090000        1.0080           0
     20241 WT9      188      MECN     H13      HGA3     0.090000        1.0080           0
     20242 WT9      188      MECN     C2       CG1N1    0.360000       12.0110           0
     20243 WT9      188      MECN     N3       NG1T1   -0.460000       14.0070           0
     20244 WT9      193      MECN     C1       CG331   -0.170000       12.0110           0
     20245 WT9      193      MECN     H11      HGA3     0.090000        1.0080           0
     20246 WT9      193      MECN     H12      HGA3     0.090000        1.0080           0
     20247 WT9      193      MECN     H13      HGA3     0.090000        1.0080           0
     20248 WT9      193      MECN     C2       CG1N1    0.360000       12.0110           0
     20249 WT9      193      MECN     N3       NG1T1   -0.460000       14.0070           0
     20250 WT9      195      MECN     C1       CG331   -0.170000       12.0110           0
     20251 WT9      195      MECN     H11      HGA3     0.090000        1.0080           0
     20252 WT9      195      MECN     H12      HGA3     0.090000        1.0080           0
     20253 WT9      195      MECN     H13      HGA3     0.090000        1.0080           0
     20254 WT9      195      MECN     C2       CG1N1    0.360000       12.0110           0
     20255 WT9      195      MECN     N3       NG1T1   -0.460000       14.0070           0
     20256 WT9      206      MECN     C1       CG331   -0.170000       12.0110           0
     20257 WT9      206      MECN     H11      HGA3     0.090000        1.0080           0
     20258 WT9      206      MECN     H12      HGA3     0.090000        1.0080           0
     20259 WT9      206      MECN     H13      HGA3     0.090000        1.0080           0
     20260 WT9      206      MECN     C2       CG1N1    0.360000       12.0110           0
     20261 WT9      206      MECN     N3       NG1T1   -0.460000       14.0070           0
     20262 WT9      210      MECN     C1       CG331   -0.170000       12.0110           0
     20263 WT9      210      MECN     H11      HGA3     0.090000        1.0080           0
     20264 WT9      210      MECN     H12      HGA3     0.090000        1.0080           0
     20265 WT9      210      MECN     H13      HGA3     0.090000        1.0080           0
     20266 WT9      210      MECN     C2       CG1N1    0.360000       12.0110           0
     20267 WT9      210      MECN     N3       NG1T1   -0.460000       14.0070           0
     20268 WT9      211      MECN     C1       CG331   -0.170000       12.0110           0
     20269 WT9      211      MECN     H11      HGA3     0.090000        1.0080           0
     20270 WT9      211      MECN     H12      HGA3     0.090000        1.0080           0
     20271 WT9      211      MECN     H13      HGA3     0.090000        1.0080           0
     20272 WT9      211      MECN     C2       CG1N1    0.360000       12.0110           0
     20273 WT9      211      MECN     N3       NG1T1   -0.460000       14.0070           0
     20274 WT9      213      MECN     C1       CG331   -0.170000       12.0110           0
     20275 WT9      213      MECN     H11      HGA3     0.090000        1.0080           0
     20276 WT9      213      MECN     H12      HGA3     0.090000        1.0080           0
     20277 WT9      213      MECN     H13      HGA3     0.090000        1.0080           0
     20278 WT9      213      MECN     C2       CG1N1    0.360000       12.0110           0
     20279 WT9      213      MECN     N3       NG1T1   -0.460000       14.0070           0
     20280 WT9      214      MECN     C1       CG331   -0.170000       12.0110           0
     20281 WT9      214      MECN     H11      HGA3     0.090000        1.0080           0
     20282 WT9      214      MECN     H12      HGA3     0.090000        1.0080           0
     20283 WT9      214      MECN     H13      HGA3     0.090000        1.0080           0
     20284 WT9      214      MECN     C2       CG1N1    0.360000       12.0110           0
     20285 WT9      214      MECN     N3       NG1T1   -0.460000       14.0070           0
     20286 WT9      222      MECN     C1       CG331   -0.170000       12.0110           0
     20287 WT9      222      MECN     H11      HGA3     0.090000        1.0080           0
     20288 WT9      222      MECN     H12      HGA3     0.090000        1.0080           0
     20289 WT9      222      MECN     H13      HGA3     0.090000        1.0080           0
     20290 WT9      222      MECN     C2       CG1N1    0.360000       12.0110           0
     20291 WT9      222      MECN     N3       NG1T1   -0.460000       14.0070           0
     20292 WT9      225      MECN     C1       CG331   -0.170000       12.0110           0
     20293 WT9      225      MECN     H11      HGA3     0.090000        1.0080           0
     20294 WT9      225      MECN     H12      HGA3     0.090000        1.0080           0
     20295 WT9      225      MECN     H13      HGA3     0.090000        1.0080           0
     20296 WT9      225      MECN     C2       CG1N1    0.360000       12.0110           0
     20297 WT9      225      MECN     N3       NG1T1   -0.460000       14.0070           0
     20298 WT9      226      MECN     C1       CG331   -0.170000       12.0110           0
     20299 WT9      226      MECN     H11      HGA3     0.090000        1.0080           0
     20300 WT9      226      MECN     H12      HGA3     0.090000        1.0080           0
     20301 WT9      226      MECN     H13      HGA3     0.090000        1.0080           0
     20302 WT9      226      MECN     C2       CG1N1    0.360000       12.0110           0
     20303 WT9      226      MECN     N3       NG1T1   -0.460000       14.0070           0
     20304 WT9      227      MECN     C1       CG331   -0.170000       12.0110           0
     20305 WT9      227      MECN     H11      HGA3     0.090000        1.0080           0
     20306 WT9      227      MECN     H12      HGA3     0.090000        1.0080           0
     20307 WT9      227      MECN     H13      HGA3     0.090000        1.0080           0
     20308 WT9      227      MECN     C2       CG1N1    0.360000       12.0110           0
     20309 WT9      227      MECN     N3       NG1T1   -0.460000       14.0070           0
     20310 WT9      228      MECN     C1       CG331   -0.170000       12.0110           0
     20311 WT9      228      MECN     H11      HGA3     0.090000        1.0080           0
     20312 WT9      228      MECN     H12      HGA3     0.090000        1.0080           0
     20313 WT9      228      MECN     H13      HGA3     0.090000        1.0080           0
     20314 WT9      228      MECN     C2       CG1N1    0.360000       12.0110           0
     20315 WT9      228      MECN     N3       NG1T1   -0.460000       14.0070           0
     20316 WT9      234      MECN     C1       CG331   -0.170000       12.0110           0
     20317 WT9      234      MECN     H11      HGA3     0.090000        1.0080           0
     20318 WT9      234      MECN     H12      HGA3     0.090000        1.0080           0
     20319 WT9      234      MECN     H13      HGA3     0.090000        1.0080           0
     20320 WT9      234      MECN     C2       CG1N1    0.360000       12.0110           0
     20321 WT9      234      MECN     N3       NG1T1   -0.460000       14.0070           0
     20322 WT9      237      MECN     C1       CG331   -0.170000       12.0110           0
     20323 WT9      237      MECN     H11      HGA3     0.090000        1.0080           0
     20324 WT9      237      MECN     H12      HGA3     0.090000        1.0080           0
     20325 WT9      237      MECN     H13      HGA3     0.090000        1.0080           0
     20326 WT9      237      MECN     C2       CG1N1    0.360000       12.0110           0
     20327 WT9      237      MECN     N3       NG1T1   -0.460000       14.0070           0
     20328 WT9      239      MECN     C1       CG331   -0.170000       12.0110           0
     20329 WT9      239      MECN     H11      HGA3     0.090000        1.0080           0
     20330 WT9      239      MECN     H12      HGA3     0.090000        1.0080           0
     20331 WT9      239      MECN     H13      HGA3     0.090000        1.0080           0
     20332 WT9      239      MECN     C2       CG1N1    0.360000       12.0110           0
     20333 WT9      239      MECN     N3       NG1T1   -0.460000       14.0070           0
     20334 WT9      240      MECN     C1       CG331   -0.170000       12.0110           0
     20335 WT9      240      MECN     H11      HGA3     0.090000        1.0080           0
     20336 WT9      240      MECN     H12      HGA3     0.090000        1.0080           0
     20337 WT9      240      MECN     H13      HGA3     0.090000        1.0080           0
     20338 WT9      240      MECN     C2       CG1N1    0.360000       12.0110           0
     20339 WT9      240      MECN     N3       NG1T1   -0.460000       14.0070           0
     20340 WT9      242      MECN     C1       CG331   -0.170000       12.0110           0
     20341 WT9      242      MECN     H11      HGA3     0.090000        1.0080           0
     20342 WT9      242      MECN     H12      HGA3     0.090000        1.0080           0
     20343 WT9      242      MECN     H13      HGA3     0.090000        1.0080           0
     20344 WT9      242      MECN     C2       CG1N1    0.360000       12.0110           0
     20345 WT9      242      MECN     N3       NG1T1   -0.460000       14.0070           0
     20346 WT9      250      MECN     C1       CG331   -0.170000       12.0110           0
     20347 WT9      250      MECN     H11      HGA3     0.090000        1.0080           0
     20348 WT9      250      MECN     H12      HGA3     0.090000        1.0080           0
     20349 WT9      250      MECN     H13      HGA3     0.090000        1.0080           0
     20350 WT9      250      MECN     C2       CG1N1    0.360000       12.0110           0
     20351 WT9      250      MECN     N3       NG1T1   -0.460000       14.0070           0
     20352 WT9      254      MECN     C1       CG331   -0.170000       12.0110           0
     20353 WT9      254      MECN     H11      HGA3     0.090000        1.0080           0
     20354 WT9      254      MECN     H12      HGA3     0.090000        1.0080           0
     20355 WT9      254      MECN     H13      HGA3     0.090000        1.0080           0
     20356 WT9      254      MECN     C2       CG1N1    0.360000       12.0110           0
     20357 WT9      254      MECN     N3       NG1T1   -0.460000       14.0070           0
     20358 WT9      257      MECN     C1       CG331   -0.170000       12.0110           0
     20359 WT9      257      MECN     H11      HGA3     0.090000        1.0080           0
     20360 WT9      257      MECN     H12      HGA3     0.090000        1.0080           0
     20361 WT9      257      MECN     H13      HGA3     0.090000        1.0080           0
     20362 WT9      257      MECN     C2       CG1N1    0.360000       12.0110           0
     20363 WT9      257      MECN     N3       NG1T1   -0.460000       14.0070           0
     20364 WT9      259      MECN     C1       CG331   -0.170000       12.0110           0
     20365 WT9      259      MECN     H11      HGA3     0.090000        1.0080           0
     20366 WT9      259      MECN     H12      HGA3     0.090000        1.0080           0
     20367 WT9      259      MECN     H13      HGA3     0.090000        1.0080           0
     20368 WT9      259      MECN     C2       CG1N1    0.360000       12.0110           0
     20369 WT9      259      MECN     N3       NG1T1   -0.460000       14.0070           0
     20370 WT9      261      MECN     C1       CG331   -0.170000       12.0110           0
     20371 WT9      261      MECN     H11      HGA3     0.090000        1.0080           0
     20372 WT9      261      MECN     H12      HGA3     0.090000        1.0080           0
     20373 WT9      261      MECN     H13      HGA3     0.090000        1.0080           0
     20374 WT9      261      MECN     C2       CG1N1    0.360000       12.0110           0
     20375 WT9      261      MECN     N3       NG1T1   -0.460000       14.0070           0
     20376 WT9      268      MECN     C1       CG331   -0.170000       12.0110           0
     20377 WT9      268      MECN     H11      HGA3     0.090000        1.0080           0
     20378 WT9      268      MECN     H12      HGA3     0.090000        1.0080           0
     20379 WT9      268      MECN     H13      HGA3     0.090000        1.0080           0
     20380 WT9      268      MECN     C2       CG1N1    0.360000       12.0110           0
     20381 WT9      268      MECN     N3       NG1T1   -0.460000       14.0070           0
     20382 WT9      269      MECN     C1       CG331   -0.170000       12.0110           0
     20383 WT9      269      MECN     H11      HGA3     0.090000        1.0080           0
     20384 WT9      269      MECN     H12      HGA3     0.090000        1.0080           0
     20385 WT9      269      MECN     H13      HGA3     0.090000        1.0080           0
     20386 WT9      269      MECN     C2       CG1N1    0.360000       12.0110           0
     20387 WT9      269      MECN     N3       NG1T1   -0.460000       14.0070           0
     20388 WT9      277      MECN     C1       CG331   -0.170000       12.0110           0
     20389 WT9      277      MECN     H11      HGA3     0.090000        1.0080           0
     20390 WT9      277      MECN     H12      HGA3     0.090000        1.0080           0
     20391 WT9      277      MECN     H13      HGA3     0.090000        1.0080           0
     20392 WT9      277      MECN     C2       CG1N1    0.360000       12.0110           0
     20393 WT9      277      MECN     N3       NG1T1   -0.460000       14.0070           0
     20394 WT9      282      MECN     C1       CG331   -0.170000       12.0110           0
     20395 WT9      282      MECN     H11      HGA3     0.090000        1.0080           0
     20396 WT9      282      MECN     H12      HGA3     0.090000        1.0080           0
     20397 WT9      282      MECN     H13      HGA3     0.090000        1.0080           0
     20398 WT9      282      MECN     C2       CG1N1    0.360000       12.0110           0
     20399 WT9      282      MECN     N3       NG1T1   -0.460000       14.0070           0
     20400 WT9      284      MECN     C1       CG331   -0.170000       12.0110           0
     20401 WT9      284      MECN     H11      HGA3     0.090000        1.0080           0
     20402 WT9      284      MECN     H12      HGA3     0.090000        1.0080           0
     20403 WT9      284      MECN     H13      HGA3     0.090000        1.0080           0
     20404 WT9      284      MECN     C2       CG1N1    0.360000       12.0110           0
     20405 WT9      284      MECN     N3       NG1T1   -0.460000       14.0070           0
     20406 WT9      291      MECN     C1       CG331   -0.170000       12.0110           0
     20407 WT9      291      MECN     H11      HGA3     0.090000        1.0080           0
     20408 WT9      291      MECN     H12      HGA3     0.090000        1.0080           0
     20409 WT9      291      MECN     H13      HGA3     0.090000        1.0080           0
     20410 WT9      291      MECN     C2       CG1N1    0.360000       12.0110           0
     20411 WT9      291      MECN     N3       NG1T1   -0.460000       14.0070           0
     20412 WT9      293      MECN     C1       CG331   -0.170000       12.0110           0
     20413 WT9      293      MECN     H11      HGA3     0.090000        1.0080           0
     20414 WT9      293      MECN     H12      HGA3     0.090000        1.0080           0
     20415 WT9      293      MECN     H13      HGA3     0.090000        1.0080           0
     20416 WT9      293      MECN     C2       CG1N1    0.360000       12.0110           0
     20417 WT9      293      MECN     N3       NG1T1   -0.460000       14.0070           0
     20418 WT9      302      MECN     C1       CG331   -0.170000       12.0110           0
     20419 WT9      302      MECN     H11      HGA3     0.090000        1.0080           0
     20420 WT9      302      MECN     H12      HGA3     0.090000        1.0080           0
     20421 WT9      302      MECN     H13      HGA3     0.090000        1.0080           0
     20422 WT9      302      MECN     C2       CG1N1    0.360000       12.0110           0
     20423 WT9      302      MECN     N3       NG1T1   -0.460000       14.0070           0
     20424 WT9      303      MECN     C1       CG331   -0.170000       12.0110           0
     20425 WT9      303      MECN     H11      HGA3     0.090000        1.0080           0
     20426 WT9      303      MECN     H12      HGA3     0.090000        1.0080           0
     20427 WT9      303      MECN     H13      HGA3     0.090000        1.0080           0
     20428 WT9      303      MECN     C2       CG1N1    0.360000       12.0110           0
     20429 WT9      303      MECN     N3       NG1T1   -0.460000       14.0070           0
     20430 WT9      308      MECN     C1       CG331   -0.170000       12.0110           0
     20431 WT9      308      MECN     H11      HGA3     0.090000        1.0080           0
     20432 WT9      308      MECN     H12      HGA3     0.090000        1.0080           0
     20433 WT9      308      MECN     H13      HGA3     0.090000        1.0080           0
     20434 WT9      308      MECN     C2       CG1N1    0.360000       12.0110           0
     20435 WT9      308      MECN     N3       NG1T1   -0.460000       14.0070           0
     20436 WT9      320      MECN     C1       CG331   -0.170000       12.0110           0
     20437 WT9      320      MECN     H11      HGA3     0.090000        1.0080           0
     20438 WT9      320      MECN     H12      HGA3     0.090000        1.0080           0
     20439 WT9      320      MECN     H13      HGA3     0.090000        1.0080           0
     20440 WT9      320      MECN     C2       CG1N1    0.360000       12.0110           0
     20441 WT9      320      MECN     N3       NG1T1   -0.460000       14.0070           0
     20442 WT9      321      MECN     C1       CG331   -0.170000       12.0110           0
     20443 WT9      321      MECN     H11      HGA3     0.090000        1.0080           0
     20444 WT9      321      MECN     H12      HGA3     0.090000        1.0080           0
     20445 WT9      321      MECN     H13      HGA3     0.090000        1.0080           0
     20446 WT9      321      MECN     C2       CG1N1    0.360000       12.0110           0
     20447 WT9      321      MECN     N3       NG1T1   -0.460000       14.0070           0
     20448 WT9      323      MECN     C1       CG331   -0.170000       12.0110           0
     20449 WT9      323      MECN     H11      HGA3     0.090000        1.0080           0
     20450 WT9      323      MECN     H12      HGA3     0.090000        1.0080           0
     20451 WT9      323      MECN     H13      HGA3     0.090000        1.0080           0
     20452 WT9      323      MECN     C2       CG1N1    0.360000       12.0110           0
     20453 WT9      323      MECN     N3       NG1T1   -0.460000       14.0070           0
     20454 WT9      324      MECN     C1       CG331   -0.170000       12.0110           0
     20455 WT9      324      MECN     H11      HGA3     0.090000        1.0080           0
     20456 WT9      324      MECN     H12      HGA3     0.090000        1.0080           0
     20457 WT9      324      MECN     H13      HGA3     0.090000        1.0080           0
     20458 WT9      324      MECN     C2       CG1N1    0.360000       12.0110           0
     20459 WT9      324      MECN     N3       NG1T1   -0.460000       14.0070           0
     20460 WT9      326      MECN     C1       CG331   -0.170000       12.0110           0
     20461 WT9      326      MECN     H11      HGA3     0.090000        1.0080           0
     20462 WT9      326      MECN     H12      HGA3     0.090000        1.0080           0
     20463 WT9      326      MECN     H13      HGA3     0.090000        1.0080           0
     20464 WT9      326      MECN     C2       CG1N1    0.360000       12.0110           0
     20465 WT9      326      MECN     N3       NG1T1   -0.460000       14.0070           0
     20466 WT9      329      MECN     C1       CG331   -0.170000       12.0110           0
     20467 WT9      329      MECN     H11      HGA3     0.090000        1.0080           0
     20468 WT9      329      MECN     H12      HGA3     0.090000        1.0080           0
     20469 WT9      329      MECN     H13      HGA3     0.090000        1.0080           0
     20470 WT9      329      MECN     C2       CG1N1    0.360000       12.0110           0
     20471 WT9      329      MECN     N3       NG1T1   -0.460000       14.0070           0
     20472 WT9      331      MECN     C1       CG331   -0.170000       12.0110           0
     20473 WT9      331      MECN     H11      HGA3     0.090000        1.0080           0
     20474 WT9      331      MECN     H12      HGA3     0.090000        1.0080           0
     20475 WT9      331      MECN     H13      HGA3     0.090000        1.0080           0
     20476 WT9      331      MECN     C2       CG1N1    0.360000       12.0110           0
     20477 WT9      331      MECN     N3       NG1T1   -0.460000       14.0070           0
     20478 WT9      348      MECN     C1       CG331   -0.170000       12.0110           0
     20479 WT9      348      MECN     H11      HGA3     0.090000        1.0080           0
     20480 WT9      348      MECN     H12      HGA3     0.090000        1.0080           0
     20481 WT9      348      MECN     H13      HGA3     0.090000        1.0080           0
     20482 WT9      348      MECN     C2       CG1N1    0.360000       12.0110           0
     20483 WT9      348      MECN     N3       NG1T1   -0.460000       14.0070           0
     20484 WT9      350      MECN     C1       CG331   -0.170000       12.0110           0
     20485 WT9      350      MECN     H11      HGA3     0.090000        1.0080           0
     20486 WT9      350      MECN     H12      HGA3     0.090000        1.0080           0
     20487 WT9      350      MECN     H13      HGA3     0.090000        1.0080           0
     20488 WT9      350      MECN     C2       CG1N1    0.360000       12.0110           0
     20489 WT9      350      MECN     N3       NG1T1   -0.460000       14.0070           0
     20490 WT9      352      MECN     C1       CG331   -0.170000       12.0110           0
     20491 WT9      352      MECN     H11      HGA3     0.090000        1.0080           0
     20492 WT9      352      MECN     H12      HGA3     0.090000        1.0080           0
     20493 WT9      352      MECN     H13      HGA3     0.090000        1.0080           0
     20494 WT9      352      MECN     C2       CG1N1    0.360000       12.0110           0
     20495 WT9      352      MECN     N3       NG1T1   -0.460000       14.0070           0
     20496 WT9      354      MECN     C1       CG331   -0.170000       12.0110           0
     20497 WT9      354      MECN     H11      HGA3     0.090000        1.0080           0
     20498 WT9      354      MECN     H12      HGA3     0.090000        1.0080           0
     20499 WT9      354      MECN     H13      HGA3     0.090000        1.0080           0
     20500 WT9      354      MECN     C2       CG1N1    0.360000       12.0110           0
     20501 WT9      354      MECN     N3       NG1T1   -0.460000       14.0070           0
     20502 WT9      355      MECN     C1       CG331   -0.170000       12.0110           0
     20503 WT9      355      MECN     H11      HGA3     0.090000        1.0080           0
     20504 WT9      355      MECN     H12      HGA3     0.090000        1.0080           0
     20505 WT9      355      MECN     H13      HGA3     0.090000        1.0080           0
     20506 WT9      355      MECN     C2       CG1N1    0.360000       12.0110           0
     20507 WT9      355      MECN     N3       NG1T1   -0.460000       14.0070           0
     20508 WT9      356      MECN     C1       CG331   -0.170000       12.0110           0
     20509 WT9      356      MECN     H11      HGA3     0.090000        1.0080           0
     20510 WT9      356      MECN     H12      HGA3     0.090000        1.0080           0
     20511 WT9      356      MECN     H13      HGA3     0.090000        1.0080           0
     20512 WT9      356      MECN     C2       CG1N1    0.360000       12.0110           0
     20513 WT9      356      MECN     N3       NG1T1   -0.460000       14.0070           0
     20514 WT9      357      MECN     C1       CG331   -0.170000       12.0110           0
     20515 WT9      357      MECN     H11      HGA3     0.090000        1.0080           0
     20516 WT9      357      MECN     H12      HGA3     0.090000        1.0080           0
     20517 WT9      357      MECN     H13      HGA3     0.090000        1.0080           0
     20518 WT9      357      MECN     C2       CG1N1    0.360000       12.0110           0
     20519 WT9      357      MECN     N3       NG1T1   -0.460000       14.0070           0
     20520 WT9      363      MECN     C1       CG331   -0.170000       12.0110           0
     20521 WT9      363      MECN     H11      HGA3     0.090000        1.0080           0
     20522 WT9      363      MECN     H12      HGA3     0.090000        1.0080           0
     20523 WT9      363      MECN     H13      HGA3     0.090000        1.0080           0
     20524 WT9      363      MECN     C2       CG1N1    0.360000       12.0110           0
     20525 WT9      363      MECN     N3       NG1T1   -0.460000       14.0070           0
     20526 WT9      365      MECN     C1       CG331   -0.170000       12.0110           0
     20527 WT9      365      MECN     H11      HGA3     0.090000        1.0080           0
     20528 WT9      365      MECN     H12      HGA3     0.090000        1.0080           0
     20529 WT9      365      MECN     H13      HGA3     0.090000        1.0080           0
     20530 WT9      365      MECN     C2       CG1N1    0.360000       12.0110           0
     20531 WT9      365      MECN     N3       NG1T1   -0.460000       14.0070           0
     20532 WT9      368      MECN     C1       CG331   -0.170000       12.0110           0
     20533 WT9      368      MECN     H11      HGA3     0.090000        1.0080           0
     20534 WT9      368      MECN     H12      HGA3     0.090000        1.0080           0
     20535 WT9      368      MECN     H13      HGA3     0.090000        1.0080           0
     20536 WT9      368      MECN     C2       CG1N1    0.360000       12.0110           0
     20537 WT9      368      MECN     N3       NG1T1   -0.460000       14.0070           0
     20538 WT9      370      MECN     C1       CG331   -0.170000       12.0110           0
     20539 WT9      370      MECN     H11      HGA3     0.090000        1.0080           0
     20540 WT9      370      MECN     H12      HGA3     0.090000        1.0080           0
     20541 WT9      370      MECN     H13      HGA3     0.090000        1.0080           0
     20542 WT9      370      MECN     C2       CG1N1    0.360000       12.0110           0
     20543 WT9      370      MECN     N3       NG1T1   -0.460000       14.0070           0
     20544 WT9      371      MECN     C1       CG331   -0.170000       12.0110           0
     20545 WT9      371      MECN     H11      HGA3     0.090000        1.0080           0
     20546 WT9      371      MECN     H12      HGA3     0.090000        1.0080           0
     20547 WT9      371      MECN     H13      HGA3     0.090000        1.0080           0
     20548 WT9      371      MECN     C2       CG1N1    0.360000       12.0110           0
     20549 WT9      371      MECN     N3       NG1T1   -0.460000       14.0070           0
     20550 WT9      372      MECN     C1       CG331   -0.170000       12.0110           0
     20551 WT9      372      MECN     H11      HGA3     0.090000        1.0080           0
     20552 WT9      372      MECN     H12      HGA3     0.090000        1.0080           0
     20553 WT9      372      MECN     H13      HGA3     0.090000        1.0080           0
     20554 WT9      372      MECN     C2       CG1N1    0.360000       12.0110           0
     20555 WT9      372      MECN     N3       NG1T1   -0.460000       14.0070           0
     20556 WT9      379      MECN     C1       CG331   -0.170000       12.0110           0
     20557 WT9      379      MECN     H11      HGA3     0.090000        1.0080           0
     20558 WT9      379      MECN     H12      HGA3     0.090000        1.0080           0
     20559 WT9      379      MECN     H13      HGA3     0.090000        1.0080           0
     20560 WT9      379      MECN     C2       CG1N1    0.360000       12.0110           0
     20561 WT9      379      MECN     N3       NG1T1   -0.460000       14.0070           0
     20562 WT9      382      MECN     C1       CG331   -0.170000       12.0110           0
     20563 WT9      382      MECN     H11      HGA3     0.090000        1.0080           0
     20564 WT9      382      MECN     H12      HGA3     0.090000        1.0080           0
     20565 WT9      382      MECN     H13      HGA3     0.090000        1.0080           0
     20566 WT9      382      MECN     C2       CG1N1    0.360000       12.0110           0
     20567 WT9      382      MECN     N3       NG1T1   -0.460000       14.0070           0
     20568 WT9      390      MECN     C1       CG331   -0.170000       12.0110           0
     20569 WT9      390      MECN     H11      HGA3     0.090000        1.0080           0
     20570 WT9      390      MECN     H12      HGA3     0.090000        1.0080           0
     20571 WT9      390      MECN     H13      HGA3     0.090000        1.0080           0
     20572 WT9      390      MECN     C2       CG1N1    0.360000       12.0110           0
     20573 WT9      390      MECN     N3       NG1T1   -0.460000       14.0070           0
     20574 WT9      396      MECN     C1       CG331   -0.170000       12.0110           0
     20575 WT9      396      MECN     H11      HGA3     0.090000        1.0080           0
     20576 WT9      396      MECN     H12      HGA3     0.090000        1.0080           0
     20577 WT9      396      MECN     H13      HGA3     0.090000        1.0080           0
     20578 WT9      396      MECN     C2       CG1N1    0.360000       12.0110           0
     20579 WT9      396      MECN     N3       NG1T1   -0.460000       14.0070           0
     20580 WT9      397      MECN     C1       CG331   -0.170000       12.0110           0
     20581 WT9      397      MECN     H11      HGA3     0.090000        1.0080           0
     20582 WT9      397      MECN     H12      HGA3     0.090000        1.0080           0
     20583 WT9      397      MECN     H13      HGA3     0.090000        1.0080           0
     20584 WT9      397      MECN     C2       CG1N1    0.360000       12.0110           0
     20585 WT9      397      MECN     N3       NG1T1   -0.460000       14.0070           0
     20586 WT9      398      MECN     C1       CG331   -0.170000       12.0110           0
     20587 WT9      398      MECN     H11      HGA3     0.090000        1.0080           0
     20588 WT9      398      MECN     H12      HGA3     0.090000        1.0080           0
     20589 WT9      398      MECN     H13      HGA3     0.090000        1.0080           0
     20590 WT9      398      MECN     C2       CG1N1    0.360000       12.0110           0
     20591 WT9      398      MECN     N3       NG1T1   -0.460000       14.0070           0
     20592 WT9      399      MECN     C1       CG331   -0.170000       12.0110           0
     20593 WT9      399      MECN     H11      HGA3     0.090000        1.0080           0
     20594 WT9      399      MECN     H12      HGA3     0.090000        1.0080           0
     20595 WT9      399      MECN     H13      HGA3     0.090000        1.0080           0
     20596 WT9      399      MECN     C2       CG1N1    0.360000       12.0110           0
     20597 WT9      399      MECN     N3       NG1T1   -0.460000       14.0070           0
     20598 WT9      407      MECN     C1       CG331   -0.170000       12.0110           0
     20599 WT9      407      MECN     H11      HGA3     0.090000        1.0080           0
     20600 WT9      407      MECN     H12      HGA3     0.090000        1.0080           0
     20601 WT9      407      MECN     H13      HGA3     0.090000        1.0080           0
     20602 WT9      407      MECN     C2       CG1N1    0.360000       12.0110           0
     20603 WT9      407      MECN     N3       NG1T1   -0.460000       14.0070           0
     20604 WT9      411      MECN     C1       CG331   -0.170000       12.0110           0
     20605 WT9      411      MECN     H11      HGA3     0.090000        1.0080           0
     20606 WT9      411      MECN     H12      HGA3     0.090000        1.0080           0
     20607 WT9      411      MECN     H13      HGA3     0.090000        1.0080           0
     20608 WT9      411      MECN     C2       CG1N1    0.360000       12.0110           0
     20609 WT9      411      MECN     N3       NG1T1   -0.460000       14.0070           0
     20610 WT9      415      MECN     C1       CG331   -0.170000       12.0110           0
     20611 WT9      415      MECN     H11      HGA3     0.090000        1.0080           0
     20612 WT9      415      MECN     H12      HGA3     0.090000        1.0080           0
     20613 WT9      415      MECN     H13      HGA3     0.090000        1.0080           0
     20614 WT9      415      MECN     C2       CG1N1    0.360000       12.0110           0
     20615 WT9      415      MECN     N3       NG1T1   -0.460000       14.0070           0
     20616 WT9      416      MECN     C1       CG331   -0.170000       12.0110           0
     20617 WT9      416      MECN     H11      HGA3     0.090000        1.0080           0
     20618 WT9      416      MECN     H12      HGA3     0.090000        1.0080           0
     20619 WT9      416      MECN     H13      HGA3     0.090000        1.0080           0
     20620 WT9      416      MECN     C2       CG1N1    0.360000       12.0110           0
     20621 WT9      416      MECN     N3       NG1T1   -0.460000       14.0070           0
     20622 WT9      419      MECN     C1       CG331   -0.170000       12.0110           0
     20623 WT9      419      MECN     H11      HGA3     0.090000        1.0080           0
     20624 WT9      419      MECN     H12      HGA3     0.090000        1.0080           0
     20625 WT9      419      MECN     H13      HGA3     0.090000        1.0080           0
     20626 WT9      419      MECN     C2       CG1N1    0.360000       12.0110           0
     20627 WT9      419      MECN     N3       NG1T1   -0.460000       14.0070           0
     20628 WT9      424      MECN     C1       CG331   -0.170000       12.0110           0
     20629 WT9      424      MECN     H11      HGA3     0.090000        1.0080           0
     20630 WT9      424      MECN     H12      HGA3     0.090000        1.0080           0
     20631 WT9      424      MECN     H13      HGA3     0.090000        1.0080           0
     20632 WT9      424      MECN     C2       CG1N1    0.360000       12.0110           0
     20633 WT9      424      MECN     N3       NG1T1   -0.460000       14.0070           0
     20634 WT9      425      MECN     C1       CG331   -0.170000       12.0110           0
     20635 WT9      425      MECN     H11      HGA3     0.090000        1.0080           0
     20636 WT9      425      MECN     H12      HGA3     0.090000        1.0080           0
     20637 WT9      425      MECN     H13      HGA3     0.090000        1.0080           0
     20638 WT9      425      MECN     C2       CG1N1    0.360000       12.0110           0
     20639 WT9      425      MECN     N3       NG1T1   -0.460000       14.0070           0
     20640 WT9      426      MECN     C1       CG331   -0.170000       12.0110           0
     20641 WT9      426      MECN     H11      HGA3     0.090000        1.0080           0
     20642 WT9      426      MECN     H12      HGA3     0.090000        1.0080           0
     20643 WT9      426      MECN     H13      HGA3     0.090000        1.0080           0
     20644 WT9      426      MECN     C2       CG1N1    0.360000       12.0110           0
     20645 WT9      426      MECN     N3       NG1T1   -0.460000       14.0070           0
     20646 WT9      428      MECN     C1       CG331   -0.170000       12.0110           0
     20647 WT9      428      MECN     H11      HGA3     0.090000        1.0080           0
     20648 WT9      428      MECN     H12      HGA3     0.090000        1.0080           0
     20649 WT9      428      MECN     H13      HGA3     0.090000        1.0080           0
     20650 WT9      428      MECN     C2       CG1N1    0.360000       12.0110           0
     20651 WT9      428      MECN     N3       NG1T1   -0.460000       14.0070           0
     20652 WT9      430      MECN     C1       CG331   -0.170000       12.0110           0
     20653 WT9      430      MECN     H11      HGA3     0.090000        1.0080           0
     20654 WT9      430      MECN     H12      HGA3     0.090000        1.0080           0
     20655 WT9      430      MECN     H13      HGA3     0.090000        1.0080           0
     20656 WT9      430      MECN     C2       CG1N1    0.360000       12.0110           0
     20657 WT9      430      MECN     N3       NG1T1   -0.460000       14.0070           0
     20658 WT9      439      MECN     C1       CG331   -0.170000       12.0110           0
     20659 WT9      439      MECN     H11      HGA3     0.090000        1.0080           0
     20660 WT9      439      MECN     H12      HGA3     0.090000        1.0080           0
     20661 WT9      439      MECN     H13      HGA3     0.090000        1.0080           0
     20662 WT9      439      MECN     C2       CG1N1    0.360000       12.0110           0
     20663 WT9      439      MECN     N3       NG1T1   -0.460000       14.0070           0
     20664 WT9      444      MECN     C1       CG331   -0.170000       12.0110           0
     20665 WT9      444      MECN     H11      HGA3     0.090000        1.0080           0
     20666 WT9      444      MECN     H12      HGA3     0.090000        1.0080           0
     20667 WT9      444      MECN     H13      HGA3     0.090000        1.0080           0
     20668 WT9      444      MECN     C2       CG1N1    0.360000       12.0110           0
     20669 WT9      444      MECN     N3       NG1T1   -0.460000       14.0070           0
     20670 WT9      447      MECN     C1       CG331   -0.170000       12.0110           0
     20671 WT9      447      MECN     H11      HGA3     0.090000        1.0080           0
     20672 WT9      447      MECN     H12      HGA3     0.090000        1.0080           0
     20673 WT9      447      MECN     H13      HGA3     0.090000        1.0080           0
     20674 WT9      447      MECN     C2       CG1N1    0.360000       12.0110           0
     20675 WT9      447      MECN     N3       NG1T1   -0.460000       14.0070           0
     20676 WT9      451      MECN     C1       CG331   -0.170000       12.0110           0
     20677 WT9      451      MECN     H11      HGA3     0.090000        1.0080           0
     20678 WT9      451      MECN     H12      HGA3     0.090000        1.0080           0
     20679 WT9      451      MECN     H13      HGA3     0.090000        1.0080           0
     20680 WT9      451      MECN     C2       CG1N1    0.360000       12.0110           0
     20681 WT9      451      MECN     N3       NG1T1   -0.460000       14.0070           0
     20682 WT9      459      MECN     C1       CG331   -0.170000       12.0110           0
     20683 WT9      459      MECN     H11      HGA3     0.090000        1.0080           0
     20684 WT9      459      MECN     H12      HGA3     0.090000        1.0080           0
     20685 WT9      459      MECN     H13      HGA3     0.090000        1.0080           0
     20686 WT9      459      MECN     C2       CG1N1    0.360000       12.0110           0
     20687 WT9      459      MECN     N3       NG1T1   -0.460000       14.0070           0
     20688 WT9      460      MECN     C1       CG331   -0.170000       12.0110           0
     20689 WT9      460      MECN     H11      HGA3     0.090000        1.0080           0
     20690 WT9      460      MECN     H12      HGA3     0.090000        1.0080           0
     20691 WT9      460      MECN     H13      HGA3     0.090000        1.0080           0
     20692 WT9      460      MECN     C2       CG1N1    0.360000       12.0110           0
     20693 WT9      460      MECN     N3       NG1T1   -0.460000       14.0070           0
     20694 WT9      463      MECN     C1       CG331   -0.170000       12.0110           0
     20695 WT9      463      MECN     H11      HGA3     0.090000        1.0080           0
     20696 WT9      463      MECN     H12      HGA3     0.090000        1.0080           0
     20697 WT9      463      MECN     H13      HGA3     0.090000        1.0080           0
     20698 WT9      463      MECN     C2       CG1N1    0.360000       12.0110           0
     20699 WT9      463      MECN     N3       NG1T1   -0.460000       14.0070           0
     20700 WT9      472      MECN     C1       CG331   -0.170000       12.0110           0
     20701 WT9      472      MECN     H11      HGA3     0.090000        1.0080           0
     20702 WT9      472      MECN     H12      HGA3     0.090000        1.0080           0
     20703 WT9      472      MECN     H13      HGA3     0.090000        1.0080           0
     20704 WT9      472      MECN     C2       CG1N1    0.360000       12.0110           0
     20705 WT9      472      MECN     N3       NG1T1   -0.460000       14.0070           0
     20706 WT9      473      MECN     C1       CG331   -0.170000       12.0110           0
     20707 WT9      473      MECN     H11      HGA3     0.090000        1.0080           0
     20708 WT9      473      MECN     H12      HGA3     0.090000        1.0080           0
     20709 WT9      473      MECN     H13      HGA3     0.090000        1.0080           0
     20710 WT9      473      MECN     C2       CG1N1    0.360000       12.0110           0
     20711 WT9      473      MECN     N3       NG1T1   -0.460000       14.0070           0
     20712 WT9      484      MECN     C1       CG331   -0.170000       12.0110           0
     20713 WT9      484      MECN     H11      HGA3     0.090000        1.0080           0
     20714 WT9      484      MECN     H12      HGA3     0.090000        1.0080           0
     20715 WT9      484      MECN     H13      HGA3     0.090000        1.0080           0
     20716 WT9      484      MECN     C2       CG1N1    0.360000       12.0110           0
     20717 WT9      484      MECN     N3       NG1T1   -0.460000       14.0070           0
     20718 WT9      487      MECN     C1       CG331   -0.170000       12.0110           0
     20719 WT9      487      MECN     H11      HGA3     0.090000        1.0080           0
     20720 WT9      487      MECN     H12      HGA3     0.090000        1.0080           0
     20721 WT9      487      MECN     H13      HGA3     0.090000        1.0080           0
     20722 WT9      487      MECN     C2       CG1N1    0.360000       12.0110           0
     20723 WT9      487      MECN     N3       NG1T1   -0.460000       14.0070           0
     20724 WT9      500      MECN     C1       CG331   -0.170000       12.0110           0
     20725 WT9      500      MECN     H11      HGA3     0.090000        1.0080           0
     20726 WT9      500      MECN     H12      HGA3     0.090000        1.0080           0
     20727 WT9      500      MECN     H13      HGA3     0.090000        1.0080           0
     20728 WT9      500      MECN     C2       CG1N1    0.360000       12.0110           0
     20729 WT9      500      MECN     N3       NG1T1   -0.460000       14.0070           0
     20730 WT9      508      MECN     C1       CG331   -0.170000       12.0110           0
     20731 WT9      508      MECN     H11      HGA3     0.090000        1.0080           0
     20732 WT9      508      MECN     H12      HGA3     0.090000        1.0080           0
     20733 WT9      508      MECN     H13      HGA3     0.090000        1.0080           0
     20734 WT9      508      MECN     C2       CG1N1    0.360000       12.0110           0
     20735 WT9      508      MECN     N3       NG1T1   -0.460000       14.0070           0
     20736 WT9      512      MECN     C1       CG331   -0.170000       12.0110           0
     20737 WT9      512      MECN     H11      HGA3     0.090000        1.0080           0
     20738 WT9      512      MECN     H12      HGA3     0.090000        1.0080           0
     20739 WT9      512      MECN     H13      HGA3     0.090000        1.0080           0
     20740 WT9      512      MECN     C2       CG1N1    0.360000       12.0110           0
     20741 WT9      512      MECN     N3       NG1T1   -0.460000       14.0070           0
     20742 WT9      513      MECN     C1       CG331   -0.170000       12.0110           0
     20743 WT9      513      MECN     H11      HGA3     0.090000        1.0080           0
     20744 WT9      513      MECN     H12      HGA3     0.090000        1.0080           0
     20745 WT9      513      MECN     H13      HGA3     0.090000        1.0080           0
     20746 WT9      513      MECN     C2       CG1N1    0.360000       12.0110           0
     20747 WT9      513      MECN     N3       NG1T1   -0.460000       14.0070           0
     20748 WT9      518      MECN     C1       CG331   -0.170000       12.0110           0
     20749 WT9      518      MECN     H11      HGA3     0.090000        1.0080           0
     20750 WT9      518      MECN     H12      HGA3     0.090000        1.0080           0
     20751 WT9      518      MECN     H13      HGA3     0.090000        1.0080           0
     20752 WT9      518      MECN     C2       CG1N1    0.360000       12.0110           0
     20753 WT9      518      MECN     N3       NG1T1   -0.460000       14.0070           0
     20754 WT9      521      MECN     C1       CG331   -0.170000       12.0110           0
     20755 WT9      521      MECN     H11      HGA3     0.090000        1.0080           0
     20756 WT9      521      MECN     H12      HGA3     0.090000        1.0080           0
     20757 WT9      521      MECN     H13      HGA3     0.090000        1.0080           0
     20758 WT9      521      MECN     C2       CG1N1    0.360000       12.0110           0
     20759 WT9      521      MECN     N3       NG1T1   -0.460000       14.0070           0
     20760 WT9      524      MECN     C1       CG331   -0.170000       12.0110           0
     20761 WT9      524      MECN     H11      HGA3     0.090000        1.0080           0
     20762 WT9      524      MECN     H12      HGA3     0.090000        1.0080           0
     20763 WT9      524      MECN     H13      HGA3     0.090000        1.0080           0
     20764 WT9      524      MECN     C2       CG1N1    0.360000       12.0110           0
     20765 WT9      524      MECN     N3       NG1T1   -0.460000       14.0070           0
     20766 WT9      526      MECN     C1       CG331   -0.170000       12.0110           0
     20767 WT9      526      MECN     H11      HGA3     0.090000        1.0080           0
     20768 WT9      526      MECN     H12      HGA3     0.090000        1.0080           0
     20769 WT9      526      MECN     H13      HGA3     0.090000        1.0080           0
     20770 WT9      526      MECN     C2       CG1N1    0.360000       12.0110           0
     20771 WT9      526      MECN     N3       NG1T1   -0.460000       14.0070           0
     20772 WT9      541      MECN     C1       CG331   -0.170000       12.0110           0
     20773 WT9      541      MECN     H11      HGA3     0.090000        1.0080           0
     20774 WT9      541      MECN     H12      HGA3     0.090000        1.0080           0
     20775 WT9      541      MECN     H13      HGA3     0.090000        1.0080           0
     20776 WT9      541      MECN     C2       CG1N1    0.360000       12.0110           0
     20777 WT9      541      MECN     N3       NG1T1   -0.460000       14.0070           0
     20778 WT9      542      MECN     C1       CG331   -0.170000       12.0110           0
     20779 WT9      542      MECN     H11      HGA3     0.090000        1.0080           0
     20780 WT9      542      MECN     H12      HGA3     0.090000        1.0080           0
     20781 WT9      542      MECN     H13      HGA3     0.090000        1.0080           0
     20782 WT9      542      MECN     C2       CG1N1    0.360000       12.0110           0
     20783 WT9      542      MECN     N3       NG1T1   -0.460000       14.0070           0
     20784 WT9      546      MECN     C1       CG331   -0.170000       12.0110           0
     20785 WT9      546      MECN     H11      HGA3     0.090000        1.0080           0
     20786 WT9      546      MECN     H12      HGA3     0.090000        1.0080           0
     20787 WT9      546      MECN     H13      HGA3     0.090000        1.0080           0
     20788 WT9      546      MECN     C2       CG1N1    0.360000       12.0110           0
     20789 WT9      546      MECN     N3       NG1T1   -0.460000       14.0070           0
     20790 WT9      549      MECN     C1       CG331   -0.170000       12.0110           0
     20791 WT9      549      MECN     H11      HGA3     0.090000        1.0080           0
     20792 WT9      549      MECN     H12      HGA3     0.090000        1.0080           0
     20793 WT9      549      MECN     H13      HGA3     0.090000        1.0080           0
     20794 WT9      549      MECN     C2       CG1N1    0.360000       12.0110           0
     20795 WT9      549      MECN     N3       NG1T1   -0.460000       14.0070           0
     20796 WT9      563      MECN     C1       CG331   -0.170000       12.0110           0
     20797 WT9      563      MECN     H11      HGA3     0.090000        1.0080           0
     20798 WT9      563      MECN     H12      HGA3     0.090000        1.0080           0
     20799 WT9      563      MECN     H13      HGA3     0.090000        1.0080           0
     20800 WT9      563      MECN     C2       CG1N1    0.360000       12.0110           0
     20801 WT9      563      MECN     N3       NG1T1   -0.460000       14.0070           0
     20802 WT9      565      MECN     C1       CG331   -0.170000       12.0110           0
     20803 WT9      565      MECN     H11      HGA3     0.090000        1.0080           0
     20804 WT9      565      MECN     H12      HGA3     0.090000        1.0080           0
     20805 WT9      565      MECN     H13      HGA3     0.090000        1.0080           0
     20806 WT9      565      MECN     C2       CG1N1    0.360000       12.0110           0
     20807 WT9      565      MECN     N3       NG1T1   -0.460000       14.0070           0
     20808 WT9      567      MECN     C1       CG331   -0.170000       12.0110           0
     20809 WT9      567      MECN     H11      HGA3     0.090000        1.0080           0
     20810 WT9      567      MECN     H12      HGA3     0.090000        1.0080           0
     20811 WT9      567      MECN     H13      HGA3     0.090000        1.0080           0
     20812 WT9      567      MECN     C2       CG1N1    0.360000       12.0110           0
     20813 WT9      567      MECN     N3       NG1T1   -0.460000       14.0070           0
     20814 WT9      568      MECN     C1       CG331   -0.170000       12.0110           0
     20815 WT9      568      MECN     H11      HGA3     0.090000        1.0080           0
     20816 WT9      568      MECN     H12      HGA3     0.090000        1.0080           0
     20817 WT9      568      MECN     H13      HGA3     0.090000        1.0080           0
     20818 WT9      568      MECN     C2       CG1N1    0.360000       12.0110           0
     20819 WT9      568      MECN     N3       NG1T1   -0.460000       14.0070           0
     20820 WT9      569      MECN     C1       CG331   -0.170000       12.0110           0
     20821 WT9      569      MECN     H11      HGA3     0.090000        1.0080           0
     20822 WT9      569      MECN     H12      HGA3     0.090000        1.0080           0
     20823 WT9      569      MECN     H13      HGA3     0.090000        1.0080           0
     20824 WT9      569      MECN     C2       CG1N1    0.360000       12.0110           0
     20825 WT9      569      MECN     N3       NG1T1   -0.460000       14.0070           0
     20826 WT9      570      MECN     C1       CG331   -0.170000       12.0110           0
     20827 WT9      570      MECN     H11      HGA3     0.090000        1.0080           0
     20828 WT9      570      MECN     H12      HGA3     0.090000        1.0080           0
     20829 WT9      570      MECN     H13      HGA3     0.090000        1.0080           0
     20830 WT9      570      MECN     C2       CG1N1    0.360000       12.0110           0
     20831 WT9      570      MECN     N3       NG1T1   -0.460000       14.0070           0
     20832 WT9      572      MECN     C1       CG331   -0.170000       12.0110           0
     20833 WT9      572      MECN     H11      HGA3     0.090000        1.0080           0
     20834 WT9      572      MECN     H12      HGA3     0.090000        1.0080           0
     20835 WT9      572      MECN     H13      HGA3     0.090000        1.0080           0
     20836 WT9      572      MECN     C2       CG1N1    0.360000       12.0110           0
     20837 WT9      572      MECN     N3       NG1T1   -0.460000       14.0070           0
     20838 WT9      574      MECN     C1       CG331   -0.170000       12.0110           0
     20839 WT9      574      MECN     H11      HGA3     0.090000        1.0080           0
     20840 WT9      574      MECN     H12      HGA3     0.090000        1.0080           0
     20841 WT9      574      MECN     H13      HGA3     0.090000        1.0080           0
     20842 WT9      574      MECN     C2       CG1N1    0.360000       12.0110           0
     20843 WT9      574      MECN     N3       NG1T1   -0.460000       14.0070           0
     20844 WT9      576      MECN     C1       CG331   -0.170000       12.0110           0
     20845 WT9      576      MECN     H11      HGA3     0.090000        1.0080           0
     20846 WT9      576      MECN     H12      HGA3     0.090000        1.0080           0
     20847 WT9      576      MECN     H13      HGA3     0.090000        1.0080           0
     20848 WT9      576      MECN     C2       CG1N1    0.360000       12.0110           0
     20849 WT9      576      MECN     N3       NG1T1   -0.460000       14.0070           0
     20850 WT9      581      MECN     C1       CG331   -0.170000       12.0110           0
     20851 WT9      581      MECN     H11      HGA3     0.090000        1.0080           0
     20852 WT9      581      MECN     H12      HGA3     0.090000        1.0080           0
     20853 WT9      581      MECN     H13      HGA3     0.090000        1.0080           0
     20854 WT9      581      MECN     C2       CG1N1    0.360000       12.0110           0
     20855 WT9      581      MECN     N3       NG1T1   -0.460000       14.0070           0
     20856 WT9      584      MECN     C1       CG331   -0.170000       12.0110           0
     20857 WT9      584      MECN     H11      HGA3     0.090000        1.0080           0
     20858 WT9      584      MECN     H12      HGA3     0.090000        1.0080           0
     20859 WT9      584      MECN     H13      HGA3     0.090000        1.0080           0
     20860 WT9      584      MECN     C2       CG1N1    0.360000       12.0110           0
     20861 WT9      584      MECN     N3       NG1T1   -0.460000       14.0070           0
     20862 WT9      585      MECN     C1       CG331   -0.170000       12.0110           0
     20863 WT9      585      MECN     H11      HGA3     0.090000        1.0080           0
     20864 WT9      585      MECN     H12      HGA3     0.090000        1.0080           0
     20865 WT9      585      MECN     H13      HGA3     0.090000        1.0080           0
     20866 WT9      585      MECN     C2       CG1N1    0.360000       12.0110           0
     20867 WT9      585      MECN     N3       NG1T1   -0.460000       14.0070           0
     20868 WT9      591      MECN     C1       CG331   -0.170000       12.0110           0
     20869 WT9      591      MECN     H11      HGA3     0.090000        1.0080           0
     20870 WT9      591      MECN     H12      HGA3     0.090000        1.0080           0
     20871 WT9      591      MECN     H13      HGA3     0.090000        1.0080           0
     20872 WT9      591      MECN     C2       CG1N1    0.360000       12.0110           0
     20873 WT9      591      MECN     N3       NG1T1   -0.460000       14.0070           0
     20874 WT9      594      MECN     C1       CG331   -0.170000       12.0110           0
     20875 WT9      594      MECN     H11      HGA3     0.090000        1.0080           0
     20876 WT9      594      MECN     H12      HGA3     0.090000        1.0080           0
     20877 WT9      594      MECN     H13      HGA3     0.090000        1.0080           0
     20878 WT9      594      MECN     C2       CG1N1    0.360000       12.0110           0
     20879 WT9      594      MECN     N3       NG1T1   -0.460000       14.0070           0
     20880 WT9      596      MECN     C1       CG331   -0.170000       12.0110           0
     20881 WT9      596      MECN     H11      HGA3     0.090000        1.0080           0
     20882 WT9      596      MECN     H12      HGA3     0.090000        1.0080           0
     20883 WT9      596      MECN     H13      HGA3     0.090000        1.0080           0
     20884 WT9      596      MECN     C2       CG1N1    0.360000       12.0110           0
     20885 WT9      596      MECN     N3       NG1T1   -0.460000       14.0070           0
     20886 WT9      603      MECN     C1       CG331   -0.170000       12.0110           0
     20887 WT9      603      MECN     H11      HGA3     0.090000        1.0080           0
     20888 WT9      603      MECN     H12      HGA3     0.090000        1.0080           0
     20889 WT9      603      MECN     H13      HGA3     0.090000        1.0080           0
     20890 WT9      603      MECN     C2       CG1N1    0.360000       12.0110           0
     20891 WT9      603      MECN     N3       NG1T1   -0.460000       14.0070           0
     20892 WT9      605      MECN     C1       CG331   -0.170000       12.0110           0
     20893 WT9      605      MECN     H11      HGA3     0.090000        1.0080           0
     20894 WT9      605      MECN     H12      HGA3     0.090000        1.0080           0
     20895 WT9      605      MECN     H13      HGA3     0.090000        1.0080           0
     20896 WT9      605      MECN     C2       CG1N1    0.360000       12.0110           0
     20897 WT9      605      MECN     N3       NG1T1   -0.460000       14.0070           0
     20898 WT9      606      MECN     C1       CG331   -0.170000       12.0110           0
     20899 WT9      606      MECN     H11      HGA3     0.090000        1.0080           0
     20900 WT9      606      MECN     H12      HGA3     0.090000        1.0080           0
     20901 WT9      606      MECN     H13      HGA3     0.090000        1.0080           0
     20902 WT9      606      MECN     C2       CG1N1    0.360000       12.0110           0
     20903 WT9      606      MECN     N3       NG1T1   -0.460000       14.0070           0
     20904 WT9      609      MECN     C1       CG331   -0.170000       12.0110           0
     20905 WT9      609      MECN     H11      HGA3     0.090000        1.0080           0
     20906 WT9      609      MECN     H12      HGA3     0.090000        1.0080           0
     20907 WT9      609      MECN     H13      HGA3     0.090000        1.0080           0
     20908 WT9      609      MECN     C2       CG1N1    0.360000       12.0110           0
     20909 WT9      609      MECN     N3       NG1T1   -0.460000       14.0070           0
     20910 WT9      610      MECN     C1       CG331   -0.170000       12.0110           0
     20911 WT9      610      MECN     H11      HGA3     0.090000        1.0080           0
     20912 WT9      610      MECN     H12      HGA3     0.090000        1.0080           0
     20913 WT9      610      MECN     H13      HGA3     0.090000        1.0080           0
     20914 WT9      610      MECN     C2       CG1N1    0.360000       12.0110           0
     20915 WT9      610      MECN     N3       NG1T1   -0.460000       14.0070           0
     20916 WT9      614      MECN     C1       CG331   -0.170000       12.0110           0
     20917 WT9      614      MECN     H11      HGA3     0.090000        1.0080           0
     20918 WT9      614      MECN     H12      HGA3     0.090000        1.0080           0
     20919 WT9      614      MECN     H13      HGA3     0.090000        1.0080           0
     20920 WT9      614      MECN     C2       CG1N1    0.360000       12.0110           0
     20921 WT9      614      MECN     N3       NG1T1   -0.460000       14.0070           0
     20922 WT9      616      MECN     C1       CG331   -0.170000       12.0110           0
     20923 WT9      616      MECN     H11      HGA3     0.090000        1.0080           0
     20924 WT9      616      MECN     H12      HGA3     0.090000        1.0080           0
     20925 WT9      616      MECN     H13      HGA3     0.090000        1.0080           0
     20926 WT9      616      MECN     C2       CG1N1    0.360000       12.0110           0
     20927 WT9      616      MECN     N3       NG1T1   -0.460000       14.0070           0
     20928 WT9      623      MECN     C1       CG331   -0.170000       12.0110           0
     20929 WT9      623      MECN     H11      HGA3     0.090000        1.0080           0
     20930 WT9      623      MECN     H12      HGA3     0.090000        1.0080           0
     20931 WT9      623      MECN     H13      HGA3     0.090000        1.0080           0
     20932 WT9      623      MECN     C2       CG1N1    0.360000       12.0110           0
     20933 WT9      623      MECN     N3       NG1T1   -0.460000       14.0070           0
     20934 WT9      628      MECN     C1       CG331   -0.170000       12.0110           0
     20935 WT9      628      MECN     H11      HGA3     0.090000        1.0080           0
     20936 WT9      628      MECN     H12      HGA3     0.090000        1.0080           0
     20937 WT9      628      MECN     H13      HGA3     0.090000        1.0080           0
     20938 WT9      628      MECN     C2       CG1N1    0.360000       12.0110           0
     20939 WT9      628      MECN     N3       NG1T1   -0.460000       14.0070           0
     20940 WT9      630      MECN     C1       CG331   -0.170000       12.0110           0
     20941 WT9      630      MECN     H11      HGA3     0.090000        1.0080           0
     20942 WT9      630      MECN     H12      HGA3     0.090000        1.0080           0
     20943 WT9      630      MECN     H13      HGA3     0.090000        1.0080           0
     20944 WT9      630      MECN     C2       CG1N1    0.360000       12.0110           0
     20945 WT9      630      MECN     N3       NG1T1   -0.460000       14.0070           0
     20946 WT9      638      MECN     C1       CG331   -0.170000       12.0110           0
     20947 WT9      638      MECN     H11      HGA3     0.090000        1.0080           0
     20948 WT9      638      MECN     H12      HGA3     0.090000        1.0080           0
     20949 WT9      638      MECN     H13      HGA3     0.090000        1.0080           0
     20950 WT9      638      MECN     C2       CG1N1    0.360000       12.0110           0
     20951 WT9      638      MECN     N3       NG1T1   -0.460000       14.0070           0
     20952 WT9      668      MECN     C1       CG331   -0.170000       12.0110           0
     20953 WT9      668      MECN     H11      HGA3     0.090000        1.0080           0
     20954 WT9      668      MECN     H12      HGA3     0.090000        1.0080           0
     20955 WT9      668      MECN     H13      HGA3     0.090000        1.0080           0
     20956 WT9      668      MECN     C2       CG1N1    0.360000       12.0110           0
     20957 WT9      668      MECN     N3       NG1T1   -0.460000       14.0070           0
     20958 WT9      674      MECN     C1       CG331   -0.170000       12.0110           0
     20959 WT9      674      MECN     H11      HGA3     0.090000        1.0080           0
     20960 WT9      674      MECN     H12      HGA3     0.090000        1.0080           0
     20961 WT9      674      MECN     H13      HGA3     0.090000        1.0080           0
     20962 WT9      674      MECN     C2       CG1N1    0.360000       12.0110           0
     20963 WT9      674      MECN     N3       NG1T1   -0.460000       14.0070           0
     20964 WT9      677      MECN     C1       CG331   -0.170000       12.0110           0
     20965 WT9      677      MECN     H11      HGA3     0.090000        1.0080           0
     20966 WT9      677      MECN     H12      HGA3     0.090000        1.0080           0
     20967 WT9      677      MECN     H13      HGA3     0.090000        1.0080           0
     20968 WT9      677      MECN     C2       CG1N1    0.360000       12.0110           0
     20969 WT9      677      MECN     N3       NG1T1   -0.460000       14.0070           0
     20970 WT9      680      MECN     C1       CG331   -0.170000       12.0110           0
     20971 WT9      680      MECN     H11      HGA3     0.090000        1.0080           0
     20972 WT9      680      MECN     H12      HGA3     0.090000        1.0080           0
     20973 WT9      680      MECN     H13      HGA3     0.090000        1.0080           0
     20974 WT9      680      MECN     C2       CG1N1    0.360000       12.0110           0
     20975 WT9      680      MECN     N3       NG1T1   -0.460000       14.0070           0
     20976 WT9      681      MECN     C1       CG331   -0.170000       12.0110           0
     20977 WT9      681      MECN     H11      HGA3     0.090000        1.0080           0
     20978 WT9      681      MECN     H12      HGA3     0.090000        1.0080           0
     20979 WT9      681      MECN     H13      HGA3     0.090000        1.0080           0
     20980 WT9      681      MECN     C2       CG1N1    0.360000       12.0110           0
     20981 WT9      681      MECN     N3       NG1T1   -0.460000       14.0070           0
     20982 WT9      687      MECN     C1       CG331   -0.170000       12.0110           0
     20983 WT9      687      MECN     H11      HGA3     0.090000        1.0080           0
     20984 WT9      687      MECN     H12      HGA3     0.090000        1.0080           0
     20985 WT9      687      MECN     H13      HGA3     0.090000        1.0080           0
     20986 WT9      687      MECN     C2       CG1N1    0.360000       12.0110           0
     20987 WT9      687      MECN     N3       NG1T1   -0.460000       14.0070           0
     20988 WT9      689      MECN     C1       CG331   -0.170000       12.0110           0
     20989 WT9      689      MECN     H11      HGA3     0.090000        1.0080           0
     20990 WT9      689      MECN     H12      HGA3     0.090000        1.0080           0
     20991 WT9      689      MECN     H13      HGA3     0.090000        1.0080           0
     20992 WT9      689      MECN     C2       CG1N1    0.360000       12.0110           0
     20993 WT9      689      MECN     N3       NG1T1   -0.460000       14.0070           0
     20994 WT9      695      MECN     C1       CG331   -0.170000       12.0110           0
     20995 WT9      695      MECN     H11      HGA3     0.090000        1.0080           0
     20996 WT9      695      MECN     H12      HGA3     0.090000        1.0080           0
     20997 WT9      695      MECN     H13      HGA3     0.090000        1.0080           0
     20998 WT9      695      MECN     C2       CG1N1    0.360000       12.0110           0
     20999 WT9      695      MECN     N3       NG1T1   -0.460000       14.0070           0
     21000 WT9      696      MECN     C1       CG331   -0.170000       12.0110           0
     21001 WT9      696      MECN     H11      HGA3     0.090000        1.0080           0
     21002 WT9      696      MECN     H12      HGA3     0.090000        1.0080           0
     21003 WT9      696      MECN     H13      HGA3     0.090000        1.0080           0
     21004 WT9      696      MECN     C2       CG1N1    0.360000       12.0110           0
     21005 WT9      696      MECN     N3       NG1T1   -0.460000       14.0070           0
     21006 WT9      700      MECN     C1       CG331   -0.170000       12.0110           0
     21007 WT9      700      MECN     H11      HGA3     0.090000        1.0080           0
     21008 WT9      700      MECN     H12      HGA3     0.090000        1.0080           0
     21009 WT9      700      MECN     H13      HGA3     0.090000        1.0080           0
     21010 WT9      700      MECN     C2       CG1N1    0.360000       12.0110           0
     21011 WT9      700      MECN     N3       NG1T1   -0.460000       14.0070           0
     21012 WT9      703      MECN     C1       CG331   -0.170000       12.0110           0
     21013 WT9      703      MECN     H11      HGA3     0.090000        1.0080           0
     21014 WT9      703      MECN     H12      HGA3     0.090000        1.0080           0
     21015 WT9      703      MECN     H13      HGA3     0.090000        1.0080           0
     21016 WT9      703      MECN     C2       CG1N1    0.360000       12.0110           0
     21017 WT9      703      MECN     N3       NG1T1   -0.460000       14.0070           0
     21018 WT9      705      MECN     C1       CG331   -0.170000       12.0110           0
     21019 WT9      705      MECN     H11      HGA3     0.090000        1.0080           0
     21020 WT9      705      MECN     H12      HGA3     0.090000        1.0080           0
     21021 WT9      705      MECN     H13      HGA3     0.090000        1.0080           0
     21022 WT9      705      MECN     C2       CG1N1    0.360000       12.0110           0
     21023 WT9      705      MECN     N3       NG1T1   -0.460000       14.0070           0
     21024 WT9      707      MECN     C1       CG331   -0.170000       12.0110           0
     21025 WT9      707      MECN     H11      HGA3     0.090000        1.0080           0
     21026 WT9      707      MECN     H12      HGA3     0.090000        1.0080           0
     21027 WT9      707      MECN     H13      HGA3     0.090000        1.0080           0
     21028 WT9      707      MECN     C2       CG1N1    0.360000       12.0110           0
     21029 WT9      707      MECN     N3       NG1T1   -0.460000       14.0070           0
     21030 WT9      710      MECN     C1       CG331   -0.170000       12.0110           0
     21031 WT9      710      MECN     H11      HGA3     0.090000        1.0080           0
     21032 WT9      710      MECN     H12      HGA3     0.090000        1.0080           0
     21033 WT9      710      MECN     H13      HGA3     0.090000        1.0080           0
     21034 WT9      710      MECN     C2       CG1N1    0.360000       12.0110           0
     21035 WT9      710      MECN     N3       NG1T1   -0.460000       14.0070           0
     21036 WT9      711      MECN     C1       CG331   -0.170000       12.0110           0
     21037 WT9      711      MECN     H11      HGA3     0.090000        1.0080           0
     21038 WT9      711      MECN     H12      HGA3     0.090000        1.0080           0
     21039 WT9      711      MECN     H13      HGA3     0.090000        1.0080           0
     21040 WT9      711      MECN     C2       CG1N1    0.360000       12.0110           0
     21041 WT9      711      MECN     N3       NG1T1   -0.460000       14.0070           0
     21042 WT9      714      MECN     C1       CG331   -0.170000       12.0110           0
     21043 WT9      714      MECN     H11      HGA3     0.090000        1.0080           0
     21044 WT9      714      MECN     H12      HGA3     0.090000        1.0080           0
     21045 WT9      714      MECN     H13      HGA3     0.090000        1.0080           0
     21046 WT9      714      MECN     C2       CG1N1    0.360000       12.0110           0
     21047 WT9      714      MECN     N3       NG1T1   -0.460000       14.0070           0
     21048 WT9      718      MECN     C1       CG331   -0.170000       12.0110           0
     21049 WT9      718      MECN     H11      HGA3     0.090000        1.0080           0
     21050 WT9      718      MECN     H12      HGA3     0.090000        1.0080           0
     21051 WT9      718      MECN     H13      HGA3     0.090000        1.0080           0
     21052 WT9      718      MECN     C2       CG1N1    0.360000       12.0110           0
     21053 WT9      718      MECN     N3       NG1T1   -0.460000       14.0070           0
     21054 WT9      719      MECN     C1       CG331   -0.170000       12.0110           0
     21055 WT9      719      MECN     H11      HGA3     0.090000        1.0080           0
     21056 WT9      719      MECN     H12      HGA3     0.090000        1.0080           0
     21057 WT9      719      MECN     H13      HGA3     0.090000        1.0080           0
     21058 WT9      719      MECN     C2       CG1N1    0.360000       12.0110           0
     21059 WT9      719      MECN     N3       NG1T1   -0.460000       14.0070           0
     21060 WT9      725      MECN     C1       CG331   -0.170000       12.0110           0
     21061 WT9      725      MECN     H11      HGA3     0.090000        1.0080           0
     21062 WT9      725      MECN     H12      HGA3     0.090000        1.0080           0
     21063 WT9      725      MECN     H13      HGA3     0.090000        1.0080           0
     21064 WT9      725      MECN     C2       CG1N1    0.360000       12.0110           0
     21065 WT9      725      MECN     N3       NG1T1   -0.460000       14.0070           0
     21066 WT9      736      MECN     C1       CG331   -0.170000       12.0110           0
     21067 WT9      736      MECN     H11      HGA3     0.090000        1.0080           0
     21068 WT9      736      MECN     H12      HGA3     0.090000        1.0080           0
     21069 WT9      736      MECN     H13      HGA3     0.090000        1.0080           0
     21070 WT9      736      MECN     C2       CG1N1    0.360000       12.0110           0
     21071 WT9      736      MECN     N3       NG1T1   -0.460000       14.0070           0
     21072 WT9      738      MECN     C1       CG331   -0.170000       12.0110           0
     21073 WT9      738      MECN     H11      HGA3     0.090000        1.0080           0
     21074 WT9      738      MECN     H12      HGA3     0.090000        1.0080           0
     21075 WT9      738      MECN     H13      HGA3     0.090000        1.0080           0
     21076 WT9      738      MECN     C2       CG1N1    0.360000       12.0110           0
     21077 WT9      738      MECN     N3       NG1T1   -0.460000       14.0070           0
     21078 WT9      739      MECN     C1       CG331   -0.170000       12.0110           0
     21079 WT9      739      MECN     H11      HGA3     0.090000        1.0080           0
     21080 WT9      739      MECN     H12      HGA3     0.090000        1.0080           0
     21081 WT9      739      MECN     H13      HGA3     0.090000        1.0080           0
     21082 WT9      739      MECN     C2       CG1N1    0.360000       12.0110           0
     21083 WT9      739      MECN     N3       NG1T1   -0.460000       14.0070           0
     21084 WT9      742      MECN     C1       CG331   -0.170000       12.0110           0
     21085 WT9      742      MECN     H11      HGA3     0.090000        1.0080           0
     21086 WT9      742      MECN     H12      HGA3     0.090000        1.0080           0
     21087 WT9      742      MECN     H13      HGA3     0.090000        1.0080           0
     21088 WT9      742      MECN     C2       CG1N1    0.360000       12.0110           0
     21089 WT9      742      MECN     N3       NG1T1   -0.460000       14.0070           0
     21090 WT9      745      MECN     C1       CG331   -0.170000       12.0110           0
     21091 WT9      745      MECN     H11      HGA3     0.090000        1.0080           0
     21092 WT9      745      MECN     H12      HGA3     0.090000        1.0080           0
     21093 WT9      745      MECN     H13      HGA3     0.090000        1.0080           0
     21094 WT9      745      MECN     C2       CG1N1    0.360000       12.0110           0
     21095 WT9      745      MECN     N3       NG1T1   -0.460000       14.0070           0
     21096 WT9      751      MECN     C1       CG331   -0.170000       12.0110           0
     21097 WT9      751      MECN     H11      HGA3     0.090000        1.0080           0
     21098 WT9      751      MECN     H12      HGA3     0.090000        1.0080           0
     21099 WT9      751      MECN     H13      HGA3     0.090000        1.0080           0
     21100 WT9      751      MECN     C2       CG1N1    0.360000       12.0110           0
     21101 WT9      751      MECN     N3       NG1T1   -0.460000       14.0070           0
     21102 WT9      758      MECN     C1       CG331   -0.170000       12.0110           0
     21103 WT9      758      MECN     H11      HGA3     0.090000        1.0080           0
     21104 WT9      758      MECN     H12      HGA3     0.090000        1.0080           0
     21105 WT9      758      MECN     H13      HGA3     0.090000        1.0080           0
     21106 WT9      758      MECN     C2       CG1N1    0.360000       12.0110           0
     21107 WT9      758      MECN     N3       NG1T1   -0.460000       14.0070           0
     21108 WT9      759      MECN     C1       CG331   -0.170000       12.0110           0
     21109 WT9      759      MECN     H11      HGA3     0.090000        1.0080           0
     21110 WT9      759      MECN     H12      HGA3     0.090000        1.0080           0
     21111 WT9      759      MECN     H13      HGA3     0.090000        1.0080           0
     21112 WT9      759      MECN     C2       CG1N1    0.360000       12.0110           0
     21113 WT9      759      MECN     N3       NG1T1   -0.460000       14.0070           0
     21114 WT9      785      MECN     C1       CG331   -0.170000       12.0110           0
     21115 WT9      785      MECN     H11      HGA3     0.090000        1.0080           0
     21116 WT9      785      MECN     H12      HGA3     0.090000        1.0080           0
     21117 WT9      785      MECN     H13      HGA3     0.090000        1.0080           0
     21118 WT9      785      MECN     C2       CG1N1    0.360000       12.0110           0
     21119 WT9      785      MECN     N3       NG1T1   -0.460000       14.0070           0
     21120 WT9      787      MECN     C1       CG331   -0.170000       12.0110           0
     21121 WT9      787      MECN     H11      HGA3     0.090000        1.0080           0
     21122 WT9      787      MECN     H12      HGA3     0.090000        1.0080           0
     21123 WT9      787      MECN     H13      HGA3     0.090000        1.0080           0
     21124 WT9      787      MECN     C2       CG1N1    0.360000       12.0110           0
     21125 WT9      787      MECN     N3       NG1T1   -0.460000       14.0070           0
     21126 WT9      788      MECN     C1       CG331   -0.170000       12.0110           0
     21127 WT9      788      MECN     H11      HGA3     0.090000        1.0080           0
     21128 WT9      788      MECN     H12      HGA3     0.090000        1.0080           0
     21129 WT9      788      MECN     H13      HGA3     0.090000        1.0080           0
     21130 WT9      788      MECN     C2       CG1N1    0.360000       12.0110           0
     21131 WT9      788      MECN     N3       NG1T1   -0.460000       14.0070           0
     21132 WT9      790      MECN     C1       CG331   -0.170000       12.0110           0
     21133 WT9      790      MECN     H11      HGA3     0.090000        1.0080           0
     21134 WT9      790      MECN     H12      HGA3     0.090000        1.0080           0
     21135 WT9      790      MECN     H13      HGA3     0.090000        1.0080           0
     21136 WT9      790      MECN     C2       CG1N1    0.360000       12.0110           0
     21137 WT9      790      MECN     N3       NG1T1   -0.460000       14.0070           0
     21138 WT9      792      MECN     C1       CG331   -0.170000       12.0110           0
     21139 WT9      792      MECN     H11      HGA3     0.090000        1.0080           0
     21140 WT9      792      MECN     H12      HGA3     0.090000        1.0080           0
     21141 WT9      792      MECN     H13      HGA3     0.090000        1.0080           0
     21142 WT9      792      MECN     C2       CG1N1    0.360000       12.0110           0
     21143 WT9      792      MECN     N3       NG1T1   -0.460000       14.0070           0
     21144 WT9      794      MECN     C1       CG331   -0.170000       12.0110           0
     21145 WT9      794      MECN     H11      HGA3     0.090000        1.0080           0
     21146 WT9      794      MECN     H12      HGA3     0.090000        1.0080           0
     21147 WT9      794      MECN     H13      HGA3     0.090000        1.0080           0
     21148 WT9      794      MECN     C2       CG1N1    0.360000       12.0110           0
     21149 WT9      794      MECN     N3       NG1T1   -0.460000       14.0070           0
     21150 WT9      804      MECN     C1       CG331   -0.170000       12.0110           0
     21151 WT9      804      MECN     H11      HGA3     0.090000        1.0080           0
     21152 WT9      804      MECN     H12      HGA3     0.090000        1.0080           0
     21153 WT9      804      MECN     H13      HGA3     0.090000        1.0080           0
     21154 WT9      804      MECN     C2       CG1N1    0.360000       12.0110           0
     21155 WT9      804      MECN     N3       NG1T1   -0.460000       14.0070           0
     21156 WT9      811      MECN     C1       CG331   -0.170000       12.0110           0
     21157 WT9      811      MECN     H11      HGA3     0.090000        1.0080           0
     21158 WT9      811      MECN     H12      HGA3     0.090000        1.0080           0
     21159 WT9      811      MECN     H13      HGA3     0.090000        1.0080           0
     21160 WT9      811      MECN     C2       CG1N1    0.360000       12.0110           0
     21161 WT9      811      MECN     N3       NG1T1   -0.460000       14.0070           0
     21162 WT9      813      MECN     C1       CG331   -0.170000       12.0110           0
     21163 WT9      813      MECN     H11      HGA3     0.090000        1.0080           0
     21164 WT9      813      MECN     H12      HGA3     0.090000        1.0080           0
     21165 WT9      813      MECN     H13      HGA3     0.090000        1.0080           0
     21166 WT9      813      MECN     C2       CG1N1    0.360000       12.0110           0
     21167 WT9      813      MECN     N3       NG1T1   -0.460000       14.0070           0
     21168 WT9      820      MECN     C1       CG331   -0.170000       12.0110           0
     21169 WT9      820      MECN     H11      HGA3     0.090000        1.0080           0
     21170 WT9      820      MECN     H12      HGA3     0.090000        1.0080           0
     21171 WT9      820      MECN     H13      HGA3     0.090000        1.0080           0
     21172 WT9      820      MECN     C2       CG1N1    0.360000       12.0110           0
     21173 WT9      820      MECN     N3       NG1T1   -0.460000       14.0070           0
     21174 WT9      825      MECN     C1       CG331   -0.170000       12.0110           0
     21175 WT9      825      MECN     H11      HGA3     0.090000        1.0080           0
     21176 WT9      825      MECN     H12      HGA3     0.090000        1.0080           0
     21177 WT9      825      MECN     H13      HGA3     0.090000        1.0080           0
     21178 WT9      825      MECN     C2       CG1N1    0.360000       12.0110           0
     21179 WT9      825      MECN     N3       NG1T1   -0.460000       14.0070           0
     21180 WT9      830      MECN     C1       CG331   -0.170000       12.0110           0
     21181 WT9      830      MECN     H11      HGA3     0.090000        1.0080           0
     21182 WT9      830      MECN     H12      HGA3     0.090000        1.0080           0
     21183 WT9      830      MECN     H13      HGA3     0.090000        1.0080           0
     21184 WT9      830      MECN     C2       CG1N1    0.360000       12.0110           0
     21185 WT9      830      MECN     N3       NG1T1   -0.460000       14.0070           0
     21186 WT9      832      MECN     C1       CG331   -0.170000       12.0110           0
     21187 WT9      832      MECN     H11      HGA3     0.090000        1.0080           0
     21188 WT9      832      MECN     H12      HGA3     0.090000        1.0080           0
     21189 WT9      832      MECN     H13      HGA3     0.090000        1.0080           0
     21190 WT9      832      MECN     C2       CG1N1    0.360000       12.0110           0
     21191 WT9      832      MECN     N3       NG1T1   -0.460000       14.0070           0
     21192 WT9      836      MECN     C1       CG331   -0.170000       12.0110           0
     21193 WT9      836      MECN     H11      HGA3     0.090000        1.0080           0
     21194 WT9      836      MECN     H12      HGA3     0.090000        1.0080           0
     21195 WT9      836      MECN     H13      HGA3     0.090000        1.0080           0
     21196 WT9      836      MECN     C2       CG1N1    0.360000       12.0110           0
     21197 WT9      836      MECN     N3       NG1T1   -0.460000       14.0070           0
     21198 WT9      837      MECN     C1       CG331   -0.170000       12.0110           0
     21199 WT9      837      MECN     H11      HGA3     0.090000        1.0080           0
     21200 WT9      837      MECN     H12      HGA3     0.090000        1.0080           0
     21201 WT9      837      MECN     H13      HGA3     0.090000        1.0080           0
     21202 WT9      837      MECN     C2       CG1N1    0.360000       12.0110           0
     21203 WT9      837      MECN     N3       NG1T1   -0.460000       14.0070           0
     21204 WT9      839      MECN     C1       CG331   -0.170000       12.0110           0
     21205 WT9      839      MECN     H11      HGA3     0.090000        1.0080           0
     21206 WT9      839      MECN     H12      HGA3     0.090000        1.0080           0
     21207 WT9      839      MECN     H13      HGA3     0.090000        1.0080           0
     21208 WT9      839      MECN     C2       CG1N1    0.360000       12.0110           0
     21209 WT9      839      MECN     N3       NG1T1   -0.460000       14.0070           0
     21210 WT9      845      MECN     C1       CG331   -0.170000       12.0110           0
     21211 WT9      845      MECN     H11      HGA3     0.090000        1.0080           0
     21212 WT9      845      MECN     H12      HGA3     0.090000        1.0080           0
     21213 WT9      845      MECN     H13      HGA3     0.090000        1.0080           0
     21214 WT9      845      MECN     C2       CG1N1    0.360000       12.0110           0
     21215 WT9      845      MECN     N3       NG1T1   -0.460000       14.0070           0
     21216 WT9      848      MECN     C1       CG331   -0.170000       12.0110           0
     21217 WT9      848      MECN     H11      HGA3     0.090000        1.0080           0
     21218 WT9      848      MECN     H12      HGA3     0.090000        1.0080           0
     21219 WT9      848      MECN     H13      HGA3     0.090000        1.0080           0
     21220 WT9      848      MECN     C2       CG1N1    0.360000       12.0110           0
     21221 WT9      848      MECN     N3       NG1T1   -0.460000       14.0070           0
     21222 WT9      851      MECN     C1       CG331   -0.170000       12.0110           0
     21223 WT9      851      MECN     H11      HGA3     0.090000        1.0080           0
     21224 WT9      851      MECN     H12      HGA3     0.090000        1.0080           0
     21225 WT9      851      MECN     H13      HGA3     0.090000        1.0080           0
     21226 WT9      851      MECN     C2       CG1N1    0.360000       12.0110           0
     21227 WT9      851      MECN     N3       NG1T1   -0.460000       14.0070           0
     21228 WT9      853      MECN     C1       CG331   -0.170000       12.0110           0
     21229 WT9      853      MECN     H11      HGA3     0.090000        1.0080           0
     21230 WT9      853      MECN     H12      HGA3     0.090000        1.0080           0
     21231 WT9      853      MECN     H13      HGA3     0.090000        1.0080           0
     21232 WT9      853      MECN     C2       CG1N1    0.360000       12.0110           0
     21233 WT9      853      MECN     N3       NG1T1   -0.460000       14.0070           0
     21234 WT9      854      MECN     C1       CG331   -0.170000       12.0110           0
     21235 WT9      854      MECN     H11      HGA3     0.090000        1.0080           0
     21236 WT9      854      MECN     H12      HGA3     0.090000        1.0080           0
     21237 WT9      854      MECN     H13      HGA3     0.090000        1.0080           0
     21238 WT9      854      MECN     C2       CG1N1    0.360000       12.0110           0
     21239 WT9      854      MECN     N3       NG1T1   -0.460000       14.0070           0
     21240 WT9      855      MECN     C1       CG331   -0.170000       12.0110           0
     21241 WT9      855      MECN     H11      HGA3     0.090000        1.0080           0
     21242 WT9      855      MECN     H12      HGA3     0.090000        1.0080           0
     21243 WT9      855      MECN     H13      HGA3     0.090000        1.0080           0
     21244 WT9      855      MECN     C2       CG1N1    0.360000       12.0110           0
     21245 WT9      855      MECN     N3       NG1T1   -0.460000       14.0070           0
     21246 WT9      856      MECN     C1       CG331   -0.170000       12.0110           0
     21247 WT9      856      MECN     H11      HGA3     0.090000        1.0080           0
     21248 WT9      856      MECN     H12      HGA3     0.090000        1.0080           0
     21249 WT9      856      MECN     H13      HGA3     0.090000        1.0080           0
     21250 WT9      856      MECN     C2       CG1N1    0.360000       12.0110           0
     21251 WT9      856      MECN     N3       NG1T1   -0.460000       14.0070           0
     21252 WT9      862      MECN     C1       CG331   -0.170000       12.0110           0
     21253 WT9      862      MECN     H11      HGA3     0.090000        1.0080           0
     21254 WT9      862      MECN     H12      HGA3     0.090000        1.0080           0
     21255 WT9      862      MECN     H13      HGA3     0.090000        1.0080           0
     21256 WT9      862      MECN     C2       CG1N1    0.360000       12.0110           0
     21257 WT9      862      MECN     N3       NG1T1   -0.460000       14.0070           0
     21258 WT9      870      MECN     C1       CG331   -0.170000       12.0110           0
     21259 WT9      870      MECN     H11      HGA3     0.090000        1.0080           0
     21260 WT9      870      MECN     H12      HGA3     0.090000        1.0080           0
     21261 WT9      870      MECN     H13      HGA3     0.090000        1.0080           0
     21262 WT9      870      MECN     C2       CG1N1    0.360000       12.0110           0
     21263 WT9      870      MECN     N3       NG1T1   -0.460000       14.0070           0
     21264 WT9      877      MECN     C1       CG331   -0.170000       12.0110           0
     21265 WT9      877      MECN     H11      HGA3     0.090000        1.0080           0
     21266 WT9      877      MECN     H12      HGA3     0.090000        1.0080           0
     21267 WT9      877      MECN     H13      HGA3     0.090000        1.0080           0
     21268 WT9      877      MECN     C2       CG1N1    0.360000       12.0110           0
     21269 WT9      877      MECN     N3       NG1T1   -0.460000       14.0070           0
     21270 WT9      880      MECN     C1       CG331   -0.170000       12.0110           0
     21271 WT9      880      MECN     H11      HGA3     0.090000        1.0080           0
     21272 WT9      880      MECN     H12      HGA3     0.090000        1.0080           0
     21273 WT9      880      MECN     H13      HGA3     0.090000        1.0080           0
     21274 WT9      880      MECN     C2       CG1N1    0.360000       12.0110           0
     21275 WT9      880      MECN     N3       NG1T1   -0.460000       14.0070           0
     21276 WT9      881      MECN     C1       CG331   -0.170000       12.0110           0
     21277 WT9      881      MECN     H11      HGA3     0.090000        1.0080           0
     21278 WT9      881      MECN     H12      HGA3     0.090000        1.0080           0
     21279 WT9      881      MECN     H13      HGA3     0.090000        1.0080           0
     21280 WT9      881      MECN     C2       CG1N1    0.360000       12.0110           0
     21281 WT9      881      MECN     N3       NG1T1   -0.460000       14.0070           0
     21282 WT9      884      MECN     C1       CG331   -0.170000       12.0110           0
     21283 WT9      884      MECN     H11      HGA3     0.090000        1.0080           0
     21284 WT9      884      MECN     H12      HGA3     0.090000        1.0080           0
     21285 WT9      884      MECN     H13      HGA3     0.090000        1.0080           0
     21286 WT9      884      MECN     C2       CG1N1    0.360000       12.0110           0
     21287 WT9      884      MECN     N3       NG1T1   -0.460000       14.0070           0
     21288 WT9      901      MECN     C1       CG331   -0.170000       12.0110           0
     21289 WT9      901      MECN     H11      HGA3     0.090000        1.0080           0
     21290 WT9      901      MECN     H12      HGA3     0.090000        1.0080           0
     21291 WT9      901      MECN     H13      HGA3     0.090000        1.0080           0
     21292 WT9      901      MECN     C2       CG1N1    0.360000       12.0110           0
     21293 WT9      901      MECN     N3       NG1T1   -0.460000       14.0070           0
     21294 WT9      902      MECN     C1       CG331   -0.170000       12.0110           0
     21295 WT9      902      MECN     H11      HGA3     0.090000        1.0080           0
     21296 WT9      902      MECN     H12      HGA3     0.090000        1.0080           0
     21297 WT9      902      MECN     H13      HGA3     0.090000        1.0080           0
     21298 WT9      902      MECN     C2       CG1N1    0.360000       12.0110           0
     21299 WT9      902      MECN     N3       NG1T1   -0.460000       14.0070           0
     21300 WT9      903      MECN     C1       CG331   -0.170000       12.0110           0
     21301 WT9      903      MECN     H11      HGA3     0.090000        1.0080           0
     21302 WT9      903      MECN     H12      HGA3     0.090000        1.0080           0
     21303 WT9      903      MECN     H13      HGA3     0.090000        1.0080           0
     21304 WT9      903      MECN     C2       CG1N1    0.360000       12.0110           0
     21305 WT9      903      MECN     N3       NG1T1   -0.460000       14.0070           0
     21306 WT9      909      MECN     C1       CG331   -0.170000       12.0110           0
     21307 WT9      909      MECN     H11      HGA3     0.090000        1.0080           0
     21308 WT9      909      MECN     H12      HGA3     0.090000        1.0080           0
     21309 WT9      909      MECN     H13      HGA3     0.090000        1.0080           0
     21310 WT9      909      MECN     C2       CG1N1    0.360000       12.0110           0
     21311 WT9      909      MECN     N3       NG1T1   -0.460000       14.0070           0
     21312 WT9      912      MECN     C1       CG331   -0.170000       12.0110           0
     21313 WT9      912      MECN     H11      HGA3     0.090000        1.0080           0
     21314 WT9      912      MECN     H12      HGA3     0.090000        1.0080           0
     21315 WT9      912      MECN     H13      HGA3     0.090000        1.0080           0
     21316 WT9      912      MECN     C2       CG1N1    0.360000       12.0110           0
     21317 WT9      912      MECN     N3       NG1T1   -0.460000       14.0070           0
     21318 WT9      913      MECN     C1       CG331   -0.170000       12.0110           0
     21319 WT9      913      MECN     H11      HGA3     0.090000        1.0080           0
     21320 WT9      913      MECN     H12      HGA3     0.090000        1.0080           0
     21321 WT9      913      MECN     H13      HGA3     0.090000        1.0080           0
     21322 WT9      913      MECN     C2       CG1N1    0.360000       12.0110           0
     21323 WT9      913      MECN     N3       NG1T1   -0.460000       14.0070           0
     21324 WT9      923      MECN     C1       CG331   -0.170000       12.0110           0
     21325 WT9      923      MECN     H11      HGA3     0.090000        1.0080           0
     21326 WT9      923      MECN     H12      HGA3     0.090000        1.0080           0
     21327 WT9      923      MECN     H13      HGA3     0.090000        1.0080           0
     21328 WT9      923      MECN     C2       CG1N1    0.360000       12.0110           0
     21329 WT9      923      MECN     N3       NG1T1   -0.460000       14.0070           0
     21330 WT9      927      MECN     C1       CG331   -0.170000       12.0110           0
     21331 WT9      927      MECN     H11      HGA3     0.090000        1.0080           0
     21332 WT9      927      MECN     H12      HGA3     0.090000        1.0080           0
     21333 WT9      927      MECN     H13      HGA3     0.090000        1.0080           0
     21334 WT9      927      MECN     C2       CG1N1    0.360000       12.0110           0
     21335 WT9      927      MECN     N3       NG1T1   -0.460000       14.0070           0
     21336 WT9      929      MECN     C1       CG331   -0.170000       12.0110           0
     21337 WT9      929      MECN     H11      HGA3     0.090000        1.0080           0
     21338 WT9      929      MECN     H12      HGA3     0.090000        1.0080           0
     21339 WT9      929      MECN     H13      HGA3     0.090000        1.0080           0
     21340 WT9      929      MECN     C2       CG1N1    0.360000       12.0110           0
     21341 WT9      929      MECN     N3       NG1T1   -0.460000       14.0070           0
     21342 WT9      930      MECN     C1       CG331   -0.170000       12.0110           0
     21343 WT9      930      MECN     H11      HGA3     0.090000        1.0080           0
     21344 WT9      930      MECN     H12      HGA3     0.090000        1.0080           0
     21345 WT9      930      MECN     H13      HGA3     0.090000        1.0080           0
     21346 WT9      930      MECN     C2       CG1N1    0.360000       12.0110           0
     21347 WT9      930      MECN     N3       NG1T1   -0.460000       14.0070           0
     21348 WT9      932      MECN     C1       CG331   -0.170000       12.0110           0
     21349 WT9      932      MECN     H11      HGA3     0.090000        1.0080           0
     21350 WT9      932      MECN     H12      HGA3     0.090000        1.0080           0
     21351 WT9      932      MECN     H13      HGA3     0.090000        1.0080           0
     21352 WT9      932      MECN     C2       CG1N1    0.360000       12.0110           0
     21353 WT9      932      MECN     N3       NG1T1   -0.460000       14.0070           0
     21354 WT9      937      MECN     C1       CG331   -0.170000       12.0110           0
     21355 WT9      937      MECN     H11      HGA3     0.090000        1.0080           0
     21356 WT9      937      MECN     H12      HGA3     0.090000        1.0080           0
     21357 WT9      937      MECN     H13      HGA3     0.090000        1.0080           0
     21358 WT9      937      MECN     C2       CG1N1    0.360000       12.0110           0
     21359 WT9      937      MECN     N3       NG1T1   -0.460000       14.0070           0
     21360 WT9      938      MECN     C1       CG331   -0.170000       12.0110           0
     21361 WT9      938      MECN     H11      HGA3     0.090000        1.0080           0
     21362 WT9      938      MECN     H12      HGA3     0.090000        1.0080           0
     21363 WT9      938      MECN     H13      HGA3     0.090000        1.0080           0
     21364 WT9      938      MECN     C2       CG1N1    0.360000       12.0110           0
     21365 WT9      938      MECN     N3       NG1T1   -0.460000       14.0070           0
     21366 WT9      942      MECN     C1       CG331   -0.170000       12.0110           0
     21367 WT9      942      MECN     H11      HGA3     0.090000        1.0080           0
     21368 WT9      942      MECN     H12      HGA3     0.090000        1.0080           0
     21369 WT9      942      MECN     H13      HGA3     0.090000        1.0080           0
     21370 WT9      942      MECN     C2       CG1N1    0.360000       12.0110           0
     21371 WT9      942      MECN     N3       NG1T1   -0.460000       14.0070           0
     21372 WT9      943      MECN     C1       CG331   -0.170000       12.0110           0
     21373 WT9      943      MECN     H11      HGA3     0.090000        1.0080           0
     21374 WT9      943      MECN     H12      HGA3     0.090000        1.0080           0
     21375 WT9      943      MECN     H13      HGA3     0.090000        1.0080           0
     21376 WT9      943      MECN     C2       CG1N1    0.360000       12.0110           0
     21377 WT9      943      MECN     N3       NG1T1   -0.460000       14.0070           0
     21378 WT9      945      MECN     C1       CG331   -0.170000       12.0110           0
     21379 WT9      945      MECN     H11      HGA3     0.090000        1.0080           0
     21380 WT9      945      MECN     H12      HGA3     0.090000        1.0080           0
     21381 WT9      945      MECN     H13      HGA3     0.090000        1.0080           0
     21382 WT9      945      MECN     C2       CG1N1    0.360000       12.0110           0
     21383 WT9      945      MECN     N3       NG1T1   -0.460000       14.0070           0
     21384 WT9      947      MECN     C1       CG331   -0.170000       12.0110           0
     21385 WT9      947      MECN     H11      HGA3     0.090000        1.0080           0
     21386 WT9      947      MECN     H12      HGA3     0.090000        1.0080           0
     21387 WT9      947      MECN     H13      HGA3     0.090000        1.0080           0
     21388 WT9      947      MECN     C2       CG1N1    0.360000       12.0110           0
     21389 WT9      947      MECN     N3       NG1T1   -0.460000       14.0070           0
     21390 WT9      948      MECN     C1       CG331   -0.170000       12.0110           0
     21391 WT9      948      MECN     H11      HGA3     0.090000        1.0080           0
     21392 WT9      948      MECN     H12      HGA3     0.090000        1.0080           0
     21393 WT9      948      MECN     H13      HGA3     0.090000        1.0080           0
     21394 WT9      948      MECN     C2       CG1N1    0.360000       12.0110           0
     21395 WT9      948      MECN     N3       NG1T1   -0.460000       14.0070           0
     21396 WT9      949      MECN     C1       CG331   -0.170000       12.0110           0
     21397 WT9      949      MECN     H11      HGA3     0.090000        1.0080           0
     21398 WT9      949      MECN     H12      HGA3     0.090000        1.0080           0
     21399 WT9      949      MECN     H13      HGA3     0.090000        1.0080           0
     21400 WT9      949      MECN     C2       CG1N1    0.360000       12.0110           0
     21401 WT9      949      MECN     N3       NG1T1   -0.460000       14.0070           0
     21402 WT9      950      MECN     C1       CG331   -0.170000       12.0110           0
     21403 WT9      950      MECN     H11      HGA3     0.090000        1.0080           0
     21404 WT9      950      MECN     H12      HGA3     0.090000        1.0080           0
     21405 WT9      950      MECN     H13      HGA3     0.090000        1.0080           0
     21406 WT9      950      MECN     C2       CG1N1    0.360000       12.0110           0
     21407 WT9      950      MECN     N3       NG1T1   -0.460000       14.0070           0
     21408 WT9      953      MECN     C1       CG331   -0.170000       12.0110           0
     21409 WT9      953      MECN     H11      HGA3     0.090000        1.0080           0
     21410 WT9      953      MECN     H12      HGA3     0.090000        1.0080           0
     21411 WT9      953      MECN     H13      HGA3     0.090000        1.0080           0
     21412 WT9      953      MECN     C2       CG1N1    0.360000       12.0110           0
     21413 WT9      953      MECN     N3       NG1T1   -0.460000       14.0070           0
     21414 WT9      957      MECN     C1       CG331   -0.170000       12.0110           0
     21415 WT9      957      MECN     H11      HGA3     0.090000        1.0080           0
     21416 WT9      957      MECN     H12      HGA3     0.090000        1.0080           0
     21417 WT9      957      MECN     H13      HGA3     0.090000        1.0080           0
     21418 WT9      957      MECN     C2       CG1N1    0.360000       12.0110           0
     21419 WT9      957      MECN     N3       NG1T1   -0.460000       14.0070           0
     21420 WT9      958      MECN     C1       CG331   -0.170000       12.0110           0
     21421 WT9      958      MECN     H11      HGA3     0.090000        1.0080           0
     21422 WT9      958      MECN     H12      HGA3     0.090000        1.0080           0
     21423 WT9      958      MECN     H13      HGA3     0.090000        1.0080           0
     21424 WT9      958      MECN     C2       CG1N1    0.360000       12.0110           0
     21425 WT9      958      MECN     N3       NG1T1   -0.460000       14.0070           0
     21426 WT9      960      MECN     C1       CG331   -0.170000       12.0110           0
     21427 WT9      960      MECN     H11      HGA3     0.090000        1.0080           0
     21428 WT9      960      MECN     H12      HGA3     0.090000        1.0080           0
     21429 WT9      960      MECN     H13      HGA3     0.090000        1.0080           0
     21430 WT9      960      MECN     C2       CG1N1    0.360000       12.0110           0
     21431 WT9      960      MECN     N3       NG1T1   -0.460000       14.0070           0
     21432 WT9      964      MECN     C1       CG331   -0.170000       12.0110           0
     21433 WT9      964      MECN     H11      HGA3     0.090000        1.0080           0
     21434 WT9      964      MECN     H12      HGA3     0.090000        1.0080           0
     21435 WT9      964      MECN     H13      HGA3     0.090000        1.0080           0
     21436 WT9      964      MECN     C2       CG1N1    0.360000       12.0110           0
     21437 WT9      964      MECN     N3       NG1T1   -0.460000       14.0070           0
     21438 WT9      969      MECN     C1       CG331   -0.170000       12.0110           0
     21439 WT9      969      MECN     H11      HGA3     0.090000        1.0080           0
     21440 WT9      969      MECN     H12      HGA3     0.090000        1.0080           0
     21441 WT9      969      MECN     H13      HGA3     0.090000        1.0080           0
     21442 WT9      969      MECN     C2       CG1N1    0.360000       12.0110           0
     21443 WT9      969      MECN     N3       NG1T1   -0.460000       14.0070           0
     21444 WT9      970      MECN     C1       CG331   -0.170000       12.0110           0
     21445 WT9      970      MECN     H11      HGA3     0.090000        1.0080           0
     21446 WT9      970      MECN     H12      HGA3     0.090000        1.0080           0
     21447 WT9      970      MECN     H13      HGA3     0.090000        1.0080           0
     21448 WT9      970      MECN     C2       CG1N1    0.360000       12.0110           0
     21449 WT9      970      MECN     N3       NG1T1   -0.460000       14.0070           0
     21450 WT9      971      MECN     C1       CG331   -0.170000       12.0110           0
     21451 WT9      971      MECN     H11      HGA3     0.090000        1.0080           0
     21452 WT9      971      MECN     H12      HGA3     0.090000        1.0080           0
     21453 WT9      971      MECN     H13      HGA3     0.090000        1.0080           0
     21454 WT9      971      MECN     C2       CG1N1    0.360000       12.0110           0
     21455 WT9      971      MECN     N3       NG1T1   -0.460000       14.0070           0
     21456 WT9      974      MECN     C1       CG331   -0.170000       12.0110           0
     21457 WT9      974      MECN     H11      HGA3     0.090000        1.0080           0
     21458 WT9      974      MECN     H12      HGA3     0.090000        1.0080           0
     21459 WT9      974      MECN     H13      HGA3     0.090000        1.0080           0
     21460 WT9      974      MECN     C2       CG1N1    0.360000       12.0110           0
     21461 WT9      974      MECN     N3       NG1T1   -0.460000       14.0070           0
     21462 WT9      975      MECN     C1       CG331   -0.170000       12.0110           0
     21463 WT9      975      MECN     H11      HGA3     0.090000        1.0080           0
     21464 WT9      975      MECN     H12      HGA3     0.090000        1.0080           0
     21465 WT9      975      MECN     H13      HGA3     0.090000        1.0080           0
     21466 WT9      975      MECN     C2       CG1N1    0.360000       12.0110           0
     21467 WT9      975      MECN     N3       NG1T1   -0.460000       14.0070           0
     21468 WT9      988      MECN     C1       CG331   -0.170000       12.0110           0
     21469 WT9      988      MECN     H11      HGA3     0.090000        1.0080           0
     21470 WT9      988      MECN     H12      HGA3     0.090000        1.0080           0
     21471 WT9      988      MECN     H13      HGA3     0.090000        1.0080           0
     21472 WT9      988      MECN     C2       CG1N1    0.360000       12.0110           0
     21473 WT9      988      MECN     N3       NG1T1   -0.460000       14.0070           0
     21474 WT9      995      MECN     C1       CG331   -0.170000       12.0110           0
     21475 WT9      995      MECN     H11      HGA3     0.090000        1.0080           0
     21476 WT9      995      MECN     H12      HGA3     0.090000        1.0080           0
     21477 WT9      995      MECN     H13      HGA3     0.090000        1.0080           0
     21478 WT9      995      MECN     C2       CG1N1    0.360000       12.0110           0
     21479 WT9      995      MECN     N3       NG1T1   -0.460000       14.0070           0
     21480 WT9      997      MECN     C1       CG331   -0.170000       12.0110           0
     21481 WT9      997      MECN     H11      HGA3     0.090000        1.0080           0
     21482 WT9      997      MECN     H12      HGA3     0.090000        1.0080           0
     21483 WT9      997      MECN     H13      HGA3     0.090000        1.0080           0
     21484 WT9      997      MECN     C2       CG1N1    0.360000       12.0110           0
     21485 WT9      997      MECN     N3       NG1T1   -0.460000       14.0070           0
     21486 WT9      999      MECN     C1       CG331   -0.170000       12.0110           0
     21487 WT9      999      MECN     H11      HGA3     0.090000        1.0080           0
     21488 WT9      999      MECN     H12      HGA3     0.090000        1.0080           0
     21489 WT9      999      MECN     H13      HGA3     0.090000        1.0080           0
     21490 WT9      999      MECN     C2       CG1N1    0.360000       12.0110           0
     21491 WT9      999      MECN     N3       NG1T1   -0.460000       14.0070           0
     21492 WT9      1002     MECN     C1       CG331   -0.170000       12.0110           0
     21493 WT9      1002     MECN     H11      HGA3     0.090000        1.0080           0
     21494 WT9      1002     MECN     H12      HGA3     0.090000        1.0080           0
     21495 WT9      1002     MECN     H13      HGA3     0.090000        1.0080           0
     21496 WT9      1002     MECN     C2       CG1N1    0.360000       12.0110           0
     21497 WT9      1002     MECN     N3       NG1T1   -0.460000       14.0070           0
     21498 WT9      1004     MECN     C1       CG331   -0.170000       12.0110           0
     21499 WT9      1004     MECN     H11      HGA3     0.090000        1.0080           0
     21500 WT9      1004     MECN     H12      HGA3     0.090000        1.0080           0
     21501 WT9      1004     MECN     H13      HGA3     0.090000        1.0080           0
     21502 WT9      1004     MECN     C2       CG1N1    0.360000       12.0110           0
     21503 WT9      1004     MECN     N3       NG1T1   -0.460000       14.0070           0
     21504 WT9      1015     MECN     C1       CG331   -0.170000       12.0110           0
     21505 WT9      1015     MECN     H11      HGA3     0.090000        1.0080           0
     21506 WT9      1015     MECN     H12      HGA3     0.090000        1.0080           0
     21507 WT9      1015     MECN     H13      HGA3     0.090000        1.0080           0
     21508 WT9      1015     MECN     C2       CG1N1    0.360000       12.0110           0
     21509 WT9      1015     MECN     N3       NG1T1   -0.460000       14.0070           0
     21510 WT9      1022     MECN     C1       CG331   -0.170000       12.0110           0
     21511 WT9      1022     MECN     H11      HGA3     0.090000        1.0080           0
     21512 WT9      1022     MECN     H12      HGA3     0.090000        1.0080           0
     21513 WT9      1022     MECN     H13      HGA3     0.090000        1.0080           0
     21514 WT9      1022     MECN     C2       CG1N1    0.360000       12.0110           0
     21515 WT9      1022     MECN     N3       NG1T1   -0.460000       14.0070           0
     21516 WT9      1024     MECN     C1       CG331   -0.170000       12.0110           0
     21517 WT9      1024     MECN     H11      HGA3     0.090000        1.0080           0
     21518 WT9      1024     MECN     H12      HGA3     0.090000        1.0080           0
     21519 WT9      1024     MECN     H13      HGA3     0.090000        1.0080           0
     21520 WT9      1024     MECN     C2       CG1N1    0.360000       12.0110           0
     21521 WT9      1024     MECN     N3       NG1T1   -0.460000       14.0070           0
     21522 WT9      1026     MECN     C1       CG331   -0.170000       12.0110           0
     21523 WT9      1026     MECN     H11      HGA3     0.090000        1.0080           0
     21524 WT9      1026     MECN     H12      HGA3     0.090000        1.0080           0
     21525 WT9      1026     MECN     H13      HGA3     0.090000        1.0080           0
     21526 WT9      1026     MECN     C2       CG1N1    0.360000       12.0110           0
     21527 WT9      1026     MECN     N3       NG1T1   -0.460000       14.0070           0
     21528 WT9      1036     MECN     C1       CG331   -0.170000       12.0110           0
     21529 WT9      1036     MECN     H11      HGA3     0.090000        1.0080           0
     21530 WT9      1036     MECN     H12      HGA3     0.090000        1.0080           0
     21531 WT9      1036     MECN     H13      HGA3     0.090000        1.0080           0
     21532 WT9      1036     MECN     C2       CG1N1    0.360000       12.0110           0
     21533 WT9      1036     MECN     N3       NG1T1   -0.460000       14.0070           0
     21534 WT9      1037     MECN     C1       CG331   -0.170000       12.0110           0
     21535 WT9      1037     MECN     H11      HGA3     0.090000        1.0080           0
     21536 WT9      1037     MECN     H12      HGA3     0.090000        1.0080           0
     21537 WT9      1037     MECN     H13      HGA3     0.090000        1.0080           0
     21538 WT9      1037     MECN     C2       CG1N1    0.360000       12.0110           0
     21539 WT9      1037     MECN     N3       NG1T1   -0.460000       14.0070           0
     21540 WT9      1038     MECN     C1       CG331   -0.170000       12.0110           0
     21541 WT9      1038     MECN     H11      HGA3     0.090000        1.0080           0
     21542 WT9      1038     MECN     H12      HGA3     0.090000        1.0080           0
     21543 WT9      1038     MECN     H13      HGA3     0.090000        1.0080           0
     21544 WT9      1038     MECN     C2       CG1N1    0.360000       12.0110           0
     21545 WT9      1038     MECN     N3       NG1T1   -0.460000       14.0070           0
     21546 WT9      1045     MECN     C1       CG331   -0.170000       12.0110           0
     21547 WT9      1045     MECN     H11      HGA3     0.090000        1.0080           0
     21548 WT9      1045     MECN     H12      HGA3     0.090000        1.0080           0
     21549 WT9      1045     MECN     H13      HGA3     0.090000        1.0080           0
     21550 WT9      1045     MECN     C2       CG1N1    0.360000       12.0110           0
     21551 WT9      1045     MECN     N3       NG1T1   -0.460000       14.0070           0
     21552 WT9      1046     MECN     C1       CG331   -0.170000       12.0110           0
     21553 WT9      1046     MECN     H11      HGA3     0.090000        1.0080           0
     21554 WT9      1046     MECN     H12      HGA3     0.090000        1.0080           0
     21555 WT9      1046     MECN     H13      HGA3     0.090000        1.0080           0
     21556 WT9      1046     MECN     C2       CG1N1    0.360000       12.0110           0
     21557 WT9      1046     MECN     N3       NG1T1   -0.460000       14.0070           0
     21558 WT9      1047     MECN     C1       CG331   -0.170000       12.0110           0
     21559 WT9      1047     MECN     H11      HGA3     0.090000        1.0080           0
     21560 WT9      1047     MECN     H12      HGA3     0.090000        1.0080           0
     21561 WT9      1047     MECN     H13      HGA3     0.090000        1.0080           0
     21562 WT9      1047     MECN     C2       CG1N1    0.360000       12.0110           0
     21563 WT9      1047     MECN     N3       NG1T1   -0.460000       14.0070           0
     21564 WT9      1056     MECN     C1       CG331   -0.170000       12.0110           0
     21565 WT9      1056     MECN     H11      HGA3     0.090000        1.0080           0
     21566 WT9      1056     MECN     H12      HGA3     0.090000        1.0080           0
     21567 WT9      1056     MECN     H13      HGA3     0.090000        1.0080           0
     21568 WT9      1056     MECN     C2       CG1N1    0.360000       12.0110           0
     21569 WT9      1056     MECN     N3       NG1T1   -0.460000       14.0070           0
     21570 WT9      1064     MECN     C1       CG331   -0.170000       12.0110           0
     21571 WT9      1064     MECN     H11      HGA3     0.090000        1.0080           0
     21572 WT9      1064     MECN     H12      HGA3     0.090000        1.0080           0
     21573 WT9      1064     MECN     H13      HGA3     0.090000        1.0080           0
     21574 WT9      1064     MECN     C2       CG1N1    0.360000       12.0110           0
     21575 WT9      1064     MECN     N3       NG1T1   -0.460000       14.0070           0
     21576 WT9      1065     MECN     C1       CG331   -0.170000       12.0110           0
     21577 WT9      1065     MECN     H11      HGA3     0.090000        1.0080           0
     21578 WT9      1065     MECN     H12      HGA3     0.090000        1.0080           0
     21579 WT9      1065     MECN     H13      HGA3     0.090000        1.0080           0
     21580 WT9      1065     MECN     C2       CG1N1    0.360000       12.0110           0
     21581 WT9      1065     MECN     N3       NG1T1   -0.460000       14.0070           0
     21582 WT9      1066     MECN     C1       CG331   -0.170000       12.0110           0
     21583 WT9      1066     MECN     H11      HGA3     0.090000        1.0080           0
     21584 WT9      1066     MECN     H12      HGA3     0.090000        1.0080           0
     21585 WT9      1066     MECN     H13      HGA3     0.090000        1.0080           0
     21586 WT9      1066     MECN     C2       CG1N1    0.360000       12.0110           0
     21587 WT9      1066     MECN     N3       NG1T1   -0.460000       14.0070           0
     21588 WT9      1068     MECN     C1       CG331   -0.170000       12.0110           0
     21589 WT9      1068     MECN     H11      HGA3     0.090000        1.0080           0
     21590 WT9      1068     MECN     H12      HGA3     0.090000        1.0080           0
     21591 WT9      1068     MECN     H13      HGA3     0.090000        1.0080           0
     21592 WT9      1068     MECN     C2       CG1N1    0.360000       12.0110           0
     21593 WT9      1068     MECN     N3       NG1T1   -0.460000       14.0070           0
     21594 WT9      1069     MECN     C1       CG331   -0.170000       12.0110           0
     21595 WT9      1069     MECN     H11      HGA3     0.090000        1.0080           0
     21596 WT9      1069     MECN     H12      HGA3     0.090000        1.0080           0
     21597 WT9      1069     MECN     H13      HGA3     0.090000        1.0080           0
     21598 WT9      1069     MECN     C2       CG1N1    0.360000       12.0110           0
     21599 WT9      1069     MECN     N3       NG1T1   -0.460000       14.0070           0
     21600 WT9      1073     MECN     C1       CG331   -0.170000       12.0110           0
     21601 WT9      1073     MECN     H11      HGA3     0.090000        1.0080           0
     21602 WT9      1073     MECN     H12      HGA3     0.090000        1.0080           0
     21603 WT9      1073     MECN     H13      HGA3     0.090000        1.0080           0
     21604 WT9      1073     MECN     C2       CG1N1    0.360000       12.0110           0
     21605 WT9      1073     MECN     N3       NG1T1   -0.460000       14.0070           0
     21606 WT9      1078     MECN     C1       CG331   -0.170000       12.0110           0
     21607 WT9      1078     MECN     H11      HGA3     0.090000        1.0080           0
     21608 WT9      1078     MECN     H12      HGA3     0.090000        1.0080           0
     21609 WT9      1078     MECN     H13      HGA3     0.090000        1.0080           0
     21610 WT9      1078     MECN     C2       CG1N1    0.360000       12.0110           0
     21611 WT9      1078     MECN     N3       NG1T1   -0.460000       14.0070           0
     21612 WT9      1092     MECN     C1       CG331   -0.170000       12.0110           0
     21613 WT9      1092     MECN     H11      HGA3     0.090000        1.0080           0
     21614 WT9      1092     MECN     H12      HGA3     0.090000        1.0080           0
     21615 WT9      1092     MECN     H13      HGA3     0.090000        1.0080           0
     21616 WT9      1092     MECN     C2       CG1N1    0.360000       12.0110           0
     21617 WT9      1092     MECN     N3       NG1T1   -0.460000       14.0070           0
     21618 WT9      1100     MECN     C1       CG331   -0.170000       12.0110           0
     21619 WT9      1100     MECN     H11      HGA3     0.090000        1.0080           0
     21620 WT9      1100     MECN     H12      HGA3     0.090000        1.0080           0
     21621 WT9      1100     MECN     H13      HGA3     0.090000        1.0080           0
     21622 WT9      1100     MECN     C2       CG1N1    0.360000       12.0110           0
     21623 WT9      1100     MECN     N3       NG1T1   -0.460000       14.0070           0
     21624 WT9      1103     MECN     C1       CG331   -0.170000       12.0110           0
     21625 WT9      1103     MECN     H11      HGA3     0.090000        1.0080           0
     21626 WT9      1103     MECN     H12      HGA3     0.090000        1.0080           0
     21627 WT9      1103     MECN     H13      HGA3     0.090000        1.0080           0
     21628 WT9      1103     MECN     C2       CG1N1    0.360000       12.0110           0
     21629 WT9      1103     MECN     N3       NG1T1   -0.460000       14.0070           0
     21630 WT9      1107     MECN     C1       CG331   -0.170000       12.0110           0
     21631 WT9      1107     MECN     H11      HGA3     0.090000        1.0080           0
     21632 WT9      1107     MECN     H12      HGA3     0.090000        1.0080           0
     21633 WT9      1107     MECN     H13      HGA3     0.090000        1.0080           0
     21634 WT9      1107     MECN     C2       CG1N1    0.360000       12.0110           0
     21635 WT9      1107     MECN     N3       NG1T1   -0.460000       14.0070           0
     21636 WT9      1111     MECN     C1       CG331   -0.170000       12.0110           0
     21637 WT9      1111     MECN     H11      HGA3     0.090000        1.0080           0
     21638 WT9      1111     MECN     H12      HGA3     0.090000        1.0080           0
     21639 WT9      1111     MECN     H13      HGA3     0.090000        1.0080           0
     21640 WT9      1111     MECN     C2       CG1N1    0.360000       12.0110           0
     21641 WT9      1111     MECN     N3       NG1T1   -0.460000       14.0070           0
     21642 WT9      1114     MECN     C1       CG331   -0.170000       12.0110           0
     21643 WT9      1114     MECN     H11      HGA3     0.090000        1.0080           0
     21644 WT9      1114     MECN     H12      HGA3     0.090000        1.0080           0
     21645 WT9      1114     MECN     H13      HGA3     0.090000        1.0080           0
     21646 WT9      1114     MECN     C2       CG1N1    0.360000       12.0110           0
     21647 WT9      1114     MECN     N3       NG1T1   -0.460000       14.0070           0
     21648 WT9      1116     MECN     C1       CG331   -0.170000       12.0110           0
     21649 WT9      1116     MECN     H11      HGA3     0.090000        1.0080           0
     21650 WT9      1116     MECN     H12      HGA3     0.090000        1.0080           0
     21651 WT9      1116     MECN     H13      HGA3     0.090000        1.0080           0
     21652 WT9      1116     MECN     C2       CG1N1    0.360000       12.0110           0
     21653 WT9      1116     MECN     N3       NG1T1   -0.460000       14.0070           0
     21654 WT9      1117     MECN     C1       CG331   -0.170000       12.0110           0
     21655 WT9      1117     MECN     H11      HGA3     0.090000        1.0080           0
     21656 WT9      1117     MECN     H12      HGA3     0.090000        1.0080           0
     21657 WT9      1117     MECN     H13      HGA3     0.090000        1.0080           0
     21658 WT9      1117     MECN     C2       CG1N1    0.360000       12.0110           0
     21659 WT9      1117     MECN     N3       NG1T1   -0.460000       14.0070           0
     21660 WT9      1119     MECN     C1       CG331   -0.170000       12.0110           0
     21661 WT9      1119     MECN     H11      HGA3     0.090000        1.0080           0
     21662 WT9      1119     MECN     H12      HGA3     0.090000        1.0080           0
     21663 WT9      1119     MECN     H13      HGA3     0.090000        1.0080           0
     21664 WT9      1119     MECN     C2       CG1N1    0.360000       12.0110           0
     21665 WT9      1119     MECN     N3       NG1T1   -0.460000       14.0070           0
     21666 WT9      1128     MECN     C1       CG331   -0.170000       12.0110           0
     21667 WT9      1128     MECN     H11      HGA3     0.090000        1.0080           0
     21668 WT9      1128     MECN     H12      HGA3     0.090000        1.0080           0
     21669 WT9      1128     MECN     H13      HGA3     0.090000        1.0080           0
     21670 WT9      1128     MECN     C2       CG1N1    0.360000       12.0110           0
     21671 WT9      1128     MECN     N3       NG1T1   -0.460000       14.0070           0
     21672 WT9      1135     MECN     C1       CG331   -0.170000       12.0110           0
     21673 WT9      1135     MECN     H11      HGA3     0.090000        1.0080           0
     21674 WT9      1135     MECN     H12      HGA3     0.090000        1.0080           0
     21675 WT9      1135     MECN     H13      HGA3     0.090000        1.0080           0
     21676 WT9      1135     MECN     C2       CG1N1    0.360000       12.0110           0
     21677 WT9      1135     MECN     N3       NG1T1   -0.460000       14.0070           0
     21678 WT9      1136     MECN     C1       CG331   -0.170000       12.0110           0
     21679 WT9      1136     MECN     H11      HGA3     0.090000        1.0080           0
     21680 WT9      1136     MECN     H12      HGA3     0.090000        1.0080           0
     21681 WT9      1136     MECN     H13      HGA3     0.090000        1.0080           0
     21682 WT9      1136     MECN     C2       CG1N1    0.360000       12.0110           0
     21683 WT9      1136     MECN     N3       NG1T1   -0.460000       14.0070           0
     21684 WT9      1141     MECN     C1       CG331   -0.170000       12.0110           0
     21685 WT9      1141     MECN     H11      HGA3     0.090000        1.0080           0
     21686 WT9      1141     MECN     H12      HGA3     0.090000        1.0080           0
     21687 WT9      1141     MECN     H13      HGA3     0.090000        1.0080           0
     21688 WT9      1141     MECN     C2       CG1N1    0.360000       12.0110           0
     21689 WT9      1141     MECN     N3       NG1T1   -0.460000       14.0070           0
     21690 WT9      1144     MECN     C1       CG331   -0.170000       12.0110           0
     21691 WT9      1144     MECN     H11      HGA3     0.090000        1.0080           0
     21692 WT9      1144     MECN     H12      HGA3     0.090000        1.0080           0
     21693 WT9      1144     MECN     H13      HGA3     0.090000        1.0080           0
     21694 WT9      1144     MECN     C2       CG1N1    0.360000       12.0110           0
     21695 WT9      1144     MECN     N3       NG1T1   -0.460000       14.0070           0
     21696 WT9      1145     MECN     C1       CG331   -0.170000       12.0110           0
     21697 WT9      1145     MECN     H11      HGA3     0.090000        1.0080           0
     21698 WT9      1145     MECN     H12      HGA3     0.090000        1.0080           0
     21699 WT9      1145     MECN     H13      HGA3     0.090000        1.0080           0
     21700 WT9      1145     MECN     C2       CG1N1    0.360000       12.0110           0
     21701 WT9      1145     MECN     N3       NG1T1   -0.460000       14.0070           0
     21702 WT9      1147     MECN     C1       CG331   -0.170000       12.0110           0
     21703 WT9      1147     MECN     H11      HGA3     0.090000        1.0080           0
     21704 WT9      1147     MECN     H12      HGA3     0.090000        1.0080           0
     21705 WT9      1147     MECN     H13      HGA3     0.090000        1.0080           0
     21706 WT9      1147     MECN     C2       CG1N1    0.360000       12.0110           0
     21707 WT9      1147     MECN     N3       NG1T1   -0.460000       14.0070           0
     21708 WT9      1150     MECN     C1       CG331   -0.170000       12.0110           0
     21709 WT9      1150     MECN     H11      HGA3     0.090000        1.0080           0
     21710 WT9      1150     MECN     H12      HGA3     0.090000        1.0080           0
     21711 WT9      1150     MECN     H13      HGA3     0.090000        1.0080           0
     21712 WT9      1150     MECN     C2       CG1N1    0.360000       12.0110           0
     21713 WT9      1150     MECN     N3       NG1T1   -0.460000       14.0070           0
     21714 WT9      1152     MECN     C1       CG331   -0.170000       12.0110           0
     21715 WT9      1152     MECN     H11      HGA3     0.090000        1.0080           0
     21716 WT9      1152     MECN     H12      HGA3     0.090000        1.0080           0
     21717 WT9      1152     MECN     H13      HGA3     0.090000        1.0080           0
     21718 WT9      1152     MECN     C2       CG1N1    0.360000       12.0110           0
     21719 WT9      1152     MECN     N3       NG1T1   -0.460000       14.0070           0
     21720 WT9      1154     MECN     C1       CG331   -0.170000       12.0110           0
     21721 WT9      1154     MECN     H11      HGA3     0.090000        1.0080           0
     21722 WT9      1154     MECN     H12      HGA3     0.090000        1.0080           0
     21723 WT9      1154     MECN     H13      HGA3     0.090000        1.0080           0
     21724 WT9      1154     MECN     C2       CG1N1    0.360000       12.0110           0
     21725 WT9      1154     MECN     N3       NG1T1   -0.460000       14.0070           0
     21726 WT9      1156     MECN     C1       CG331   -0.170000       12.0110           0
     21727 WT9      1156     MECN     H11      HGA3     0.090000        1.0080           0
     21728 WT9      1156     MECN     H12      HGA3     0.090000        1.0080           0
     21729 WT9      1156     MECN     H13      HGA3     0.090000        1.0080           0
     21730 WT9      1156     MECN     C2       CG1N1    0.360000       12.0110           0
     21731 WT9      1156     MECN     N3       NG1T1   -0.460000       14.0070           0
     21732 WT9      1159     MECN     C1       CG331   -0.170000       12.0110           0
     21733 WT9      1159     MECN     H11      HGA3     0.090000        1.0080           0
     21734 WT9      1159     MECN     H12      HGA3     0.090000        1.0080           0
     21735 WT9      1159     MECN     H13      HGA3     0.090000        1.0080           0
     21736 WT9      1159     MECN     C2       CG1N1    0.360000       12.0110           0
     21737 WT9      1159     MECN     N3       NG1T1   -0.460000       14.0070           0
     21738 WT9      1160     MECN     C1       CG331   -0.170000       12.0110           0
     21739 WT9      1160     MECN     H11      HGA3     0.090000        1.0080           0
     21740 WT9      1160     MECN     H12      HGA3     0.090000        1.0080           0
     21741 WT9      1160     MECN     H13      HGA3     0.090000        1.0080           0
     21742 WT9      1160     MECN     C2       CG1N1    0.360000       12.0110           0
     21743 WT9      1160     MECN     N3       NG1T1   -0.460000       14.0070           0
     21744 WT9      1175     MECN     C1       CG331   -0.170000       12.0110           0
     21745 WT9      1175     MECN     H11      HGA3     0.090000        1.0080           0
     21746 WT9      1175     MECN     H12      HGA3     0.090000        1.0080           0
     21747 WT9      1175     MECN     H13      HGA3     0.090000        1.0080           0
     21748 WT9      1175     MECN     C2       CG1N1    0.360000       12.0110           0
     21749 WT9      1175     MECN     N3       NG1T1   -0.460000       14.0070           0
     21750 WT9      1176     MECN     C1       CG331   -0.170000       12.0110           0
     21751 WT9      1176     MECN     H11      HGA3     0.090000        1.0080           0
     21752 WT9      1176     MECN     H12      HGA3     0.090000        1.0080           0
     21753 WT9      1176     MECN     H13      HGA3     0.090000        1.0080           0
     21754 WT9      1176     MECN     C2       CG1N1    0.360000       12.0110           0
     21755 WT9      1176     MECN     N3       NG1T1   -0.460000       14.0070           0
     21756 WT9      1177     MECN     C1       CG331   -0.170000       12.0110           0
     21757 WT9      1177     MECN     H11      HGA3     0.090000        1.0080           0
     21758 WT9      1177     MECN     H12      HGA3     0.090000        1.0080           0
     21759 WT9      1177     MECN     H13      HGA3     0.090000        1.0080           0
     21760 WT9      1177     MECN     C2       CG1N1    0.360000       12.0110           0
     21761 WT9      1177     MECN     N3       NG1T1   -0.460000       14.0070           0
     21762 WT9      1182     MECN     C1       CG331   -0.170000       12.0110           0
     21763 WT9      1182     MECN     H11      HGA3     0.090000        1.0080           0
     21764 WT9      1182     MECN     H12      HGA3     0.090000        1.0080           0
     21765 WT9      1182     MECN     H13      HGA3     0.090000        1.0080           0
     21766 WT9      1182     MECN     C2       CG1N1    0.360000       12.0110           0
     21767 WT9      1182     MECN     N3       NG1T1   -0.460000       14.0070           0
     21768 WT9      1183     MECN     C1       CG331   -0.170000       12.0110           0
     21769 WT9      1183     MECN     H11      HGA3     0.090000        1.0080           0
     21770 WT9      1183     MECN     H12      HGA3     0.090000        1.0080           0
     21771 WT9      1183     MECN     H13      HGA3     0.090000        1.0080           0
     21772 WT9      1183     MECN     C2       CG1N1    0.360000       12.0110           0
     21773 WT9      1183     MECN     N3       NG1T1   -0.460000       14.0070           0
     21774 WT9      1186     MECN     C1       CG331   -0.170000       12.0110           0
     21775 WT9      1186     MECN     H11      HGA3     0.090000        1.0080           0
     21776 WT9      1186     MECN     H12      HGA3     0.090000        1.0080           0
     21777 WT9      1186     MECN     H13      HGA3     0.090000        1.0080           0
     21778 WT9      1186     MECN     C2       CG1N1    0.360000       12.0110           0
     21779 WT9      1186     MECN     N3       NG1T1   -0.460000       14.0070           0
     21780 WT9      1194     MECN     C1       CG331   -0.170000       12.0110           0
     21781 WT9      1194     MECN     H11      HGA3     0.090000        1.0080           0
     21782 WT9      1194     MECN     H12      HGA3     0.090000        1.0080           0
     21783 WT9      1194     MECN     H13      HGA3     0.090000        1.0080           0
     21784 WT9      1194     MECN     C2       CG1N1    0.360000       12.0110           0
     21785 WT9      1194     MECN     N3       NG1T1   -0.460000       14.0070           0
     21786 WT9      1196     MECN     C1       CG331   -0.170000       12.0110           0
     21787 WT9      1196     MECN     H11      HGA3     0.090000        1.0080           0
     21788 WT9      1196     MECN     H12      HGA3     0.090000        1.0080           0
     21789 WT9      1196     MECN     H13      HGA3     0.090000        1.0080           0
     21790 WT9      1196     MECN     C2       CG1N1    0.360000       12.0110           0
     21791 WT9      1196     MECN     N3       NG1T1   -0.460000       14.0070           0
     21792 WT9      1201     MECN     C1       CG331   -0.170000       12.0110           0
     21793 WT9      1201     MECN     H11      HGA3     0.090000        1.0080           0
     21794 WT9      1201     MECN     H12      HGA3     0.090000        1.0080           0
     21795 WT9      1201     MECN     H13      HGA3     0.090000        1.0080           0
     21796 WT9      1201     MECN     C2       CG1N1    0.360000       12.0110           0
     21797 WT9      1201     MECN     N3       NG1T1   -0.460000       14.0070           0
     21798 WT9      1207     MECN     C1       CG331   -0.170000       12.0110           0
     21799 WT9      1207     MECN     H11      HGA3     0.090000        1.0080           0
     21800 WT9      1207     MECN     H12      HGA3     0.090000        1.0080           0
     21801 WT9      1207     MECN     H13      HGA3     0.090000        1.0080           0
     21802 WT9      1207     MECN     C2       CG1N1    0.360000       12.0110           0
     21803 WT9      1207     MECN     N3       NG1T1   -0.460000       14.0070           0
     21804 WT9      1208     MECN     C1       CG331   -0.170000       12.0110           0
     21805 WT9      1208     MECN     H11      HGA3     0.090000        1.0080           0
     21806 WT9      1208     MECN     H12      HGA3     0.090000        1.0080           0
     21807 WT9      1208     MECN     H13      HGA3     0.090000        1.0080           0
     21808 WT9      1208     MECN     C2       CG1N1    0.360000       12.0110           0
     21809 WT9      1208     MECN     N3       NG1T1   -0.460000       14.0070           0
     21810 WT9      1209     MECN     C1       CG331   -0.170000       12.0110           0
     21811 WT9      1209     MECN     H11      HGA3     0.090000        1.0080           0
     21812 WT9      1209     MECN     H12      HGA3     0.090000        1.0080           0
     21813 WT9      1209     MECN     H13      HGA3     0.090000        1.0080           0
     21814 WT9      1209     MECN     C2       CG1N1    0.360000       12.0110           0
     21815 WT9      1209     MECN     N3       NG1T1   -0.460000       14.0070           0
     21816 WT9      1215     MECN     C1       CG331   -0.170000       12.0110           0
     21817 WT9      1215     MECN     H11      HGA3     0.090000        1.0080           0
     21818 WT9      1215     MECN     H12      HGA3     0.090000        1.0080           0
     21819 WT9      1215     MECN     H13      HGA3     0.090000        1.0080           0
     21820 WT9      1215     MECN     C2       CG1N1    0.360000       12.0110           0
     21821 WT9      1215     MECN     N3       NG1T1   -0.460000       14.0070           0
     21822 WT9      1216     MECN     C1       CG331   -0.170000       12.0110           0
     21823 WT9      1216     MECN     H11      HGA3     0.090000        1.0080           0
     21824 WT9      1216     MECN     H12      HGA3     0.090000        1.0080           0
     21825 WT9      1216     MECN     H13      HGA3     0.090000        1.0080           0
     21826 WT9      1216     MECN     C2       CG1N1    0.360000       12.0110           0
     21827 WT9      1216     MECN     N3       NG1T1   -0.460000       14.0070           0
     21828 WT9      1221     MECN     C1       CG331   -0.170000       12.0110           0
     21829 WT9      1221     MECN     H11      HGA3     0.090000        1.0080           0
     21830 WT9      1221     MECN     H12      HGA3     0.090000        1.0080           0
     21831 WT9      1221     MECN     H13      HGA3     0.090000        1.0080           0
     21832 WT9      1221     MECN     C2       CG1N1    0.360000       12.0110           0
     21833 WT9      1221     MECN     N3       NG1T1   -0.460000       14.0070           0
     21834 WT9      1234     MECN     C1       CG331   -0.170000       12.0110           0
     21835 WT9      1234     MECN     H11      HGA3     0.090000        1.0080           0
     21836 WT9      1234     MECN     H12      HGA3     0.090000        1.0080           0
     21837 WT9      1234     MECN     H13      HGA3     0.090000        1.0080           0
     21838 WT9      1234     MECN     C2       CG1N1    0.360000       12.0110           0
     21839 WT9      1234     MECN     N3       NG1T1   -0.460000       14.0070           0
     21840 WT9      1241     MECN     C1       CG331   -0.170000       12.0110           0
     21841 WT9      1241     MECN     H11      HGA3     0.090000        1.0080           0
     21842 WT9      1241     MECN     H12      HGA3     0.090000        1.0080           0
     21843 WT9      1241     MECN     H13      HGA3     0.090000        1.0080           0
     21844 WT9      1241     MECN     C2       CG1N1    0.360000       12.0110           0
     21845 WT9      1241     MECN     N3       NG1T1   -0.460000       14.0070           0
     21846 WT9      1243     MECN     C1       CG331   -0.170000       12.0110           0
     21847 WT9      1243     MECN     H11      HGA3     0.090000        1.0080           0
     21848 WT9      1243     MECN     H12      HGA3     0.090000        1.0080           0
     21849 WT9      1243     MECN     H13      HGA3     0.090000        1.0080           0
     21850 WT9      1243     MECN     C2       CG1N1    0.360000       12.0110           0
     21851 WT9      1243     MECN     N3       NG1T1   -0.460000       14.0070           0
     21852 WT9      1245     MECN     C1       CG331   -0.170000       12.0110           0
     21853 WT9      1245     MECN     H11      HGA3     0.090000        1.0080           0
     21854 WT9      1245     MECN     H12      HGA3     0.090000        1.0080           0
     21855 WT9      1245     MECN     H13      HGA3     0.090000        1.0080           0
     21856 WT9      1245     MECN     C2       CG1N1    0.360000       12.0110           0
     21857 WT9      1245     MECN     N3       NG1T1   -0.460000       14.0070           0
     21858 WT9      1248     MECN     C1       CG331   -0.170000       12.0110           0
     21859 WT9      1248     MECN     H11      HGA3     0.090000        1.0080           0
     21860 WT9      1248     MECN     H12      HGA3     0.090000        1.0080           0
     21861 WT9      1248     MECN     H13      HGA3     0.090000        1.0080           0
     21862 WT9      1248     MECN     C2       CG1N1    0.360000       12.0110           0
     21863 WT9      1248     MECN     N3       NG1T1   -0.460000       14.0070           0
     21864 WT9      1251     MECN     C1       CG331   -0.170000       12.0110           0
     21865 WT9      1251     MECN     H11      HGA3     0.090000        1.0080           0
     21866 WT9      1251     MECN     H12      HGA3     0.090000        1.0080           0
     21867 WT9      1251     MECN     H13      HGA3     0.090000        1.0080           0
     21868 WT9      1251     MECN     C2       CG1N1    0.360000       12.0110           0
     21869 WT9      1251     MECN     N3       NG1T1   -0.460000       14.0070           0
     21870 WT9      1258     MECN     C1       CG331   -0.170000       12.0110           0
     21871 WT9      1258     MECN     H11      HGA3     0.090000        1.0080           0
     21872 WT9      1258     MECN     H12      HGA3     0.090000        1.0080           0
     21873 WT9      1258     MECN     H13      HGA3     0.090000        1.0080           0
     21874 WT9      1258     MECN     C2       CG1N1    0.360000       12.0110           0
     21875 WT9      1258     MECN     N3       NG1T1   -0.460000       14.0070           0
     21876 WT9      1260     MECN     C1       CG331   -0.170000       12.0110           0
     21877 WT9      1260     MECN     H11      HGA3     0.090000        1.0080           0
     21878 WT9      1260     MECN     H12      HGA3     0.090000        1.0080           0
     21879 WT9      1260     MECN     H13      HGA3     0.090000        1.0080           0
     21880 WT9      1260     MECN     C2       CG1N1    0.360000       12.0110           0
     21881 WT9      1260     MECN     N3       NG1T1   -0.460000       14.0070           0
     21882 WT9      1263     MECN     C1       CG331   -0.170000       12.0110           0
     21883 WT9      1263     MECN     H11      HGA3     0.090000        1.0080           0
     21884 WT9      1263     MECN     H12      HGA3     0.090000        1.0080           0
     21885 WT9      1263     MECN     H13      HGA3     0.090000        1.0080           0
     21886 WT9      1263     MECN     C2       CG1N1    0.360000       12.0110           0
     21887 WT9      1263     MECN     N3       NG1T1   -0.460000       14.0070           0
     21888 WT9      1282     MECN     C1       CG331   -0.170000       12.0110           0
     21889 WT9      1282     MECN     H11      HGA3     0.090000        1.0080           0
     21890 WT9      1282     MECN     H12      HGA3     0.090000        1.0080           0
     21891 WT9      1282     MECN     H13      HGA3     0.090000        1.0080           0
     21892 WT9      1282     MECN     C2       CG1N1    0.360000       12.0110           0
     21893 WT9      1282     MECN     N3       NG1T1   -0.460000       14.0070           0
     21894 WT9      1285     MECN     C1       CG331   -0.170000       12.0110           0
     21895 WT9      1285     MECN     H11      HGA3     0.090000        1.0080           0
     21896 WT9      1285     MECN     H12      HGA3     0.090000        1.0080           0
     21897 WT9      1285     MECN     H13      HGA3     0.090000        1.0080           0
     21898 WT9      1285     MECN     C2       CG1N1    0.360000       12.0110           0
     21899 WT9      1285     MECN     N3       NG1T1   -0.460000       14.0070           0
     21900 WT9      1312     MECN     C1       CG331   -0.170000       12.0110           0
     21901 WT9      1312     MECN     H11      HGA3     0.090000        1.0080           0
     21902 WT9      1312     MECN     H12      HGA3     0.090000        1.0080           0
     21903 WT9      1312     MECN     H13      HGA3     0.090000        1.0080           0
     21904 WT9      1312     MECN     C2       CG1N1    0.360000       12.0110           0
     21905 WT9      1312     MECN     N3       NG1T1   -0.460000       14.0070           0
     21906 WT9      1314     MECN     C1       CG331   -0.170000       12.0110           0
     21907 WT9      1314     MECN     H11      HGA3     0.090000        1.0080           0
     21908 WT9      1314     MECN     H12      HGA3     0.090000        1.0080           0
     21909 WT9      1314     MECN     H13      HGA3     0.090000        1.0080           0
     21910 WT9      1314     MECN     C2       CG1N1    0.360000       12.0110           0
     21911 WT9      1314     MECN     N3       NG1T1   -0.460000       14.0070           0
     21912 WT9      1320     MECN     C1       CG331   -0.170000       12.0110           0
     21913 WT9      1320     MECN     H11      HGA3     0.090000        1.0080           0
     21914 WT9      1320     MECN     H12      HGA3     0.090000        1.0080           0
     21915 WT9      1320     MECN     H13      HGA3     0.090000        1.0080           0
     21916 WT9      1320     MECN     C2       CG1N1    0.360000       12.0110           0
     21917 WT9      1320     MECN     N3       NG1T1   -0.460000       14.0070           0
     21918 WT9      1329     MECN     C1       CG331   -0.170000       12.0110           0
     21919 WT9      1329     MECN     H11      HGA3     0.090000        1.0080           0
     21920 WT9      1329     MECN     H12      HGA3     0.090000        1.0080           0
     21921 WT9      1329     MECN     H13      HGA3     0.090000        1.0080           0
     21922 WT9      1329     MECN     C2       CG1N1    0.360000       12.0110           0
     21923 WT9      1329     MECN     N3       NG1T1   -0.460000       14.0070           0
     21924 WT10     7        MECN     C1       CG331   -0.170000       12.0110           0
     21925 WT10     7        MECN     H11      HGA3     0.090000        1.0080           0
     21926 WT10     7        MECN     H12      HGA3     0.090000        1.0080           0
     21927 WT10     7        MECN     H13      HGA3     0.090000        1.0080           0
     21928 WT10     7        MECN     C2       CG1N1    0.360000       12.0110           0
     21929 WT10     7        MECN     N3       NG1T1   -0.460000       14.0070           0
     21930 WT10     9        MECN     C1       CG331   -0.170000       12.0110           0
     21931 WT10     9        MECN     H11      HGA3     0.090000        1.0080           0
     21932 WT10     9        MECN     H12      HGA3     0.090000        1.0080           0
     21933 WT10     9        MECN     H13      HGA3     0.090000        1.0080           0
     21934 WT10     9        MECN     C2       CG1N1    0.360000       12.0110           0
     21935 WT10     9        MECN     N3       NG1T1   -0.460000       14.0070           0
     21936 WT10     16       MECN     C1       CG331   -0.170000       12.0110           0
     21937 WT10     16       MECN     H11      HGA3     0.090000        1.0080           0
     21938 WT10     16       MECN     H12      HGA3     0.090000        1.0080           0
     21939 WT10     16       MECN     H13      HGA3     0.090000        1.0080           0
     21940 WT10     16       MECN     C2       CG1N1    0.360000       12.0110           0
     21941 WT10     16       MECN     N3       NG1T1   -0.460000       14.0070           0
     21942 WT10     23       MECN     C1       CG331   -0.170000       12.0110           0
     21943 WT10     23       MECN     H11      HGA3     0.090000        1.0080           0
     21944 WT10     23       MECN     H12      HGA3     0.090000        1.0080           0
     21945 WT10     23       MECN     H13      HGA3     0.090000        1.0080           0
     21946 WT10     23       MECN     C2       CG1N1    0.360000       12.0110           0
     21947 WT10     23       MECN     N3       NG1T1   -0.460000       14.0070           0
     21948 WT10     31       MECN     C1       CG331   -0.170000       12.0110           0
     21949 WT10     31       MECN     H11      HGA3     0.090000        1.0080           0
     21950 WT10     31       MECN     H12      HGA3     0.090000        1.0080           0
     21951 WT10     31       MECN     H13      HGA3     0.090000        1.0080           0
     21952 WT10     31       MECN     C2       CG1N1    0.360000       12.0110           0
     21953 WT10     31       MECN     N3       NG1T1   -0.460000       14.0070           0
     21954 WT10     38       MECN     C1       CG331   -0.170000       12.0110           0
     21955 WT10     38       MECN     H11      HGA3     0.090000        1.0080           0
     21956 WT10     38       MECN     H12      HGA3     0.090000        1.0080           0
     21957 WT10     38       MECN     H13      HGA3     0.090000        1.0080           0
     21958 WT10     38       MECN     C2       CG1N1    0.360000       12.0110           0
     21959 WT10     38       MECN     N3       NG1T1   -0.460000       14.0070           0
     21960 WT10     50       MECN     C1       CG331   -0.170000       12.0110           0
     21961 WT10     50       MECN     H11      HGA3     0.090000        1.0080           0
     21962 WT10     50       MECN     H12      HGA3     0.090000        1.0080           0
     21963 WT10     50       MECN     H13      HGA3     0.090000        1.0080           0
     21964 WT10     50       MECN     C2       CG1N1    0.360000       12.0110           0
     21965 WT10     50       MECN     N3       NG1T1   -0.460000       14.0070           0
     21966 WT10     52       MECN     C1       CG331   -0.170000       12.0110           0
     21967 WT10     52       MECN     H11      HGA3     0.090000        1.0080           0
     21968 WT10     52       MECN     H12      HGA3     0.090000        1.0080           0
     21969 WT10     52       MECN     H13      HGA3     0.090000        1.0080           0
     21970 WT10     52       MECN     C2       CG1N1    0.360000       12.0110           0
     21971 WT10     52       MECN     N3       NG1T1   -0.460000       14.0070           0
     21972 WT10     54       MECN     C1       CG331   -0.170000       12.0110           0
     21973 WT10     54       MECN     H11      HGA3     0.090000        1.0080           0
     21974 WT10     54       MECN     H12      HGA3     0.090000        1.0080           0
     21975 WT10     54       MECN     H13      HGA3     0.090000        1.0080           0
     21976 WT10     54       MECN     C2       CG1N1    0.360000       12.0110           0
     21977 WT10     54       MECN     N3       NG1T1   -0.460000       14.0070           0
     21978 WT10     56       MECN     C1       CG331   -0.170000       12.0110           0
     21979 WT10     56       MECN     H11      HGA3     0.090000        1.0080           0
     21980 WT10     56       MECN     H12      HGA3     0.090000        1.0080           0
     21981 WT10     56       MECN     H13      HGA3     0.090000        1.0080           0
     21982 WT10     56       MECN     C2       CG1N1    0.360000       12.0110           0
     21983 WT10     56       MECN     N3       NG1T1   -0.460000       14.0070           0
     21984 WT10     57       MECN     C1       CG331   -0.170000       12.0110           0
     21985 WT10     57       MECN     H11      HGA3     0.090000        1.0080           0
     21986 WT10     57       MECN     H12      HGA3     0.090000        1.0080           0
     21987 WT10     57       MECN     H13      HGA3     0.090000        1.0080           0
     21988 WT10     57       MECN     C2       CG1N1    0.360000       12.0110           0
     21989 WT10     57       MECN     N3       NG1T1   -0.460000       14.0070           0
     21990 WT10     58       MECN     C1       CG331   -0.170000       12.0110           0
     21991 WT10     58       MECN     H11      HGA3     0.090000        1.0080           0
     21992 WT10     58       MECN     H12      HGA3     0.090000        1.0080           0
     21993 WT10     58       MECN     H13      HGA3     0.090000        1.0080           0
     21994 WT10     58       MECN     C2       CG1N1    0.360000       12.0110           0
     21995 WT10     58       MECN     N3       NG1T1   -0.460000       14.0070           0
     21996 WT10     59       MECN     C1       CG331   -0.170000       12.0110           0
     21997 WT10     59       MECN     H11      HGA3     0.090000        1.0080           0
     21998 WT10     59       MECN     H12      HGA3     0.090000        1.0080           0
     21999 WT10     59       MECN     H13      HGA3     0.090000        1.0080           0
     22000 WT10     59       MECN     C2       CG1N1    0.360000       12.0110           0
     22001 WT10     59       MECN     N3       NG1T1   -0.460000       14.0070           0
     22002 WT10     63       MECN     C1       CG331   -0.170000       12.0110           0
     22003 WT10     63       MECN     H11      HGA3     0.090000        1.0080           0
     22004 WT10     63       MECN     H12      HGA3     0.090000        1.0080           0
     22005 WT10     63       MECN     H13      HGA3     0.090000        1.0080           0
     22006 WT10     63       MECN     C2       CG1N1    0.360000       12.0110           0
     22007 WT10     63       MECN     N3       NG1T1   -0.460000       14.0070           0
     22008 WT10     71       MECN     C1       CG331   -0.170000       12.0110           0
     22009 WT10     71       MECN     H11      HGA3     0.090000        1.0080           0
     22010 WT10     71       MECN     H12      HGA3     0.090000        1.0080           0
     22011 WT10     71       MECN     H13      HGA3     0.090000        1.0080           0
     22012 WT10     71       MECN     C2       CG1N1    0.360000       12.0110           0
     22013 WT10     71       MECN     N3       NG1T1   -0.460000       14.0070           0
     22014 WT10     76       MECN     C1       CG331   -0.170000       12.0110           0
     22015 WT10     76       MECN     H11      HGA3     0.090000        1.0080           0
     22016 WT10     76       MECN     H12      HGA3     0.090000        1.0080           0
     22017 WT10     76       MECN     H13      HGA3     0.090000        1.0080           0
     22018 WT10     76       MECN     C2       CG1N1    0.360000       12.0110           0
     22019 WT10     76       MECN     N3       NG1T1   -0.460000       14.0070           0
     22020 WT10     79       MECN     C1       CG331   -0.170000       12.0110           0
     22021 WT10     79       MECN     H11      HGA3     0.090000        1.0080           0
     22022 WT10     79       MECN     H12      HGA3     0.090000        1.0080           0
     22023 WT10     79       MECN     H13      HGA3     0.090000        1.0080           0
     22024 WT10     79       MECN     C2       CG1N1    0.360000       12.0110           0
     22025 WT10     79       MECN     N3       NG1T1   -0.460000       14.0070           0
     22026 WT10     81       MECN     C1       CG331   -0.170000       12.0110           0
     22027 WT10     81       MECN     H11      HGA3     0.090000        1.0080           0
     22028 WT10     81       MECN     H12      HGA3     0.090000        1.0080           0
     22029 WT10     81       MECN     H13      HGA3     0.090000        1.0080           0
     22030 WT10     81       MECN     C2       CG1N1    0.360000       12.0110           0
     22031 WT10     81       MECN     N3       NG1T1   -0.460000       14.0070           0
     22032 WT10     83       MECN     C1       CG331   -0.170000       12.0110           0
     22033 WT10     83       MECN     H11      HGA3     0.090000        1.0080           0
     22034 WT10     83       MECN     H12      HGA3     0.090000        1.0080           0
     22035 WT10     83       MECN     H13      HGA3     0.090000        1.0080           0
     22036 WT10     83       MECN     C2       CG1N1    0.360000       12.0110           0
     22037 WT10     83       MECN     N3       NG1T1   -0.460000       14.0070           0
     22038 WT10     92       MECN     C1       CG331   -0.170000       12.0110           0
     22039 WT10     92       MECN     H11      HGA3     0.090000        1.0080           0
     22040 WT10     92       MECN     H12      HGA3     0.090000        1.0080           0
     22041 WT10     92       MECN     H13      HGA3     0.090000        1.0080           0
     22042 WT10     92       MECN     C2       CG1N1    0.360000       12.0110           0
     22043 WT10     92       MECN     N3       NG1T1   -0.460000       14.0070           0
     22044 WT10     96       MECN     C1       CG331   -0.170000       12.0110           0
     22045 WT10     96       MECN     H11      HGA3     0.090000        1.0080           0
     22046 WT10     96       MECN     H12      HGA3     0.090000        1.0080           0
     22047 WT10     96       MECN     H13      HGA3     0.090000        1.0080           0
     22048 WT10     96       MECN     C2       CG1N1    0.360000       12.0110           0
     22049 WT10     96       MECN     N3       NG1T1   -0.460000       14.0070           0
     22050 WT10     105      MECN     C1       CG331   -0.170000       12.0110           0
     22051 WT10     105      MECN     H11      HGA3     0.090000        1.0080           0
     22052 WT10     105      MECN     H12      HGA3     0.090000        1.0080           0
     22053 WT10     105      MECN     H13      HGA3     0.090000        1.0080           0
     22054 WT10     105      MECN     C2       CG1N1    0.360000       12.0110           0
     22055 WT10     105      MECN     N3       NG1T1   -0.460000       14.0070           0
     22056 WT10     108      MECN     C1       CG331   -0.170000       12.0110           0
     22057 WT10     108      MECN     H11      HGA3     0.090000        1.0080           0
     22058 WT10     108      MECN     H12      HGA3     0.090000        1.0080           0
     22059 WT10     108      MECN     H13      HGA3     0.090000        1.0080           0
     22060 WT10     108      MECN     C2       CG1N1    0.360000       12.0110           0
     22061 WT10     108      MECN     N3       NG1T1   -0.460000       14.0070           0
     22062 WT10     111      MECN     C1       CG331   -0.170000       12.0110           0
     22063 WT10     111      MECN     H11      HGA3     0.090000        1.0080           0
     22064 WT10     111      MECN     H12      HGA3     0.090000        1.0080           0
     22065 WT10     111      MECN     H13      HGA3     0.090000        1.0080           0
     22066 WT10     111      MECN     C2       CG1N1    0.360000       12.0110           0
     22067 WT10     111      MECN     N3       NG1T1   -0.460000       14.0070           0
     22068 WT10     112      MECN     C1       CG331   -0.170000       12.0110           0
     22069 WT10     112      MECN     H11      HGA3     0.090000        1.0080           0
     22070 WT10     112      MECN     H12      HGA3     0.090000        1.0080           0
     22071 WT10     112      MECN     H13      HGA3     0.090000        1.0080           0
     22072 WT10     112      MECN     C2       CG1N1    0.360000       12.0110           0
     22073 WT10     112      MECN     N3       NG1T1   -0.460000       14.0070           0
     22074 WT10     115      MECN     C1       CG331   -0.170000       12.0110           0
     22075 WT10     115      MECN     H11      HGA3     0.090000        1.0080           0
     22076 WT10     115      MECN     H12      HGA3     0.090000        1.0080           0
     22077 WT10     115      MECN     H13      HGA3     0.090000        1.0080           0
     22078 WT10     115      MECN     C2       CG1N1    0.360000       12.0110           0
     22079 WT10     115      MECN     N3       NG1T1   -0.460000       14.0070           0
     22080 WT10     117      MECN     C1       CG331   -0.170000       12.0110           0
     22081 WT10     117      MECN     H11      HGA3     0.090000        1.0080           0
     22082 WT10     117      MECN     H12      HGA3     0.090000        1.0080           0
     22083 WT10     117      MECN     H13      HGA3     0.090000        1.0080           0
     22084 WT10     117      MECN     C2       CG1N1    0.360000       12.0110           0
     22085 WT10     117      MECN     N3       NG1T1   -0.460000       14.0070           0
     22086 WT10     118      MECN     C1       CG331   -0.170000       12.0110           0
     22087 WT10     118      MECN     H11      HGA3     0.090000        1.0080           0
     22088 WT10     118      MECN     H12      HGA3     0.090000        1.0080           0
     22089 WT10     118      MECN     H13      HGA3     0.090000        1.0080           0
     22090 WT10     118      MECN     C2       CG1N1    0.360000       12.0110           0
     22091 WT10     118      MECN     N3       NG1T1   -0.460000       14.0070           0
     22092 WT10     120      MECN     C1       CG331   -0.170000       12.0110           0
     22093 WT10     120      MECN     H11      HGA3     0.090000        1.0080           0
     22094 WT10     120      MECN     H12      HGA3     0.090000        1.0080           0
     22095 WT10     120      MECN     H13      HGA3     0.090000        1.0080           0
     22096 WT10     120      MECN     C2       CG1N1    0.360000       12.0110           0
     22097 WT10     120      MECN     N3       NG1T1   -0.460000       14.0070           0
     22098 WT10     121      MECN     C1       CG331   -0.170000       12.0110           0
     22099 WT10     121      MECN     H11      HGA3     0.090000        1.0080           0
     22100 WT10     121      MECN     H12      HGA3     0.090000        1.0080           0
     22101 WT10     121      MECN     H13      HGA3     0.090000        1.0080           0
     22102 WT10     121      MECN     C2       CG1N1    0.360000       12.0110           0
     22103 WT10     121      MECN     N3       NG1T1   -0.460000       14.0070           0
     22104 WT10     134      MECN     C1       CG331   -0.170000       12.0110           0
     22105 WT10     134      MECN     H11      HGA3     0.090000        1.0080           0
     22106 WT10     134      MECN     H12      HGA3     0.090000        1.0080           0
     22107 WT10     134      MECN     H13      HGA3     0.090000        1.0080           0
     22108 WT10     134      MECN     C2       CG1N1    0.360000       12.0110           0
     22109 WT10     134      MECN     N3       NG1T1   -0.460000       14.0070           0
     22110 WT10     138      MECN     C1       CG331   -0.170000       12.0110           0
     22111 WT10     138      MECN     H11      HGA3     0.090000        1.0080           0
     22112 WT10     138      MECN     H12      HGA3     0.090000        1.0080           0
     22113 WT10     138      MECN     H13      HGA3     0.090000        1.0080           0
     22114 WT10     138      MECN     C2       CG1N1    0.360000       12.0110           0
     22115 WT10     138      MECN     N3       NG1T1   -0.460000       14.0070           0
     22116 WT10     147      MECN     C1       CG331   -0.170000       12.0110           0
     22117 WT10     147      MECN     H11      HGA3     0.090000        1.0080           0
     22118 WT10     147      MECN     H12      HGA3     0.090000        1.0080           0
     22119 WT10     147      MECN     H13      HGA3     0.090000        1.0080           0
     22120 WT10     147      MECN     C2       CG1N1    0.360000       12.0110           0
     22121 WT10     147      MECN     N3       NG1T1   -0.460000       14.0070           0
     22122 WT10     151      MECN     C1       CG331   -0.170000       12.0110           0
     22123 WT10     151      MECN     H11      HGA3     0.090000        1.0080           0
     22124 WT10     151      MECN     H12      HGA3     0.090000        1.0080           0
     22125 WT10     151      MECN     H13      HGA3     0.090000        1.0080           0
     22126 WT10     151      MECN     C2       CG1N1    0.360000       12.0110           0
     22127 WT10     151      MECN     N3       NG1T1   -0.460000       14.0070           0
     22128 WT10     159      MECN     C1       CG331   -0.170000       12.0110           0
     22129 WT10     159      MECN     H11      HGA3     0.090000        1.0080           0
     22130 WT10     159      MECN     H12      HGA3     0.090000        1.0080           0
     22131 WT10     159      MECN     H13      HGA3     0.090000        1.0080           0
     22132 WT10     159      MECN     C2       CG1N1    0.360000       12.0110           0
     22133 WT10     159      MECN     N3       NG1T1   -0.460000       14.0070           0
     22134 WT10     171      MECN     C1       CG331   -0.170000       12.0110           0
     22135 WT10     171      MECN     H11      HGA3     0.090000        1.0080           0
     22136 WT10     171      MECN     H12      HGA3     0.090000        1.0080           0
     22137 WT10     171      MECN     H13      HGA3     0.090000        1.0080           0
     22138 WT10     171      MECN     C2       CG1N1    0.360000       12.0110           0
     22139 WT10     171      MECN     N3       NG1T1   -0.460000       14.0070           0
     22140 WT10     173      MECN     C1       CG331   -0.170000       12.0110           0
     22141 WT10     173      MECN     H11      HGA3     0.090000        1.0080           0
     22142 WT10     173      MECN     H12      HGA3     0.090000        1.0080           0
     22143 WT10     173      MECN     H13      HGA3     0.090000        1.0080           0
     22144 WT10     173      MECN     C2       CG1N1    0.360000       12.0110           0
     22145 WT10     173      MECN     N3       NG1T1   -0.460000       14.0070           0
     22146 WT10     179      MECN     C1       CG331   -0.170000       12.0110           0
     22147 WT10     179      MECN     H11      HGA3     0.090000        1.0080           0
     22148 WT10     179      MECN     H12      HGA3     0.090000        1.0080           0
     22149 WT10     179      MECN     H13      HGA3     0.090000        1.0080           0
     22150 WT10     179      MECN     C2       CG1N1    0.360000       12.0110           0
     22151 WT10     179      MECN     N3       NG1T1   -0.460000       14.0070           0
     22152 WT10     182      MECN     C1       CG331   -0.170000       12.0110           0
     22153 WT10     182      MECN     H11      HGA3     0.090000        1.0080           0
     22154 WT10     182      MECN     H12      HGA3     0.090000        1.0080           0
     22155 WT10     182      MECN     H13      HGA3     0.090000        1.0080           0
     22156 WT10     182      MECN     C2       CG1N1    0.360000       12.0110           0
     22157 WT10     182      MECN     N3       NG1T1   -0.460000       14.0070           0
     22158 WT10     183      MECN     C1       CG331   -0.170000       12.0110           0
     22159 WT10     183      MECN     H11      HGA3     0.090000        1.0080           0
     22160 WT10     183      MECN     H12      HGA3     0.090000        1.0080           0
     22161 WT10     183      MECN     H13      HGA3     0.090000        1.0080           0
     22162 WT10     183      MECN     C2       CG1N1    0.360000       12.0110           0
     22163 WT10     183      MECN     N3       NG1T1   -0.460000       14.0070           0
     22164 WT10     185      MECN     C1       CG331   -0.170000       12.0110           0
     22165 WT10     185      MECN     H11      HGA3     0.090000        1.0080           0
     22166 WT10     185      MECN     H12      HGA3     0.090000        1.0080           0
     22167 WT10     185      MECN     H13      HGA3     0.090000        1.0080           0
     22168 WT10     185      MECN     C2       CG1N1    0.360000       12.0110           0
     22169 WT10     185      MECN     N3       NG1T1   -0.460000       14.0070           0
     22170 WT10     191      MECN     C1       CG331   -0.170000       12.0110           0
     22171 WT10     191      MECN     H11      HGA3     0.090000        1.0080           0
     22172 WT10     191      MECN     H12      HGA3     0.090000        1.0080           0
     22173 WT10     191      MECN     H13      HGA3     0.090000        1.0080           0
     22174 WT10     191      MECN     C2       CG1N1    0.360000       12.0110           0
     22175 WT10     191      MECN     N3       NG1T1   -0.460000       14.0070           0
     22176 WT10     197      MECN     C1       CG331   -0.170000       12.0110           0
     22177 WT10     197      MECN     H11      HGA3     0.090000        1.0080           0
     22178 WT10     197      MECN     H12      HGA3     0.090000        1.0080           0
     22179 WT10     197      MECN     H13      HGA3     0.090000        1.0080           0
     22180 WT10     197      MECN     C2       CG1N1    0.360000       12.0110           0
     22181 WT10     197      MECN     N3       NG1T1   -0.460000       14.0070           0
     22182 WT10     201      MECN     C1       CG331   -0.170000       12.0110           0
     22183 WT10     201      MECN     H11      HGA3     0.090000        1.0080           0
     22184 WT10     201      MECN     H12      HGA3     0.090000        1.0080           0
     22185 WT10     201      MECN     H13      HGA3     0.090000        1.0080           0
     22186 WT10     201      MECN     C2       CG1N1    0.360000       12.0110           0
     22187 WT10     201      MECN     N3       NG1T1   -0.460000       14.0070           0
     22188 WT10     202      MECN     C1       CG331   -0.170000       12.0110           0
     22189 WT10     202      MECN     H11      HGA3     0.090000        1.0080           0
     22190 WT10     202      MECN     H12      HGA3     0.090000        1.0080           0
     22191 WT10     202      MECN     H13      HGA3     0.090000        1.0080           0
     22192 WT10     202      MECN     C2       CG1N1    0.360000       12.0110           0
     22193 WT10     202      MECN     N3       NG1T1   -0.460000       14.0070           0
     22194 WT10     204      MECN     C1       CG331   -0.170000       12.0110           0
     22195 WT10     204      MECN     H11      HGA3     0.090000        1.0080           0
     22196 WT10     204      MECN     H12      HGA3     0.090000        1.0080           0
     22197 WT10     204      MECN     H13      HGA3     0.090000        1.0080           0
     22198 WT10     204      MECN     C2       CG1N1    0.360000       12.0110           0
     22199 WT10     204      MECN     N3       NG1T1   -0.460000       14.0070           0
     22200 WT10     209      MECN     C1       CG331   -0.170000       12.0110           0
     22201 WT10     209      MECN     H11      HGA3     0.090000        1.0080           0
     22202 WT10     209      MECN     H12      HGA3     0.090000        1.0080           0
     22203 WT10     209      MECN     H13      HGA3     0.090000        1.0080           0
     22204 WT10     209      MECN     C2       CG1N1    0.360000       12.0110           0
     22205 WT10     209      MECN     N3       NG1T1   -0.460000       14.0070           0
     22206 WT10     211      MECN     C1       CG331   -0.170000       12.0110           0
     22207 WT10     211      MECN     H11      HGA3     0.090000        1.0080           0
     22208 WT10     211      MECN     H12      HGA3     0.090000        1.0080           0
     22209 WT10     211      MECN     H13      HGA3     0.090000        1.0080           0
     22210 WT10     211      MECN     C2       CG1N1    0.360000       12.0110           0
     22211 WT10     211      MECN     N3       NG1T1   -0.460000       14.0070           0
     22212 WT10     225      MECN     C1       CG331   -0.170000       12.0110           0
     22213 WT10     225      MECN     H11      HGA3     0.090000        1.0080           0
     22214 WT10     225      MECN     H12      HGA3     0.090000        1.0080           0
     22215 WT10     225      MECN     H13      HGA3     0.090000        1.0080           0
     22216 WT10     225      MECN     C2       CG1N1    0.360000       12.0110           0
     22217 WT10     225      MECN     N3       NG1T1   -0.460000       14.0070           0
     22218 WT10     230      MECN     C1       CG331   -0.170000       12.0110           0
     22219 WT10     230      MECN     H11      HGA3     0.090000        1.0080           0
     22220 WT10     230      MECN     H12      HGA3     0.090000        1.0080           0
     22221 WT10     230      MECN     H13      HGA3     0.090000        1.0080           0
     22222 WT10     230      MECN     C2       CG1N1    0.360000       12.0110           0
     22223 WT10     230      MECN     N3       NG1T1   -0.460000       14.0070           0
     22224 WT10     246      MECN     C1       CG331   -0.170000       12.0110           0
     22225 WT10     246      MECN     H11      HGA3     0.090000        1.0080           0
     22226 WT10     246      MECN     H12      HGA3     0.090000        1.0080           0
     22227 WT10     246      MECN     H13      HGA3     0.090000        1.0080           0
     22228 WT10     246      MECN     C2       CG1N1    0.360000       12.0110           0
     22229 WT10     246      MECN     N3       NG1T1   -0.460000       14.0070           0
     22230 WT10     247      MECN     C1       CG331   -0.170000       12.0110           0
     22231 WT10     247      MECN     H11      HGA3     0.090000        1.0080           0
     22232 WT10     247      MECN     H12      HGA3     0.090000        1.0080           0
     22233 WT10     247      MECN     H13      HGA3     0.090000        1.0080           0
     22234 WT10     247      MECN     C2       CG1N1    0.360000       12.0110           0
     22235 WT10     247      MECN     N3       NG1T1   -0.460000       14.0070           0
     22236 WT10     248      MECN     C1       CG331   -0.170000       12.0110           0
     22237 WT10     248      MECN     H11      HGA3     0.090000        1.0080           0
     22238 WT10     248      MECN     H12      HGA3     0.090000        1.0080           0
     22239 WT10     248      MECN     H13      HGA3     0.090000        1.0080           0
     22240 WT10     248      MECN     C2       CG1N1    0.360000       12.0110           0
     22241 WT10     248      MECN     N3       NG1T1   -0.460000       14.0070           0
     22242 WT10     251      MECN     C1       CG331   -0.170000       12.0110           0
     22243 WT10     251      MECN     H11      HGA3     0.090000        1.0080           0
     22244 WT10     251      MECN     H12      HGA3     0.090000        1.0080           0
     22245 WT10     251      MECN     H13      HGA3     0.090000        1.0080           0
     22246 WT10     251      MECN     C2       CG1N1    0.360000       12.0110           0
     22247 WT10     251      MECN     N3       NG1T1   -0.460000       14.0070           0
     22248 WT10     253      MECN     C1       CG331   -0.170000       12.0110           0
     22249 WT10     253      MECN     H11      HGA3     0.090000        1.0080           0
     22250 WT10     253      MECN     H12      HGA3     0.090000        1.0080           0
     22251 WT10     253      MECN     H13      HGA3     0.090000        1.0080           0
     22252 WT10     253      MECN     C2       CG1N1    0.360000       12.0110           0
     22253 WT10     253      MECN     N3       NG1T1   -0.460000       14.0070           0
     22254 WT10     255      MECN     C1       CG331   -0.170000       12.0110           0
     22255 WT10     255      MECN     H11      HGA3     0.090000        1.0080           0
     22256 WT10     255      MECN     H12      HGA3     0.090000        1.0080           0
     22257 WT10     255      MECN     H13      HGA3     0.090000        1.0080           0
     22258 WT10     255      MECN     C2       CG1N1    0.360000       12.0110           0
     22259 WT10     255      MECN     N3       NG1T1   -0.460000       14.0070           0
     22260 WT10     260      MECN     C1       CG331   -0.170000       12.0110           0
     22261 WT10     260      MECN     H11      HGA3     0.090000        1.0080           0
     22262 WT10     260      MECN     H12      HGA3     0.090000        1.0080           0
     22263 WT10     260      MECN     H13      HGA3     0.090000        1.0080           0
     22264 WT10     260      MECN     C2       CG1N1    0.360000       12.0110           0
     22265 WT10     260      MECN     N3       NG1T1   -0.460000       14.0070           0
     22266 WT10     270      MECN     C1       CG331   -0.170000       12.0110           0
     22267 WT10     270      MECN     H11      HGA3     0.090000        1.0080           0
     22268 WT10     270      MECN     H12      HGA3     0.090000        1.0080           0
     22269 WT10     270      MECN     H13      HGA3     0.090000        1.0080           0
     22270 WT10     270      MECN     C2       CG1N1    0.360000       12.0110           0
     22271 WT10     270      MECN     N3       NG1T1   -0.460000       14.0070           0
     22272 WT10     272      MECN     C1       CG331   -0.170000       12.0110           0
     22273 WT10     272      MECN     H11      HGA3     0.090000        1.0080           0
     22274 WT10     272      MECN     H12      HGA3     0.090000        1.0080           0
     22275 WT10     272      MECN     H13      HGA3     0.090000        1.0080           0
     22276 WT10     272      MECN     C2       CG1N1    0.360000       12.0110           0
     22277 WT10     272      MECN     N3       NG1T1   -0.460000       14.0070           0
     22278 WT10     273      MECN     C1       CG331   -0.170000       12.0110           0
     22279 WT10     273      MECN     H11      HGA3     0.090000        1.0080           0
     22280 WT10     273      MECN     H12      HGA3     0.090000        1.0080           0
     22281 WT10     273      MECN     H13      HGA3     0.090000        1.0080           0
     22282 WT10     273      MECN     C2       CG1N1    0.360000       12.0110           0
     22283 WT10     273      MECN     N3       NG1T1   -0.460000       14.0070           0
     22284 WT10     274      MECN     C1       CG331   -0.170000       12.0110           0
     22285 WT10     274      MECN     H11      HGA3     0.090000        1.0080           0
     22286 WT10     274      MECN     H12      HGA3     0.090000        1.0080           0
     22287 WT10     274      MECN     H13      HGA3     0.090000        1.0080           0
     22288 WT10     274      MECN     C2       CG1N1    0.360000       12.0110           0
     22289 WT10     274      MECN     N3       NG1T1   -0.460000       14.0070           0
     22290 WT10     285      MECN     C1       CG331   -0.170000       12.0110           0
     22291 WT10     285      MECN     H11      HGA3     0.090000        1.0080           0
     22292 WT10     285      MECN     H12      HGA3     0.090000        1.0080           0
     22293 WT10     285      MECN     H13      HGA3     0.090000        1.0080           0
     22294 WT10     285      MECN     C2       CG1N1    0.360000       12.0110           0
     22295 WT10     285      MECN     N3       NG1T1   -0.460000       14.0070           0
     22296 WT10     287      MECN     C1       CG331   -0.170000       12.0110           0
     22297 WT10     287      MECN     H11      HGA3     0.090000        1.0080           0
     22298 WT10     287      MECN     H12      HGA3     0.090000        1.0080           0
     22299 WT10     287      MECN     H13      HGA3     0.090000        1.0080           0
     22300 WT10     287      MECN     C2       CG1N1    0.360000       12.0110           0
     22301 WT10     287      MECN     N3       NG1T1   -0.460000       14.0070           0
     22302 WT10     292      MECN     C1       CG331   -0.170000       12.0110           0
     22303 WT10     292      MECN     H11      HGA3     0.090000        1.0080           0
     22304 WT10     292      MECN     H12      HGA3     0.090000        1.0080           0
     22305 WT10     292      MECN     H13      HGA3     0.090000        1.0080           0
     22306 WT10     292      MECN     C2       CG1N1    0.360000       12.0110           0
     22307 WT10     292      MECN     N3       NG1T1   -0.460000       14.0070           0
     22308 WT10     296      MECN     C1       CG331   -0.170000       12.0110           0
     22309 WT10     296      MECN     H11      HGA3     0.090000        1.0080           0
     22310 WT10     296      MECN     H12      HGA3     0.090000        1.0080           0
     22311 WT10     296      MECN     H13      HGA3     0.090000        1.0080           0
     22312 WT10     296      MECN     C2       CG1N1    0.360000       12.0110           0
     22313 WT10     296      MECN     N3       NG1T1   -0.460000       14.0070           0
     22314 WT10     297      MECN     C1       CG331   -0.170000       12.0110           0
     22315 WT10     297      MECN     H11      HGA3     0.090000        1.0080           0
     22316 WT10     297      MECN     H12      HGA3     0.090000        1.0080           0
     22317 WT10     297      MECN     H13      HGA3     0.090000        1.0080           0
     22318 WT10     297      MECN     C2       CG1N1    0.360000       12.0110           0
     22319 WT10     297      MECN     N3       NG1T1   -0.460000       14.0070           0
     22320 WT10     298      MECN     C1       CG331   -0.170000       12.0110           0
     22321 WT10     298      MECN     H11      HGA3     0.090000        1.0080           0
     22322 WT10     298      MECN     H12      HGA3     0.090000        1.0080           0
     22323 WT10     298      MECN     H13      HGA3     0.090000        1.0080           0
     22324 WT10     298      MECN     C2       CG1N1    0.360000       12.0110           0
     22325 WT10     298      MECN     N3       NG1T1   -0.460000       14.0070           0
     22326 WT10     304      MECN     C1       CG331   -0.170000       12.0110           0
     22327 WT10     304      MECN     H11      HGA3     0.090000        1.0080           0
     22328 WT10     304      MECN     H12      HGA3     0.090000        1.0080           0
     22329 WT10     304      MECN     H13      HGA3     0.090000        1.0080           0
     22330 WT10     304      MECN     C2       CG1N1    0.360000       12.0110           0
     22331 WT10     304      MECN     N3       NG1T1   -0.460000       14.0070           0
     22332 WT10     308      MECN     C1       CG331   -0.170000       12.0110           0
     22333 WT10     308      MECN     H11      HGA3     0.090000        1.0080           0
     22334 WT10     308      MECN     H12      HGA3     0.090000        1.0080           0
     22335 WT10     308      MECN     H13      HGA3     0.090000        1.0080           0
     22336 WT10     308      MECN     C2       CG1N1    0.360000       12.0110           0
     22337 WT10     308      MECN     N3       NG1T1   -0.460000       14.0070           0
     22338 WT10     310      MECN     C1       CG331   -0.170000       12.0110           0
     22339 WT10     310      MECN     H11      HGA3     0.090000        1.0080           0
     22340 WT10     310      MECN     H12      HGA3     0.090000        1.0080           0
     22341 WT10     310      MECN     H13      HGA3     0.090000        1.0080           0
     22342 WT10     310      MECN     C2       CG1N1    0.360000       12.0110           0
     22343 WT10     310      MECN     N3       NG1T1   -0.460000       14.0070           0
     22344 WT10     317      MECN     C1       CG331   -0.170000       12.0110           0
     22345 WT10     317      MECN     H11      HGA3     0.090000        1.0080           0
     22346 WT10     317      MECN     H12      HGA3     0.090000        1.0080           0
     22347 WT10     317      MECN     H13      HGA3     0.090000        1.0080           0
     22348 WT10     317      MECN     C2       CG1N1    0.360000       12.0110           0
     22349 WT10     317      MECN     N3       NG1T1   -0.460000       14.0070           0
     22350 WT10     323      MECN     C1       CG331   -0.170000       12.0110           0
     22351 WT10     323      MECN     H11      HGA3     0.090000        1.0080           0
     22352 WT10     323      MECN     H12      HGA3     0.090000        1.0080           0
     22353 WT10     323      MECN     H13      HGA3     0.090000        1.0080           0
     22354 WT10     323      MECN     C2       CG1N1    0.360000       12.0110           0
     22355 WT10     323      MECN     N3       NG1T1   -0.460000       14.0070           0
     22356 WT10     325      MECN     C1       CG331   -0.170000       12.0110           0
     22357 WT10     325      MECN     H11      HGA3     0.090000        1.0080           0
     22358 WT10     325      MECN     H12      HGA3     0.090000        1.0080           0
     22359 WT10     325      MECN     H13      HGA3     0.090000        1.0080           0
     22360 WT10     325      MECN     C2       CG1N1    0.360000       12.0110           0
     22361 WT10     325      MECN     N3       NG1T1   -0.460000       14.0070           0
     22362 WT10     327      MECN     C1       CG331   -0.170000       12.0110           0
     22363 WT10     327      MECN     H11      HGA3     0.090000        1.0080           0
     22364 WT10     327      MECN     H12      HGA3     0.090000        1.0080           0
     22365 WT10     327      MECN     H13      HGA3     0.090000        1.0080           0
     22366 WT10     327      MECN     C2       CG1N1    0.360000       12.0110           0
     22367 WT10     327      MECN     N3       NG1T1   -0.460000       14.0070           0
     22368 WT10     333      MECN     C1       CG331   -0.170000       12.0110           0
     22369 WT10     333      MECN     H11      HGA3     0.090000        1.0080           0
     22370 WT10     333      MECN     H12      HGA3     0.090000        1.0080           0
     22371 WT10     333      MECN     H13      HGA3     0.090000        1.0080           0
     22372 WT10     333      MECN     C2       CG1N1    0.360000       12.0110           0
     22373 WT10     333      MECN     N3       NG1T1   -0.460000       14.0070           0
     22374 WT10     336      MECN     C1       CG331   -0.170000       12.0110           0
     22375 WT10     336      MECN     H11      HGA3     0.090000        1.0080           0
     22376 WT10     336      MECN     H12      HGA3     0.090000        1.0080           0
     22377 WT10     336      MECN     H13      HGA3     0.090000        1.0080           0
     22378 WT10     336      MECN     C2       CG1N1    0.360000       12.0110           0
     22379 WT10     336      MECN     N3       NG1T1   -0.460000       14.0070           0
     22380 WT10     338      MECN     C1       CG331   -0.170000       12.0110           0
     22381 WT10     338      MECN     H11      HGA3     0.090000        1.0080           0
     22382 WT10     338      MECN     H12      HGA3     0.090000        1.0080           0
     22383 WT10     338      MECN     H13      HGA3     0.090000        1.0080           0
     22384 WT10     338      MECN     C2       CG1N1    0.360000       12.0110           0
     22385 WT10     338      MECN     N3       NG1T1   -0.460000       14.0070           0
     22386 WT10     340      MECN     C1       CG331   -0.170000       12.0110           0
     22387 WT10     340      MECN     H11      HGA3     0.090000        1.0080           0
     22388 WT10     340      MECN     H12      HGA3     0.090000        1.0080           0
     22389 WT10     340      MECN     H13      HGA3     0.090000        1.0080           0
     22390 WT10     340      MECN     C2       CG1N1    0.360000       12.0110           0
     22391 WT10     340      MECN     N3       NG1T1   -0.460000       14.0070           0
     22392 WT10     341      MECN     C1       CG331   -0.170000       12.0110           0
     22393 WT10     341      MECN     H11      HGA3     0.090000        1.0080           0
     22394 WT10     341      MECN     H12      HGA3     0.090000        1.0080           0
     22395 WT10     341      MECN     H13      HGA3     0.090000        1.0080           0
     22396 WT10     341      MECN     C2       CG1N1    0.360000       12.0110           0
     22397 WT10     341      MECN     N3       NG1T1   -0.460000       14.0070           0
     22398 WT10     342      MECN     C1       CG331   -0.170000       12.0110           0
     22399 WT10     342      MECN     H11      HGA3     0.090000        1.0080           0
     22400 WT10     342      MECN     H12      HGA3     0.090000        1.0080           0
     22401 WT10     342      MECN     H13      HGA3     0.090000        1.0080           0
     22402 WT10     342      MECN     C2       CG1N1    0.360000       12.0110           0
     22403 WT10     342      MECN     N3       NG1T1   -0.460000       14.0070           0
     22404 WT10     343      MECN     C1       CG331   -0.170000       12.0110           0
     22405 WT10     343      MECN     H11      HGA3     0.090000        1.0080           0
     22406 WT10     343      MECN     H12      HGA3     0.090000        1.0080           0
     22407 WT10     343      MECN     H13      HGA3     0.090000        1.0080           0
     22408 WT10     343      MECN     C2       CG1N1    0.360000       12.0110           0
     22409 WT10     343      MECN     N3       NG1T1   -0.460000       14.0070           0
     22410 WT10     344      MECN     C1       CG331   -0.170000       12.0110           0
     22411 WT10     344      MECN     H11      HGA3     0.090000        1.0080           0
     22412 WT10     344      MECN     H12      HGA3     0.090000        1.0080           0
     22413 WT10     344      MECN     H13      HGA3     0.090000        1.0080           0
     22414 WT10     344      MECN     C2       CG1N1    0.360000       12.0110           0
     22415 WT10     344      MECN     N3       NG1T1   -0.460000       14.0070           0
     22416 WT10     346      MECN     C1       CG331   -0.170000       12.0110           0
     22417 WT10     346      MECN     H11      HGA3     0.090000        1.0080           0
     22418 WT10     346      MECN     H12      HGA3     0.090000        1.0080           0
     22419 WT10     346      MECN     H13      HGA3     0.090000        1.0080           0
     22420 WT10     346      MECN     C2       CG1N1    0.360000       12.0110           0
     22421 WT10     346      MECN     N3       NG1T1   -0.460000       14.0070           0
     22422 WT10     349      MECN     C1       CG331   -0.170000       12.0110           0
     22423 WT10     349      MECN     H11      HGA3     0.090000        1.0080           0
     22424 WT10     349      MECN     H12      HGA3     0.090000        1.0080           0
     22425 WT10     349      MECN     H13      HGA3     0.090000        1.0080           0
     22426 WT10     349      MECN     C2       CG1N1    0.360000       12.0110           0
     22427 WT10     349      MECN     N3       NG1T1   -0.460000       14.0070           0
     22428 WT10     366      MECN     C1       CG331   -0.170000       12.0110           0
     22429 WT10     366      MECN     H11      HGA3     0.090000        1.0080           0
     22430 WT10     366      MECN     H12      HGA3     0.090000        1.0080           0
     22431 WT10     366      MECN     H13      HGA3     0.090000        1.0080           0
     22432 WT10     366      MECN     C2       CG1N1    0.360000       12.0110           0
     22433 WT10     366      MECN     N3       NG1T1   -0.460000       14.0070           0
     22434 WT10     367      MECN     C1       CG331   -0.170000       12.0110           0
     22435 WT10     367      MECN     H11      HGA3     0.090000        1.0080           0
     22436 WT10     367      MECN     H12      HGA3     0.090000        1.0080           0
     22437 WT10     367      MECN     H13      HGA3     0.090000        1.0080           0
     22438 WT10     367      MECN     C2       CG1N1    0.360000       12.0110           0
     22439 WT10     367      MECN     N3       NG1T1   -0.460000       14.0070           0
     22440 WT10     369      MECN     C1       CG331   -0.170000       12.0110           0
     22441 WT10     369      MECN     H11      HGA3     0.090000        1.0080           0
     22442 WT10     369      MECN     H12      HGA3     0.090000        1.0080           0
     22443 WT10     369      MECN     H13      HGA3     0.090000        1.0080           0
     22444 WT10     369      MECN     C2       CG1N1    0.360000       12.0110           0
     22445 WT10     369      MECN     N3       NG1T1   -0.460000       14.0070           0
     22446 WT10     378      MECN     C1       CG331   -0.170000       12.0110           0
     22447 WT10     378      MECN     H11      HGA3     0.090000        1.0080           0
     22448 WT10     378      MECN     H12      HGA3     0.090000        1.0080           0
     22449 WT10     378      MECN     H13      HGA3     0.090000        1.0080           0
     22450 WT10     378      MECN     C2       CG1N1    0.360000       12.0110           0
     22451 WT10     378      MECN     N3       NG1T1   -0.460000       14.0070           0
     22452 WT10     381      MECN     C1       CG331   -0.170000       12.0110           0
     22453 WT10     381      MECN     H11      HGA3     0.090000        1.0080           0
     22454 WT10     381      MECN     H12      HGA3     0.090000        1.0080           0
     22455 WT10     381      MECN     H13      HGA3     0.090000        1.0080           0
     22456 WT10     381      MECN     C2       CG1N1    0.360000       12.0110           0
     22457 WT10     381      MECN     N3       NG1T1   -0.460000       14.0070           0
     22458 WT10     388      MECN     C1       CG331   -0.170000       12.0110           0
     22459 WT10     388      MECN     H11      HGA3     0.090000        1.0080           0
     22460 WT10     388      MECN     H12      HGA3     0.090000        1.0080           0
     22461 WT10     388      MECN     H13      HGA3     0.090000        1.0080           0
     22462 WT10     388      MECN     C2       CG1N1    0.360000       12.0110           0
     22463 WT10     388      MECN     N3       NG1T1   -0.460000       14.0070           0
     22464 WT10     391      MECN     C1       CG331   -0.170000       12.0110           0
     22465 WT10     391      MECN     H11      HGA3     0.090000        1.0080           0
     22466 WT10     391      MECN     H12      HGA3     0.090000        1.0080           0
     22467 WT10     391      MECN     H13      HGA3     0.090000        1.0080           0
     22468 WT10     391      MECN     C2       CG1N1    0.360000       12.0110           0
     22469 WT10     391      MECN     N3       NG1T1   -0.460000       14.0070           0
     22470 WT10     392      MECN     C1       CG331   -0.170000       12.0110           0
     22471 WT10     392      MECN     H11      HGA3     0.090000        1.0080           0
     22472 WT10     392      MECN     H12      HGA3     0.090000        1.0080           0
     22473 WT10     392      MECN     H13      HGA3     0.090000        1.0080           0
     22474 WT10     392      MECN     C2       CG1N1    0.360000       12.0110           0
     22475 WT10     392      MECN     N3       NG1T1   -0.460000       14.0070           0
     22476 WT10     395      MECN     C1       CG331   -0.170000       12.0110           0
     22477 WT10     395      MECN     H11      HGA3     0.090000        1.0080           0
     22478 WT10     395      MECN     H12      HGA3     0.090000        1.0080           0
     22479 WT10     395      MECN     H13      HGA3     0.090000        1.0080           0
     22480 WT10     395      MECN     C2       CG1N1    0.360000       12.0110           0
     22481 WT10     395      MECN     N3       NG1T1   -0.460000       14.0070           0
     22482 WT10     400      MECN     C1       CG331   -0.170000       12.0110           0
     22483 WT10     400      MECN     H11      HGA3     0.090000        1.0080           0
     22484 WT10     400      MECN     H12      HGA3     0.090000        1.0080           0
     22485 WT10     400      MECN     H13      HGA3     0.090000        1.0080           0
     22486 WT10     400      MECN     C2       CG1N1    0.360000       12.0110           0
     22487 WT10     400      MECN     N3       NG1T1   -0.460000       14.0070           0
     22488 WT10     401      MECN     C1       CG331   -0.170000       12.0110           0
     22489 WT10     401      MECN     H11      HGA3     0.090000        1.0080           0
     22490 WT10     401      MECN     H12      HGA3     0.090000        1.0080           0
     22491 WT10     401      MECN     H13      HGA3     0.090000        1.0080           0
     22492 WT10     401      MECN     C2       CG1N1    0.360000       12.0110           0
     22493 WT10     401      MECN     N3       NG1T1   -0.460000       14.0070           0
     22494 WT10     403      MECN     C1       CG331   -0.170000       12.0110           0
     22495 WT10     403      MECN     H11      HGA3     0.090000        1.0080           0
     22496 WT10     403      MECN     H12      HGA3     0.090000        1.0080           0
     22497 WT10     403      MECN     H13      HGA3     0.090000        1.0080           0
     22498 WT10     403      MECN     C2       CG1N1    0.360000       12.0110           0
     22499 WT10     403      MECN     N3       NG1T1   -0.460000       14.0070           0
     22500 WT10     408      MECN     C1       CG331   -0.170000       12.0110           0
     22501 WT10     408      MECN     H11      HGA3     0.090000        1.0080           0
     22502 WT10     408      MECN     H12      HGA3     0.090000        1.0080           0
     22503 WT10     408      MECN     H13      HGA3     0.090000        1.0080           0
     22504 WT10     408      MECN     C2       CG1N1    0.360000       12.0110           0
     22505 WT10     408      MECN     N3       NG1T1   -0.460000       14.0070           0
     22506 WT10     416      MECN     C1       CG331   -0.170000       12.0110           0
     22507 WT10     416      MECN     H11      HGA3     0.090000        1.0080           0
     22508 WT10     416      MECN     H12      HGA3     0.090000        1.0080           0
     22509 WT10     416      MECN     H13      HGA3     0.090000        1.0080           0
     22510 WT10     416      MECN     C2       CG1N1    0.360000       12.0110           0
     22511 WT10     416      MECN     N3       NG1T1   -0.460000       14.0070           0
     22512 WT10     423      MECN     C1       CG331   -0.170000       12.0110           0
     22513 WT10     423      MECN     H11      HGA3     0.090000        1.0080           0
     22514 WT10     423      MECN     H12      HGA3     0.090000        1.0080           0
     22515 WT10     423      MECN     H13      HGA3     0.090000        1.0080           0
     22516 WT10     423      MECN     C2       CG1N1    0.360000       12.0110           0
     22517 WT10     423      MECN     N3       NG1T1   -0.460000       14.0070           0
     22518 WT10     430      MECN     C1       CG331   -0.170000       12.0110           0
     22519 WT10     430      MECN     H11      HGA3     0.090000        1.0080           0
     22520 WT10     430      MECN     H12      HGA3     0.090000        1.0080           0
     22521 WT10     430      MECN     H13      HGA3     0.090000        1.0080           0
     22522 WT10     430      MECN     C2       CG1N1    0.360000       12.0110           0
     22523 WT10     430      MECN     N3       NG1T1   -0.460000       14.0070           0
     22524 WT10     436      MECN     C1       CG331   -0.170000       12.0110           0
     22525 WT10     436      MECN     H11      HGA3     0.090000        1.0080           0
     22526 WT10     436      MECN     H12      HGA3     0.090000        1.0080           0
     22527 WT10     436      MECN     H13      HGA3     0.090000        1.0080           0
     22528 WT10     436      MECN     C2       CG1N1    0.360000       12.0110           0
     22529 WT10     436      MECN     N3       NG1T1   -0.460000       14.0070           0
     22530 WT10     440      MECN     C1       CG331   -0.170000       12.0110           0
     22531 WT10     440      MECN     H11      HGA3     0.090000        1.0080           0
     22532 WT10     440      MECN     H12      HGA3     0.090000        1.0080           0
     22533 WT10     440      MECN     H13      HGA3     0.090000        1.0080           0
     22534 WT10     440      MECN     C2       CG1N1    0.360000       12.0110           0
     22535 WT10     440      MECN     N3       NG1T1   -0.460000       14.0070           0
     22536 WT10     446      MECN     C1       CG331   -0.170000       12.0110           0
     22537 WT10     446      MECN     H11      HGA3     0.090000        1.0080           0
     22538 WT10     446      MECN     H12      HGA3     0.090000        1.0080           0
     22539 WT10     446      MECN     H13      HGA3     0.090000        1.0080           0
     22540 WT10     446      MECN     C2       CG1N1    0.360000       12.0110           0
     22541 WT10     446      MECN     N3       NG1T1   -0.460000       14.0070           0
     22542 WT10     449      MECN     C1       CG331   -0.170000       12.0110           0
     22543 WT10     449      MECN     H11      HGA3     0.090000        1.0080           0
     22544 WT10     449      MECN     H12      HGA3     0.090000        1.0080           0
     22545 WT10     449      MECN     H13      HGA3     0.090000        1.0080           0
     22546 WT10     449      MECN     C2       CG1N1    0.360000       12.0110           0
     22547 WT10     449      MECN     N3       NG1T1   -0.460000       14.0070           0
     22548 WT10     451      MECN     C1       CG331   -0.170000       12.0110           0
     22549 WT10     451      MECN     H11      HGA3     0.090000        1.0080           0
     22550 WT10     451      MECN     H12      HGA3     0.090000        1.0080           0
     22551 WT10     451      MECN     H13      HGA3     0.090000        1.0080           0
     22552 WT10     451      MECN     C2       CG1N1    0.360000       12.0110           0
     22553 WT10     451      MECN     N3       NG1T1   -0.460000       14.0070           0
     22554 WT10     452      MECN     C1       CG331   -0.170000       12.0110           0
     22555 WT10     452      MECN     H11      HGA3     0.090000        1.0080           0
     22556 WT10     452      MECN     H12      HGA3     0.090000        1.0080           0
     22557 WT10     452      MECN     H13      HGA3     0.090000        1.0080           0
     22558 WT10     452      MECN     C2       CG1N1    0.360000       12.0110           0
     22559 WT10     452      MECN     N3       NG1T1   -0.460000       14.0070           0
     22560 WT10     454      MECN     C1       CG331   -0.170000       12.0110           0
     22561 WT10     454      MECN     H11      HGA3     0.090000        1.0080           0
     22562 WT10     454      MECN     H12      HGA3     0.090000        1.0080           0
     22563 WT10     454      MECN     H13      HGA3     0.090000        1.0080           0
     22564 WT10     454      MECN     C2       CG1N1    0.360000       12.0110           0
     22565 WT10     454      MECN     N3       NG1T1   -0.460000       14.0070           0
     22566 WT10     458      MECN     C1       CG331   -0.170000       12.0110           0
     22567 WT10     458      MECN     H11      HGA3     0.090000        1.0080           0
     22568 WT10     458      MECN     H12      HGA3     0.090000        1.0080           0
     22569 WT10     458      MECN     H13      HGA3     0.090000        1.0080           0
     22570 WT10     458      MECN     C2       CG1N1    0.360000       12.0110           0
     22571 WT10     458      MECN     N3       NG1T1   -0.460000       14.0070           0
     22572 WT10     464      MECN     C1       CG331   -0.170000       12.0110           0
     22573 WT10     464      MECN     H11      HGA3     0.090000        1.0080           0
     22574 WT10     464      MECN     H12      HGA3     0.090000        1.0080           0
     22575 WT10     464      MECN     H13      HGA3     0.090000        1.0080           0
     22576 WT10     464      MECN     C2       CG1N1    0.360000       12.0110           0
     22577 WT10     464      MECN     N3       NG1T1   -0.460000       14.0070           0
     22578 WT10     467      MECN     C1       CG331   -0.170000       12.0110           0
     22579 WT10     467      MECN     H11      HGA3     0.090000        1.0080           0
     22580 WT10     467      MECN     H12      HGA3     0.090000        1.0080           0
     22581 WT10     467      MECN     H13      HGA3     0.090000        1.0080           0
     22582 WT10     467      MECN     C2       CG1N1    0.360000       12.0110           0
     22583 WT10     467      MECN     N3       NG1T1   -0.460000       14.0070           0
     22584 WT10     471      MECN     C1       CG331   -0.170000       12.0110           0
     22585 WT10     471      MECN     H11      HGA3     0.090000        1.0080           0
     22586 WT10     471      MECN     H12      HGA3     0.090000        1.0080           0
     22587 WT10     471      MECN     H13      HGA3     0.090000        1.0080           0
     22588 WT10     471      MECN     C2       CG1N1    0.360000       12.0110           0
     22589 WT10     471      MECN     N3       NG1T1   -0.460000       14.0070           0
     22590 WT10     477      MECN     C1       CG331   -0.170000       12.0110           0
     22591 WT10     477      MECN     H11      HGA3     0.090000        1.0080           0
     22592 WT10     477      MECN     H12      HGA3     0.090000        1.0080           0
     22593 WT10     477      MECN     H13      HGA3     0.090000        1.0080           0
     22594 WT10     477      MECN     C2       CG1N1    0.360000       12.0110           0
     22595 WT10     477      MECN     N3       NG1T1   -0.460000       14.0070           0
     22596 WT10     480      MECN     C1       CG331   -0.170000       12.0110           0
     22597 WT10     480      MECN     H11      HGA3     0.090000        1.0080           0
     22598 WT10     480      MECN     H12      HGA3     0.090000        1.0080           0
     22599 WT10     480      MECN     H13      HGA3     0.090000        1.0080           0
     22600 WT10     480      MECN     C2       CG1N1    0.360000       12.0110           0
     22601 WT10     480      MECN     N3       NG1T1   -0.460000       14.0070           0
     22602 WT10     485      MECN     C1       CG331   -0.170000       12.0110           0
     22603 WT10     485      MECN     H11      HGA3     0.090000        1.0080           0
     22604 WT10     485      MECN     H12      HGA3     0.090000        1.0080           0
     22605 WT10     485      MECN     H13      HGA3     0.090000        1.0080           0
     22606 WT10     485      MECN     C2       CG1N1    0.360000       12.0110           0
     22607 WT10     485      MECN     N3       NG1T1   -0.460000       14.0070           0
     22608 WT10     488      MECN     C1       CG331   -0.170000       12.0110           0
     22609 WT10     488      MECN     H11      HGA3     0.090000        1.0080           0
     22610 WT10     488      MECN     H12      HGA3     0.090000        1.0080           0
     22611 WT10     488      MECN     H13      HGA3     0.090000        1.0080           0
     22612 WT10     488      MECN     C2       CG1N1    0.360000       12.0110           0
     22613 WT10     488      MECN     N3       NG1T1   -0.460000       14.0070           0
     22614 WT10     492      MECN     C1       CG331   -0.170000       12.0110           0
     22615 WT10     492      MECN     H11      HGA3     0.090000        1.0080           0
     22616 WT10     492      MECN     H12      HGA3     0.090000        1.0080           0
     22617 WT10     492      MECN     H13      HGA3     0.090000        1.0080           0
     22618 WT10     492      MECN     C2       CG1N1    0.360000       12.0110           0
     22619 WT10     492      MECN     N3       NG1T1   -0.460000       14.0070           0
     22620 WT10     494      MECN     C1       CG331   -0.170000       12.0110           0
     22621 WT10     494      MECN     H11      HGA3     0.090000        1.0080           0
     22622 WT10     494      MECN     H12      HGA3     0.090000        1.0080           0
     22623 WT10     494      MECN     H13      HGA3     0.090000        1.0080           0
     22624 WT10     494      MECN     C2       CG1N1    0.360000       12.0110           0
     22625 WT10     494      MECN     N3       NG1T1   -0.460000       14.0070           0
     22626 WT10     495      MECN     C1       CG331   -0.170000       12.0110           0
     22627 WT10     495      MECN     H11      HGA3     0.090000        1.0080           0
     22628 WT10     495      MECN     H12      HGA3     0.090000        1.0080           0
     22629 WT10     495      MECN     H13      HGA3     0.090000        1.0080           0
     22630 WT10     495      MECN     C2       CG1N1    0.360000       12.0110           0
     22631 WT10     495      MECN     N3       NG1T1   -0.460000       14.0070           0
     22632 WT10     497      MECN     C1       CG331   -0.170000       12.0110           0
     22633 WT10     497      MECN     H11      HGA3     0.090000        1.0080           0
     22634 WT10     497      MECN     H12      HGA3     0.090000        1.0080           0
     22635 WT10     497      MECN     H13      HGA3     0.090000        1.0080           0
     22636 WT10     497      MECN     C2       CG1N1    0.360000       12.0110           0
     22637 WT10     497      MECN     N3       NG1T1   -0.460000       14.0070           0
     22638 WT10     519      MECN     C1       CG331   -0.170000       12.0110           0
     22639 WT10     519      MECN     H11      HGA3     0.090000        1.0080           0
     22640 WT10     519      MECN     H12      HGA3     0.090000        1.0080           0
     22641 WT10     519      MECN     H13      HGA3     0.090000        1.0080           0
     22642 WT10     519      MECN     C2       CG1N1    0.360000       12.0110           0
     22643 WT10     519      MECN     N3       NG1T1   -0.460000       14.0070           0
     22644 WT10     520      MECN     C1       CG331   -0.170000       12.0110           0
     22645 WT10     520      MECN     H11      HGA3     0.090000        1.0080           0
     22646 WT10     520      MECN     H12      HGA3     0.090000        1.0080           0
     22647 WT10     520      MECN     H13      HGA3     0.090000        1.0080           0
     22648 WT10     520      MECN     C2       CG1N1    0.360000       12.0110           0
     22649 WT10     520      MECN     N3       NG1T1   -0.460000       14.0070           0
     22650 WT10     528      MECN     C1       CG331   -0.170000       12.0110           0
     22651 WT10     528      MECN     H11      HGA3     0.090000        1.0080           0
     22652 WT10     528      MECN     H12      HGA3     0.090000        1.0080           0
     22653 WT10     528      MECN     H13      HGA3     0.090000        1.0080           0
     22654 WT10     528      MECN     C2       CG1N1    0.360000       12.0110           0
     22655 WT10     528      MECN     N3       NG1T1   -0.460000       14.0070           0
     22656 WT10     531      MECN     C1       CG331   -0.170000       12.0110           0
     22657 WT10     531      MECN     H11      HGA3     0.090000        1.0080           0
     22658 WT10     531      MECN     H12      HGA3     0.090000        1.0080           0
     22659 WT10     531      MECN     H13      HGA3     0.090000        1.0080           0
     22660 WT10     531      MECN     C2       CG1N1    0.360000       12.0110           0
     22661 WT10     531      MECN     N3       NG1T1   -0.460000       14.0070           0
     22662 WT10     543      MECN     C1       CG331   -0.170000       12.0110           0
     22663 WT10     543      MECN     H11      HGA3     0.090000        1.0080           0
     22664 WT10     543      MECN     H12      HGA3     0.090000        1.0080           0
     22665 WT10     543      MECN     H13      HGA3     0.090000        1.0080           0
     22666 WT10     543      MECN     C2       CG1N1    0.360000       12.0110           0
     22667 WT10     543      MECN     N3       NG1T1   -0.460000       14.0070           0
     22668 WT10     544      MECN     C1       CG331   -0.170000       12.0110           0
     22669 WT10     544      MECN     H11      HGA3     0.090000        1.0080           0
     22670 WT10     544      MECN     H12      HGA3     0.090000        1.0080           0
     22671 WT10     544      MECN     H13      HGA3     0.090000        1.0080           0
     22672 WT10     544      MECN     C2       CG1N1    0.360000       12.0110           0
     22673 WT10     544      MECN     N3       NG1T1   -0.460000       14.0070           0
     22674 WT10     546      MECN     C1       CG331   -0.170000       12.0110           0
     22675 WT10     546      MECN     H11      HGA3     0.090000        1.0080           0
     22676 WT10     546      MECN     H12      HGA3     0.090000        1.0080           0
     22677 WT10     546      MECN     H13      HGA3     0.090000        1.0080           0
     22678 WT10     546      MECN     C2       CG1N1    0.360000       12.0110           0
     22679 WT10     546      MECN     N3       NG1T1   -0.460000       14.0070           0
     22680 WT10     553      MECN     C1       CG331   -0.170000       12.0110           0
     22681 WT10     553      MECN     H11      HGA3     0.090000        1.0080           0
     22682 WT10     553      MECN     H12      HGA3     0.090000        1.0080           0
     22683 WT10     553      MECN     H13      HGA3     0.090000        1.0080           0
     22684 WT10     553      MECN     C2       CG1N1    0.360000       12.0110           0
     22685 WT10     553      MECN     N3       NG1T1   -0.460000       14.0070           0
     22686 WT10     555      MECN     C1       CG331   -0.170000       12.0110           0
     22687 WT10     555      MECN     H11      HGA3     0.090000        1.0080           0
     22688 WT10     555      MECN     H12      HGA3     0.090000        1.0080           0
     22689 WT10     555      MECN     H13      HGA3     0.090000        1.0080           0
     22690 WT10     555      MECN     C2       CG1N1    0.360000       12.0110           0
     22691 WT10     555      MECN     N3       NG1T1   -0.460000       14.0070           0
     22692 WT10     560      MECN     C1       CG331   -0.170000       12.0110           0
     22693 WT10     560      MECN     H11      HGA3     0.090000        1.0080           0
     22694 WT10     560      MECN     H12      HGA3     0.090000        1.0080           0
     22695 WT10     560      MECN     H13      HGA3     0.090000        1.0080           0
     22696 WT10     560      MECN     C2       CG1N1    0.360000       12.0110           0
     22697 WT10     560      MECN     N3       NG1T1   -0.460000       14.0070           0
     22698 WT10     578      MECN     C1       CG331   -0.170000       12.0110           0
     22699 WT10     578      MECN     H11      HGA3     0.090000        1.0080           0
     22700 WT10     578      MECN     H12      HGA3     0.090000        1.0080           0
     22701 WT10     578      MECN     H13      HGA3     0.090000        1.0080           0
     22702 WT10     578      MECN     C2       CG1N1    0.360000       12.0110           0
     22703 WT10     578      MECN     N3       NG1T1   -0.460000       14.0070           0
     22704 WT10     579      MECN     C1       CG331   -0.170000       12.0110           0
     22705 WT10     579      MECN     H11      HGA3     0.090000        1.0080           0
     22706 WT10     579      MECN     H12      HGA3     0.090000        1.0080           0
     22707 WT10     579      MECN     H13      HGA3     0.090000        1.0080           0
     22708 WT10     579      MECN     C2       CG1N1    0.360000       12.0110           0
     22709 WT10     579      MECN     N3       NG1T1   -0.460000       14.0070           0
     22710 WT10     580      MECN     C1       CG331   -0.170000       12.0110           0
     22711 WT10     580      MECN     H11      HGA3     0.090000        1.0080           0
     22712 WT10     580      MECN     H12      HGA3     0.090000        1.0080           0
     22713 WT10     580      MECN     H13      HGA3     0.090000        1.0080           0
     22714 WT10     580      MECN     C2       CG1N1    0.360000       12.0110           0
     22715 WT10     580      MECN     N3       NG1T1   -0.460000       14.0070           0
     22716 WT10     584      MECN     C1       CG331   -0.170000       12.0110           0
     22717 WT10     584      MECN     H11      HGA3     0.090000        1.0080           0
     22718 WT10     584      MECN     H12      HGA3     0.090000        1.0080           0
     22719 WT10     584      MECN     H13      HGA3     0.090000        1.0080           0
     22720 WT10     584      MECN     C2       CG1N1    0.360000       12.0110           0
     22721 WT10     584      MECN     N3       NG1T1   -0.460000       14.0070           0
     22722 WT10     585      MECN     C1       CG331   -0.170000       12.0110           0
     22723 WT10     585      MECN     H11      HGA3     0.090000        1.0080           0
     22724 WT10     585      MECN     H12      HGA3     0.090000        1.0080           0
     22725 WT10     585      MECN     H13      HGA3     0.090000        1.0080           0
     22726 WT10     585      MECN     C2       CG1N1    0.360000       12.0110           0
     22727 WT10     585      MECN     N3       NG1T1   -0.460000       14.0070           0
     22728 WT10     586      MECN     C1       CG331   -0.170000       12.0110           0
     22729 WT10     586      MECN     H11      HGA3     0.090000        1.0080           0
     22730 WT10     586      MECN     H12      HGA3     0.090000        1.0080           0
     22731 WT10     586      MECN     H13      HGA3     0.090000        1.0080           0
     22732 WT10     586      MECN     C2       CG1N1    0.360000       12.0110           0
     22733 WT10     586      MECN     N3       NG1T1   -0.460000       14.0070           0
     22734 WT10     587      MECN     C1       CG331   -0.170000       12.0110           0
     22735 WT10     587      MECN     H11      HGA3     0.090000        1.0080           0
     22736 WT10     587      MECN     H12      HGA3     0.090000        1.0080           0
     22737 WT10     587      MECN     H13      HGA3     0.090000        1.0080           0
     22738 WT10     587      MECN     C2       CG1N1    0.360000       12.0110           0
     22739 WT10     587      MECN     N3       NG1T1   -0.460000       14.0070           0
     22740 WT10     589      MECN     C1       CG331   -0.170000       12.0110           0
     22741 WT10     589      MECN     H11      HGA3     0.090000        1.0080           0
     22742 WT10     589      MECN     H12      HGA3     0.090000        1.0080           0
     22743 WT10     589      MECN     H13      HGA3     0.090000        1.0080           0
     22744 WT10     589      MECN     C2       CG1N1    0.360000       12.0110           0
     22745 WT10     589      MECN     N3       NG1T1   -0.460000       14.0070           0
     22746 WT10     590      MECN     C1       CG331   -0.170000       12.0110           0
     22747 WT10     590      MECN     H11      HGA3     0.090000        1.0080           0
     22748 WT10     590      MECN     H12      HGA3     0.090000        1.0080           0
     22749 WT10     590      MECN     H13      HGA3     0.090000        1.0080           0
     22750 WT10     590      MECN     C2       CG1N1    0.360000       12.0110           0
     22751 WT10     590      MECN     N3       NG1T1   -0.460000       14.0070           0
     22752 WT10     595      MECN     C1       CG331   -0.170000       12.0110           0
     22753 WT10     595      MECN     H11      HGA3     0.090000        1.0080           0
     22754 WT10     595      MECN     H12      HGA3     0.090000        1.0080           0
     22755 WT10     595      MECN     H13      HGA3     0.090000        1.0080           0
     22756 WT10     595      MECN     C2       CG1N1    0.360000       12.0110           0
     22757 WT10     595      MECN     N3       NG1T1   -0.460000       14.0070           0
     22758 WT10     599      MECN     C1       CG331   -0.170000       12.0110           0
     22759 WT10     599      MECN     H11      HGA3     0.090000        1.0080           0
     22760 WT10     599      MECN     H12      HGA3     0.090000        1.0080           0
     22761 WT10     599      MECN     H13      HGA3     0.090000        1.0080           0
     22762 WT10     599      MECN     C2       CG1N1    0.360000       12.0110           0
     22763 WT10     599      MECN     N3       NG1T1   -0.460000       14.0070           0
     22764 WT10     613      MECN     C1       CG331   -0.170000       12.0110           0
     22765 WT10     613      MECN     H11      HGA3     0.090000        1.0080           0
     22766 WT10     613      MECN     H12      HGA3     0.090000        1.0080           0
     22767 WT10     613      MECN     H13      HGA3     0.090000        1.0080           0
     22768 WT10     613      MECN     C2       CG1N1    0.360000       12.0110           0
     22769 WT10     613      MECN     N3       NG1T1   -0.460000       14.0070           0
     22770 WT10     620      MECN     C1       CG331   -0.170000       12.0110           0
     22771 WT10     620      MECN     H11      HGA3     0.090000        1.0080           0
     22772 WT10     620      MECN     H12      HGA3     0.090000        1.0080           0
     22773 WT10     620      MECN     H13      HGA3     0.090000        1.0080           0
     22774 WT10     620      MECN     C2       CG1N1    0.360000       12.0110           0
     22775 WT10     620      MECN     N3       NG1T1   -0.460000       14.0070           0
     22776 WT10     623      MECN     C1       CG331   -0.170000       12.0110           0
     22777 WT10     623      MECN     H11      HGA3     0.090000        1.0080           0
     22778 WT10     623      MECN     H12      HGA3     0.090000        1.0080           0
     22779 WT10     623      MECN     H13      HGA3     0.090000        1.0080           0
     22780 WT10     623      MECN     C2       CG1N1    0.360000       12.0110           0
     22781 WT10     623      MECN     N3       NG1T1   -0.460000       14.0070           0
     22782 WT10     625      MECN     C1       CG331   -0.170000       12.0110           0
     22783 WT10     625      MECN     H11      HGA3     0.090000        1.0080           0
     22784 WT10     625      MECN     H12      HGA3     0.090000        1.0080           0
     22785 WT10     625      MECN     H13      HGA3     0.090000        1.0080           0
     22786 WT10     625      MECN     C2       CG1N1    0.360000       12.0110           0
     22787 WT10     625      MECN     N3       NG1T1   -0.460000       14.0070           0
     22788 WT10     627      MECN     C1       CG331   -0.170000       12.0110           0
     22789 WT10     627      MECN     H11      HGA3     0.090000        1.0080           0
     22790 WT10     627      MECN     H12      HGA3     0.090000        1.0080           0
     22791 WT10     627      MECN     H13      HGA3     0.090000        1.0080           0
     22792 WT10     627      MECN     C2       CG1N1    0.360000       12.0110           0
     22793 WT10     627      MECN     N3       NG1T1   -0.460000       14.0070           0
     22794 WT10     633      MECN     C1       CG331   -0.170000       12.0110           0
     22795 WT10     633      MECN     H11      HGA3     0.090000        1.0080           0
     22796 WT10     633      MECN     H12      HGA3     0.090000        1.0080           0
     22797 WT10     633      MECN     H13      HGA3     0.090000        1.0080           0
     22798 WT10     633      MECN     C2       CG1N1    0.360000       12.0110           0
     22799 WT10     633      MECN     N3       NG1T1   -0.460000       14.0070           0
     22800 WT10     636      MECN     C1       CG331   -0.170000       12.0110           0
     22801 WT10     636      MECN     H11      HGA3     0.090000        1.0080           0
     22802 WT10     636      MECN     H12      HGA3     0.090000        1.0080           0
     22803 WT10     636      MECN     H13      HGA3     0.090000        1.0080           0
     22804 WT10     636      MECN     C2       CG1N1    0.360000       12.0110           0
     22805 WT10     636      MECN     N3       NG1T1   -0.460000       14.0070           0
     22806 WT10     637      MECN     C1       CG331   -0.170000       12.0110           0
     22807 WT10     637      MECN     H11      HGA3     0.090000        1.0080           0
     22808 WT10     637      MECN     H12      HGA3     0.090000        1.0080           0
     22809 WT10     637      MECN     H13      HGA3     0.090000        1.0080           0
     22810 WT10     637      MECN     C2       CG1N1    0.360000       12.0110           0
     22811 WT10     637      MECN     N3       NG1T1   -0.460000       14.0070           0
     22812 WT10     639      MECN     C1       CG331   -0.170000       12.0110           0
     22813 WT10     639      MECN     H11      HGA3     0.090000        1.0080           0
     22814 WT10     639      MECN     H12      HGA3     0.090000        1.0080           0
     22815 WT10     639      MECN     H13      HGA3     0.090000        1.0080           0
     22816 WT10     639      MECN     C2       CG1N1    0.360000       12.0110           0
     22817 WT10     639      MECN     N3       NG1T1   -0.460000       14.0070           0
     22818 WT10     649      MECN     C1       CG331   -0.170000       12.0110           0
     22819 WT10     649      MECN     H11      HGA3     0.090000        1.0080           0
     22820 WT10     649      MECN     H12      HGA3     0.090000        1.0080           0
     22821 WT10     649      MECN     H13      HGA3     0.090000        1.0080           0
     22822 WT10     649      MECN     C2       CG1N1    0.360000       12.0110           0
     22823 WT10     649      MECN     N3       NG1T1   -0.460000       14.0070           0
     22824 WT10     650      MECN     C1       CG331   -0.170000       12.0110           0
     22825 WT10     650      MECN     H11      HGA3     0.090000        1.0080           0
     22826 WT10     650      MECN     H12      HGA3     0.090000        1.0080           0
     22827 WT10     650      MECN     H13      HGA3     0.090000        1.0080           0
     22828 WT10     650      MECN     C2       CG1N1    0.360000       12.0110           0
     22829 WT10     650      MECN     N3       NG1T1   -0.460000       14.0070           0
     22830 WT10     651      MECN     C1       CG331   -0.170000       12.0110           0
     22831 WT10     651      MECN     H11      HGA3     0.090000        1.0080           0
     22832 WT10     651      MECN     H12      HGA3     0.090000        1.0080           0
     22833 WT10     651      MECN     H13      HGA3     0.090000        1.0080           0
     22834 WT10     651      MECN     C2       CG1N1    0.360000       12.0110           0
     22835 WT10     651      MECN     N3       NG1T1   -0.460000       14.0070           0
     22836 WT10     656      MECN     C1       CG331   -0.170000       12.0110           0
     22837 WT10     656      MECN     H11      HGA3     0.090000        1.0080           0
     22838 WT10     656      MECN     H12      HGA3     0.090000        1.0080           0
     22839 WT10     656      MECN     H13      HGA3     0.090000        1.0080           0
     22840 WT10     656      MECN     C2       CG1N1    0.360000       12.0110           0
     22841 WT10     656      MECN     N3       NG1T1   -0.460000       14.0070           0
     22842 WT10     658      MECN     C1       CG331   -0.170000       12.0110           0
     22843 WT10     658      MECN     H11      HGA3     0.090000        1.0080           0
     22844 WT10     658      MECN     H12      HGA3     0.090000        1.0080           0
     22845 WT10     658      MECN     H13      HGA3     0.090000        1.0080           0
     22846 WT10     658      MECN     C2       CG1N1    0.360000       12.0110           0
     22847 WT10     658      MECN     N3       NG1T1   -0.460000       14.0070           0
     22848 WT10     659      MECN     C1       CG331   -0.170000       12.0110           0
     22849 WT10     659      MECN     H11      HGA3     0.090000        1.0080           0
     22850 WT10     659      MECN     H12      HGA3     0.090000        1.0080           0
     22851 WT10     659      MECN     H13      HGA3     0.090000        1.0080           0
     22852 WT10     659      MECN     C2       CG1N1    0.360000       12.0110           0
     22853 WT10     659      MECN     N3       NG1T1   -0.460000       14.0070           0
     22854 WT10     661      MECN     C1       CG331   -0.170000       12.0110           0
     22855 WT10     661      MECN     H11      HGA3     0.090000        1.0080           0
     22856 WT10     661      MECN     H12      HGA3     0.090000        1.0080           0
     22857 WT10     661      MECN     H13      HGA3     0.090000        1.0080           0
     22858 WT10     661      MECN     C2       CG1N1    0.360000       12.0110           0
     22859 WT10     661      MECN     N3       NG1T1   -0.460000       14.0070           0
     22860 WT10     665      MECN     C1       CG331   -0.170000       12.0110           0
     22861 WT10     665      MECN     H11      HGA3     0.090000        1.0080           0
     22862 WT10     665      MECN     H12      HGA3     0.090000        1.0080           0
     22863 WT10     665      MECN     H13      HGA3     0.090000        1.0080           0
     22864 WT10     665      MECN     C2       CG1N1    0.360000       12.0110           0
     22865 WT10     665      MECN     N3       NG1T1   -0.460000       14.0070           0
     22866 WT10     667      MECN     C1       CG331   -0.170000       12.0110           0
     22867 WT10     667      MECN     H11      HGA3     0.090000        1.0080           0
     22868 WT10     667      MECN     H12      HGA3     0.090000        1.0080           0
     22869 WT10     667      MECN     H13      HGA3     0.090000        1.0080           0
     22870 WT10     667      MECN     C2       CG1N1    0.360000       12.0110           0
     22871 WT10     667      MECN     N3       NG1T1   -0.460000       14.0070           0
     22872 WT10     672      MECN     C1       CG331   -0.170000       12.0110           0
     22873 WT10     672      MECN     H11      HGA3     0.090000        1.0080           0
     22874 WT10     672      MECN     H12      HGA3     0.090000        1.0080           0
     22875 WT10     672      MECN     H13      HGA3     0.090000        1.0080           0
     22876 WT10     672      MECN     C2       CG1N1    0.360000       12.0110           0
     22877 WT10     672      MECN     N3       NG1T1   -0.460000       14.0070           0
     22878 WT10     673      MECN     C1       CG331   -0.170000       12.0110           0
     22879 WT10     673      MECN     H11      HGA3     0.090000        1.0080           0
     22880 WT10     673      MECN     H12      HGA3     0.090000        1.0080           0
     22881 WT10     673      MECN     H13      HGA3     0.090000        1.0080           0
     22882 WT10     673      MECN     C2       CG1N1    0.360000       12.0110           0
     22883 WT10     673      MECN     N3       NG1T1   -0.460000       14.0070           0
     22884 WT10     680      MECN     C1       CG331   -0.170000       12.0110           0
     22885 WT10     680      MECN     H11      HGA3     0.090000        1.0080           0
     22886 WT10     680      MECN     H12      HGA3     0.090000        1.0080           0
     22887 WT10     680      MECN     H13      HGA3     0.090000        1.0080           0
     22888 WT10     680      MECN     C2       CG1N1    0.360000       12.0110           0
     22889 WT10     680      MECN     N3       NG1T1   -0.460000       14.0070           0
     22890 WT10     682      MECN     C1       CG331   -0.170000       12.0110           0
     22891 WT10     682      MECN     H11      HGA3     0.090000        1.0080           0
     22892 WT10     682      MECN     H12      HGA3     0.090000        1.0080           0
     22893 WT10     682      MECN     H13      HGA3     0.090000        1.0080           0
     22894 WT10     682      MECN     C2       CG1N1    0.360000       12.0110           0
     22895 WT10     682      MECN     N3       NG1T1   -0.460000       14.0070           0
     22896 WT10     694      MECN     C1       CG331   -0.170000       12.0110           0
     22897 WT10     694      MECN     H11      HGA3     0.090000        1.0080           0
     22898 WT10     694      MECN     H12      HGA3     0.090000        1.0080           0
     22899 WT10     694      MECN     H13      HGA3     0.090000        1.0080           0
     22900 WT10     694      MECN     C2       CG1N1    0.360000       12.0110           0
     22901 WT10     694      MECN     N3       NG1T1   -0.460000       14.0070           0
     22902 WT10     696      MECN     C1       CG331   -0.170000       12.0110           0
     22903 WT10     696      MECN     H11      HGA3     0.090000        1.0080           0
     22904 WT10     696      MECN     H12      HGA3     0.090000        1.0080           0
     22905 WT10     696      MECN     H13      HGA3     0.090000        1.0080           0
     22906 WT10     696      MECN     C2       CG1N1    0.360000       12.0110           0
     22907 WT10     696      MECN     N3       NG1T1   -0.460000       14.0070           0
     22908 WT10     699      MECN     C1       CG331   -0.170000       12.0110           0
     22909 WT10     699      MECN     H11      HGA3     0.090000        1.0080           0
     22910 WT10     699      MECN     H12      HGA3     0.090000        1.0080           0
     22911 WT10     699      MECN     H13      HGA3     0.090000        1.0080           0
     22912 WT10     699      MECN     C2       CG1N1    0.360000       12.0110           0
     22913 WT10     699      MECN     N3       NG1T1   -0.460000       14.0070           0
     22914 WT10     704      MECN     C1       CG331   -0.170000       12.0110           0
     22915 WT10     704      MECN     H11      HGA3     0.090000        1.0080           0
     22916 WT10     704      MECN     H12      HGA3     0.090000        1.0080           0
     22917 WT10     704      MECN     H13      HGA3     0.090000        1.0080           0
     22918 WT10     704      MECN     C2       CG1N1    0.360000       12.0110           0
     22919 WT10     704      MECN     N3       NG1T1   -0.460000       14.0070           0
     22920 WT10     717      MECN     C1       CG331   -0.170000       12.0110           0
     22921 WT10     717      MECN     H11      HGA3     0.090000        1.0080           0
     22922 WT10     717      MECN     H12      HGA3     0.090000        1.0080           0
     22923 WT10     717      MECN     H13      HGA3     0.090000        1.0080           0
     22924 WT10     717      MECN     C2       CG1N1    0.360000       12.0110           0
     22925 WT10     717      MECN     N3       NG1T1   -0.460000       14.0070           0
     22926 WT10     721      MECN     C1       CG331   -0.170000       12.0110           0
     22927 WT10     721      MECN     H11      HGA3     0.090000        1.0080           0
     22928 WT10     721      MECN     H12      HGA3     0.090000        1.0080           0
     22929 WT10     721      MECN     H13      HGA3     0.090000        1.0080           0
     22930 WT10     721      MECN     C2       CG1N1    0.360000       12.0110           0
     22931 WT10     721      MECN     N3       NG1T1   -0.460000       14.0070           0
     22932 WT10     722      MECN     C1       CG331   -0.170000       12.0110           0
     22933 WT10     722      MECN     H11      HGA3     0.090000        1.0080           0
     22934 WT10     722      MECN     H12      HGA3     0.090000        1.0080           0
     22935 WT10     722      MECN     H13      HGA3     0.090000        1.0080           0
     22936 WT10     722      MECN     C2       CG1N1    0.360000       12.0110           0
     22937 WT10     722      MECN     N3       NG1T1   -0.460000       14.0070           0
     22938 WT10     723      MECN     C1       CG331   -0.170000       12.0110           0
     22939 WT10     723      MECN     H11      HGA3     0.090000        1.0080           0
     22940 WT10     723      MECN     H12      HGA3     0.090000        1.0080           0
     22941 WT10     723      MECN     H13      HGA3     0.090000        1.0080           0
     22942 WT10     723      MECN     C2       CG1N1    0.360000       12.0110           0
     22943 WT10     723      MECN     N3       NG1T1   -0.460000       14.0070           0
     22944 WT10     724      MECN     C1       CG331   -0.170000       12.0110           0
     22945 WT10     724      MECN     H11      HGA3     0.090000        1.0080           0
     22946 WT10     724      MECN     H12      HGA3     0.090000        1.0080           0
     22947 WT10     724      MECN     H13      HGA3     0.090000        1.0080           0
     22948 WT10     724      MECN     C2       CG1N1    0.360000       12.0110           0
     22949 WT10     724      MECN     N3       NG1T1   -0.460000       14.0070           0
     22950 WT10     726      MECN     C1       CG331   -0.170000       12.0110           0
     22951 WT10     726      MECN     H11      HGA3     0.090000        1.0080           0
     22952 WT10     726      MECN     H12      HGA3     0.090000        1.0080           0
     22953 WT10     726      MECN     H13      HGA3     0.090000        1.0080           0
     22954 WT10     726      MECN     C2       CG1N1    0.360000       12.0110           0
     22955 WT10     726      MECN     N3       NG1T1   -0.460000       14.0070           0
     22956 WT10     731      MECN     C1       CG331   -0.170000       12.0110           0
     22957 WT10     731      MECN     H11      HGA3     0.090000        1.0080           0
     22958 WT10     731      MECN     H12      HGA3     0.090000        1.0080           0
     22959 WT10     731      MECN     H13      HGA3     0.090000        1.0080           0
     22960 WT10     731      MECN     C2       CG1N1    0.360000       12.0110           0
     22961 WT10     731      MECN     N3       NG1T1   -0.460000       14.0070           0
     22962 WT10     743      MECN     C1       CG331   -0.170000       12.0110           0
     22963 WT10     743      MECN     H11      HGA3     0.090000        1.0080           0
     22964 WT10     743      MECN     H12      HGA3     0.090000        1.0080           0
     22965 WT10     743      MECN     H13      HGA3     0.090000        1.0080           0
     22966 WT10     743      MECN     C2       CG1N1    0.360000       12.0110           0
     22967 WT10     743      MECN     N3       NG1T1   -0.460000       14.0070           0
     22968 WT10     748      MECN     C1       CG331   -0.170000       12.0110           0
     22969 WT10     748      MECN     H11      HGA3     0.090000        1.0080           0
     22970 WT10     748      MECN     H12      HGA3     0.090000        1.0080           0
     22971 WT10     748      MECN     H13      HGA3     0.090000        1.0080           0
     22972 WT10     748      MECN     C2       CG1N1    0.360000       12.0110           0
     22973 WT10     748      MECN     N3       NG1T1   -0.460000       14.0070           0
     22974 WT10     761      MECN     C1       CG331   -0.170000       12.0110           0
     22975 WT10     761      MECN     H11      HGA3     0.090000        1.0080           0
     22976 WT10     761      MECN     H12      HGA3     0.090000        1.0080           0
     22977 WT10     761      MECN     H13      HGA3     0.090000        1.0080           0
     22978 WT10     761      MECN     C2       CG1N1    0.360000       12.0110           0
     22979 WT10     761      MECN     N3       NG1T1   -0.460000       14.0070           0
     22980 WT10     762      MECN     C1       CG331   -0.170000       12.0110           0
     22981 WT10     762      MECN     H11      HGA3     0.090000        1.0080           0
     22982 WT10     762      MECN     H12      HGA3     0.090000        1.0080           0
     22983 WT10     762      MECN     H13      HGA3     0.090000        1.0080           0
     22984 WT10     762      MECN     C2       CG1N1    0.360000       12.0110           0
     22985 WT10     762      MECN     N3       NG1T1   -0.460000       14.0070           0
     22986 WT10     763      MECN     C1       CG331   -0.170000       12.0110           0
     22987 WT10     763      MECN     H11      HGA3     0.090000        1.0080           0
     22988 WT10     763      MECN     H12      HGA3     0.090000        1.0080           0
     22989 WT10     763      MECN     H13      HGA3     0.090000        1.0080           0
     22990 WT10     763      MECN     C2       CG1N1    0.360000       12.0110           0
     22991 WT10     763      MECN     N3       NG1T1   -0.460000       14.0070           0
     22992 WT10     765      MECN     C1       CG331   -0.170000       12.0110           0
     22993 WT10     765      MECN     H11      HGA3     0.090000        1.0080           0
     22994 WT10     765      MECN     H12      HGA3     0.090000        1.0080           0
     22995 WT10     765      MECN     H13      HGA3     0.090000        1.0080           0
     22996 WT10     765      MECN     C2       CG1N1    0.360000       12.0110           0
     22997 WT10     765      MECN     N3       NG1T1   -0.460000       14.0070           0
     22998 WT10     768      MECN     C1       CG331   -0.170000       12.0110           0
     22999 WT10     768      MECN     H11      HGA3     0.090000        1.0080           0
     23000 WT10     768      MECN     H12      HGA3     0.090000        1.0080           0
     23001 WT10     768      MECN     H13      HGA3     0.090000        1.0080           0
     23002 WT10     768      MECN     C2       CG1N1    0.360000       12.0110           0
     23003 WT10     768      MECN     N3       NG1T1   -0.460000       14.0070           0
     23004 WT10     770      MECN     C1       CG331   -0.170000       12.0110           0
     23005 WT10     770      MECN     H11      HGA3     0.090000        1.0080           0
     23006 WT10     770      MECN     H12      HGA3     0.090000        1.0080           0
     23007 WT10     770      MECN     H13      HGA3     0.090000        1.0080           0
     23008 WT10     770      MECN     C2       CG1N1    0.360000       12.0110           0
     23009 WT10     770      MECN     N3       NG1T1   -0.460000       14.0070           0
     23010 WT10     772      MECN     C1       CG331   -0.170000       12.0110           0
     23011 WT10     772      MECN     H11      HGA3     0.090000        1.0080           0
     23012 WT10     772      MECN     H12      HGA3     0.090000        1.0080           0
     23013 WT10     772      MECN     H13      HGA3     0.090000        1.0080           0
     23014 WT10     772      MECN     C2       CG1N1    0.360000       12.0110           0
     23015 WT10     772      MECN     N3       NG1T1   -0.460000       14.0070           0
     23016 WT10     774      MECN     C1       CG331   -0.170000       12.0110           0
     23017 WT10     774      MECN     H11      HGA3     0.090000        1.0080           0
     23018 WT10     774      MECN     H12      HGA3     0.090000        1.0080           0
     23019 WT10     774      MECN     H13      HGA3     0.090000        1.0080           0
     23020 WT10     774      MECN     C2       CG1N1    0.360000       12.0110           0
     23021 WT10     774      MECN     N3       NG1T1   -0.460000       14.0070           0
     23022 WT10     775      MECN     C1       CG331   -0.170000       12.0110           0
     23023 WT10     775      MECN     H11      HGA3     0.090000        1.0080           0
     23024 WT10     775      MECN     H12      HGA3     0.090000        1.0080           0
     23025 WT10     775      MECN     H13      HGA3     0.090000        1.0080           0
     23026 WT10     775      MECN     C2       CG1N1    0.360000       12.0110           0
     23027 WT10     775      MECN     N3       NG1T1   -0.460000       14.0070           0
     23028 WT10     778      MECN     C1       CG331   -0.170000       12.0110           0
     23029 WT10     778      MECN     H11      HGA3     0.090000        1.0080           0
     23030 WT10     778      MECN     H12      HGA3     0.090000        1.0080           0
     23031 WT10     778      MECN     H13      HGA3     0.090000        1.0080           0
     23032 WT10     778      MECN     C2       CG1N1    0.360000       12.0110           0
     23033 WT10     778      MECN     N3       NG1T1   -0.460000       14.0070           0
     23034 WT10     782      MECN     C1       CG331   -0.170000       12.0110           0
     23035 WT10     782      MECN     H11      HGA3     0.090000        1.0080           0
     23036 WT10     782      MECN     H12      HGA3     0.090000        1.0080           0
     23037 WT10     782      MECN     H13      HGA3     0.090000        1.0080           0
     23038 WT10     782      MECN     C2       CG1N1    0.360000       12.0110           0
     23039 WT10     782      MECN     N3       NG1T1   -0.460000       14.0070           0
     23040 WT10     783      MECN     C1       CG331   -0.170000       12.0110           0
     23041 WT10     783      MECN     H11      HGA3     0.090000        1.0080           0
     23042 WT10     783      MECN     H12      HGA3     0.090000        1.0080           0
     23043 WT10     783      MECN     H13      HGA3     0.090000        1.0080           0
     23044 WT10     783      MECN     C2       CG1N1    0.360000       12.0110           0
     23045 WT10     783      MECN     N3       NG1T1   -0.460000       14.0070           0
     23046 WT10     791      MECN     C1       CG331   -0.170000       12.0110           0
     23047 WT10     791      MECN     H11      HGA3     0.090000        1.0080           0
     23048 WT10     791      MECN     H12      HGA3     0.090000        1.0080           0
     23049 WT10     791      MECN     H13      HGA3     0.090000        1.0080           0
     23050 WT10     791      MECN     C2       CG1N1    0.360000       12.0110           0
     23051 WT10     791      MECN     N3       NG1T1   -0.460000       14.0070           0
     23052 WT10     797      MECN     C1       CG331   -0.170000       12.0110           0
     23053 WT10     797      MECN     H11      HGA3     0.090000        1.0080           0
     23054 WT10     797      MECN     H12      HGA3     0.090000        1.0080           0
     23055 WT10     797      MECN     H13      HGA3     0.090000        1.0080           0
     23056 WT10     797      MECN     C2       CG1N1    0.360000       12.0110           0
     23057 WT10     797      MECN     N3       NG1T1   -0.460000       14.0070           0
     23058 WT10     799      MECN     C1       CG331   -0.170000       12.0110           0
     23059 WT10     799      MECN     H11      HGA3     0.090000        1.0080           0
     23060 WT10     799      MECN     H12      HGA3     0.090000        1.0080           0
     23061 WT10     799      MECN     H13      HGA3     0.090000        1.0080           0
     23062 WT10     799      MECN     C2       CG1N1    0.360000       12.0110           0
     23063 WT10     799      MECN     N3       NG1T1   -0.460000       14.0070           0
     23064 WT10     805      MECN     C1       CG331   -0.170000       12.0110           0
     23065 WT10     805      MECN     H11      HGA3     0.090000        1.0080           0
     23066 WT10     805      MECN     H12      HGA3     0.090000        1.0080           0
     23067 WT10     805      MECN     H13      HGA3     0.090000        1.0080           0
     23068 WT10     805      MECN     C2       CG1N1    0.360000       12.0110           0
     23069 WT10     805      MECN     N3       NG1T1   -0.460000       14.0070           0
     23070 WT10     807      MECN     C1       CG331   -0.170000       12.0110           0
     23071 WT10     807      MECN     H11      HGA3     0.090000        1.0080           0
     23072 WT10     807      MECN     H12      HGA3     0.090000        1.0080           0
     23073 WT10     807      MECN     H13      HGA3     0.090000        1.0080           0
     23074 WT10     807      MECN     C2       CG1N1    0.360000       12.0110           0
     23075 WT10     807      MECN     N3       NG1T1   -0.460000       14.0070           0
     23076 WT10     817      MECN     C1       CG331   -0.170000       12.0110           0
     23077 WT10     817      MECN     H11      HGA3     0.090000        1.0080           0
     23078 WT10     817      MECN     H12      HGA3     0.090000        1.0080           0
     23079 WT10     817      MECN     H13      HGA3     0.090000        1.0080           0
     23080 WT10     817      MECN     C2       CG1N1    0.360000       12.0110           0
     23081 WT10     817      MECN     N3       NG1T1   -0.460000       14.0070           0
     23082 WT10     818      MECN     C1       CG331   -0.170000       12.0110           0
     23083 WT10     818      MECN     H11      HGA3     0.090000        1.0080           0
     23084 WT10     818      MECN     H12      HGA3     0.090000        1.0080           0
     23085 WT10     818      MECN     H13      HGA3     0.090000        1.0080           0
     23086 WT10     818      MECN     C2       CG1N1    0.360000       12.0110           0
     23087 WT10     818      MECN     N3       NG1T1   -0.460000       14.0070           0
     23088 WT10     821      MECN     C1       CG331   -0.170000       12.0110           0
     23089 WT10     821      MECN     H11      HGA3     0.090000        1.0080           0
     23090 WT10     821      MECN     H12      HGA3     0.090000        1.0080           0
     23091 WT10     821      MECN     H13      HGA3     0.090000        1.0080           0
     23092 WT10     821      MECN     C2       CG1N1    0.360000       12.0110           0
     23093 WT10     821      MECN     N3       NG1T1   -0.460000       14.0070           0
     23094 WT10     822      MECN     C1       CG331   -0.170000       12.0110           0
     23095 WT10     822      MECN     H11      HGA3     0.090000        1.0080           0
     23096 WT10     822      MECN     H12      HGA3     0.090000        1.0080           0
     23097 WT10     822      MECN     H13      HGA3     0.090000        1.0080           0
     23098 WT10     822      MECN     C2       CG1N1    0.360000       12.0110           0
     23099 WT10     822      MECN     N3       NG1T1   -0.460000       14.0070           0
     23100 WT10     833      MECN     C1       CG331   -0.170000       12.0110           0
     23101 WT10     833      MECN     H11      HGA3     0.090000        1.0080           0
     23102 WT10     833      MECN     H12      HGA3     0.090000        1.0080           0
     23103 WT10     833      MECN     H13      HGA3     0.090000        1.0080           0
     23104 WT10     833      MECN     C2       CG1N1    0.360000       12.0110           0
     23105 WT10     833      MECN     N3       NG1T1   -0.460000       14.0070           0
     23106 WT10     834      MECN     C1       CG331   -0.170000       12.0110           0
     23107 WT10     834      MECN     H11      HGA3     0.090000        1.0080           0
     23108 WT10     834      MECN     H12      HGA3     0.090000        1.0080           0
     23109 WT10     834      MECN     H13      HGA3     0.090000        1.0080           0
     23110 WT10     834      MECN     C2       CG1N1    0.360000       12.0110           0
     23111 WT10     834      MECN     N3       NG1T1   -0.460000       14.0070           0
     23112 WT10     839      MECN     C1       CG331   -0.170000       12.0110           0
     23113 WT10     839      MECN     H11      HGA3     0.090000        1.0080           0
     23114 WT10     839      MECN     H12      HGA3     0.090000        1.0080           0
     23115 WT10     839      MECN     H13      HGA3     0.090000        1.0080           0
     23116 WT10     839      MECN     C2       CG1N1    0.360000       12.0110           0
     23117 WT10     839      MECN     N3       NG1T1   -0.460000       14.0070           0
     23118 WT10     849      MECN     C1       CG331   -0.170000       12.0110           0
     23119 WT10     849      MECN     H11      HGA3     0.090000        1.0080           0
     23120 WT10     849      MECN     H12      HGA3     0.090000        1.0080           0
     23121 WT10     849      MECN     H13      HGA3     0.090000        1.0080           0
     23122 WT10     849      MECN     C2       CG1N1    0.360000       12.0110           0
     23123 WT10     849      MECN     N3       NG1T1   -0.460000       14.0070           0
     23124 WT10     859      MECN     C1       CG331   -0.170000       12.0110           0
     23125 WT10     859      MECN     H11      HGA3     0.090000        1.0080           0
     23126 WT10     859      MECN     H12      HGA3     0.090000        1.0080           0
     23127 WT10     859      MECN     H13      HGA3     0.090000        1.0080           0
     23128 WT10     859      MECN     C2       CG1N1    0.360000       12.0110           0
     23129 WT10     859      MECN     N3       NG1T1   -0.460000       14.0070           0
     23130 WT10     860      MECN     C1       CG331   -0.170000       12.0110           0
     23131 WT10     860      MECN     H11      HGA3     0.090000        1.0080           0
     23132 WT10     860      MECN     H12      HGA3     0.090000        1.0080           0
     23133 WT10     860      MECN     H13      HGA3     0.090000        1.0080           0
     23134 WT10     860      MECN     C2       CG1N1    0.360000       12.0110           0
     23135 WT10     860      MECN     N3       NG1T1   -0.460000       14.0070           0
     23136 WT10     862      MECN     C1       CG331   -0.170000       12.0110           0
     23137 WT10     862      MECN     H11      HGA3     0.090000        1.0080           0
     23138 WT10     862      MECN     H12      HGA3     0.090000        1.0080           0
     23139 WT10     862      MECN     H13      HGA3     0.090000        1.0080           0
     23140 WT10     862      MECN     C2       CG1N1    0.360000       12.0110           0
     23141 WT10     862      MECN     N3       NG1T1   -0.460000       14.0070           0
     23142 WT10     864      MECN     C1       CG331   -0.170000       12.0110           0
     23143 WT10     864      MECN     H11      HGA3     0.090000        1.0080           0
     23144 WT10     864      MECN     H12      HGA3     0.090000        1.0080           0
     23145 WT10     864      MECN     H13      HGA3     0.090000        1.0080           0
     23146 WT10     864      MECN     C2       CG1N1    0.360000       12.0110           0
     23147 WT10     864      MECN     N3       NG1T1   -0.460000       14.0070           0
     23148 WT10     866      MECN     C1       CG331   -0.170000       12.0110           0
     23149 WT10     866      MECN     H11      HGA3     0.090000        1.0080           0
     23150 WT10     866      MECN     H12      HGA3     0.090000        1.0080           0
     23151 WT10     866      MECN     H13      HGA3     0.090000        1.0080           0
     23152 WT10     866      MECN     C2       CG1N1    0.360000       12.0110           0
     23153 WT10     866      MECN     N3       NG1T1   -0.460000       14.0070           0
     23154 WT10     867      MECN     C1       CG331   -0.170000       12.0110           0
     23155 WT10     867      MECN     H11      HGA3     0.090000        1.0080           0
     23156 WT10     867      MECN     H12      HGA3     0.090000        1.0080           0
     23157 WT10     867      MECN     H13      HGA3     0.090000        1.0080           0
     23158 WT10     867      MECN     C2       CG1N1    0.360000       12.0110           0
     23159 WT10     867      MECN     N3       NG1T1   -0.460000       14.0070           0
     23160 WT10     873      MECN     C1       CG331   -0.170000       12.0110           0
     23161 WT10     873      MECN     H11      HGA3     0.090000        1.0080           0
     23162 WT10     873      MECN     H12      HGA3     0.090000        1.0080           0
     23163 WT10     873      MECN     H13      HGA3     0.090000        1.0080           0
     23164 WT10     873      MECN     C2       CG1N1    0.360000       12.0110           0
     23165 WT10     873      MECN     N3       NG1T1   -0.460000       14.0070           0
     23166 WT10     875      MECN     C1       CG331   -0.170000       12.0110           0
     23167 WT10     875      MECN     H11      HGA3     0.090000        1.0080           0
     23168 WT10     875      MECN     H12      HGA3     0.090000        1.0080           0
     23169 WT10     875      MECN     H13      HGA3     0.090000        1.0080           0
     23170 WT10     875      MECN     C2       CG1N1    0.360000       12.0110           0
     23171 WT10     875      MECN     N3       NG1T1   -0.460000       14.0070           0
     23172 WT10     882      MECN     C1       CG331   -0.170000       12.0110           0
     23173 WT10     882      MECN     H11      HGA3     0.090000        1.0080           0
     23174 WT10     882      MECN     H12      HGA3     0.090000        1.0080           0
     23175 WT10     882      MECN     H13      HGA3     0.090000        1.0080           0
     23176 WT10     882      MECN     C2       CG1N1    0.360000       12.0110           0
     23177 WT10     882      MECN     N3       NG1T1   -0.460000       14.0070           0
     23178 WT10     890      MECN     C1       CG331   -0.170000       12.0110           0
     23179 WT10     890      MECN     H11      HGA3     0.090000        1.0080           0
     23180 WT10     890      MECN     H12      HGA3     0.090000        1.0080           0
     23181 WT10     890      MECN     H13      HGA3     0.090000        1.0080           0
     23182 WT10     890      MECN     C2       CG1N1    0.360000       12.0110           0
     23183 WT10     890      MECN     N3       NG1T1   -0.460000       14.0070           0
     23184 WT10     891      MECN     C1       CG331   -0.170000       12.0110           0
     23185 WT10     891      MECN     H11      HGA3     0.090000        1.0080           0
     23186 WT10     891      MECN     H12      HGA3     0.090000        1.0080           0
     23187 WT10     891      MECN     H13      HGA3     0.090000        1.0080           0
     23188 WT10     891      MECN     C2       CG1N1    0.360000       12.0110           0
     23189 WT10     891      MECN     N3       NG1T1   -0.460000       14.0070           0
     23190 WT10     897      MECN     C1       CG331   -0.170000       12.0110           0
     23191 WT10     897      MECN     H11      HGA3     0.090000        1.0080           0
     23192 WT10     897      MECN     H12      HGA3     0.090000        1.0080           0
     23193 WT10     897      MECN     H13      HGA3     0.090000        1.0080           0
     23194 WT10     897      MECN     C2       CG1N1    0.360000       12.0110           0
     23195 WT10     897      MECN     N3       NG1T1   -0.460000       14.0070           0
     23196 WT10     899      MECN     C1       CG331   -0.170000       12.0110           0
     23197 WT10     899      MECN     H11      HGA3     0.090000        1.0080           0
     23198 WT10     899      MECN     H12      HGA3     0.090000        1.0080           0
     23199 WT10     899      MECN     H13      HGA3     0.090000        1.0080           0
     23200 WT10     899      MECN     C2       CG1N1    0.360000       12.0110           0
     23201 WT10     899      MECN     N3       NG1T1   -0.460000       14.0070           0
     23202 WT10     902      MECN     C1       CG331   -0.170000       12.0110           0
     23203 WT10     902      MECN     H11      HGA3     0.090000        1.0080           0
     23204 WT10     902      MECN     H12      HGA3     0.090000        1.0080           0
     23205 WT10     902      MECN     H13      HGA3     0.090000        1.0080           0
     23206 WT10     902      MECN     C2       CG1N1    0.360000       12.0110           0
     23207 WT10     902      MECN     N3       NG1T1   -0.460000       14.0070           0
     23208 WT10     904      MECN     C1       CG331   -0.170000       12.0110           0
     23209 WT10     904      MECN     H11      HGA3     0.090000        1.0080           0
     23210 WT10     904      MECN     H12      HGA3     0.090000        1.0080           0
     23211 WT10     904      MECN     H13      HGA3     0.090000        1.0080           0
     23212 WT10     904      MECN     C2       CG1N1    0.360000       12.0110           0
     23213 WT10     904      MECN     N3       NG1T1   -0.460000       14.0070           0
     23214 WT10     914      MECN     C1       CG331   -0.170000       12.0110           0
     23215 WT10     914      MECN     H11      HGA3     0.090000        1.0080           0
     23216 WT10     914      MECN     H12      HGA3     0.090000        1.0080           0
     23217 WT10     914      MECN     H13      HGA3     0.090000        1.0080           0
     23218 WT10     914      MECN     C2       CG1N1    0.360000       12.0110           0
     23219 WT10     914      MECN     N3       NG1T1   -0.460000       14.0070           0
     23220 WT10     915      MECN     C1       CG331   -0.170000       12.0110           0
     23221 WT10     915      MECN     H11      HGA3     0.090000        1.0080           0
     23222 WT10     915      MECN     H12      HGA3     0.090000        1.0080           0
     23223 WT10     915      MECN     H13      HGA3     0.090000        1.0080           0
     23224 WT10     915      MECN     C2       CG1N1    0.360000       12.0110           0
     23225 WT10     915      MECN     N3       NG1T1   -0.460000       14.0070           0
     23226 WT10     916      MECN     C1       CG331   -0.170000       12.0110           0
     23227 WT10     916      MECN     H11      HGA3     0.090000        1.0080           0
     23228 WT10     916      MECN     H12      HGA3     0.090000        1.0080           0
     23229 WT10     916      MECN     H13      HGA3     0.090000        1.0080           0
     23230 WT10     916      MECN     C2       CG1N1    0.360000       12.0110           0
     23231 WT10     916      MECN     N3       NG1T1   -0.460000       14.0070           0
     23232 WT10     918      MECN     C1       CG331   -0.170000       12.0110           0
     23233 WT10     918      MECN     H11      HGA3     0.090000        1.0080           0
     23234 WT10     918      MECN     H12      HGA3     0.090000        1.0080           0
     23235 WT10     918      MECN     H13      HGA3     0.090000        1.0080           0
     23236 WT10     918      MECN     C2       CG1N1    0.360000       12.0110           0
     23237 WT10     918      MECN     N3       NG1T1   -0.460000       14.0070           0
     23238 WT10     920      MECN     C1       CG331   -0.170000       12.0110           0
     23239 WT10     920      MECN     H11      HGA3     0.090000        1.0080           0
     23240 WT10     920      MECN     H12      HGA3     0.090000        1.0080           0
     23241 WT10     920      MECN     H13      HGA3     0.090000        1.0080           0
     23242 WT10     920      MECN     C2       CG1N1    0.360000       12.0110           0
     23243 WT10     920      MECN     N3       NG1T1   -0.460000       14.0070           0
     23244 WT10     922      MECN     C1       CG331   -0.170000       12.0110           0
     23245 WT10     922      MECN     H11      HGA3     0.090000        1.0080           0
     23246 WT10     922      MECN     H12      HGA3     0.090000        1.0080           0
     23247 WT10     922      MECN     H13      HGA3     0.090000        1.0080           0
     23248 WT10     922      MECN     C2       CG1N1    0.360000       12.0110           0
     23249 WT10     922      MECN     N3       NG1T1   -0.460000       14.0070           0
     23250 WT10     924      MECN     C1       CG331   -0.170000       12.0110           0
     23251 WT10     924      MECN     H11      HGA3     0.090000        1.0080           0
     23252 WT10     924      MECN     H12      HGA3     0.090000        1.0080           0
     23253 WT10     924      MECN     H13      HGA3     0.090000        1.0080           0
     23254 WT10     924      MECN     C2       CG1N1    0.360000       12.0110           0
     23255 WT10     924      MECN     N3       NG1T1   -0.460000       14.0070           0
     23256 WT10     926      MECN     C1       CG331   -0.170000       12.0110           0
     23257 WT10     926      MECN     H11      HGA3     0.090000        1.0080           0
     23258 WT10     926      MECN     H12      HGA3     0.090000        1.0080           0
     23259 WT10     926      MECN     H13      HGA3     0.090000        1.0080           0
     23260 WT10     926      MECN     C2       CG1N1    0.360000       12.0110           0
     23261 WT10     926      MECN     N3       NG1T1   -0.460000       14.0070           0
     23262 WT10     933      MECN     C1       CG331   -0.170000       12.0110           0
     23263 WT10     933      MECN     H11      HGA3     0.090000        1.0080           0
     23264 WT10     933      MECN     H12      HGA3     0.090000        1.0080           0
     23265 WT10     933      MECN     H13      HGA3     0.090000        1.0080           0
     23266 WT10     933      MECN     C2       CG1N1    0.360000       12.0110           0
     23267 WT10     933      MECN     N3       NG1T1   -0.460000       14.0070           0
     23268 WT10     934      MECN     C1       CG331   -0.170000       12.0110           0
     23269 WT10     934      MECN     H11      HGA3     0.090000        1.0080           0
     23270 WT10     934      MECN     H12      HGA3     0.090000        1.0080           0
     23271 WT10     934      MECN     H13      HGA3     0.090000        1.0080           0
     23272 WT10     934      MECN     C2       CG1N1    0.360000       12.0110           0
     23273 WT10     934      MECN     N3       NG1T1   -0.460000       14.0070           0
     23274 WT10     935      MECN     C1       CG331   -0.170000       12.0110           0
     23275 WT10     935      MECN     H11      HGA3     0.090000        1.0080           0
     23276 WT10     935      MECN     H12      HGA3     0.090000        1.0080           0
     23277 WT10     935      MECN     H13      HGA3     0.090000        1.0080           0
     23278 WT10     935      MECN     C2       CG1N1    0.360000       12.0110           0
     23279 WT10     935      MECN     N3       NG1T1   -0.460000       14.0070           0
     23280 WT10     938      MECN     C1       CG331   -0.170000       12.0110           0
     23281 WT10     938      MECN     H11      HGA3     0.090000        1.0080           0
     23282 WT10     938      MECN     H12      HGA3     0.090000        1.0080           0
     23283 WT10     938      MECN     H13      HGA3     0.090000        1.0080           0
     23284 WT10     938      MECN     C2       CG1N1    0.360000       12.0110           0
     23285 WT10     938      MECN     N3       NG1T1   -0.460000       14.0070           0
     23286 WT10     939      MECN     C1       CG331   -0.170000       12.0110           0
     23287 WT10     939      MECN     H11      HGA3     0.090000        1.0080           0
     23288 WT10     939      MECN     H12      HGA3     0.090000        1.0080           0
     23289 WT10     939      MECN     H13      HGA3     0.090000        1.0080           0
     23290 WT10     939      MECN     C2       CG1N1    0.360000       12.0110           0
     23291 WT10     939      MECN     N3       NG1T1   -0.460000       14.0070           0
     23292 WT10     943      MECN     C1       CG331   -0.170000       12.0110           0
     23293 WT10     943      MECN     H11      HGA3     0.090000        1.0080           0
     23294 WT10     943      MECN     H12      HGA3     0.090000        1.0080           0
     23295 WT10     943      MECN     H13      HGA3     0.090000        1.0080           0
     23296 WT10     943      MECN     C2       CG1N1    0.360000       12.0110           0
     23297 WT10     943      MECN     N3       NG1T1   -0.460000       14.0070           0
     23298 WT10     977      MECN     C1       CG331   -0.170000       12.0110           0
     23299 WT10     977      MECN     H11      HGA3     0.090000        1.0080           0
     23300 WT10     977      MECN     H12      HGA3     0.090000        1.0080           0
     23301 WT10     977      MECN     H13      HGA3     0.090000        1.0080           0
     23302 WT10     977      MECN     C2       CG1N1    0.360000       12.0110           0
     23303 WT10     977      MECN     N3       NG1T1   -0.460000       14.0070           0
     23304 WT10     983      MECN     C1       CG331   -0.170000       12.0110           0
     23305 WT10     983      MECN     H11      HGA3     0.090000        1.0080           0
     23306 WT10     983      MECN     H12      HGA3     0.090000        1.0080           0
     23307 WT10     983      MECN     H13      HGA3     0.090000        1.0080           0
     23308 WT10     983      MECN     C2       CG1N1    0.360000       12.0110           0
     23309 WT10     983      MECN     N3       NG1T1   -0.460000       14.0070           0
     23310 WT10     985      MECN     C1       CG331   -0.170000       12.0110           0
     23311 WT10     985      MECN     H11      HGA3     0.090000        1.0080           0
     23312 WT10     985      MECN     H12      HGA3     0.090000        1.0080           0
     23313 WT10     985      MECN     H13      HGA3     0.090000        1.0080           0
     23314 WT10     985      MECN     C2       CG1N1    0.360000       12.0110           0
     23315 WT10     985      MECN     N3       NG1T1   -0.460000       14.0070           0
     23316 WT10     986      MECN     C1       CG331   -0.170000       12.0110           0
     23317 WT10     986      MECN     H11      HGA3     0.090000        1.0080           0
     23318 WT10     986      MECN     H12      HGA3     0.090000        1.0080           0
     23319 WT10     986      MECN     H13      HGA3     0.090000        1.0080           0
     23320 WT10     986      MECN     C2       CG1N1    0.360000       12.0110           0
     23321 WT10     986      MECN     N3       NG1T1   -0.460000       14.0070           0
     23322 WT10     988      MECN     C1       CG331   -0.170000       12.0110           0
     23323 WT10     988      MECN     H11      HGA3     0.090000        1.0080           0
     23324 WT10     988      MECN     H12      HGA3     0.090000        1.0080           0
     23325 WT10     988      MECN     H13      HGA3     0.090000        1.0080           0
     23326 WT10     988      MECN     C2       CG1N1    0.360000       12.0110           0
     23327 WT10     988      MECN     N3       NG1T1   -0.460000       14.0070           0
     23328 WT10     992      MECN     C1       CG331   -0.170000       12.0110           0
     23329 WT10     992      MECN     H11      HGA3     0.090000        1.0080           0
     23330 WT10     992      MECN     H12      HGA3     0.090000        1.0080           0
     23331 WT10     992      MECN     H13      HGA3     0.090000        1.0080           0
     23332 WT10     992      MECN     C2       CG1N1    0.360000       12.0110           0
     23333 WT10     992      MECN     N3       NG1T1   -0.460000       14.0070           0
     23334 WT10     999      MECN     C1       CG331   -0.170000       12.0110           0
     23335 WT10     999      MECN     H11      HGA3     0.090000        1.0080           0
     23336 WT10     999      MECN     H12      HGA3     0.090000        1.0080           0
     23337 WT10     999      MECN     H13      HGA3     0.090000        1.0080           0
     23338 WT10     999      MECN     C2       CG1N1    0.360000       12.0110           0
     23339 WT10     999      MECN     N3       NG1T1   -0.460000       14.0070           0
     23340 WT10     1006     MECN     C1       CG331   -0.170000       12.0110           0
     23341 WT10     1006     MECN     H11      HGA3     0.090000        1.0080           0
     23342 WT10     1006     MECN     H12      HGA3     0.090000        1.0080           0
     23343 WT10     1006     MECN     H13      HGA3     0.090000        1.0080           0
     23344 WT10     1006     MECN     C2       CG1N1    0.360000       12.0110           0
     23345 WT10     1006     MECN     N3       NG1T1   -0.460000       14.0070           0
     23346 WT10     1020     MECN     C1       CG331   -0.170000       12.0110           0
     23347 WT10     1020     MECN     H11      HGA3     0.090000        1.0080           0
     23348 WT10     1020     MECN     H12      HGA3     0.090000        1.0080           0
     23349 WT10     1020     MECN     H13      HGA3     0.090000        1.0080           0
     23350 WT10     1020     MECN     C2       CG1N1    0.360000       12.0110           0
     23351 WT10     1020     MECN     N3       NG1T1   -0.460000       14.0070           0
     23352 WT10     1021     MECN     C1       CG331   -0.170000       12.0110           0
     23353 WT10     1021     MECN     H11      HGA3     0.090000        1.0080           0
     23354 WT10     1021     MECN     H12      HGA3     0.090000        1.0080           0
     23355 WT10     1021     MECN     H13      HGA3     0.090000        1.0080           0
     23356 WT10     1021     MECN     C2       CG1N1    0.360000       12.0110           0
     23357 WT10     1021     MECN     N3       NG1T1   -0.460000       14.0070           0
     23358 WT10     1029     MECN     C1       CG331   -0.170000       12.0110           0
     23359 WT10     1029     MECN     H11      HGA3     0.090000        1.0080           0
     23360 WT10     1029     MECN     H12      HGA3     0.090000        1.0080           0
     23361 WT10     1029     MECN     H13      HGA3     0.090000        1.0080           0
     23362 WT10     1029     MECN     C2       CG1N1    0.360000       12.0110           0
     23363 WT10     1029     MECN     N3       NG1T1   -0.460000       14.0070           0
     23364 WT10     1030     MECN     C1       CG331   -0.170000       12.0110           0
     23365 WT10     1030     MECN     H11      HGA3     0.090000        1.0080           0
     23366 WT10     1030     MECN     H12      HGA3     0.090000        1.0080           0
     23367 WT10     1030     MECN     H13      HGA3     0.090000        1.0080           0
     23368 WT10     1030     MECN     C2       CG1N1    0.360000       12.0110           0
     23369 WT10     1030     MECN     N3       NG1T1   -0.460000       14.0070           0
     23370 WT10     1040     MECN     C1       CG331   -0.170000       12.0110           0
     23371 WT10     1040     MECN     H11      HGA3     0.090000        1.0080           0
     23372 WT10     1040     MECN     H12      HGA3     0.090000        1.0080           0
     23373 WT10     1040     MECN     H13      HGA3     0.090000        1.0080           0
     23374 WT10     1040     MECN     C2       CG1N1    0.360000       12.0110           0
     23375 WT10     1040     MECN     N3       NG1T1   -0.460000       14.0070           0
     23376 WT10     1043     MECN     C1       CG331   -0.170000       12.0110           0
     23377 WT10     1043     MECN     H11      HGA3     0.090000        1.0080           0
     23378 WT10     1043     MECN     H12      HGA3     0.090000        1.0080           0
     23379 WT10     1043     MECN     H13      HGA3     0.090000        1.0080           0
     23380 WT10     1043     MECN     C2       CG1N1    0.360000       12.0110           0
     23381 WT10     1043     MECN     N3       NG1T1   -0.460000       14.0070           0
     23382 WT10     1050     MECN     C1       CG331   -0.170000       12.0110           0
     23383 WT10     1050     MECN     H11      HGA3     0.090000        1.0080           0
     23384 WT10     1050     MECN     H12      HGA3     0.090000        1.0080           0
     23385 WT10     1050     MECN     H13      HGA3     0.090000        1.0080           0
     23386 WT10     1050     MECN     C2       CG1N1    0.360000       12.0110           0
     23387 WT10     1050     MECN     N3       NG1T1   -0.460000       14.0070           0
     23388 WT10     1052     MECN     C1       CG331   -0.170000       12.0110           0
     23389 WT10     1052     MECN     H11      HGA3     0.090000        1.0080           0
     23390 WT10     1052     MECN     H12      HGA3     0.090000        1.0080           0
     23391 WT10     1052     MECN     H13      HGA3     0.090000        1.0080           0
     23392 WT10     1052     MECN     C2       CG1N1    0.360000       12.0110           0
     23393 WT10     1052     MECN     N3       NG1T1   -0.460000       14.0070           0
     23394 WT10     1054     MECN     C1       CG331   -0.170000       12.0110           0
     23395 WT10     1054     MECN     H11      HGA3     0.090000        1.0080           0
     23396 WT10     1054     MECN     H12      HGA3     0.090000        1.0080           0
     23397 WT10     1054     MECN     H13      HGA3     0.090000        1.0080           0
     23398 WT10     1054     MECN     C2       CG1N1    0.360000       12.0110           0
     23399 WT10     1054     MECN     N3       NG1T1   -0.460000       14.0070           0
     23400 WT10     1059     MECN     C1       CG331   -0.170000       12.0110           0
     23401 WT10     1059     MECN     H11      HGA3     0.090000        1.0080           0
     23402 WT10     1059     MECN     H12      HGA3     0.090000        1.0080           0
     23403 WT10     1059     MECN     H13      HGA3     0.090000        1.0080           0
     23404 WT10     1059     MECN     C2       CG1N1    0.360000       12.0110           0
     23405 WT10     1059     MECN     N3       NG1T1   -0.460000       14.0070           0
     23406 WT10     1061     MECN     C1       CG331   -0.170000       12.0110           0
     23407 WT10     1061     MECN     H11      HGA3     0.090000        1.0080           0
     23408 WT10     1061     MECN     H12      HGA3     0.090000        1.0080           0
     23409 WT10     1061     MECN     H13      HGA3     0.090000        1.0080           0
     23410 WT10     1061     MECN     C2       CG1N1    0.360000       12.0110           0
     23411 WT10     1061     MECN     N3       NG1T1   -0.460000       14.0070           0
     23412 WT10     1075     MECN     C1       CG331   -0.170000       12.0110           0
     23413 WT10     1075     MECN     H11      HGA3     0.090000        1.0080           0
     23414 WT10     1075     MECN     H12      HGA3     0.090000        1.0080           0
     23415 WT10     1075     MECN     H13      HGA3     0.090000        1.0080           0
     23416 WT10     1075     MECN     C2       CG1N1    0.360000       12.0110           0
     23417 WT10     1075     MECN     N3       NG1T1   -0.460000       14.0070           0
     23418 WT10     1087     MECN     C1       CG331   -0.170000       12.0110           0
     23419 WT10     1087     MECN     H11      HGA3     0.090000        1.0080           0
     23420 WT10     1087     MECN     H12      HGA3     0.090000        1.0080           0
     23421 WT10     1087     MECN     H13      HGA3     0.090000        1.0080           0
     23422 WT10     1087     MECN     C2       CG1N1    0.360000       12.0110           0
     23423 WT10     1087     MECN     N3       NG1T1   -0.460000       14.0070           0
     23424 WT10     1098     MECN     C1       CG331   -0.170000       12.0110           0
     23425 WT10     1098     MECN     H11      HGA3     0.090000        1.0080           0
     23426 WT10     1098     MECN     H12      HGA3     0.090000        1.0080           0
     23427 WT10     1098     MECN     H13      HGA3     0.090000        1.0080           0
     23428 WT10     1098     MECN     C2       CG1N1    0.360000       12.0110           0
     23429 WT10     1098     MECN     N3       NG1T1   -0.460000       14.0070           0
     23430 WT10     1099     MECN     C1       CG331   -0.170000       12.0110           0
     23431 WT10     1099     MECN     H11      HGA3     0.090000        1.0080           0
     23432 WT10     1099     MECN     H12      HGA3     0.090000        1.0080           0
     23433 WT10     1099     MECN     H13      HGA3     0.090000        1.0080           0
     23434 WT10     1099     MECN     C2       CG1N1    0.360000       12.0110           0
     23435 WT10     1099     MECN     N3       NG1T1   -0.460000       14.0070           0
     23436 WT10     1113     MECN     C1       CG331   -0.170000       12.0110           0
     23437 WT10     1113     MECN     H11      HGA3     0.090000        1.0080           0
     23438 WT10     1113     MECN     H12      HGA3     0.090000        1.0080           0
     23439 WT10     1113     MECN     H13      HGA3     0.090000        1.0080           0
     23440 WT10     1113     MECN     C2       CG1N1    0.360000       12.0110           0
     23441 WT10     1113     MECN     N3       NG1T1   -0.460000       14.0070           0
     23442 WT10     1115     MECN     C1       CG331   -0.170000       12.0110           0
     23443 WT10     1115     MECN     H11      HGA3     0.090000        1.0080           0
     23444 WT10     1115     MECN     H12      HGA3     0.090000        1.0080           0
     23445 WT10     1115     MECN     H13      HGA3     0.090000        1.0080           0
     23446 WT10     1115     MECN     C2       CG1N1    0.360000       12.0110           0
     23447 WT10     1115     MECN     N3       NG1T1   -0.460000       14.0070           0
     23448 WT10     1121     MECN     C1       CG331   -0.170000       12.0110           0
     23449 WT10     1121     MECN     H11      HGA3     0.090000        1.0080           0
     23450 WT10     1121     MECN     H12      HGA3     0.090000        1.0080           0
     23451 WT10     1121     MECN     H13      HGA3     0.090000        1.0080           0
     23452 WT10     1121     MECN     C2       CG1N1    0.360000       12.0110           0
     23453 WT10     1121     MECN     N3       NG1T1   -0.460000       14.0070           0
     23454 WT10     1130     MECN     C1       CG331   -0.170000       12.0110           0
     23455 WT10     1130     MECN     H11      HGA3     0.090000        1.0080           0
     23456 WT10     1130     MECN     H12      HGA3     0.090000        1.0080           0
     23457 WT10     1130     MECN     H13      HGA3     0.090000        1.0080           0
     23458 WT10     1130     MECN     C2       CG1N1    0.360000       12.0110           0
     23459 WT10     1130     MECN     N3       NG1T1   -0.460000       14.0070           0
     23460 WT10     1134     MECN     C1       CG331   -0.170000       12.0110           0
     23461 WT10     1134     MECN     H11      HGA3     0.090000        1.0080           0
     23462 WT10     1134     MECN     H12      HGA3     0.090000        1.0080           0
     23463 WT10     1134     MECN     H13      HGA3     0.090000        1.0080           0
     23464 WT10     1134     MECN     C2       CG1N1    0.360000       12.0110           0
     23465 WT10     1134     MECN     N3       NG1T1   -0.460000       14.0070           0
     23466 WT10     1136     MECN     C1       CG331   -0.170000       12.0110           0
     23467 WT10     1136     MECN     H11      HGA3     0.090000        1.0080           0
     23468 WT10     1136     MECN     H12      HGA3     0.090000        1.0080           0
     23469 WT10     1136     MECN     H13      HGA3     0.090000        1.0080           0
     23470 WT10     1136     MECN     C2       CG1N1    0.360000       12.0110           0
     23471 WT10     1136     MECN     N3       NG1T1   -0.460000       14.0070           0
     23472 WT10     1143     MECN     C1       CG331   -0.170000       12.0110           0
     23473 WT10     1143     MECN     H11      HGA3     0.090000        1.0080           0
     23474 WT10     1143     MECN     H12      HGA3     0.090000        1.0080           0
     23475 WT10     1143     MECN     H13      HGA3     0.090000        1.0080           0
     23476 WT10     1143     MECN     C2       CG1N1    0.360000       12.0110           0
     23477 WT10     1143     MECN     N3       NG1T1   -0.460000       14.0070           0
     23478 WT10     1166     MECN     C1       CG331   -0.170000       12.0110           0
     23479 WT10     1166     MECN     H11      HGA3     0.090000        1.0080           0
     23480 WT10     1166     MECN     H12      HGA3     0.090000        1.0080           0
     23481 WT10     1166     MECN     H13      HGA3     0.090000        1.0080           0
     23482 WT10     1166     MECN     C2       CG1N1    0.360000       12.0110           0
     23483 WT10     1166     MECN     N3       NG1T1   -0.460000       14.0070           0
     23484 WT10     1174     MECN     C1       CG331   -0.170000       12.0110           0
     23485 WT10     1174     MECN     H11      HGA3     0.090000        1.0080           0
     23486 WT10     1174     MECN     H12      HGA3     0.090000        1.0080           0
     23487 WT10     1174     MECN     H13      HGA3     0.090000        1.0080           0
     23488 WT10     1174     MECN     C2       CG1N1    0.360000       12.0110           0
     23489 WT10     1174     MECN     N3       NG1T1   -0.460000       14.0070           0
     23490 WT10     1178     MECN     C1       CG331   -0.170000       12.0110           0
     23491 WT10     1178     MECN     H11      HGA3     0.090000        1.0080           0
     23492 WT10     1178     MECN     H12      HGA3     0.090000        1.0080           0
     23493 WT10     1178     MECN     H13      HGA3     0.090000        1.0080           0
     23494 WT10     1178     MECN     C2       CG1N1    0.360000       12.0110           0
     23495 WT10     1178     MECN     N3       NG1T1   -0.460000       14.0070           0
     23496 WT10     1181     MECN     C1       CG331   -0.170000       12.0110           0
     23497 WT10     1181     MECN     H11      HGA3     0.090000        1.0080           0
     23498 WT10     1181     MECN     H12      HGA3     0.090000        1.0080           0
     23499 WT10     1181     MECN     H13      HGA3     0.090000        1.0080           0
     23500 WT10     1181     MECN     C2       CG1N1    0.360000       12.0110           0
     23501 WT10     1181     MECN     N3       NG1T1   -0.460000       14.0070           0
     23502 WT10     1191     MECN     C1       CG331   -0.170000       12.0110           0
     23503 WT10     1191     MECN     H11      HGA3     0.090000        1.0080           0
     23504 WT10     1191     MECN     H12      HGA3     0.090000        1.0080           0
     23505 WT10     1191     MECN     H13      HGA3     0.090000        1.0080           0
     23506 WT10     1191     MECN     C2       CG1N1    0.360000       12.0110           0
     23507 WT10     1191     MECN     N3       NG1T1   -0.460000       14.0070           0
     23508 WT10     1195     MECN     C1       CG331   -0.170000       12.0110           0
     23509 WT10     1195     MECN     H11      HGA3     0.090000        1.0080           0
     23510 WT10     1195     MECN     H12      HGA3     0.090000        1.0080           0
     23511 WT10     1195     MECN     H13      HGA3     0.090000        1.0080           0
     23512 WT10     1195     MECN     C2       CG1N1    0.360000       12.0110           0
     23513 WT10     1195     MECN     N3       NG1T1   -0.460000       14.0070           0
     23514 WT10     1199     MECN     C1       CG331   -0.170000       12.0110           0
     23515 WT10     1199     MECN     H11      HGA3     0.090000        1.0080           0
     23516 WT10     1199     MECN     H12      HGA3     0.090000        1.0080           0
     23517 WT10     1199     MECN     H13      HGA3     0.090000        1.0080           0
     23518 WT10     1199     MECN     C2       CG1N1    0.360000       12.0110           0
     23519 WT10     1199     MECN     N3       NG1T1   -0.460000       14.0070           0
     23520 WT10     1205     MECN     C1       CG331   -0.170000       12.0110           0
     23521 WT10     1205     MECN     H11      HGA3     0.090000        1.0080           0
     23522 WT10     1205     MECN     H12      HGA3     0.090000        1.0080           0
     23523 WT10     1205     MECN     H13      HGA3     0.090000        1.0080           0
     23524 WT10     1205     MECN     C2       CG1N1    0.360000       12.0110           0
     23525 WT10     1205     MECN     N3       NG1T1   -0.460000       14.0070           0
     23526 WT10     1207     MECN     C1       CG331   -0.170000       12.0110           0
     23527 WT10     1207     MECN     H11      HGA3     0.090000        1.0080           0
     23528 WT10     1207     MECN     H12      HGA3     0.090000        1.0080           0
     23529 WT10     1207     MECN     H13      HGA3     0.090000        1.0080           0
     23530 WT10     1207     MECN     C2       CG1N1    0.360000       12.0110           0
     23531 WT10     1207     MECN     N3       NG1T1   -0.460000       14.0070           0
     23532 WT10     1211     MECN     C1       CG331   -0.170000       12.0110           0
     23533 WT10     1211     MECN     H11      HGA3     0.090000        1.0080           0
     23534 WT10     1211     MECN     H12      HGA3     0.090000        1.0080           0
     23535 WT10     1211     MECN     H13      HGA3     0.090000        1.0080           0
     23536 WT10     1211     MECN     C2       CG1N1    0.360000       12.0110           0
     23537 WT10     1211     MECN     N3       NG1T1   -0.460000       14.0070           0
     23538 WT10     1215     MECN     C1       CG331   -0.170000       12.0110           0
     23539 WT10     1215     MECN     H11      HGA3     0.090000        1.0080           0
     23540 WT10     1215     MECN     H12      HGA3     0.090000        1.0080           0
     23541 WT10     1215     MECN     H13      HGA3     0.090000        1.0080           0
     23542 WT10     1215     MECN     C2       CG1N1    0.360000       12.0110           0
     23543 WT10     1215     MECN     N3       NG1T1   -0.460000       14.0070           0
     23544 WT10     1220     MECN     C1       CG331   -0.170000       12.0110           0
     23545 WT10     1220     MECN     H11      HGA3     0.090000        1.0080           0
     23546 WT10     1220     MECN     H12      HGA3     0.090000        1.0080           0
     23547 WT10     1220     MECN     H13      HGA3     0.090000        1.0080           0
     23548 WT10     1220     MECN     C2       CG1N1    0.360000       12.0110           0
     23549 WT10     1220     MECN     N3       NG1T1   -0.460000       14.0070           0
     23550 WT10     1223     MECN     C1       CG331   -0.170000       12.0110           0
     23551 WT10     1223     MECN     H11      HGA3     0.090000        1.0080           0
     23552 WT10     1223     MECN     H12      HGA3     0.090000        1.0080           0
     23553 WT10     1223     MECN     H13      HGA3     0.090000        1.0080           0
     23554 WT10     1223     MECN     C2       CG1N1    0.360000       12.0110           0
     23555 WT10     1223     MECN     N3       NG1T1   -0.460000       14.0070           0
     23556 WT10     1228     MECN     C1       CG331   -0.170000       12.0110           0
     23557 WT10     1228     MECN     H11      HGA3     0.090000        1.0080           0
     23558 WT10     1228     MECN     H12      HGA3     0.090000        1.0080           0
     23559 WT10     1228     MECN     H13      HGA3     0.090000        1.0080           0
     23560 WT10     1228     MECN     C2       CG1N1    0.360000       12.0110           0
     23561 WT10     1228     MECN     N3       NG1T1   -0.460000       14.0070           0
     23562 WT10     1236     MECN     C1       CG331   -0.170000       12.0110           0
     23563 WT10     1236     MECN     H11      HGA3     0.090000        1.0080           0
     23564 WT10     1236     MECN     H12      HGA3     0.090000        1.0080           0
     23565 WT10     1236     MECN     H13      HGA3     0.090000        1.0080           0
     23566 WT10     1236     MECN     C2       CG1N1    0.360000       12.0110           0
     23567 WT10     1236     MECN     N3       NG1T1   -0.460000       14.0070           0
     23568 WT10     1242     MECN     C1       CG331   -0.170000       12.0110           0
     23569 WT10     1242     MECN     H11      HGA3     0.090000        1.0080           0
     23570 WT10     1242     MECN     H12      HGA3     0.090000        1.0080           0
     23571 WT10     1242     MECN     H13      HGA3     0.090000        1.0080           0
     23572 WT10     1242     MECN     C2       CG1N1    0.360000       12.0110           0
     23573 WT10     1242     MECN     N3       NG1T1   -0.460000       14.0070           0
     23574 WT10     1245     MECN     C1       CG331   -0.170000       12.0110           0
     23575 WT10     1245     MECN     H11      HGA3     0.090000        1.0080           0
     23576 WT10     1245     MECN     H12      HGA3     0.090000        1.0080           0
     23577 WT10     1245     MECN     H13      HGA3     0.090000        1.0080           0
     23578 WT10     1245     MECN     C2       CG1N1    0.360000       12.0110           0
     23579 WT10     1245     MECN     N3       NG1T1   -0.460000       14.0070           0
     23580 WT10     1246     MECN     C1       CG331   -0.170000       12.0110           0
     23581 WT10     1246     MECN     H11      HGA3     0.090000        1.0080           0
     23582 WT10     1246     MECN     H12      HGA3     0.090000        1.0080           0
     23583 WT10     1246     MECN     H13      HGA3     0.090000        1.0080           0
     23584 WT10     1246     MECN     C2       CG1N1    0.360000       12.0110           0
     23585 WT10     1246     MECN     N3       NG1T1   -0.460000       14.0070           0
     23586 WT10     1249     MECN     C1       CG331   -0.170000       12.0110           0
     23587 WT10     1249     MECN     H11      HGA3     0.090000        1.0080           0
     23588 WT10     1249     MECN     H12      HGA3     0.090000        1.0080           0
     23589 WT10     1249     MECN     H13      HGA3     0.090000        1.0080           0
     23590 WT10     1249     MECN     C2       CG1N1    0.360000       12.0110           0
     23591 WT10     1249     MECN     N3       NG1T1   -0.460000       14.0070           0
     23592 WT10     1252     MECN     C1       CG331   -0.170000       12.0110           0
     23593 WT10     1252     MECN     H11      HGA3     0.090000        1.0080           0
     23594 WT10     1252     MECN     H12      HGA3     0.090000        1.0080           0
     23595 WT10     1252     MECN     H13      HGA3     0.090000        1.0080           0
     23596 WT10     1252     MECN     C2       CG1N1    0.360000       12.0110           0
     23597 WT10     1252     MECN     N3       NG1T1   -0.460000       14.0070           0
     23598 WT10     1256     MECN     C1       CG331   -0.170000       12.0110           0
     23599 WT10     1256     MECN     H11      HGA3     0.090000        1.0080           0
     23600 WT10     1256     MECN     H12      HGA3     0.090000        1.0080           0
     23601 WT10     1256     MECN     H13      HGA3     0.090000        1.0080           0
     23602 WT10     1256     MECN     C2       CG1N1    0.360000       12.0110           0
     23603 WT10     1256     MECN     N3       NG1T1   -0.460000       14.0070           0
     23604 WT10     1257     MECN     C1       CG331   -0.170000       12.0110           0
     23605 WT10     1257     MECN     H11      HGA3     0.090000        1.0080           0
     23606 WT10     1257     MECN     H12      HGA3     0.090000        1.0080           0
     23607 WT10     1257     MECN     H13      HGA3     0.090000        1.0080           0
     23608 WT10     1257     MECN     C2       CG1N1    0.360000       12.0110           0
     23609 WT10     1257     MECN     N3       NG1T1   -0.460000       14.0070           0
     23610 WT10     1267     MECN     C1       CG331   -0.170000       12.0110           0
     23611 WT10     1267     MECN     H11      HGA3     0.090000        1.0080           0
     23612 WT10     1267     MECN     H12      HGA3     0.090000        1.0080           0
     23613 WT10     1267     MECN     H13      HGA3     0.090000        1.0080           0
     23614 WT10     1267     MECN     C2       CG1N1    0.360000       12.0110           0
     23615 WT10     1267     MECN     N3       NG1T1   -0.460000       14.0070           0
     23616 WT10     1269     MECN     C1       CG331   -0.170000       12.0110           0
     23617 WT10     1269     MECN     H11      HGA3     0.090000        1.0080           0
     23618 WT10     1269     MECN     H12      HGA3     0.090000        1.0080           0
     23619 WT10     1269     MECN     H13      HGA3     0.090000        1.0080           0
     23620 WT10     1269     MECN     C2       CG1N1    0.360000       12.0110           0
     23621 WT10     1269     MECN     N3       NG1T1   -0.460000       14.0070           0
     23622 WT10     1270     MECN     C1       CG331   -0.170000       12.0110           0
     23623 WT10     1270     MECN     H11      HGA3     0.090000        1.0080           0
     23624 WT10     1270     MECN     H12      HGA3     0.090000        1.0080           0
     23625 WT10     1270     MECN     H13      HGA3     0.090000        1.0080           0
     23626 WT10     1270     MECN     C2       CG1N1    0.360000       12.0110           0
     23627 WT10     1270     MECN     N3       NG1T1   -0.460000       14.0070           0
     23628 WT10     1276     MECN     C1       CG331   -0.170000       12.0110           0
     23629 WT10     1276     MECN     H11      HGA3     0.090000        1.0080           0
     23630 WT10     1276     MECN     H12      HGA3     0.090000        1.0080           0
     23631 WT10     1276     MECN     H13      HGA3     0.090000        1.0080           0
     23632 WT10     1276     MECN     C2       CG1N1    0.360000       12.0110           0
     23633 WT10     1276     MECN     N3       NG1T1   -0.460000       14.0070           0
     23634 WT10     1281     MECN     C1       CG331   -0.170000       12.0110           0
     23635 WT10     1281     MECN     H11      HGA3     0.090000        1.0080           0
     23636 WT10     1281     MECN     H12      HGA3     0.090000        1.0080           0
     23637 WT10     1281     MECN     H13      HGA3     0.090000        1.0080           0
     23638 WT10     1281     MECN     C2       CG1N1    0.360000       12.0110           0
     23639 WT10     1281     MECN     N3       NG1T1   -0.460000       14.0070           0
     23640 WT10     1287     MECN     C1       CG331   -0.170000       12.0110           0
     23641 WT10     1287     MECN     H11      HGA3     0.090000        1.0080           0
     23642 WT10     1287     MECN     H12      HGA3     0.090000        1.0080           0
     23643 WT10     1287     MECN     H13      HGA3     0.090000        1.0080           0
     23644 WT10     1287     MECN     C2       CG1N1    0.360000       12.0110           0
     23645 WT10     1287     MECN     N3       NG1T1   -0.460000       14.0070           0
     23646 WT10     1288     MECN     C1       CG331   -0.170000       12.0110           0
     23647 WT10     1288     MECN     H11      HGA3     0.090000        1.0080           0
     23648 WT10     1288     MECN     H12      HGA3     0.090000        1.0080           0
     23649 WT10     1288     MECN     H13      HGA3     0.090000        1.0080           0
     23650 WT10     1288     MECN     C2       CG1N1    0.360000       12.0110           0
     23651 WT10     1288     MECN     N3       NG1T1   -0.460000       14.0070           0
     23652 WT10     1289     MECN     C1       CG331   -0.170000       12.0110           0
     23653 WT10     1289     MECN     H11      HGA3     0.090000        1.0080           0
     23654 WT10     1289     MECN     H12      HGA3     0.090000        1.0080           0
     23655 WT10     1289     MECN     H13      HGA3     0.090000        1.0080           0
     23656 WT10     1289     MECN     C2       CG1N1    0.360000       12.0110           0
     23657 WT10     1289     MECN     N3       NG1T1   -0.460000       14.0070           0
     23658 WT10     1291     MECN     C1       CG331   -0.170000       12.0110           0
     23659 WT10     1291     MECN     H11      HGA3     0.090000        1.0080           0
     23660 WT10     1291     MECN     H12      HGA3     0.090000        1.0080           0
     23661 WT10     1291     MECN     H13      HGA3     0.090000        1.0080           0
     23662 WT10     1291     MECN     C2       CG1N1    0.360000       12.0110           0
     23663 WT10     1291     MECN     N3       NG1T1   -0.460000       14.0070           0
     23664 WT10     1294     MECN     C1       CG331   -0.170000       12.0110           0
     23665 WT10     1294     MECN     H11      HGA3     0.090000        1.0080           0
     23666 WT10     1294     MECN     H12      HGA3     0.090000        1.0080           0
     23667 WT10     1294     MECN     H13      HGA3     0.090000        1.0080           0
     23668 WT10     1294     MECN     C2       CG1N1    0.360000       12.0110           0
     23669 WT10     1294     MECN     N3       NG1T1   -0.460000       14.0070           0
     23670 WT10     1295     MECN     C1       CG331   -0.170000       12.0110           0
     23671 WT10     1295     MECN     H11      HGA3     0.090000        1.0080           0
     23672 WT10     1295     MECN     H12      HGA3     0.090000        1.0080           0
     23673 WT10     1295     MECN     H13      HGA3     0.090000        1.0080           0
     23674 WT10     1295     MECN     C2       CG1N1    0.360000       12.0110           0
     23675 WT10     1295     MECN     N3       NG1T1   -0.460000       14.0070           0
     23676 WT10     1296     MECN     C1       CG331   -0.170000       12.0110           0
     23677 WT10     1296     MECN     H11      HGA3     0.090000        1.0080           0
     23678 WT10     1296     MECN     H12      HGA3     0.090000        1.0080           0
     23679 WT10     1296     MECN     H13      HGA3     0.090000        1.0080           0
     23680 WT10     1296     MECN     C2       CG1N1    0.360000       12.0110           0
     23681 WT10     1296     MECN     N3       NG1T1   -0.460000       14.0070           0
     23682 WT10     1304     MECN     C1       CG331   -0.170000       12.0110           0
     23683 WT10     1304     MECN     H11      HGA3     0.090000        1.0080           0
     23684 WT10     1304     MECN     H12      HGA3     0.090000        1.0080           0
     23685 WT10     1304     MECN     H13      HGA3     0.090000        1.0080           0
     23686 WT10     1304     MECN     C2       CG1N1    0.360000       12.0110           0
     23687 WT10     1304     MECN     N3       NG1T1   -0.460000       14.0070           0
     23688 WT10     1310     MECN     C1       CG331   -0.170000       12.0110           0
     23689 WT10     1310     MECN     H11      HGA3     0.090000        1.0080           0
     23690 WT10     1310     MECN     H12      HGA3     0.090000        1.0080           0
     23691 WT10     1310     MECN     H13      HGA3     0.090000        1.0080           0
     23692 WT10     1310     MECN     C2       CG1N1    0.360000       12.0110           0
     23693 WT10     1310     MECN     N3       NG1T1   -0.460000       14.0070           0
     23694 WT10     1321     MECN     C1       CG331   -0.170000       12.0110           0
     23695 WT10     1321     MECN     H11      HGA3     0.090000        1.0080           0
     23696 WT10     1321     MECN     H12      HGA3     0.090000        1.0080           0
     23697 WT10     1321     MECN     H13      HGA3     0.090000        1.0080           0
     23698 WT10     1321     MECN     C2       CG1N1    0.360000       12.0110           0
     23699 WT10     1321     MECN     N3       NG1T1   -0.460000       14.0070           0
     23700 WT10     1322     MECN     C1       CG331   -0.170000       12.0110           0
     23701 WT10     1322     MECN     H11      HGA3     0.090000        1.0080           0
     23702 WT10     1322     MECN     H12      HGA3     0.090000        1.0080           0
     23703 WT10     1322     MECN     H13      HGA3     0.090000        1.0080           0
     23704 WT10     1322     MECN     C2       CG1N1    0.360000       12.0110           0
     23705 WT10     1322     MECN     N3       NG1T1   -0.460000       14.0070           0
     23706 WT10     1326     MECN     C1       CG331   -0.170000       12.0110           0
     23707 WT10     1326     MECN     H11      HGA3     0.090000        1.0080           0
     23708 WT10     1326     MECN     H12      HGA3     0.090000        1.0080           0
     23709 WT10     1326     MECN     H13      HGA3     0.090000        1.0080           0
     23710 WT10     1326     MECN     C2       CG1N1    0.360000       12.0110           0
     23711 WT10     1326     MECN     N3       NG1T1   -0.460000       14.0070           0
     23712 WT11     3        MECN     C1       CG331   -0.170000       12.0110           0
     23713 WT11     3        MECN     H11      HGA3     0.090000        1.0080           0
     23714 WT11     3        MECN     H12      HGA3     0.090000        1.0080           0
     23715 WT11     3        MECN     H13      HGA3     0.090000        1.0080           0
     23716 WT11     3        MECN     C2       CG1N1    0.360000       12.0110           0
     23717 WT11     3        MECN     N3       NG1T1   -0.460000       14.0070           0
     23718 WT11     6        MECN     C1       CG331   -0.170000       12.0110           0
     23719 WT11     6        MECN     H11      HGA3     0.090000        1.0080           0
     23720 WT11     6        MECN     H12      HGA3     0.090000        1.0080           0
     23721 WT11     6        MECN     H13      HGA3     0.090000        1.0080           0
     23722 WT11     6        MECN     C2       CG1N1    0.360000       12.0110           0
     23723 WT11     6        MECN     N3       NG1T1   -0.460000       14.0070           0
     23724 WT11     7        MECN     C1       CG331   -0.170000       12.0110           0
     23725 WT11     7        MECN     H11      HGA3     0.090000        1.0080           0
     23726 WT11     7        MECN     H12      HGA3     0.090000        1.0080           0
     23727 WT11     7        MECN     H13      HGA3     0.090000        1.0080           0
     23728 WT11     7        MECN     C2       CG1N1    0.360000       12.0110           0
     23729 WT11     7        MECN     N3       NG1T1   -0.460000       14.0070           0
     23730 WT11     9        MECN     C1       CG331   -0.170000       12.0110           0
     23731 WT11     9        MECN     H11      HGA3     0.090000        1.0080           0
     23732 WT11     9        MECN     H12      HGA3     0.090000        1.0080           0
     23733 WT11     9        MECN     H13      HGA3     0.090000        1.0080           0
     23734 WT11     9        MECN     C2       CG1N1    0.360000       12.0110           0
     23735 WT11     9        MECN     N3       NG1T1   -0.460000       14.0070           0
     23736 WT11     10       MECN     C1       CG331   -0.170000       12.0110           0
     23737 WT11     10       MECN     H11      HGA3     0.090000        1.0080           0
     23738 WT11     10       MECN     H12      HGA3     0.090000        1.0080           0
     23739 WT11     10       MECN     H13      HGA3     0.090000        1.0080           0
     23740 WT11     10       MECN     C2       CG1N1    0.360000       12.0110           0
     23741 WT11     10       MECN     N3       NG1T1   -0.460000       14.0070           0
     23742 WT11     12       MECN     C1       CG331   -0.170000       12.0110           0
     23743 WT11     12       MECN     H11      HGA3     0.090000        1.0080           0
     23744 WT11     12       MECN     H12      HGA3     0.090000        1.0080           0
     23745 WT11     12       MECN     H13      HGA3     0.090000        1.0080           0
     23746 WT11     12       MECN     C2       CG1N1    0.360000       12.0110           0
     23747 WT11     12       MECN     N3       NG1T1   -0.460000       14.0070           0
     23748 WT11     14       MECN     C1       CG331   -0.170000       12.0110           0
     23749 WT11     14       MECN     H11      HGA3     0.090000        1.0080           0
     23750 WT11     14       MECN     H12      HGA3     0.090000        1.0080           0
     23751 WT11     14       MECN     H13      HGA3     0.090000        1.0080           0
     23752 WT11     14       MECN     C2       CG1N1    0.360000       12.0110           0
     23753 WT11     14       MECN     N3       NG1T1   -0.460000       14.0070           0
     23754 WT11     16       MECN     C1       CG331   -0.170000       12.0110           0
     23755 WT11     16       MECN     H11      HGA3     0.090000        1.0080           0
     23756 WT11     16       MECN     H12      HGA3     0.090000        1.0080           0
     23757 WT11     16       MECN     H13      HGA3     0.090000        1.0080           0
     23758 WT11     16       MECN     C2       CG1N1    0.360000       12.0110           0
     23759 WT11     16       MECN     N3       NG1T1   -0.460000       14.0070           0
     23760 WT11     18       MECN     C1       CG331   -0.170000       12.0110           0
     23761 WT11     18       MECN     H11      HGA3     0.090000        1.0080           0
     23762 WT11     18       MECN     H12      HGA3     0.090000        1.0080           0
     23763 WT11     18       MECN     H13      HGA3     0.090000        1.0080           0
     23764 WT11     18       MECN     C2       CG1N1    0.360000       12.0110           0
     23765 WT11     18       MECN     N3       NG1T1   -0.460000       14.0070           0
     23766 WT11     21       MECN     C1       CG331   -0.170000       12.0110           0
     23767 WT11     21       MECN     H11      HGA3     0.090000        1.0080           0
     23768 WT11     21       MECN     H12      HGA3     0.090000        1.0080           0
     23769 WT11     21       MECN     H13      HGA3     0.090000        1.0080           0
     23770 WT11     21       MECN     C2       CG1N1    0.360000       12.0110           0
     23771 WT11     21       MECN     N3       NG1T1   -0.460000       14.0070           0
     23772 WT11     22       MECN     C1       CG331   -0.170000       12.0110           0
     23773 WT11     22       MECN     H11      HGA3     0.090000        1.0080           0
     23774 WT11     22       MECN     H12      HGA3     0.090000        1.0080           0
     23775 WT11     22       MECN     H13      HGA3     0.090000        1.0080           0
     23776 WT11     22       MECN     C2       CG1N1    0.360000       12.0110           0
     23777 WT11     22       MECN     N3       NG1T1   -0.460000       14.0070           0
     23778 WT11     23       MECN     C1       CG331   -0.170000       12.0110           0
     23779 WT11     23       MECN     H11      HGA3     0.090000        1.0080           0
     23780 WT11     23       MECN     H12      HGA3     0.090000        1.0080           0
     23781 WT11     23       MECN     H13      HGA3     0.090000        1.0080           0
     23782 WT11     23       MECN     C2       CG1N1    0.360000       12.0110           0
     23783 WT11     23       MECN     N3       NG1T1   -0.460000       14.0070           0
     23784 WT11     27       MECN     C1       CG331   -0.170000       12.0110           0
     23785 WT11     27       MECN     H11      HGA3     0.090000        1.0080           0
     23786 WT11     27       MECN     H12      HGA3     0.090000        1.0080           0
     23787 WT11     27       MECN     H13      HGA3     0.090000        1.0080           0
     23788 WT11     27       MECN     C2       CG1N1    0.360000       12.0110           0
     23789 WT11     27       MECN     N3       NG1T1   -0.460000       14.0070           0
     23790 WT11     28       MECN     C1       CG331   -0.170000       12.0110           0
     23791 WT11     28       MECN     H11      HGA3     0.090000        1.0080           0
     23792 WT11     28       MECN     H12      HGA3     0.090000        1.0080           0
     23793 WT11     28       MECN     H13      HGA3     0.090000        1.0080           0
     23794 WT11     28       MECN     C2       CG1N1    0.360000       12.0110           0
     23795 WT11     28       MECN     N3       NG1T1   -0.460000       14.0070           0
     23796 WT11     29       MECN     C1       CG331   -0.170000       12.0110           0
     23797 WT11     29       MECN     H11      HGA3     0.090000        1.0080           0
     23798 WT11     29       MECN     H12      HGA3     0.090000        1.0080           0
     23799 WT11     29       MECN     H13      HGA3     0.090000        1.0080           0
     23800 WT11     29       MECN     C2       CG1N1    0.360000       12.0110           0
     23801 WT11     29       MECN     N3       NG1T1   -0.460000       14.0070           0
     23802 WT11     31       MECN     C1       CG331   -0.170000       12.0110           0
     23803 WT11     31       MECN     H11      HGA3     0.090000        1.0080           0
     23804 WT11     31       MECN     H12      HGA3     0.090000        1.0080           0
     23805 WT11     31       MECN     H13      HGA3     0.090000        1.0080           0
     23806 WT11     31       MECN     C2       CG1N1    0.360000       12.0110           0
     23807 WT11     31       MECN     N3       NG1T1   -0.460000       14.0070           0
     23808 WT11     32       MECN     C1       CG331   -0.170000       12.0110           0
     23809 WT11     32       MECN     H11      HGA3     0.090000        1.0080           0
     23810 WT11     32       MECN     H12      HGA3     0.090000        1.0080           0
     23811 WT11     32       MECN     H13      HGA3     0.090000        1.0080           0
     23812 WT11     32       MECN     C2       CG1N1    0.360000       12.0110           0
     23813 WT11     32       MECN     N3       NG1T1   -0.460000       14.0070           0
     23814 WT11     44       MECN     C1       CG331   -0.170000       12.0110           0
     23815 WT11     44       MECN     H11      HGA3     0.090000        1.0080           0
     23816 WT11     44       MECN     H12      HGA3     0.090000        1.0080           0
     23817 WT11     44       MECN     H13      HGA3     0.090000        1.0080           0
     23818 WT11     44       MECN     C2       CG1N1    0.360000       12.0110           0
     23819 WT11     44       MECN     N3       NG1T1   -0.460000       14.0070           0
     23820 WT11     49       MECN     C1       CG331   -0.170000       12.0110           0
     23821 WT11     49       MECN     H11      HGA3     0.090000        1.0080           0
     23822 WT11     49       MECN     H12      HGA3     0.090000        1.0080           0
     23823 WT11     49       MECN     H13      HGA3     0.090000        1.0080           0
     23824 WT11     49       MECN     C2       CG1N1    0.360000       12.0110           0
     23825 WT11     49       MECN     N3       NG1T1   -0.460000       14.0070           0
     23826 WT11     50       MECN     C1       CG331   -0.170000       12.0110           0
     23827 WT11     50       MECN     H11      HGA3     0.090000        1.0080           0
     23828 WT11     50       MECN     H12      HGA3     0.090000        1.0080           0
     23829 WT11     50       MECN     H13      HGA3     0.090000        1.0080           0
     23830 WT11     50       MECN     C2       CG1N1    0.360000       12.0110           0
     23831 WT11     50       MECN     N3       NG1T1   -0.460000       14.0070           0
     23832 WT11     52       MECN     C1       CG331   -0.170000       12.0110           0
     23833 WT11     52       MECN     H11      HGA3     0.090000        1.0080           0
     23834 WT11     52       MECN     H12      HGA3     0.090000        1.0080           0
     23835 WT11     52       MECN     H13      HGA3     0.090000        1.0080           0
     23836 WT11     52       MECN     C2       CG1N1    0.360000       12.0110           0
     23837 WT11     52       MECN     N3       NG1T1   -0.460000       14.0070           0
     23838 WT11     54       MECN     C1       CG331   -0.170000       12.0110           0
     23839 WT11     54       MECN     H11      HGA3     0.090000        1.0080           0
     23840 WT11     54       MECN     H12      HGA3     0.090000        1.0080           0
     23841 WT11     54       MECN     H13      HGA3     0.090000        1.0080           0
     23842 WT11     54       MECN     C2       CG1N1    0.360000       12.0110           0
     23843 WT11     54       MECN     N3       NG1T1   -0.460000       14.0070           0
     23844 WT11     55       MECN     C1       CG331   -0.170000       12.0110           0
     23845 WT11     55       MECN     H11      HGA3     0.090000        1.0080           0
     23846 WT11     55       MECN     H12      HGA3     0.090000        1.0080           0
     23847 WT11     55       MECN     H13      HGA3     0.090000        1.0080           0
     23848 WT11     55       MECN     C2       CG1N1    0.360000       12.0110           0
     23849 WT11     55       MECN     N3       NG1T1   -0.460000       14.0070           0
     23850 WT11     56       MECN     C1       CG331   -0.170000       12.0110           0
     23851 WT11     56       MECN     H11      HGA3     0.090000        1.0080           0
     23852 WT11     56       MECN     H12      HGA3     0.090000        1.0080           0
     23853 WT11     56       MECN     H13      HGA3     0.090000        1.0080           0
     23854 WT11     56       MECN     C2       CG1N1    0.360000       12.0110           0
     23855 WT11     56       MECN     N3       NG1T1   -0.460000       14.0070           0
     23856 WT11     57       MECN     C1       CG331   -0.170000       12.0110           0
     23857 WT11     57       MECN     H11      HGA3     0.090000        1.0080           0
     23858 WT11     57       MECN     H12      HGA3     0.090000        1.0080           0
     23859 WT11     57       MECN     H13      HGA3     0.090000        1.0080           0
     23860 WT11     57       MECN     C2       CG1N1    0.360000       12.0110           0
     23861 WT11     57       MECN     N3       NG1T1   -0.460000       14.0070           0
     23862 WT11     58       MECN     C1       CG331   -0.170000       12.0110           0
     23863 WT11     58       MECN     H11      HGA3     0.090000        1.0080           0
     23864 WT11     58       MECN     H12      HGA3     0.090000        1.0080           0
     23865 WT11     58       MECN     H13      HGA3     0.090000        1.0080           0
     23866 WT11     58       MECN     C2       CG1N1    0.360000       12.0110           0
     23867 WT11     58       MECN     N3       NG1T1   -0.460000       14.0070           0
     23868 WT11     59       MECN     C1       CG331   -0.170000       12.0110           0
     23869 WT11     59       MECN     H11      HGA3     0.090000        1.0080           0
     23870 WT11     59       MECN     H12      HGA3     0.090000        1.0080           0
     23871 WT11     59       MECN     H13      HGA3     0.090000        1.0080           0
     23872 WT11     59       MECN     C2       CG1N1    0.360000       12.0110           0
     23873 WT11     59       MECN     N3       NG1T1   -0.460000       14.0070           0
     23874 WT11     61       MECN     C1       CG331   -0.170000       12.0110           0
     23875 WT11     61       MECN     H11      HGA3     0.090000        1.0080           0
     23876 WT11     61       MECN     H12      HGA3     0.090000        1.0080           0
     23877 WT11     61       MECN     H13      HGA3     0.090000        1.0080           0
     23878 WT11     61       MECN     C2       CG1N1    0.360000       12.0110           0
     23879 WT11     61       MECN     N3       NG1T1   -0.460000       14.0070           0
     23880 WT11     63       MECN     C1       CG331   -0.170000       12.0110           0
     23881 WT11     63       MECN     H11      HGA3     0.090000        1.0080           0
     23882 WT11     63       MECN     H12      HGA3     0.090000        1.0080           0
     23883 WT11     63       MECN     H13      HGA3     0.090000        1.0080           0
     23884 WT11     63       MECN     C2       CG1N1    0.360000       12.0110           0
     23885 WT11     63       MECN     N3       NG1T1   -0.460000       14.0070           0
     23886 WT11     64       MECN     C1       CG331   -0.170000       12.0110           0
     23887 WT11     64       MECN     H11      HGA3     0.090000        1.0080           0
     23888 WT11     64       MECN     H12      HGA3     0.090000        1.0080           0
     23889 WT11     64       MECN     H13      HGA3     0.090000        1.0080           0
     23890 WT11     64       MECN     C2       CG1N1    0.360000       12.0110           0
     23891 WT11     64       MECN     N3       NG1T1   -0.460000       14.0070           0
     23892 WT11     65       MECN     C1       CG331   -0.170000       12.0110           0
     23893 WT11     65       MECN     H11      HGA3     0.090000        1.0080           0
     23894 WT11     65       MECN     H12      HGA3     0.090000        1.0080           0
     23895 WT11     65       MECN     H13      HGA3     0.090000        1.0080           0
     23896 WT11     65       MECN     C2       CG1N1    0.360000       12.0110           0
     23897 WT11     65       MECN     N3       NG1T1   -0.460000       14.0070           0
     23898 WT11     66       MECN     C1       CG331   -0.170000       12.0110           0
     23899 WT11     66       MECN     H11      HGA3     0.090000        1.0080           0
     23900 WT11     66       MECN     H12      HGA3     0.090000        1.0080           0
     23901 WT11     66       MECN     H13      HGA3     0.090000        1.0080           0
     23902 WT11     66       MECN     C2       CG1N1    0.360000       12.0110           0
     23903 WT11     66       MECN     N3       NG1T1   -0.460000       14.0070           0
     23904 WT11     70       MECN     C1       CG331   -0.170000       12.0110           0
     23905 WT11     70       MECN     H11      HGA3     0.090000        1.0080           0
     23906 WT11     70       MECN     H12      HGA3     0.090000        1.0080           0
     23907 WT11     70       MECN     H13      HGA3     0.090000        1.0080           0
     23908 WT11     70       MECN     C2       CG1N1    0.360000       12.0110           0
     23909 WT11     70       MECN     N3       NG1T1   -0.460000       14.0070           0
     23910 WT11     71       MECN     C1       CG331   -0.170000       12.0110           0
     23911 WT11     71       MECN     H11      HGA3     0.090000        1.0080           0
     23912 WT11     71       MECN     H12      HGA3     0.090000        1.0080           0
     23913 WT11     71       MECN     H13      HGA3     0.090000        1.0080           0
     23914 WT11     71       MECN     C2       CG1N1    0.360000       12.0110           0
     23915 WT11     71       MECN     N3       NG1T1   -0.460000       14.0070           0
     23916 WT11     74       MECN     C1       CG331   -0.170000       12.0110           0
     23917 WT11     74       MECN     H11      HGA3     0.090000        1.0080           0
     23918 WT11     74       MECN     H12      HGA3     0.090000        1.0080           0
     23919 WT11     74       MECN     H13      HGA3     0.090000        1.0080           0
     23920 WT11     74       MECN     C2       CG1N1    0.360000       12.0110           0
     23921 WT11     74       MECN     N3       NG1T1   -0.460000       14.0070           0
     23922 WT11     76       MECN     C1       CG331   -0.170000       12.0110           0
     23923 WT11     76       MECN     H11      HGA3     0.090000        1.0080           0
     23924 WT11     76       MECN     H12      HGA3     0.090000        1.0080           0
     23925 WT11     76       MECN     H13      HGA3     0.090000        1.0080           0
     23926 WT11     76       MECN     C2       CG1N1    0.360000       12.0110           0
     23927 WT11     76       MECN     N3       NG1T1   -0.460000       14.0070           0
     23928 WT11     79       MECN     C1       CG331   -0.170000       12.0110           0
     23929 WT11     79       MECN     H11      HGA3     0.090000        1.0080           0
     23930 WT11     79       MECN     H12      HGA3     0.090000        1.0080           0
     23931 WT11     79       MECN     H13      HGA3     0.090000        1.0080           0
     23932 WT11     79       MECN     C2       CG1N1    0.360000       12.0110           0
     23933 WT11     79       MECN     N3       NG1T1   -0.460000       14.0070           0
     23934 WT11     81       MECN     C1       CG331   -0.170000       12.0110           0
     23935 WT11     81       MECN     H11      HGA3     0.090000        1.0080           0
     23936 WT11     81       MECN     H12      HGA3     0.090000        1.0080           0
     23937 WT11     81       MECN     H13      HGA3     0.090000        1.0080           0
     23938 WT11     81       MECN     C2       CG1N1    0.360000       12.0110           0
     23939 WT11     81       MECN     N3       NG1T1   -0.460000       14.0070           0
     23940 WT11     83       MECN     C1       CG331   -0.170000       12.0110           0
     23941 WT11     83       MECN     H11      HGA3     0.090000        1.0080           0
     23942 WT11     83       MECN     H12      HGA3     0.090000        1.0080           0
     23943 WT11     83       MECN     H13      HGA3     0.090000        1.0080           0
     23944 WT11     83       MECN     C2       CG1N1    0.360000       12.0110           0
     23945 WT11     83       MECN     N3       NG1T1   -0.460000       14.0070           0
     23946 WT11     85       MECN     C1       CG331   -0.170000       12.0110           0
     23947 WT11     85       MECN     H11      HGA3     0.090000        1.0080           0
     23948 WT11     85       MECN     H12      HGA3     0.090000        1.0080           0
     23949 WT11     85       MECN     H13      HGA3     0.090000        1.0080           0
     23950 WT11     85       MECN     C2       CG1N1    0.360000       12.0110           0
     23951 WT11     85       MECN     N3       NG1T1   -0.460000       14.0070           0
     23952 WT11     87       MECN     C1       CG331   -0.170000       12.0110           0
     23953 WT11     87       MECN     H11      HGA3     0.090000        1.0080           0
     23954 WT11     87       MECN     H12      HGA3     0.090000        1.0080           0
     23955 WT11     87       MECN     H13      HGA3     0.090000        1.0080           0
     23956 WT11     87       MECN     C2       CG1N1    0.360000       12.0110           0
     23957 WT11     87       MECN     N3       NG1T1   -0.460000       14.0070           0
     23958 WT11     88       MECN     C1       CG331   -0.170000       12.0110           0
     23959 WT11     88       MECN     H11      HGA3     0.090000        1.0080           0
     23960 WT11     88       MECN     H12      HGA3     0.090000        1.0080           0
     23961 WT11     88       MECN     H13      HGA3     0.090000        1.0080           0
     23962 WT11     88       MECN     C2       CG1N1    0.360000       12.0110           0
     23963 WT11     88       MECN     N3       NG1T1   -0.460000       14.0070           0
     23964 WT11     89       MECN     C1       CG331   -0.170000       12.0110           0
     23965 WT11     89       MECN     H11      HGA3     0.090000        1.0080           0
     23966 WT11     89       MECN     H12      HGA3     0.090000        1.0080           0
     23967 WT11     89       MECN     H13      HGA3     0.090000        1.0080           0
     23968 WT11     89       MECN     C2       CG1N1    0.360000       12.0110           0
     23969 WT11     89       MECN     N3       NG1T1   -0.460000       14.0070           0
     23970 WT11     92       MECN     C1       CG331   -0.170000       12.0110           0
     23971 WT11     92       MECN     H11      HGA3     0.090000        1.0080           0
     23972 WT11     92       MECN     H12      HGA3     0.090000        1.0080           0
     23973 WT11     92       MECN     H13      HGA3     0.090000        1.0080           0
     23974 WT11     92       MECN     C2       CG1N1    0.360000       12.0110           0
     23975 WT11     92       MECN     N3       NG1T1   -0.460000       14.0070           0
     23976 WT11     98       MECN     C1       CG331   -0.170000       12.0110           0
     23977 WT11     98       MECN     H11      HGA3     0.090000        1.0080           0
     23978 WT11     98       MECN     H12      HGA3     0.090000        1.0080           0
     23979 WT11     98       MECN     H13      HGA3     0.090000        1.0080           0
     23980 WT11     98       MECN     C2       CG1N1    0.360000       12.0110           0
     23981 WT11     98       MECN     N3       NG1T1   -0.460000       14.0070           0
     23982 WT11     105      MECN     C1       CG331   -0.170000       12.0110           0
     23983 WT11     105      MECN     H11      HGA3     0.090000        1.0080           0
     23984 WT11     105      MECN     H12      HGA3     0.090000        1.0080           0
     23985 WT11     105      MECN     H13      HGA3     0.090000        1.0080           0
     23986 WT11     105      MECN     C2       CG1N1    0.360000       12.0110           0
     23987 WT11     105      MECN     N3       NG1T1   -0.460000       14.0070           0
     23988 WT11     106      MECN     C1       CG331   -0.170000       12.0110           0
     23989 WT11     106      MECN     H11      HGA3     0.090000        1.0080           0
     23990 WT11     106      MECN     H12      HGA3     0.090000        1.0080           0
     23991 WT11     106      MECN     H13      HGA3     0.090000        1.0080           0
     23992 WT11     106      MECN     C2       CG1N1    0.360000       12.0110           0
     23993 WT11     106      MECN     N3       NG1T1   -0.460000       14.0070           0
     23994 WT11     109      MECN     C1       CG331   -0.170000       12.0110           0
     23995 WT11     109      MECN     H11      HGA3     0.090000        1.0080           0
     23996 WT11     109      MECN     H12      HGA3     0.090000        1.0080           0
     23997 WT11     109      MECN     H13      HGA3     0.090000        1.0080           0
     23998 WT11     109      MECN     C2       CG1N1    0.360000       12.0110           0
     23999 WT11     109      MECN     N3       NG1T1   -0.460000       14.0070           0
     24000 WT11     110      MECN     C1       CG331   -0.170000       12.0110           0
     24001 WT11     110      MECN     H11      HGA3     0.090000        1.0080           0
     24002 WT11     110      MECN     H12      HGA3     0.090000        1.0080           0
     24003 WT11     110      MECN     H13      HGA3     0.090000        1.0080           0
     24004 WT11     110      MECN     C2       CG1N1    0.360000       12.0110           0
     24005 WT11     110      MECN     N3       NG1T1   -0.460000       14.0070           0
     24006 WT11     111      MECN     C1       CG331   -0.170000       12.0110           0
     24007 WT11     111      MECN     H11      HGA3     0.090000        1.0080           0
     24008 WT11     111      MECN     H12      HGA3     0.090000        1.0080           0
     24009 WT11     111      MECN     H13      HGA3     0.090000        1.0080           0
     24010 WT11     111      MECN     C2       CG1N1    0.360000       12.0110           0
     24011 WT11     111      MECN     N3       NG1T1   -0.460000       14.0070           0
     24012 WT11     112      MECN     C1       CG331   -0.170000       12.0110           0
     24013 WT11     112      MECN     H11      HGA3     0.090000        1.0080           0
     24014 WT11     112      MECN     H12      HGA3     0.090000        1.0080           0
     24015 WT11     112      MECN     H13      HGA3     0.090000        1.0080           0
     24016 WT11     112      MECN     C2       CG1N1    0.360000       12.0110           0
     24017 WT11     112      MECN     N3       NG1T1   -0.460000       14.0070           0
     24018 WT11     113      MECN     C1       CG331   -0.170000       12.0110           0
     24019 WT11     113      MECN     H11      HGA3     0.090000        1.0080           0
     24020 WT11     113      MECN     H12      HGA3     0.090000        1.0080           0
     24021 WT11     113      MECN     H13      HGA3     0.090000        1.0080           0
     24022 WT11     113      MECN     C2       CG1N1    0.360000       12.0110           0
     24023 WT11     113      MECN     N3       NG1T1   -0.460000       14.0070           0
     24024 WT11     115      MECN     C1       CG331   -0.170000       12.0110           0
     24025 WT11     115      MECN     H11      HGA3     0.090000        1.0080           0
     24026 WT11     115      MECN     H12      HGA3     0.090000        1.0080           0
     24027 WT11     115      MECN     H13      HGA3     0.090000        1.0080           0
     24028 WT11     115      MECN     C2       CG1N1    0.360000       12.0110           0
     24029 WT11     115      MECN     N3       NG1T1   -0.460000       14.0070           0
     24030 WT11     117      MECN     C1       CG331   -0.170000       12.0110           0
     24031 WT11     117      MECN     H11      HGA3     0.090000        1.0080           0
     24032 WT11     117      MECN     H12      HGA3     0.090000        1.0080           0
     24033 WT11     117      MECN     H13      HGA3     0.090000        1.0080           0
     24034 WT11     117      MECN     C2       CG1N1    0.360000       12.0110           0
     24035 WT11     117      MECN     N3       NG1T1   -0.460000       14.0070           0
     24036 WT11     118      MECN     C1       CG331   -0.170000       12.0110           0
     24037 WT11     118      MECN     H11      HGA3     0.090000        1.0080           0
     24038 WT11     118      MECN     H12      HGA3     0.090000        1.0080           0
     24039 WT11     118      MECN     H13      HGA3     0.090000        1.0080           0
     24040 WT11     118      MECN     C2       CG1N1    0.360000       12.0110           0
     24041 WT11     118      MECN     N3       NG1T1   -0.460000       14.0070           0
     24042 WT11     119      MECN     C1       CG331   -0.170000       12.0110           0
     24043 WT11     119      MECN     H11      HGA3     0.090000        1.0080           0
     24044 WT11     119      MECN     H12      HGA3     0.090000        1.0080           0
     24045 WT11     119      MECN     H13      HGA3     0.090000        1.0080           0
     24046 WT11     119      MECN     C2       CG1N1    0.360000       12.0110           0
     24047 WT11     119      MECN     N3       NG1T1   -0.460000       14.0070           0
     24048 WT11     120      MECN     C1       CG331   -0.170000       12.0110           0
     24049 WT11     120      MECN     H11      HGA3     0.090000        1.0080           0
     24050 WT11     120      MECN     H12      HGA3     0.090000        1.0080           0
     24051 WT11     120      MECN     H13      HGA3     0.090000        1.0080           0
     24052 WT11     120      MECN     C2       CG1N1    0.360000       12.0110           0
     24053 WT11     120      MECN     N3       NG1T1   -0.460000       14.0070           0
     24054 WT11     121      MECN     C1       CG331   -0.170000       12.0110           0
     24055 WT11     121      MECN     H11      HGA3     0.090000        1.0080           0
     24056 WT11     121      MECN     H12      HGA3     0.090000        1.0080           0
     24057 WT11     121      MECN     H13      HGA3     0.090000        1.0080           0
     24058 WT11     121      MECN     C2       CG1N1    0.360000       12.0110           0
     24059 WT11     121      MECN     N3       NG1T1   -0.460000       14.0070           0
     24060 WT11     122      MECN     C1       CG331   -0.170000       12.0110           0
     24061 WT11     122      MECN     H11      HGA3     0.090000        1.0080           0
     24062 WT11     122      MECN     H12      HGA3     0.090000        1.0080           0
     24063 WT11     122      MECN     H13      HGA3     0.090000        1.0080           0
     24064 WT11     122      MECN     C2       CG1N1    0.360000       12.0110           0
     24065 WT11     122      MECN     N3       NG1T1   -0.460000       14.0070           0
     24066 WT11     123      MECN     C1       CG331   -0.170000       12.0110           0
     24067 WT11     123      MECN     H11      HGA3     0.090000        1.0080           0
     24068 WT11     123      MECN     H12      HGA3     0.090000        1.0080           0
     24069 WT11     123      MECN     H13      HGA3     0.090000        1.0080           0
     24070 WT11     123      MECN     C2       CG1N1    0.360000       12.0110           0
     24071 WT11     123      MECN     N3       NG1T1   -0.460000       14.0070           0
     24072 WT11     124      MECN     C1       CG331   -0.170000       12.0110           0
     24073 WT11     124      MECN     H11      HGA3     0.090000        1.0080           0
     24074 WT11     124      MECN     H12      HGA3     0.090000        1.0080           0
     24075 WT11     124      MECN     H13      HGA3     0.090000        1.0080           0
     24076 WT11     124      MECN     C2       CG1N1    0.360000       12.0110           0
     24077 WT11     124      MECN     N3       NG1T1   -0.460000       14.0070           0
     24078 WT11     125      MECN     C1       CG331   -0.170000       12.0110           0
     24079 WT11     125      MECN     H11      HGA3     0.090000        1.0080           0
     24080 WT11     125      MECN     H12      HGA3     0.090000        1.0080           0
     24081 WT11     125      MECN     H13      HGA3     0.090000        1.0080           0
     24082 WT11     125      MECN     C2       CG1N1    0.360000       12.0110           0
     24083 WT11     125      MECN     N3       NG1T1   -0.460000       14.0070           0
     24084 WT11     127      MECN     C1       CG331   -0.170000       12.0110           0
     24085 WT11     127      MECN     H11      HGA3     0.090000        1.0080           0
     24086 WT11     127      MECN     H12      HGA3     0.090000        1.0080           0
     24087 WT11     127      MECN     H13      HGA3     0.090000        1.0080           0
     24088 WT11     127      MECN     C2       CG1N1    0.360000       12.0110           0
     24089 WT11     127      MECN     N3       NG1T1   -0.460000       14.0070           0
     24090 WT11     129      MECN     C1       CG331   -0.170000       12.0110           0
     24091 WT11     129      MECN     H11      HGA3     0.090000        1.0080           0
     24092 WT11     129      MECN     H12      HGA3     0.090000        1.0080           0
     24093 WT11     129      MECN     H13      HGA3     0.090000        1.0080           0
     24094 WT11     129      MECN     C2       CG1N1    0.360000       12.0110           0
     24095 WT11     129      MECN     N3       NG1T1   -0.460000       14.0070           0
     24096 WT11     132      MECN     C1       CG331   -0.170000       12.0110           0
     24097 WT11     132      MECN     H11      HGA3     0.090000        1.0080           0
     24098 WT11     132      MECN     H12      HGA3     0.090000        1.0080           0
     24099 WT11     132      MECN     H13      HGA3     0.090000        1.0080           0
     24100 WT11     132      MECN     C2       CG1N1    0.360000       12.0110           0
     24101 WT11     132      MECN     N3       NG1T1   -0.460000       14.0070           0
     24102 WT11     134      MECN     C1       CG331   -0.170000       12.0110           0
     24103 WT11     134      MECN     H11      HGA3     0.090000        1.0080           0
     24104 WT11     134      MECN     H12      HGA3     0.090000        1.0080           0
     24105 WT11     134      MECN     H13      HGA3     0.090000        1.0080           0
     24106 WT11     134      MECN     C2       CG1N1    0.360000       12.0110           0
     24107 WT11     134      MECN     N3       NG1T1   -0.460000       14.0070           0
     24108 WT11     135      MECN     C1       CG331   -0.170000       12.0110           0
     24109 WT11     135      MECN     H11      HGA3     0.090000        1.0080           0
     24110 WT11     135      MECN     H12      HGA3     0.090000        1.0080           0
     24111 WT11     135      MECN     H13      HGA3     0.090000        1.0080           0
     24112 WT11     135      MECN     C2       CG1N1    0.360000       12.0110           0
     24113 WT11     135      MECN     N3       NG1T1   -0.460000       14.0070           0
     24114 WT11     138      MECN     C1       CG331   -0.170000       12.0110           0
     24115 WT11     138      MECN     H11      HGA3     0.090000        1.0080           0
     24116 WT11     138      MECN     H12      HGA3     0.090000        1.0080           0
     24117 WT11     138      MECN     H13      HGA3     0.090000        1.0080           0
     24118 WT11     138      MECN     C2       CG1N1    0.360000       12.0110           0
     24119 WT11     138      MECN     N3       NG1T1   -0.460000       14.0070           0
     24120 WT11     143      MECN     C1       CG331   -0.170000       12.0110           0
     24121 WT11     143      MECN     H11      HGA3     0.090000        1.0080           0
     24122 WT11     143      MECN     H12      HGA3     0.090000        1.0080           0
     24123 WT11     143      MECN     H13      HGA3     0.090000        1.0080           0
     24124 WT11     143      MECN     C2       CG1N1    0.360000       12.0110           0
     24125 WT11     143      MECN     N3       NG1T1   -0.460000       14.0070           0
     24126 WT11     145      MECN     C1       CG331   -0.170000       12.0110           0
     24127 WT11     145      MECN     H11      HGA3     0.090000        1.0080           0
     24128 WT11     145      MECN     H12      HGA3     0.090000        1.0080           0
     24129 WT11     145      MECN     H13      HGA3     0.090000        1.0080           0
     24130 WT11     145      MECN     C2       CG1N1    0.360000       12.0110           0
     24131 WT11     145      MECN     N3       NG1T1   -0.460000       14.0070           0
     24132 WT11     147      MECN     C1       CG331   -0.170000       12.0110           0
     24133 WT11     147      MECN     H11      HGA3     0.090000        1.0080           0
     24134 WT11     147      MECN     H12      HGA3     0.090000        1.0080           0
     24135 WT11     147      MECN     H13      HGA3     0.090000        1.0080           0
     24136 WT11     147      MECN     C2       CG1N1    0.360000       12.0110           0
     24137 WT11     147      MECN     N3       NG1T1   -0.460000       14.0070           0
     24138 WT11     150      MECN     C1       CG331   -0.170000       12.0110           0
     24139 WT11     150      MECN     H11      HGA3     0.090000        1.0080           0
     24140 WT11     150      MECN     H12      HGA3     0.090000        1.0080           0
     24141 WT11     150      MECN     H13      HGA3     0.090000        1.0080           0
     24142 WT11     150      MECN     C2       CG1N1    0.360000       12.0110           0
     24143 WT11     150      MECN     N3       NG1T1   -0.460000       14.0070           0
     24144 WT11     154      MECN     C1       CG331   -0.170000       12.0110           0
     24145 WT11     154      MECN     H11      HGA3     0.090000        1.0080           0
     24146 WT11     154      MECN     H12      HGA3     0.090000        1.0080           0
     24147 WT11     154      MECN     H13      HGA3     0.090000        1.0080           0
     24148 WT11     154      MECN     C2       CG1N1    0.360000       12.0110           0
     24149 WT11     154      MECN     N3       NG1T1   -0.460000       14.0070           0
     24150 WT11     155      MECN     C1       CG331   -0.170000       12.0110           0
     24151 WT11     155      MECN     H11      HGA3     0.090000        1.0080           0
     24152 WT11     155      MECN     H12      HGA3     0.090000        1.0080           0
     24153 WT11     155      MECN     H13      HGA3     0.090000        1.0080           0
     24154 WT11     155      MECN     C2       CG1N1    0.360000       12.0110           0
     24155 WT11     155      MECN     N3       NG1T1   -0.460000       14.0070           0
     24156 WT11     159      MECN     C1       CG331   -0.170000       12.0110           0
     24157 WT11     159      MECN     H11      HGA3     0.090000        1.0080           0
     24158 WT11     159      MECN     H12      HGA3     0.090000        1.0080           0
     24159 WT11     159      MECN     H13      HGA3     0.090000        1.0080           0
     24160 WT11     159      MECN     C2       CG1N1    0.360000       12.0110           0
     24161 WT11     159      MECN     N3       NG1T1   -0.460000       14.0070           0
     24162 WT11     164      MECN     C1       CG331   -0.170000       12.0110           0
     24163 WT11     164      MECN     H11      HGA3     0.090000        1.0080           0
     24164 WT11     164      MECN     H12      HGA3     0.090000        1.0080           0
     24165 WT11     164      MECN     H13      HGA3     0.090000        1.0080           0
     24166 WT11     164      MECN     C2       CG1N1    0.360000       12.0110           0
     24167 WT11     164      MECN     N3       NG1T1   -0.460000       14.0070           0
     24168 WT11     168      MECN     C1       CG331   -0.170000       12.0110           0
     24169 WT11     168      MECN     H11      HGA3     0.090000        1.0080           0
     24170 WT11     168      MECN     H12      HGA3     0.090000        1.0080           0
     24171 WT11     168      MECN     H13      HGA3     0.090000        1.0080           0
     24172 WT11     168      MECN     C2       CG1N1    0.360000       12.0110           0
     24173 WT11     168      MECN     N3       NG1T1   -0.460000       14.0070           0
     24174 WT11     169      MECN     C1       CG331   -0.170000       12.0110           0
     24175 WT11     169      MECN     H11      HGA3     0.090000        1.0080           0
     24176 WT11     169      MECN     H12      HGA3     0.090000        1.0080           0
     24177 WT11     169      MECN     H13      HGA3     0.090000        1.0080           0
     24178 WT11     169      MECN     C2       CG1N1    0.360000       12.0110           0
     24179 WT11     169      MECN     N3       NG1T1   -0.460000       14.0070           0
     24180 WT11     171      MECN     C1       CG331   -0.170000       12.0110           0
     24181 WT11     171      MECN     H11      HGA3     0.090000        1.0080           0
     24182 WT11     171      MECN     H12      HGA3     0.090000        1.0080           0
     24183 WT11     171      MECN     H13      HGA3     0.090000        1.0080           0
     24184 WT11     171      MECN     C2       CG1N1    0.360000       12.0110           0
     24185 WT11     171      MECN     N3       NG1T1   -0.460000       14.0070           0
     24186 WT11     172      MECN     C1       CG331   -0.170000       12.0110           0
     24187 WT11     172      MECN     H11      HGA3     0.090000        1.0080           0
     24188 WT11     172      MECN     H12      HGA3     0.090000        1.0080           0
     24189 WT11     172      MECN     H13      HGA3     0.090000        1.0080           0
     24190 WT11     172      MECN     C2       CG1N1    0.360000       12.0110           0
     24191 WT11     172      MECN     N3       NG1T1   -0.460000       14.0070           0
     24192 WT11     173      MECN     C1       CG331   -0.170000       12.0110           0
     24193 WT11     173      MECN     H11      HGA3     0.090000        1.0080           0
     24194 WT11     173      MECN     H12      HGA3     0.090000        1.0080           0
     24195 WT11     173      MECN     H13      HGA3     0.090000        1.0080           0
     24196 WT11     173      MECN     C2       CG1N1    0.360000       12.0110           0
     24197 WT11     173      MECN     N3       NG1T1   -0.460000       14.0070           0
     24198 WT11     174      MECN     C1       CG331   -0.170000       12.0110           0
     24199 WT11     174      MECN     H11      HGA3     0.090000        1.0080           0
     24200 WT11     174      MECN     H12      HGA3     0.090000        1.0080           0
     24201 WT11     174      MECN     H13      HGA3     0.090000        1.0080           0
     24202 WT11     174      MECN     C2       CG1N1    0.360000       12.0110           0
     24203 WT11     174      MECN     N3       NG1T1   -0.460000       14.0070           0
     24204 WT11     175      MECN     C1       CG331   -0.170000       12.0110           0
     24205 WT11     175      MECN     H11      HGA3     0.090000        1.0080           0
     24206 WT11     175      MECN     H12      HGA3     0.090000        1.0080           0
     24207 WT11     175      MECN     H13      HGA3     0.090000        1.0080           0
     24208 WT11     175      MECN     C2       CG1N1    0.360000       12.0110           0
     24209 WT11     175      MECN     N3       NG1T1   -0.460000       14.0070           0
     24210 WT11     179      MECN     C1       CG331   -0.170000       12.0110           0
     24211 WT11     179      MECN     H11      HGA3     0.090000        1.0080           0
     24212 WT11     179      MECN     H12      HGA3     0.090000        1.0080           0
     24213 WT11     179      MECN     H13      HGA3     0.090000        1.0080           0
     24214 WT11     179      MECN     C2       CG1N1    0.360000       12.0110           0
     24215 WT11     179      MECN     N3       NG1T1   -0.460000       14.0070           0
     24216 WT11     181      MECN     C1       CG331   -0.170000       12.0110           0
     24217 WT11     181      MECN     H11      HGA3     0.090000        1.0080           0
     24218 WT11     181      MECN     H12      HGA3     0.090000        1.0080           0
     24219 WT11     181      MECN     H13      HGA3     0.090000        1.0080           0
     24220 WT11     181      MECN     C2       CG1N1    0.360000       12.0110           0
     24221 WT11     181      MECN     N3       NG1T1   -0.460000       14.0070           0
     24222 WT11     183      MECN     C1       CG331   -0.170000       12.0110           0
     24223 WT11     183      MECN     H11      HGA3     0.090000        1.0080           0
     24224 WT11     183      MECN     H12      HGA3     0.090000        1.0080           0
     24225 WT11     183      MECN     H13      HGA3     0.090000        1.0080           0
     24226 WT11     183      MECN     C2       CG1N1    0.360000       12.0110           0
     24227 WT11     183      MECN     N3       NG1T1   -0.460000       14.0070           0
     24228 WT11     184      MECN     C1       CG331   -0.170000       12.0110           0
     24229 WT11     184      MECN     H11      HGA3     0.090000        1.0080           0
     24230 WT11     184      MECN     H12      HGA3     0.090000        1.0080           0
     24231 WT11     184      MECN     H13      HGA3     0.090000        1.0080           0
     24232 WT11     184      MECN     C2       CG1N1    0.360000       12.0110           0
     24233 WT11     184      MECN     N3       NG1T1   -0.460000       14.0070           0
     24234 WT11     185      MECN     C1       CG331   -0.170000       12.0110           0
     24235 WT11     185      MECN     H11      HGA3     0.090000        1.0080           0
     24236 WT11     185      MECN     H12      HGA3     0.090000        1.0080           0
     24237 WT11     185      MECN     H13      HGA3     0.090000        1.0080           0
     24238 WT11     185      MECN     C2       CG1N1    0.360000       12.0110           0
     24239 WT11     185      MECN     N3       NG1T1   -0.460000       14.0070           0
     24240 WT11     190      MECN     C1       CG331   -0.170000       12.0110           0
     24241 WT11     190      MECN     H11      HGA3     0.090000        1.0080           0
     24242 WT11     190      MECN     H12      HGA3     0.090000        1.0080           0
     24243 WT11     190      MECN     H13      HGA3     0.090000        1.0080           0
     24244 WT11     190      MECN     C2       CG1N1    0.360000       12.0110           0
     24245 WT11     190      MECN     N3       NG1T1   -0.460000       14.0070           0
     24246 WT11     191      MECN     C1       CG331   -0.170000       12.0110           0
     24247 WT11     191      MECN     H11      HGA3     0.090000        1.0080           0
     24248 WT11     191      MECN     H12      HGA3     0.090000        1.0080           0
     24249 WT11     191      MECN     H13      HGA3     0.090000        1.0080           0
     24250 WT11     191      MECN     C2       CG1N1    0.360000       12.0110           0
     24251 WT11     191      MECN     N3       NG1T1   -0.460000       14.0070           0
     24252 WT11     197      MECN     C1       CG331   -0.170000       12.0110           0
     24253 WT11     197      MECN     H11      HGA3     0.090000        1.0080           0
     24254 WT11     197      MECN     H12      HGA3     0.090000        1.0080           0
     24255 WT11     197      MECN     H13      HGA3     0.090000        1.0080           0
     24256 WT11     197      MECN     C2       CG1N1    0.360000       12.0110           0
     24257 WT11     197      MECN     N3       NG1T1   -0.460000       14.0070           0
     24258 WT11     199      MECN     C1       CG331   -0.170000       12.0110           0
     24259 WT11     199      MECN     H11      HGA3     0.090000        1.0080           0
     24260 WT11     199      MECN     H12      HGA3     0.090000        1.0080           0
     24261 WT11     199      MECN     H13      HGA3     0.090000        1.0080           0
     24262 WT11     199      MECN     C2       CG1N1    0.360000       12.0110           0
     24263 WT11     199      MECN     N3       NG1T1   -0.460000       14.0070           0
     24264 WT11     202      MECN     C1       CG331   -0.170000       12.0110           0
     24265 WT11     202      MECN     H11      HGA3     0.090000        1.0080           0
     24266 WT11     202      MECN     H12      HGA3     0.090000        1.0080           0
     24267 WT11     202      MECN     H13      HGA3     0.090000        1.0080           0
     24268 WT11     202      MECN     C2       CG1N1    0.360000       12.0110           0
     24269 WT11     202      MECN     N3       NG1T1   -0.460000       14.0070           0
     24270 WT11     203      MECN     C1       CG331   -0.170000       12.0110           0
     24271 WT11     203      MECN     H11      HGA3     0.090000        1.0080           0
     24272 WT11     203      MECN     H12      HGA3     0.090000        1.0080           0
     24273 WT11     203      MECN     H13      HGA3     0.090000        1.0080           0
     24274 WT11     203      MECN     C2       CG1N1    0.360000       12.0110           0
     24275 WT11     203      MECN     N3       NG1T1   -0.460000       14.0070           0
     24276 WT11     204      MECN     C1       CG331   -0.170000       12.0110           0
     24277 WT11     204      MECN     H11      HGA3     0.090000        1.0080           0
     24278 WT11     204      MECN     H12      HGA3     0.090000        1.0080           0
     24279 WT11     204      MECN     H13      HGA3     0.090000        1.0080           0
     24280 WT11     204      MECN     C2       CG1N1    0.360000       12.0110           0
     24281 WT11     204      MECN     N3       NG1T1   -0.460000       14.0070           0
     24282 WT11     205      MECN     C1       CG331   -0.170000       12.0110           0
     24283 WT11     205      MECN     H11      HGA3     0.090000        1.0080           0
     24284 WT11     205      MECN     H12      HGA3     0.090000        1.0080           0
     24285 WT11     205      MECN     H13      HGA3     0.090000        1.0080           0
     24286 WT11     205      MECN     C2       CG1N1    0.360000       12.0110           0
     24287 WT11     205      MECN     N3       NG1T1   -0.460000       14.0070           0
     24288 WT11     209      MECN     C1       CG331   -0.170000       12.0110           0
     24289 WT11     209      MECN     H11      HGA3     0.090000        1.0080           0
     24290 WT11     209      MECN     H12      HGA3     0.090000        1.0080           0
     24291 WT11     209      MECN     H13      HGA3     0.090000        1.0080           0
     24292 WT11     209      MECN     C2       CG1N1    0.360000       12.0110           0
     24293 WT11     209      MECN     N3       NG1T1   -0.460000       14.0070           0
     24294 WT11     212      MECN     C1       CG331   -0.170000       12.0110           0
     24295 WT11     212      MECN     H11      HGA3     0.090000        1.0080           0
     24296 WT11     212      MECN     H12      HGA3     0.090000        1.0080           0
     24297 WT11     212      MECN     H13      HGA3     0.090000        1.0080           0
     24298 WT11     212      MECN     C2       CG1N1    0.360000       12.0110           0
     24299 WT11     212      MECN     N3       NG1T1   -0.460000       14.0070           0
     24300 WT11     216      MECN     C1       CG331   -0.170000       12.0110           0
     24301 WT11     216      MECN     H11      HGA3     0.090000        1.0080           0
     24302 WT11     216      MECN     H12      HGA3     0.090000        1.0080           0
     24303 WT11     216      MECN     H13      HGA3     0.090000        1.0080           0
     24304 WT11     216      MECN     C2       CG1N1    0.360000       12.0110           0
     24305 WT11     216      MECN     N3       NG1T1   -0.460000       14.0070           0
     24306 WT11     220      MECN     C1       CG331   -0.170000       12.0110           0
     24307 WT11     220      MECN     H11      HGA3     0.090000        1.0080           0
     24308 WT11     220      MECN     H12      HGA3     0.090000        1.0080           0
     24309 WT11     220      MECN     H13      HGA3     0.090000        1.0080           0
     24310 WT11     220      MECN     C2       CG1N1    0.360000       12.0110           0
     24311 WT11     220      MECN     N3       NG1T1   -0.460000       14.0070           0
     24312 WT11     224      MECN     C1       CG331   -0.170000       12.0110           0
     24313 WT11     224      MECN     H11      HGA3     0.090000        1.0080           0
     24314 WT11     224      MECN     H12      HGA3     0.090000        1.0080           0
     24315 WT11     224      MECN     H13      HGA3     0.090000        1.0080           0
     24316 WT11     224      MECN     C2       CG1N1    0.360000       12.0110           0
     24317 WT11     224      MECN     N3       NG1T1   -0.460000       14.0070           0
     24318 WT11     227      MECN     C1       CG331   -0.170000       12.0110           0
     24319 WT11     227      MECN     H11      HGA3     0.090000        1.0080           0
     24320 WT11     227      MECN     H12      HGA3     0.090000        1.0080           0
     24321 WT11     227      MECN     H13      HGA3     0.090000        1.0080           0
     24322 WT11     227      MECN     C2       CG1N1    0.360000       12.0110           0
     24323 WT11     227      MECN     N3       NG1T1   -0.460000       14.0070           0
     24324 WT11     229      MECN     C1       CG331   -0.170000       12.0110           0
     24325 WT11     229      MECN     H11      HGA3     0.090000        1.0080           0
     24326 WT11     229      MECN     H12      HGA3     0.090000        1.0080           0
     24327 WT11     229      MECN     H13      HGA3     0.090000        1.0080           0
     24328 WT11     229      MECN     C2       CG1N1    0.360000       12.0110           0
     24329 WT11     229      MECN     N3       NG1T1   -0.460000       14.0070           0
     24330 WT11     230      MECN     C1       CG331   -0.170000       12.0110           0
     24331 WT11     230      MECN     H11      HGA3     0.090000        1.0080           0
     24332 WT11     230      MECN     H12      HGA3     0.090000        1.0080           0
     24333 WT11     230      MECN     H13      HGA3     0.090000        1.0080           0
     24334 WT11     230      MECN     C2       CG1N1    0.360000       12.0110           0
     24335 WT11     230      MECN     N3       NG1T1   -0.460000       14.0070           0
     24336 WT11     231      MECN     C1       CG331   -0.170000       12.0110           0
     24337 WT11     231      MECN     H11      HGA3     0.090000        1.0080           0
     24338 WT11     231      MECN     H12      HGA3     0.090000        1.0080           0
     24339 WT11     231      MECN     H13      HGA3     0.090000        1.0080           0
     24340 WT11     231      MECN     C2       CG1N1    0.360000       12.0110           0
     24341 WT11     231      MECN     N3       NG1T1   -0.460000       14.0070           0
     24342 WT11     236      MECN     C1       CG331   -0.170000       12.0110           0
     24343 WT11     236      MECN     H11      HGA3     0.090000        1.0080           0
     24344 WT11     236      MECN     H12      HGA3     0.090000        1.0080           0
     24345 WT11     236      MECN     H13      HGA3     0.090000        1.0080           0
     24346 WT11     236      MECN     C2       CG1N1    0.360000       12.0110           0
     24347 WT11     236      MECN     N3       NG1T1   -0.460000       14.0070           0
     24348 WT11     237      MECN     C1       CG331   -0.170000       12.0110           0
     24349 WT11     237      MECN     H11      HGA3     0.090000        1.0080           0
     24350 WT11     237      MECN     H12      HGA3     0.090000        1.0080           0
     24351 WT11     237      MECN     H13      HGA3     0.090000        1.0080           0
     24352 WT11     237      MECN     C2       CG1N1    0.360000       12.0110           0
     24353 WT11     237      MECN     N3       NG1T1   -0.460000       14.0070           0
     24354 WT11     242      MECN     C1       CG331   -0.170000       12.0110           0
     24355 WT11     242      MECN     H11      HGA3     0.090000        1.0080           0
     24356 WT11     242      MECN     H12      HGA3     0.090000        1.0080           0
     24357 WT11     242      MECN     H13      HGA3     0.090000        1.0080           0
     24358 WT11     242      MECN     C2       CG1N1    0.360000       12.0110           0
     24359 WT11     242      MECN     N3       NG1T1   -0.460000       14.0070           0
     24360 WT11     246      MECN     C1       CG331   -0.170000       12.0110           0
     24361 WT11     246      MECN     H11      HGA3     0.090000        1.0080           0
     24362 WT11     246      MECN     H12      HGA3     0.090000        1.0080           0
     24363 WT11     246      MECN     H13      HGA3     0.090000        1.0080           0
     24364 WT11     246      MECN     C2       CG1N1    0.360000       12.0110           0
     24365 WT11     246      MECN     N3       NG1T1   -0.460000       14.0070           0
     24366 WT11     247      MECN     C1       CG331   -0.170000       12.0110           0
     24367 WT11     247      MECN     H11      HGA3     0.090000        1.0080           0
     24368 WT11     247      MECN     H12      HGA3     0.090000        1.0080           0
     24369 WT11     247      MECN     H13      HGA3     0.090000        1.0080           0
     24370 WT11     247      MECN     C2       CG1N1    0.360000       12.0110           0
     24371 WT11     247      MECN     N3       NG1T1   -0.460000       14.0070           0
     24372 WT11     248      MECN     C1       CG331   -0.170000       12.0110           0
     24373 WT11     248      MECN     H11      HGA3     0.090000        1.0080           0
     24374 WT11     248      MECN     H12      HGA3     0.090000        1.0080           0
     24375 WT11     248      MECN     H13      HGA3     0.090000        1.0080           0
     24376 WT11     248      MECN     C2       CG1N1    0.360000       12.0110           0
     24377 WT11     248      MECN     N3       NG1T1   -0.460000       14.0070           0
     24378 WT11     252      MECN     C1       CG331   -0.170000       12.0110           0
     24379 WT11     252      MECN     H11      HGA3     0.090000        1.0080           0
     24380 WT11     252      MECN     H12      HGA3     0.090000        1.0080           0
     24381 WT11     252      MECN     H13      HGA3     0.090000        1.0080           0
     24382 WT11     252      MECN     C2       CG1N1    0.360000       12.0110           0
     24383 WT11     252      MECN     N3       NG1T1   -0.460000       14.0070           0
     24384 WT11     253      MECN     C1       CG331   -0.170000       12.0110           0
     24385 WT11     253      MECN     H11      HGA3     0.090000        1.0080           0
     24386 WT11     253      MECN     H12      HGA3     0.090000        1.0080           0
     24387 WT11     253      MECN     H13      HGA3     0.090000        1.0080           0
     24388 WT11     253      MECN     C2       CG1N1    0.360000       12.0110           0
     24389 WT11     253      MECN     N3       NG1T1   -0.460000       14.0070           0
     24390 WT11     260      MECN     C1       CG331   -0.170000       12.0110           0
     24391 WT11     260      MECN     H11      HGA3     0.090000        1.0080           0
     24392 WT11     260      MECN     H12      HGA3     0.090000        1.0080           0
     24393 WT11     260      MECN     H13      HGA3     0.090000        1.0080           0
     24394 WT11     260      MECN     C2       CG1N1    0.360000       12.0110           0
     24395 WT11     260      MECN     N3       NG1T1   -0.460000       14.0070           0
     24396 WT11     267      MECN     C1       CG331   -0.170000       12.0110           0
     24397 WT11     267      MECN     H11      HGA3     0.090000        1.0080           0
     24398 WT11     267      MECN     H12      HGA3     0.090000        1.0080           0
     24399 WT11     267      MECN     H13      HGA3     0.090000        1.0080           0
     24400 WT11     267      MECN     C2       CG1N1    0.360000       12.0110           0
     24401 WT11     267      MECN     N3       NG1T1   -0.460000       14.0070           0
     24402 WT11     268      MECN     C1       CG331   -0.170000       12.0110           0
     24403 WT11     268      MECN     H11      HGA3     0.090000        1.0080           0
     24404 WT11     268      MECN     H12      HGA3     0.090000        1.0080           0
     24405 WT11     268      MECN     H13      HGA3     0.090000        1.0080           0
     24406 WT11     268      MECN     C2       CG1N1    0.360000       12.0110           0
     24407 WT11     268      MECN     N3       NG1T1   -0.460000       14.0070           0
     24408 WT11     270      MECN     C1       CG331   -0.170000       12.0110           0
     24409 WT11     270      MECN     H11      HGA3     0.090000        1.0080           0
     24410 WT11     270      MECN     H12      HGA3     0.090000        1.0080           0
     24411 WT11     270      MECN     H13      HGA3     0.090000        1.0080           0
     24412 WT11     270      MECN     C2       CG1N1    0.360000       12.0110           0
     24413 WT11     270      MECN     N3       NG1T1   -0.460000       14.0070           0
     24414 WT11     272      MECN     C1       CG331   -0.170000       12.0110           0
     24415 WT11     272      MECN     H11      HGA3     0.090000        1.0080           0
     24416 WT11     272      MECN     H12      HGA3     0.090000        1.0080           0
     24417 WT11     272      MECN     H13      HGA3     0.090000        1.0080           0
     24418 WT11     272      MECN     C2       CG1N1    0.360000       12.0110           0
     24419 WT11     272      MECN     N3       NG1T1   -0.460000       14.0070           0
     24420 WT11     273      MECN     C1       CG331   -0.170000       12.0110           0
     24421 WT11     273      MECN     H11      HGA3     0.090000        1.0080           0
     24422 WT11     273      MECN     H12      HGA3     0.090000        1.0080           0
     24423 WT11     273      MECN     H13      HGA3     0.090000        1.0080           0
     24424 WT11     273      MECN     C2       CG1N1    0.360000       12.0110           0
     24425 WT11     273      MECN     N3       NG1T1   -0.460000       14.0070           0
     24426 WT11     274      MECN     C1       CG331   -0.170000       12.0110           0
     24427 WT11     274      MECN     H11      HGA3     0.090000        1.0080           0
     24428 WT11     274      MECN     H12      HGA3     0.090000        1.0080           0
     24429 WT11     274      MECN     H13      HGA3     0.090000        1.0080           0
     24430 WT11     274      MECN     C2       CG1N1    0.360000       12.0110           0
     24431 WT11     274      MECN     N3       NG1T1   -0.460000       14.0070           0
     24432 WT11     276      MECN     C1       CG331   -0.170000       12.0110           0
     24433 WT11     276      MECN     H11      HGA3     0.090000        1.0080           0
     24434 WT11     276      MECN     H12      HGA3     0.090000        1.0080           0
     24435 WT11     276      MECN     H13      HGA3     0.090000        1.0080           0
     24436 WT11     276      MECN     C2       CG1N1    0.360000       12.0110           0
     24437 WT11     276      MECN     N3       NG1T1   -0.460000       14.0070           0
     24438 WT11     279      MECN     C1       CG331   -0.170000       12.0110           0
     24439 WT11     279      MECN     H11      HGA3     0.090000        1.0080           0
     24440 WT11     279      MECN     H12      HGA3     0.090000        1.0080           0
     24441 WT11     279      MECN     H13      HGA3     0.090000        1.0080           0
     24442 WT11     279      MECN     C2       CG1N1    0.360000       12.0110           0
     24443 WT11     279      MECN     N3       NG1T1   -0.460000       14.0070           0
     24444 WT11     280      MECN     C1       CG331   -0.170000       12.0110           0
     24445 WT11     280      MECN     H11      HGA3     0.090000        1.0080           0
     24446 WT11     280      MECN     H12      HGA3     0.090000        1.0080           0
     24447 WT11     280      MECN     H13      HGA3     0.090000        1.0080           0
     24448 WT11     280      MECN     C2       CG1N1    0.360000       12.0110           0
     24449 WT11     280      MECN     N3       NG1T1   -0.460000       14.0070           0
     24450 WT11     286      MECN     C1       CG331   -0.170000       12.0110           0
     24451 WT11     286      MECN     H11      HGA3     0.090000        1.0080           0
     24452 WT11     286      MECN     H12      HGA3     0.090000        1.0080           0
     24453 WT11     286      MECN     H13      HGA3     0.090000        1.0080           0
     24454 WT11     286      MECN     C2       CG1N1    0.360000       12.0110           0
     24455 WT11     286      MECN     N3       NG1T1   -0.460000       14.0070           0
     24456 WT11     288      MECN     C1       CG331   -0.170000       12.0110           0
     24457 WT11     288      MECN     H11      HGA3     0.090000        1.0080           0
     24458 WT11     288      MECN     H12      HGA3     0.090000        1.0080           0
     24459 WT11     288      MECN     H13      HGA3     0.090000        1.0080           0
     24460 WT11     288      MECN     C2       CG1N1    0.360000       12.0110           0
     24461 WT11     288      MECN     N3       NG1T1   -0.460000       14.0070           0
     24462 WT11     292      MECN     C1       CG331   -0.170000       12.0110           0
     24463 WT11     292      MECN     H11      HGA3     0.090000        1.0080           0
     24464 WT11     292      MECN     H12      HGA3     0.090000        1.0080           0
     24465 WT11     292      MECN     H13      HGA3     0.090000        1.0080           0
     24466 WT11     292      MECN     C2       CG1N1    0.360000       12.0110           0
     24467 WT11     292      MECN     N3       NG1T1   -0.460000       14.0070           0
     24468 WT11     294      MECN     C1       CG331   -0.170000       12.0110           0
     24469 WT11     294      MECN     H11      HGA3     0.090000        1.0080           0
     24470 WT11     294      MECN     H12      HGA3     0.090000        1.0080           0
     24471 WT11     294      MECN     H13      HGA3     0.090000        1.0080           0
     24472 WT11     294      MECN     C2       CG1N1    0.360000       12.0110           0
     24473 WT11     294      MECN     N3       NG1T1   -0.460000       14.0070           0
     24474 WT11     297      MECN     C1       CG331   -0.170000       12.0110           0
     24475 WT11     297      MECN     H11      HGA3     0.090000        1.0080           0
     24476 WT11     297      MECN     H12      HGA3     0.090000        1.0080           0
     24477 WT11     297      MECN     H13      HGA3     0.090000        1.0080           0
     24478 WT11     297      MECN     C2       CG1N1    0.360000       12.0110           0
     24479 WT11     297      MECN     N3       NG1T1   -0.460000       14.0070           0
     24480 WT11     298      MECN     C1       CG331   -0.170000       12.0110           0
     24481 WT11     298      MECN     H11      HGA3     0.090000        1.0080           0
     24482 WT11     298      MECN     H12      HGA3     0.090000        1.0080           0
     24483 WT11     298      MECN     H13      HGA3     0.090000        1.0080           0
     24484 WT11     298      MECN     C2       CG1N1    0.360000       12.0110           0
     24485 WT11     298      MECN     N3       NG1T1   -0.460000       14.0070           0
     24486 WT11     304      MECN     C1       CG331   -0.170000       12.0110           0
     24487 WT11     304      MECN     H11      HGA3     0.090000        1.0080           0
     24488 WT11     304      MECN     H12      HGA3     0.090000        1.0080           0
     24489 WT11     304      MECN     H13      HGA3     0.090000        1.0080           0
     24490 WT11     304      MECN     C2       CG1N1    0.360000       12.0110           0
     24491 WT11     304      MECN     N3       NG1T1   -0.460000       14.0070           0
     24492 WT11     310      MECN     C1       CG331   -0.170000       12.0110           0
     24493 WT11     310      MECN     H11      HGA3     0.090000        1.0080           0
     24494 WT11     310      MECN     H12      HGA3     0.090000        1.0080           0
     24495 WT11     310      MECN     H13      HGA3     0.090000        1.0080           0
     24496 WT11     310      MECN     C2       CG1N1    0.360000       12.0110           0
     24497 WT11     310      MECN     N3       NG1T1   -0.460000       14.0070           0
     24498 WT11     316      MECN     C1       CG331   -0.170000       12.0110           0
     24499 WT11     316      MECN     H11      HGA3     0.090000        1.0080           0
     24500 WT11     316      MECN     H12      HGA3     0.090000        1.0080           0
     24501 WT11     316      MECN     H13      HGA3     0.090000        1.0080           0
     24502 WT11     316      MECN     C2       CG1N1    0.360000       12.0110           0
     24503 WT11     316      MECN     N3       NG1T1   -0.460000       14.0070           0
     24504 WT11     317      MECN     C1       CG331   -0.170000       12.0110           0
     24505 WT11     317      MECN     H11      HGA3     0.090000        1.0080           0
     24506 WT11     317      MECN     H12      HGA3     0.090000        1.0080           0
     24507 WT11     317      MECN     H13      HGA3     0.090000        1.0080           0
     24508 WT11     317      MECN     C2       CG1N1    0.360000       12.0110           0
     24509 WT11     317      MECN     N3       NG1T1   -0.460000       14.0070           0
     24510 WT11     318      MECN     C1       CG331   -0.170000       12.0110           0
     24511 WT11     318      MECN     H11      HGA3     0.090000        1.0080           0
     24512 WT11     318      MECN     H12      HGA3     0.090000        1.0080           0
     24513 WT11     318      MECN     H13      HGA3     0.090000        1.0080           0
     24514 WT11     318      MECN     C2       CG1N1    0.360000       12.0110           0
     24515 WT11     318      MECN     N3       NG1T1   -0.460000       14.0070           0
     24516 WT11     321      MECN     C1       CG331   -0.170000       12.0110           0
     24517 WT11     321      MECN     H11      HGA3     0.090000        1.0080           0
     24518 WT11     321      MECN     H12      HGA3     0.090000        1.0080           0
     24519 WT11     321      MECN     H13      HGA3     0.090000        1.0080           0
     24520 WT11     321      MECN     C2       CG1N1    0.360000       12.0110           0
     24521 WT11     321      MECN     N3       NG1T1   -0.460000       14.0070           0
     24522 WT11     322      MECN     C1       CG331   -0.170000       12.0110           0
     24523 WT11     322      MECN     H11      HGA3     0.090000        1.0080           0
     24524 WT11     322      MECN     H12      HGA3     0.090000        1.0080           0
     24525 WT11     322      MECN     H13      HGA3     0.090000        1.0080           0
     24526 WT11     322      MECN     C2       CG1N1    0.360000       12.0110           0
     24527 WT11     322      MECN     N3       NG1T1   -0.460000       14.0070           0
     24528 WT11     325      MECN     C1       CG331   -0.170000       12.0110           0
     24529 WT11     325      MECN     H11      HGA3     0.090000        1.0080           0
     24530 WT11     325      MECN     H12      HGA3     0.090000        1.0080           0
     24531 WT11     325      MECN     H13      HGA3     0.090000        1.0080           0
     24532 WT11     325      MECN     C2       CG1N1    0.360000       12.0110           0
     24533 WT11     325      MECN     N3       NG1T1   -0.460000       14.0070           0
     24534 WT11     327      MECN     C1       CG331   -0.170000       12.0110           0
     24535 WT11     327      MECN     H11      HGA3     0.090000        1.0080           0
     24536 WT11     327      MECN     H12      HGA3     0.090000        1.0080           0
     24537 WT11     327      MECN     H13      HGA3     0.090000        1.0080           0
     24538 WT11     327      MECN     C2       CG1N1    0.360000       12.0110           0
     24539 WT11     327      MECN     N3       NG1T1   -0.460000       14.0070           0
     24540 WT11     328      MECN     C1       CG331   -0.170000       12.0110           0
     24541 WT11     328      MECN     H11      HGA3     0.090000        1.0080           0
     24542 WT11     328      MECN     H12      HGA3     0.090000        1.0080           0
     24543 WT11     328      MECN     H13      HGA3     0.090000        1.0080           0
     24544 WT11     328      MECN     C2       CG1N1    0.360000       12.0110           0
     24545 WT11     328      MECN     N3       NG1T1   -0.460000       14.0070           0
     24546 WT11     329      MECN     C1       CG331   -0.170000       12.0110           0
     24547 WT11     329      MECN     H11      HGA3     0.090000        1.0080           0
     24548 WT11     329      MECN     H12      HGA3     0.090000        1.0080           0
     24549 WT11     329      MECN     H13      HGA3     0.090000        1.0080           0
     24550 WT11     329      MECN     C2       CG1N1    0.360000       12.0110           0
     24551 WT11     329      MECN     N3       NG1T1   -0.460000       14.0070           0
     24552 WT11     331      MECN     C1       CG331   -0.170000       12.0110           0
     24553 WT11     331      MECN     H11      HGA3     0.090000        1.0080           0
     24554 WT11     331      MECN     H12      HGA3     0.090000        1.0080           0
     24555 WT11     331      MECN     H13      HGA3     0.090000        1.0080           0
     24556 WT11     331      MECN     C2       CG1N1    0.360000       12.0110           0
     24557 WT11     331      MECN     N3       NG1T1   -0.460000       14.0070           0
     24558 WT11     336      MECN     C1       CG331   -0.170000       12.0110           0
     24559 WT11     336      MECN     H11      HGA3     0.090000        1.0080           0
     24560 WT11     336      MECN     H12      HGA3     0.090000        1.0080           0
     24561 WT11     336      MECN     H13      HGA3     0.090000        1.0080           0
     24562 WT11     336      MECN     C2       CG1N1    0.360000       12.0110           0
     24563 WT11     336      MECN     N3       NG1T1   -0.460000       14.0070           0
     24564 WT11     337      MECN     C1       CG331   -0.170000       12.0110           0
     24565 WT11     337      MECN     H11      HGA3     0.090000        1.0080           0
     24566 WT11     337      MECN     H12      HGA3     0.090000        1.0080           0
     24567 WT11     337      MECN     H13      HGA3     0.090000        1.0080           0
     24568 WT11     337      MECN     C2       CG1N1    0.360000       12.0110           0
     24569 WT11     337      MECN     N3       NG1T1   -0.460000       14.0070           0
     24570 WT11     338      MECN     C1       CG331   -0.170000       12.0110           0
     24571 WT11     338      MECN     H11      HGA3     0.090000        1.0080           0
     24572 WT11     338      MECN     H12      HGA3     0.090000        1.0080           0
     24573 WT11     338      MECN     H13      HGA3     0.090000        1.0080           0
     24574 WT11     338      MECN     C2       CG1N1    0.360000       12.0110           0
     24575 WT11     338      MECN     N3       NG1T1   -0.460000       14.0070           0
     24576 WT11     340      MECN     C1       CG331   -0.170000       12.0110           0
     24577 WT11     340      MECN     H11      HGA3     0.090000        1.0080           0
     24578 WT11     340      MECN     H12      HGA3     0.090000        1.0080           0
     24579 WT11     340      MECN     H13      HGA3     0.090000        1.0080           0
     24580 WT11     340      MECN     C2       CG1N1    0.360000       12.0110           0
     24581 WT11     340      MECN     N3       NG1T1   -0.460000       14.0070           0
     24582 WT11     341      MECN     C1       CG331   -0.170000       12.0110           0
     24583 WT11     341      MECN     H11      HGA3     0.090000        1.0080           0
     24584 WT11     341      MECN     H12      HGA3     0.090000        1.0080           0
     24585 WT11     341      MECN     H13      HGA3     0.090000        1.0080           0
     24586 WT11     341      MECN     C2       CG1N1    0.360000       12.0110           0
     24587 WT11     341      MECN     N3       NG1T1   -0.460000       14.0070           0
     24588 WT11     342      MECN     C1       CG331   -0.170000       12.0110           0
     24589 WT11     342      MECN     H11      HGA3     0.090000        1.0080           0
     24590 WT11     342      MECN     H12      HGA3     0.090000        1.0080           0
     24591 WT11     342      MECN     H13      HGA3     0.090000        1.0080           0
     24592 WT11     342      MECN     C2       CG1N1    0.360000       12.0110           0
     24593 WT11     342      MECN     N3       NG1T1   -0.460000       14.0070           0
     24594 WT11     343      MECN     C1       CG331   -0.170000       12.0110           0
     24595 WT11     343      MECN     H11      HGA3     0.090000        1.0080           0
     24596 WT11     343      MECN     H12      HGA3     0.090000        1.0080           0
     24597 WT11     343      MECN     H13      HGA3     0.090000        1.0080           0
     24598 WT11     343      MECN     C2       CG1N1    0.360000       12.0110           0
     24599 WT11     343      MECN     N3       NG1T1   -0.460000       14.0070           0
     24600 WT11     344      MECN     C1       CG331   -0.170000       12.0110           0
     24601 WT11     344      MECN     H11      HGA3     0.090000        1.0080           0
     24602 WT11     344      MECN     H12      HGA3     0.090000        1.0080           0
     24603 WT11     344      MECN     H13      HGA3     0.090000        1.0080           0
     24604 WT11     344      MECN     C2       CG1N1    0.360000       12.0110           0
     24605 WT11     344      MECN     N3       NG1T1   -0.460000       14.0070           0
     24606 WT11     349      MECN     C1       CG331   -0.170000       12.0110           0
     24607 WT11     349      MECN     H11      HGA3     0.090000        1.0080           0
     24608 WT11     349      MECN     H12      HGA3     0.090000        1.0080           0
     24609 WT11     349      MECN     H13      HGA3     0.090000        1.0080           0
     24610 WT11     349      MECN     C2       CG1N1    0.360000       12.0110           0
     24611 WT11     349      MECN     N3       NG1T1   -0.460000       14.0070           0
     24612 WT11     358      MECN     C1       CG331   -0.170000       12.0110           0
     24613 WT11     358      MECN     H11      HGA3     0.090000        1.0080           0
     24614 WT11     358      MECN     H12      HGA3     0.090000        1.0080           0
     24615 WT11     358      MECN     H13      HGA3     0.090000        1.0080           0
     24616 WT11     358      MECN     C2       CG1N1    0.360000       12.0110           0
     24617 WT11     358      MECN     N3       NG1T1   -0.460000       14.0070           0
     24618 WT11     359      MECN     C1       CG331   -0.170000       12.0110           0
     24619 WT11     359      MECN     H11      HGA3     0.090000        1.0080           0
     24620 WT11     359      MECN     H12      HGA3     0.090000        1.0080           0
     24621 WT11     359      MECN     H13      HGA3     0.090000        1.0080           0
     24622 WT11     359      MECN     C2       CG1N1    0.360000       12.0110           0
     24623 WT11     359      MECN     N3       NG1T1   -0.460000       14.0070           0
     24624 WT11     361      MECN     C1       CG331   -0.170000       12.0110           0
     24625 WT11     361      MECN     H11      HGA3     0.090000        1.0080           0
     24626 WT11     361      MECN     H12      HGA3     0.090000        1.0080           0
     24627 WT11     361      MECN     H13      HGA3     0.090000        1.0080           0
     24628 WT11     361      MECN     C2       CG1N1    0.360000       12.0110           0
     24629 WT11     361      MECN     N3       NG1T1   -0.460000       14.0070           0
     24630 WT11     366      MECN     C1       CG331   -0.170000       12.0110           0
     24631 WT11     366      MECN     H11      HGA3     0.090000        1.0080           0
     24632 WT11     366      MECN     H12      HGA3     0.090000        1.0080           0
     24633 WT11     366      MECN     H13      HGA3     0.090000        1.0080           0
     24634 WT11     366      MECN     C2       CG1N1    0.360000       12.0110           0
     24635 WT11     366      MECN     N3       NG1T1   -0.460000       14.0070           0
     24636 WT11     367      MECN     C1       CG331   -0.170000       12.0110           0
     24637 WT11     367      MECN     H11      HGA3     0.090000        1.0080           0
     24638 WT11     367      MECN     H12      HGA3     0.090000        1.0080           0
     24639 WT11     367      MECN     H13      HGA3     0.090000        1.0080           0
     24640 WT11     367      MECN     C2       CG1N1    0.360000       12.0110           0
     24641 WT11     367      MECN     N3       NG1T1   -0.460000       14.0070           0
     24642 WT11     378      MECN     C1       CG331   -0.170000       12.0110           0
     24643 WT11     378      MECN     H11      HGA3     0.090000        1.0080           0
     24644 WT11     378      MECN     H12      HGA3     0.090000        1.0080           0
     24645 WT11     378      MECN     H13      HGA3     0.090000        1.0080           0
     24646 WT11     378      MECN     C2       CG1N1    0.360000       12.0110           0
     24647 WT11     378      MECN     N3       NG1T1   -0.460000       14.0070           0
     24648 WT11     381      MECN     C1       CG331   -0.170000       12.0110           0
     24649 WT11     381      MECN     H11      HGA3     0.090000        1.0080           0
     24650 WT11     381      MECN     H12      HGA3     0.090000        1.0080           0
     24651 WT11     381      MECN     H13      HGA3     0.090000        1.0080           0
     24652 WT11     381      MECN     C2       CG1N1    0.360000       12.0110           0
     24653 WT11     381      MECN     N3       NG1T1   -0.460000       14.0070           0
     24654 WT11     382      MECN     C1       CG331   -0.170000       12.0110           0
     24655 WT11     382      MECN     H11      HGA3     0.090000        1.0080           0
     24656 WT11     382      MECN     H12      HGA3     0.090000        1.0080           0
     24657 WT11     382      MECN     H13      HGA3     0.090000        1.0080           0
     24658 WT11     382      MECN     C2       CG1N1    0.360000       12.0110           0
     24659 WT11     382      MECN     N3       NG1T1   -0.460000       14.0070           0
     24660 WT11     385      MECN     C1       CG331   -0.170000       12.0110           0
     24661 WT11     385      MECN     H11      HGA3     0.090000        1.0080           0
     24662 WT11     385      MECN     H12      HGA3     0.090000        1.0080           0
     24663 WT11     385      MECN     H13      HGA3     0.090000        1.0080           0
     24664 WT11     385      MECN     C2       CG1N1    0.360000       12.0110           0
     24665 WT11     385      MECN     N3       NG1T1   -0.460000       14.0070           0
     24666 WT11     387      MECN     C1       CG331   -0.170000       12.0110           0
     24667 WT11     387      MECN     H11      HGA3     0.090000        1.0080           0
     24668 WT11     387      MECN     H12      HGA3     0.090000        1.0080           0
     24669 WT11     387      MECN     H13      HGA3     0.090000        1.0080           0
     24670 WT11     387      MECN     C2       CG1N1    0.360000       12.0110           0
     24671 WT11     387      MECN     N3       NG1T1   -0.460000       14.0070           0
     24672 WT11     392      MECN     C1       CG331   -0.170000       12.0110           0
     24673 WT11     392      MECN     H11      HGA3     0.090000        1.0080           0
     24674 WT11     392      MECN     H12      HGA3     0.090000        1.0080           0
     24675 WT11     392      MECN     H13      HGA3     0.090000        1.0080           0
     24676 WT11     392      MECN     C2       CG1N1    0.360000       12.0110           0
     24677 WT11     392      MECN     N3       NG1T1   -0.460000       14.0070           0
     24678 WT11     393      MECN     C1       CG331   -0.170000       12.0110           0
     24679 WT11     393      MECN     H11      HGA3     0.090000        1.0080           0
     24680 WT11     393      MECN     H12      HGA3     0.090000        1.0080           0
     24681 WT11     393      MECN     H13      HGA3     0.090000        1.0080           0
     24682 WT11     393      MECN     C2       CG1N1    0.360000       12.0110           0
     24683 WT11     393      MECN     N3       NG1T1   -0.460000       14.0070           0
     24684 WT11     396      MECN     C1       CG331   -0.170000       12.0110           0
     24685 WT11     396      MECN     H11      HGA3     0.090000        1.0080           0
     24686 WT11     396      MECN     H12      HGA3     0.090000        1.0080           0
     24687 WT11     396      MECN     H13      HGA3     0.090000        1.0080           0
     24688 WT11     396      MECN     C2       CG1N1    0.360000       12.0110           0
     24689 WT11     396      MECN     N3       NG1T1   -0.460000       14.0070           0
     24690 WT11     400      MECN     C1       CG331   -0.170000       12.0110           0
     24691 WT11     400      MECN     H11      HGA3     0.090000        1.0080           0
     24692 WT11     400      MECN     H12      HGA3     0.090000        1.0080           0
     24693 WT11     400      MECN     H13      HGA3     0.090000        1.0080           0
     24694 WT11     400      MECN     C2       CG1N1    0.360000       12.0110           0
     24695 WT11     400      MECN     N3       NG1T1   -0.460000       14.0070           0
     24696 WT11     403      MECN     C1       CG331   -0.170000       12.0110           0
     24697 WT11     403      MECN     H11      HGA3     0.090000        1.0080           0
     24698 WT11     403      MECN     H12      HGA3     0.090000        1.0080           0
     24699 WT11     403      MECN     H13      HGA3     0.090000        1.0080           0
     24700 WT11     403      MECN     C2       CG1N1    0.360000       12.0110           0
     24701 WT11     403      MECN     N3       NG1T1   -0.460000       14.0070           0
     24702 WT11     406      MECN     C1       CG331   -0.170000       12.0110           0
     24703 WT11     406      MECN     H11      HGA3     0.090000        1.0080           0
     24704 WT11     406      MECN     H12      HGA3     0.090000        1.0080           0
     24705 WT11     406      MECN     H13      HGA3     0.090000        1.0080           0
     24706 WT11     406      MECN     C2       CG1N1    0.360000       12.0110           0
     24707 WT11     406      MECN     N3       NG1T1   -0.460000       14.0070           0
     24708 WT11     408      MECN     C1       CG331   -0.170000       12.0110           0
     24709 WT11     408      MECN     H11      HGA3     0.090000        1.0080           0
     24710 WT11     408      MECN     H12      HGA3     0.090000        1.0080           0
     24711 WT11     408      MECN     H13      HGA3     0.090000        1.0080           0
     24712 WT11     408      MECN     C2       CG1N1    0.360000       12.0110           0
     24713 WT11     408      MECN     N3       NG1T1   -0.460000       14.0070           0
     24714 WT11     410      MECN     C1       CG331   -0.170000       12.0110           0
     24715 WT11     410      MECN     H11      HGA3     0.090000        1.0080           0
     24716 WT11     410      MECN     H12      HGA3     0.090000        1.0080           0
     24717 WT11     410      MECN     H13      HGA3     0.090000        1.0080           0
     24718 WT11     410      MECN     C2       CG1N1    0.360000       12.0110           0
     24719 WT11     410      MECN     N3       NG1T1   -0.460000       14.0070           0
     24720 WT11     411      MECN     C1       CG331   -0.170000       12.0110           0
     24721 WT11     411      MECN     H11      HGA3     0.090000        1.0080           0
     24722 WT11     411      MECN     H12      HGA3     0.090000        1.0080           0
     24723 WT11     411      MECN     H13      HGA3     0.090000        1.0080           0
     24724 WT11     411      MECN     C2       CG1N1    0.360000       12.0110           0
     24725 WT11     411      MECN     N3       NG1T1   -0.460000       14.0070           0
     24726 WT11     418      MECN     C1       CG331   -0.170000       12.0110           0
     24727 WT11     418      MECN     H11      HGA3     0.090000        1.0080           0
     24728 WT11     418      MECN     H12      HGA3     0.090000        1.0080           0
     24729 WT11     418      MECN     H13      HGA3     0.090000        1.0080           0
     24730 WT11     418      MECN     C2       CG1N1    0.360000       12.0110           0
     24731 WT11     418      MECN     N3       NG1T1   -0.460000       14.0070           0
     24732 WT11     419      MECN     C1       CG331   -0.170000       12.0110           0
     24733 WT11     419      MECN     H11      HGA3     0.090000        1.0080           0
     24734 WT11     419      MECN     H12      HGA3     0.090000        1.0080           0
     24735 WT11     419      MECN     H13      HGA3     0.090000        1.0080           0
     24736 WT11     419      MECN     C2       CG1N1    0.360000       12.0110           0
     24737 WT11     419      MECN     N3       NG1T1   -0.460000       14.0070           0
     24738 WT11     420      MECN     C1       CG331   -0.170000       12.0110           0
     24739 WT11     420      MECN     H11      HGA3     0.090000        1.0080           0
     24740 WT11     420      MECN     H12      HGA3     0.090000        1.0080           0
     24741 WT11     420      MECN     H13      HGA3     0.090000        1.0080           0
     24742 WT11     420      MECN     C2       CG1N1    0.360000       12.0110           0
     24743 WT11     420      MECN     N3       NG1T1   -0.460000       14.0070           0
     24744 WT11     422      MECN     C1       CG331   -0.170000       12.0110           0
     24745 WT11     422      MECN     H11      HGA3     0.090000        1.0080           0
     24746 WT11     422      MECN     H12      HGA3     0.090000        1.0080           0
     24747 WT11     422      MECN     H13      HGA3     0.090000        1.0080           0
     24748 WT11     422      MECN     C2       CG1N1    0.360000       12.0110           0
     24749 WT11     422      MECN     N3       NG1T1   -0.460000       14.0070           0
     24750 WT11     423      MECN     C1       CG331   -0.170000       12.0110           0
     24751 WT11     423      MECN     H11      HGA3     0.090000        1.0080           0
     24752 WT11     423      MECN     H12      HGA3     0.090000        1.0080           0
     24753 WT11     423      MECN     H13      HGA3     0.090000        1.0080           0
     24754 WT11     423      MECN     C2       CG1N1    0.360000       12.0110           0
     24755 WT11     423      MECN     N3       NG1T1   -0.460000       14.0070           0
     24756 WT11     427      MECN     C1       CG331   -0.170000       12.0110           0
     24757 WT11     427      MECN     H11      HGA3     0.090000        1.0080           0
     24758 WT11     427      MECN     H12      HGA3     0.090000        1.0080           0
     24759 WT11     427      MECN     H13      HGA3     0.090000        1.0080           0
     24760 WT11     427      MECN     C2       CG1N1    0.360000       12.0110           0
     24761 WT11     427      MECN     N3       NG1T1   -0.460000       14.0070           0
     24762 WT11     435      MECN     C1       CG331   -0.170000       12.0110           0
     24763 WT11     435      MECN     H11      HGA3     0.090000        1.0080           0
     24764 WT11     435      MECN     H12      HGA3     0.090000        1.0080           0
     24765 WT11     435      MECN     H13      HGA3     0.090000        1.0080           0
     24766 WT11     435      MECN     C2       CG1N1    0.360000       12.0110           0
     24767 WT11     435      MECN     N3       NG1T1   -0.460000       14.0070           0
     24768 WT11     441      MECN     C1       CG331   -0.170000       12.0110           0
     24769 WT11     441      MECN     H11      HGA3     0.090000        1.0080           0
     24770 WT11     441      MECN     H12      HGA3     0.090000        1.0080           0
     24771 WT11     441      MECN     H13      HGA3     0.090000        1.0080           0
     24772 WT11     441      MECN     C2       CG1N1    0.360000       12.0110           0
     24773 WT11     441      MECN     N3       NG1T1   -0.460000       14.0070           0
     24774 WT11     445      MECN     C1       CG331   -0.170000       12.0110           0
     24775 WT11     445      MECN     H11      HGA3     0.090000        1.0080           0
     24776 WT11     445      MECN     H12      HGA3     0.090000        1.0080           0
     24777 WT11     445      MECN     H13      HGA3     0.090000        1.0080           0
     24778 WT11     445      MECN     C2       CG1N1    0.360000       12.0110           0
     24779 WT11     445      MECN     N3       NG1T1   -0.460000       14.0070           0
     24780 WT11     446      MECN     C1       CG331   -0.170000       12.0110           0
     24781 WT11     446      MECN     H11      HGA3     0.090000        1.0080           0
     24782 WT11     446      MECN     H12      HGA3     0.090000        1.0080           0
     24783 WT11     446      MECN     H13      HGA3     0.090000        1.0080           0
     24784 WT11     446      MECN     C2       CG1N1    0.360000       12.0110           0
     24785 WT11     446      MECN     N3       NG1T1   -0.460000       14.0070           0
     24786 WT11     448      MECN     C1       CG331   -0.170000       12.0110           0
     24787 WT11     448      MECN     H11      HGA3     0.090000        1.0080           0
     24788 WT11     448      MECN     H12      HGA3     0.090000        1.0080           0
     24789 WT11     448      MECN     H13      HGA3     0.090000        1.0080           0
     24790 WT11     448      MECN     C2       CG1N1    0.360000       12.0110           0
     24791 WT11     448      MECN     N3       NG1T1   -0.460000       14.0070           0
     24792 WT11     450      MECN     C1       CG331   -0.170000       12.0110           0
     24793 WT11     450      MECN     H11      HGA3     0.090000        1.0080           0
     24794 WT11     450      MECN     H12      HGA3     0.090000        1.0080           0
     24795 WT11     450      MECN     H13      HGA3     0.090000        1.0080           0
     24796 WT11     450      MECN     C2       CG1N1    0.360000       12.0110           0
     24797 WT11     450      MECN     N3       NG1T1   -0.460000       14.0070           0
     24798 WT11     452      MECN     C1       CG331   -0.170000       12.0110           0
     24799 WT11     452      MECN     H11      HGA3     0.090000        1.0080           0
     24800 WT11     452      MECN     H12      HGA3     0.090000        1.0080           0
     24801 WT11     452      MECN     H13      HGA3     0.090000        1.0080           0
     24802 WT11     452      MECN     C2       CG1N1    0.360000       12.0110           0
     24803 WT11     452      MECN     N3       NG1T1   -0.460000       14.0070           0
     24804 WT11     457      MECN     C1       CG331   -0.170000       12.0110           0
     24805 WT11     457      MECN     H11      HGA3     0.090000        1.0080           0
     24806 WT11     457      MECN     H12      HGA3     0.090000        1.0080           0
     24807 WT11     457      MECN     H13      HGA3     0.090000        1.0080           0
     24808 WT11     457      MECN     C2       CG1N1    0.360000       12.0110           0
     24809 WT11     457      MECN     N3       NG1T1   -0.460000       14.0070           0
     24810 WT11     458      MECN     C1       CG331   -0.170000       12.0110           0
     24811 WT11     458      MECN     H11      HGA3     0.090000        1.0080           0
     24812 WT11     458      MECN     H12      HGA3     0.090000        1.0080           0
     24813 WT11     458      MECN     H13      HGA3     0.090000        1.0080           0
     24814 WT11     458      MECN     C2       CG1N1    0.360000       12.0110           0
     24815 WT11     458      MECN     N3       NG1T1   -0.460000       14.0070           0
     24816 WT11     460      MECN     C1       CG331   -0.170000       12.0110           0
     24817 WT11     460      MECN     H11      HGA3     0.090000        1.0080           0
     24818 WT11     460      MECN     H12      HGA3     0.090000        1.0080           0
     24819 WT11     460      MECN     H13      HGA3     0.090000        1.0080           0
     24820 WT11     460      MECN     C2       CG1N1    0.360000       12.0110           0
     24821 WT11     460      MECN     N3       NG1T1   -0.460000       14.0070           0
     24822 WT11     461      MECN     C1       CG331   -0.170000       12.0110           0
     24823 WT11     461      MECN     H11      HGA3     0.090000        1.0080           0
     24824 WT11     461      MECN     H12      HGA3     0.090000        1.0080           0
     24825 WT11     461      MECN     H13      HGA3     0.090000        1.0080           0
     24826 WT11     461      MECN     C2       CG1N1    0.360000       12.0110           0
     24827 WT11     461      MECN     N3       NG1T1   -0.460000       14.0070           0
     24828 WT11     467      MECN     C1       CG331   -0.170000       12.0110           0
     24829 WT11     467      MECN     H11      HGA3     0.090000        1.0080           0
     24830 WT11     467      MECN     H12      HGA3     0.090000        1.0080           0
     24831 WT11     467      MECN     H13      HGA3     0.090000        1.0080           0
     24832 WT11     467      MECN     C2       CG1N1    0.360000       12.0110           0
     24833 WT11     467      MECN     N3       NG1T1   -0.460000       14.0070           0
     24834 WT11     468      MECN     C1       CG331   -0.170000       12.0110           0
     24835 WT11     468      MECN     H11      HGA3     0.090000        1.0080           0
     24836 WT11     468      MECN     H12      HGA3     0.090000        1.0080           0
     24837 WT11     468      MECN     H13      HGA3     0.090000        1.0080           0
     24838 WT11     468      MECN     C2       CG1N1    0.360000       12.0110           0
     24839 WT11     468      MECN     N3       NG1T1   -0.460000       14.0070           0
     24840 WT11     471      MECN     C1       CG331   -0.170000       12.0110           0
     24841 WT11     471      MECN     H11      HGA3     0.090000        1.0080           0
     24842 WT11     471      MECN     H12      HGA3     0.090000        1.0080           0
     24843 WT11     471      MECN     H13      HGA3     0.090000        1.0080           0
     24844 WT11     471      MECN     C2       CG1N1    0.360000       12.0110           0
     24845 WT11     471      MECN     N3       NG1T1   -0.460000       14.0070           0
     24846 WT11     475      MECN     C1       CG331   -0.170000       12.0110           0
     24847 WT11     475      MECN     H11      HGA3     0.090000        1.0080           0
     24848 WT11     475      MECN     H12      HGA3     0.090000        1.0080           0
     24849 WT11     475      MECN     H13      HGA3     0.090000        1.0080           0
     24850 WT11     475      MECN     C2       CG1N1    0.360000       12.0110           0
     24851 WT11     475      MECN     N3       NG1T1   -0.460000       14.0070           0
     24852 WT11     476      MECN     C1       CG331   -0.170000       12.0110           0
     24853 WT11     476      MECN     H11      HGA3     0.090000        1.0080           0
     24854 WT11     476      MECN     H12      HGA3     0.090000        1.0080           0
     24855 WT11     476      MECN     H13      HGA3     0.090000        1.0080           0
     24856 WT11     476      MECN     C2       CG1N1    0.360000       12.0110           0
     24857 WT11     476      MECN     N3       NG1T1   -0.460000       14.0070           0
     24858 WT11     482      MECN     C1       CG331   -0.170000       12.0110           0
     24859 WT11     482      MECN     H11      HGA3     0.090000        1.0080           0
     24860 WT11     482      MECN     H12      HGA3     0.090000        1.0080           0
     24861 WT11     482      MECN     H13      HGA3     0.090000        1.0080           0
     24862 WT11     482      MECN     C2       CG1N1    0.360000       12.0110           0
     24863 WT11     482      MECN     N3       NG1T1   -0.460000       14.0070           0
     24864 WT11     485      MECN     C1       CG331   -0.170000       12.0110           0
     24865 WT11     485      MECN     H11      HGA3     0.090000        1.0080           0
     24866 WT11     485      MECN     H12      HGA3     0.090000        1.0080           0
     24867 WT11     485      MECN     H13      HGA3     0.090000        1.0080           0
     24868 WT11     485      MECN     C2       CG1N1    0.360000       12.0110           0
     24869 WT11     485      MECN     N3       NG1T1   -0.460000       14.0070           0
     24870 WT11     486      MECN     C1       CG331   -0.170000       12.0110           0
     24871 WT11     486      MECN     H11      HGA3     0.090000        1.0080           0
     24872 WT11     486      MECN     H12      HGA3     0.090000        1.0080           0
     24873 WT11     486      MECN     H13      HGA3     0.090000        1.0080           0
     24874 WT11     486      MECN     C2       CG1N1    0.360000       12.0110           0
     24875 WT11     486      MECN     N3       NG1T1   -0.460000       14.0070           0
     24876 WT11     489      MECN     C1       CG331   -0.170000       12.0110           0
     24877 WT11     489      MECN     H11      HGA3     0.090000        1.0080           0
     24878 WT11     489      MECN     H12      HGA3     0.090000        1.0080           0
     24879 WT11     489      MECN     H13      HGA3     0.090000        1.0080           0
     24880 WT11     489      MECN     C2       CG1N1    0.360000       12.0110           0
     24881 WT11     489      MECN     N3       NG1T1   -0.460000       14.0070           0
     24882 WT11     490      MECN     C1       CG331   -0.170000       12.0110           0
     24883 WT11     490      MECN     H11      HGA3     0.090000        1.0080           0
     24884 WT11     490      MECN     H12      HGA3     0.090000        1.0080           0
     24885 WT11     490      MECN     H13      HGA3     0.090000        1.0080           0
     24886 WT11     490      MECN     C2       CG1N1    0.360000       12.0110           0
     24887 WT11     490      MECN     N3       NG1T1   -0.460000       14.0070           0
     24888 WT11     492      MECN     C1       CG331   -0.170000       12.0110           0
     24889 WT11     492      MECN     H11      HGA3     0.090000        1.0080           0
     24890 WT11     492      MECN     H12      HGA3     0.090000        1.0080           0
     24891 WT11     492      MECN     H13      HGA3     0.090000        1.0080           0
     24892 WT11     492      MECN     C2       CG1N1    0.360000       12.0110           0
     24893 WT11     492      MECN     N3       NG1T1   -0.460000       14.0070           0
     24894 WT11     493      MECN     C1       CG331   -0.170000       12.0110           0
     24895 WT11     493      MECN     H11      HGA3     0.090000        1.0080           0
     24896 WT11     493      MECN     H12      HGA3     0.090000        1.0080           0
     24897 WT11     493      MECN     H13      HGA3     0.090000        1.0080           0
     24898 WT11     493      MECN     C2       CG1N1    0.360000       12.0110           0
     24899 WT11     493      MECN     N3       NG1T1   -0.460000       14.0070           0
     24900 WT11     495      MECN     C1       CG331   -0.170000       12.0110           0
     24901 WT11     495      MECN     H11      HGA3     0.090000        1.0080           0
     24902 WT11     495      MECN     H12      HGA3     0.090000        1.0080           0
     24903 WT11     495      MECN     H13      HGA3     0.090000        1.0080           0
     24904 WT11     495      MECN     C2       CG1N1    0.360000       12.0110           0
     24905 WT11     495      MECN     N3       NG1T1   -0.460000       14.0070           0
     24906 WT11     498      MECN     C1       CG331   -0.170000       12.0110           0
     24907 WT11     498      MECN     H11      HGA3     0.090000        1.0080           0
     24908 WT11     498      MECN     H12      HGA3     0.090000        1.0080           0
     24909 WT11     498      MECN     H13      HGA3     0.090000        1.0080           0
     24910 WT11     498      MECN     C2       CG1N1    0.360000       12.0110           0
     24911 WT11     498      MECN     N3       NG1T1   -0.460000       14.0070           0
     24912 WT11     499      MECN     C1       CG331   -0.170000       12.0110           0
     24913 WT11     499      MECN     H11      HGA3     0.090000        1.0080           0
     24914 WT11     499      MECN     H12      HGA3     0.090000        1.0080           0
     24915 WT11     499      MECN     H13      HGA3     0.090000        1.0080           0
     24916 WT11     499      MECN     C2       CG1N1    0.360000       12.0110           0
     24917 WT11     499      MECN     N3       NG1T1   -0.460000       14.0070           0
     24918 WT11     501      MECN     C1       CG331   -0.170000       12.0110           0
     24919 WT11     501      MECN     H11      HGA3     0.090000        1.0080           0
     24920 WT11     501      MECN     H12      HGA3     0.090000        1.0080           0
     24921 WT11     501      MECN     H13      HGA3     0.090000        1.0080           0
     24922 WT11     501      MECN     C2       CG1N1    0.360000       12.0110           0
     24923 WT11     501      MECN     N3       NG1T1   -0.460000       14.0070           0
     24924 WT11     504      MECN     C1       CG331   -0.170000       12.0110           0
     24925 WT11     504      MECN     H11      HGA3     0.090000        1.0080           0
     24926 WT11     504      MECN     H12      HGA3     0.090000        1.0080           0
     24927 WT11     504      MECN     H13      HGA3     0.090000        1.0080           0
     24928 WT11     504      MECN     C2       CG1N1    0.360000       12.0110           0
     24929 WT11     504      MECN     N3       NG1T1   -0.460000       14.0070           0
     24930 WT11     506      MECN     C1       CG331   -0.170000       12.0110           0
     24931 WT11     506      MECN     H11      HGA3     0.090000        1.0080           0
     24932 WT11     506      MECN     H12      HGA3     0.090000        1.0080           0
     24933 WT11     506      MECN     H13      HGA3     0.090000        1.0080           0
     24934 WT11     506      MECN     C2       CG1N1    0.360000       12.0110           0
     24935 WT11     506      MECN     N3       NG1T1   -0.460000       14.0070           0
     24936 WT11     507      MECN     C1       CG331   -0.170000       12.0110           0
     24937 WT11     507      MECN     H11      HGA3     0.090000        1.0080           0
     24938 WT11     507      MECN     H12      HGA3     0.090000        1.0080           0
     24939 WT11     507      MECN     H13      HGA3     0.090000        1.0080           0
     24940 WT11     507      MECN     C2       CG1N1    0.360000       12.0110           0
     24941 WT11     507      MECN     N3       NG1T1   -0.460000       14.0070           0
     24942 WT11     509      MECN     C1       CG331   -0.170000       12.0110           0
     24943 WT11     509      MECN     H11      HGA3     0.090000        1.0080           0
     24944 WT11     509      MECN     H12      HGA3     0.090000        1.0080           0
     24945 WT11     509      MECN     H13      HGA3     0.090000        1.0080           0
     24946 WT11     509      MECN     C2       CG1N1    0.360000       12.0110           0
     24947 WT11     509      MECN     N3       NG1T1   -0.460000       14.0070           0
     24948 WT11     513      MECN     C1       CG331   -0.170000       12.0110           0
     24949 WT11     513      MECN     H11      HGA3     0.090000        1.0080           0
     24950 WT11     513      MECN     H12      HGA3     0.090000        1.0080           0
     24951 WT11     513      MECN     H13      HGA3     0.090000        1.0080           0
     24952 WT11     513      MECN     C2       CG1N1    0.360000       12.0110           0
     24953 WT11     513      MECN     N3       NG1T1   -0.460000       14.0070           0
     24954 WT11     520      MECN     C1       CG331   -0.170000       12.0110           0
     24955 WT11     520      MECN     H11      HGA3     0.090000        1.0080           0
     24956 WT11     520      MECN     H12      HGA3     0.090000        1.0080           0
     24957 WT11     520      MECN     H13      HGA3     0.090000        1.0080           0
     24958 WT11     520      MECN     C2       CG1N1    0.360000       12.0110           0
     24959 WT11     520      MECN     N3       NG1T1   -0.460000       14.0070           0
     24960 WT11     521      MECN     C1       CG331   -0.170000       12.0110           0
     24961 WT11     521      MECN     H11      HGA3     0.090000        1.0080           0
     24962 WT11     521      MECN     H12      HGA3     0.090000        1.0080           0
     24963 WT11     521      MECN     H13      HGA3     0.090000        1.0080           0
     24964 WT11     521      MECN     C2       CG1N1    0.360000       12.0110           0
     24965 WT11     521      MECN     N3       NG1T1   -0.460000       14.0070           0
     24966 WT11     522      MECN     C1       CG331   -0.170000       12.0110           0
     24967 WT11     522      MECN     H11      HGA3     0.090000        1.0080           0
     24968 WT11     522      MECN     H12      HGA3     0.090000        1.0080           0
     24969 WT11     522      MECN     H13      HGA3     0.090000        1.0080           0
     24970 WT11     522      MECN     C2       CG1N1    0.360000       12.0110           0
     24971 WT11     522      MECN     N3       NG1T1   -0.460000       14.0070           0
     24972 WT11     523      MECN     C1       CG331   -0.170000       12.0110           0
     24973 WT11     523      MECN     H11      HGA3     0.090000        1.0080           0
     24974 WT11     523      MECN     H12      HGA3     0.090000        1.0080           0
     24975 WT11     523      MECN     H13      HGA3     0.090000        1.0080           0
     24976 WT11     523      MECN     C2       CG1N1    0.360000       12.0110           0
     24977 WT11     523      MECN     N3       NG1T1   -0.460000       14.0070           0
     24978 WT11     528      MECN     C1       CG331   -0.170000       12.0110           0
     24979 WT11     528      MECN     H11      HGA3     0.090000        1.0080           0
     24980 WT11     528      MECN     H12      HGA3     0.090000        1.0080           0
     24981 WT11     528      MECN     H13      HGA3     0.090000        1.0080           0
     24982 WT11     528      MECN     C2       CG1N1    0.360000       12.0110           0
     24983 WT11     528      MECN     N3       NG1T1   -0.460000       14.0070           0
     24984 WT11     529      MECN     C1       CG331   -0.170000       12.0110           0
     24985 WT11     529      MECN     H11      HGA3     0.090000        1.0080           0
     24986 WT11     529      MECN     H12      HGA3     0.090000        1.0080           0
     24987 WT11     529      MECN     H13      HGA3     0.090000        1.0080           0
     24988 WT11     529      MECN     C2       CG1N1    0.360000       12.0110           0
     24989 WT11     529      MECN     N3       NG1T1   -0.460000       14.0070           0
     24990 WT11     530      MECN     C1       CG331   -0.170000       12.0110           0
     24991 WT11     530      MECN     H11      HGA3     0.090000        1.0080           0
     24992 WT11     530      MECN     H12      HGA3     0.090000        1.0080           0
     24993 WT11     530      MECN     H13      HGA3     0.090000        1.0080           0
     24994 WT11     530      MECN     C2       CG1N1    0.360000       12.0110           0
     24995 WT11     530      MECN     N3       NG1T1   -0.460000       14.0070           0
     24996 WT11     531      MECN     C1       CG331   -0.170000       12.0110           0
     24997 WT11     531      MECN     H11      HGA3     0.090000        1.0080           0
     24998 WT11     531      MECN     H12      HGA3     0.090000        1.0080           0
     24999 WT11     531      MECN     H13      HGA3     0.090000        1.0080           0
     25000 WT11     531      MECN     C2       CG1N1    0.360000       12.0110           0
     25001 WT11     531      MECN     N3       NG1T1   -0.460000       14.0070           0
     25002 WT11     532      MECN     C1       CG331   -0.170000       12.0110           0
     25003 WT11     532      MECN     H11      HGA3     0.090000        1.0080           0
     25004 WT11     532      MECN     H12      HGA3     0.090000        1.0080           0
     25005 WT11     532      MECN     H13      HGA3     0.090000        1.0080           0
     25006 WT11     532      MECN     C2       CG1N1    0.360000       12.0110           0
     25007 WT11     532      MECN     N3       NG1T1   -0.460000       14.0070           0
     25008 WT11     537      MECN     C1       CG331   -0.170000       12.0110           0
     25009 WT11     537      MECN     H11      HGA3     0.090000        1.0080           0
     25010 WT11     537      MECN     H12      HGA3     0.090000        1.0080           0
     25011 WT11     537      MECN     H13      HGA3     0.090000        1.0080           0
     25012 WT11     537      MECN     C2       CG1N1    0.360000       12.0110           0
     25013 WT11     537      MECN     N3       NG1T1   -0.460000       14.0070           0
     25014 WT11     543      MECN     C1       CG331   -0.170000       12.0110           0
     25015 WT11     543      MECN     H11      HGA3     0.090000        1.0080           0
     25016 WT11     543      MECN     H12      HGA3     0.090000        1.0080           0
     25017 WT11     543      MECN     H13      HGA3     0.090000        1.0080           0
     25018 WT11     543      MECN     C2       CG1N1    0.360000       12.0110           0
     25019 WT11     543      MECN     N3       NG1T1   -0.460000       14.0070           0
     25020 WT11     544      MECN     C1       CG331   -0.170000       12.0110           0
     25021 WT11     544      MECN     H11      HGA3     0.090000        1.0080           0
     25022 WT11     544      MECN     H12      HGA3     0.090000        1.0080           0
     25023 WT11     544      MECN     H13      HGA3     0.090000        1.0080           0
     25024 WT11     544      MECN     C2       CG1N1    0.360000       12.0110           0
     25025 WT11     544      MECN     N3       NG1T1   -0.460000       14.0070           0
     25026 WT11     545      MECN     C1       CG331   -0.170000       12.0110           0
     25027 WT11     545      MECN     H11      HGA3     0.090000        1.0080           0
     25028 WT11     545      MECN     H12      HGA3     0.090000        1.0080           0
     25029 WT11     545      MECN     H13      HGA3     0.090000        1.0080           0
     25030 WT11     545      MECN     C2       CG1N1    0.360000       12.0110           0
     25031 WT11     545      MECN     N3       NG1T1   -0.460000       14.0070           0
     25032 WT11     547      MECN     C1       CG331   -0.170000       12.0110           0
     25033 WT11     547      MECN     H11      HGA3     0.090000        1.0080           0
     25034 WT11     547      MECN     H12      HGA3     0.090000        1.0080           0
     25035 WT11     547      MECN     H13      HGA3     0.090000        1.0080           0
     25036 WT11     547      MECN     C2       CG1N1    0.360000       12.0110           0
     25037 WT11     547      MECN     N3       NG1T1   -0.460000       14.0070           0
     25038 WT11     553      MECN     C1       CG331   -0.170000       12.0110           0
     25039 WT11     553      MECN     H11      HGA3     0.090000        1.0080           0
     25040 WT11     553      MECN     H12      HGA3     0.090000        1.0080           0
     25041 WT11     553      MECN     H13      HGA3     0.090000        1.0080           0
     25042 WT11     553      MECN     C2       CG1N1    0.360000       12.0110           0
     25043 WT11     553      MECN     N3       NG1T1   -0.460000       14.0070           0
     25044 WT11     557      MECN     C1       CG331   -0.170000       12.0110           0
     25045 WT11     557      MECN     H11      HGA3     0.090000        1.0080           0
     25046 WT11     557      MECN     H12      HGA3     0.090000        1.0080           0
     25047 WT11     557      MECN     H13      HGA3     0.090000        1.0080           0
     25048 WT11     557      MECN     C2       CG1N1    0.360000       12.0110           0
     25049 WT11     557      MECN     N3       NG1T1   -0.460000       14.0070           0
     25050 WT11     560      MECN     C1       CG331   -0.170000       12.0110           0
     25051 WT11     560      MECN     H11      HGA3     0.090000        1.0080           0
     25052 WT11     560      MECN     H12      HGA3     0.090000        1.0080           0
     25053 WT11     560      MECN     H13      HGA3     0.090000        1.0080           0
     25054 WT11     560      MECN     C2       CG1N1    0.360000       12.0110           0
     25055 WT11     560      MECN     N3       NG1T1   -0.460000       14.0070           0
     25056 WT11     561      MECN     C1       CG331   -0.170000       12.0110           0
     25057 WT11     561      MECN     H11      HGA3     0.090000        1.0080           0
     25058 WT11     561      MECN     H12      HGA3     0.090000        1.0080           0
     25059 WT11     561      MECN     H13      HGA3     0.090000        1.0080           0
     25060 WT11     561      MECN     C2       CG1N1    0.360000       12.0110           0
     25061 WT11     561      MECN     N3       NG1T1   -0.460000       14.0070           0
     25062 WT11     564      MECN     C1       CG331   -0.170000       12.0110           0
     25063 WT11     564      MECN     H11      HGA3     0.090000        1.0080           0
     25064 WT11     564      MECN     H12      HGA3     0.090000        1.0080           0
     25065 WT11     564      MECN     H13      HGA3     0.090000        1.0080           0
     25066 WT11     564      MECN     C2       CG1N1    0.360000       12.0110           0
     25067 WT11     564      MECN     N3       NG1T1   -0.460000       14.0070           0
     25068 WT11     571      MECN     C1       CG331   -0.170000       12.0110           0
     25069 WT11     571      MECN     H11      HGA3     0.090000        1.0080           0
     25070 WT11     571      MECN     H12      HGA3     0.090000        1.0080           0
     25071 WT11     571      MECN     H13      HGA3     0.090000        1.0080           0
     25072 WT11     571      MECN     C2       CG1N1    0.360000       12.0110           0
     25073 WT11     571      MECN     N3       NG1T1   -0.460000       14.0070           0
     25074 WT11     573      MECN     C1       CG331   -0.170000       12.0110           0
     25075 WT11     573      MECN     H11      HGA3     0.090000        1.0080           0
     25076 WT11     573      MECN     H12      HGA3     0.090000        1.0080           0
     25077 WT11     573      MECN     H13      HGA3     0.090000        1.0080           0
     25078 WT11     573      MECN     C2       CG1N1    0.360000       12.0110           0
     25079 WT11     573      MECN     N3       NG1T1   -0.460000       14.0070           0
     25080 WT11     576      MECN     C1       CG331   -0.170000       12.0110           0
     25081 WT11     576      MECN     H11      HGA3     0.090000        1.0080           0
     25082 WT11     576      MECN     H12      HGA3     0.090000        1.0080           0
     25083 WT11     576      MECN     H13      HGA3     0.090000        1.0080           0
     25084 WT11     576      MECN     C2       CG1N1    0.360000       12.0110           0
     25085 WT11     576      MECN     N3       NG1T1   -0.460000       14.0070           0
     25086 WT11     582      MECN     C1       CG331   -0.170000       12.0110           0
     25087 WT11     582      MECN     H11      HGA3     0.090000        1.0080           0
     25088 WT11     582      MECN     H12      HGA3     0.090000        1.0080           0
     25089 WT11     582      MECN     H13      HGA3     0.090000        1.0080           0
     25090 WT11     582      MECN     C2       CG1N1    0.360000       12.0110           0
     25091 WT11     582      MECN     N3       NG1T1   -0.460000       14.0070           0
     25092 WT11     583      MECN     C1       CG331   -0.170000       12.0110           0
     25093 WT11     583      MECN     H11      HGA3     0.090000        1.0080           0
     25094 WT11     583      MECN     H12      HGA3     0.090000        1.0080           0
     25095 WT11     583      MECN     H13      HGA3     0.090000        1.0080           0
     25096 WT11     583      MECN     C2       CG1N1    0.360000       12.0110           0
     25097 WT11     583      MECN     N3       NG1T1   -0.460000       14.0070           0
     25098 WT11     584      MECN     C1       CG331   -0.170000       12.0110           0
     25099 WT11     584      MECN     H11      HGA3     0.090000        1.0080           0
     25100 WT11     584      MECN     H12      HGA3     0.090000        1.0080           0
     25101 WT11     584      MECN     H13      HGA3     0.090000        1.0080           0
     25102 WT11     584      MECN     C2       CG1N1    0.360000       12.0110           0
     25103 WT11     584      MECN     N3       NG1T1   -0.460000       14.0070           0
     25104 WT11     586      MECN     C1       CG331   -0.170000       12.0110           0
     25105 WT11     586      MECN     H11      HGA3     0.090000        1.0080           0
     25106 WT11     586      MECN     H12      HGA3     0.090000        1.0080           0
     25107 WT11     586      MECN     H13      HGA3     0.090000        1.0080           0
     25108 WT11     586      MECN     C2       CG1N1    0.360000       12.0110           0
     25109 WT11     586      MECN     N3       NG1T1   -0.460000       14.0070           0
     25110 WT11     589      MECN     C1       CG331   -0.170000       12.0110           0
     25111 WT11     589      MECN     H11      HGA3     0.090000        1.0080           0
     25112 WT11     589      MECN     H12      HGA3     0.090000        1.0080           0
     25113 WT11     589      MECN     H13      HGA3     0.090000        1.0080           0
     25114 WT11     589      MECN     C2       CG1N1    0.360000       12.0110           0
     25115 WT11     589      MECN     N3       NG1T1   -0.460000       14.0070           0
     25116 WT11     591      MECN     C1       CG331   -0.170000       12.0110           0
     25117 WT11     591      MECN     H11      HGA3     0.090000        1.0080           0
     25118 WT11     591      MECN     H12      HGA3     0.090000        1.0080           0
     25119 WT11     591      MECN     H13      HGA3     0.090000        1.0080           0
     25120 WT11     591      MECN     C2       CG1N1    0.360000       12.0110           0
     25121 WT11     591      MECN     N3       NG1T1   -0.460000       14.0070           0
     25122 WT11     592      MECN     C1       CG331   -0.170000       12.0110           0
     25123 WT11     592      MECN     H11      HGA3     0.090000        1.0080           0
     25124 WT11     592      MECN     H12      HGA3     0.090000        1.0080           0
     25125 WT11     592      MECN     H13      HGA3     0.090000        1.0080           0
     25126 WT11     592      MECN     C2       CG1N1    0.360000       12.0110           0
     25127 WT11     592      MECN     N3       NG1T1   -0.460000       14.0070           0
     25128 WT11     593      MECN     C1       CG331   -0.170000       12.0110           0
     25129 WT11     593      MECN     H11      HGA3     0.090000        1.0080           0
     25130 WT11     593      MECN     H12      HGA3     0.090000        1.0080           0
     25131 WT11     593      MECN     H13      HGA3     0.090000        1.0080           0
     25132 WT11     593      MECN     C2       CG1N1    0.360000       12.0110           0
     25133 WT11     593      MECN     N3       NG1T1   -0.460000       14.0070           0
     25134 WT11     598      MECN     C1       CG331   -0.170000       12.0110           0
     25135 WT11     598      MECN     H11      HGA3     0.090000        1.0080           0
     25136 WT11     598      MECN     H12      HGA3     0.090000        1.0080           0
     25137 WT11     598      MECN     H13      HGA3     0.090000        1.0080           0
     25138 WT11     598      MECN     C2       CG1N1    0.360000       12.0110           0
     25139 WT11     598      MECN     N3       NG1T1   -0.460000       14.0070           0
     25140 WT11     599      MECN     C1       CG331   -0.170000       12.0110           0
     25141 WT11     599      MECN     H11      HGA3     0.090000        1.0080           0
     25142 WT11     599      MECN     H12      HGA3     0.090000        1.0080           0
     25143 WT11     599      MECN     H13      HGA3     0.090000        1.0080           0
     25144 WT11     599      MECN     C2       CG1N1    0.360000       12.0110           0
     25145 WT11     599      MECN     N3       NG1T1   -0.460000       14.0070           0
     25146 WT11     607      MECN     C1       CG331   -0.170000       12.0110           0
     25147 WT11     607      MECN     H11      HGA3     0.090000        1.0080           0
     25148 WT11     607      MECN     H12      HGA3     0.090000        1.0080           0
     25149 WT11     607      MECN     H13      HGA3     0.090000        1.0080           0
     25150 WT11     607      MECN     C2       CG1N1    0.360000       12.0110           0
     25151 WT11     607      MECN     N3       NG1T1   -0.460000       14.0070           0
     25152 WT11     612      MECN     C1       CG331   -0.170000       12.0110           0
     25153 WT11     612      MECN     H11      HGA3     0.090000        1.0080           0
     25154 WT11     612      MECN     H12      HGA3     0.090000        1.0080           0
     25155 WT11     612      MECN     H13      HGA3     0.090000        1.0080           0
     25156 WT11     612      MECN     C2       CG1N1    0.360000       12.0110           0
     25157 WT11     612      MECN     N3       NG1T1   -0.460000       14.0070           0
     25158 WT11     620      MECN     C1       CG331   -0.170000       12.0110           0
     25159 WT11     620      MECN     H11      HGA3     0.090000        1.0080           0
     25160 WT11     620      MECN     H12      HGA3     0.090000        1.0080           0
     25161 WT11     620      MECN     H13      HGA3     0.090000        1.0080           0
     25162 WT11     620      MECN     C2       CG1N1    0.360000       12.0110           0
     25163 WT11     620      MECN     N3       NG1T1   -0.460000       14.0070           0
     25164 WT11     624      MECN     C1       CG331   -0.170000       12.0110           0
     25165 WT11     624      MECN     H11      HGA3     0.090000        1.0080           0
     25166 WT11     624      MECN     H12      HGA3     0.090000        1.0080           0
     25167 WT11     624      MECN     H13      HGA3     0.090000        1.0080           0
     25168 WT11     624      MECN     C2       CG1N1    0.360000       12.0110           0
     25169 WT11     624      MECN     N3       NG1T1   -0.460000       14.0070           0
     25170 WT11     625      MECN     C1       CG331   -0.170000       12.0110           0
     25171 WT11     625      MECN     H11      HGA3     0.090000        1.0080           0
     25172 WT11     625      MECN     H12      HGA3     0.090000        1.0080           0
     25173 WT11     625      MECN     H13      HGA3     0.090000        1.0080           0
     25174 WT11     625      MECN     C2       CG1N1    0.360000       12.0110           0
     25175 WT11     625      MECN     N3       NG1T1   -0.460000       14.0070           0
     25176 WT11     627      MECN     C1       CG331   -0.170000       12.0110           0
     25177 WT11     627      MECN     H11      HGA3     0.090000        1.0080           0
     25178 WT11     627      MECN     H12      HGA3     0.090000        1.0080           0
     25179 WT11     627      MECN     H13      HGA3     0.090000        1.0080           0
     25180 WT11     627      MECN     C2       CG1N1    0.360000       12.0110           0
     25181 WT11     627      MECN     N3       NG1T1   -0.460000       14.0070           0
     25182 WT11     628      MECN     C1       CG331   -0.170000       12.0110           0
     25183 WT11     628      MECN     H11      HGA3     0.090000        1.0080           0
     25184 WT11     628      MECN     H12      HGA3     0.090000        1.0080           0
     25185 WT11     628      MECN     H13      HGA3     0.090000        1.0080           0
     25186 WT11     628      MECN     C2       CG1N1    0.360000       12.0110           0
     25187 WT11     628      MECN     N3       NG1T1   -0.460000       14.0070           0
     25188 WT11     633      MECN     C1       CG331   -0.170000       12.0110           0
     25189 WT11     633      MECN     H11      HGA3     0.090000        1.0080           0
     25190 WT11     633      MECN     H12      HGA3     0.090000        1.0080           0
     25191 WT11     633      MECN     H13      HGA3     0.090000        1.0080           0
     25192 WT11     633      MECN     C2       CG1N1    0.360000       12.0110           0
     25193 WT11     633      MECN     N3       NG1T1   -0.460000       14.0070           0
     25194 WT11     636      MECN     C1       CG331   -0.170000       12.0110           0
     25195 WT11     636      MECN     H11      HGA3     0.090000        1.0080           0
     25196 WT11     636      MECN     H12      HGA3     0.090000        1.0080           0
     25197 WT11     636      MECN     H13      HGA3     0.090000        1.0080           0
     25198 WT11     636      MECN     C2       CG1N1    0.360000       12.0110           0
     25199 WT11     636      MECN     N3       NG1T1   -0.460000       14.0070           0
     25200 WT11     637      MECN     C1       CG331   -0.170000       12.0110           0
     25201 WT11     637      MECN     H11      HGA3     0.090000        1.0080           0
     25202 WT11     637      MECN     H12      HGA3     0.090000        1.0080           0
     25203 WT11     637      MECN     H13      HGA3     0.090000        1.0080           0
     25204 WT11     637      MECN     C2       CG1N1    0.360000       12.0110           0
     25205 WT11     637      MECN     N3       NG1T1   -0.460000       14.0070           0
     25206 WT11     638      MECN     C1       CG331   -0.170000       12.0110           0
     25207 WT11     638      MECN     H11      HGA3     0.090000        1.0080           0
     25208 WT11     638      MECN     H12      HGA3     0.090000        1.0080           0
     25209 WT11     638      MECN     H13      HGA3     0.090000        1.0080           0
     25210 WT11     638      MECN     C2       CG1N1    0.360000       12.0110           0
     25211 WT11     638      MECN     N3       NG1T1   -0.460000       14.0070           0
     25212 WT11     639      MECN     C1       CG331   -0.170000       12.0110           0
     25213 WT11     639      MECN     H11      HGA3     0.090000        1.0080           0
     25214 WT11     639      MECN     H12      HGA3     0.090000        1.0080           0
     25215 WT11     639      MECN     H13      HGA3     0.090000        1.0080           0
     25216 WT11     639      MECN     C2       CG1N1    0.360000       12.0110           0
     25217 WT11     639      MECN     N3       NG1T1   -0.460000       14.0070           0
     25218 WT11     642      MECN     C1       CG331   -0.170000       12.0110           0
     25219 WT11     642      MECN     H11      HGA3     0.090000        1.0080           0
     25220 WT11     642      MECN     H12      HGA3     0.090000        1.0080           0
     25221 WT11     642      MECN     H13      HGA3     0.090000        1.0080           0
     25222 WT11     642      MECN     C2       CG1N1    0.360000       12.0110           0
     25223 WT11     642      MECN     N3       NG1T1   -0.460000       14.0070           0
     25224 WT11     647      MECN     C1       CG331   -0.170000       12.0110           0
     25225 WT11     647      MECN     H11      HGA3     0.090000        1.0080           0
     25226 WT11     647      MECN     H12      HGA3     0.090000        1.0080           0
     25227 WT11     647      MECN     H13      HGA3     0.090000        1.0080           0
     25228 WT11     647      MECN     C2       CG1N1    0.360000       12.0110           0
     25229 WT11     647      MECN     N3       NG1T1   -0.460000       14.0070           0
     25230 WT11     649      MECN     C1       CG331   -0.170000       12.0110           0
     25231 WT11     649      MECN     H11      HGA3     0.090000        1.0080           0
     25232 WT11     649      MECN     H12      HGA3     0.090000        1.0080           0
     25233 WT11     649      MECN     H13      HGA3     0.090000        1.0080           0
     25234 WT11     649      MECN     C2       CG1N1    0.360000       12.0110           0
     25235 WT11     649      MECN     N3       NG1T1   -0.460000       14.0070           0
     25236 WT11     650      MECN     C1       CG331   -0.170000       12.0110           0
     25237 WT11     650      MECN     H11      HGA3     0.090000        1.0080           0
     25238 WT11     650      MECN     H12      HGA3     0.090000        1.0080           0
     25239 WT11     650      MECN     H13      HGA3     0.090000        1.0080           0
     25240 WT11     650      MECN     C2       CG1N1    0.360000       12.0110           0
     25241 WT11     650      MECN     N3       NG1T1   -0.460000       14.0070           0
     25242 WT11     651      MECN     C1       CG331   -0.170000       12.0110           0
     25243 WT11     651      MECN     H11      HGA3     0.090000        1.0080           0
     25244 WT11     651      MECN     H12      HGA3     0.090000        1.0080           0
     25245 WT11     651      MECN     H13      HGA3     0.090000        1.0080           0
     25246 WT11     651      MECN     C2       CG1N1    0.360000       12.0110           0
     25247 WT11     651      MECN     N3       NG1T1   -0.460000       14.0070           0
     25248 WT11     652      MECN     C1       CG331   -0.170000       12.0110           0
     25249 WT11     652      MECN     H11      HGA3     0.090000        1.0080           0
     25250 WT11     652      MECN     H12      HGA3     0.090000        1.0080           0
     25251 WT11     652      MECN     H13      HGA3     0.090000        1.0080           0
     25252 WT11     652      MECN     C2       CG1N1    0.360000       12.0110           0
     25253 WT11     652      MECN     N3       NG1T1   -0.460000       14.0070           0
     25254 WT11     653      MECN     C1       CG331   -0.170000       12.0110           0
     25255 WT11     653      MECN     H11      HGA3     0.090000        1.0080           0
     25256 WT11     653      MECN     H12      HGA3     0.090000        1.0080           0
     25257 WT11     653      MECN     H13      HGA3     0.090000        1.0080           0
     25258 WT11     653      MECN     C2       CG1N1    0.360000       12.0110           0
     25259 WT11     653      MECN     N3       NG1T1   -0.460000       14.0070           0
     25260 WT11     656      MECN     C1       CG331   -0.170000       12.0110           0
     25261 WT11     656      MECN     H11      HGA3     0.090000        1.0080           0
     25262 WT11     656      MECN     H12      HGA3     0.090000        1.0080           0
     25263 WT11     656      MECN     H13      HGA3     0.090000        1.0080           0
     25264 WT11     656      MECN     C2       CG1N1    0.360000       12.0110           0
     25265 WT11     656      MECN     N3       NG1T1   -0.460000       14.0070           0
     25266 WT11     658      MECN     C1       CG331   -0.170000       12.0110           0
     25267 WT11     658      MECN     H11      HGA3     0.090000        1.0080           0
     25268 WT11     658      MECN     H12      HGA3     0.090000        1.0080           0
     25269 WT11     658      MECN     H13      HGA3     0.090000        1.0080           0
     25270 WT11     658      MECN     C2       CG1N1    0.360000       12.0110           0
     25271 WT11     658      MECN     N3       NG1T1   -0.460000       14.0070           0
     25272 WT11     661      MECN     C1       CG331   -0.170000       12.0110           0
     25273 WT11     661      MECN     H11      HGA3     0.090000        1.0080           0
     25274 WT11     661      MECN     H12      HGA3     0.090000        1.0080           0
     25275 WT11     661      MECN     H13      HGA3     0.090000        1.0080           0
     25276 WT11     661      MECN     C2       CG1N1    0.360000       12.0110           0
     25277 WT11     661      MECN     N3       NG1T1   -0.460000       14.0070           0
     25278 WT11     663      MECN     C1       CG331   -0.170000       12.0110           0
     25279 WT11     663      MECN     H11      HGA3     0.090000        1.0080           0
     25280 WT11     663      MECN     H12      HGA3     0.090000        1.0080           0
     25281 WT11     663      MECN     H13      HGA3     0.090000        1.0080           0
     25282 WT11     663      MECN     C2       CG1N1    0.360000       12.0110           0
     25283 WT11     663      MECN     N3       NG1T1   -0.460000       14.0070           0
     25284 WT11     665      MECN     C1       CG331   -0.170000       12.0110           0
     25285 WT11     665      MECN     H11      HGA3     0.090000        1.0080           0
     25286 WT11     665      MECN     H12      HGA3     0.090000        1.0080           0
     25287 WT11     665      MECN     H13      HGA3     0.090000        1.0080           0
     25288 WT11     665      MECN     C2       CG1N1    0.360000       12.0110           0
     25289 WT11     665      MECN     N3       NG1T1   -0.460000       14.0070           0
     25290 WT11     667      MECN     C1       CG331   -0.170000       12.0110           0
     25291 WT11     667      MECN     H11      HGA3     0.090000        1.0080           0
     25292 WT11     667      MECN     H12      HGA3     0.090000        1.0080           0
     25293 WT11     667      MECN     H13      HGA3     0.090000        1.0080           0
     25294 WT11     667      MECN     C2       CG1N1    0.360000       12.0110           0
     25295 WT11     667      MECN     N3       NG1T1   -0.460000       14.0070           0
     25296 WT11     670      MECN     C1       CG331   -0.170000       12.0110           0
     25297 WT11     670      MECN     H11      HGA3     0.090000        1.0080           0
     25298 WT11     670      MECN     H12      HGA3     0.090000        1.0080           0
     25299 WT11     670      MECN     H13      HGA3     0.090000        1.0080           0
     25300 WT11     670      MECN     C2       CG1N1    0.360000       12.0110           0
     25301 WT11     670      MECN     N3       NG1T1   -0.460000       14.0070           0
     25302 WT11     672      MECN     C1       CG331   -0.170000       12.0110           0
     25303 WT11     672      MECN     H11      HGA3     0.090000        1.0080           0
     25304 WT11     672      MECN     H12      HGA3     0.090000        1.0080           0
     25305 WT11     672      MECN     H13      HGA3     0.090000        1.0080           0
     25306 WT11     672      MECN     C2       CG1N1    0.360000       12.0110           0
     25307 WT11     672      MECN     N3       NG1T1   -0.460000       14.0070           0
     25308 WT11     673      MECN     C1       CG331   -0.170000       12.0110           0
     25309 WT11     673      MECN     H11      HGA3     0.090000        1.0080           0
     25310 WT11     673      MECN     H12      HGA3     0.090000        1.0080           0
     25311 WT11     673      MECN     H13      HGA3     0.090000        1.0080           0
     25312 WT11     673      MECN     C2       CG1N1    0.360000       12.0110           0
     25313 WT11     673      MECN     N3       NG1T1   -0.460000       14.0070           0
     25314 WT11     679      MECN     C1       CG331   -0.170000       12.0110           0
     25315 WT11     679      MECN     H11      HGA3     0.090000        1.0080           0
     25316 WT11     679      MECN     H12      HGA3     0.090000        1.0080           0
     25317 WT11     679      MECN     H13      HGA3     0.090000        1.0080           0
     25318 WT11     679      MECN     C2       CG1N1    0.360000       12.0110           0
     25319 WT11     679      MECN     N3       NG1T1   -0.460000       14.0070           0
     25320 WT11     683      MECN     C1       CG331   -0.170000       12.0110           0
     25321 WT11     683      MECN     H11      HGA3     0.090000        1.0080           0
     25322 WT11     683      MECN     H12      HGA3     0.090000        1.0080           0
     25323 WT11     683      MECN     H13      HGA3     0.090000        1.0080           0
     25324 WT11     683      MECN     C2       CG1N1    0.360000       12.0110           0
     25325 WT11     683      MECN     N3       NG1T1   -0.460000       14.0070           0
     25326 WT11     684      MECN     C1       CG331   -0.170000       12.0110           0
     25327 WT11     684      MECN     H11      HGA3     0.090000        1.0080           0
     25328 WT11     684      MECN     H12      HGA3     0.090000        1.0080           0
     25329 WT11     684      MECN     H13      HGA3     0.090000        1.0080           0
     25330 WT11     684      MECN     C2       CG1N1    0.360000       12.0110           0
     25331 WT11     684      MECN     N3       NG1T1   -0.460000       14.0070           0
     25332 WT11     686      MECN     C1       CG331   -0.170000       12.0110           0
     25333 WT11     686      MECN     H11      HGA3     0.090000        1.0080           0
     25334 WT11     686      MECN     H12      HGA3     0.090000        1.0080           0
     25335 WT11     686      MECN     H13      HGA3     0.090000        1.0080           0
     25336 WT11     686      MECN     C2       CG1N1    0.360000       12.0110           0
     25337 WT11     686      MECN     N3       NG1T1   -0.460000       14.0070           0
     25338 WT11     688      MECN     C1       CG331   -0.170000       12.0110           0
     25339 WT11     688      MECN     H11      HGA3     0.090000        1.0080           0
     25340 WT11     688      MECN     H12      HGA3     0.090000        1.0080           0
     25341 WT11     688      MECN     H13      HGA3     0.090000        1.0080           0
     25342 WT11     688      MECN     C2       CG1N1    0.360000       12.0110           0
     25343 WT11     688      MECN     N3       NG1T1   -0.460000       14.0070           0
     25344 WT11     692      MECN     C1       CG331   -0.170000       12.0110           0
     25345 WT11     692      MECN     H11      HGA3     0.090000        1.0080           0
     25346 WT11     692      MECN     H12      HGA3     0.090000        1.0080           0
     25347 WT11     692      MECN     H13      HGA3     0.090000        1.0080           0
     25348 WT11     692      MECN     C2       CG1N1    0.360000       12.0110           0
     25349 WT11     692      MECN     N3       NG1T1   -0.460000       14.0070           0
     25350 WT11     694      MECN     C1       CG331   -0.170000       12.0110           0
     25351 WT11     694      MECN     H11      HGA3     0.090000        1.0080           0
     25352 WT11     694      MECN     H12      HGA3     0.090000        1.0080           0
     25353 WT11     694      MECN     H13      HGA3     0.090000        1.0080           0
     25354 WT11     694      MECN     C2       CG1N1    0.360000       12.0110           0
     25355 WT11     694      MECN     N3       NG1T1   -0.460000       14.0070           0
     25356 WT11     696      MECN     C1       CG331   -0.170000       12.0110           0
     25357 WT11     696      MECN     H11      HGA3     0.090000        1.0080           0
     25358 WT11     696      MECN     H12      HGA3     0.090000        1.0080           0
     25359 WT11     696      MECN     H13      HGA3     0.090000        1.0080           0
     25360 WT11     696      MECN     C2       CG1N1    0.360000       12.0110           0
     25361 WT11     696      MECN     N3       NG1T1   -0.460000       14.0070           0
     25362 WT11     699      MECN     C1       CG331   -0.170000       12.0110           0
     25363 WT11     699      MECN     H11      HGA3     0.090000        1.0080           0
     25364 WT11     699      MECN     H12      HGA3     0.090000        1.0080           0
     25365 WT11     699      MECN     H13      HGA3     0.090000        1.0080           0
     25366 WT11     699      MECN     C2       CG1N1    0.360000       12.0110           0
     25367 WT11     699      MECN     N3       NG1T1   -0.460000       14.0070           0
     25368 WT11     701      MECN     C1       CG331   -0.170000       12.0110           0
     25369 WT11     701      MECN     H11      HGA3     0.090000        1.0080           0
     25370 WT11     701      MECN     H12      HGA3     0.090000        1.0080           0
     25371 WT11     701      MECN     H13      HGA3     0.090000        1.0080           0
     25372 WT11     701      MECN     C2       CG1N1    0.360000       12.0110           0
     25373 WT11     701      MECN     N3       NG1T1   -0.460000       14.0070           0
     25374 WT11     705      MECN     C1       CG331   -0.170000       12.0110           0
     25375 WT11     705      MECN     H11      HGA3     0.090000        1.0080           0
     25376 WT11     705      MECN     H12      HGA3     0.090000        1.0080           0
     25377 WT11     705      MECN     H13      HGA3     0.090000        1.0080           0
     25378 WT11     705      MECN     C2       CG1N1    0.360000       12.0110           0
     25379 WT11     705      MECN     N3       NG1T1   -0.460000       14.0070           0
     25380 WT11     706      MECN     C1       CG331   -0.170000       12.0110           0
     25381 WT11     706      MECN     H11      HGA3     0.090000        1.0080           0
     25382 WT11     706      MECN     H12      HGA3     0.090000        1.0080           0
     25383 WT11     706      MECN     H13      HGA3     0.090000        1.0080           0
     25384 WT11     706      MECN     C2       CG1N1    0.360000       12.0110           0
     25385 WT11     706      MECN     N3       NG1T1   -0.460000       14.0070           0
     25386 WT11     708      MECN     C1       CG331   -0.170000       12.0110           0
     25387 WT11     708      MECN     H11      HGA3     0.090000        1.0080           0
     25388 WT11     708      MECN     H12      HGA3     0.090000        1.0080           0
     25389 WT11     708      MECN     H13      HGA3     0.090000        1.0080           0
     25390 WT11     708      MECN     C2       CG1N1    0.360000       12.0110           0
     25391 WT11     708      MECN     N3       NG1T1   -0.460000       14.0070           0
     25392 WT11     712      MECN     C1       CG331   -0.170000       12.0110           0
     25393 WT11     712      MECN     H11      HGA3     0.090000        1.0080           0
     25394 WT11     712      MECN     H12      HGA3     0.090000        1.0080           0
     25395 WT11     712      MECN     H13      HGA3     0.090000        1.0080           0
     25396 WT11     712      MECN     C2       CG1N1    0.360000       12.0110           0
     25397 WT11     712      MECN     N3       NG1T1   -0.460000       14.0070           0
     25398 WT11     715      MECN     C1       CG331   -0.170000       12.0110           0
     25399 WT11     715      MECN     H11      HGA3     0.090000        1.0080           0
     25400 WT11     715      MECN     H12      HGA3     0.090000        1.0080           0
     25401 WT11     715      MECN     H13      HGA3     0.090000        1.0080           0
     25402 WT11     715      MECN     C2       CG1N1    0.360000       12.0110           0
     25403 WT11     715      MECN     N3       NG1T1   -0.460000       14.0070           0
     25404 WT11     717      MECN     C1       CG331   -0.170000       12.0110           0
     25405 WT11     717      MECN     H11      HGA3     0.090000        1.0080           0
     25406 WT11     717      MECN     H12      HGA3     0.090000        1.0080           0
     25407 WT11     717      MECN     H13      HGA3     0.090000        1.0080           0
     25408 WT11     717      MECN     C2       CG1N1    0.360000       12.0110           0
     25409 WT11     717      MECN     N3       NG1T1   -0.460000       14.0070           0
     25410 WT11     721      MECN     C1       CG331   -0.170000       12.0110           0
     25411 WT11     721      MECN     H11      HGA3     0.090000        1.0080           0
     25412 WT11     721      MECN     H12      HGA3     0.090000        1.0080           0
     25413 WT11     721      MECN     H13      HGA3     0.090000        1.0080           0
     25414 WT11     721      MECN     C2       CG1N1    0.360000       12.0110           0
     25415 WT11     721      MECN     N3       NG1T1   -0.460000       14.0070           0
     25416 WT11     722      MECN     C1       CG331   -0.170000       12.0110           0
     25417 WT11     722      MECN     H11      HGA3     0.090000        1.0080           0
     25418 WT11     722      MECN     H12      HGA3     0.090000        1.0080           0
     25419 WT11     722      MECN     H13      HGA3     0.090000        1.0080           0
     25420 WT11     722      MECN     C2       CG1N1    0.360000       12.0110           0
     25421 WT11     722      MECN     N3       NG1T1   -0.460000       14.0070           0
     25422 WT11     723      MECN     C1       CG331   -0.170000       12.0110           0
     25423 WT11     723      MECN     H11      HGA3     0.090000        1.0080           0
     25424 WT11     723      MECN     H12      HGA3     0.090000        1.0080           0
     25425 WT11     723      MECN     H13      HGA3     0.090000        1.0080           0
     25426 WT11     723      MECN     C2       CG1N1    0.360000       12.0110           0
     25427 WT11     723      MECN     N3       NG1T1   -0.460000       14.0070           0
     25428 WT11     724      MECN     C1       CG331   -0.170000       12.0110           0
     25429 WT11     724      MECN     H11      HGA3     0.090000        1.0080           0
     25430 WT11     724      MECN     H12      HGA3     0.090000        1.0080           0
     25431 WT11     724      MECN     H13      HGA3     0.090000        1.0080           0
     25432 WT11     724      MECN     C2       CG1N1    0.360000       12.0110           0
     25433 WT11     724      MECN     N3       NG1T1   -0.460000       14.0070           0
     25434 WT11     728      MECN     C1       CG331   -0.170000       12.0110           0
     25435 WT11     728      MECN     H11      HGA3     0.090000        1.0080           0
     25436 WT11     728      MECN     H12      HGA3     0.090000        1.0080           0
     25437 WT11     728      MECN     H13      HGA3     0.090000        1.0080           0
     25438 WT11     728      MECN     C2       CG1N1    0.360000       12.0110           0
     25439 WT11     728      MECN     N3       NG1T1   -0.460000       14.0070           0
     25440 WT11     729      MECN     C1       CG331   -0.170000       12.0110           0
     25441 WT11     729      MECN     H11      HGA3     0.090000        1.0080           0
     25442 WT11     729      MECN     H12      HGA3     0.090000        1.0080           0
     25443 WT11     729      MECN     H13      HGA3     0.090000        1.0080           0
     25444 WT11     729      MECN     C2       CG1N1    0.360000       12.0110           0
     25445 WT11     729      MECN     N3       NG1T1   -0.460000       14.0070           0
     25446 WT11     733      MECN     C1       CG331   -0.170000       12.0110           0
     25447 WT11     733      MECN     H11      HGA3     0.090000        1.0080           0
     25448 WT11     733      MECN     H12      HGA3     0.090000        1.0080           0
     25449 WT11     733      MECN     H13      HGA3     0.090000        1.0080           0
     25450 WT11     733      MECN     C2       CG1N1    0.360000       12.0110           0
     25451 WT11     733      MECN     N3       NG1T1   -0.460000       14.0070           0
     25452 WT11     734      MECN     C1       CG331   -0.170000       12.0110           0
     25453 WT11     734      MECN     H11      HGA3     0.090000        1.0080           0
     25454 WT11     734      MECN     H12      HGA3     0.090000        1.0080           0
     25455 WT11     734      MECN     H13      HGA3     0.090000        1.0080           0
     25456 WT11     734      MECN     C2       CG1N1    0.360000       12.0110           0
     25457 WT11     734      MECN     N3       NG1T1   -0.460000       14.0070           0
     25458 WT11     736      MECN     C1       CG331   -0.170000       12.0110           0
     25459 WT11     736      MECN     H11      HGA3     0.090000        1.0080           0
     25460 WT11     736      MECN     H12      HGA3     0.090000        1.0080           0
     25461 WT11     736      MECN     H13      HGA3     0.090000        1.0080           0
     25462 WT11     736      MECN     C2       CG1N1    0.360000       12.0110           0
     25463 WT11     736      MECN     N3       NG1T1   -0.460000       14.0070           0
     25464 WT11     737      MECN     C1       CG331   -0.170000       12.0110           0
     25465 WT11     737      MECN     H11      HGA3     0.090000        1.0080           0
     25466 WT11     737      MECN     H12      HGA3     0.090000        1.0080           0
     25467 WT11     737      MECN     H13      HGA3     0.090000        1.0080           0
     25468 WT11     737      MECN     C2       CG1N1    0.360000       12.0110           0
     25469 WT11     737      MECN     N3       NG1T1   -0.460000       14.0070           0
     25470 WT11     741      MECN     C1       CG331   -0.170000       12.0110           0
     25471 WT11     741      MECN     H11      HGA3     0.090000        1.0080           0
     25472 WT11     741      MECN     H12      HGA3     0.090000        1.0080           0
     25473 WT11     741      MECN     H13      HGA3     0.090000        1.0080           0
     25474 WT11     741      MECN     C2       CG1N1    0.360000       12.0110           0
     25475 WT11     741      MECN     N3       NG1T1   -0.460000       14.0070           0
     25476 WT11     744      MECN     C1       CG331   -0.170000       12.0110           0
     25477 WT11     744      MECN     H11      HGA3     0.090000        1.0080           0
     25478 WT11     744      MECN     H12      HGA3     0.090000        1.0080           0
     25479 WT11     744      MECN     H13      HGA3     0.090000        1.0080           0
     25480 WT11     744      MECN     C2       CG1N1    0.360000       12.0110           0
     25481 WT11     744      MECN     N3       NG1T1   -0.460000       14.0070           0
     25482 WT11     747      MECN     C1       CG331   -0.170000       12.0110           0
     25483 WT11     747      MECN     H11      HGA3     0.090000        1.0080           0
     25484 WT11     747      MECN     H12      HGA3     0.090000        1.0080           0
     25485 WT11     747      MECN     H13      HGA3     0.090000        1.0080           0
     25486 WT11     747      MECN     C2       CG1N1    0.360000       12.0110           0
     25487 WT11     747      MECN     N3       NG1T1   -0.460000       14.0070           0
     25488 WT11     748      MECN     C1       CG331   -0.170000       12.0110           0
     25489 WT11     748      MECN     H11      HGA3     0.090000        1.0080           0
     25490 WT11     748      MECN     H12      HGA3     0.090000        1.0080           0
     25491 WT11     748      MECN     H13      HGA3     0.090000        1.0080           0
     25492 WT11     748      MECN     C2       CG1N1    0.360000       12.0110           0
     25493 WT11     748      MECN     N3       NG1T1   -0.460000       14.0070           0
     25494 WT11     749      MECN     C1       CG331   -0.170000       12.0110           0
     25495 WT11     749      MECN     H11      HGA3     0.090000        1.0080           0
     25496 WT11     749      MECN     H12      HGA3     0.090000        1.0080           0
     25497 WT11     749      MECN     H13      HGA3     0.090000        1.0080           0
     25498 WT11     749      MECN     C2       CG1N1    0.360000       12.0110           0
     25499 WT11     749      MECN     N3       NG1T1   -0.460000       14.0070           0
     25500 WT11     750      MECN     C1       CG331   -0.170000       12.0110           0
     25501 WT11     750      MECN     H11      HGA3     0.090000        1.0080           0
     25502 WT11     750      MECN     H12      HGA3     0.090000        1.0080           0
     25503 WT11     750      MECN     H13      HGA3     0.090000        1.0080           0
     25504 WT11     750      MECN     C2       CG1N1    0.360000       12.0110           0
     25505 WT11     750      MECN     N3       NG1T1   -0.460000       14.0070           0
     25506 WT11     752      MECN     C1       CG331   -0.170000       12.0110           0
     25507 WT11     752      MECN     H11      HGA3     0.090000        1.0080           0
     25508 WT11     752      MECN     H12      HGA3     0.090000        1.0080           0
     25509 WT11     752      MECN     H13      HGA3     0.090000        1.0080           0
     25510 WT11     752      MECN     C2       CG1N1    0.360000       12.0110           0
     25511 WT11     752      MECN     N3       NG1T1   -0.460000       14.0070           0
     25512 WT11     754      MECN     C1       CG331   -0.170000       12.0110           0
     25513 WT11     754      MECN     H11      HGA3     0.090000        1.0080           0
     25514 WT11     754      MECN     H12      HGA3     0.090000        1.0080           0
     25515 WT11     754      MECN     H13      HGA3     0.090000        1.0080           0
     25516 WT11     754      MECN     C2       CG1N1    0.360000       12.0110           0
     25517 WT11     754      MECN     N3       NG1T1   -0.460000       14.0070           0
     25518 WT11     755      MECN     C1       CG331   -0.170000       12.0110           0
     25519 WT11     755      MECN     H11      HGA3     0.090000        1.0080           0
     25520 WT11     755      MECN     H12      HGA3     0.090000        1.0080           0
     25521 WT11     755      MECN     H13      HGA3     0.090000        1.0080           0
     25522 WT11     755      MECN     C2       CG1N1    0.360000       12.0110           0
     25523 WT11     755      MECN     N3       NG1T1   -0.460000       14.0070           0
     25524 WT11     756      MECN     C1       CG331   -0.170000       12.0110           0
     25525 WT11     756      MECN     H11      HGA3     0.090000        1.0080           0
     25526 WT11     756      MECN     H12      HGA3     0.090000        1.0080           0
     25527 WT11     756      MECN     H13      HGA3     0.090000        1.0080           0
     25528 WT11     756      MECN     C2       CG1N1    0.360000       12.0110           0
     25529 WT11     756      MECN     N3       NG1T1   -0.460000       14.0070           0
     25530 WT11     757      MECN     C1       CG331   -0.170000       12.0110           0
     25531 WT11     757      MECN     H11      HGA3     0.090000        1.0080           0
     25532 WT11     757      MECN     H12      HGA3     0.090000        1.0080           0
     25533 WT11     757      MECN     H13      HGA3     0.090000        1.0080           0
     25534 WT11     757      MECN     C2       CG1N1    0.360000       12.0110           0
     25535 WT11     757      MECN     N3       NG1T1   -0.460000       14.0070           0
     25536 WT11     758      MECN     C1       CG331   -0.170000       12.0110           0
     25537 WT11     758      MECN     H11      HGA3     0.090000        1.0080           0
     25538 WT11     758      MECN     H12      HGA3     0.090000        1.0080           0
     25539 WT11     758      MECN     H13      HGA3     0.090000        1.0080           0
     25540 WT11     758      MECN     C2       CG1N1    0.360000       12.0110           0
     25541 WT11     758      MECN     N3       NG1T1   -0.460000       14.0070           0
     25542 WT11     761      MECN     C1       CG331   -0.170000       12.0110           0
     25543 WT11     761      MECN     H11      HGA3     0.090000        1.0080           0
     25544 WT11     761      MECN     H12      HGA3     0.090000        1.0080           0
     25545 WT11     761      MECN     H13      HGA3     0.090000        1.0080           0
     25546 WT11     761      MECN     C2       CG1N1    0.360000       12.0110           0
     25547 WT11     761      MECN     N3       NG1T1   -0.460000       14.0070           0
     25548 WT11     762      MECN     C1       CG331   -0.170000       12.0110           0
     25549 WT11     762      MECN     H11      HGA3     0.090000        1.0080           0
     25550 WT11     762      MECN     H12      HGA3     0.090000        1.0080           0
     25551 WT11     762      MECN     H13      HGA3     0.090000        1.0080           0
     25552 WT11     762      MECN     C2       CG1N1    0.360000       12.0110           0
     25553 WT11     762      MECN     N3       NG1T1   -0.460000       14.0070           0
     25554 WT11     765      MECN     C1       CG331   -0.170000       12.0110           0
     25555 WT11     765      MECN     H11      HGA3     0.090000        1.0080           0
     25556 WT11     765      MECN     H12      HGA3     0.090000        1.0080           0
     25557 WT11     765      MECN     H13      HGA3     0.090000        1.0080           0
     25558 WT11     765      MECN     C2       CG1N1    0.360000       12.0110           0
     25559 WT11     765      MECN     N3       NG1T1   -0.460000       14.0070           0
     25560 WT11     768      MECN     C1       CG331   -0.170000       12.0110           0
     25561 WT11     768      MECN     H11      HGA3     0.090000        1.0080           0
     25562 WT11     768      MECN     H12      HGA3     0.090000        1.0080           0
     25563 WT11     768      MECN     H13      HGA3     0.090000        1.0080           0
     25564 WT11     768      MECN     C2       CG1N1    0.360000       12.0110           0
     25565 WT11     768      MECN     N3       NG1T1   -0.460000       14.0070           0
     25566 WT11     770      MECN     C1       CG331   -0.170000       12.0110           0
     25567 WT11     770      MECN     H11      HGA3     0.090000        1.0080           0
     25568 WT11     770      MECN     H12      HGA3     0.090000        1.0080           0
     25569 WT11     770      MECN     H13      HGA3     0.090000        1.0080           0
     25570 WT11     770      MECN     C2       CG1N1    0.360000       12.0110           0
     25571 WT11     770      MECN     N3       NG1T1   -0.460000       14.0070           0
     25572 WT11     772      MECN     C1       CG331   -0.170000       12.0110           0
     25573 WT11     772      MECN     H11      HGA3     0.090000        1.0080           0
     25574 WT11     772      MECN     H12      HGA3     0.090000        1.0080           0
     25575 WT11     772      MECN     H13      HGA3     0.090000        1.0080           0
     25576 WT11     772      MECN     C2       CG1N1    0.360000       12.0110           0
     25577 WT11     772      MECN     N3       NG1T1   -0.460000       14.0070           0
     25578 WT11     774      MECN     C1       CG331   -0.170000       12.0110           0
     25579 WT11     774      MECN     H11      HGA3     0.090000        1.0080           0
     25580 WT11     774      MECN     H12      HGA3     0.090000        1.0080           0
     25581 WT11     774      MECN     H13      HGA3     0.090000        1.0080           0
     25582 WT11     774      MECN     C2       CG1N1    0.360000       12.0110           0
     25583 WT11     774      MECN     N3       NG1T1   -0.460000       14.0070           0
     25584 WT11     777      MECN     C1       CG331   -0.170000       12.0110           0
     25585 WT11     777      MECN     H11      HGA3     0.090000        1.0080           0
     25586 WT11     777      MECN     H12      HGA3     0.090000        1.0080           0
     25587 WT11     777      MECN     H13      HGA3     0.090000        1.0080           0
     25588 WT11     777      MECN     C2       CG1N1    0.360000       12.0110           0
     25589 WT11     777      MECN     N3       NG1T1   -0.460000       14.0070           0
     25590 WT11     778      MECN     C1       CG331   -0.170000       12.0110           0
     25591 WT11     778      MECN     H11      HGA3     0.090000        1.0080           0
     25592 WT11     778      MECN     H12      HGA3     0.090000        1.0080           0
     25593 WT11     778      MECN     H13      HGA3     0.090000        1.0080           0
     25594 WT11     778      MECN     C2       CG1N1    0.360000       12.0110           0
     25595 WT11     778      MECN     N3       NG1T1   -0.460000       14.0070           0
     25596 WT11     780      MECN     C1       CG331   -0.170000       12.0110           0
     25597 WT11     780      MECN     H11      HGA3     0.090000        1.0080           0
     25598 WT11     780      MECN     H12      HGA3     0.090000        1.0080           0
     25599 WT11     780      MECN     H13      HGA3     0.090000        1.0080           0
     25600 WT11     780      MECN     C2       CG1N1    0.360000       12.0110           0
     25601 WT11     780      MECN     N3       NG1T1   -0.460000       14.0070           0
     25602 WT11     781      MECN     C1       CG331   -0.170000       12.0110           0
     25603 WT11     781      MECN     H11      HGA3     0.090000        1.0080           0
     25604 WT11     781      MECN     H12      HGA3     0.090000        1.0080           0
     25605 WT11     781      MECN     H13      HGA3     0.090000        1.0080           0
     25606 WT11     781      MECN     C2       CG1N1    0.360000       12.0110           0
     25607 WT11     781      MECN     N3       NG1T1   -0.460000       14.0070           0
     25608 WT11     783      MECN     C1       CG331   -0.170000       12.0110           0
     25609 WT11     783      MECN     H11      HGA3     0.090000        1.0080           0
     25610 WT11     783      MECN     H12      HGA3     0.090000        1.0080           0
     25611 WT11     783      MECN     H13      HGA3     0.090000        1.0080           0
     25612 WT11     783      MECN     C2       CG1N1    0.360000       12.0110           0
     25613 WT11     783      MECN     N3       NG1T1   -0.460000       14.0070           0
     25614 WT11     787      MECN     C1       CG331   -0.170000       12.0110           0
     25615 WT11     787      MECN     H11      HGA3     0.090000        1.0080           0
     25616 WT11     787      MECN     H12      HGA3     0.090000        1.0080           0
     25617 WT11     787      MECN     H13      HGA3     0.090000        1.0080           0
     25618 WT11     787      MECN     C2       CG1N1    0.360000       12.0110           0
     25619 WT11     787      MECN     N3       NG1T1   -0.460000       14.0070           0
     25620 WT11     789      MECN     C1       CG331   -0.170000       12.0110           0
     25621 WT11     789      MECN     H11      HGA3     0.090000        1.0080           0
     25622 WT11     789      MECN     H12      HGA3     0.090000        1.0080           0
     25623 WT11     789      MECN     H13      HGA3     0.090000        1.0080           0
     25624 WT11     789      MECN     C2       CG1N1    0.360000       12.0110           0
     25625 WT11     789      MECN     N3       NG1T1   -0.460000       14.0070           0
     25626 WT11     791      MECN     C1       CG331   -0.170000       12.0110           0
     25627 WT11     791      MECN     H11      HGA3     0.090000        1.0080           0
     25628 WT11     791      MECN     H12      HGA3     0.090000        1.0080           0
     25629 WT11     791      MECN     H13      HGA3     0.090000        1.0080           0
     25630 WT11     791      MECN     C2       CG1N1    0.360000       12.0110           0
     25631 WT11     791      MECN     N3       NG1T1   -0.460000       14.0070           0
     25632 WT11     795      MECN     C1       CG331   -0.170000       12.0110           0
     25633 WT11     795      MECN     H11      HGA3     0.090000        1.0080           0
     25634 WT11     795      MECN     H12      HGA3     0.090000        1.0080           0
     25635 WT11     795      MECN     H13      HGA3     0.090000        1.0080           0
     25636 WT11     795      MECN     C2       CG1N1    0.360000       12.0110           0
     25637 WT11     795      MECN     N3       NG1T1   -0.460000       14.0070           0
     25638 WT11     797      MECN     C1       CG331   -0.170000       12.0110           0
     25639 WT11     797      MECN     H11      HGA3     0.090000        1.0080           0
     25640 WT11     797      MECN     H12      HGA3     0.090000        1.0080           0
     25641 WT11     797      MECN     H13      HGA3     0.090000        1.0080           0
     25642 WT11     797      MECN     C2       CG1N1    0.360000       12.0110           0
     25643 WT11     797      MECN     N3       NG1T1   -0.460000       14.0070           0
     25644 WT11     799      MECN     C1       CG331   -0.170000       12.0110           0
     25645 WT11     799      MECN     H11      HGA3     0.090000        1.0080           0
     25646 WT11     799      MECN     H12      HGA3     0.090000        1.0080           0
     25647 WT11     799      MECN     H13      HGA3     0.090000        1.0080           0
     25648 WT11     799      MECN     C2       CG1N1    0.360000       12.0110           0
     25649 WT11     799      MECN     N3       NG1T1   -0.460000       14.0070           0
     25650 WT11     800      MECN     C1       CG331   -0.170000       12.0110           0
     25651 WT11     800      MECN     H11      HGA3     0.090000        1.0080           0
     25652 WT11     800      MECN     H12      HGA3     0.090000        1.0080           0
     25653 WT11     800      MECN     H13      HGA3     0.090000        1.0080           0
     25654 WT11     800      MECN     C2       CG1N1    0.360000       12.0110           0
     25655 WT11     800      MECN     N3       NG1T1   -0.460000       14.0070           0
     25656 WT11     801      MECN     C1       CG331   -0.170000       12.0110           0
     25657 WT11     801      MECN     H11      HGA3     0.090000        1.0080           0
     25658 WT11     801      MECN     H12      HGA3     0.090000        1.0080           0
     25659 WT11     801      MECN     H13      HGA3     0.090000        1.0080           0
     25660 WT11     801      MECN     C2       CG1N1    0.360000       12.0110           0
     25661 WT11     801      MECN     N3       NG1T1   -0.460000       14.0070           0
     25662 WT11     803      MECN     C1       CG331   -0.170000       12.0110           0
     25663 WT11     803      MECN     H11      HGA3     0.090000        1.0080           0
     25664 WT11     803      MECN     H12      HGA3     0.090000        1.0080           0
     25665 WT11     803      MECN     H13      HGA3     0.090000        1.0080           0
     25666 WT11     803      MECN     C2       CG1N1    0.360000       12.0110           0
     25667 WT11     803      MECN     N3       NG1T1   -0.460000       14.0070           0
     25668 WT11     805      MECN     C1       CG331   -0.170000       12.0110           0
     25669 WT11     805      MECN     H11      HGA3     0.090000        1.0080           0
     25670 WT11     805      MECN     H12      HGA3     0.090000        1.0080           0
     25671 WT11     805      MECN     H13      HGA3     0.090000        1.0080           0
     25672 WT11     805      MECN     C2       CG1N1    0.360000       12.0110           0
     25673 WT11     805      MECN     N3       NG1T1   -0.460000       14.0070           0
     25674 WT11     807      MECN     C1       CG331   -0.170000       12.0110           0
     25675 WT11     807      MECN     H11      HGA3     0.090000        1.0080           0
     25676 WT11     807      MECN     H12      HGA3     0.090000        1.0080           0
     25677 WT11     807      MECN     H13      HGA3     0.090000        1.0080           0
     25678 WT11     807      MECN     C2       CG1N1    0.360000       12.0110           0
     25679 WT11     807      MECN     N3       NG1T1   -0.460000       14.0070           0
     25680 WT11     810      MECN     C1       CG331   -0.170000       12.0110           0
     25681 WT11     810      MECN     H11      HGA3     0.090000        1.0080           0
     25682 WT11     810      MECN     H12      HGA3     0.090000        1.0080           0
     25683 WT11     810      MECN     H13      HGA3     0.090000        1.0080           0
     25684 WT11     810      MECN     C2       CG1N1    0.360000       12.0110           0
     25685 WT11     810      MECN     N3       NG1T1   -0.460000       14.0070           0
     25686 WT11     814      MECN     C1       CG331   -0.170000       12.0110           0
     25687 WT11     814      MECN     H11      HGA3     0.090000        1.0080           0
     25688 WT11     814      MECN     H12      HGA3     0.090000        1.0080           0
     25689 WT11     814      MECN     H13      HGA3     0.090000        1.0080           0
     25690 WT11     814      MECN     C2       CG1N1    0.360000       12.0110           0
     25691 WT11     814      MECN     N3       NG1T1   -0.460000       14.0070           0
     25692 WT11     817      MECN     C1       CG331   -0.170000       12.0110           0
     25693 WT11     817      MECN     H11      HGA3     0.090000        1.0080           0
     25694 WT11     817      MECN     H12      HGA3     0.090000        1.0080           0
     25695 WT11     817      MECN     H13      HGA3     0.090000        1.0080           0
     25696 WT11     817      MECN     C2       CG1N1    0.360000       12.0110           0
     25697 WT11     817      MECN     N3       NG1T1   -0.460000       14.0070           0
     25698 WT11     821      MECN     C1       CG331   -0.170000       12.0110           0
     25699 WT11     821      MECN     H11      HGA3     0.090000        1.0080           0
     25700 WT11     821      MECN     H12      HGA3     0.090000        1.0080           0
     25701 WT11     821      MECN     H13      HGA3     0.090000        1.0080           0
     25702 WT11     821      MECN     C2       CG1N1    0.360000       12.0110           0
     25703 WT11     821      MECN     N3       NG1T1   -0.460000       14.0070           0
     25704 WT11     829      MECN     C1       CG331   -0.170000       12.0110           0
     25705 WT11     829      MECN     H11      HGA3     0.090000        1.0080           0
     25706 WT11     829      MECN     H12      HGA3     0.090000        1.0080           0
     25707 WT11     829      MECN     H13      HGA3     0.090000        1.0080           0
     25708 WT11     829      MECN     C2       CG1N1    0.360000       12.0110           0
     25709 WT11     829      MECN     N3       NG1T1   -0.460000       14.0070           0
     25710 WT11     831      MECN     C1       CG331   -0.170000       12.0110           0
     25711 WT11     831      MECN     H11      HGA3     0.090000        1.0080           0
     25712 WT11     831      MECN     H12      HGA3     0.090000        1.0080           0
     25713 WT11     831      MECN     H13      HGA3     0.090000        1.0080           0
     25714 WT11     831      MECN     C2       CG1N1    0.360000       12.0110           0
     25715 WT11     831      MECN     N3       NG1T1   -0.460000       14.0070           0
     25716 WT11     833      MECN     C1       CG331   -0.170000       12.0110           0
     25717 WT11     833      MECN     H11      HGA3     0.090000        1.0080           0
     25718 WT11     833      MECN     H12      HGA3     0.090000        1.0080           0
     25719 WT11     833      MECN     H13      HGA3     0.090000        1.0080           0
     25720 WT11     833      MECN     C2       CG1N1    0.360000       12.0110           0
     25721 WT11     833      MECN     N3       NG1T1   -0.460000       14.0070           0
     25722 WT11     834      MECN     C1       CG331   -0.170000       12.0110           0
     25723 WT11     834      MECN     H11      HGA3     0.090000        1.0080           0
     25724 WT11     834      MECN     H12      HGA3     0.090000        1.0080           0
     25725 WT11     834      MECN     H13      HGA3     0.090000        1.0080           0
     25726 WT11     834      MECN     C2       CG1N1    0.360000       12.0110           0
     25727 WT11     834      MECN     N3       NG1T1   -0.460000       14.0070           0
     25728 WT11     836      MECN     C1       CG331   -0.170000       12.0110           0
     25729 WT11     836      MECN     H11      HGA3     0.090000        1.0080           0
     25730 WT11     836      MECN     H12      HGA3     0.090000        1.0080           0
     25731 WT11     836      MECN     H13      HGA3     0.090000        1.0080           0
     25732 WT11     836      MECN     C2       CG1N1    0.360000       12.0110           0
     25733 WT11     836      MECN     N3       NG1T1   -0.460000       14.0070           0
     25734 WT11     838      MECN     C1       CG331   -0.170000       12.0110           0
     25735 WT11     838      MECN     H11      HGA3     0.090000        1.0080           0
     25736 WT11     838      MECN     H12      HGA3     0.090000        1.0080           0
     25737 WT11     838      MECN     H13      HGA3     0.090000        1.0080           0
     25738 WT11     838      MECN     C2       CG1N1    0.360000       12.0110           0
     25739 WT11     838      MECN     N3       NG1T1   -0.460000       14.0070           0
     25740 WT11     839      MECN     C1       CG331   -0.170000       12.0110           0
     25741 WT11     839      MECN     H11      HGA3     0.090000        1.0080           0
     25742 WT11     839      MECN     H12      HGA3     0.090000        1.0080           0
     25743 WT11     839      MECN     H13      HGA3     0.090000        1.0080           0
     25744 WT11     839      MECN     C2       CG1N1    0.360000       12.0110           0
     25745 WT11     839      MECN     N3       NG1T1   -0.460000       14.0070           0
     25746 WT11     842      MECN     C1       CG331   -0.170000       12.0110           0
     25747 WT11     842      MECN     H11      HGA3     0.090000        1.0080           0
     25748 WT11     842      MECN     H12      HGA3     0.090000        1.0080           0
     25749 WT11     842      MECN     H13      HGA3     0.090000        1.0080           0
     25750 WT11     842      MECN     C2       CG1N1    0.360000       12.0110           0
     25751 WT11     842      MECN     N3       NG1T1   -0.460000       14.0070           0
     25752 WT11     844      MECN     C1       CG331   -0.170000       12.0110           0
     25753 WT11     844      MECN     H11      HGA3     0.090000        1.0080           0
     25754 WT11     844      MECN     H12      HGA3     0.090000        1.0080           0
     25755 WT11     844      MECN     H13      HGA3     0.090000        1.0080           0
     25756 WT11     844      MECN     C2       CG1N1    0.360000       12.0110           0
     25757 WT11     844      MECN     N3       NG1T1   -0.460000       14.0070           0
     25758 WT11     849      MECN     C1       CG331   -0.170000       12.0110           0
     25759 WT11     849      MECN     H11      HGA3     0.090000        1.0080           0
     25760 WT11     849      MECN     H12      HGA3     0.090000        1.0080           0
     25761 WT11     849      MECN     H13      HGA3     0.090000        1.0080           0
     25762 WT11     849      MECN     C2       CG1N1    0.360000       12.0110           0
     25763 WT11     849      MECN     N3       NG1T1   -0.460000       14.0070           0
     25764 WT11     850      MECN     C1       CG331   -0.170000       12.0110           0
     25765 WT11     850      MECN     H11      HGA3     0.090000        1.0080           0
     25766 WT11     850      MECN     H12      HGA3     0.090000        1.0080           0
     25767 WT11     850      MECN     H13      HGA3     0.090000        1.0080           0
     25768 WT11     850      MECN     C2       CG1N1    0.360000       12.0110           0
     25769 WT11     850      MECN     N3       NG1T1   -0.460000       14.0070           0
     25770 WT11     851      MECN     C1       CG331   -0.170000       12.0110           0
     25771 WT11     851      MECN     H11      HGA3     0.090000        1.0080           0
     25772 WT11     851      MECN     H12      HGA3     0.090000        1.0080           0
     25773 WT11     851      MECN     H13      HGA3     0.090000        1.0080           0
     25774 WT11     851      MECN     C2       CG1N1    0.360000       12.0110           0
     25775 WT11     851      MECN     N3       NG1T1   -0.460000       14.0070           0
     25776 WT11     859      MECN     C1       CG331   -0.170000       12.0110           0
     25777 WT11     859      MECN     H11      HGA3     0.090000        1.0080           0
     25778 WT11     859      MECN     H12      HGA3     0.090000        1.0080           0
     25779 WT11     859      MECN     H13      HGA3     0.090000        1.0080           0
     25780 WT11     859      MECN     C2       CG1N1    0.360000       12.0110           0
     25781 WT11     859      MECN     N3       NG1T1   -0.460000       14.0070           0
     25782 WT11     860      MECN     C1       CG331   -0.170000       12.0110           0
     25783 WT11     860      MECN     H11      HGA3     0.090000        1.0080           0
     25784 WT11     860      MECN     H12      HGA3     0.090000        1.0080           0
     25785 WT11     860      MECN     H13      HGA3     0.090000        1.0080           0
     25786 WT11     860      MECN     C2       CG1N1    0.360000       12.0110           0
     25787 WT11     860      MECN     N3       NG1T1   -0.460000       14.0070           0
     25788 WT11     861      MECN     C1       CG331   -0.170000       12.0110           0
     25789 WT11     861      MECN     H11      HGA3     0.090000        1.0080           0
     25790 WT11     861      MECN     H12      HGA3     0.090000        1.0080           0
     25791 WT11     861      MECN     H13      HGA3     0.090000        1.0080           0
     25792 WT11     861      MECN     C2       CG1N1    0.360000       12.0110           0
     25793 WT11     861      MECN     N3       NG1T1   -0.460000       14.0070           0
     25794 WT11     864      MECN     C1       CG331   -0.170000       12.0110           0
     25795 WT11     864      MECN     H11      HGA3     0.090000        1.0080           0
     25796 WT11     864      MECN     H12      HGA3     0.090000        1.0080           0
     25797 WT11     864      MECN     H13      HGA3     0.090000        1.0080           0
     25798 WT11     864      MECN     C2       CG1N1    0.360000       12.0110           0
     25799 WT11     864      MECN     N3       NG1T1   -0.460000       14.0070           0
     25800 WT11     866      MECN     C1       CG331   -0.170000       12.0110           0
     25801 WT11     866      MECN     H11      HGA3     0.090000        1.0080           0
     25802 WT11     866      MECN     H12      HGA3     0.090000        1.0080           0
     25803 WT11     866      MECN     H13      HGA3     0.090000        1.0080           0
     25804 WT11     866      MECN     C2       CG1N1    0.360000       12.0110           0
     25805 WT11     866      MECN     N3       NG1T1   -0.460000       14.0070           0
     25806 WT11     868      MECN     C1       CG331   -0.170000       12.0110           0
     25807 WT11     868      MECN     H11      HGA3     0.090000        1.0080           0
     25808 WT11     868      MECN     H12      HGA3     0.090000        1.0080           0
     25809 WT11     868      MECN     H13      HGA3     0.090000        1.0080           0
     25810 WT11     868      MECN     C2       CG1N1    0.360000       12.0110           0
     25811 WT11     868      MECN     N3       NG1T1   -0.460000       14.0070           0
     25812 WT11     871      MECN     C1       CG331   -0.170000       12.0110           0
     25813 WT11     871      MECN     H11      HGA3     0.090000        1.0080           0
     25814 WT11     871      MECN     H12      HGA3     0.090000        1.0080           0
     25815 WT11     871      MECN     H13      HGA3     0.090000        1.0080           0
     25816 WT11     871      MECN     C2       CG1N1    0.360000       12.0110           0
     25817 WT11     871      MECN     N3       NG1T1   -0.460000       14.0070           0
     25818 WT11     875      MECN     C1       CG331   -0.170000       12.0110           0
     25819 WT11     875      MECN     H11      HGA3     0.090000        1.0080           0
     25820 WT11     875      MECN     H12      HGA3     0.090000        1.0080           0
     25821 WT11     875      MECN     H13      HGA3     0.090000        1.0080           0
     25822 WT11     875      MECN     C2       CG1N1    0.360000       12.0110           0
     25823 WT11     875      MECN     N3       NG1T1   -0.460000       14.0070           0
     25824 WT11     879      MECN     C1       CG331   -0.170000       12.0110           0
     25825 WT11     879      MECN     H11      HGA3     0.090000        1.0080           0
     25826 WT11     879      MECN     H12      HGA3     0.090000        1.0080           0
     25827 WT11     879      MECN     H13      HGA3     0.090000        1.0080           0
     25828 WT11     879      MECN     C2       CG1N1    0.360000       12.0110           0
     25829 WT11     879      MECN     N3       NG1T1   -0.460000       14.0070           0
     25830 WT11     880      MECN     C1       CG331   -0.170000       12.0110           0
     25831 WT11     880      MECN     H11      HGA3     0.090000        1.0080           0
     25832 WT11     880      MECN     H12      HGA3     0.090000        1.0080           0
     25833 WT11     880      MECN     H13      HGA3     0.090000        1.0080           0
     25834 WT11     880      MECN     C2       CG1N1    0.360000       12.0110           0
     25835 WT11     880      MECN     N3       NG1T1   -0.460000       14.0070           0
     25836 WT11     882      MECN     C1       CG331   -0.170000       12.0110           0
     25837 WT11     882      MECN     H11      HGA3     0.090000        1.0080           0
     25838 WT11     882      MECN     H12      HGA3     0.090000        1.0080           0
     25839 WT11     882      MECN     H13      HGA3     0.090000        1.0080           0
     25840 WT11     882      MECN     C2       CG1N1    0.360000       12.0110           0
     25841 WT11     882      MECN     N3       NG1T1   -0.460000       14.0070           0
     25842 WT11     883      MECN     C1       CG331   -0.170000       12.0110           0
     25843 WT11     883      MECN     H11      HGA3     0.090000        1.0080           0
     25844 WT11     883      MECN     H12      HGA3     0.090000        1.0080           0
     25845 WT11     883      MECN     H13      HGA3     0.090000        1.0080           0
     25846 WT11     883      MECN     C2       CG1N1    0.360000       12.0110           0
     25847 WT11     883      MECN     N3       NG1T1   -0.460000       14.0070           0
     25848 WT11     884      MECN     C1       CG331   -0.170000       12.0110           0
     25849 WT11     884      MECN     H11      HGA3     0.090000        1.0080           0
     25850 WT11     884      MECN     H12      HGA3     0.090000        1.0080           0
     25851 WT11     884      MECN     H13      HGA3     0.090000        1.0080           0
     25852 WT11     884      MECN     C2       CG1N1    0.360000       12.0110           0
     25853 WT11     884      MECN     N3       NG1T1   -0.460000       14.0070           0
     25854 WT11     887      MECN     C1       CG331   -0.170000       12.0110           0
     25855 WT11     887      MECN     H11      HGA3     0.090000        1.0080           0
     25856 WT11     887      MECN     H12      HGA3     0.090000        1.0080           0
     25857 WT11     887      MECN     H13      HGA3     0.090000        1.0080           0
     25858 WT11     887      MECN     C2       CG1N1    0.360000       12.0110           0
     25859 WT11     887      MECN     N3       NG1T1   -0.460000       14.0070           0
     25860 WT11     889      MECN     C1       CG331   -0.170000       12.0110           0
     25861 WT11     889      MECN     H11      HGA3     0.090000        1.0080           0
     25862 WT11     889      MECN     H12      HGA3     0.090000        1.0080           0
     25863 WT11     889      MECN     H13      HGA3     0.090000        1.0080           0
     25864 WT11     889      MECN     C2       CG1N1    0.360000       12.0110           0
     25865 WT11     889      MECN     N3       NG1T1   -0.460000       14.0070           0
     25866 WT11     891      MECN     C1       CG331   -0.170000       12.0110           0
     25867 WT11     891      MECN     H11      HGA3     0.090000        1.0080           0
     25868 WT11     891      MECN     H12      HGA3     0.090000        1.0080           0
     25869 WT11     891      MECN     H13      HGA3     0.090000        1.0080           0
     25870 WT11     891      MECN     C2       CG1N1    0.360000       12.0110           0
     25871 WT11     891      MECN     N3       NG1T1   -0.460000       14.0070           0
     25872 WT11     893      MECN     C1       CG331   -0.170000       12.0110           0
     25873 WT11     893      MECN     H11      HGA3     0.090000        1.0080           0
     25874 WT11     893      MECN     H12      HGA3     0.090000        1.0080           0
     25875 WT11     893      MECN     H13      HGA3     0.090000        1.0080           0
     25876 WT11     893      MECN     C2       CG1N1    0.360000       12.0110           0
     25877 WT11     893      MECN     N3       NG1T1   -0.460000       14.0070           0
     25878 WT11     894      MECN     C1       CG331   -0.170000       12.0110           0
     25879 WT11     894      MECN     H11      HGA3     0.090000        1.0080           0
     25880 WT11     894      MECN     H12      HGA3     0.090000        1.0080           0
     25881 WT11     894      MECN     H13      HGA3     0.090000        1.0080           0
     25882 WT11     894      MECN     C2       CG1N1    0.360000       12.0110           0
     25883 WT11     894      MECN     N3       NG1T1   -0.460000       14.0070           0
     25884 WT11     896      MECN     C1       CG331   -0.170000       12.0110           0
     25885 WT11     896      MECN     H11      HGA3     0.090000        1.0080           0
     25886 WT11     896      MECN     H12      HGA3     0.090000        1.0080           0
     25887 WT11     896      MECN     H13      HGA3     0.090000        1.0080           0
     25888 WT11     896      MECN     C2       CG1N1    0.360000       12.0110           0
     25889 WT11     896      MECN     N3       NG1T1   -0.460000       14.0070           0
     25890 WT11     897      MECN     C1       CG331   -0.170000       12.0110           0
     25891 WT11     897      MECN     H11      HGA3     0.090000        1.0080           0
     25892 WT11     897      MECN     H12      HGA3     0.090000        1.0080           0
     25893 WT11     897      MECN     H13      HGA3     0.090000        1.0080           0
     25894 WT11     897      MECN     C2       CG1N1    0.360000       12.0110           0
     25895 WT11     897      MECN     N3       NG1T1   -0.460000       14.0070           0
     25896 WT11     899      MECN     C1       CG331   -0.170000       12.0110           0
     25897 WT11     899      MECN     H11      HGA3     0.090000        1.0080           0
     25898 WT11     899      MECN     H12      HGA3     0.090000        1.0080           0
     25899 WT11     899      MECN     H13      HGA3     0.090000        1.0080           0
     25900 WT11     899      MECN     C2       CG1N1    0.360000       12.0110           0
     25901 WT11     899      MECN     N3       NG1T1   -0.460000       14.0070           0
     25902 WT11     900      MECN     C1       CG331   -0.170000       12.0110           0
     25903 WT11     900      MECN     H11      HGA3     0.090000        1.0080           0
     25904 WT11     900      MECN     H12      HGA3     0.090000        1.0080           0
     25905 WT11     900      MECN     H13      HGA3     0.090000        1.0080           0
     25906 WT11     900      MECN     C2       CG1N1    0.360000       12.0110           0
     25907 WT11     900      MECN     N3       NG1T1   -0.460000       14.0070           0
     25908 WT11     901      MECN     C1       CG331   -0.170000       12.0110           0
     25909 WT11     901      MECN     H11      HGA3     0.090000        1.0080           0
     25910 WT11     901      MECN     H12      HGA3     0.090000        1.0080           0
     25911 WT11     901      MECN     H13      HGA3     0.090000        1.0080           0
     25912 WT11     901      MECN     C2       CG1N1    0.360000       12.0110           0
     25913 WT11     901      MECN     N3       NG1T1   -0.460000       14.0070           0
     25914 WT11     904      MECN     C1       CG331   -0.170000       12.0110           0
     25915 WT11     904      MECN     H11      HGA3     0.090000        1.0080           0
     25916 WT11     904      MECN     H12      HGA3     0.090000        1.0080           0
     25917 WT11     904      MECN     H13      HGA3     0.090000        1.0080           0
     25918 WT11     904      MECN     C2       CG1N1    0.360000       12.0110           0
     25919 WT11     904      MECN     N3       NG1T1   -0.460000       14.0070           0
     25920 WT11     906      MECN     C1       CG331   -0.170000       12.0110           0
     25921 WT11     906      MECN     H11      HGA3     0.090000        1.0080           0
     25922 WT11     906      MECN     H12      HGA3     0.090000        1.0080           0
     25923 WT11     906      MECN     H13      HGA3     0.090000        1.0080           0
     25924 WT11     906      MECN     C2       CG1N1    0.360000       12.0110           0
     25925 WT11     906      MECN     N3       NG1T1   -0.460000       14.0070           0
     25926 WT11     907      MECN     C1       CG331   -0.170000       12.0110           0
     25927 WT11     907      MECN     H11      HGA3     0.090000        1.0080           0
     25928 WT11     907      MECN     H12      HGA3     0.090000        1.0080           0
     25929 WT11     907      MECN     H13      HGA3     0.090000        1.0080           0
     25930 WT11     907      MECN     C2       CG1N1    0.360000       12.0110           0
     25931 WT11     907      MECN     N3       NG1T1   -0.460000       14.0070           0
     25932 WT11     912      MECN     C1       CG331   -0.170000       12.0110           0
     25933 WT11     912      MECN     H11      HGA3     0.090000        1.0080           0
     25934 WT11     912      MECN     H12      HGA3     0.090000        1.0080           0
     25935 WT11     912      MECN     H13      HGA3     0.090000        1.0080           0
     25936 WT11     912      MECN     C2       CG1N1    0.360000       12.0110           0
     25937 WT11     912      MECN     N3       NG1T1   -0.460000       14.0070           0
     25938 WT11     914      MECN     C1       CG331   -0.170000       12.0110           0
     25939 WT11     914      MECN     H11      HGA3     0.090000        1.0080           0
     25940 WT11     914      MECN     H12      HGA3     0.090000        1.0080           0
     25941 WT11     914      MECN     H13      HGA3     0.090000        1.0080           0
     25942 WT11     914      MECN     C2       CG1N1    0.360000       12.0110           0
     25943 WT11     914      MECN     N3       NG1T1   -0.460000       14.0070           0
     25944 WT11     915      MECN     C1       CG331   -0.170000       12.0110           0
     25945 WT11     915      MECN     H11      HGA3     0.090000        1.0080           0
     25946 WT11     915      MECN     H12      HGA3     0.090000        1.0080           0
     25947 WT11     915      MECN     H13      HGA3     0.090000        1.0080           0
     25948 WT11     915      MECN     C2       CG1N1    0.360000       12.0110           0
     25949 WT11     915      MECN     N3       NG1T1   -0.460000       14.0070           0
     25950 WT11     916      MECN     C1       CG331   -0.170000       12.0110           0
     25951 WT11     916      MECN     H11      HGA3     0.090000        1.0080           0
     25952 WT11     916      MECN     H12      HGA3     0.090000        1.0080           0
     25953 WT11     916      MECN     H13      HGA3     0.090000        1.0080           0
     25954 WT11     916      MECN     C2       CG1N1    0.360000       12.0110           0
     25955 WT11     916      MECN     N3       NG1T1   -0.460000       14.0070           0
     25956 WT11     918      MECN     C1       CG331   -0.170000       12.0110           0
     25957 WT11     918      MECN     H11      HGA3     0.090000        1.0080           0
     25958 WT11     918      MECN     H12      HGA3     0.090000        1.0080           0
     25959 WT11     918      MECN     H13      HGA3     0.090000        1.0080           0
     25960 WT11     918      MECN     C2       CG1N1    0.360000       12.0110           0
     25961 WT11     918      MECN     N3       NG1T1   -0.460000       14.0070           0
     25962 WT11     920      MECN     C1       CG331   -0.170000       12.0110           0
     25963 WT11     920      MECN     H11      HGA3     0.090000        1.0080           0
     25964 WT11     920      MECN     H12      HGA3     0.090000        1.0080           0
     25965 WT11     920      MECN     H13      HGA3     0.090000        1.0080           0
     25966 WT11     920      MECN     C2       CG1N1    0.360000       12.0110           0
     25967 WT11     920      MECN     N3       NG1T1   -0.460000       14.0070           0
     25968 WT11     922      MECN     C1       CG331   -0.170000       12.0110           0
     25969 WT11     922      MECN     H11      HGA3     0.090000        1.0080           0
     25970 WT11     922      MECN     H12      HGA3     0.090000        1.0080           0
     25971 WT11     922      MECN     H13      HGA3     0.090000        1.0080           0
     25972 WT11     922      MECN     C2       CG1N1    0.360000       12.0110           0
     25973 WT11     922      MECN     N3       NG1T1   -0.460000       14.0070           0
     25974 WT11     924      MECN     C1       CG331   -0.170000       12.0110           0
     25975 WT11     924      MECN     H11      HGA3     0.090000        1.0080           0
     25976 WT11     924      MECN     H12      HGA3     0.090000        1.0080           0
     25977 WT11     924      MECN     H13      HGA3     0.090000        1.0080           0
     25978 WT11     924      MECN     C2       CG1N1    0.360000       12.0110           0
     25979 WT11     924      MECN     N3       NG1T1   -0.460000       14.0070           0
     25980 WT11     925      MECN     C1       CG331   -0.170000       12.0110           0
     25981 WT11     925      MECN     H11      HGA3     0.090000        1.0080           0
     25982 WT11     925      MECN     H12      HGA3     0.090000        1.0080           0
     25983 WT11     925      MECN     H13      HGA3     0.090000        1.0080           0
     25984 WT11     925      MECN     C2       CG1N1    0.360000       12.0110           0
     25985 WT11     925      MECN     N3       NG1T1   -0.460000       14.0070           0
     25986 WT11     926      MECN     C1       CG331   -0.170000       12.0110           0
     25987 WT11     926      MECN     H11      HGA3     0.090000        1.0080           0
     25988 WT11     926      MECN     H12      HGA3     0.090000        1.0080           0
     25989 WT11     926      MECN     H13      HGA3     0.090000        1.0080           0
     25990 WT11     926      MECN     C2       CG1N1    0.360000       12.0110           0
     25991 WT11     926      MECN     N3       NG1T1   -0.460000       14.0070           0
     25992 WT11     933      MECN     C1       CG331   -0.170000       12.0110           0
     25993 WT11     933      MECN     H11      HGA3     0.090000        1.0080           0
     25994 WT11     933      MECN     H12      HGA3     0.090000        1.0080           0
     25995 WT11     933      MECN     H13      HGA3     0.090000        1.0080           0
     25996 WT11     933      MECN     C2       CG1N1    0.360000       12.0110           0
     25997 WT11     933      MECN     N3       NG1T1   -0.460000       14.0070           0
     25998 WT11     934      MECN     C1       CG331   -0.170000       12.0110           0
     25999 WT11     934      MECN     H11      HGA3     0.090000        1.0080           0
     26000 WT11     934      MECN     H12      HGA3     0.090000        1.0080           0
     26001 WT11     934      MECN     H13      HGA3     0.090000        1.0080           0
     26002 WT11     934      MECN     C2       CG1N1    0.360000       12.0110           0
     26003 WT11     934      MECN     N3       NG1T1   -0.460000       14.0070           0
     26004 WT11     935      MECN     C1       CG331   -0.170000       12.0110           0
     26005 WT11     935      MECN     H11      HGA3     0.090000        1.0080           0
     26006 WT11     935      MECN     H12      HGA3     0.090000        1.0080           0
     26007 WT11     935      MECN     H13      HGA3     0.090000        1.0080           0
     26008 WT11     935      MECN     C2       CG1N1    0.360000       12.0110           0
     26009 WT11     935      MECN     N3       NG1T1   -0.460000       14.0070           0
     26010 WT11     938      MECN     C1       CG331   -0.170000       12.0110           0
     26011 WT11     938      MECN     H11      HGA3     0.090000        1.0080           0
     26012 WT11     938      MECN     H12      HGA3     0.090000        1.0080           0
     26013 WT11     938      MECN     H13      HGA3     0.090000        1.0080           0
     26014 WT11     938      MECN     C2       CG1N1    0.360000       12.0110           0
     26015 WT11     938      MECN     N3       NG1T1   -0.460000       14.0070           0
     26016 WT11     939      MECN     C1       CG331   -0.170000       12.0110           0
     26017 WT11     939      MECN     H11      HGA3     0.090000        1.0080           0
     26018 WT11     939      MECN     H12      HGA3     0.090000        1.0080           0
     26019 WT11     939      MECN     H13      HGA3     0.090000        1.0080           0
     26020 WT11     939      MECN     C2       CG1N1    0.360000       12.0110           0
     26021 WT11     939      MECN     N3       NG1T1   -0.460000       14.0070           0
     26022 WT11     940      MECN     C1       CG331   -0.170000       12.0110           0
     26023 WT11     940      MECN     H11      HGA3     0.090000        1.0080           0
     26024 WT11     940      MECN     H12      HGA3     0.090000        1.0080           0
     26025 WT11     940      MECN     H13      HGA3     0.090000        1.0080           0
     26026 WT11     940      MECN     C2       CG1N1    0.360000       12.0110           0
     26027 WT11     940      MECN     N3       NG1T1   -0.460000       14.0070           0
     26028 WT11     947      MECN     C1       CG331   -0.170000       12.0110           0
     26029 WT11     947      MECN     H11      HGA3     0.090000        1.0080           0
     26030 WT11     947      MECN     H12      HGA3     0.090000        1.0080           0
     26031 WT11     947      MECN     H13      HGA3     0.090000        1.0080           0
     26032 WT11     947      MECN     C2       CG1N1    0.360000       12.0110           0
     26033 WT11     947      MECN     N3       NG1T1   -0.460000       14.0070           0
     26034 WT11     959      MECN     C1       CG331   -0.170000       12.0110           0
     26035 WT11     959      MECN     H11      HGA3     0.090000        1.0080           0
     26036 WT11     959      MECN     H12      HGA3     0.090000        1.0080           0
     26037 WT11     959      MECN     H13      HGA3     0.090000        1.0080           0
     26038 WT11     959      MECN     C2       CG1N1    0.360000       12.0110           0
     26039 WT11     959      MECN     N3       NG1T1   -0.460000       14.0070           0
     26040 WT11     960      MECN     C1       CG331   -0.170000       12.0110           0
     26041 WT11     960      MECN     H11      HGA3     0.090000        1.0080           0
     26042 WT11     960      MECN     H12      HGA3     0.090000        1.0080           0
     26043 WT11     960      MECN     H13      HGA3     0.090000        1.0080           0
     26044 WT11     960      MECN     C2       CG1N1    0.360000       12.0110           0
     26045 WT11     960      MECN     N3       NG1T1   -0.460000       14.0070           0
     26046 WT11     963      MECN     C1       CG331   -0.170000       12.0110           0
     26047 WT11     963      MECN     H11      HGA3     0.090000        1.0080           0
     26048 WT11     963      MECN     H12      HGA3     0.090000        1.0080           0
     26049 WT11     963      MECN     H13      HGA3     0.090000        1.0080           0
     26050 WT11     963      MECN     C2       CG1N1    0.360000       12.0110           0
     26051 WT11     963      MECN     N3       NG1T1   -0.460000       14.0070           0
     26052 WT11     964      MECN     C1       CG331   -0.170000       12.0110           0
     26053 WT11     964      MECN     H11      HGA3     0.090000        1.0080           0
     26054 WT11     964      MECN     H12      HGA3     0.090000        1.0080           0
     26055 WT11     964      MECN     H13      HGA3     0.090000        1.0080           0
     26056 WT11     964      MECN     C2       CG1N1    0.360000       12.0110           0
     26057 WT11     964      MECN     N3       NG1T1   -0.460000       14.0070           0
     26058 WT11     967      MECN     C1       CG331   -0.170000       12.0110           0
     26059 WT11     967      MECN     H11      HGA3     0.090000        1.0080           0
     26060 WT11     967      MECN     H12      HGA3     0.090000        1.0080           0
     26061 WT11     967      MECN     H13      HGA3     0.090000        1.0080           0
     26062 WT11     967      MECN     C2       CG1N1    0.360000       12.0110           0
     26063 WT11     967      MECN     N3       NG1T1   -0.460000       14.0070           0
     26064 WT11     971      MECN     C1       CG331   -0.170000       12.0110           0
     26065 WT11     971      MECN     H11      HGA3     0.090000        1.0080           0
     26066 WT11     971      MECN     H12      HGA3     0.090000        1.0080           0
     26067 WT11     971      MECN     H13      HGA3     0.090000        1.0080           0
     26068 WT11     971      MECN     C2       CG1N1    0.360000       12.0110           0
     26069 WT11     971      MECN     N3       NG1T1   -0.460000       14.0070           0
     26070 WT11     973      MECN     C1       CG331   -0.170000       12.0110           0
     26071 WT11     973      MECN     H11      HGA3     0.090000        1.0080           0
     26072 WT11     973      MECN     H12      HGA3     0.090000        1.0080           0
     26073 WT11     973      MECN     H13      HGA3     0.090000        1.0080           0
     26074 WT11     973      MECN     C2       CG1N1    0.360000       12.0110           0
     26075 WT11     973      MECN     N3       NG1T1   -0.460000       14.0070           0
     26076 WT11     975      MECN     C1       CG331   -0.170000       12.0110           0
     26077 WT11     975      MECN     H11      HGA3     0.090000        1.0080           0
     26078 WT11     975      MECN     H12      HGA3     0.090000        1.0080           0
     26079 WT11     975      MECN     H13      HGA3     0.090000        1.0080           0
     26080 WT11     975      MECN     C2       CG1N1    0.360000       12.0110           0
     26081 WT11     975      MECN     N3       NG1T1   -0.460000       14.0070           0
     26082 WT11     976      MECN     C1       CG331   -0.170000       12.0110           0
     26083 WT11     976      MECN     H11      HGA3     0.090000        1.0080           0
     26084 WT11     976      MECN     H12      HGA3     0.090000        1.0080           0
     26085 WT11     976      MECN     H13      HGA3     0.090000        1.0080           0
     26086 WT11     976      MECN     C2       CG1N1    0.360000       12.0110           0
     26087 WT11     976      MECN     N3       NG1T1   -0.460000       14.0070           0
     26088 WT11     977      MECN     C1       CG331   -0.170000       12.0110           0
     26089 WT11     977      MECN     H11      HGA3     0.090000        1.0080           0
     26090 WT11     977      MECN     H12      HGA3     0.090000        1.0080           0
     26091 WT11     977      MECN     H13      HGA3     0.090000        1.0080           0
     26092 WT11     977      MECN     C2       CG1N1    0.360000       12.0110           0
     26093 WT11     977      MECN     N3       NG1T1   -0.460000       14.0070           0
     26094 WT11     979      MECN     C1       CG331   -0.170000       12.0110           0
     26095 WT11     979      MECN     H11      HGA3     0.090000        1.0080           0
     26096 WT11     979      MECN     H12      HGA3     0.090000        1.0080           0
     26097 WT11     979      MECN     H13      HGA3     0.090000        1.0080           0
     26098 WT11     979      MECN     C2       CG1N1    0.360000       12.0110           0
     26099 WT11     979      MECN     N3       NG1T1   -0.460000       14.0070           0
     26100 WT11     983      MECN     C1       CG331   -0.170000       12.0110           0
     26101 WT11     983      MECN     H11      HGA3     0.090000        1.0080           0
     26102 WT11     983      MECN     H12      HGA3     0.090000        1.0080           0
     26103 WT11     983      MECN     H13      HGA3     0.090000        1.0080           0
     26104 WT11     983      MECN     C2       CG1N1    0.360000       12.0110           0
     26105 WT11     983      MECN     N3       NG1T1   -0.460000       14.0070           0
     26106 WT11     985      MECN     C1       CG331   -0.170000       12.0110           0
     26107 WT11     985      MECN     H11      HGA3     0.090000        1.0080           0
     26108 WT11     985      MECN     H12      HGA3     0.090000        1.0080           0
     26109 WT11     985      MECN     H13      HGA3     0.090000        1.0080           0
     26110 WT11     985      MECN     C2       CG1N1    0.360000       12.0110           0
     26111 WT11     985      MECN     N3       NG1T1   -0.460000       14.0070           0
     26112 WT11     986      MECN     C1       CG331   -0.170000       12.0110           0
     26113 WT11     986      MECN     H11      HGA3     0.090000        1.0080           0
     26114 WT11     986      MECN     H12      HGA3     0.090000        1.0080           0
     26115 WT11     986      MECN     H13      HGA3     0.090000        1.0080           0
     26116 WT11     986      MECN     C2       CG1N1    0.360000       12.0110           0
     26117 WT11     986      MECN     N3       NG1T1   -0.460000       14.0070           0
     26118 WT11     992      MECN     C1       CG331   -0.170000       12.0110           0
     26119 WT11     992      MECN     H11      HGA3     0.090000        1.0080           0
     26120 WT11     992      MECN     H12      HGA3     0.090000        1.0080           0
     26121 WT11     992      MECN     H13      HGA3     0.090000        1.0080           0
     26122 WT11     992      MECN     C2       CG1N1    0.360000       12.0110           0
     26123 WT11     992      MECN     N3       NG1T1   -0.460000       14.0070           0
     26124 WT11     999      MECN     C1       CG331   -0.170000       12.0110           0
     26125 WT11     999      MECN     H11      HGA3     0.090000        1.0080           0
     26126 WT11     999      MECN     H12      HGA3     0.090000        1.0080           0
     26127 WT11     999      MECN     H13      HGA3     0.090000        1.0080           0
     26128 WT11     999      MECN     C2       CG1N1    0.360000       12.0110           0
     26129 WT11     999      MECN     N3       NG1T1   -0.460000       14.0070           0
     26130 WT11     1000     MECN     C1       CG331   -0.170000       12.0110           0
     26131 WT11     1000     MECN     H11      HGA3     0.090000        1.0080           0
     26132 WT11     1000     MECN     H12      HGA3     0.090000        1.0080           0
     26133 WT11     1000     MECN     H13      HGA3     0.090000        1.0080           0
     26134 WT11     1000     MECN     C2       CG1N1    0.360000       12.0110           0
     26135 WT11     1000     MECN     N3       NG1T1   -0.460000       14.0070           0
     26136 WT11     1001     MECN     C1       CG331   -0.170000       12.0110           0
     26137 WT11     1001     MECN     H11      HGA3     0.090000        1.0080           0
     26138 WT11     1001     MECN     H12      HGA3     0.090000        1.0080           0
     26139 WT11     1001     MECN     H13      HGA3     0.090000        1.0080           0
     26140 WT11     1001     MECN     C2       CG1N1    0.360000       12.0110           0
     26141 WT11     1001     MECN     N3       NG1T1   -0.460000       14.0070           0
     26142 WT11     1002     MECN     C1       CG331   -0.170000       12.0110           0
     26143 WT11     1002     MECN     H11      HGA3     0.090000        1.0080           0
     26144 WT11     1002     MECN     H12      HGA3     0.090000        1.0080           0
     26145 WT11     1002     MECN     H13      HGA3     0.090000        1.0080           0
     26146 WT11     1002     MECN     C2       CG1N1    0.360000       12.0110           0
     26147 WT11     1002     MECN     N3       NG1T1   -0.460000       14.0070           0
     26148 WT11     1005     MECN     C1       CG331   -0.170000       12.0110           0
     26149 WT11     1005     MECN     H11      HGA3     0.090000        1.0080           0
     26150 WT11     1005     MECN     H12      HGA3     0.090000        1.0080           0
     26151 WT11     1005     MECN     H13      HGA3     0.090000        1.0080           0
     26152 WT11     1005     MECN     C2       CG1N1    0.360000       12.0110           0
     26153 WT11     1005     MECN     N3       NG1T1   -0.460000       14.0070           0
     26154 WT11     1016     MECN     C1       CG331   -0.170000       12.0110           0
     26155 WT11     1016     MECN     H11      HGA3     0.090000        1.0080           0
     26156 WT11     1016     MECN     H12      HGA3     0.090000        1.0080           0
     26157 WT11     1016     MECN     H13      HGA3     0.090000        1.0080           0
     26158 WT11     1016     MECN     C2       CG1N1    0.360000       12.0110           0
     26159 WT11     1016     MECN     N3       NG1T1   -0.460000       14.0070           0
     26160 WT11     1017     MECN     C1       CG331   -0.170000       12.0110           0
     26161 WT11     1017     MECN     H11      HGA3     0.090000        1.0080           0
     26162 WT11     1017     MECN     H12      HGA3     0.090000        1.0080           0
     26163 WT11     1017     MECN     H13      HGA3     0.090000        1.0080           0
     26164 WT11     1017     MECN     C2       CG1N1    0.360000       12.0110           0
     26165 WT11     1017     MECN     N3       NG1T1   -0.460000       14.0070           0
     26166 WT11     1020     MECN     C1       CG331   -0.170000       12.0110           0
     26167 WT11     1020     MECN     H11      HGA3     0.090000        1.0080           0
     26168 WT11     1020     MECN     H12      HGA3     0.090000        1.0080           0
     26169 WT11     1020     MECN     H13      HGA3     0.090000        1.0080           0
     26170 WT11     1020     MECN     C2       CG1N1    0.360000       12.0110           0
     26171 WT11     1020     MECN     N3       NG1T1   -0.460000       14.0070           0
     26172 WT11     1021     MECN     C1       CG331   -0.170000       12.0110           0
     26173 WT11     1021     MECN     H11      HGA3     0.090000        1.0080           0
     26174 WT11     1021     MECN     H12      HGA3     0.090000        1.0080           0
     26175 WT11     1021     MECN     H13      HGA3     0.090000        1.0080           0
     26176 WT11     1021     MECN     C2       CG1N1    0.360000       12.0110           0
     26177 WT11     1021     MECN     N3       NG1T1   -0.460000       14.0070           0
     26178 WT11     1022     MECN     C1       CG331   -0.170000       12.0110           0
     26179 WT11     1022     MECN     H11      HGA3     0.090000        1.0080           0
     26180 WT11     1022     MECN     H12      HGA3     0.090000        1.0080           0
     26181 WT11     1022     MECN     H13      HGA3     0.090000        1.0080           0
     26182 WT11     1022     MECN     C2       CG1N1    0.360000       12.0110           0
     26183 WT11     1022     MECN     N3       NG1T1   -0.460000       14.0070           0
     26184 WT11     1025     MECN     C1       CG331   -0.170000       12.0110           0
     26185 WT11     1025     MECN     H11      HGA3     0.090000        1.0080           0
     26186 WT11     1025     MECN     H12      HGA3     0.090000        1.0080           0
     26187 WT11     1025     MECN     H13      HGA3     0.090000        1.0080           0
     26188 WT11     1025     MECN     C2       CG1N1    0.360000       12.0110           0
     26189 WT11     1025     MECN     N3       NG1T1   -0.460000       14.0070           0
     26190 WT11     1026     MECN     C1       CG331   -0.170000       12.0110           0
     26191 WT11     1026     MECN     H11      HGA3     0.090000        1.0080           0
     26192 WT11     1026     MECN     H12      HGA3     0.090000        1.0080           0
     26193 WT11     1026     MECN     H13      HGA3     0.090000        1.0080           0
     26194 WT11     1026     MECN     C2       CG1N1    0.360000       12.0110           0
     26195 WT11     1026     MECN     N3       NG1T1   -0.460000       14.0070           0
     26196 WT11     1027     MECN     C1       CG331   -0.170000       12.0110           0
     26197 WT11     1027     MECN     H11      HGA3     0.090000        1.0080           0
     26198 WT11     1027     MECN     H12      HGA3     0.090000        1.0080           0
     26199 WT11     1027     MECN     H13      HGA3     0.090000        1.0080           0
     26200 WT11     1027     MECN     C2       CG1N1    0.360000       12.0110           0
     26201 WT11     1027     MECN     N3       NG1T1   -0.460000       14.0070           0
     26202 WT11     1028     MECN     C1       CG331   -0.170000       12.0110           0
     26203 WT11     1028     MECN     H11      HGA3     0.090000        1.0080           0
     26204 WT11     1028     MECN     H12      HGA3     0.090000        1.0080           0
     26205 WT11     1028     MECN     H13      HGA3     0.090000        1.0080           0
     26206 WT11     1028     MECN     C2       CG1N1    0.360000       12.0110           0
     26207 WT11     1028     MECN     N3       NG1T1   -0.460000       14.0070           0
     26208 WT11     1029     MECN     C1       CG331   -0.170000       12.0110           0
     26209 WT11     1029     MECN     H11      HGA3     0.090000        1.0080           0
     26210 WT11     1029     MECN     H12      HGA3     0.090000        1.0080           0
     26211 WT11     1029     MECN     H13      HGA3     0.090000        1.0080           0
     26212 WT11     1029     MECN     C2       CG1N1    0.360000       12.0110           0
     26213 WT11     1029     MECN     N3       NG1T1   -0.460000       14.0070           0
     26214 WT11     1030     MECN     C1       CG331   -0.170000       12.0110           0
     26215 WT11     1030     MECN     H11      HGA3     0.090000        1.0080           0
     26216 WT11     1030     MECN     H12      HGA3     0.090000        1.0080           0
     26217 WT11     1030     MECN     H13      HGA3     0.090000        1.0080           0
     26218 WT11     1030     MECN     C2       CG1N1    0.360000       12.0110           0
     26219 WT11     1030     MECN     N3       NG1T1   -0.460000       14.0070           0
     26220 WT11     1038     MECN     C1       CG331   -0.170000       12.0110           0
     26221 WT11     1038     MECN     H11      HGA3     0.090000        1.0080           0
     26222 WT11     1038     MECN     H12      HGA3     0.090000        1.0080           0
     26223 WT11     1038     MECN     H13      HGA3     0.090000        1.0080           0
     26224 WT11     1038     MECN     C2       CG1N1    0.360000       12.0110           0
     26225 WT11     1038     MECN     N3       NG1T1   -0.460000       14.0070           0
     26226 WT11     1040     MECN     C1       CG331   -0.170000       12.0110           0
     26227 WT11     1040     MECN     H11      HGA3     0.090000        1.0080           0
     26228 WT11     1040     MECN     H12      HGA3     0.090000        1.0080           0
     26229 WT11     1040     MECN     H13      HGA3     0.090000        1.0080           0
     26230 WT11     1040     MECN     C2       CG1N1    0.360000       12.0110           0
     26231 WT11     1040     MECN     N3       NG1T1   -0.460000       14.0070           0
     26232 WT11     1042     MECN     C1       CG331   -0.170000       12.0110           0
     26233 WT11     1042     MECN     H11      HGA3     0.090000        1.0080           0
     26234 WT11     1042     MECN     H12      HGA3     0.090000        1.0080           0
     26235 WT11     1042     MECN     H13      HGA3     0.090000        1.0080           0
     26236 WT11     1042     MECN     C2       CG1N1    0.360000       12.0110           0
     26237 WT11     1042     MECN     N3       NG1T1   -0.460000       14.0070           0
     26238 WT11     1043     MECN     C1       CG331   -0.170000       12.0110           0
     26239 WT11     1043     MECN     H11      HGA3     0.090000        1.0080           0
     26240 WT11     1043     MECN     H12      HGA3     0.090000        1.0080           0
     26241 WT11     1043     MECN     H13      HGA3     0.090000        1.0080           0
     26242 WT11     1043     MECN     C2       CG1N1    0.360000       12.0110           0
     26243 WT11     1043     MECN     N3       NG1T1   -0.460000       14.0070           0
     26244 WT11     1045     MECN     C1       CG331   -0.170000       12.0110           0
     26245 WT11     1045     MECN     H11      HGA3     0.090000        1.0080           0
     26246 WT11     1045     MECN     H12      HGA3     0.090000        1.0080           0
     26247 WT11     1045     MECN     H13      HGA3     0.090000        1.0080           0
     26248 WT11     1045     MECN     C2       CG1N1    0.360000       12.0110           0
     26249 WT11     1045     MECN     N3       NG1T1   -0.460000       14.0070           0
     26250 WT11     1049     MECN     C1       CG331   -0.170000       12.0110           0
     26251 WT11     1049     MECN     H11      HGA3     0.090000        1.0080           0
     26252 WT11     1049     MECN     H12      HGA3     0.090000        1.0080           0
     26253 WT11     1049     MECN     H13      HGA3     0.090000        1.0080           0
     26254 WT11     1049     MECN     C2       CG1N1    0.360000       12.0110           0
     26255 WT11     1049     MECN     N3       NG1T1   -0.460000       14.0070           0
     26256 WT11     1050     MECN     C1       CG331   -0.170000       12.0110           0
     26257 WT11     1050     MECN     H11      HGA3     0.090000        1.0080           0
     26258 WT11     1050     MECN     H12      HGA3     0.090000        1.0080           0
     26259 WT11     1050     MECN     H13      HGA3     0.090000        1.0080           0
     26260 WT11     1050     MECN     C2       CG1N1    0.360000       12.0110           0
     26261 WT11     1050     MECN     N3       NG1T1   -0.460000       14.0070           0
     26262 WT11     1052     MECN     C1       CG331   -0.170000       12.0110           0
     26263 WT11     1052     MECN     H11      HGA3     0.090000        1.0080           0
     26264 WT11     1052     MECN     H12      HGA3     0.090000        1.0080           0
     26265 WT11     1052     MECN     H13      HGA3     0.090000        1.0080           0
     26266 WT11     1052     MECN     C2       CG1N1    0.360000       12.0110           0
     26267 WT11     1052     MECN     N3       NG1T1   -0.460000       14.0070           0
     26268 WT11     1070     MECN     C1       CG331   -0.170000       12.0110           0
     26269 WT11     1070     MECN     H11      HGA3     0.090000        1.0080           0
     26270 WT11     1070     MECN     H12      HGA3     0.090000        1.0080           0
     26271 WT11     1070     MECN     H13      HGA3     0.090000        1.0080           0
     26272 WT11     1070     MECN     C2       CG1N1    0.360000       12.0110           0
     26273 WT11     1070     MECN     N3       NG1T1   -0.460000       14.0070           0
     26274 WT11     1073     MECN     C1       CG331   -0.170000       12.0110           0
     26275 WT11     1073     MECN     H11      HGA3     0.090000        1.0080           0
     26276 WT11     1073     MECN     H12      HGA3     0.090000        1.0080           0
     26277 WT11     1073     MECN     H13      HGA3     0.090000        1.0080           0
     26278 WT11     1073     MECN     C2       CG1N1    0.360000       12.0110           0
     26279 WT11     1073     MECN     N3       NG1T1   -0.460000       14.0070           0
     26280 WT11     1075     MECN     C1       CG331   -0.170000       12.0110           0
     26281 WT11     1075     MECN     H11      HGA3     0.090000        1.0080           0
     26282 WT11     1075     MECN     H12      HGA3     0.090000        1.0080           0
     26283 WT11     1075     MECN     H13      HGA3     0.090000        1.0080           0
     26284 WT11     1075     MECN     C2       CG1N1    0.360000       12.0110           0
     26285 WT11     1075     MECN     N3       NG1T1   -0.460000       14.0070           0
     26286 WT11     1077     MECN     C1       CG331   -0.170000       12.0110           0
     26287 WT11     1077     MECN     H11      HGA3     0.090000        1.0080           0
     26288 WT11     1077     MECN     H12      HGA3     0.090000        1.0080           0
     26289 WT11     1077     MECN     H13      HGA3     0.090000        1.0080           0
     26290 WT11     1077     MECN     C2       CG1N1    0.360000       12.0110           0
     26291 WT11     1077     MECN     N3       NG1T1   -0.460000       14.0070           0
     26292 WT11     1083     MECN     C1       CG331   -0.170000       12.0110           0
     26293 WT11     1083     MECN     H11      HGA3     0.090000        1.0080           0
     26294 WT11     1083     MECN     H12      HGA3     0.090000        1.0080           0
     26295 WT11     1083     MECN     H13      HGA3     0.090000        1.0080           0
     26296 WT11     1083     MECN     C2       CG1N1    0.360000       12.0110           0
     26297 WT11     1083     MECN     N3       NG1T1   -0.460000       14.0070           0
     26298 WT11     1087     MECN     C1       CG331   -0.170000       12.0110           0
     26299 WT11     1087     MECN     H11      HGA3     0.090000        1.0080           0
     26300 WT11     1087     MECN     H12      HGA3     0.090000        1.0080           0
     26301 WT11     1087     MECN     H13      HGA3     0.090000        1.0080           0
     26302 WT11     1087     MECN     C2       CG1N1    0.360000       12.0110           0
     26303 WT11     1087     MECN     N3       NG1T1   -0.460000       14.0070           0
     26304 WT11     1088     MECN     C1       CG331   -0.170000       12.0110           0
     26305 WT11     1088     MECN     H11      HGA3     0.090000        1.0080           0
     26306 WT11     1088     MECN     H12      HGA3     0.090000        1.0080           0
     26307 WT11     1088     MECN     H13      HGA3     0.090000        1.0080           0
     26308 WT11     1088     MECN     C2       CG1N1    0.360000       12.0110           0
     26309 WT11     1088     MECN     N3       NG1T1   -0.460000       14.0070           0
     26310 WT11     1096     MECN     C1       CG331   -0.170000       12.0110           0
     26311 WT11     1096     MECN     H11      HGA3     0.090000        1.0080           0
     26312 WT11     1096     MECN     H12      HGA3     0.090000        1.0080           0
     26313 WT11     1096     MECN     H13      HGA3     0.090000        1.0080           0
     26314 WT11     1096     MECN     C2       CG1N1    0.360000       12.0110           0
     26315 WT11     1096     MECN     N3       NG1T1   -0.460000       14.0070           0
     26316 WT11     1098     MECN     C1       CG331   -0.170000       12.0110           0
     26317 WT11     1098     MECN     H11      HGA3     0.090000        1.0080           0
     26318 WT11     1098     MECN     H12      HGA3     0.090000        1.0080           0
     26319 WT11     1098     MECN     H13      HGA3     0.090000        1.0080           0
     26320 WT11     1098     MECN     C2       CG1N1    0.360000       12.0110           0
     26321 WT11     1098     MECN     N3       NG1T1   -0.460000       14.0070           0
     26322 WT11     1099     MECN     C1       CG331   -0.170000       12.0110           0
     26323 WT11     1099     MECN     H11      HGA3     0.090000        1.0080           0
     26324 WT11     1099     MECN     H12      HGA3     0.090000        1.0080           0
     26325 WT11     1099     MECN     H13      HGA3     0.090000        1.0080           0
     26326 WT11     1099     MECN     C2       CG1N1    0.360000       12.0110           0
     26327 WT11     1099     MECN     N3       NG1T1   -0.460000       14.0070           0
     26328 WT11     1100     MECN     C1       CG331   -0.170000       12.0110           0
     26329 WT11     1100     MECN     H11      HGA3     0.090000        1.0080           0
     26330 WT11     1100     MECN     H12      HGA3     0.090000        1.0080           0
     26331 WT11     1100     MECN     H13      HGA3     0.090000        1.0080           0
     26332 WT11     1100     MECN     C2       CG1N1    0.360000       12.0110           0
     26333 WT11     1100     MECN     N3       NG1T1   -0.460000       14.0070           0
     26334 WT11     1101     MECN     C1       CG331   -0.170000       12.0110           0
     26335 WT11     1101     MECN     H11      HGA3     0.090000        1.0080           0
     26336 WT11     1101     MECN     H12      HGA3     0.090000        1.0080           0
     26337 WT11     1101     MECN     H13      HGA3     0.090000        1.0080           0
     26338 WT11     1101     MECN     C2       CG1N1    0.360000       12.0110           0
     26339 WT11     1101     MECN     N3       NG1T1   -0.460000       14.0070           0
     26340 WT11     1110     MECN     C1       CG331   -0.170000       12.0110           0
     26341 WT11     1110     MECN     H11      HGA3     0.090000        1.0080           0
     26342 WT11     1110     MECN     H12      HGA3     0.090000        1.0080           0
     26343 WT11     1110     MECN     H13      HGA3     0.090000        1.0080           0
     26344 WT11     1110     MECN     C2       CG1N1    0.360000       12.0110           0
     26345 WT11     1110     MECN     N3       NG1T1   -0.460000       14.0070           0
     26346 WT11     1112     MECN     C1       CG331   -0.170000       12.0110           0
     26347 WT11     1112     MECN     H11      HGA3     0.090000        1.0080           0
     26348 WT11     1112     MECN     H12      HGA3     0.090000        1.0080           0
     26349 WT11     1112     MECN     H13      HGA3     0.090000        1.0080           0
     26350 WT11     1112     MECN     C2       CG1N1    0.360000       12.0110           0
     26351 WT11     1112     MECN     N3       NG1T1   -0.460000       14.0070           0
     26352 WT11     1115     MECN     C1       CG331   -0.170000       12.0110           0
     26353 WT11     1115     MECN     H11      HGA3     0.090000        1.0080           0
     26354 WT11     1115     MECN     H12      HGA3     0.090000        1.0080           0
     26355 WT11     1115     MECN     H13      HGA3     0.090000        1.0080           0
     26356 WT11     1115     MECN     C2       CG1N1    0.360000       12.0110           0
     26357 WT11     1115     MECN     N3       NG1T1   -0.460000       14.0070           0
     26358 WT11     1123     MECN     C1       CG331   -0.170000       12.0110           0
     26359 WT11     1123     MECN     H11      HGA3     0.090000        1.0080           0
     26360 WT11     1123     MECN     H12      HGA3     0.090000        1.0080           0
     26361 WT11     1123     MECN     H13      HGA3     0.090000        1.0080           0
     26362 WT11     1123     MECN     C2       CG1N1    0.360000       12.0110           0
     26363 WT11     1123     MECN     N3       NG1T1   -0.460000       14.0070           0
     26364 WT11     1127     MECN     C1       CG331   -0.170000       12.0110           0
     26365 WT11     1127     MECN     H11      HGA3     0.090000        1.0080           0
     26366 WT11     1127     MECN     H12      HGA3     0.090000        1.0080           0
     26367 WT11     1127     MECN     H13      HGA3     0.090000        1.0080           0
     26368 WT11     1127     MECN     C2       CG1N1    0.360000       12.0110           0
     26369 WT11     1127     MECN     N3       NG1T1   -0.460000       14.0070           0
     26370 WT11     1129     MECN     C1       CG331   -0.170000       12.0110           0
     26371 WT11     1129     MECN     H11      HGA3     0.090000        1.0080           0
     26372 WT11     1129     MECN     H12      HGA3     0.090000        1.0080           0
     26373 WT11     1129     MECN     H13      HGA3     0.090000        1.0080           0
     26374 WT11     1129     MECN     C2       CG1N1    0.360000       12.0110           0
     26375 WT11     1129     MECN     N3       NG1T1   -0.460000       14.0070           0
     26376 WT11     1130     MECN     C1       CG331   -0.170000       12.0110           0
     26377 WT11     1130     MECN     H11      HGA3     0.090000        1.0080           0
     26378 WT11     1130     MECN     H12      HGA3     0.090000        1.0080           0
     26379 WT11     1130     MECN     H13      HGA3     0.090000        1.0080           0
     26380 WT11     1130     MECN     C2       CG1N1    0.360000       12.0110           0
     26381 WT11     1130     MECN     N3       NG1T1   -0.460000       14.0070           0
     26382 WT11     1134     MECN     C1       CG331   -0.170000       12.0110           0
     26383 WT11     1134     MECN     H11      HGA3     0.090000        1.0080           0
     26384 WT11     1134     MECN     H12      HGA3     0.090000        1.0080           0
     26385 WT11     1134     MECN     H13      HGA3     0.090000        1.0080           0
     26386 WT11     1134     MECN     C2       CG1N1    0.360000       12.0110           0
     26387 WT11     1134     MECN     N3       NG1T1   -0.460000       14.0070           0
     26388 WT11     1138     MECN     C1       CG331   -0.170000       12.0110           0
     26389 WT11     1138     MECN     H11      HGA3     0.090000        1.0080           0
     26390 WT11     1138     MECN     H12      HGA3     0.090000        1.0080           0
     26391 WT11     1138     MECN     H13      HGA3     0.090000        1.0080           0
     26392 WT11     1138     MECN     C2       CG1N1    0.360000       12.0110           0
     26393 WT11     1138     MECN     N3       NG1T1   -0.460000       14.0070           0
     26394 WT11     1139     MECN     C1       CG331   -0.170000       12.0110           0
     26395 WT11     1139     MECN     H11      HGA3     0.090000        1.0080           0
     26396 WT11     1139     MECN     H12      HGA3     0.090000        1.0080           0
     26397 WT11     1139     MECN     H13      HGA3     0.090000        1.0080           0
     26398 WT11     1139     MECN     C2       CG1N1    0.360000       12.0110           0
     26399 WT11     1139     MECN     N3       NG1T1   -0.460000       14.0070           0
     26400 WT11     1140     MECN     C1       CG331   -0.170000       12.0110           0
     26401 WT11     1140     MECN     H11      HGA3     0.090000        1.0080           0
     26402 WT11     1140     MECN     H12      HGA3     0.090000        1.0080           0
     26403 WT11     1140     MECN     H13      HGA3     0.090000        1.0080           0
     26404 WT11     1140     MECN     C2       CG1N1    0.360000       12.0110           0
     26405 WT11     1140     MECN     N3       NG1T1   -0.460000       14.0070           0
     26406 WT11     1141     MECN     C1       CG331   -0.170000       12.0110           0
     26407 WT11     1141     MECN     H11      HGA3     0.090000        1.0080           0
     26408 WT11     1141     MECN     H12      HGA3     0.090000        1.0080           0
     26409 WT11     1141     MECN     H13      HGA3     0.090000        1.0080           0
     26410 WT11     1141     MECN     C2       CG1N1    0.360000       12.0110           0
     26411 WT11     1141     MECN     N3       NG1T1   -0.460000       14.0070           0
     26412 WT11     1142     MECN     C1       CG331   -0.170000       12.0110           0
     26413 WT11     1142     MECN     H11      HGA3     0.090000        1.0080           0
     26414 WT11     1142     MECN     H12      HGA3     0.090000        1.0080           0
     26415 WT11     1142     MECN     H13      HGA3     0.090000        1.0080           0
     26416 WT11     1142     MECN     C2       CG1N1    0.360000       12.0110           0
     26417 WT11     1142     MECN     N3       NG1T1   -0.460000       14.0070           0
     26418 WT11     1143     MECN     C1       CG331   -0.170000       12.0110           0
     26419 WT11     1143     MECN     H11      HGA3     0.090000        1.0080           0
     26420 WT11     1143     MECN     H12      HGA3     0.090000        1.0080           0
     26421 WT11     1143     MECN     H13      HGA3     0.090000        1.0080           0
     26422 WT11     1143     MECN     C2       CG1N1    0.360000       12.0110           0
     26423 WT11     1143     MECN     N3       NG1T1   -0.460000       14.0070           0
     26424 WT11     1144     MECN     C1       CG331   -0.170000       12.0110           0
     26425 WT11     1144     MECN     H11      HGA3     0.090000        1.0080           0
     26426 WT11     1144     MECN     H12      HGA3     0.090000        1.0080           0
     26427 WT11     1144     MECN     H13      HGA3     0.090000        1.0080           0
     26428 WT11     1144     MECN     C2       CG1N1    0.360000       12.0110           0
     26429 WT11     1144     MECN     N3       NG1T1   -0.460000       14.0070           0
     26430 WT11     1153     MECN     C1       CG331   -0.170000       12.0110           0
     26431 WT11     1153     MECN     H11      HGA3     0.090000        1.0080           0
     26432 WT11     1153     MECN     H12      HGA3     0.090000        1.0080           0
     26433 WT11     1153     MECN     H13      HGA3     0.090000        1.0080           0
     26434 WT11     1153     MECN     C2       CG1N1    0.360000       12.0110           0
     26435 WT11     1153     MECN     N3       NG1T1   -0.460000       14.0070           0
     26436 WT11     1154     MECN     C1       CG331   -0.170000       12.0110           0
     26437 WT11     1154     MECN     H11      HGA3     0.090000        1.0080           0
     26438 WT11     1154     MECN     H12      HGA3     0.090000        1.0080           0
     26439 WT11     1154     MECN     H13      HGA3     0.090000        1.0080           0
     26440 WT11     1154     MECN     C2       CG1N1    0.360000       12.0110           0
     26441 WT11     1154     MECN     N3       NG1T1   -0.460000       14.0070           0
     26442 WT11     1157     MECN     C1       CG331   -0.170000       12.0110           0
     26443 WT11     1157     MECN     H11      HGA3     0.090000        1.0080           0
     26444 WT11     1157     MECN     H12      HGA3     0.090000        1.0080           0
     26445 WT11     1157     MECN     H13      HGA3     0.090000        1.0080           0
     26446 WT11     1157     MECN     C2       CG1N1    0.360000       12.0110           0
     26447 WT11     1157     MECN     N3       NG1T1   -0.460000       14.0070           0
     26448 WT11     1164     MECN     C1       CG331   -0.170000       12.0110           0
     26449 WT11     1164     MECN     H11      HGA3     0.090000        1.0080           0
     26450 WT11     1164     MECN     H12      HGA3     0.090000        1.0080           0
     26451 WT11     1164     MECN     H13      HGA3     0.090000        1.0080           0
     26452 WT11     1164     MECN     C2       CG1N1    0.360000       12.0110           0
     26453 WT11     1164     MECN     N3       NG1T1   -0.460000       14.0070           0
     26454 WT11     1165     MECN     C1       CG331   -0.170000       12.0110           0
     26455 WT11     1165     MECN     H11      HGA3     0.090000        1.0080           0
     26456 WT11     1165     MECN     H12      HGA3     0.090000        1.0080           0
     26457 WT11     1165     MECN     H13      HGA3     0.090000        1.0080           0
     26458 WT11     1165     MECN     C2       CG1N1    0.360000       12.0110           0
     26459 WT11     1165     MECN     N3       NG1T1   -0.460000       14.0070           0
     26460 WT11     1166     MECN     C1       CG331   -0.170000       12.0110           0
     26461 WT11     1166     MECN     H11      HGA3     0.090000        1.0080           0
     26462 WT11     1166     MECN     H12      HGA3     0.090000        1.0080           0
     26463 WT11     1166     MECN     H13      HGA3     0.090000        1.0080           0
     26464 WT11     1166     MECN     C2       CG1N1    0.360000       12.0110           0
     26465 WT11     1166     MECN     N3       NG1T1   -0.460000       14.0070           0
     26466 WT11     1167     MECN     C1       CG331   -0.170000       12.0110           0
     26467 WT11     1167     MECN     H11      HGA3     0.090000        1.0080           0
     26468 WT11     1167     MECN     H12      HGA3     0.090000        1.0080           0
     26469 WT11     1167     MECN     H13      HGA3     0.090000        1.0080           0
     26470 WT11     1167     MECN     C2       CG1N1    0.360000       12.0110           0
     26471 WT11     1167     MECN     N3       NG1T1   -0.460000       14.0070           0
     26472 WT11     1169     MECN     C1       CG331   -0.170000       12.0110           0
     26473 WT11     1169     MECN     H11      HGA3     0.090000        1.0080           0
     26474 WT11     1169     MECN     H12      HGA3     0.090000        1.0080           0
     26475 WT11     1169     MECN     H13      HGA3     0.090000        1.0080           0
     26476 WT11     1169     MECN     C2       CG1N1    0.360000       12.0110           0
     26477 WT11     1169     MECN     N3       NG1T1   -0.460000       14.0070           0
     26478 WT11     1172     MECN     C1       CG331   -0.170000       12.0110           0
     26479 WT11     1172     MECN     H11      HGA3     0.090000        1.0080           0
     26480 WT11     1172     MECN     H12      HGA3     0.090000        1.0080           0
     26481 WT11     1172     MECN     H13      HGA3     0.090000        1.0080           0
     26482 WT11     1172     MECN     C2       CG1N1    0.360000       12.0110           0
     26483 WT11     1172     MECN     N3       NG1T1   -0.460000       14.0070           0
     26484 WT11     1173     MECN     C1       CG331   -0.170000       12.0110           0
     26485 WT11     1173     MECN     H11      HGA3     0.090000        1.0080           0
     26486 WT11     1173     MECN     H12      HGA3     0.090000        1.0080           0
     26487 WT11     1173     MECN     H13      HGA3     0.090000        1.0080           0
     26488 WT11     1173     MECN     C2       CG1N1    0.360000       12.0110           0
     26489 WT11     1173     MECN     N3       NG1T1   -0.460000       14.0070           0
     26490 WT11     1174     MECN     C1       CG331   -0.170000       12.0110           0
     26491 WT11     1174     MECN     H11      HGA3     0.090000        1.0080           0
     26492 WT11     1174     MECN     H12      HGA3     0.090000        1.0080           0
     26493 WT11     1174     MECN     H13      HGA3     0.090000        1.0080           0
     26494 WT11     1174     MECN     C2       CG1N1    0.360000       12.0110           0
     26495 WT11     1174     MECN     N3       NG1T1   -0.460000       14.0070           0
     26496 WT11     1178     MECN     C1       CG331   -0.170000       12.0110           0
     26497 WT11     1178     MECN     H11      HGA3     0.090000        1.0080           0
     26498 WT11     1178     MECN     H12      HGA3     0.090000        1.0080           0
     26499 WT11     1178     MECN     H13      HGA3     0.090000        1.0080           0
     26500 WT11     1178     MECN     C2       CG1N1    0.360000       12.0110           0
     26501 WT11     1178     MECN     N3       NG1T1   -0.460000       14.0070           0
     26502 WT11     1180     MECN     C1       CG331   -0.170000       12.0110           0
     26503 WT11     1180     MECN     H11      HGA3     0.090000        1.0080           0
     26504 WT11     1180     MECN     H12      HGA3     0.090000        1.0080           0
     26505 WT11     1180     MECN     H13      HGA3     0.090000        1.0080           0
     26506 WT11     1180     MECN     C2       CG1N1    0.360000       12.0110           0
     26507 WT11     1180     MECN     N3       NG1T1   -0.460000       14.0070           0
     26508 WT11     1181     MECN     C1       CG331   -0.170000       12.0110           0
     26509 WT11     1181     MECN     H11      HGA3     0.090000        1.0080           0
     26510 WT11     1181     MECN     H12      HGA3     0.090000        1.0080           0
     26511 WT11     1181     MECN     H13      HGA3     0.090000        1.0080           0
     26512 WT11     1181     MECN     C2       CG1N1    0.360000       12.0110           0
     26513 WT11     1181     MECN     N3       NG1T1   -0.460000       14.0070           0
     26514 WT11     1186     MECN     C1       CG331   -0.170000       12.0110           0
     26515 WT11     1186     MECN     H11      HGA3     0.090000        1.0080           0
     26516 WT11     1186     MECN     H12      HGA3     0.090000        1.0080           0
     26517 WT11     1186     MECN     H13      HGA3     0.090000        1.0080           0
     26518 WT11     1186     MECN     C2       CG1N1    0.360000       12.0110           0
     26519 WT11     1186     MECN     N3       NG1T1   -0.460000       14.0070           0
     26520 WT11     1187     MECN     C1       CG331   -0.170000       12.0110           0
     26521 WT11     1187     MECN     H11      HGA3     0.090000        1.0080           0
     26522 WT11     1187     MECN     H12      HGA3     0.090000        1.0080           0
     26523 WT11     1187     MECN     H13      HGA3     0.090000        1.0080           0
     26524 WT11     1187     MECN     C2       CG1N1    0.360000       12.0110           0
     26525 WT11     1187     MECN     N3       NG1T1   -0.460000       14.0070           0
     26526 WT11     1189     MECN     C1       CG331   -0.170000       12.0110           0
     26527 WT11     1189     MECN     H11      HGA3     0.090000        1.0080           0
     26528 WT11     1189     MECN     H12      HGA3     0.090000        1.0080           0
     26529 WT11     1189     MECN     H13      HGA3     0.090000        1.0080           0
     26530 WT11     1189     MECN     C2       CG1N1    0.360000       12.0110           0
     26531 WT11     1189     MECN     N3       NG1T1   -0.460000       14.0070           0
     26532 WT11     1190     MECN     C1       CG331   -0.170000       12.0110           0
     26533 WT11     1190     MECN     H11      HGA3     0.090000        1.0080           0
     26534 WT11     1190     MECN     H12      HGA3     0.090000        1.0080           0
     26535 WT11     1190     MECN     H13      HGA3     0.090000        1.0080           0
     26536 WT11     1190     MECN     C2       CG1N1    0.360000       12.0110           0
     26537 WT11     1190     MECN     N3       NG1T1   -0.460000       14.0070           0
     26538 WT11     1191     MECN     C1       CG331   -0.170000       12.0110           0
     26539 WT11     1191     MECN     H11      HGA3     0.090000        1.0080           0
     26540 WT11     1191     MECN     H12      HGA3     0.090000        1.0080           0
     26541 WT11     1191     MECN     H13      HGA3     0.090000        1.0080           0
     26542 WT11     1191     MECN     C2       CG1N1    0.360000       12.0110           0
     26543 WT11     1191     MECN     N3       NG1T1   -0.460000       14.0070           0
     26544 WT11     1192     MECN     C1       CG331   -0.170000       12.0110           0
     26545 WT11     1192     MECN     H11      HGA3     0.090000        1.0080           0
     26546 WT11     1192     MECN     H12      HGA3     0.090000        1.0080           0
     26547 WT11     1192     MECN     H13      HGA3     0.090000        1.0080           0
     26548 WT11     1192     MECN     C2       CG1N1    0.360000       12.0110           0
     26549 WT11     1192     MECN     N3       NG1T1   -0.460000       14.0070           0
     26550 WT11     1194     MECN     C1       CG331   -0.170000       12.0110           0
     26551 WT11     1194     MECN     H11      HGA3     0.090000        1.0080           0
     26552 WT11     1194     MECN     H12      HGA3     0.090000        1.0080           0
     26553 WT11     1194     MECN     H13      HGA3     0.090000        1.0080           0
     26554 WT11     1194     MECN     C2       CG1N1    0.360000       12.0110           0
     26555 WT11     1194     MECN     N3       NG1T1   -0.460000       14.0070           0
     26556 WT11     1195     MECN     C1       CG331   -0.170000       12.0110           0
     26557 WT11     1195     MECN     H11      HGA3     0.090000        1.0080           0
     26558 WT11     1195     MECN     H12      HGA3     0.090000        1.0080           0
     26559 WT11     1195     MECN     H13      HGA3     0.090000        1.0080           0
     26560 WT11     1195     MECN     C2       CG1N1    0.360000       12.0110           0
     26561 WT11     1195     MECN     N3       NG1T1   -0.460000       14.0070           0
     26562 WT11     1198     MECN     C1       CG331   -0.170000       12.0110           0
     26563 WT11     1198     MECN     H11      HGA3     0.090000        1.0080           0
     26564 WT11     1198     MECN     H12      HGA3     0.090000        1.0080           0
     26565 WT11     1198     MECN     H13      HGA3     0.090000        1.0080           0
     26566 WT11     1198     MECN     C2       CG1N1    0.360000       12.0110           0
     26567 WT11     1198     MECN     N3       NG1T1   -0.460000       14.0070           0
     26568 WT11     1199     MECN     C1       CG331   -0.170000       12.0110           0
     26569 WT11     1199     MECN     H11      HGA3     0.090000        1.0080           0
     26570 WT11     1199     MECN     H12      HGA3     0.090000        1.0080           0
     26571 WT11     1199     MECN     H13      HGA3     0.090000        1.0080           0
     26572 WT11     1199     MECN     C2       CG1N1    0.360000       12.0110           0
     26573 WT11     1199     MECN     N3       NG1T1   -0.460000       14.0070           0
     26574 WT11     1201     MECN     C1       CG331   -0.170000       12.0110           0
     26575 WT11     1201     MECN     H11      HGA3     0.090000        1.0080           0
     26576 WT11     1201     MECN     H12      HGA3     0.090000        1.0080           0
     26577 WT11     1201     MECN     H13      HGA3     0.090000        1.0080           0
     26578 WT11     1201     MECN     C2       CG1N1    0.360000       12.0110           0
     26579 WT11     1201     MECN     N3       NG1T1   -0.460000       14.0070           0
     26580 WT11     1202     MECN     C1       CG331   -0.170000       12.0110           0
     26581 WT11     1202     MECN     H11      HGA3     0.090000        1.0080           0
     26582 WT11     1202     MECN     H12      HGA3     0.090000        1.0080           0
     26583 WT11     1202     MECN     H13      HGA3     0.090000        1.0080           0
     26584 WT11     1202     MECN     C2       CG1N1    0.360000       12.0110           0
     26585 WT11     1202     MECN     N3       NG1T1   -0.460000       14.0070           0
     26586 WT11     1207     MECN     C1       CG331   -0.170000       12.0110           0
     26587 WT11     1207     MECN     H11      HGA3     0.090000        1.0080           0
     26588 WT11     1207     MECN     H12      HGA3     0.090000        1.0080           0
     26589 WT11     1207     MECN     H13      HGA3     0.090000        1.0080           0
     26590 WT11     1207     MECN     C2       CG1N1    0.360000       12.0110           0
     26591 WT11     1207     MECN     N3       NG1T1   -0.460000       14.0070           0
     26592 WT11     1212     MECN     C1       CG331   -0.170000       12.0110           0
     26593 WT11     1212     MECN     H11      HGA3     0.090000        1.0080           0
     26594 WT11     1212     MECN     H12      HGA3     0.090000        1.0080           0
     26595 WT11     1212     MECN     H13      HGA3     0.090000        1.0080           0
     26596 WT11     1212     MECN     C2       CG1N1    0.360000       12.0110           0
     26597 WT11     1212     MECN     N3       NG1T1   -0.460000       14.0070           0
     26598 WT11     1214     MECN     C1       CG331   -0.170000       12.0110           0
     26599 WT11     1214     MECN     H11      HGA3     0.090000        1.0080           0
     26600 WT11     1214     MECN     H12      HGA3     0.090000        1.0080           0
     26601 WT11     1214     MECN     H13      HGA3     0.090000        1.0080           0
     26602 WT11     1214     MECN     C2       CG1N1    0.360000       12.0110           0
     26603 WT11     1214     MECN     N3       NG1T1   -0.460000       14.0070           0
     26604 WT11     1215     MECN     C1       CG331   -0.170000       12.0110           0
     26605 WT11     1215     MECN     H11      HGA3     0.090000        1.0080           0
     26606 WT11     1215     MECN     H12      HGA3     0.090000        1.0080           0
     26607 WT11     1215     MECN     H13      HGA3     0.090000        1.0080           0
     26608 WT11     1215     MECN     C2       CG1N1    0.360000       12.0110           0
     26609 WT11     1215     MECN     N3       NG1T1   -0.460000       14.0070           0
     26610 WT11     1219     MECN     C1       CG331   -0.170000       12.0110           0
     26611 WT11     1219     MECN     H11      HGA3     0.090000        1.0080           0
     26612 WT11     1219     MECN     H12      HGA3     0.090000        1.0080           0
     26613 WT11     1219     MECN     H13      HGA3     0.090000        1.0080           0
     26614 WT11     1219     MECN     C2       CG1N1    0.360000       12.0110           0
     26615 WT11     1219     MECN     N3       NG1T1   -0.460000       14.0070           0
     26616 WT11     1220     MECN     C1       CG331   -0.170000       12.0110           0
     26617 WT11     1220     MECN     H11      HGA3     0.090000        1.0080           0
     26618 WT11     1220     MECN     H12      HGA3     0.090000        1.0080           0
     26619 WT11     1220     MECN     H13      HGA3     0.090000        1.0080           0
     26620 WT11     1220     MECN     C2       CG1N1    0.360000       12.0110           0
     26621 WT11     1220     MECN     N3       NG1T1   -0.460000       14.0070           0
     26622 WT11     1223     MECN     C1       CG331   -0.170000       12.0110           0
     26623 WT11     1223     MECN     H11      HGA3     0.090000        1.0080           0
     26624 WT11     1223     MECN     H12      HGA3     0.090000        1.0080           0
     26625 WT11     1223     MECN     H13      HGA3     0.090000        1.0080           0
     26626 WT11     1223     MECN     C2       CG1N1    0.360000       12.0110           0
     26627 WT11     1223     MECN     N3       NG1T1   -0.460000       14.0070           0
     26628 WT11     1225     MECN     C1       CG331   -0.170000       12.0110           0
     26629 WT11     1225     MECN     H11      HGA3     0.090000        1.0080           0
     26630 WT11     1225     MECN     H12      HGA3     0.090000        1.0080           0
     26631 WT11     1225     MECN     H13      HGA3     0.090000        1.0080           0
     26632 WT11     1225     MECN     C2       CG1N1    0.360000       12.0110           0
     26633 WT11     1225     MECN     N3       NG1T1   -0.460000       14.0070           0
     26634 WT11     1226     MECN     C1       CG331   -0.170000       12.0110           0
     26635 WT11     1226     MECN     H11      HGA3     0.090000        1.0080           0
     26636 WT11     1226     MECN     H12      HGA3     0.090000        1.0080           0
     26637 WT11     1226     MECN     H13      HGA3     0.090000        1.0080           0
     26638 WT11     1226     MECN     C2       CG1N1    0.360000       12.0110           0
     26639 WT11     1226     MECN     N3       NG1T1   -0.460000       14.0070           0
     26640 WT11     1231     MECN     C1       CG331   -0.170000       12.0110           0
     26641 WT11     1231     MECN     H11      HGA3     0.090000        1.0080           0
     26642 WT11     1231     MECN     H12      HGA3     0.090000        1.0080           0
     26643 WT11     1231     MECN     H13      HGA3     0.090000        1.0080           0
     26644 WT11     1231     MECN     C2       CG1N1    0.360000       12.0110           0
     26645 WT11     1231     MECN     N3       NG1T1   -0.460000       14.0070           0
     26646 WT11     1232     MECN     C1       CG331   -0.170000       12.0110           0
     26647 WT11     1232     MECN     H11      HGA3     0.090000        1.0080           0
     26648 WT11     1232     MECN     H12      HGA3     0.090000        1.0080           0
     26649 WT11     1232     MECN     H13      HGA3     0.090000        1.0080           0
     26650 WT11     1232     MECN     C2       CG1N1    0.360000       12.0110           0
     26651 WT11     1232     MECN     N3       NG1T1   -0.460000       14.0070           0
     26652 WT11     1233     MECN     C1       CG331   -0.170000       12.0110           0
     26653 WT11     1233     MECN     H11      HGA3     0.090000        1.0080           0
     26654 WT11     1233     MECN     H12      HGA3     0.090000        1.0080           0
     26655 WT11     1233     MECN     H13      HGA3     0.090000        1.0080           0
     26656 WT11     1233     MECN     C2       CG1N1    0.360000       12.0110           0
     26657 WT11     1233     MECN     N3       NG1T1   -0.460000       14.0070           0
     26658 WT11     1236     MECN     C1       CG331   -0.170000       12.0110           0
     26659 WT11     1236     MECN     H11      HGA3     0.090000        1.0080           0
     26660 WT11     1236     MECN     H12      HGA3     0.090000        1.0080           0
     26661 WT11     1236     MECN     H13      HGA3     0.090000        1.0080           0
     26662 WT11     1236     MECN     C2       CG1N1    0.360000       12.0110           0
     26663 WT11     1236     MECN     N3       NG1T1   -0.460000       14.0070           0
     26664 WT11     1238     MECN     C1       CG331   -0.170000       12.0110           0
     26665 WT11     1238     MECN     H11      HGA3     0.090000        1.0080           0
     26666 WT11     1238     MECN     H12      HGA3     0.090000        1.0080           0
     26667 WT11     1238     MECN     H13      HGA3     0.090000        1.0080           0
     26668 WT11     1238     MECN     C2       CG1N1    0.360000       12.0110           0
     26669 WT11     1238     MECN     N3       NG1T1   -0.460000       14.0070           0
     26670 WT11     1245     MECN     C1       CG331   -0.170000       12.0110           0
     26671 WT11     1245     MECN     H11      HGA3     0.090000        1.0080           0
     26672 WT11     1245     MECN     H12      HGA3     0.090000        1.0080           0
     26673 WT11     1245     MECN     H13      HGA3     0.090000        1.0080           0
     26674 WT11     1245     MECN     C2       CG1N1    0.360000       12.0110           0
     26675 WT11     1245     MECN     N3       NG1T1   -0.460000       14.0070           0
     26676 WT11     1246     MECN     C1       CG331   -0.170000       12.0110           0
     26677 WT11     1246     MECN     H11      HGA3     0.090000        1.0080           0
     26678 WT11     1246     MECN     H12      HGA3     0.090000        1.0080           0
     26679 WT11     1246     MECN     H13      HGA3     0.090000        1.0080           0
     26680 WT11     1246     MECN     C2       CG1N1    0.360000       12.0110           0
     26681 WT11     1246     MECN     N3       NG1T1   -0.460000       14.0070           0
     26682 WT11     1247     MECN     C1       CG331   -0.170000       12.0110           0
     26683 WT11     1247     MECN     H11      HGA3     0.090000        1.0080           0
     26684 WT11     1247     MECN     H12      HGA3     0.090000        1.0080           0
     26685 WT11     1247     MECN     H13      HGA3     0.090000        1.0080           0
     26686 WT11     1247     MECN     C2       CG1N1    0.360000       12.0110           0
     26687 WT11     1247     MECN     N3       NG1T1   -0.460000       14.0070           0
     26688 WT11     1249     MECN     C1       CG331   -0.170000       12.0110           0
     26689 WT11     1249     MECN     H11      HGA3     0.090000        1.0080           0
     26690 WT11     1249     MECN     H12      HGA3     0.090000        1.0080           0
     26691 WT11     1249     MECN     H13      HGA3     0.090000        1.0080           0
     26692 WT11     1249     MECN     C2       CG1N1    0.360000       12.0110           0
     26693 WT11     1249     MECN     N3       NG1T1   -0.460000       14.0070           0
     26694 WT11     1252     MECN     C1       CG331   -0.170000       12.0110           0
     26695 WT11     1252     MECN     H11      HGA3     0.090000        1.0080           0
     26696 WT11     1252     MECN     H12      HGA3     0.090000        1.0080           0
     26697 WT11     1252     MECN     H13      HGA3     0.090000        1.0080           0
     26698 WT11     1252     MECN     C2       CG1N1    0.360000       12.0110           0
     26699 WT11     1252     MECN     N3       NG1T1   -0.460000       14.0070           0
     26700 WT11     1255     MECN     C1       CG331   -0.170000       12.0110           0
     26701 WT11     1255     MECN     H11      HGA3     0.090000        1.0080           0
     26702 WT11     1255     MECN     H12      HGA3     0.090000        1.0080           0
     26703 WT11     1255     MECN     H13      HGA3     0.090000        1.0080           0
     26704 WT11     1255     MECN     C2       CG1N1    0.360000       12.0110           0
     26705 WT11     1255     MECN     N3       NG1T1   -0.460000       14.0070           0
     26706 WT11     1256     MECN     C1       CG331   -0.170000       12.0110           0
     26707 WT11     1256     MECN     H11      HGA3     0.090000        1.0080           0
     26708 WT11     1256     MECN     H12      HGA3     0.090000        1.0080           0
     26709 WT11     1256     MECN     H13      HGA3     0.090000        1.0080           0
     26710 WT11     1256     MECN     C2       CG1N1    0.360000       12.0110           0
     26711 WT11     1256     MECN     N3       NG1T1   -0.460000       14.0070           0
     26712 WT11     1257     MECN     C1       CG331   -0.170000       12.0110           0
     26713 WT11     1257     MECN     H11      HGA3     0.090000        1.0080           0
     26714 WT11     1257     MECN     H12      HGA3     0.090000        1.0080           0
     26715 WT11     1257     MECN     H13      HGA3     0.090000        1.0080           0
     26716 WT11     1257     MECN     C2       CG1N1    0.360000       12.0110           0
     26717 WT11     1257     MECN     N3       NG1T1   -0.460000       14.0070           0
     26718 WT11     1259     MECN     C1       CG331   -0.170000       12.0110           0
     26719 WT11     1259     MECN     H11      HGA3     0.090000        1.0080           0
     26720 WT11     1259     MECN     H12      HGA3     0.090000        1.0080           0
     26721 WT11     1259     MECN     H13      HGA3     0.090000        1.0080           0
     26722 WT11     1259     MECN     C2       CG1N1    0.360000       12.0110           0
     26723 WT11     1259     MECN     N3       NG1T1   -0.460000       14.0070           0
     26724 WT11     1266     MECN     C1       CG331   -0.170000       12.0110           0
     26725 WT11     1266     MECN     H11      HGA3     0.090000        1.0080           0
     26726 WT11     1266     MECN     H12      HGA3     0.090000        1.0080           0
     26727 WT11     1266     MECN     H13      HGA3     0.090000        1.0080           0
     26728 WT11     1266     MECN     C2       CG1N1    0.360000       12.0110           0
     26729 WT11     1266     MECN     N3       NG1T1   -0.460000       14.0070           0
     26730 WT11     1267     MECN     C1       CG331   -0.170000       12.0110           0
     26731 WT11     1267     MECN     H11      HGA3     0.090000        1.0080           0
     26732 WT11     1267     MECN     H12      HGA3     0.090000        1.0080           0
     26733 WT11     1267     MECN     H13      HGA3     0.090000        1.0080           0
     26734 WT11     1267     MECN     C2       CG1N1    0.360000       12.0110           0
     26735 WT11     1267     MECN     N3       NG1T1   -0.460000       14.0070           0
     26736 WT11     1270     MECN     C1       CG331   -0.170000       12.0110           0
     26737 WT11     1270     MECN     H11      HGA3     0.090000        1.0080           0
     26738 WT11     1270     MECN     H12      HGA3     0.090000        1.0080           0
     26739 WT11     1270     MECN     H13      HGA3     0.090000        1.0080           0
     26740 WT11     1270     MECN     C2       CG1N1    0.360000       12.0110           0
     26741 WT11     1270     MECN     N3       NG1T1   -0.460000       14.0070           0
     26742 WT11     1272     MECN     C1       CG331   -0.170000       12.0110           0
     26743 WT11     1272     MECN     H11      HGA3     0.090000        1.0080           0
     26744 WT11     1272     MECN     H12      HGA3     0.090000        1.0080           0
     26745 WT11     1272     MECN     H13      HGA3     0.090000        1.0080           0
     26746 WT11     1272     MECN     C2       CG1N1    0.360000       12.0110           0
     26747 WT11     1272     MECN     N3       NG1T1   -0.460000       14.0070           0
     26748 WT11     1275     MECN     C1       CG331   -0.170000       12.0110           0
     26749 WT11     1275     MECN     H11      HGA3     0.090000        1.0080           0
     26750 WT11     1275     MECN     H12      HGA3     0.090000        1.0080           0
     26751 WT11     1275     MECN     H13      HGA3     0.090000        1.0080           0
     26752 WT11     1275     MECN     C2       CG1N1    0.360000       12.0110           0
     26753 WT11     1275     MECN     N3       NG1T1   -0.460000       14.0070           0
     26754 WT11     1276     MECN     C1       CG331   -0.170000       12.0110           0
     26755 WT11     1276     MECN     H11      HGA3     0.090000        1.0080           0
     26756 WT11     1276     MECN     H12      HGA3     0.090000        1.0080           0
     26757 WT11     1276     MECN     H13      HGA3     0.090000        1.0080           0
     26758 WT11     1276     MECN     C2       CG1N1    0.360000       12.0110           0
     26759 WT11     1276     MECN     N3       NG1T1   -0.460000       14.0070           0
     26760 WT11     1278     MECN     C1       CG331   -0.170000       12.0110           0
     26761 WT11     1278     MECN     H11      HGA3     0.090000        1.0080           0
     26762 WT11     1278     MECN     H12      HGA3     0.090000        1.0080           0
     26763 WT11     1278     MECN     H13      HGA3     0.090000        1.0080           0
     26764 WT11     1278     MECN     C2       CG1N1    0.360000       12.0110           0
     26765 WT11     1278     MECN     N3       NG1T1   -0.460000       14.0070           0
     26766 WT11     1279     MECN     C1       CG331   -0.170000       12.0110           0
     26767 WT11     1279     MECN     H11      HGA3     0.090000        1.0080           0
     26768 WT11     1279     MECN     H12      HGA3     0.090000        1.0080           0
     26769 WT11     1279     MECN     H13      HGA3     0.090000        1.0080           0
     26770 WT11     1279     MECN     C2       CG1N1    0.360000       12.0110           0
     26771 WT11     1279     MECN     N3       NG1T1   -0.460000       14.0070           0
     26772 WT11     1280     MECN     C1       CG331   -0.170000       12.0110           0
     26773 WT11     1280     MECN     H11      HGA3     0.090000        1.0080           0
     26774 WT11     1280     MECN     H12      HGA3     0.090000        1.0080           0
     26775 WT11     1280     MECN     H13      HGA3     0.090000        1.0080           0
     26776 WT11     1280     MECN     C2       CG1N1    0.360000       12.0110           0
     26777 WT11     1280     MECN     N3       NG1T1   -0.460000       14.0070           0
     26778 WT11     1281     MECN     C1       CG331   -0.170000       12.0110           0
     26779 WT11     1281     MECN     H11      HGA3     0.090000        1.0080           0
     26780 WT11     1281     MECN     H12      HGA3     0.090000        1.0080           0
     26781 WT11     1281     MECN     H13      HGA3     0.090000        1.0080           0
     26782 WT11     1281     MECN     C2       CG1N1    0.360000       12.0110           0
     26783 WT11     1281     MECN     N3       NG1T1   -0.460000       14.0070           0
     26784 WT11     1282     MECN     C1       CG331   -0.170000       12.0110           0
     26785 WT11     1282     MECN     H11      HGA3     0.090000        1.0080           0
     26786 WT11     1282     MECN     H12      HGA3     0.090000        1.0080           0
     26787 WT11     1282     MECN     H13      HGA3     0.090000        1.0080           0
     26788 WT11     1282     MECN     C2       CG1N1    0.360000       12.0110           0
     26789 WT11     1282     MECN     N3       NG1T1   -0.460000       14.0070           0
     26790 WT11     1285     MECN     C1       CG331   -0.170000       12.0110           0
     26791 WT11     1285     MECN     H11      HGA3     0.090000        1.0080           0
     26792 WT11     1285     MECN     H12      HGA3     0.090000        1.0080           0
     26793 WT11     1285     MECN     H13      HGA3     0.090000        1.0080           0
     26794 WT11     1285     MECN     C2       CG1N1    0.360000       12.0110           0
     26795 WT11     1285     MECN     N3       NG1T1   -0.460000       14.0070           0
     26796 WT11     1287     MECN     C1       CG331   -0.170000       12.0110           0
     26797 WT11     1287     MECN     H11      HGA3     0.090000        1.0080           0
     26798 WT11     1287     MECN     H12      HGA3     0.090000        1.0080           0
     26799 WT11     1287     MECN     H13      HGA3     0.090000        1.0080           0
     26800 WT11     1287     MECN     C2       CG1N1    0.360000       12.0110           0
     26801 WT11     1287     MECN     N3       NG1T1   -0.460000       14.0070           0
     26802 WT11     1290     MECN     C1       CG331   -0.170000       12.0110           0
     26803 WT11     1290     MECN     H11      HGA3     0.090000        1.0080           0
     26804 WT11     1290     MECN     H12      HGA3     0.090000        1.0080           0
     26805 WT11     1290     MECN     H13      HGA3     0.090000        1.0080           0
     26806 WT11     1290     MECN     C2       CG1N1    0.360000       12.0110           0
     26807 WT11     1290     MECN     N3       NG1T1   -0.460000       14.0070           0
     26808 WT11     1294     MECN     C1       CG331   -0.170000       12.0110           0
     26809 WT11     1294     MECN     H11      HGA3     0.090000        1.0080           0
     26810 WT11     1294     MECN     H12      HGA3     0.090000        1.0080           0
     26811 WT11     1294     MECN     H13      HGA3     0.090000        1.0080           0
     26812 WT11     1294     MECN     C2       CG1N1    0.360000       12.0110           0
     26813 WT11     1294     MECN     N3       NG1T1   -0.460000       14.0070           0
     26814 WT11     1295     MECN     C1       CG331   -0.170000       12.0110           0
     26815 WT11     1295     MECN     H11      HGA3     0.090000        1.0080           0
     26816 WT11     1295     MECN     H12      HGA3     0.090000        1.0080           0
     26817 WT11     1295     MECN     H13      HGA3     0.090000        1.0080           0
     26818 WT11     1295     MECN     C2       CG1N1    0.360000       12.0110           0
     26819 WT11     1295     MECN     N3       NG1T1   -0.460000       14.0070           0
     26820 WT11     1299     MECN     C1       CG331   -0.170000       12.0110           0
     26821 WT11     1299     MECN     H11      HGA3     0.090000        1.0080           0
     26822 WT11     1299     MECN     H12      HGA3     0.090000        1.0080           0
     26823 WT11     1299     MECN     H13      HGA3     0.090000        1.0080           0
     26824 WT11     1299     MECN     C2       CG1N1    0.360000       12.0110           0
     26825 WT11     1299     MECN     N3       NG1T1   -0.460000       14.0070           0
     26826 WT11     1302     MECN     C1       CG331   -0.170000       12.0110           0
     26827 WT11     1302     MECN     H11      HGA3     0.090000        1.0080           0
     26828 WT11     1302     MECN     H12      HGA3     0.090000        1.0080           0
     26829 WT11     1302     MECN     H13      HGA3     0.090000        1.0080           0
     26830 WT11     1302     MECN     C2       CG1N1    0.360000       12.0110           0
     26831 WT11     1302     MECN     N3       NG1T1   -0.460000       14.0070           0
     26832 WT11     1304     MECN     C1       CG331   -0.170000       12.0110           0
     26833 WT11     1304     MECN     H11      HGA3     0.090000        1.0080           0
     26834 WT11     1304     MECN     H12      HGA3     0.090000        1.0080           0
     26835 WT11     1304     MECN     H13      HGA3     0.090000        1.0080           0
     26836 WT11     1304     MECN     C2       CG1N1    0.360000       12.0110           0
     26837 WT11     1304     MECN     N3       NG1T1   -0.460000       14.0070           0
     26838 WT11     1308     MECN     C1       CG331   -0.170000       12.0110           0
     26839 WT11     1308     MECN     H11      HGA3     0.090000        1.0080           0
     26840 WT11     1308     MECN     H12      HGA3     0.090000        1.0080           0
     26841 WT11     1308     MECN     H13      HGA3     0.090000        1.0080           0
     26842 WT11     1308     MECN     C2       CG1N1    0.360000       12.0110           0
     26843 WT11     1308     MECN     N3       NG1T1   -0.460000       14.0070           0
     26844 WT11     1310     MECN     C1       CG331   -0.170000       12.0110           0
     26845 WT11     1310     MECN     H11      HGA3     0.090000        1.0080           0
     26846 WT11     1310     MECN     H12      HGA3     0.090000        1.0080           0
     26847 WT11     1310     MECN     H13      HGA3     0.090000        1.0080           0
     26848 WT11     1310     MECN     C2       CG1N1    0.360000       12.0110           0
     26849 WT11     1310     MECN     N3       NG1T1   -0.460000       14.0070           0
     26850 WT11     1311     MECN     C1       CG331   -0.170000       12.0110           0
     26851 WT11     1311     MECN     H11      HGA3     0.090000        1.0080           0
     26852 WT11     1311     MECN     H12      HGA3     0.090000        1.0080           0
     26853 WT11     1311     MECN     H13      HGA3     0.090000        1.0080           0
     26854 WT11     1311     MECN     C2       CG1N1    0.360000       12.0110           0
     26855 WT11     1311     MECN     N3       NG1T1   -0.460000       14.0070           0
     26856 WT11     1312     MECN     C1       CG331   -0.170000       12.0110           0
     26857 WT11     1312     MECN     H11      HGA3     0.090000        1.0080           0
     26858 WT11     1312     MECN     H12      HGA3     0.090000        1.0080           0
     26859 WT11     1312     MECN     H13      HGA3     0.090000        1.0080           0
     26860 WT11     1312     MECN     C2       CG1N1    0.360000       12.0110           0
     26861 WT11     1312     MECN     N3       NG1T1   -0.460000       14.0070           0
     26862 WT11     1313     MECN     C1       CG331   -0.170000       12.0110           0
     26863 WT11     1313     MECN     H11      HGA3     0.090000        1.0080           0
     26864 WT11     1313     MECN     H12      HGA3     0.090000        1.0080           0
     26865 WT11     1313     MECN     H13      HGA3     0.090000        1.0080           0
     26866 WT11     1313     MECN     C2       CG1N1    0.360000       12.0110           0
     26867 WT11     1313     MECN     N3       NG1T1   -0.460000       14.0070           0
     26868 WT11     1316     MECN     C1       CG331   -0.170000       12.0110           0
     26869 WT11     1316     MECN     H11      HGA3     0.090000        1.0080           0
     26870 WT11     1316     MECN     H12      HGA3     0.090000        1.0080           0
     26871 WT11     1316     MECN     H13      HGA3     0.090000        1.0080           0
     26872 WT11     1316     MECN     C2       CG1N1    0.360000       12.0110           0
     26873 WT11     1316     MECN     N3       NG1T1   -0.460000       14.0070           0
     26874 WT11     1320     MECN     C1       CG331   -0.170000       12.0110           0
     26875 WT11     1320     MECN     H11      HGA3     0.090000        1.0080           0
     26876 WT11     1320     MECN     H12      HGA3     0.090000        1.0080           0
     26877 WT11     1320     MECN     H13      HGA3     0.090000        1.0080           0
     26878 WT11     1320     MECN     C2       CG1N1    0.360000       12.0110           0
     26879 WT11     1320     MECN     N3       NG1T1   -0.460000       14.0070           0
     26880 WT11     1323     MECN     C1       CG331   -0.170000       12.0110           0
     26881 WT11     1323     MECN     H11      HGA3     0.090000        1.0080           0
     26882 WT11     1323     MECN     H12      HGA3     0.090000        1.0080           0
     26883 WT11     1323     MECN     H13      HGA3     0.090000        1.0080           0
     26884 WT11     1323     MECN     C2       CG1N1    0.360000       12.0110           0
     26885 WT11     1323     MECN     N3       NG1T1   -0.460000       14.0070           0
     26886 WT11     1326     MECN     C1       CG331   -0.170000       12.0110           0
     26887 WT11     1326     MECN     H11      HGA3     0.090000        1.0080           0
     26888 WT11     1326     MECN     H12      HGA3     0.090000        1.0080           0
     26889 WT11     1326     MECN     H13      HGA3     0.090000        1.0080           0
     26890 WT11     1326     MECN     C2       CG1N1    0.360000       12.0110           0
     26891 WT11     1326     MECN     N3       NG1T1   -0.460000       14.0070           0
     26892 WT11     1327     MECN     C1       CG331   -0.170000       12.0110           0
     26893 WT11     1327     MECN     H11      HGA3     0.090000        1.0080           0
     26894 WT11     1327     MECN     H12      HGA3     0.090000        1.0080           0
     26895 WT11     1327     MECN     H13      HGA3     0.090000        1.0080           0
     26896 WT11     1327     MECN     C2       CG1N1    0.360000       12.0110           0
     26897 WT11     1327     MECN     N3       NG1T1   -0.460000       14.0070           0
     26898 WT12     3        MECN     C1       CG331   -0.170000       12.0110           0
     26899 WT12     3        MECN     H11      HGA3     0.090000        1.0080           0
     26900 WT12     3        MECN     H12      HGA3     0.090000        1.0080           0
     26901 WT12     3        MECN     H13      HGA3     0.090000        1.0080           0
     26902 WT12     3        MECN     C2       CG1N1    0.360000       12.0110           0
     26903 WT12     3        MECN     N3       NG1T1   -0.460000       14.0070           0
     26904 WT12     6        MECN     C1       CG331   -0.170000       12.0110           0
     26905 WT12     6        MECN     H11      HGA3     0.090000        1.0080           0
     26906 WT12     6        MECN     H12      HGA3     0.090000        1.0080           0
     26907 WT12     6        MECN     H13      HGA3     0.090000        1.0080           0
     26908 WT12     6        MECN     C2       CG1N1    0.360000       12.0110           0
     26909 WT12     6        MECN     N3       NG1T1   -0.460000       14.0070           0
     26910 WT12     10       MECN     C1       CG331   -0.170000       12.0110           0
     26911 WT12     10       MECN     H11      HGA3     0.090000        1.0080           0
     26912 WT12     10       MECN     H12      HGA3     0.090000        1.0080           0
     26913 WT12     10       MECN     H13      HGA3     0.090000        1.0080           0
     26914 WT12     10       MECN     C2       CG1N1    0.360000       12.0110           0
     26915 WT12     10       MECN     N3       NG1T1   -0.460000       14.0070           0
     26916 WT12     12       MECN     C1       CG331   -0.170000       12.0110           0
     26917 WT12     12       MECN     H11      HGA3     0.090000        1.0080           0
     26918 WT12     12       MECN     H12      HGA3     0.090000        1.0080           0
     26919 WT12     12       MECN     H13      HGA3     0.090000        1.0080           0
     26920 WT12     12       MECN     C2       CG1N1    0.360000       12.0110           0
     26921 WT12     12       MECN     N3       NG1T1   -0.460000       14.0070           0
     26922 WT12     14       MECN     C1       CG331   -0.170000       12.0110           0
     26923 WT12     14       MECN     H11      HGA3     0.090000        1.0080           0
     26924 WT12     14       MECN     H12      HGA3     0.090000        1.0080           0
     26925 WT12     14       MECN     H13      HGA3     0.090000        1.0080           0
     26926 WT12     14       MECN     C2       CG1N1    0.360000       12.0110           0
     26927 WT12     14       MECN     N3       NG1T1   -0.460000       14.0070           0
     26928 WT12     18       MECN     C1       CG331   -0.170000       12.0110           0
     26929 WT12     18       MECN     H11      HGA3     0.090000        1.0080           0
     26930 WT12     18       MECN     H12      HGA3     0.090000        1.0080           0
     26931 WT12     18       MECN     H13      HGA3     0.090000        1.0080           0
     26932 WT12     18       MECN     C2       CG1N1    0.360000       12.0110           0
     26933 WT12     18       MECN     N3       NG1T1   -0.460000       14.0070           0
     26934 WT12     21       MECN     C1       CG331   -0.170000       12.0110           0
     26935 WT12     21       MECN     H11      HGA3     0.090000        1.0080           0
     26936 WT12     21       MECN     H12      HGA3     0.090000        1.0080           0
     26937 WT12     21       MECN     H13      HGA3     0.090000        1.0080           0
     26938 WT12     21       MECN     C2       CG1N1    0.360000       12.0110           0
     26939 WT12     21       MECN     N3       NG1T1   -0.460000       14.0070           0
     26940 WT12     22       MECN     C1       CG331   -0.170000       12.0110           0
     26941 WT12     22       MECN     H11      HGA3     0.090000        1.0080           0
     26942 WT12     22       MECN     H12      HGA3     0.090000        1.0080           0
     26943 WT12     22       MECN     H13      HGA3     0.090000        1.0080           0
     26944 WT12     22       MECN     C2       CG1N1    0.360000       12.0110           0
     26945 WT12     22       MECN     N3       NG1T1   -0.460000       14.0070           0
     26946 WT12     27       MECN     C1       CG331   -0.170000       12.0110           0
     26947 WT12     27       MECN     H11      HGA3     0.090000        1.0080           0
     26948 WT12     27       MECN     H12      HGA3     0.090000        1.0080           0
     26949 WT12     27       MECN     H13      HGA3     0.090000        1.0080           0
     26950 WT12     27       MECN     C2       CG1N1    0.360000       12.0110           0
     26951 WT12     27       MECN     N3       NG1T1   -0.460000       14.0070           0
     26952 WT12     28       MECN     C1       CG331   -0.170000       12.0110           0
     26953 WT12     28       MECN     H11      HGA3     0.090000        1.0080           0
     26954 WT12     28       MECN     H12      HGA3     0.090000        1.0080           0
     26955 WT12     28       MECN     H13      HGA3     0.090000        1.0080           0
     26956 WT12     28       MECN     C2       CG1N1    0.360000       12.0110           0
     26957 WT12     28       MECN     N3       NG1T1   -0.460000       14.0070           0
     26958 WT12     29       MECN     C1       CG331   -0.170000       12.0110           0
     26959 WT12     29       MECN     H11      HGA3     0.090000        1.0080           0
     26960 WT12     29       MECN     H12      HGA3     0.090000        1.0080           0
     26961 WT12     29       MECN     H13      HGA3     0.090000        1.0080           0
     26962 WT12     29       MECN     C2       CG1N1    0.360000       12.0110           0
     26963 WT12     29       MECN     N3       NG1T1   -0.460000       14.0070           0
     26964 WT12     32       MECN     C1       CG331   -0.170000       12.0110           0
     26965 WT12     32       MECN     H11      HGA3     0.090000        1.0080           0
     26966 WT12     32       MECN     H12      HGA3     0.090000        1.0080           0
     26967 WT12     32       MECN     H13      HGA3     0.090000        1.0080           0
     26968 WT12     32       MECN     C2       CG1N1    0.360000       12.0110           0
     26969 WT12     32       MECN     N3       NG1T1   -0.460000       14.0070           0
     26970 WT12     38       MECN     C1       CG331   -0.170000       12.0110           0
     26971 WT12     38       MECN     H11      HGA3     0.090000        1.0080           0
     26972 WT12     38       MECN     H12      HGA3     0.090000        1.0080           0
     26973 WT12     38       MECN     H13      HGA3     0.090000        1.0080           0
     26974 WT12     38       MECN     C2       CG1N1    0.360000       12.0110           0
     26975 WT12     38       MECN     N3       NG1T1   -0.460000       14.0070           0
     26976 WT12     44       MECN     C1       CG331   -0.170000       12.0110           0
     26977 WT12     44       MECN     H11      HGA3     0.090000        1.0080           0
     26978 WT12     44       MECN     H12      HGA3     0.090000        1.0080           0
     26979 WT12     44       MECN     H13      HGA3     0.090000        1.0080           0
     26980 WT12     44       MECN     C2       CG1N1    0.360000       12.0110           0
     26981 WT12     44       MECN     N3       NG1T1   -0.460000       14.0070           0
     26982 WT12     49       MECN     C1       CG331   -0.170000       12.0110           0
     26983 WT12     49       MECN     H11      HGA3     0.090000        1.0080           0
     26984 WT12     49       MECN     H12      HGA3     0.090000        1.0080           0
     26985 WT12     49       MECN     H13      HGA3     0.090000        1.0080           0
     26986 WT12     49       MECN     C2       CG1N1    0.360000       12.0110           0
     26987 WT12     49       MECN     N3       NG1T1   -0.460000       14.0070           0
     26988 WT12     55       MECN     C1       CG331   -0.170000       12.0110           0
     26989 WT12     55       MECN     H11      HGA3     0.090000        1.0080           0
     26990 WT12     55       MECN     H12      HGA3     0.090000        1.0080           0
     26991 WT12     55       MECN     H13      HGA3     0.090000        1.0080           0
     26992 WT12     55       MECN     C2       CG1N1    0.360000       12.0110           0
     26993 WT12     55       MECN     N3       NG1T1   -0.460000       14.0070           0
     26994 WT12     61       MECN     C1       CG331   -0.170000       12.0110           0
     26995 WT12     61       MECN     H11      HGA3     0.090000        1.0080           0
     26996 WT12     61       MECN     H12      HGA3     0.090000        1.0080           0
     26997 WT12     61       MECN     H13      HGA3     0.090000        1.0080           0
     26998 WT12     61       MECN     C2       CG1N1    0.360000       12.0110           0
     26999 WT12     61       MECN     N3       NG1T1   -0.460000       14.0070           0
     27000 WT12     65       MECN     C1       CG331   -0.170000       12.0110           0
     27001 WT12     65       MECN     H11      HGA3     0.090000        1.0080           0
     27002 WT12     65       MECN     H12      HGA3     0.090000        1.0080           0
     27003 WT12     65       MECN     H13      HGA3     0.090000        1.0080           0
     27004 WT12     65       MECN     C2       CG1N1    0.360000       12.0110           0
     27005 WT12     65       MECN     N3       NG1T1   -0.460000       14.0070           0
     27006 WT12     66       MECN     C1       CG331   -0.170000       12.0110           0
     27007 WT12     66       MECN     H11      HGA3     0.090000        1.0080           0
     27008 WT12     66       MECN     H12      HGA3     0.090000        1.0080           0
     27009 WT12     66       MECN     H13      HGA3     0.090000        1.0080           0
     27010 WT12     66       MECN     C2       CG1N1    0.360000       12.0110           0
     27011 WT12     66       MECN     N3       NG1T1   -0.460000       14.0070           0
     27012 WT12     70       MECN     C1       CG331   -0.170000       12.0110           0
     27013 WT12     70       MECN     H11      HGA3     0.090000        1.0080           0
     27014 WT12     70       MECN     H12      HGA3     0.090000        1.0080           0
     27015 WT12     70       MECN     H13      HGA3     0.090000        1.0080           0
     27016 WT12     70       MECN     C2       CG1N1    0.360000       12.0110           0
     27017 WT12     70       MECN     N3       NG1T1   -0.460000       14.0070           0
     27018 WT12     74       MECN     C1       CG331   -0.170000       12.0110           0
     27019 WT12     74       MECN     H11      HGA3     0.090000        1.0080           0
     27020 WT12     74       MECN     H12      HGA3     0.090000        1.0080           0
     27021 WT12     74       MECN     H13      HGA3     0.090000        1.0080           0
     27022 WT12     74       MECN     C2       CG1N1    0.360000       12.0110           0
     27023 WT12     74       MECN     N3       NG1T1   -0.460000       14.0070           0
     27024 WT12     76       MECN     C1       CG331   -0.170000       12.0110           0
     27025 WT12     76       MECN     H11      HGA3     0.090000        1.0080           0
     27026 WT12     76       MECN     H12      HGA3     0.090000        1.0080           0
     27027 WT12     76       MECN     H13      HGA3     0.090000        1.0080           0
     27028 WT12     76       MECN     C2       CG1N1    0.360000       12.0110           0
     27029 WT12     76       MECN     N3       NG1T1   -0.460000       14.0070           0
     27030 WT12     83       MECN     C1       CG331   -0.170000       12.0110           0
     27031 WT12     83       MECN     H11      HGA3     0.090000        1.0080           0
     27032 WT12     83       MECN     H12      HGA3     0.090000        1.0080           0
     27033 WT12     83       MECN     H13      HGA3     0.090000        1.0080           0
     27034 WT12     83       MECN     C2       CG1N1    0.360000       12.0110           0
     27035 WT12     83       MECN     N3       NG1T1   -0.460000       14.0070           0
     27036 WT12     85       MECN     C1       CG331   -0.170000       12.0110           0
     27037 WT12     85       MECN     H11      HGA3     0.090000        1.0080           0
     27038 WT12     85       MECN     H12      HGA3     0.090000        1.0080           0
     27039 WT12     85       MECN     H13      HGA3     0.090000        1.0080           0
     27040 WT12     85       MECN     C2       CG1N1    0.360000       12.0110           0
     27041 WT12     85       MECN     N3       NG1T1   -0.460000       14.0070           0
     27042 WT12     87       MECN     C1       CG331   -0.170000       12.0110           0
     27043 WT12     87       MECN     H11      HGA3     0.090000        1.0080           0
     27044 WT12     87       MECN     H12      HGA3     0.090000        1.0080           0
     27045 WT12     87       MECN     H13      HGA3     0.090000        1.0080           0
     27046 WT12     87       MECN     C2       CG1N1    0.360000       12.0110           0
     27047 WT12     87       MECN     N3       NG1T1   -0.460000       14.0070           0
     27048 WT12     88       MECN     C1       CG331   -0.170000       12.0110           0
     27049 WT12     88       MECN     H11      HGA3     0.090000        1.0080           0
     27050 WT12     88       MECN     H12      HGA3     0.090000        1.0080           0
     27051 WT12     88       MECN     H13      HGA3     0.090000        1.0080           0
     27052 WT12     88       MECN     C2       CG1N1    0.360000       12.0110           0
     27053 WT12     88       MECN     N3       NG1T1   -0.460000       14.0070           0
     27054 WT12     89       MECN     C1       CG331   -0.170000       12.0110           0
     27055 WT12     89       MECN     H11      HGA3     0.090000        1.0080           0
     27056 WT12     89       MECN     H12      HGA3     0.090000        1.0080           0
     27057 WT12     89       MECN     H13      HGA3     0.090000        1.0080           0
     27058 WT12     89       MECN     C2       CG1N1    0.360000       12.0110           0
     27059 WT12     89       MECN     N3       NG1T1   -0.460000       14.0070           0
     27060 WT12     96       MECN     C1       CG331   -0.170000       12.0110           0
     27061 WT12     96       MECN     H11      HGA3     0.090000        1.0080           0
     27062 WT12     96       MECN     H12      HGA3     0.090000        1.0080           0
     27063 WT12     96       MECN     H13      HGA3     0.090000        1.0080           0
     27064 WT12     96       MECN     C2       CG1N1    0.360000       12.0110           0
     27065 WT12     96       MECN     N3       NG1T1   -0.460000       14.0070           0
     27066 WT12     98       MECN     C1       CG331   -0.170000       12.0110           0
     27067 WT12     98       MECN     H11      HGA3     0.090000        1.0080           0
     27068 WT12     98       MECN     H12      HGA3     0.090000        1.0080           0
     27069 WT12     98       MECN     H13      HGA3     0.090000        1.0080           0
     27070 WT12     98       MECN     C2       CG1N1    0.360000       12.0110           0
     27071 WT12     98       MECN     N3       NG1T1   -0.460000       14.0070           0
     27072 WT12     106      MECN     C1       CG331   -0.170000       12.0110           0
     27073 WT12     106      MECN     H11      HGA3     0.090000        1.0080           0
     27074 WT12     106      MECN     H12      HGA3     0.090000        1.0080           0
     27075 WT12     106      MECN     H13      HGA3     0.090000        1.0080           0
     27076 WT12     106      MECN     C2       CG1N1    0.360000       12.0110           0
     27077 WT12     106      MECN     N3       NG1T1   -0.460000       14.0070           0
     27078 WT12     108      MECN     C1       CG331   -0.170000       12.0110           0
     27079 WT12     108      MECN     H11      HGA3     0.090000        1.0080           0
     27080 WT12     108      MECN     H12      HGA3     0.090000        1.0080           0
     27081 WT12     108      MECN     H13      HGA3     0.090000        1.0080           0
     27082 WT12     108      MECN     C2       CG1N1    0.360000       12.0110           0
     27083 WT12     108      MECN     N3       NG1T1   -0.460000       14.0070           0
     27084 WT12     109      MECN     C1       CG331   -0.170000       12.0110           0
     27085 WT12     109      MECN     H11      HGA3     0.090000        1.0080           0
     27086 WT12     109      MECN     H12      HGA3     0.090000        1.0080           0
     27087 WT12     109      MECN     H13      HGA3     0.090000        1.0080           0
     27088 WT12     109      MECN     C2       CG1N1    0.360000       12.0110           0
     27089 WT12     109      MECN     N3       NG1T1   -0.460000       14.0070           0
     27090 WT12     110      MECN     C1       CG331   -0.170000       12.0110           0
     27091 WT12     110      MECN     H11      HGA3     0.090000        1.0080           0
     27092 WT12     110      MECN     H12      HGA3     0.090000        1.0080           0
     27093 WT12     110      MECN     H13      HGA3     0.090000        1.0080           0
     27094 WT12     110      MECN     C2       CG1N1    0.360000       12.0110           0
     27095 WT12     110      MECN     N3       NG1T1   -0.460000       14.0070           0
     27096 WT12     112      MECN     C1       CG331   -0.170000       12.0110           0
     27097 WT12     112      MECN     H11      HGA3     0.090000        1.0080           0
     27098 WT12     112      MECN     H12      HGA3     0.090000        1.0080           0
     27099 WT12     112      MECN     H13      HGA3     0.090000        1.0080           0
     27100 WT12     112      MECN     C2       CG1N1    0.360000       12.0110           0
     27101 WT12     112      MECN     N3       NG1T1   -0.460000       14.0070           0
     27102 WT12     113      MECN     C1       CG331   -0.170000       12.0110           0
     27103 WT12     113      MECN     H11      HGA3     0.090000        1.0080           0
     27104 WT12     113      MECN     H12      HGA3     0.090000        1.0080           0
     27105 WT12     113      MECN     H13      HGA3     0.090000        1.0080           0
     27106 WT12     113      MECN     C2       CG1N1    0.360000       12.0110           0
     27107 WT12     113      MECN     N3       NG1T1   -0.460000       14.0070           0
     27108 WT12     117      MECN     C1       CG331   -0.170000       12.0110           0
     27109 WT12     117      MECN     H11      HGA3     0.090000        1.0080           0
     27110 WT12     117      MECN     H12      HGA3     0.090000        1.0080           0
     27111 WT12     117      MECN     H13      HGA3     0.090000        1.0080           0
     27112 WT12     117      MECN     C2       CG1N1    0.360000       12.0110           0
     27113 WT12     117      MECN     N3       NG1T1   -0.460000       14.0070           0
     27114 WT12     118      MECN     C1       CG331   -0.170000       12.0110           0
     27115 WT12     118      MECN     H11      HGA3     0.090000        1.0080           0
     27116 WT12     118      MECN     H12      HGA3     0.090000        1.0080           0
     27117 WT12     118      MECN     H13      HGA3     0.090000        1.0080           0
     27118 WT12     118      MECN     C2       CG1N1    0.360000       12.0110           0
     27119 WT12     118      MECN     N3       NG1T1   -0.460000       14.0070           0
     27120 WT12     119      MECN     C1       CG331   -0.170000       12.0110           0
     27121 WT12     119      MECN     H11      HGA3     0.090000        1.0080           0
     27122 WT12     119      MECN     H12      HGA3     0.090000        1.0080           0
     27123 WT12     119      MECN     H13      HGA3     0.090000        1.0080           0
     27124 WT12     119      MECN     C2       CG1N1    0.360000       12.0110           0
     27125 WT12     119      MECN     N3       NG1T1   -0.460000       14.0070           0
     27126 WT12     122      MECN     C1       CG331   -0.170000       12.0110           0
     27127 WT12     122      MECN     H11      HGA3     0.090000        1.0080           0
     27128 WT12     122      MECN     H12      HGA3     0.090000        1.0080           0
     27129 WT12     122      MECN     H13      HGA3     0.090000        1.0080           0
     27130 WT12     122      MECN     C2       CG1N1    0.360000       12.0110           0
     27131 WT12     122      MECN     N3       NG1T1   -0.460000       14.0070           0
     27132 WT12     123      MECN     C1       CG331   -0.170000       12.0110           0
     27133 WT12     123      MECN     H11      HGA3     0.090000        1.0080           0
     27134 WT12     123      MECN     H12      HGA3     0.090000        1.0080           0
     27135 WT12     123      MECN     H13      HGA3     0.090000        1.0080           0
     27136 WT12     123      MECN     C2       CG1N1    0.360000       12.0110           0
     27137 WT12     123      MECN     N3       NG1T1   -0.460000       14.0070           0
     27138 WT12     124      MECN     C1       CG331   -0.170000       12.0110           0
     27139 WT12     124      MECN     H11      HGA3     0.090000        1.0080           0
     27140 WT12     124      MECN     H12      HGA3     0.090000        1.0080           0
     27141 WT12     124      MECN     H13      HGA3     0.090000        1.0080           0
     27142 WT12     124      MECN     C2       CG1N1    0.360000       12.0110           0
     27143 WT12     124      MECN     N3       NG1T1   -0.460000       14.0070           0
     27144 WT12     125      MECN     C1       CG331   -0.170000       12.0110           0
     27145 WT12     125      MECN     H11      HGA3     0.090000        1.0080           0
     27146 WT12     125      MECN     H12      HGA3     0.090000        1.0080           0
     27147 WT12     125      MECN     H13      HGA3     0.090000        1.0080           0
     27148 WT12     125      MECN     C2       CG1N1    0.360000       12.0110           0
     27149 WT12     125      MECN     N3       NG1T1   -0.460000       14.0070           0
     27150 WT12     127      MECN     C1       CG331   -0.170000       12.0110           0
     27151 WT12     127      MECN     H11      HGA3     0.090000        1.0080           0
     27152 WT12     127      MECN     H12      HGA3     0.090000        1.0080           0
     27153 WT12     127      MECN     H13      HGA3     0.090000        1.0080           0
     27154 WT12     127      MECN     C2       CG1N1    0.360000       12.0110           0
     27155 WT12     127      MECN     N3       NG1T1   -0.460000       14.0070           0
     27156 WT12     132      MECN     C1       CG331   -0.170000       12.0110           0
     27157 WT12     132      MECN     H11      HGA3     0.090000        1.0080           0
     27158 WT12     132      MECN     H12      HGA3     0.090000        1.0080           0
     27159 WT12     132      MECN     H13      HGA3     0.090000        1.0080           0
     27160 WT12     132      MECN     C2       CG1N1    0.360000       12.0110           0
     27161 WT12     132      MECN     N3       NG1T1   -0.460000       14.0070           0
     27162 WT12     135      MECN     C1       CG331   -0.170000       12.0110           0
     27163 WT12     135      MECN     H11      HGA3     0.090000        1.0080           0
     27164 WT12     135      MECN     H12      HGA3     0.090000        1.0080           0
     27165 WT12     135      MECN     H13      HGA3     0.090000        1.0080           0
     27166 WT12     135      MECN     C2       CG1N1    0.360000       12.0110           0
     27167 WT12     135      MECN     N3       NG1T1   -0.460000       14.0070           0
     27168 WT12     143      MECN     C1       CG331   -0.170000       12.0110           0
     27169 WT12     143      MECN     H11      HGA3     0.090000        1.0080           0
     27170 WT12     143      MECN     H12      HGA3     0.090000        1.0080           0
     27171 WT12     143      MECN     H13      HGA3     0.090000        1.0080           0
     27172 WT12     143      MECN     C2       CG1N1    0.360000       12.0110           0
     27173 WT12     143      MECN     N3       NG1T1   -0.460000       14.0070           0
     27174 WT12     145      MECN     C1       CG331   -0.170000       12.0110           0
     27175 WT12     145      MECN     H11      HGA3     0.090000        1.0080           0
     27176 WT12     145      MECN     H12      HGA3     0.090000        1.0080           0
     27177 WT12     145      MECN     H13      HGA3     0.090000        1.0080           0
     27178 WT12     145      MECN     C2       CG1N1    0.360000       12.0110           0
     27179 WT12     145      MECN     N3       NG1T1   -0.460000       14.0070           0
     27180 WT12     150      MECN     C1       CG331   -0.170000       12.0110           0
     27181 WT12     150      MECN     H11      HGA3     0.090000        1.0080           0
     27182 WT12     150      MECN     H12      HGA3     0.090000        1.0080           0
     27183 WT12     150      MECN     H13      HGA3     0.090000        1.0080           0
     27184 WT12     150      MECN     C2       CG1N1    0.360000       12.0110           0
     27185 WT12     150      MECN     N3       NG1T1   -0.460000       14.0070           0
     27186 WT12     151      MECN     C1       CG331   -0.170000       12.0110           0
     27187 WT12     151      MECN     H11      HGA3     0.090000        1.0080           0
     27188 WT12     151      MECN     H12      HGA3     0.090000        1.0080           0
     27189 WT12     151      MECN     H13      HGA3     0.090000        1.0080           0
     27190 WT12     151      MECN     C2       CG1N1    0.360000       12.0110           0
     27191 WT12     151      MECN     N3       NG1T1   -0.460000       14.0070           0
     27192 WT12     154      MECN     C1       CG331   -0.170000       12.0110           0
     27193 WT12     154      MECN     H11      HGA3     0.090000        1.0080           0
     27194 WT12     154      MECN     H12      HGA3     0.090000        1.0080           0
     27195 WT12     154      MECN     H13      HGA3     0.090000        1.0080           0
     27196 WT12     154      MECN     C2       CG1N1    0.360000       12.0110           0
     27197 WT12     154      MECN     N3       NG1T1   -0.460000       14.0070           0
     27198 WT12     155      MECN     C1       CG331   -0.170000       12.0110           0
     27199 WT12     155      MECN     H11      HGA3     0.090000        1.0080           0
     27200 WT12     155      MECN     H12      HGA3     0.090000        1.0080           0
     27201 WT12     155      MECN     H13      HGA3     0.090000        1.0080           0
     27202 WT12     155      MECN     C2       CG1N1    0.360000       12.0110           0
     27203 WT12     155      MECN     N3       NG1T1   -0.460000       14.0070           0
     27204 WT12     164      MECN     C1       CG331   -0.170000       12.0110           0
     27205 WT12     164      MECN     H11      HGA3     0.090000        1.0080           0
     27206 WT12     164      MECN     H12      HGA3     0.090000        1.0080           0
     27207 WT12     164      MECN     H13      HGA3     0.090000        1.0080           0
     27208 WT12     164      MECN     C2       CG1N1    0.360000       12.0110           0
     27209 WT12     164      MECN     N3       NG1T1   -0.460000       14.0070           0
     27210 WT12     168      MECN     C1       CG331   -0.170000       12.0110           0
     27211 WT12     168      MECN     H11      HGA3     0.090000        1.0080           0
     27212 WT12     168      MECN     H12      HGA3     0.090000        1.0080           0
     27213 WT12     168      MECN     H13      HGA3     0.090000        1.0080           0
     27214 WT12     168      MECN     C2       CG1N1    0.360000       12.0110           0
     27215 WT12     168      MECN     N3       NG1T1   -0.460000       14.0070           0
     27216 WT12     169      MECN     C1       CG331   -0.170000       12.0110           0
     27217 WT12     169      MECN     H11      HGA3     0.090000        1.0080           0
     27218 WT12     169      MECN     H12      HGA3     0.090000        1.0080           0
     27219 WT12     169      MECN     H13      HGA3     0.090000        1.0080           0
     27220 WT12     169      MECN     C2       CG1N1    0.360000       12.0110           0
     27221 WT12     169      MECN     N3       NG1T1   -0.460000       14.0070           0
     27222 WT12     172      MECN     C1       CG331   -0.170000       12.0110           0
     27223 WT12     172      MECN     H11      HGA3     0.090000        1.0080           0
     27224 WT12     172      MECN     H12      HGA3     0.090000        1.0080           0
     27225 WT12     172      MECN     H13      HGA3     0.090000        1.0080           0
     27226 WT12     172      MECN     C2       CG1N1    0.360000       12.0110           0
     27227 WT12     172      MECN     N3       NG1T1   -0.460000       14.0070           0
     27228 WT12     174      MECN     C1       CG331   -0.170000       12.0110           0
     27229 WT12     174      MECN     H11      HGA3     0.090000        1.0080           0
     27230 WT12     174      MECN     H12      HGA3     0.090000        1.0080           0
     27231 WT12     174      MECN     H13      HGA3     0.090000        1.0080           0
     27232 WT12     174      MECN     C2       CG1N1    0.360000       12.0110           0
     27233 WT12     174      MECN     N3       NG1T1   -0.460000       14.0070           0
     27234 WT12     175      MECN     C1       CG331   -0.170000       12.0110           0
     27235 WT12     175      MECN     H11      HGA3     0.090000        1.0080           0
     27236 WT12     175      MECN     H12      HGA3     0.090000        1.0080           0
     27237 WT12     175      MECN     H13      HGA3     0.090000        1.0080           0
     27238 WT12     175      MECN     C2       CG1N1    0.360000       12.0110           0
     27239 WT12     175      MECN     N3       NG1T1   -0.460000       14.0070           0
     27240 WT12     182      MECN     C1       CG331   -0.170000       12.0110           0
     27241 WT12     182      MECN     H11      HGA3     0.090000        1.0080           0
     27242 WT12     182      MECN     H12      HGA3     0.090000        1.0080           0
     27243 WT12     182      MECN     H13      HGA3     0.090000        1.0080           0
     27244 WT12     182      MECN     C2       CG1N1    0.360000       12.0110           0
     27245 WT12     182      MECN     N3       NG1T1   -0.460000       14.0070           0
     27246 WT12     183      MECN     C1       CG331   -0.170000       12.0110           0
     27247 WT12     183      MECN     H11      HGA3     0.090000        1.0080           0
     27248 WT12     183      MECN     H12      HGA3     0.090000        1.0080           0
     27249 WT12     183      MECN     H13      HGA3     0.090000        1.0080           0
     27250 WT12     183      MECN     C2       CG1N1    0.360000       12.0110           0
     27251 WT12     183      MECN     N3       NG1T1   -0.460000       14.0070           0
     27252 WT12     184      MECN     C1       CG331   -0.170000       12.0110           0
     27253 WT12     184      MECN     H11      HGA3     0.090000        1.0080           0
     27254 WT12     184      MECN     H12      HGA3     0.090000        1.0080           0
     27255 WT12     184      MECN     H13      HGA3     0.090000        1.0080           0
     27256 WT12     184      MECN     C2       CG1N1    0.360000       12.0110           0
     27257 WT12     184      MECN     N3       NG1T1   -0.460000       14.0070           0
     27258 WT12     185      MECN     C1       CG331   -0.170000       12.0110           0
     27259 WT12     185      MECN     H11      HGA3     0.090000        1.0080           0
     27260 WT12     185      MECN     H12      HGA3     0.090000        1.0080           0
     27261 WT12     185      MECN     H13      HGA3     0.090000        1.0080           0
     27262 WT12     185      MECN     C2       CG1N1    0.360000       12.0110           0
     27263 WT12     185      MECN     N3       NG1T1   -0.460000       14.0070           0
     27264 WT12     186      MECN     C1       CG331   -0.170000       12.0110           0
     27265 WT12     186      MECN     H11      HGA3     0.090000        1.0080           0
     27266 WT12     186      MECN     H12      HGA3     0.090000        1.0080           0
     27267 WT12     186      MECN     H13      HGA3     0.090000        1.0080           0
     27268 WT12     186      MECN     C2       CG1N1    0.360000       12.0110           0
     27269 WT12     186      MECN     N3       NG1T1   -0.460000       14.0070           0
     27270 WT12     190      MECN     C1       CG331   -0.170000       12.0110           0
     27271 WT12     190      MECN     H11      HGA3     0.090000        1.0080           0
     27272 WT12     190      MECN     H12      HGA3     0.090000        1.0080           0
     27273 WT12     190      MECN     H13      HGA3     0.090000        1.0080           0
     27274 WT12     190      MECN     C2       CG1N1    0.360000       12.0110           0
     27275 WT12     190      MECN     N3       NG1T1   -0.460000       14.0070           0
     27276 WT12     199      MECN     C1       CG331   -0.170000       12.0110           0
     27277 WT12     199      MECN     H11      HGA3     0.090000        1.0080           0
     27278 WT12     199      MECN     H12      HGA3     0.090000        1.0080           0
     27279 WT12     199      MECN     H13      HGA3     0.090000        1.0080           0
     27280 WT12     199      MECN     C2       CG1N1    0.360000       12.0110           0
     27281 WT12     199      MECN     N3       NG1T1   -0.460000       14.0070           0
     27282 WT12     201      MECN     C1       CG331   -0.170000       12.0110           0
     27283 WT12     201      MECN     H11      HGA3     0.090000        1.0080           0
     27284 WT12     201      MECN     H12      HGA3     0.090000        1.0080           0
     27285 WT12     201      MECN     H13      HGA3     0.090000        1.0080           0
     27286 WT12     201      MECN     C2       CG1N1    0.360000       12.0110           0
     27287 WT12     201      MECN     N3       NG1T1   -0.460000       14.0070           0
     27288 WT12     203      MECN     C1       CG331   -0.170000       12.0110           0
     27289 WT12     203      MECN     H11      HGA3     0.090000        1.0080           0
     27290 WT12     203      MECN     H12      HGA3     0.090000        1.0080           0
     27291 WT12     203      MECN     H13      HGA3     0.090000        1.0080           0
     27292 WT12     203      MECN     C2       CG1N1    0.360000       12.0110           0
     27293 WT12     203      MECN     N3       NG1T1   -0.460000       14.0070           0
     27294 WT12     205      MECN     C1       CG331   -0.170000       12.0110           0
     27295 WT12     205      MECN     H11      HGA3     0.090000        1.0080           0
     27296 WT12     205      MECN     H12      HGA3     0.090000        1.0080           0
     27297 WT12     205      MECN     H13      HGA3     0.090000        1.0080           0
     27298 WT12     205      MECN     C2       CG1N1    0.360000       12.0110           0
     27299 WT12     205      MECN     N3       NG1T1   -0.460000       14.0070           0
     27300 WT12     211      MECN     C1       CG331   -0.170000       12.0110           0
     27301 WT12     211      MECN     H11      HGA3     0.090000        1.0080           0
     27302 WT12     211      MECN     H12      HGA3     0.090000        1.0080           0
     27303 WT12     211      MECN     H13      HGA3     0.090000        1.0080           0
     27304 WT12     211      MECN     C2       CG1N1    0.360000       12.0110           0
     27305 WT12     211      MECN     N3       NG1T1   -0.460000       14.0070           0
     27306 WT12     212      MECN     C1       CG331   -0.170000       12.0110           0
     27307 WT12     212      MECN     H11      HGA3     0.090000        1.0080           0
     27308 WT12     212      MECN     H12      HGA3     0.090000        1.0080           0
     27309 WT12     212      MECN     H13      HGA3     0.090000        1.0080           0
     27310 WT12     212      MECN     C2       CG1N1    0.360000       12.0110           0
     27311 WT12     212      MECN     N3       NG1T1   -0.460000       14.0070           0
     27312 WT12     220      MECN     C1       CG331   -0.170000       12.0110           0
     27313 WT12     220      MECN     H11      HGA3     0.090000        1.0080           0
     27314 WT12     220      MECN     H12      HGA3     0.090000        1.0080           0
     27315 WT12     220      MECN     H13      HGA3     0.090000        1.0080           0
     27316 WT12     220      MECN     C2       CG1N1    0.360000       12.0110           0
     27317 WT12     220      MECN     N3       NG1T1   -0.460000       14.0070           0
     27318 WT12     224      MECN     C1       CG331   -0.170000       12.0110           0
     27319 WT12     224      MECN     H11      HGA3     0.090000        1.0080           0
     27320 WT12     224      MECN     H12      HGA3     0.090000        1.0080           0
     27321 WT12     224      MECN     H13      HGA3     0.090000        1.0080           0
     27322 WT12     224      MECN     C2       CG1N1    0.360000       12.0110           0
     27323 WT12     224      MECN     N3       NG1T1   -0.460000       14.0070           0
     27324 WT12     225      MECN     C1       CG331   -0.170000       12.0110           0
     27325 WT12     225      MECN     H11      HGA3     0.090000        1.0080           0
     27326 WT12     225      MECN     H12      HGA3     0.090000        1.0080           0
     27327 WT12     225      MECN     H13      HGA3     0.090000        1.0080           0
     27328 WT12     225      MECN     C2       CG1N1    0.360000       12.0110           0
     27329 WT12     225      MECN     N3       NG1T1   -0.460000       14.0070           0
     27330 WT12     227      MECN     C1       CG331   -0.170000       12.0110           0
     27331 WT12     227      MECN     H11      HGA3     0.090000        1.0080           0
     27332 WT12     227      MECN     H12      HGA3     0.090000        1.0080           0
     27333 WT12     227      MECN     H13      HGA3     0.090000        1.0080           0
     27334 WT12     227      MECN     C2       CG1N1    0.360000       12.0110           0
     27335 WT12     227      MECN     N3       NG1T1   -0.460000       14.0070           0
     27336 WT12     229      MECN     C1       CG331   -0.170000       12.0110           0
     27337 WT12     229      MECN     H11      HGA3     0.090000        1.0080           0
     27338 WT12     229      MECN     H12      HGA3     0.090000        1.0080           0
     27339 WT12     229      MECN     H13      HGA3     0.090000        1.0080           0
     27340 WT12     229      MECN     C2       CG1N1    0.360000       12.0110           0
     27341 WT12     229      MECN     N3       NG1T1   -0.460000       14.0070           0
     27342 WT12     231      MECN     C1       CG331   -0.170000       12.0110           0
     27343 WT12     231      MECN     H11      HGA3     0.090000        1.0080           0
     27344 WT12     231      MECN     H12      HGA3     0.090000        1.0080           0
     27345 WT12     231      MECN     H13      HGA3     0.090000        1.0080           0
     27346 WT12     231      MECN     C2       CG1N1    0.360000       12.0110           0
     27347 WT12     231      MECN     N3       NG1T1   -0.460000       14.0070           0
     27348 WT12     236      MECN     C1       CG331   -0.170000       12.0110           0
     27349 WT12     236      MECN     H11      HGA3     0.090000        1.0080           0
     27350 WT12     236      MECN     H12      HGA3     0.090000        1.0080           0
     27351 WT12     236      MECN     H13      HGA3     0.090000        1.0080           0
     27352 WT12     236      MECN     C2       CG1N1    0.360000       12.0110           0
     27353 WT12     236      MECN     N3       NG1T1   -0.460000       14.0070           0
     27354 WT12     237      MECN     C1       CG331   -0.170000       12.0110           0
     27355 WT12     237      MECN     H11      HGA3     0.090000        1.0080           0
     27356 WT12     237      MECN     H12      HGA3     0.090000        1.0080           0
     27357 WT12     237      MECN     H13      HGA3     0.090000        1.0080           0
     27358 WT12     237      MECN     C2       CG1N1    0.360000       12.0110           0
     27359 WT12     237      MECN     N3       NG1T1   -0.460000       14.0070           0
     27360 WT12     238      MECN     C1       CG331   -0.170000       12.0110           0
     27361 WT12     238      MECN     H11      HGA3     0.090000        1.0080           0
     27362 WT12     238      MECN     H12      HGA3     0.090000        1.0080           0
     27363 WT12     238      MECN     H13      HGA3     0.090000        1.0080           0
     27364 WT12     238      MECN     C2       CG1N1    0.360000       12.0110           0
     27365 WT12     238      MECN     N3       NG1T1   -0.460000       14.0070           0
     27366 WT12     242      MECN     C1       CG331   -0.170000       12.0110           0
     27367 WT12     242      MECN     H11      HGA3     0.090000        1.0080           0
     27368 WT12     242      MECN     H12      HGA3     0.090000        1.0080           0
     27369 WT12     242      MECN     H13      HGA3     0.090000        1.0080           0
     27370 WT12     242      MECN     C2       CG1N1    0.360000       12.0110           0
     27371 WT12     242      MECN     N3       NG1T1   -0.460000       14.0070           0
     27372 WT12     246      MECN     C1       CG331   -0.170000       12.0110           0
     27373 WT12     246      MECN     H11      HGA3     0.090000        1.0080           0
     27374 WT12     246      MECN     H12      HGA3     0.090000        1.0080           0
     27375 WT12     246      MECN     H13      HGA3     0.090000        1.0080           0
     27376 WT12     246      MECN     C2       CG1N1    0.360000       12.0110           0
     27377 WT12     246      MECN     N3       NG1T1   -0.460000       14.0070           0
     27378 WT12     251      MECN     C1       CG331   -0.170000       12.0110           0
     27379 WT12     251      MECN     H11      HGA3     0.090000        1.0080           0
     27380 WT12     251      MECN     H12      HGA3     0.090000        1.0080           0
     27381 WT12     251      MECN     H13      HGA3     0.090000        1.0080           0
     27382 WT12     251      MECN     C2       CG1N1    0.360000       12.0110           0
     27383 WT12     251      MECN     N3       NG1T1   -0.460000       14.0070           0
     27384 WT12     252      MECN     C1       CG331   -0.170000       12.0110           0
     27385 WT12     252      MECN     H11      HGA3     0.090000        1.0080           0
     27386 WT12     252      MECN     H12      HGA3     0.090000        1.0080           0
     27387 WT12     252      MECN     H13      HGA3     0.090000        1.0080           0
     27388 WT12     252      MECN     C2       CG1N1    0.360000       12.0110           0
     27389 WT12     252      MECN     N3       NG1T1   -0.460000       14.0070           0
     27390 WT12     255      MECN     C1       CG331   -0.170000       12.0110           0
     27391 WT12     255      MECN     H11      HGA3     0.090000        1.0080           0
     27392 WT12     255      MECN     H12      HGA3     0.090000        1.0080           0
     27393 WT12     255      MECN     H13      HGA3     0.090000        1.0080           0
     27394 WT12     255      MECN     C2       CG1N1    0.360000       12.0110           0
     27395 WT12     255      MECN     N3       NG1T1   -0.460000       14.0070           0
     27396 WT12     267      MECN     C1       CG331   -0.170000       12.0110           0
     27397 WT12     267      MECN     H11      HGA3     0.090000        1.0080           0
     27398 WT12     267      MECN     H12      HGA3     0.090000        1.0080           0
     27399 WT12     267      MECN     H13      HGA3     0.090000        1.0080           0
     27400 WT12     267      MECN     C2       CG1N1    0.360000       12.0110           0
     27401 WT12     267      MECN     N3       NG1T1   -0.460000       14.0070           0
     27402 WT12     268      MECN     C1       CG331   -0.170000       12.0110           0
     27403 WT12     268      MECN     H11      HGA3     0.090000        1.0080           0
     27404 WT12     268      MECN     H12      HGA3     0.090000        1.0080           0
     27405 WT12     268      MECN     H13      HGA3     0.090000        1.0080           0
     27406 WT12     268      MECN     C2       CG1N1    0.360000       12.0110           0
     27407 WT12     268      MECN     N3       NG1T1   -0.460000       14.0070           0
     27408 WT12     276      MECN     C1       CG331   -0.170000       12.0110           0
     27409 WT12     276      MECN     H11      HGA3     0.090000        1.0080           0
     27410 WT12     276      MECN     H12      HGA3     0.090000        1.0080           0
     27411 WT12     276      MECN     H13      HGA3     0.090000        1.0080           0
     27412 WT12     276      MECN     C2       CG1N1    0.360000       12.0110           0
     27413 WT12     276      MECN     N3       NG1T1   -0.460000       14.0070           0
     27414 WT12     279      MECN     C1       CG331   -0.170000       12.0110           0
     27415 WT12     279      MECN     H11      HGA3     0.090000        1.0080           0
     27416 WT12     279      MECN     H12      HGA3     0.090000        1.0080           0
     27417 WT12     279      MECN     H13      HGA3     0.090000        1.0080           0
     27418 WT12     279      MECN     C2       CG1N1    0.360000       12.0110           0
     27419 WT12     279      MECN     N3       NG1T1   -0.460000       14.0070           0
     27420 WT12     280      MECN     C1       CG331   -0.170000       12.0110           0
     27421 WT12     280      MECN     H11      HGA3     0.090000        1.0080           0
     27422 WT12     280      MECN     H12      HGA3     0.090000        1.0080           0
     27423 WT12     280      MECN     H13      HGA3     0.090000        1.0080           0
     27424 WT12     280      MECN     C2       CG1N1    0.360000       12.0110           0
     27425 WT12     280      MECN     N3       NG1T1   -0.460000       14.0070           0
     27426 WT12     285      MECN     C1       CG331   -0.170000       12.0110           0
     27427 WT12     285      MECN     H11      HGA3     0.090000        1.0080           0
     27428 WT12     285      MECN     H12      HGA3     0.090000        1.0080           0
     27429 WT12     285      MECN     H13      HGA3     0.090000        1.0080           0
     27430 WT12     285      MECN     C2       CG1N1    0.360000       12.0110           0
     27431 WT12     285      MECN     N3       NG1T1   -0.460000       14.0070           0
     27432 WT12     286      MECN     C1       CG331   -0.170000       12.0110           0
     27433 WT12     286      MECN     H11      HGA3     0.090000        1.0080           0
     27434 WT12     286      MECN     H12      HGA3     0.090000        1.0080           0
     27435 WT12     286      MECN     H13      HGA3     0.090000        1.0080           0
     27436 WT12     286      MECN     C2       CG1N1    0.360000       12.0110           0
     27437 WT12     286      MECN     N3       NG1T1   -0.460000       14.0070           0
     27438 WT12     288      MECN     C1       CG331   -0.170000       12.0110           0
     27439 WT12     288      MECN     H11      HGA3     0.090000        1.0080           0
     27440 WT12     288      MECN     H12      HGA3     0.090000        1.0080           0
     27441 WT12     288      MECN     H13      HGA3     0.090000        1.0080           0
     27442 WT12     288      MECN     C2       CG1N1    0.360000       12.0110           0
     27443 WT12     288      MECN     N3       NG1T1   -0.460000       14.0070           0
     27444 WT12     294      MECN     C1       CG331   -0.170000       12.0110           0
     27445 WT12     294      MECN     H11      HGA3     0.090000        1.0080           0
     27446 WT12     294      MECN     H12      HGA3     0.090000        1.0080           0
     27447 WT12     294      MECN     H13      HGA3     0.090000        1.0080           0
     27448 WT12     294      MECN     C2       CG1N1    0.360000       12.0110           0
     27449 WT12     294      MECN     N3       NG1T1   -0.460000       14.0070           0
     27450 WT12     296      MECN     C1       CG331   -0.170000       12.0110           0
     27451 WT12     296      MECN     H11      HGA3     0.090000        1.0080           0
     27452 WT12     296      MECN     H12      HGA3     0.090000        1.0080           0
     27453 WT12     296      MECN     H13      HGA3     0.090000        1.0080           0
     27454 WT12     296      MECN     C2       CG1N1    0.360000       12.0110           0
     27455 WT12     296      MECN     N3       NG1T1   -0.460000       14.0070           0
     27456 WT12     304      MECN     C1       CG331   -0.170000       12.0110           0
     27457 WT12     304      MECN     H11      HGA3     0.090000        1.0080           0
     27458 WT12     304      MECN     H12      HGA3     0.090000        1.0080           0
     27459 WT12     304      MECN     H13      HGA3     0.090000        1.0080           0
     27460 WT12     304      MECN     C2       CG1N1    0.360000       12.0110           0
     27461 WT12     304      MECN     N3       NG1T1   -0.460000       14.0070           0
     27462 WT12     306      MECN     C1       CG331   -0.170000       12.0110           0
     27463 WT12     306      MECN     H11      HGA3     0.090000        1.0080           0
     27464 WT12     306      MECN     H12      HGA3     0.090000        1.0080           0
     27465 WT12     306      MECN     H13      HGA3     0.090000        1.0080           0
     27466 WT12     306      MECN     C2       CG1N1    0.360000       12.0110           0
     27467 WT12     306      MECN     N3       NG1T1   -0.460000       14.0070           0
     27468 WT12     308      MECN     C1       CG331   -0.170000       12.0110           0
     27469 WT12     308      MECN     H11      HGA3     0.090000        1.0080           0
     27470 WT12     308      MECN     H12      HGA3     0.090000        1.0080           0
     27471 WT12     308      MECN     H13      HGA3     0.090000        1.0080           0
     27472 WT12     308      MECN     C2       CG1N1    0.360000       12.0110           0
     27473 WT12     308      MECN     N3       NG1T1   -0.460000       14.0070           0
     27474 WT12     316      MECN     C1       CG331   -0.170000       12.0110           0
     27475 WT12     316      MECN     H11      HGA3     0.090000        1.0080           0
     27476 WT12     316      MECN     H12      HGA3     0.090000        1.0080           0
     27477 WT12     316      MECN     H13      HGA3     0.090000        1.0080           0
     27478 WT12     316      MECN     C2       CG1N1    0.360000       12.0110           0
     27479 WT12     316      MECN     N3       NG1T1   -0.460000       14.0070           0
     27480 WT12     318      MECN     C1       CG331   -0.170000       12.0110           0
     27481 WT12     318      MECN     H11      HGA3     0.090000        1.0080           0
     27482 WT12     318      MECN     H12      HGA3     0.090000        1.0080           0
     27483 WT12     318      MECN     H13      HGA3     0.090000        1.0080           0
     27484 WT12     318      MECN     C2       CG1N1    0.360000       12.0110           0
     27485 WT12     318      MECN     N3       NG1T1   -0.460000       14.0070           0
     27486 WT12     319      MECN     C1       CG331   -0.170000       12.0110           0
     27487 WT12     319      MECN     H11      HGA3     0.090000        1.0080           0
     27488 WT12     319      MECN     H12      HGA3     0.090000        1.0080           0
     27489 WT12     319      MECN     H13      HGA3     0.090000        1.0080           0
     27490 WT12     319      MECN     C2       CG1N1    0.360000       12.0110           0
     27491 WT12     319      MECN     N3       NG1T1   -0.460000       14.0070           0
     27492 WT12     321      MECN     C1       CG331   -0.170000       12.0110           0
     27493 WT12     321      MECN     H11      HGA3     0.090000        1.0080           0
     27494 WT12     321      MECN     H12      HGA3     0.090000        1.0080           0
     27495 WT12     321      MECN     H13      HGA3     0.090000        1.0080           0
     27496 WT12     321      MECN     C2       CG1N1    0.360000       12.0110           0
     27497 WT12     321      MECN     N3       NG1T1   -0.460000       14.0070           0
     27498 WT12     323      MECN     C1       CG331   -0.170000       12.0110           0
     27499 WT12     323      MECN     H11      HGA3     0.090000        1.0080           0
     27500 WT12     323      MECN     H12      HGA3     0.090000        1.0080           0
     27501 WT12     323      MECN     H13      HGA3     0.090000        1.0080           0
     27502 WT12     323      MECN     C2       CG1N1    0.360000       12.0110           0
     27503 WT12     323      MECN     N3       NG1T1   -0.460000       14.0070           0
     27504 WT12     329      MECN     C1       CG331   -0.170000       12.0110           0
     27505 WT12     329      MECN     H11      HGA3     0.090000        1.0080           0
     27506 WT12     329      MECN     H12      HGA3     0.090000        1.0080           0
     27507 WT12     329      MECN     H13      HGA3     0.090000        1.0080           0
     27508 WT12     329      MECN     C2       CG1N1    0.360000       12.0110           0
     27509 WT12     329      MECN     N3       NG1T1   -0.460000       14.0070           0
     27510 WT12     331      MECN     C1       CG331   -0.170000       12.0110           0
     27511 WT12     331      MECN     H11      HGA3     0.090000        1.0080           0
     27512 WT12     331      MECN     H12      HGA3     0.090000        1.0080           0
     27513 WT12     331      MECN     H13      HGA3     0.090000        1.0080           0
     27514 WT12     331      MECN     C2       CG1N1    0.360000       12.0110           0
     27515 WT12     331      MECN     N3       NG1T1   -0.460000       14.0070           0
     27516 WT12     333      MECN     C1       CG331   -0.170000       12.0110           0
     27517 WT12     333      MECN     H11      HGA3     0.090000        1.0080           0
     27518 WT12     333      MECN     H12      HGA3     0.090000        1.0080           0
     27519 WT12     333      MECN     H13      HGA3     0.090000        1.0080           0
     27520 WT12     333      MECN     C2       CG1N1    0.360000       12.0110           0
     27521 WT12     333      MECN     N3       NG1T1   -0.460000       14.0070           0
     27522 WT12     337      MECN     C1       CG331   -0.170000       12.0110           0
     27523 WT12     337      MECN     H11      HGA3     0.090000        1.0080           0
     27524 WT12     337      MECN     H12      HGA3     0.090000        1.0080           0
     27525 WT12     337      MECN     H13      HGA3     0.090000        1.0080           0
     27526 WT12     337      MECN     C2       CG1N1    0.360000       12.0110           0
     27527 WT12     337      MECN     N3       NG1T1   -0.460000       14.0070           0
     27528 WT12     341      MECN     C1       CG331   -0.170000       12.0110           0
     27529 WT12     341      MECN     H11      HGA3     0.090000        1.0080           0
     27530 WT12     341      MECN     H12      HGA3     0.090000        1.0080           0
     27531 WT12     341      MECN     H13      HGA3     0.090000        1.0080           0
     27532 WT12     341      MECN     C2       CG1N1    0.360000       12.0110           0
     27533 WT12     341      MECN     N3       NG1T1   -0.460000       14.0070           0
     27534 WT12     343      MECN     C1       CG331   -0.170000       12.0110           0
     27535 WT12     343      MECN     H11      HGA3     0.090000        1.0080           0
     27536 WT12     343      MECN     H12      HGA3     0.090000        1.0080           0
     27537 WT12     343      MECN     H13      HGA3     0.090000        1.0080           0
     27538 WT12     343      MECN     C2       CG1N1    0.360000       12.0110           0
     27539 WT12     343      MECN     N3       NG1T1   -0.460000       14.0070           0
     27540 WT12     346      MECN     C1       CG331   -0.170000       12.0110           0
     27541 WT12     346      MECN     H11      HGA3     0.090000        1.0080           0
     27542 WT12     346      MECN     H12      HGA3     0.090000        1.0080           0
     27543 WT12     346      MECN     H13      HGA3     0.090000        1.0080           0
     27544 WT12     346      MECN     C2       CG1N1    0.360000       12.0110           0
     27545 WT12     346      MECN     N3       NG1T1   -0.460000       14.0070           0
     27546 WT12     351      MECN     C1       CG331   -0.170000       12.0110           0
     27547 WT12     351      MECN     H11      HGA3     0.090000        1.0080           0
     27548 WT12     351      MECN     H12      HGA3     0.090000        1.0080           0
     27549 WT12     351      MECN     H13      HGA3     0.090000        1.0080           0
     27550 WT12     351      MECN     C2       CG1N1    0.360000       12.0110           0
     27551 WT12     351      MECN     N3       NG1T1   -0.460000       14.0070           0
     27552 WT12     358      MECN     C1       CG331   -0.170000       12.0110           0
     27553 WT12     358      MECN     H11      HGA3     0.090000        1.0080           0
     27554 WT12     358      MECN     H12      HGA3     0.090000        1.0080           0
     27555 WT12     358      MECN     H13      HGA3     0.090000        1.0080           0
     27556 WT12     358      MECN     C2       CG1N1    0.360000       12.0110           0
     27557 WT12     358      MECN     N3       NG1T1   -0.460000       14.0070           0
     27558 WT12     359      MECN     C1       CG331   -0.170000       12.0110           0
     27559 WT12     359      MECN     H11      HGA3     0.090000        1.0080           0
     27560 WT12     359      MECN     H12      HGA3     0.090000        1.0080           0
     27561 WT12     359      MECN     H13      HGA3     0.090000        1.0080           0
     27562 WT12     359      MECN     C2       CG1N1    0.360000       12.0110           0
     27563 WT12     359      MECN     N3       NG1T1   -0.460000       14.0070           0
     27564 WT12     361      MECN     C1       CG331   -0.170000       12.0110           0
     27565 WT12     361      MECN     H11      HGA3     0.090000        1.0080           0
     27566 WT12     361      MECN     H12      HGA3     0.090000        1.0080           0
     27567 WT12     361      MECN     H13      HGA3     0.090000        1.0080           0
     27568 WT12     361      MECN     C2       CG1N1    0.360000       12.0110           0
     27569 WT12     361      MECN     N3       NG1T1   -0.460000       14.0070           0
     27570 WT12     369      MECN     C1       CG331   -0.170000       12.0110           0
     27571 WT12     369      MECN     H11      HGA3     0.090000        1.0080           0
     27572 WT12     369      MECN     H12      HGA3     0.090000        1.0080           0
     27573 WT12     369      MECN     H13      HGA3     0.090000        1.0080           0
     27574 WT12     369      MECN     C2       CG1N1    0.360000       12.0110           0
     27575 WT12     369      MECN     N3       NG1T1   -0.460000       14.0070           0
     27576 WT12     373      MECN     C1       CG331   -0.170000       12.0110           0
     27577 WT12     373      MECN     H11      HGA3     0.090000        1.0080           0
     27578 WT12     373      MECN     H12      HGA3     0.090000        1.0080           0
     27579 WT12     373      MECN     H13      HGA3     0.090000        1.0080           0
     27580 WT12     373      MECN     C2       CG1N1    0.360000       12.0110           0
     27581 WT12     373      MECN     N3       NG1T1   -0.460000       14.0070           0
     27582 WT12     382      MECN     C1       CG331   -0.170000       12.0110           0
     27583 WT12     382      MECN     H11      HGA3     0.090000        1.0080           0
     27584 WT12     382      MECN     H12      HGA3     0.090000        1.0080           0
     27585 WT12     382      MECN     H13      HGA3     0.090000        1.0080           0
     27586 WT12     382      MECN     C2       CG1N1    0.360000       12.0110           0
     27587 WT12     382      MECN     N3       NG1T1   -0.460000       14.0070           0
     27588 WT12     385      MECN     C1       CG331   -0.170000       12.0110           0
     27589 WT12     385      MECN     H11      HGA3     0.090000        1.0080           0
     27590 WT12     385      MECN     H12      HGA3     0.090000        1.0080           0
     27591 WT12     385      MECN     H13      HGA3     0.090000        1.0080           0
     27592 WT12     385      MECN     C2       CG1N1    0.360000       12.0110           0
     27593 WT12     385      MECN     N3       NG1T1   -0.460000       14.0070           0
     27594 WT12     387      MECN     C1       CG331   -0.170000       12.0110           0
     27595 WT12     387      MECN     H11      HGA3     0.090000        1.0080           0
     27596 WT12     387      MECN     H12      HGA3     0.090000        1.0080           0
     27597 WT12     387      MECN     H13      HGA3     0.090000        1.0080           0
     27598 WT12     387      MECN     C2       CG1N1    0.360000       12.0110           0
     27599 WT12     387      MECN     N3       NG1T1   -0.460000       14.0070           0
     27600 WT12     388      MECN     C1       CG331   -0.170000       12.0110           0
     27601 WT12     388      MECN     H11      HGA3     0.090000        1.0080           0
     27602 WT12     388      MECN     H12      HGA3     0.090000        1.0080           0
     27603 WT12     388      MECN     H13      HGA3     0.090000        1.0080           0
     27604 WT12     388      MECN     C2       CG1N1    0.360000       12.0110           0
     27605 WT12     388      MECN     N3       NG1T1   -0.460000       14.0070           0
     27606 WT12     391      MECN     C1       CG331   -0.170000       12.0110           0
     27607 WT12     391      MECN     H11      HGA3     0.090000        1.0080           0
     27608 WT12     391      MECN     H12      HGA3     0.090000        1.0080           0
     27609 WT12     391      MECN     H13      HGA3     0.090000        1.0080           0
     27610 WT12     391      MECN     C2       CG1N1    0.360000       12.0110           0
     27611 WT12     391      MECN     N3       NG1T1   -0.460000       14.0070           0
     27612 WT12     393      MECN     C1       CG331   -0.170000       12.0110           0
     27613 WT12     393      MECN     H11      HGA3     0.090000        1.0080           0
     27614 WT12     393      MECN     H12      HGA3     0.090000        1.0080           0
     27615 WT12     393      MECN     H13      HGA3     0.090000        1.0080           0
     27616 WT12     393      MECN     C2       CG1N1    0.360000       12.0110           0
     27617 WT12     393      MECN     N3       NG1T1   -0.460000       14.0070           0
     27618 WT12     395      MECN     C1       CG331   -0.170000       12.0110           0
     27619 WT12     395      MECN     H11      HGA3     0.090000        1.0080           0
     27620 WT12     395      MECN     H12      HGA3     0.090000        1.0080           0
     27621 WT12     395      MECN     H13      HGA3     0.090000        1.0080           0
     27622 WT12     395      MECN     C2       CG1N1    0.360000       12.0110           0
     27623 WT12     395      MECN     N3       NG1T1   -0.460000       14.0070           0
     27624 WT12     396      MECN     C1       CG331   -0.170000       12.0110           0
     27625 WT12     396      MECN     H11      HGA3     0.090000        1.0080           0
     27626 WT12     396      MECN     H12      HGA3     0.090000        1.0080           0
     27627 WT12     396      MECN     H13      HGA3     0.090000        1.0080           0
     27628 WT12     396      MECN     C2       CG1N1    0.360000       12.0110           0
     27629 WT12     396      MECN     N3       NG1T1   -0.460000       14.0070           0
     27630 WT12     401      MECN     C1       CG331   -0.170000       12.0110           0
     27631 WT12     401      MECN     H11      HGA3     0.090000        1.0080           0
     27632 WT12     401      MECN     H12      HGA3     0.090000        1.0080           0
     27633 WT12     401      MECN     H13      HGA3     0.090000        1.0080           0
     27634 WT12     401      MECN     C2       CG1N1    0.360000       12.0110           0
     27635 WT12     401      MECN     N3       NG1T1   -0.460000       14.0070           0
     27636 WT12     406      MECN     C1       CG331   -0.170000       12.0110           0
     27637 WT12     406      MECN     H11      HGA3     0.090000        1.0080           0
     27638 WT12     406      MECN     H12      HGA3     0.090000        1.0080           0
     27639 WT12     406      MECN     H13      HGA3     0.090000        1.0080           0
     27640 WT12     406      MECN     C2       CG1N1    0.360000       12.0110           0
     27641 WT12     406      MECN     N3       NG1T1   -0.460000       14.0070           0
     27642 WT12     410      MECN     C1       CG331   -0.170000       12.0110           0
     27643 WT12     410      MECN     H11      HGA3     0.090000        1.0080           0
     27644 WT12     410      MECN     H12      HGA3     0.090000        1.0080           0
     27645 WT12     410      MECN     H13      HGA3     0.090000        1.0080           0
     27646 WT12     410      MECN     C2       CG1N1    0.360000       12.0110           0
     27647 WT12     410      MECN     N3       NG1T1   -0.460000       14.0070           0
     27648 WT12     411      MECN     C1       CG331   -0.170000       12.0110           0
     27649 WT12     411      MECN     H11      HGA3     0.090000        1.0080           0
     27650 WT12     411      MECN     H12      HGA3     0.090000        1.0080           0
     27651 WT12     411      MECN     H13      HGA3     0.090000        1.0080           0
     27652 WT12     411      MECN     C2       CG1N1    0.360000       12.0110           0
     27653 WT12     411      MECN     N3       NG1T1   -0.460000       14.0070           0
     27654 WT12     416      MECN     C1       CG331   -0.170000       12.0110           0
     27655 WT12     416      MECN     H11      HGA3     0.090000        1.0080           0
     27656 WT12     416      MECN     H12      HGA3     0.090000        1.0080           0
     27657 WT12     416      MECN     H13      HGA3     0.090000        1.0080           0
     27658 WT12     416      MECN     C2       CG1N1    0.360000       12.0110           0
     27659 WT12     416      MECN     N3       NG1T1   -0.460000       14.0070           0
     27660 WT12     418      MECN     C1       CG331   -0.170000       12.0110           0
     27661 WT12     418      MECN     H11      HGA3     0.090000        1.0080           0
     27662 WT12     418      MECN     H12      HGA3     0.090000        1.0080           0
     27663 WT12     418      MECN     H13      HGA3     0.090000        1.0080           0
     27664 WT12     418      MECN     C2       CG1N1    0.360000       12.0110           0
     27665 WT12     418      MECN     N3       NG1T1   -0.460000       14.0070           0
     27666 WT12     419      MECN     C1       CG331   -0.170000       12.0110           0
     27667 WT12     419      MECN     H11      HGA3     0.090000        1.0080           0
     27668 WT12     419      MECN     H12      HGA3     0.090000        1.0080           0
     27669 WT12     419      MECN     H13      HGA3     0.090000        1.0080           0
     27670 WT12     419      MECN     C2       CG1N1    0.360000       12.0110           0
     27671 WT12     419      MECN     N3       NG1T1   -0.460000       14.0070           0
     27672 WT12     420      MECN     C1       CG331   -0.170000       12.0110           0
     27673 WT12     420      MECN     H11      HGA3     0.090000        1.0080           0
     27674 WT12     420      MECN     H12      HGA3     0.090000        1.0080           0
     27675 WT12     420      MECN     H13      HGA3     0.090000        1.0080           0
     27676 WT12     420      MECN     C2       CG1N1    0.360000       12.0110           0
     27677 WT12     420      MECN     N3       NG1T1   -0.460000       14.0070           0
     27678 WT12     422      MECN     C1       CG331   -0.170000       12.0110           0
     27679 WT12     422      MECN     H11      HGA3     0.090000        1.0080           0
     27680 WT12     422      MECN     H12      HGA3     0.090000        1.0080           0
     27681 WT12     422      MECN     H13      HGA3     0.090000        1.0080           0
     27682 WT12     422      MECN     C2       CG1N1    0.360000       12.0110           0
     27683 WT12     422      MECN     N3       NG1T1   -0.460000       14.0070           0
     27684 WT12     427      MECN     C1       CG331   -0.170000       12.0110           0
     27685 WT12     427      MECN     H11      HGA3     0.090000        1.0080           0
     27686 WT12     427      MECN     H12      HGA3     0.090000        1.0080           0
     27687 WT12     427      MECN     H13      HGA3     0.090000        1.0080           0
     27688 WT12     427      MECN     C2       CG1N1    0.360000       12.0110           0
     27689 WT12     427      MECN     N3       NG1T1   -0.460000       14.0070           0
     27690 WT12     430      MECN     C1       CG331   -0.170000       12.0110           0
     27691 WT12     430      MECN     H11      HGA3     0.090000        1.0080           0
     27692 WT12     430      MECN     H12      HGA3     0.090000        1.0080           0
     27693 WT12     430      MECN     H13      HGA3     0.090000        1.0080           0
     27694 WT12     430      MECN     C2       CG1N1    0.360000       12.0110           0
     27695 WT12     430      MECN     N3       NG1T1   -0.460000       14.0070           0
     27696 WT12     435      MECN     C1       CG331   -0.170000       12.0110           0
     27697 WT12     435      MECN     H11      HGA3     0.090000        1.0080           0
     27698 WT12     435      MECN     H12      HGA3     0.090000        1.0080           0
     27699 WT12     435      MECN     H13      HGA3     0.090000        1.0080           0
     27700 WT12     435      MECN     C2       CG1N1    0.360000       12.0110           0
     27701 WT12     435      MECN     N3       NG1T1   -0.460000       14.0070           0
     27702 WT12     436      MECN     C1       CG331   -0.170000       12.0110           0
     27703 WT12     436      MECN     H11      HGA3     0.090000        1.0080           0
     27704 WT12     436      MECN     H12      HGA3     0.090000        1.0080           0
     27705 WT12     436      MECN     H13      HGA3     0.090000        1.0080           0
     27706 WT12     436      MECN     C2       CG1N1    0.360000       12.0110           0
     27707 WT12     436      MECN     N3       NG1T1   -0.460000       14.0070           0
     27708 WT12     440      MECN     C1       CG331   -0.170000       12.0110           0
     27709 WT12     440      MECN     H11      HGA3     0.090000        1.0080           0
     27710 WT12     440      MECN     H12      HGA3     0.090000        1.0080           0
     27711 WT12     440      MECN     H13      HGA3     0.090000        1.0080           0
     27712 WT12     440      MECN     C2       CG1N1    0.360000       12.0110           0
     27713 WT12     440      MECN     N3       NG1T1   -0.460000       14.0070           0
     27714 WT12     441      MECN     C1       CG331   -0.170000       12.0110           0
     27715 WT12     441      MECN     H11      HGA3     0.090000        1.0080           0
     27716 WT12     441      MECN     H12      HGA3     0.090000        1.0080           0
     27717 WT12     441      MECN     H13      HGA3     0.090000        1.0080           0
     27718 WT12     441      MECN     C2       CG1N1    0.360000       12.0110           0
     27719 WT12     441      MECN     N3       NG1T1   -0.460000       14.0070           0
     27720 WT12     445      MECN     C1       CG331   -0.170000       12.0110           0
     27721 WT12     445      MECN     H11      HGA3     0.090000        1.0080           0
     27722 WT12     445      MECN     H12      HGA3     0.090000        1.0080           0
     27723 WT12     445      MECN     H13      HGA3     0.090000        1.0080           0
     27724 WT12     445      MECN     C2       CG1N1    0.360000       12.0110           0
     27725 WT12     445      MECN     N3       NG1T1   -0.460000       14.0070           0
     27726 WT12     448      MECN     C1       CG331   -0.170000       12.0110           0
     27727 WT12     448      MECN     H11      HGA3     0.090000        1.0080           0
     27728 WT12     448      MECN     H12      HGA3     0.090000        1.0080           0
     27729 WT12     448      MECN     H13      HGA3     0.090000        1.0080           0
     27730 WT12     448      MECN     C2       CG1N1    0.360000       12.0110           0
     27731 WT12     448      MECN     N3       NG1T1   -0.460000       14.0070           0
     27732 WT12     449      MECN     C1       CG331   -0.170000       12.0110           0
     27733 WT12     449      MECN     H11      HGA3     0.090000        1.0080           0
     27734 WT12     449      MECN     H12      HGA3     0.090000        1.0080           0
     27735 WT12     449      MECN     H13      HGA3     0.090000        1.0080           0
     27736 WT12     449      MECN     C2       CG1N1    0.360000       12.0110           0
     27737 WT12     449      MECN     N3       NG1T1   -0.460000       14.0070           0
     27738 WT12     450      MECN     C1       CG331   -0.170000       12.0110           0
     27739 WT12     450      MECN     H11      HGA3     0.090000        1.0080           0
     27740 WT12     450      MECN     H12      HGA3     0.090000        1.0080           0
     27741 WT12     450      MECN     H13      HGA3     0.090000        1.0080           0
     27742 WT12     450      MECN     C2       CG1N1    0.360000       12.0110           0
     27743 WT12     450      MECN     N3       NG1T1   -0.460000       14.0070           0
     27744 WT12     451      MECN     C1       CG331   -0.170000       12.0110           0
     27745 WT12     451      MECN     H11      HGA3     0.090000        1.0080           0
     27746 WT12     451      MECN     H12      HGA3     0.090000        1.0080           0
     27747 WT12     451      MECN     H13      HGA3     0.090000        1.0080           0
     27748 WT12     451      MECN     C2       CG1N1    0.360000       12.0110           0
     27749 WT12     451      MECN     N3       NG1T1   -0.460000       14.0070           0
     27750 WT12     452      MECN     C1       CG331   -0.170000       12.0110           0
     27751 WT12     452      MECN     H11      HGA3     0.090000        1.0080           0
     27752 WT12     452      MECN     H12      HGA3     0.090000        1.0080           0
     27753 WT12     452      MECN     H13      HGA3     0.090000        1.0080           0
     27754 WT12     452      MECN     C2       CG1N1    0.360000       12.0110           0
     27755 WT12     452      MECN     N3       NG1T1   -0.460000       14.0070           0
     27756 WT12     454      MECN     C1       CG331   -0.170000       12.0110           0
     27757 WT12     454      MECN     H11      HGA3     0.090000        1.0080           0
     27758 WT12     454      MECN     H12      HGA3     0.090000        1.0080           0
     27759 WT12     454      MECN     H13      HGA3     0.090000        1.0080           0
     27760 WT12     454      MECN     C2       CG1N1    0.360000       12.0110           0
     27761 WT12     454      MECN     N3       NG1T1   -0.460000       14.0070           0
     27762 WT12     457      MECN     C1       CG331   -0.170000       12.0110           0
     27763 WT12     457      MECN     H11      HGA3     0.090000        1.0080           0
     27764 WT12     457      MECN     H12      HGA3     0.090000        1.0080           0
     27765 WT12     457      MECN     H13      HGA3     0.090000        1.0080           0
     27766 WT12     457      MECN     C2       CG1N1    0.360000       12.0110           0
     27767 WT12     457      MECN     N3       NG1T1   -0.460000       14.0070           0
     27768 WT12     460      MECN     C1       CG331   -0.170000       12.0110           0
     27769 WT12     460      MECN     H11      HGA3     0.090000        1.0080           0
     27770 WT12     460      MECN     H12      HGA3     0.090000        1.0080           0
     27771 WT12     460      MECN     H13      HGA3     0.090000        1.0080           0
     27772 WT12     460      MECN     C2       CG1N1    0.360000       12.0110           0
     27773 WT12     460      MECN     N3       NG1T1   -0.460000       14.0070           0
     27774 WT12     461      MECN     C1       CG331   -0.170000       12.0110           0
     27775 WT12     461      MECN     H11      HGA3     0.090000        1.0080           0
     27776 WT12     461      MECN     H12      HGA3     0.090000        1.0080           0
     27777 WT12     461      MECN     H13      HGA3     0.090000        1.0080           0
     27778 WT12     461      MECN     C2       CG1N1    0.360000       12.0110           0
     27779 WT12     461      MECN     N3       NG1T1   -0.460000       14.0070           0
     27780 WT12     464      MECN     C1       CG331   -0.170000       12.0110           0
     27781 WT12     464      MECN     H11      HGA3     0.090000        1.0080           0
     27782 WT12     464      MECN     H12      HGA3     0.090000        1.0080           0
     27783 WT12     464      MECN     H13      HGA3     0.090000        1.0080           0
     27784 WT12     464      MECN     C2       CG1N1    0.360000       12.0110           0
     27785 WT12     464      MECN     N3       NG1T1   -0.460000       14.0070           0
     27786 WT12     468      MECN     C1       CG331   -0.170000       12.0110           0
     27787 WT12     468      MECN     H11      HGA3     0.090000        1.0080           0
     27788 WT12     468      MECN     H12      HGA3     0.090000        1.0080           0
     27789 WT12     468      MECN     H13      HGA3     0.090000        1.0080           0
     27790 WT12     468      MECN     C2       CG1N1    0.360000       12.0110           0
     27791 WT12     468      MECN     N3       NG1T1   -0.460000       14.0070           0
     27792 WT12     470      MECN     C1       CG331   -0.170000       12.0110           0
     27793 WT12     470      MECN     H11      HGA3     0.090000        1.0080           0
     27794 WT12     470      MECN     H12      HGA3     0.090000        1.0080           0
     27795 WT12     470      MECN     H13      HGA3     0.090000        1.0080           0
     27796 WT12     470      MECN     C2       CG1N1    0.360000       12.0110           0
     27797 WT12     470      MECN     N3       NG1T1   -0.460000       14.0070           0
     27798 WT12     475      MECN     C1       CG331   -0.170000       12.0110           0
     27799 WT12     475      MECN     H11      HGA3     0.090000        1.0080           0
     27800 WT12     475      MECN     H12      HGA3     0.090000        1.0080           0
     27801 WT12     475      MECN     H13      HGA3     0.090000        1.0080           0
     27802 WT12     475      MECN     C2       CG1N1    0.360000       12.0110           0
     27803 WT12     475      MECN     N3       NG1T1   -0.460000       14.0070           0
     27804 WT12     476      MECN     C1       CG331   -0.170000       12.0110           0
     27805 WT12     476      MECN     H11      HGA3     0.090000        1.0080           0
     27806 WT12     476      MECN     H12      HGA3     0.090000        1.0080           0
     27807 WT12     476      MECN     H13      HGA3     0.090000        1.0080           0
     27808 WT12     476      MECN     C2       CG1N1    0.360000       12.0110           0
     27809 WT12     476      MECN     N3       NG1T1   -0.460000       14.0070           0
     27810 WT12     477      MECN     C1       CG331   -0.170000       12.0110           0
     27811 WT12     477      MECN     H11      HGA3     0.090000        1.0080           0
     27812 WT12     477      MECN     H12      HGA3     0.090000        1.0080           0
     27813 WT12     477      MECN     H13      HGA3     0.090000        1.0080           0
     27814 WT12     477      MECN     C2       CG1N1    0.360000       12.0110           0
     27815 WT12     477      MECN     N3       NG1T1   -0.460000       14.0070           0
     27816 WT12     480      MECN     C1       CG331   -0.170000       12.0110           0
     27817 WT12     480      MECN     H11      HGA3     0.090000        1.0080           0
     27818 WT12     480      MECN     H12      HGA3     0.090000        1.0080           0
     27819 WT12     480      MECN     H13      HGA3     0.090000        1.0080           0
     27820 WT12     480      MECN     C2       CG1N1    0.360000       12.0110           0
     27821 WT12     480      MECN     N3       NG1T1   -0.460000       14.0070           0
     27822 WT12     482      MECN     C1       CG331   -0.170000       12.0110           0
     27823 WT12     482      MECN     H11      HGA3     0.090000        1.0080           0
     27824 WT12     482      MECN     H12      HGA3     0.090000        1.0080           0
     27825 WT12     482      MECN     H13      HGA3     0.090000        1.0080           0
     27826 WT12     482      MECN     C2       CG1N1    0.360000       12.0110           0
     27827 WT12     482      MECN     N3       NG1T1   -0.460000       14.0070           0
     27828 WT12     485      MECN     C1       CG331   -0.170000       12.0110           0
     27829 WT12     485      MECN     H11      HGA3     0.090000        1.0080           0
     27830 WT12     485      MECN     H12      HGA3     0.090000        1.0080           0
     27831 WT12     485      MECN     H13      HGA3     0.090000        1.0080           0
     27832 WT12     485      MECN     C2       CG1N1    0.360000       12.0110           0
     27833 WT12     485      MECN     N3       NG1T1   -0.460000       14.0070           0
     27834 WT12     486      MECN     C1       CG331   -0.170000       12.0110           0
     27835 WT12     486      MECN     H11      HGA3     0.090000        1.0080           0
     27836 WT12     486      MECN     H12      HGA3     0.090000        1.0080           0
     27837 WT12     486      MECN     H13      HGA3     0.090000        1.0080           0
     27838 WT12     486      MECN     C2       CG1N1    0.360000       12.0110           0
     27839 WT12     486      MECN     N3       NG1T1   -0.460000       14.0070           0
     27840 WT12     488      MECN     C1       CG331   -0.170000       12.0110           0
     27841 WT12     488      MECN     H11      HGA3     0.090000        1.0080           0
     27842 WT12     488      MECN     H12      HGA3     0.090000        1.0080           0
     27843 WT12     488      MECN     H13      HGA3     0.090000        1.0080           0
     27844 WT12     488      MECN     C2       CG1N1    0.360000       12.0110           0
     27845 WT12     488      MECN     N3       NG1T1   -0.460000       14.0070           0
     27846 WT12     489      MECN     C1       CG331   -0.170000       12.0110           0
     27847 WT12     489      MECN     H11      HGA3     0.090000        1.0080           0
     27848 WT12     489      MECN     H12      HGA3     0.090000        1.0080           0
     27849 WT12     489      MECN     H13      HGA3     0.090000        1.0080           0
     27850 WT12     489      MECN     C2       CG1N1    0.360000       12.0110           0
     27851 WT12     489      MECN     N3       NG1T1   -0.460000       14.0070           0
     27852 WT12     490      MECN     C1       CG331   -0.170000       12.0110           0
     27853 WT12     490      MECN     H11      HGA3     0.090000        1.0080           0
     27854 WT12     490      MECN     H12      HGA3     0.090000        1.0080           0
     27855 WT12     490      MECN     H13      HGA3     0.090000        1.0080           0
     27856 WT12     490      MECN     C2       CG1N1    0.360000       12.0110           0
     27857 WT12     490      MECN     N3       NG1T1   -0.460000       14.0070           0
     27858 WT12     493      MECN     C1       CG331   -0.170000       12.0110           0
     27859 WT12     493      MECN     H11      HGA3     0.090000        1.0080           0
     27860 WT12     493      MECN     H12      HGA3     0.090000        1.0080           0
     27861 WT12     493      MECN     H13      HGA3     0.090000        1.0080           0
     27862 WT12     493      MECN     C2       CG1N1    0.360000       12.0110           0
     27863 WT12     493      MECN     N3       NG1T1   -0.460000       14.0070           0
     27864 WT12     494      MECN     C1       CG331   -0.170000       12.0110           0
     27865 WT12     494      MECN     H11      HGA3     0.090000        1.0080           0
     27866 WT12     494      MECN     H12      HGA3     0.090000        1.0080           0
     27867 WT12     494      MECN     H13      HGA3     0.090000        1.0080           0
     27868 WT12     494      MECN     C2       CG1N1    0.360000       12.0110           0
     27869 WT12     494      MECN     N3       NG1T1   -0.460000       14.0070           0
     27870 WT12     497      MECN     C1       CG331   -0.170000       12.0110           0
     27871 WT12     497      MECN     H11      HGA3     0.090000        1.0080           0
     27872 WT12     497      MECN     H12      HGA3     0.090000        1.0080           0
     27873 WT12     497      MECN     H13      HGA3     0.090000        1.0080           0
     27874 WT12     497      MECN     C2       CG1N1    0.360000       12.0110           0
     27875 WT12     497      MECN     N3       NG1T1   -0.460000       14.0070           0
     27876 WT12     498      MECN     C1       CG331   -0.170000       12.0110           0
     27877 WT12     498      MECN     H11      HGA3     0.090000        1.0080           0
     27878 WT12     498      MECN     H12      HGA3     0.090000        1.0080           0
     27879 WT12     498      MECN     H13      HGA3     0.090000        1.0080           0
     27880 WT12     498      MECN     C2       CG1N1    0.360000       12.0110           0
     27881 WT12     498      MECN     N3       NG1T1   -0.460000       14.0070           0
     27882 WT12     499      MECN     C1       CG331   -0.170000       12.0110           0
     27883 WT12     499      MECN     H11      HGA3     0.090000        1.0080           0
     27884 WT12     499      MECN     H12      HGA3     0.090000        1.0080           0
     27885 WT12     499      MECN     H13      HGA3     0.090000        1.0080           0
     27886 WT12     499      MECN     C2       CG1N1    0.360000       12.0110           0
     27887 WT12     499      MECN     N3       NG1T1   -0.460000       14.0070           0
     27888 WT12     501      MECN     C1       CG331   -0.170000       12.0110           0
     27889 WT12     501      MECN     H11      HGA3     0.090000        1.0080           0
     27890 WT12     501      MECN     H12      HGA3     0.090000        1.0080           0
     27891 WT12     501      MECN     H13      HGA3     0.090000        1.0080           0
     27892 WT12     501      MECN     C2       CG1N1    0.360000       12.0110           0
     27893 WT12     501      MECN     N3       NG1T1   -0.460000       14.0070           0
     27894 WT12     504      MECN     C1       CG331   -0.170000       12.0110           0
     27895 WT12     504      MECN     H11      HGA3     0.090000        1.0080           0
     27896 WT12     504      MECN     H12      HGA3     0.090000        1.0080           0
     27897 WT12     504      MECN     H13      HGA3     0.090000        1.0080           0
     27898 WT12     504      MECN     C2       CG1N1    0.360000       12.0110           0
     27899 WT12     504      MECN     N3       NG1T1   -0.460000       14.0070           0
     27900 WT12     506      MECN     C1       CG331   -0.170000       12.0110           0
     27901 WT12     506      MECN     H11      HGA3     0.090000        1.0080           0
     27902 WT12     506      MECN     H12      HGA3     0.090000        1.0080           0
     27903 WT12     506      MECN     H13      HGA3     0.090000        1.0080           0
     27904 WT12     506      MECN     C2       CG1N1    0.360000       12.0110           0
     27905 WT12     506      MECN     N3       NG1T1   -0.460000       14.0070           0
     27906 WT12     507      MECN     C1       CG331   -0.170000       12.0110           0
     27907 WT12     507      MECN     H11      HGA3     0.090000        1.0080           0
     27908 WT12     507      MECN     H12      HGA3     0.090000        1.0080           0
     27909 WT12     507      MECN     H13      HGA3     0.090000        1.0080           0
     27910 WT12     507      MECN     C2       CG1N1    0.360000       12.0110           0
     27911 WT12     507      MECN     N3       NG1T1   -0.460000       14.0070           0
     27912 WT12     509      MECN     C1       CG331   -0.170000       12.0110           0
     27913 WT12     509      MECN     H11      HGA3     0.090000        1.0080           0
     27914 WT12     509      MECN     H12      HGA3     0.090000        1.0080           0
     27915 WT12     509      MECN     H13      HGA3     0.090000        1.0080           0
     27916 WT12     509      MECN     C2       CG1N1    0.360000       12.0110           0
     27917 WT12     509      MECN     N3       NG1T1   -0.460000       14.0070           0
     27918 WT12     513      MECN     C1       CG331   -0.170000       12.0110           0
     27919 WT12     513      MECN     H11      HGA3     0.090000        1.0080           0
     27920 WT12     513      MECN     H12      HGA3     0.090000        1.0080           0
     27921 WT12     513      MECN     H13      HGA3     0.090000        1.0080           0
     27922 WT12     513      MECN     C2       CG1N1    0.360000       12.0110           0
     27923 WT12     513      MECN     N3       NG1T1   -0.460000       14.0070           0
     27924 WT12     519      MECN     C1       CG331   -0.170000       12.0110           0
     27925 WT12     519      MECN     H11      HGA3     0.090000        1.0080           0
     27926 WT12     519      MECN     H12      HGA3     0.090000        1.0080           0
     27927 WT12     519      MECN     H13      HGA3     0.090000        1.0080           0
     27928 WT12     519      MECN     C2       CG1N1    0.360000       12.0110           0
     27929 WT12     519      MECN     N3       NG1T1   -0.460000       14.0070           0
     27930 WT12     521      MECN     C1       CG331   -0.170000       12.0110           0
     27931 WT12     521      MECN     H11      HGA3     0.090000        1.0080           0
     27932 WT12     521      MECN     H12      HGA3     0.090000        1.0080           0
     27933 WT12     521      MECN     H13      HGA3     0.090000        1.0080           0
     27934 WT12     521      MECN     C2       CG1N1    0.360000       12.0110           0
     27935 WT12     521      MECN     N3       NG1T1   -0.460000       14.0070           0
     27936 WT12     522      MECN     C1       CG331   -0.170000       12.0110           0
     27937 WT12     522      MECN     H11      HGA3     0.090000        1.0080           0
     27938 WT12     522      MECN     H12      HGA3     0.090000        1.0080           0
     27939 WT12     522      MECN     H13      HGA3     0.090000        1.0080           0
     27940 WT12     522      MECN     C2       CG1N1    0.360000       12.0110           0
     27941 WT12     522      MECN     N3       NG1T1   -0.460000       14.0070           0
     27942 WT12     523      MECN     C1       CG331   -0.170000       12.0110           0
     27943 WT12     523      MECN     H11      HGA3     0.090000        1.0080           0
     27944 WT12     523      MECN     H12      HGA3     0.090000        1.0080           0
     27945 WT12     523      MECN     H13      HGA3     0.090000        1.0080           0
     27946 WT12     523      MECN     C2       CG1N1    0.360000       12.0110           0
     27947 WT12     523      MECN     N3       NG1T1   -0.460000       14.0070           0
     27948 WT12     529      MECN     C1       CG331   -0.170000       12.0110           0
     27949 WT12     529      MECN     H11      HGA3     0.090000        1.0080           0
     27950 WT12     529      MECN     H12      HGA3     0.090000        1.0080           0
     27951 WT12     529      MECN     H13      HGA3     0.090000        1.0080           0
     27952 WT12     529      MECN     C2       CG1N1    0.360000       12.0110           0
     27953 WT12     529      MECN     N3       NG1T1   -0.460000       14.0070           0
     27954 WT12     530      MECN     C1       CG331   -0.170000       12.0110           0
     27955 WT12     530      MECN     H11      HGA3     0.090000        1.0080           0
     27956 WT12     530      MECN     H12      HGA3     0.090000        1.0080           0
     27957 WT12     530      MECN     H13      HGA3     0.090000        1.0080           0
     27958 WT12     530      MECN     C2       CG1N1    0.360000       12.0110           0
     27959 WT12     530      MECN     N3       NG1T1   -0.460000       14.0070           0
     27960 WT12     532      MECN     C1       CG331   -0.170000       12.0110           0
     27961 WT12     532      MECN     H11      HGA3     0.090000        1.0080           0
     27962 WT12     532      MECN     H12      HGA3     0.090000        1.0080           0
     27963 WT12     532      MECN     H13      HGA3     0.090000        1.0080           0
     27964 WT12     532      MECN     C2       CG1N1    0.360000       12.0110           0
     27965 WT12     532      MECN     N3       NG1T1   -0.460000       14.0070           0
     27966 WT12     537      MECN     C1       CG331   -0.170000       12.0110           0
     27967 WT12     537      MECN     H11      HGA3     0.090000        1.0080           0
     27968 WT12     537      MECN     H12      HGA3     0.090000        1.0080           0
     27969 WT12     537      MECN     H13      HGA3     0.090000        1.0080           0
     27970 WT12     537      MECN     C2       CG1N1    0.360000       12.0110           0
     27971 WT12     537      MECN     N3       NG1T1   -0.460000       14.0070           0
     27972 WT12     545      MECN     C1       CG331   -0.170000       12.0110           0
     27973 WT12     545      MECN     H11      HGA3     0.090000        1.0080           0
     27974 WT12     545      MECN     H12      HGA3     0.090000        1.0080           0
     27975 WT12     545      MECN     H13      HGA3     0.090000        1.0080           0
     27976 WT12     545      MECN     C2       CG1N1    0.360000       12.0110           0
     27977 WT12     545      MECN     N3       NG1T1   -0.460000       14.0070           0
     27978 WT12     546      MECN     C1       CG331   -0.170000       12.0110           0
     27979 WT12     546      MECN     H11      HGA3     0.090000        1.0080           0
     27980 WT12     546      MECN     H12      HGA3     0.090000        1.0080           0
     27981 WT12     546      MECN     H13      HGA3     0.090000        1.0080           0
     27982 WT12     546      MECN     C2       CG1N1    0.360000       12.0110           0
     27983 WT12     546      MECN     N3       NG1T1   -0.460000       14.0070           0
     27984 WT12     547      MECN     C1       CG331   -0.170000       12.0110           0
     27985 WT12     547      MECN     H11      HGA3     0.090000        1.0080           0
     27986 WT12     547      MECN     H12      HGA3     0.090000        1.0080           0
     27987 WT12     547      MECN     H13      HGA3     0.090000        1.0080           0
     27988 WT12     547      MECN     C2       CG1N1    0.360000       12.0110           0
     27989 WT12     547      MECN     N3       NG1T1   -0.460000       14.0070           0
     27990 WT12     555      MECN     C1       CG331   -0.170000       12.0110           0
     27991 WT12     555      MECN     H11      HGA3     0.090000        1.0080           0
     27992 WT12     555      MECN     H12      HGA3     0.090000        1.0080           0
     27993 WT12     555      MECN     H13      HGA3     0.090000        1.0080           0
     27994 WT12     555      MECN     C2       CG1N1    0.360000       12.0110           0
     27995 WT12     555      MECN     N3       NG1T1   -0.460000       14.0070           0
     27996 WT12     557      MECN     C1       CG331   -0.170000       12.0110           0
     27997 WT12     557      MECN     H11      HGA3     0.090000        1.0080           0
     27998 WT12     557      MECN     H12      HGA3     0.090000        1.0080           0
     27999 WT12     557      MECN     H13      HGA3     0.090000        1.0080           0
     28000 WT12     557      MECN     C2       CG1N1    0.360000       12.0110           0
     28001 WT12     557      MECN     N3       NG1T1   -0.460000       14.0070           0
     28002 WT12     560      MECN     C1       CG331   -0.170000       12.0110           0
     28003 WT12     560      MECN     H11      HGA3     0.090000        1.0080           0
     28004 WT12     560      MECN     H12      HGA3     0.090000        1.0080           0
     28005 WT12     560      MECN     H13      HGA3     0.090000        1.0080           0
     28006 WT12     560      MECN     C2       CG1N1    0.360000       12.0110           0
     28007 WT12     560      MECN     N3       NG1T1   -0.460000       14.0070           0
     28008 WT12     561      MECN     C1       CG331   -0.170000       12.0110           0
     28009 WT12     561      MECN     H11      HGA3     0.090000        1.0080           0
     28010 WT12     561      MECN     H12      HGA3     0.090000        1.0080           0
     28011 WT12     561      MECN     H13      HGA3     0.090000        1.0080           0
     28012 WT12     561      MECN     C2       CG1N1    0.360000       12.0110           0
     28013 WT12     561      MECN     N3       NG1T1   -0.460000       14.0070           0
     28014 WT12     564      MECN     C1       CG331   -0.170000       12.0110           0
     28015 WT12     564      MECN     H11      HGA3     0.090000        1.0080           0
     28016 WT12     564      MECN     H12      HGA3     0.090000        1.0080           0
     28017 WT12     564      MECN     H13      HGA3     0.090000        1.0080           0
     28018 WT12     564      MECN     C2       CG1N1    0.360000       12.0110           0
     28019 WT12     564      MECN     N3       NG1T1   -0.460000       14.0070           0
     28020 WT12     571      MECN     C1       CG331   -0.170000       12.0110           0
     28021 WT12     571      MECN     H11      HGA3     0.090000        1.0080           0
     28022 WT12     571      MECN     H12      HGA3     0.090000        1.0080           0
     28023 WT12     571      MECN     H13      HGA3     0.090000        1.0080           0
     28024 WT12     571      MECN     C2       CG1N1    0.360000       12.0110           0
     28025 WT12     571      MECN     N3       NG1T1   -0.460000       14.0070           0
     28026 WT12     573      MECN     C1       CG331   -0.170000       12.0110           0
     28027 WT12     573      MECN     H11      HGA3     0.090000        1.0080           0
     28028 WT12     573      MECN     H12      HGA3     0.090000        1.0080           0
     28029 WT12     573      MECN     H13      HGA3     0.090000        1.0080           0
     28030 WT12     573      MECN     C2       CG1N1    0.360000       12.0110           0
     28031 WT12     573      MECN     N3       NG1T1   -0.460000       14.0070           0
     28032 WT12     576      MECN     C1       CG331   -0.170000       12.0110           0
     28033 WT12     576      MECN     H11      HGA3     0.090000        1.0080           0
     28034 WT12     576      MECN     H12      HGA3     0.090000        1.0080           0
     28035 WT12     576      MECN     H13      HGA3     0.090000        1.0080           0
     28036 WT12     576      MECN     C2       CG1N1    0.360000       12.0110           0
     28037 WT12     576      MECN     N3       NG1T1   -0.460000       14.0070           0
     28038 WT12     578      MECN     C1       CG331   -0.170000       12.0110           0
     28039 WT12     578      MECN     H11      HGA3     0.090000        1.0080           0
     28040 WT12     578      MECN     H12      HGA3     0.090000        1.0080           0
     28041 WT12     578      MECN     H13      HGA3     0.090000        1.0080           0
     28042 WT12     578      MECN     C2       CG1N1    0.360000       12.0110           0
     28043 WT12     578      MECN     N3       NG1T1   -0.460000       14.0070           0
     28044 WT12     579      MECN     C1       CG331   -0.170000       12.0110           0
     28045 WT12     579      MECN     H11      HGA3     0.090000        1.0080           0
     28046 WT12     579      MECN     H12      HGA3     0.090000        1.0080           0
     28047 WT12     579      MECN     H13      HGA3     0.090000        1.0080           0
     28048 WT12     579      MECN     C2       CG1N1    0.360000       12.0110           0
     28049 WT12     579      MECN     N3       NG1T1   -0.460000       14.0070           0
     28050 WT12     580      MECN     C1       CG331   -0.170000       12.0110           0
     28051 WT12     580      MECN     H11      HGA3     0.090000        1.0080           0
     28052 WT12     580      MECN     H12      HGA3     0.090000        1.0080           0
     28053 WT12     580      MECN     H13      HGA3     0.090000        1.0080           0
     28054 WT12     580      MECN     C2       CG1N1    0.360000       12.0110           0
     28055 WT12     580      MECN     N3       NG1T1   -0.460000       14.0070           0
     28056 WT12     582      MECN     C1       CG331   -0.170000       12.0110           0
     28057 WT12     582      MECN     H11      HGA3     0.090000        1.0080           0
     28058 WT12     582      MECN     H12      HGA3     0.090000        1.0080           0
     28059 WT12     582      MECN     H13      HGA3     0.090000        1.0080           0
     28060 WT12     582      MECN     C2       CG1N1    0.360000       12.0110           0
     28061 WT12     582      MECN     N3       NG1T1   -0.460000       14.0070           0
     28062 WT12     583      MECN     C1       CG331   -0.170000       12.0110           0
     28063 WT12     583      MECN     H11      HGA3     0.090000        1.0080           0
     28064 WT12     583      MECN     H12      HGA3     0.090000        1.0080           0
     28065 WT12     583      MECN     H13      HGA3     0.090000        1.0080           0
     28066 WT12     583      MECN     C2       CG1N1    0.360000       12.0110           0
     28067 WT12     583      MECN     N3       NG1T1   -0.460000       14.0070           0
     28068 WT12     584      MECN     C1       CG331   -0.170000       12.0110           0
     28069 WT12     584      MECN     H11      HGA3     0.090000        1.0080           0
     28070 WT12     584      MECN     H12      HGA3     0.090000        1.0080           0
     28071 WT12     584      MECN     H13      HGA3     0.090000        1.0080           0
     28072 WT12     584      MECN     C2       CG1N1    0.360000       12.0110           0
     28073 WT12     584      MECN     N3       NG1T1   -0.460000       14.0070           0
     28074 WT12     585      MECN     C1       CG331   -0.170000       12.0110           0
     28075 WT12     585      MECN     H11      HGA3     0.090000        1.0080           0
     28076 WT12     585      MECN     H12      HGA3     0.090000        1.0080           0
     28077 WT12     585      MECN     H13      HGA3     0.090000        1.0080           0
     28078 WT12     585      MECN     C2       CG1N1    0.360000       12.0110           0
     28079 WT12     585      MECN     N3       NG1T1   -0.460000       14.0070           0
     28080 WT12     587      MECN     C1       CG331   -0.170000       12.0110           0
     28081 WT12     587      MECN     H11      HGA3     0.090000        1.0080           0
     28082 WT12     587      MECN     H12      HGA3     0.090000        1.0080           0
     28083 WT12     587      MECN     H13      HGA3     0.090000        1.0080           0
     28084 WT12     587      MECN     C2       CG1N1    0.360000       12.0110           0
     28085 WT12     587      MECN     N3       NG1T1   -0.460000       14.0070           0
     28086 WT12     590      MECN     C1       CG331   -0.170000       12.0110           0
     28087 WT12     590      MECN     H11      HGA3     0.090000        1.0080           0
     28088 WT12     590      MECN     H12      HGA3     0.090000        1.0080           0
     28089 WT12     590      MECN     H13      HGA3     0.090000        1.0080           0
     28090 WT12     590      MECN     C2       CG1N1    0.360000       12.0110           0
     28091 WT12     590      MECN     N3       NG1T1   -0.460000       14.0070           0
     28092 WT12     591      MECN     C1       CG331   -0.170000       12.0110           0
     28093 WT12     591      MECN     H11      HGA3     0.090000        1.0080           0
     28094 WT12     591      MECN     H12      HGA3     0.090000        1.0080           0
     28095 WT12     591      MECN     H13      HGA3     0.090000        1.0080           0
     28096 WT12     591      MECN     C2       CG1N1    0.360000       12.0110           0
     28097 WT12     591      MECN     N3       NG1T1   -0.460000       14.0070           0
     28098 WT12     592      MECN     C1       CG331   -0.170000       12.0110           0
     28099 WT12     592      MECN     H11      HGA3     0.090000        1.0080           0
     28100 WT12     592      MECN     H12      HGA3     0.090000        1.0080           0
     28101 WT12     592      MECN     H13      HGA3     0.090000        1.0080           0
     28102 WT12     592      MECN     C2       CG1N1    0.360000       12.0110           0
     28103 WT12     592      MECN     N3       NG1T1   -0.460000       14.0070           0
     28104 WT12     593      MECN     C1       CG331   -0.170000       12.0110           0
     28105 WT12     593      MECN     H11      HGA3     0.090000        1.0080           0
     28106 WT12     593      MECN     H12      HGA3     0.090000        1.0080           0
     28107 WT12     593      MECN     H13      HGA3     0.090000        1.0080           0
     28108 WT12     593      MECN     C2       CG1N1    0.360000       12.0110           0
     28109 WT12     593      MECN     N3       NG1T1   -0.460000       14.0070           0
     28110 WT12     595      MECN     C1       CG331   -0.170000       12.0110           0
     28111 WT12     595      MECN     H11      HGA3     0.090000        1.0080           0
     28112 WT12     595      MECN     H12      HGA3     0.090000        1.0080           0
     28113 WT12     595      MECN     H13      HGA3     0.090000        1.0080           0
     28114 WT12     595      MECN     C2       CG1N1    0.360000       12.0110           0
     28115 WT12     595      MECN     N3       NG1T1   -0.460000       14.0070           0
     28116 WT12     598      MECN     C1       CG331   -0.170000       12.0110           0
     28117 WT12     598      MECN     H11      HGA3     0.090000        1.0080           0
     28118 WT12     598      MECN     H12      HGA3     0.090000        1.0080           0
     28119 WT12     598      MECN     H13      HGA3     0.090000        1.0080           0
     28120 WT12     598      MECN     C2       CG1N1    0.360000       12.0110           0
     28121 WT12     598      MECN     N3       NG1T1   -0.460000       14.0070           0
     28122 WT12     607      MECN     C1       CG331   -0.170000       12.0110           0
     28123 WT12     607      MECN     H11      HGA3     0.090000        1.0080           0
     28124 WT12     607      MECN     H12      HGA3     0.090000        1.0080           0
     28125 WT12     607      MECN     H13      HGA3     0.090000        1.0080           0
     28126 WT12     607      MECN     C2       CG1N1    0.360000       12.0110           0
     28127 WT12     607      MECN     N3       NG1T1   -0.460000       14.0070           0
     28128 WT12     612      MECN     C1       CG331   -0.170000       12.0110           0
     28129 WT12     612      MECN     H11      HGA3     0.090000        1.0080           0
     28130 WT12     612      MECN     H12      HGA3     0.090000        1.0080           0
     28131 WT12     612      MECN     H13      HGA3     0.090000        1.0080           0
     28132 WT12     612      MECN     C2       CG1N1    0.360000       12.0110           0
     28133 WT12     612      MECN     N3       NG1T1   -0.460000       14.0070           0
     28134 WT12     613      MECN     C1       CG331   -0.170000       12.0110           0
     28135 WT12     613      MECN     H11      HGA3     0.090000        1.0080           0
     28136 WT12     613      MECN     H12      HGA3     0.090000        1.0080           0
     28137 WT12     613      MECN     H13      HGA3     0.090000        1.0080           0
     28138 WT12     613      MECN     C2       CG1N1    0.360000       12.0110           0
     28139 WT12     613      MECN     N3       NG1T1   -0.460000       14.0070           0
     28140 WT12     623      MECN     C1       CG331   -0.170000       12.0110           0
     28141 WT12     623      MECN     H11      HGA3     0.090000        1.0080           0
     28142 WT12     623      MECN     H12      HGA3     0.090000        1.0080           0
     28143 WT12     623      MECN     H13      HGA3     0.090000        1.0080           0
     28144 WT12     623      MECN     C2       CG1N1    0.360000       12.0110           0
     28145 WT12     623      MECN     N3       NG1T1   -0.460000       14.0070           0
     28146 WT12     624      MECN     C1       CG331   -0.170000       12.0110           0
     28147 WT12     624      MECN     H11      HGA3     0.090000        1.0080           0
     28148 WT12     624      MECN     H12      HGA3     0.090000        1.0080           0
     28149 WT12     624      MECN     H13      HGA3     0.090000        1.0080           0
     28150 WT12     624      MECN     C2       CG1N1    0.360000       12.0110           0
     28151 WT12     624      MECN     N3       NG1T1   -0.460000       14.0070           0
     28152 WT12     632      MECN     C1       CG331   -0.170000       12.0110           0
     28153 WT12     632      MECN     H11      HGA3     0.090000        1.0080           0
     28154 WT12     632      MECN     H12      HGA3     0.090000        1.0080           0
     28155 WT12     632      MECN     H13      HGA3     0.090000        1.0080           0
     28156 WT12     632      MECN     C2       CG1N1    0.360000       12.0110           0
     28157 WT12     632      MECN     N3       NG1T1   -0.460000       14.0070           0
     28158 WT12     637      MECN     C1       CG331   -0.170000       12.0110           0
     28159 WT12     637      MECN     H11      HGA3     0.090000        1.0080           0
     28160 WT12     637      MECN     H12      HGA3     0.090000        1.0080           0
     28161 WT12     637      MECN     H13      HGA3     0.090000        1.0080           0
     28162 WT12     637      MECN     C2       CG1N1    0.360000       12.0110           0
     28163 WT12     637      MECN     N3       NG1T1   -0.460000       14.0070           0
     28164 WT12     638      MECN     C1       CG331   -0.170000       12.0110           0
     28165 WT12     638      MECN     H11      HGA3     0.090000        1.0080           0
     28166 WT12     638      MECN     H12      HGA3     0.090000        1.0080           0
     28167 WT12     638      MECN     H13      HGA3     0.090000        1.0080           0
     28168 WT12     638      MECN     C2       CG1N1    0.360000       12.0110           0
     28169 WT12     638      MECN     N3       NG1T1   -0.460000       14.0070           0
     28170 WT12     642      MECN     C1       CG331   -0.170000       12.0110           0
     28171 WT12     642      MECN     H11      HGA3     0.090000        1.0080           0
     28172 WT12     642      MECN     H12      HGA3     0.090000        1.0080           0
     28173 WT12     642      MECN     H13      HGA3     0.090000        1.0080           0
     28174 WT12     642      MECN     C2       CG1N1    0.360000       12.0110           0
     28175 WT12     642      MECN     N3       NG1T1   -0.460000       14.0070           0
     28176 WT12     647      MECN     C1       CG331   -0.170000       12.0110           0
     28177 WT12     647      MECN     H11      HGA3     0.090000        1.0080           0
     28178 WT12     647      MECN     H12      HGA3     0.090000        1.0080           0
     28179 WT12     647      MECN     H13      HGA3     0.090000        1.0080           0
     28180 WT12     647      MECN     C2       CG1N1    0.360000       12.0110           0
     28181 WT12     647      MECN     N3       NG1T1   -0.460000       14.0070           0
     28182 WT12     650      MECN     C1       CG331   -0.170000       12.0110           0
     28183 WT12     650      MECN     H11      HGA3     0.090000        1.0080           0
     28184 WT12     650      MECN     H12      HGA3     0.090000        1.0080           0
     28185 WT12     650      MECN     H13      HGA3     0.090000        1.0080           0
     28186 WT12     650      MECN     C2       CG1N1    0.360000       12.0110           0
     28187 WT12     650      MECN     N3       NG1T1   -0.460000       14.0070           0
     28188 WT12     652      MECN     C1       CG331   -0.170000       12.0110           0
     28189 WT12     652      MECN     H11      HGA3     0.090000        1.0080           0
     28190 WT12     652      MECN     H12      HGA3     0.090000        1.0080           0
     28191 WT12     652      MECN     H13      HGA3     0.090000        1.0080           0
     28192 WT12     652      MECN     C2       CG1N1    0.360000       12.0110           0
     28193 WT12     652      MECN     N3       NG1T1   -0.460000       14.0070           0
     28194 WT12     653      MECN     C1       CG331   -0.170000       12.0110           0
     28195 WT12     653      MECN     H11      HGA3     0.090000        1.0080           0
     28196 WT12     653      MECN     H12      HGA3     0.090000        1.0080           0
     28197 WT12     653      MECN     H13      HGA3     0.090000        1.0080           0
     28198 WT12     653      MECN     C2       CG1N1    0.360000       12.0110           0
     28199 WT12     653      MECN     N3       NG1T1   -0.460000       14.0070           0
     28200 WT12     658      MECN     C1       CG331   -0.170000       12.0110           0
     28201 WT12     658      MECN     H11      HGA3     0.090000        1.0080           0
     28202 WT12     658      MECN     H12      HGA3     0.090000        1.0080           0
     28203 WT12     658      MECN     H13      HGA3     0.090000        1.0080           0
     28204 WT12     658      MECN     C2       CG1N1    0.360000       12.0110           0
     28205 WT12     658      MECN     N3       NG1T1   -0.460000       14.0070           0
     28206 WT12     659      MECN     C1       CG331   -0.170000       12.0110           0
     28207 WT12     659      MECN     H11      HGA3     0.090000        1.0080           0
     28208 WT12     659      MECN     H12      HGA3     0.090000        1.0080           0
     28209 WT12     659      MECN     H13      HGA3     0.090000        1.0080           0
     28210 WT12     659      MECN     C2       CG1N1    0.360000       12.0110           0
     28211 WT12     659      MECN     N3       NG1T1   -0.460000       14.0070           0
     28212 WT12     663      MECN     C1       CG331   -0.170000       12.0110           0
     28213 WT12     663      MECN     H11      HGA3     0.090000        1.0080           0
     28214 WT12     663      MECN     H12      HGA3     0.090000        1.0080           0
     28215 WT12     663      MECN     H13      HGA3     0.090000        1.0080           0
     28216 WT12     663      MECN     C2       CG1N1    0.360000       12.0110           0
     28217 WT12     663      MECN     N3       NG1T1   -0.460000       14.0070           0
     28218 WT12     670      MECN     C1       CG331   -0.170000       12.0110           0
     28219 WT12     670      MECN     H11      HGA3     0.090000        1.0080           0
     28220 WT12     670      MECN     H12      HGA3     0.090000        1.0080           0
     28221 WT12     670      MECN     H13      HGA3     0.090000        1.0080           0
     28222 WT12     670      MECN     C2       CG1N1    0.360000       12.0110           0
     28223 WT12     670      MECN     N3       NG1T1   -0.460000       14.0070           0
     28224 WT12     679      MECN     C1       CG331   -0.170000       12.0110           0
     28225 WT12     679      MECN     H11      HGA3     0.090000        1.0080           0
     28226 WT12     679      MECN     H12      HGA3     0.090000        1.0080           0
     28227 WT12     679      MECN     H13      HGA3     0.090000        1.0080           0
     28228 WT12     679      MECN     C2       CG1N1    0.360000       12.0110           0
     28229 WT12     679      MECN     N3       NG1T1   -0.460000       14.0070           0
     28230 WT12     680      MECN     C1       CG331   -0.170000       12.0110           0
     28231 WT12     680      MECN     H11      HGA3     0.090000        1.0080           0
     28232 WT12     680      MECN     H12      HGA3     0.090000        1.0080           0
     28233 WT12     680      MECN     H13      HGA3     0.090000        1.0080           0
     28234 WT12     680      MECN     C2       CG1N1    0.360000       12.0110           0
     28235 WT12     680      MECN     N3       NG1T1   -0.460000       14.0070           0
     28236 WT12     682      MECN     C1       CG331   -0.170000       12.0110           0
     28237 WT12     682      MECN     H11      HGA3     0.090000        1.0080           0
     28238 WT12     682      MECN     H12      HGA3     0.090000        1.0080           0
     28239 WT12     682      MECN     H13      HGA3     0.090000        1.0080           0
     28240 WT12     682      MECN     C2       CG1N1    0.360000       12.0110           0
     28241 WT12     682      MECN     N3       NG1T1   -0.460000       14.0070           0
     28242 WT12     684      MECN     C1       CG331   -0.170000       12.0110           0
     28243 WT12     684      MECN     H11      HGA3     0.090000        1.0080           0
     28244 WT12     684      MECN     H12      HGA3     0.090000        1.0080           0
     28245 WT12     684      MECN     H13      HGA3     0.090000        1.0080           0
     28246 WT12     684      MECN     C2       CG1N1    0.360000       12.0110           0
     28247 WT12     684      MECN     N3       NG1T1   -0.460000       14.0070           0
     28248 WT12     686      MECN     C1       CG331   -0.170000       12.0110           0
     28249 WT12     686      MECN     H11      HGA3     0.090000        1.0080           0
     28250 WT12     686      MECN     H12      HGA3     0.090000        1.0080           0
     28251 WT12     686      MECN     H13      HGA3     0.090000        1.0080           0
     28252 WT12     686      MECN     C2       CG1N1    0.360000       12.0110           0
     28253 WT12     686      MECN     N3       NG1T1   -0.460000       14.0070           0
     28254 WT12     688      MECN     C1       CG331   -0.170000       12.0110           0
     28255 WT12     688      MECN     H11      HGA3     0.090000        1.0080           0
     28256 WT12     688      MECN     H12      HGA3     0.090000        1.0080           0
     28257 WT12     688      MECN     H13      HGA3     0.090000        1.0080           0
     28258 WT12     688      MECN     C2       CG1N1    0.360000       12.0110           0
     28259 WT12     688      MECN     N3       NG1T1   -0.460000       14.0070           0
     28260 WT12     689      MECN     C1       CG331   -0.170000       12.0110           0
     28261 WT12     689      MECN     H11      HGA3     0.090000        1.0080           0
     28262 WT12     689      MECN     H12      HGA3     0.090000        1.0080           0
     28263 WT12     689      MECN     H13      HGA3     0.090000        1.0080           0
     28264 WT12     689      MECN     C2       CG1N1    0.360000       12.0110           0
     28265 WT12     689      MECN     N3       NG1T1   -0.460000       14.0070           0
     28266 WT12     692      MECN     C1       CG331   -0.170000       12.0110           0
     28267 WT12     692      MECN     H11      HGA3     0.090000        1.0080           0
     28268 WT12     692      MECN     H12      HGA3     0.090000        1.0080           0
     28269 WT12     692      MECN     H13      HGA3     0.090000        1.0080           0
     28270 WT12     692      MECN     C2       CG1N1    0.360000       12.0110           0
     28271 WT12     692      MECN     N3       NG1T1   -0.460000       14.0070           0
     28272 WT12     696      MECN     C1       CG331   -0.170000       12.0110           0
     28273 WT12     696      MECN     H11      HGA3     0.090000        1.0080           0
     28274 WT12     696      MECN     H12      HGA3     0.090000        1.0080           0
     28275 WT12     696      MECN     H13      HGA3     0.090000        1.0080           0
     28276 WT12     696      MECN     C2       CG1N1    0.360000       12.0110           0
     28277 WT12     696      MECN     N3       NG1T1   -0.460000       14.0070           0
     28278 WT12     701      MECN     C1       CG331   -0.170000       12.0110           0
     28279 WT12     701      MECN     H11      HGA3     0.090000        1.0080           0
     28280 WT12     701      MECN     H12      HGA3     0.090000        1.0080           0
     28281 WT12     701      MECN     H13      HGA3     0.090000        1.0080           0
     28282 WT12     701      MECN     C2       CG1N1    0.360000       12.0110           0
     28283 WT12     701      MECN     N3       NG1T1   -0.460000       14.0070           0
     28284 WT12     705      MECN     C1       CG331   -0.170000       12.0110           0
     28285 WT12     705      MECN     H11      HGA3     0.090000        1.0080           0
     28286 WT12     705      MECN     H12      HGA3     0.090000        1.0080           0
     28287 WT12     705      MECN     H13      HGA3     0.090000        1.0080           0
     28288 WT12     705      MECN     C2       CG1N1    0.360000       12.0110           0
     28289 WT12     705      MECN     N3       NG1T1   -0.460000       14.0070           0
     28290 WT12     706      MECN     C1       CG331   -0.170000       12.0110           0
     28291 WT12     706      MECN     H11      HGA3     0.090000        1.0080           0
     28292 WT12     706      MECN     H12      HGA3     0.090000        1.0080           0
     28293 WT12     706      MECN     H13      HGA3     0.090000        1.0080           0
     28294 WT12     706      MECN     C2       CG1N1    0.360000       12.0110           0
     28295 WT12     706      MECN     N3       NG1T1   -0.460000       14.0070           0
     28296 WT12     708      MECN     C1       CG331   -0.170000       12.0110           0
     28297 WT12     708      MECN     H11      HGA3     0.090000        1.0080           0
     28298 WT12     708      MECN     H12      HGA3     0.090000        1.0080           0
     28299 WT12     708      MECN     H13      HGA3     0.090000        1.0080           0
     28300 WT12     708      MECN     C2       CG1N1    0.360000       12.0110           0
     28301 WT12     708      MECN     N3       NG1T1   -0.460000       14.0070           0
     28302 WT12     712      MECN     C1       CG331   -0.170000       12.0110           0
     28303 WT12     712      MECN     H11      HGA3     0.090000        1.0080           0
     28304 WT12     712      MECN     H12      HGA3     0.090000        1.0080           0
     28305 WT12     712      MECN     H13      HGA3     0.090000        1.0080           0
     28306 WT12     712      MECN     C2       CG1N1    0.360000       12.0110           0
     28307 WT12     712      MECN     N3       NG1T1   -0.460000       14.0070           0
     28308 WT12     715      MECN     C1       CG331   -0.170000       12.0110           0
     28309 WT12     715      MECN     H11      HGA3     0.090000        1.0080           0
     28310 WT12     715      MECN     H12      HGA3     0.090000        1.0080           0
     28311 WT12     715      MECN     H13      HGA3     0.090000        1.0080           0
     28312 WT12     715      MECN     C2       CG1N1    0.360000       12.0110           0
     28313 WT12     715      MECN     N3       NG1T1   -0.460000       14.0070           0
     28314 WT12     717      MECN     C1       CG331   -0.170000       12.0110           0
     28315 WT12     717      MECN     H11      HGA3     0.090000        1.0080           0
     28316 WT12     717      MECN     H12      HGA3     0.090000        1.0080           0
     28317 WT12     717      MECN     H13      HGA3     0.090000        1.0080           0
     28318 WT12     717      MECN     C2       CG1N1    0.360000       12.0110           0
     28319 WT12     717      MECN     N3       NG1T1   -0.460000       14.0070           0
     28320 WT12     726      MECN     C1       CG331   -0.170000       12.0110           0
     28321 WT12     726      MECN     H11      HGA3     0.090000        1.0080           0
     28322 WT12     726      MECN     H12      HGA3     0.090000        1.0080           0
     28323 WT12     726      MECN     H13      HGA3     0.090000        1.0080           0
     28324 WT12     726      MECN     C2       CG1N1    0.360000       12.0110           0
     28325 WT12     726      MECN     N3       NG1T1   -0.460000       14.0070           0
     28326 WT12     728      MECN     C1       CG331   -0.170000       12.0110           0
     28327 WT12     728      MECN     H11      HGA3     0.090000        1.0080           0
     28328 WT12     728      MECN     H12      HGA3     0.090000        1.0080           0
     28329 WT12     728      MECN     H13      HGA3     0.090000        1.0080           0
     28330 WT12     728      MECN     C2       CG1N1    0.360000       12.0110           0
     28331 WT12     728      MECN     N3       NG1T1   -0.460000       14.0070           0
     28332 WT12     729      MECN     C1       CG331   -0.170000       12.0110           0
     28333 WT12     729      MECN     H11      HGA3     0.090000        1.0080           0
     28334 WT12     729      MECN     H12      HGA3     0.090000        1.0080           0
     28335 WT12     729      MECN     H13      HGA3     0.090000        1.0080           0
     28336 WT12     729      MECN     C2       CG1N1    0.360000       12.0110           0
     28337 WT12     729      MECN     N3       NG1T1   -0.460000       14.0070           0
     28338 WT12     731      MECN     C1       CG331   -0.170000       12.0110           0
     28339 WT12     731      MECN     H11      HGA3     0.090000        1.0080           0
     28340 WT12     731      MECN     H12      HGA3     0.090000        1.0080           0
     28341 WT12     731      MECN     H13      HGA3     0.090000        1.0080           0
     28342 WT12     731      MECN     C2       CG1N1    0.360000       12.0110           0
     28343 WT12     731      MECN     N3       NG1T1   -0.460000       14.0070           0
     28344 WT12     733      MECN     C1       CG331   -0.170000       12.0110           0
     28345 WT12     733      MECN     H11      HGA3     0.090000        1.0080           0
     28346 WT12     733      MECN     H12      HGA3     0.090000        1.0080           0
     28347 WT12     733      MECN     H13      HGA3     0.090000        1.0080           0
     28348 WT12     733      MECN     C2       CG1N1    0.360000       12.0110           0
     28349 WT12     733      MECN     N3       NG1T1   -0.460000       14.0070           0
     28350 WT12     734      MECN     C1       CG331   -0.170000       12.0110           0
     28351 WT12     734      MECN     H11      HGA3     0.090000        1.0080           0
     28352 WT12     734      MECN     H12      HGA3     0.090000        1.0080           0
     28353 WT12     734      MECN     H13      HGA3     0.090000        1.0080           0
     28354 WT12     734      MECN     C2       CG1N1    0.360000       12.0110           0
     28355 WT12     734      MECN     N3       NG1T1   -0.460000       14.0070           0
     28356 WT12     737      MECN     C1       CG331   -0.170000       12.0110           0
     28357 WT12     737      MECN     H11      HGA3     0.090000        1.0080           0
     28358 WT12     737      MECN     H12      HGA3     0.090000        1.0080           0
     28359 WT12     737      MECN     H13      HGA3     0.090000        1.0080           0
     28360 WT12     737      MECN     C2       CG1N1    0.360000       12.0110           0
     28361 WT12     737      MECN     N3       NG1T1   -0.460000       14.0070           0
     28362 WT12     741      MECN     C1       CG331   -0.170000       12.0110           0
     28363 WT12     741      MECN     H11      HGA3     0.090000        1.0080           0
     28364 WT12     741      MECN     H12      HGA3     0.090000        1.0080           0
     28365 WT12     741      MECN     H13      HGA3     0.090000        1.0080           0
     28366 WT12     741      MECN     C2       CG1N1    0.360000       12.0110           0
     28367 WT12     741      MECN     N3       NG1T1   -0.460000       14.0070           0
     28368 WT12     743      MECN     C1       CG331   -0.170000       12.0110           0
     28369 WT12     743      MECN     H11      HGA3     0.090000        1.0080           0
     28370 WT12     743      MECN     H12      HGA3     0.090000        1.0080           0
     28371 WT12     743      MECN     H13      HGA3     0.090000        1.0080           0
     28372 WT12     743      MECN     C2       CG1N1    0.360000       12.0110           0
     28373 WT12     743      MECN     N3       NG1T1   -0.460000       14.0070           0
     28374 WT12     744      MECN     C1       CG331   -0.170000       12.0110           0
     28375 WT12     744      MECN     H11      HGA3     0.090000        1.0080           0
     28376 WT12     744      MECN     H12      HGA3     0.090000        1.0080           0
     28377 WT12     744      MECN     H13      HGA3     0.090000        1.0080           0
     28378 WT12     744      MECN     C2       CG1N1    0.360000       12.0110           0
     28379 WT12     744      MECN     N3       NG1T1   -0.460000       14.0070           0
     28380 WT12     747      MECN     C1       CG331   -0.170000       12.0110           0
     28381 WT12     747      MECN     H11      HGA3     0.090000        1.0080           0
     28382 WT12     747      MECN     H12      HGA3     0.090000        1.0080           0
     28383 WT12     747      MECN     H13      HGA3     0.090000        1.0080           0
     28384 WT12     747      MECN     C2       CG1N1    0.360000       12.0110           0
     28385 WT12     747      MECN     N3       NG1T1   -0.460000       14.0070           0
     28386 WT12     749      MECN     C1       CG331   -0.170000       12.0110           0
     28387 WT12     749      MECN     H11      HGA3     0.090000        1.0080           0
     28388 WT12     749      MECN     H12      HGA3     0.090000        1.0080           0
     28389 WT12     749      MECN     H13      HGA3     0.090000        1.0080           0
     28390 WT12     749      MECN     C2       CG1N1    0.360000       12.0110           0
     28391 WT12     749      MECN     N3       NG1T1   -0.460000       14.0070           0
     28392 WT12     750      MECN     C1       CG331   -0.170000       12.0110           0
     28393 WT12     750      MECN     H11      HGA3     0.090000        1.0080           0
     28394 WT12     750      MECN     H12      HGA3     0.090000        1.0080           0
     28395 WT12     750      MECN     H13      HGA3     0.090000        1.0080           0
     28396 WT12     750      MECN     C2       CG1N1    0.360000       12.0110           0
     28397 WT12     750      MECN     N3       NG1T1   -0.460000       14.0070           0
     28398 WT12     752      MECN     C1       CG331   -0.170000       12.0110           0
     28399 WT12     752      MECN     H11      HGA3     0.090000        1.0080           0
     28400 WT12     752      MECN     H12      HGA3     0.090000        1.0080           0
     28401 WT12     752      MECN     H13      HGA3     0.090000        1.0080           0
     28402 WT12     752      MECN     C2       CG1N1    0.360000       12.0110           0
     28403 WT12     752      MECN     N3       NG1T1   -0.460000       14.0070           0
     28404 WT12     754      MECN     C1       CG331   -0.170000       12.0110           0
     28405 WT12     754      MECN     H11      HGA3     0.090000        1.0080           0
     28406 WT12     754      MECN     H12      HGA3     0.090000        1.0080           0
     28407 WT12     754      MECN     H13      HGA3     0.090000        1.0080           0
     28408 WT12     754      MECN     C2       CG1N1    0.360000       12.0110           0
     28409 WT12     754      MECN     N3       NG1T1   -0.460000       14.0070           0
     28410 WT12     755      MECN     C1       CG331   -0.170000       12.0110           0
     28411 WT12     755      MECN     H11      HGA3     0.090000        1.0080           0
     28412 WT12     755      MECN     H12      HGA3     0.090000        1.0080           0
     28413 WT12     755      MECN     H13      HGA3     0.090000        1.0080           0
     28414 WT12     755      MECN     C2       CG1N1    0.360000       12.0110           0
     28415 WT12     755      MECN     N3       NG1T1   -0.460000       14.0070           0
     28416 WT12     756      MECN     C1       CG331   -0.170000       12.0110           0
     28417 WT12     756      MECN     H11      HGA3     0.090000        1.0080           0
     28418 WT12     756      MECN     H12      HGA3     0.090000        1.0080           0
     28419 WT12     756      MECN     H13      HGA3     0.090000        1.0080           0
     28420 WT12     756      MECN     C2       CG1N1    0.360000       12.0110           0
     28421 WT12     756      MECN     N3       NG1T1   -0.460000       14.0070           0
     28422 WT12     757      MECN     C1       CG331   -0.170000       12.0110           0
     28423 WT12     757      MECN     H11      HGA3     0.090000        1.0080           0
     28424 WT12     757      MECN     H12      HGA3     0.090000        1.0080           0
     28425 WT12     757      MECN     H13      HGA3     0.090000        1.0080           0
     28426 WT12     757      MECN     C2       CG1N1    0.360000       12.0110           0
     28427 WT12     757      MECN     N3       NG1T1   -0.460000       14.0070           0
     28428 WT12     761      MECN     C1       CG331   -0.170000       12.0110           0
     28429 WT12     761      MECN     H11      HGA3     0.090000        1.0080           0
     28430 WT12     761      MECN     H12      HGA3     0.090000        1.0080           0
     28431 WT12     761      MECN     H13      HGA3     0.090000        1.0080           0
     28432 WT12     761      MECN     C2       CG1N1    0.360000       12.0110           0
     28433 WT12     761      MECN     N3       NG1T1   -0.460000       14.0070           0
     28434 WT12     762      MECN     C1       CG331   -0.170000       12.0110           0
     28435 WT12     762      MECN     H11      HGA3     0.090000        1.0080           0
     28436 WT12     762      MECN     H12      HGA3     0.090000        1.0080           0
     28437 WT12     762      MECN     H13      HGA3     0.090000        1.0080           0
     28438 WT12     762      MECN     C2       CG1N1    0.360000       12.0110           0
     28439 WT12     762      MECN     N3       NG1T1   -0.460000       14.0070           0
     28440 WT12     763      MECN     C1       CG331   -0.170000       12.0110           0
     28441 WT12     763      MECN     H11      HGA3     0.090000        1.0080           0
     28442 WT12     763      MECN     H12      HGA3     0.090000        1.0080           0
     28443 WT12     763      MECN     H13      HGA3     0.090000        1.0080           0
     28444 WT12     763      MECN     C2       CG1N1    0.360000       12.0110           0
     28445 WT12     763      MECN     N3       NG1T1   -0.460000       14.0070           0
     28446 WT12     775      MECN     C1       CG331   -0.170000       12.0110           0
     28447 WT12     775      MECN     H11      HGA3     0.090000        1.0080           0
     28448 WT12     775      MECN     H12      HGA3     0.090000        1.0080           0
     28449 WT12     775      MECN     H13      HGA3     0.090000        1.0080           0
     28450 WT12     775      MECN     C2       CG1N1    0.360000       12.0110           0
     28451 WT12     775      MECN     N3       NG1T1   -0.460000       14.0070           0
     28452 WT12     777      MECN     C1       CG331   -0.170000       12.0110           0
     28453 WT12     777      MECN     H11      HGA3     0.090000        1.0080           0
     28454 WT12     777      MECN     H12      HGA3     0.090000        1.0080           0
     28455 WT12     777      MECN     H13      HGA3     0.090000        1.0080           0
     28456 WT12     777      MECN     C2       CG1N1    0.360000       12.0110           0
     28457 WT12     777      MECN     N3       NG1T1   -0.460000       14.0070           0
     28458 WT12     780      MECN     C1       CG331   -0.170000       12.0110           0
     28459 WT12     780      MECN     H11      HGA3     0.090000        1.0080           0
     28460 WT12     780      MECN     H12      HGA3     0.090000        1.0080           0
     28461 WT12     780      MECN     H13      HGA3     0.090000        1.0080           0
     28462 WT12     780      MECN     C2       CG1N1    0.360000       12.0110           0
     28463 WT12     780      MECN     N3       NG1T1   -0.460000       14.0070           0
     28464 WT12     782      MECN     C1       CG331   -0.170000       12.0110           0
     28465 WT12     782      MECN     H11      HGA3     0.090000        1.0080           0
     28466 WT12     782      MECN     H12      HGA3     0.090000        1.0080           0
     28467 WT12     782      MECN     H13      HGA3     0.090000        1.0080           0
     28468 WT12     782      MECN     C2       CG1N1    0.360000       12.0110           0
     28469 WT12     782      MECN     N3       NG1T1   -0.460000       14.0070           0
     28470 WT12     787      MECN     C1       CG331   -0.170000       12.0110           0
     28471 WT12     787      MECN     H11      HGA3     0.090000        1.0080           0
     28472 WT12     787      MECN     H12      HGA3     0.090000        1.0080           0
     28473 WT12     787      MECN     H13      HGA3     0.090000        1.0080           0
     28474 WT12     787      MECN     C2       CG1N1    0.360000       12.0110           0
     28475 WT12     787      MECN     N3       NG1T1   -0.460000       14.0070           0
     28476 WT12     789      MECN     C1       CG331   -0.170000       12.0110           0
     28477 WT12     789      MECN     H11      HGA3     0.090000        1.0080           0
     28478 WT12     789      MECN     H12      HGA3     0.090000        1.0080           0
     28479 WT12     789      MECN     H13      HGA3     0.090000        1.0080           0
     28480 WT12     789      MECN     C2       CG1N1    0.360000       12.0110           0
     28481 WT12     789      MECN     N3       NG1T1   -0.460000       14.0070           0
     28482 WT12     795      MECN     C1       CG331   -0.170000       12.0110           0
     28483 WT12     795      MECN     H11      HGA3     0.090000        1.0080           0
     28484 WT12     795      MECN     H12      HGA3     0.090000        1.0080           0
     28485 WT12     795      MECN     H13      HGA3     0.090000        1.0080           0
     28486 WT12     795      MECN     C2       CG1N1    0.360000       12.0110           0
     28487 WT12     795      MECN     N3       NG1T1   -0.460000       14.0070           0
     28488 WT12     800      MECN     C1       CG331   -0.170000       12.0110           0
     28489 WT12     800      MECN     H11      HGA3     0.090000        1.0080           0
     28490 WT12     800      MECN     H12      HGA3     0.090000        1.0080           0
     28491 WT12     800      MECN     H13      HGA3     0.090000        1.0080           0
     28492 WT12     800      MECN     C2       CG1N1    0.360000       12.0110           0
     28493 WT12     800      MECN     N3       NG1T1   -0.460000       14.0070           0
     28494 WT12     801      MECN     C1       CG331   -0.170000       12.0110           0
     28495 WT12     801      MECN     H11      HGA3     0.090000        1.0080           0
     28496 WT12     801      MECN     H12      HGA3     0.090000        1.0080           0
     28497 WT12     801      MECN     H13      HGA3     0.090000        1.0080           0
     28498 WT12     801      MECN     C2       CG1N1    0.360000       12.0110           0
     28499 WT12     801      MECN     N3       NG1T1   -0.460000       14.0070           0
     28500 WT12     803      MECN     C1       CG331   -0.170000       12.0110           0
     28501 WT12     803      MECN     H11      HGA3     0.090000        1.0080           0
     28502 WT12     803      MECN     H12      HGA3     0.090000        1.0080           0
     28503 WT12     803      MECN     H13      HGA3     0.090000        1.0080           0
     28504 WT12     803      MECN     C2       CG1N1    0.360000       12.0110           0
     28505 WT12     803      MECN     N3       NG1T1   -0.460000       14.0070           0
     28506 WT12     805      MECN     C1       CG331   -0.170000       12.0110           0
     28507 WT12     805      MECN     H11      HGA3     0.090000        1.0080           0
     28508 WT12     805      MECN     H12      HGA3     0.090000        1.0080           0
     28509 WT12     805      MECN     H13      HGA3     0.090000        1.0080           0
     28510 WT12     805      MECN     C2       CG1N1    0.360000       12.0110           0
     28511 WT12     805      MECN     N3       NG1T1   -0.460000       14.0070           0
     28512 WT12     810      MECN     C1       CG331   -0.170000       12.0110           0
     28513 WT12     810      MECN     H11      HGA3     0.090000        1.0080           0
     28514 WT12     810      MECN     H12      HGA3     0.090000        1.0080           0
     28515 WT12     810      MECN     H13      HGA3     0.090000        1.0080           0
     28516 WT12     810      MECN     C2       CG1N1    0.360000       12.0110           0
     28517 WT12     810      MECN     N3       NG1T1   -0.460000       14.0070           0
     28518 WT12     814      MECN     C1       CG331   -0.170000       12.0110           0
     28519 WT12     814      MECN     H11      HGA3     0.090000        1.0080           0
     28520 WT12     814      MECN     H12      HGA3     0.090000        1.0080           0
     28521 WT12     814      MECN     H13      HGA3     0.090000        1.0080           0
     28522 WT12     814      MECN     C2       CG1N1    0.360000       12.0110           0
     28523 WT12     814      MECN     N3       NG1T1   -0.460000       14.0070           0
     28524 WT12     818      MECN     C1       CG331   -0.170000       12.0110           0
     28525 WT12     818      MECN     H11      HGA3     0.090000        1.0080           0
     28526 WT12     818      MECN     H12      HGA3     0.090000        1.0080           0
     28527 WT12     818      MECN     H13      HGA3     0.090000        1.0080           0
     28528 WT12     818      MECN     C2       CG1N1    0.360000       12.0110           0
     28529 WT12     818      MECN     N3       NG1T1   -0.460000       14.0070           0
     28530 WT12     822      MECN     C1       CG331   -0.170000       12.0110           0
     28531 WT12     822      MECN     H11      HGA3     0.090000        1.0080           0
     28532 WT12     822      MECN     H12      HGA3     0.090000        1.0080           0
     28533 WT12     822      MECN     H13      HGA3     0.090000        1.0080           0
     28534 WT12     822      MECN     C2       CG1N1    0.360000       12.0110           0
     28535 WT12     822      MECN     N3       NG1T1   -0.460000       14.0070           0
     28536 WT12     829      MECN     C1       CG331   -0.170000       12.0110           0
     28537 WT12     829      MECN     H11      HGA3     0.090000        1.0080           0
     28538 WT12     829      MECN     H12      HGA3     0.090000        1.0080           0
     28539 WT12     829      MECN     H13      HGA3     0.090000        1.0080           0
     28540 WT12     829      MECN     C2       CG1N1    0.360000       12.0110           0
     28541 WT12     829      MECN     N3       NG1T1   -0.460000       14.0070           0
     28542 WT12     831      MECN     C1       CG331   -0.170000       12.0110           0
     28543 WT12     831      MECN     H11      HGA3     0.090000        1.0080           0
     28544 WT12     831      MECN     H12      HGA3     0.090000        1.0080           0
     28545 WT12     831      MECN     H13      HGA3     0.090000        1.0080           0
     28546 WT12     831      MECN     C2       CG1N1    0.360000       12.0110           0
     28547 WT12     831      MECN     N3       NG1T1   -0.460000       14.0070           0
     28548 WT12     836      MECN     C1       CG331   -0.170000       12.0110           0
     28549 WT12     836      MECN     H11      HGA3     0.090000        1.0080           0
     28550 WT12     836      MECN     H12      HGA3     0.090000        1.0080           0
     28551 WT12     836      MECN     H13      HGA3     0.090000        1.0080           0
     28552 WT12     836      MECN     C2       CG1N1    0.360000       12.0110           0
     28553 WT12     836      MECN     N3       NG1T1   -0.460000       14.0070           0
     28554 WT12     838      MECN     C1       CG331   -0.170000       12.0110           0
     28555 WT12     838      MECN     H11      HGA3     0.090000        1.0080           0
     28556 WT12     838      MECN     H12      HGA3     0.090000        1.0080           0
     28557 WT12     838      MECN     H13      HGA3     0.090000        1.0080           0
     28558 WT12     838      MECN     C2       CG1N1    0.360000       12.0110           0
     28559 WT12     838      MECN     N3       NG1T1   -0.460000       14.0070           0
     28560 WT12     839      MECN     C1       CG331   -0.170000       12.0110           0
     28561 WT12     839      MECN     H11      HGA3     0.090000        1.0080           0
     28562 WT12     839      MECN     H12      HGA3     0.090000        1.0080           0
     28563 WT12     839      MECN     H13      HGA3     0.090000        1.0080           0
     28564 WT12     839      MECN     C2       CG1N1    0.360000       12.0110           0
     28565 WT12     839      MECN     N3       NG1T1   -0.460000       14.0070           0
     28566 WT12     842      MECN     C1       CG331   -0.170000       12.0110           0
     28567 WT12     842      MECN     H11      HGA3     0.090000        1.0080           0
     28568 WT12     842      MECN     H12      HGA3     0.090000        1.0080           0
     28569 WT12     842      MECN     H13      HGA3     0.090000        1.0080           0
     28570 WT12     842      MECN     C2       CG1N1    0.360000       12.0110           0
     28571 WT12     842      MECN     N3       NG1T1   -0.460000       14.0070           0
     28572 WT12     844      MECN     C1       CG331   -0.170000       12.0110           0
     28573 WT12     844      MECN     H11      HGA3     0.090000        1.0080           0
     28574 WT12     844      MECN     H12      HGA3     0.090000        1.0080           0
     28575 WT12     844      MECN     H13      HGA3     0.090000        1.0080           0
     28576 WT12     844      MECN     C2       CG1N1    0.360000       12.0110           0
     28577 WT12     844      MECN     N3       NG1T1   -0.460000       14.0070           0
     28578 WT12     850      MECN     C1       CG331   -0.170000       12.0110           0
     28579 WT12     850      MECN     H11      HGA3     0.090000        1.0080           0
     28580 WT12     850      MECN     H12      HGA3     0.090000        1.0080           0
     28581 WT12     850      MECN     H13      HGA3     0.090000        1.0080           0
     28582 WT12     850      MECN     C2       CG1N1    0.360000       12.0110           0
     28583 WT12     850      MECN     N3       NG1T1   -0.460000       14.0070           0
     28584 WT12     851      MECN     C1       CG331   -0.170000       12.0110           0
     28585 WT12     851      MECN     H11      HGA3     0.090000        1.0080           0
     28586 WT12     851      MECN     H12      HGA3     0.090000        1.0080           0
     28587 WT12     851      MECN     H13      HGA3     0.090000        1.0080           0
     28588 WT12     851      MECN     C2       CG1N1    0.360000       12.0110           0
     28589 WT12     851      MECN     N3       NG1T1   -0.460000       14.0070           0
     28590 WT12     859      MECN     C1       CG331   -0.170000       12.0110           0
     28591 WT12     859      MECN     H11      HGA3     0.090000        1.0080           0
     28592 WT12     859      MECN     H12      HGA3     0.090000        1.0080           0
     28593 WT12     859      MECN     H13      HGA3     0.090000        1.0080           0
     28594 WT12     859      MECN     C2       CG1N1    0.360000       12.0110           0
     28595 WT12     859      MECN     N3       NG1T1   -0.460000       14.0070           0
     28596 WT12     861      MECN     C1       CG331   -0.170000       12.0110           0
     28597 WT12     861      MECN     H11      HGA3     0.090000        1.0080           0
     28598 WT12     861      MECN     H12      HGA3     0.090000        1.0080           0
     28599 WT12     861      MECN     H13      HGA3     0.090000        1.0080           0
     28600 WT12     861      MECN     C2       CG1N1    0.360000       12.0110           0
     28601 WT12     861      MECN     N3       NG1T1   -0.460000       14.0070           0
     28602 WT12     862      MECN     C1       CG331   -0.170000       12.0110           0
     28603 WT12     862      MECN     H11      HGA3     0.090000        1.0080           0
     28604 WT12     862      MECN     H12      HGA3     0.090000        1.0080           0
     28605 WT12     862      MECN     H13      HGA3     0.090000        1.0080           0
     28606 WT12     862      MECN     C2       CG1N1    0.360000       12.0110           0
     28607 WT12     862      MECN     N3       NG1T1   -0.460000       14.0070           0
     28608 WT12     866      MECN     C1       CG331   -0.170000       12.0110           0
     28609 WT12     866      MECN     H11      HGA3     0.090000        1.0080           0
     28610 WT12     866      MECN     H12      HGA3     0.090000        1.0080           0
     28611 WT12     866      MECN     H13      HGA3     0.090000        1.0080           0
     28612 WT12     866      MECN     C2       CG1N1    0.360000       12.0110           0
     28613 WT12     866      MECN     N3       NG1T1   -0.460000       14.0070           0
     28614 WT12     867      MECN     C1       CG331   -0.170000       12.0110           0
     28615 WT12     867      MECN     H11      HGA3     0.090000        1.0080           0
     28616 WT12     867      MECN     H12      HGA3     0.090000        1.0080           0
     28617 WT12     867      MECN     H13      HGA3     0.090000        1.0080           0
     28618 WT12     867      MECN     C2       CG1N1    0.360000       12.0110           0
     28619 WT12     867      MECN     N3       NG1T1   -0.460000       14.0070           0
     28620 WT12     868      MECN     C1       CG331   -0.170000       12.0110           0
     28621 WT12     868      MECN     H11      HGA3     0.090000        1.0080           0
     28622 WT12     868      MECN     H12      HGA3     0.090000        1.0080           0
     28623 WT12     868      MECN     H13      HGA3     0.090000        1.0080           0
     28624 WT12     868      MECN     C2       CG1N1    0.360000       12.0110           0
     28625 WT12     868      MECN     N3       NG1T1   -0.460000       14.0070           0
     28626 WT12     871      MECN     C1       CG331   -0.170000       12.0110           0
     28627 WT12     871      MECN     H11      HGA3     0.090000        1.0080           0
     28628 WT12     871      MECN     H12      HGA3     0.090000        1.0080           0
     28629 WT12     871      MECN     H13      HGA3     0.090000        1.0080           0
     28630 WT12     871      MECN     C2       CG1N1    0.360000       12.0110           0
     28631 WT12     871      MECN     N3       NG1T1   -0.460000       14.0070           0
     28632 WT12     873      MECN     C1       CG331   -0.170000       12.0110           0
     28633 WT12     873      MECN     H11      HGA3     0.090000        1.0080           0
     28634 WT12     873      MECN     H12      HGA3     0.090000        1.0080           0
     28635 WT12     873      MECN     H13      HGA3     0.090000        1.0080           0
     28636 WT12     873      MECN     C2       CG1N1    0.360000       12.0110           0
     28637 WT12     873      MECN     N3       NG1T1   -0.460000       14.0070           0
     28638 WT12     879      MECN     C1       CG331   -0.170000       12.0110           0
     28639 WT12     879      MECN     H11      HGA3     0.090000        1.0080           0
     28640 WT12     879      MECN     H12      HGA3     0.090000        1.0080           0
     28641 WT12     879      MECN     H13      HGA3     0.090000        1.0080           0
     28642 WT12     879      MECN     C2       CG1N1    0.360000       12.0110           0
     28643 WT12     879      MECN     N3       NG1T1   -0.460000       14.0070           0
     28644 WT12     880      MECN     C1       CG331   -0.170000       12.0110           0
     28645 WT12     880      MECN     H11      HGA3     0.090000        1.0080           0
     28646 WT12     880      MECN     H12      HGA3     0.090000        1.0080           0
     28647 WT12     880      MECN     H13      HGA3     0.090000        1.0080           0
     28648 WT12     880      MECN     C2       CG1N1    0.360000       12.0110           0
     28649 WT12     880      MECN     N3       NG1T1   -0.460000       14.0070           0
     28650 WT12     882      MECN     C1       CG331   -0.170000       12.0110           0
     28651 WT12     882      MECN     H11      HGA3     0.090000        1.0080           0
     28652 WT12     882      MECN     H12      HGA3     0.090000        1.0080           0
     28653 WT12     882      MECN     H13      HGA3     0.090000        1.0080           0
     28654 WT12     882      MECN     C2       CG1N1    0.360000       12.0110           0
     28655 WT12     882      MECN     N3       NG1T1   -0.460000       14.0070           0
     28656 WT12     884      MECN     C1       CG331   -0.170000       12.0110           0
     28657 WT12     884      MECN     H11      HGA3     0.090000        1.0080           0
     28658 WT12     884      MECN     H12      HGA3     0.090000        1.0080           0
     28659 WT12     884      MECN     H13      HGA3     0.090000        1.0080           0
     28660 WT12     884      MECN     C2       CG1N1    0.360000       12.0110           0
     28661 WT12     884      MECN     N3       NG1T1   -0.460000       14.0070           0
     28662 WT12     887      MECN     C1       CG331   -0.170000       12.0110           0
     28663 WT12     887      MECN     H11      HGA3     0.090000        1.0080           0
     28664 WT12     887      MECN     H12      HGA3     0.090000        1.0080           0
     28665 WT12     887      MECN     H13      HGA3     0.090000        1.0080           0
     28666 WT12     887      MECN     C2       CG1N1    0.360000       12.0110           0
     28667 WT12     887      MECN     N3       NG1T1   -0.460000       14.0070           0
     28668 WT12     889      MECN     C1       CG331   -0.170000       12.0110           0
     28669 WT12     889      MECN     H11      HGA3     0.090000        1.0080           0
     28670 WT12     889      MECN     H12      HGA3     0.090000        1.0080           0
     28671 WT12     889      MECN     H13      HGA3     0.090000        1.0080           0
     28672 WT12     889      MECN     C2       CG1N1    0.360000       12.0110           0
     28673 WT12     889      MECN     N3       NG1T1   -0.460000       14.0070           0
     28674 WT12     890      MECN     C1       CG331   -0.170000       12.0110           0
     28675 WT12     890      MECN     H11      HGA3     0.090000        1.0080           0
     28676 WT12     890      MECN     H12      HGA3     0.090000        1.0080           0
     28677 WT12     890      MECN     H13      HGA3     0.090000        1.0080           0
     28678 WT12     890      MECN     C2       CG1N1    0.360000       12.0110           0
     28679 WT12     890      MECN     N3       NG1T1   -0.460000       14.0070           0
     28680 WT12     893      MECN     C1       CG331   -0.170000       12.0110           0
     28681 WT12     893      MECN     H11      HGA3     0.090000        1.0080           0
     28682 WT12     893      MECN     H12      HGA3     0.090000        1.0080           0
     28683 WT12     893      MECN     H13      HGA3     0.090000        1.0080           0
     28684 WT12     893      MECN     C2       CG1N1    0.360000       12.0110           0
     28685 WT12     893      MECN     N3       NG1T1   -0.460000       14.0070           0
     28686 WT12     894      MECN     C1       CG331   -0.170000       12.0110           0
     28687 WT12     894      MECN     H11      HGA3     0.090000        1.0080           0
     28688 WT12     894      MECN     H12      HGA3     0.090000        1.0080           0
     28689 WT12     894      MECN     H13      HGA3     0.090000        1.0080           0
     28690 WT12     894      MECN     C2       CG1N1    0.360000       12.0110           0
     28691 WT12     894      MECN     N3       NG1T1   -0.460000       14.0070           0
     28692 WT12     896      MECN     C1       CG331   -0.170000       12.0110           0
     28693 WT12     896      MECN     H11      HGA3     0.090000        1.0080           0
     28694 WT12     896      MECN     H12      HGA3     0.090000        1.0080           0
     28695 WT12     896      MECN     H13      HGA3     0.090000        1.0080           0
     28696 WT12     896      MECN     C2       CG1N1    0.360000       12.0110           0
     28697 WT12     896      MECN     N3       NG1T1   -0.460000       14.0070           0
     28698 WT12     901      MECN     C1       CG331   -0.170000       12.0110           0
     28699 WT12     901      MECN     H11      HGA3     0.090000        1.0080           0
     28700 WT12     901      MECN     H12      HGA3     0.090000        1.0080           0
     28701 WT12     901      MECN     H13      HGA3     0.090000        1.0080           0
     28702 WT12     901      MECN     C2       CG1N1    0.360000       12.0110           0
     28703 WT12     901      MECN     N3       NG1T1   -0.460000       14.0070           0
     28704 WT12     902      MECN     C1       CG331   -0.170000       12.0110           0
     28705 WT12     902      MECN     H11      HGA3     0.090000        1.0080           0
     28706 WT12     902      MECN     H12      HGA3     0.090000        1.0080           0
     28707 WT12     902      MECN     H13      HGA3     0.090000        1.0080           0
     28708 WT12     902      MECN     C2       CG1N1    0.360000       12.0110           0
     28709 WT12     902      MECN     N3       NG1T1   -0.460000       14.0070           0
     28710 WT12     904      MECN     C1       CG331   -0.170000       12.0110           0
     28711 WT12     904      MECN     H11      HGA3     0.090000        1.0080           0
     28712 WT12     904      MECN     H12      HGA3     0.090000        1.0080           0
     28713 WT12     904      MECN     H13      HGA3     0.090000        1.0080           0
     28714 WT12     904      MECN     C2       CG1N1    0.360000       12.0110           0
     28715 WT12     904      MECN     N3       NG1T1   -0.460000       14.0070           0
     28716 WT12     906      MECN     C1       CG331   -0.170000       12.0110           0
     28717 WT12     906      MECN     H11      HGA3     0.090000        1.0080           0
     28718 WT12     906      MECN     H12      HGA3     0.090000        1.0080           0
     28719 WT12     906      MECN     H13      HGA3     0.090000        1.0080           0
     28720 WT12     906      MECN     C2       CG1N1    0.360000       12.0110           0
     28721 WT12     906      MECN     N3       NG1T1   -0.460000       14.0070           0
     28722 WT12     907      MECN     C1       CG331   -0.170000       12.0110           0
     28723 WT12     907      MECN     H11      HGA3     0.090000        1.0080           0
     28724 WT12     907      MECN     H12      HGA3     0.090000        1.0080           0
     28725 WT12     907      MECN     H13      HGA3     0.090000        1.0080           0
     28726 WT12     907      MECN     C2       CG1N1    0.360000       12.0110           0
     28727 WT12     907      MECN     N3       NG1T1   -0.460000       14.0070           0
     28728 WT12     912      MECN     C1       CG331   -0.170000       12.0110           0
     28729 WT12     912      MECN     H11      HGA3     0.090000        1.0080           0
     28730 WT12     912      MECN     H12      HGA3     0.090000        1.0080           0
     28731 WT12     912      MECN     H13      HGA3     0.090000        1.0080           0
     28732 WT12     912      MECN     C2       CG1N1    0.360000       12.0110           0
     28733 WT12     912      MECN     N3       NG1T1   -0.460000       14.0070           0
     28734 WT12     925      MECN     C1       CG331   -0.170000       12.0110           0
     28735 WT12     925      MECN     H11      HGA3     0.090000        1.0080           0
     28736 WT12     925      MECN     H12      HGA3     0.090000        1.0080           0
     28737 WT12     925      MECN     H13      HGA3     0.090000        1.0080           0
     28738 WT12     925      MECN     C2       CG1N1    0.360000       12.0110           0
     28739 WT12     925      MECN     N3       NG1T1   -0.460000       14.0070           0
     28740 WT12     934      MECN     C1       CG331   -0.170000       12.0110           0
     28741 WT12     934      MECN     H11      HGA3     0.090000        1.0080           0
     28742 WT12     934      MECN     H12      HGA3     0.090000        1.0080           0
     28743 WT12     934      MECN     H13      HGA3     0.090000        1.0080           0
     28744 WT12     934      MECN     C2       CG1N1    0.360000       12.0110           0
     28745 WT12     934      MECN     N3       NG1T1   -0.460000       14.0070           0
     28746 WT12     938      MECN     C1       CG331   -0.170000       12.0110           0
     28747 WT12     938      MECN     H11      HGA3     0.090000        1.0080           0
     28748 WT12     938      MECN     H12      HGA3     0.090000        1.0080           0
     28749 WT12     938      MECN     H13      HGA3     0.090000        1.0080           0
     28750 WT12     938      MECN     C2       CG1N1    0.360000       12.0110           0
     28751 WT12     938      MECN     N3       NG1T1   -0.460000       14.0070           0
     28752 WT12     940      MECN     C1       CG331   -0.170000       12.0110           0
     28753 WT12     940      MECN     H11      HGA3     0.090000        1.0080           0
     28754 WT12     940      MECN     H12      HGA3     0.090000        1.0080           0
     28755 WT12     940      MECN     H13      HGA3     0.090000        1.0080           0
     28756 WT12     940      MECN     C2       CG1N1    0.360000       12.0110           0
     28757 WT12     940      MECN     N3       NG1T1   -0.460000       14.0070           0
     28758 WT12     943      MECN     C1       CG331   -0.170000       12.0110           0
     28759 WT12     943      MECN     H11      HGA3     0.090000        1.0080           0
     28760 WT12     943      MECN     H12      HGA3     0.090000        1.0080           0
     28761 WT12     943      MECN     H13      HGA3     0.090000        1.0080           0
     28762 WT12     943      MECN     C2       CG1N1    0.360000       12.0110           0
     28763 WT12     943      MECN     N3       NG1T1   -0.460000       14.0070           0
     28764 WT12     947      MECN     C1       CG331   -0.170000       12.0110           0
     28765 WT12     947      MECN     H11      HGA3     0.090000        1.0080           0
     28766 WT12     947      MECN     H12      HGA3     0.090000        1.0080           0
     28767 WT12     947      MECN     H13      HGA3     0.090000        1.0080           0
     28768 WT12     947      MECN     C2       CG1N1    0.360000       12.0110           0
     28769 WT12     947      MECN     N3       NG1T1   -0.460000       14.0070           0
     28770 WT12     959      MECN     C1       CG331   -0.170000       12.0110           0
     28771 WT12     959      MECN     H11      HGA3     0.090000        1.0080           0
     28772 WT12     959      MECN     H12      HGA3     0.090000        1.0080           0
     28773 WT12     959      MECN     H13      HGA3     0.090000        1.0080           0
     28774 WT12     959      MECN     C2       CG1N1    0.360000       12.0110           0
     28775 WT12     959      MECN     N3       NG1T1   -0.460000       14.0070           0
     28776 WT12     960      MECN     C1       CG331   -0.170000       12.0110           0
     28777 WT12     960      MECN     H11      HGA3     0.090000        1.0080           0
     28778 WT12     960      MECN     H12      HGA3     0.090000        1.0080           0
     28779 WT12     960      MECN     H13      HGA3     0.090000        1.0080           0
     28780 WT12     960      MECN     C2       CG1N1    0.360000       12.0110           0
     28781 WT12     960      MECN     N3       NG1T1   -0.460000       14.0070           0
     28782 WT12     963      MECN     C1       CG331   -0.170000       12.0110           0
     28783 WT12     963      MECN     H11      HGA3     0.090000        1.0080           0
     28784 WT12     963      MECN     H12      HGA3     0.090000        1.0080           0
     28785 WT12     963      MECN     H13      HGA3     0.090000        1.0080           0
     28786 WT12     963      MECN     C2       CG1N1    0.360000       12.0110           0
     28787 WT12     963      MECN     N3       NG1T1   -0.460000       14.0070           0
     28788 WT12     964      MECN     C1       CG331   -0.170000       12.0110           0
     28789 WT12     964      MECN     H11      HGA3     0.090000        1.0080           0
     28790 WT12     964      MECN     H12      HGA3     0.090000        1.0080           0
     28791 WT12     964      MECN     H13      HGA3     0.090000        1.0080           0
     28792 WT12     964      MECN     C2       CG1N1    0.360000       12.0110           0
     28793 WT12     964      MECN     N3       NG1T1   -0.460000       14.0070           0
     28794 WT12     967      MECN     C1       CG331   -0.170000       12.0110           0
     28795 WT12     967      MECN     H11      HGA3     0.090000        1.0080           0
     28796 WT12     967      MECN     H12      HGA3     0.090000        1.0080           0
     28797 WT12     967      MECN     H13      HGA3     0.090000        1.0080           0
     28798 WT12     967      MECN     C2       CG1N1    0.360000       12.0110           0
     28799 WT12     967      MECN     N3       NG1T1   -0.460000       14.0070           0
     28800 WT12     971      MECN     C1       CG331   -0.170000       12.0110           0
     28801 WT12     971      MECN     H11      HGA3     0.090000        1.0080           0
     28802 WT12     971      MECN     H12      HGA3     0.090000        1.0080           0
     28803 WT12     971      MECN     H13      HGA3     0.090000        1.0080           0
     28804 WT12     971      MECN     C2       CG1N1    0.360000       12.0110           0
     28805 WT12     971      MECN     N3       NG1T1   -0.460000       14.0070           0
     28806 WT12     973      MECN     C1       CG331   -0.170000       12.0110           0
     28807 WT12     973      MECN     H11      HGA3     0.090000        1.0080           0
     28808 WT12     973      MECN     H12      HGA3     0.090000        1.0080           0
     28809 WT12     973      MECN     H13      HGA3     0.090000        1.0080           0
     28810 WT12     973      MECN     C2       CG1N1    0.360000       12.0110           0
     28811 WT12     973      MECN     N3       NG1T1   -0.460000       14.0070           0
     28812 WT12     975      MECN     C1       CG331   -0.170000       12.0110           0
     28813 WT12     975      MECN     H11      HGA3     0.090000        1.0080           0
     28814 WT12     975      MECN     H12      HGA3     0.090000        1.0080           0
     28815 WT12     975      MECN     H13      HGA3     0.090000        1.0080           0
     28816 WT12     975      MECN     C2       CG1N1    0.360000       12.0110           0
     28817 WT12     975      MECN     N3       NG1T1   -0.460000       14.0070           0
     28818 WT12     976      MECN     C1       CG331   -0.170000       12.0110           0
     28819 WT12     976      MECN     H11      HGA3     0.090000        1.0080           0
     28820 WT12     976      MECN     H12      HGA3     0.090000        1.0080           0
     28821 WT12     976      MECN     H13      HGA3     0.090000        1.0080           0
     28822 WT12     976      MECN     C2       CG1N1    0.360000       12.0110           0
     28823 WT12     976      MECN     N3       NG1T1   -0.460000       14.0070           0
     28824 WT12     979      MECN     C1       CG331   -0.170000       12.0110           0
     28825 WT12     979      MECN     H11      HGA3     0.090000        1.0080           0
     28826 WT12     979      MECN     H12      HGA3     0.090000        1.0080           0
     28827 WT12     979      MECN     H13      HGA3     0.090000        1.0080           0
     28828 WT12     979      MECN     C2       CG1N1    0.360000       12.0110           0
     28829 WT12     979      MECN     N3       NG1T1   -0.460000       14.0070           0
     28830 WT12     988      MECN     C1       CG331   -0.170000       12.0110           0
     28831 WT12     988      MECN     H11      HGA3     0.090000        1.0080           0
     28832 WT12     988      MECN     H12      HGA3     0.090000        1.0080           0
     28833 WT12     988      MECN     H13      HGA3     0.090000        1.0080           0
     28834 WT12     988      MECN     C2       CG1N1    0.360000       12.0110           0
     28835 WT12     988      MECN     N3       NG1T1   -0.460000       14.0070           0
     28836 WT12     999      MECN     C1       CG331   -0.170000       12.0110           0
     28837 WT12     999      MECN     H11      HGA3     0.090000        1.0080           0
     28838 WT12     999      MECN     H12      HGA3     0.090000        1.0080           0
     28839 WT12     999      MECN     H13      HGA3     0.090000        1.0080           0
     28840 WT12     999      MECN     C2       CG1N1    0.360000       12.0110           0
     28841 WT12     999      MECN     N3       NG1T1   -0.460000       14.0070           0
     28842 WT12     1000     MECN     C1       CG331   -0.170000       12.0110           0
     28843 WT12     1000     MECN     H11      HGA3     0.090000        1.0080           0
     28844 WT12     1000     MECN     H12      HGA3     0.090000        1.0080           0
     28845 WT12     1000     MECN     H13      HGA3     0.090000        1.0080           0
     28846 WT12     1000     MECN     C2       CG1N1    0.360000       12.0110           0
     28847 WT12     1000     MECN     N3       NG1T1   -0.460000       14.0070           0
     28848 WT12     1001     MECN     C1       CG331   -0.170000       12.0110           0
     28849 WT12     1001     MECN     H11      HGA3     0.090000        1.0080           0
     28850 WT12     1001     MECN     H12      HGA3     0.090000        1.0080           0
     28851 WT12     1001     MECN     H13      HGA3     0.090000        1.0080           0
     28852 WT12     1001     MECN     C2       CG1N1    0.360000       12.0110           0
     28853 WT12     1001     MECN     N3       NG1T1   -0.460000       14.0070           0
     28854 WT12     1002     MECN     C1       CG331   -0.170000       12.0110           0
     28855 WT12     1002     MECN     H11      HGA3     0.090000        1.0080           0
     28856 WT12     1002     MECN     H12      HGA3     0.090000        1.0080           0
     28857 WT12     1002     MECN     H13      HGA3     0.090000        1.0080           0
     28858 WT12     1002     MECN     C2       CG1N1    0.360000       12.0110           0
     28859 WT12     1002     MECN     N3       NG1T1   -0.460000       14.0070           0
     28860 WT12     1003     MECN     C1       CG331   -0.170000       12.0110           0
     28861 WT12     1003     MECN     H11      HGA3     0.090000        1.0080           0
     28862 WT12     1003     MECN     H12      HGA3     0.090000        1.0080           0
     28863 WT12     1003     MECN     H13      HGA3     0.090000        1.0080           0
     28864 WT12     1003     MECN     C2       CG1N1    0.360000       12.0110           0
     28865 WT12     1003     MECN     N3       NG1T1   -0.460000       14.0070           0
     28866 WT12     1005     MECN     C1       CG331   -0.170000       12.0110           0
     28867 WT12     1005     MECN     H11      HGA3     0.090000        1.0080           0
     28868 WT12     1005     MECN     H12      HGA3     0.090000        1.0080           0
     28869 WT12     1005     MECN     H13      HGA3     0.090000        1.0080           0
     28870 WT12     1005     MECN     C2       CG1N1    0.360000       12.0110           0
     28871 WT12     1005     MECN     N3       NG1T1   -0.460000       14.0070           0
     28872 WT12     1006     MECN     C1       CG331   -0.170000       12.0110           0
     28873 WT12     1006     MECN     H11      HGA3     0.090000        1.0080           0
     28874 WT12     1006     MECN     H12      HGA3     0.090000        1.0080           0
     28875 WT12     1006     MECN     H13      HGA3     0.090000        1.0080           0
     28876 WT12     1006     MECN     C2       CG1N1    0.360000       12.0110           0
     28877 WT12     1006     MECN     N3       NG1T1   -0.460000       14.0070           0
     28878 WT12     1016     MECN     C1       CG331   -0.170000       12.0110           0
     28879 WT12     1016     MECN     H11      HGA3     0.090000        1.0080           0
     28880 WT12     1016     MECN     H12      HGA3     0.090000        1.0080           0
     28881 WT12     1016     MECN     H13      HGA3     0.090000        1.0080           0
     28882 WT12     1016     MECN     C2       CG1N1    0.360000       12.0110           0
     28883 WT12     1016     MECN     N3       NG1T1   -0.460000       14.0070           0
     28884 WT12     1017     MECN     C1       CG331   -0.170000       12.0110           0
     28885 WT12     1017     MECN     H11      HGA3     0.090000        1.0080           0
     28886 WT12     1017     MECN     H12      HGA3     0.090000        1.0080           0
     28887 WT12     1017     MECN     H13      HGA3     0.090000        1.0080           0
     28888 WT12     1017     MECN     C2       CG1N1    0.360000       12.0110           0
     28889 WT12     1017     MECN     N3       NG1T1   -0.460000       14.0070           0
     28890 WT12     1022     MECN     C1       CG331   -0.170000       12.0110           0
     28891 WT12     1022     MECN     H11      HGA3     0.090000        1.0080           0
     28892 WT12     1022     MECN     H12      HGA3     0.090000        1.0080           0
     28893 WT12     1022     MECN     H13      HGA3     0.090000        1.0080           0
     28894 WT12     1022     MECN     C2       CG1N1    0.360000       12.0110           0
     28895 WT12     1022     MECN     N3       NG1T1   -0.460000       14.0070           0
     28896 WT12     1025     MECN     C1       CG331   -0.170000       12.0110           0
     28897 WT12     1025     MECN     H11      HGA3     0.090000        1.0080           0
     28898 WT12     1025     MECN     H12      HGA3     0.090000        1.0080           0
     28899 WT12     1025     MECN     H13      HGA3     0.090000        1.0080           0
     28900 WT12     1025     MECN     C2       CG1N1    0.360000       12.0110           0
     28901 WT12     1025     MECN     N3       NG1T1   -0.460000       14.0070           0
     28902 WT12     1027     MECN     C1       CG331   -0.170000       12.0110           0
     28903 WT12     1027     MECN     H11      HGA3     0.090000        1.0080           0
     28904 WT12     1027     MECN     H12      HGA3     0.090000        1.0080           0
     28905 WT12     1027     MECN     H13      HGA3     0.090000        1.0080           0
     28906 WT12     1027     MECN     C2       CG1N1    0.360000       12.0110           0
     28907 WT12     1027     MECN     N3       NG1T1   -0.460000       14.0070           0
     28908 WT12     1028     MECN     C1       CG331   -0.170000       12.0110           0
     28909 WT12     1028     MECN     H11      HGA3     0.090000        1.0080           0
     28910 WT12     1028     MECN     H12      HGA3     0.090000        1.0080           0
     28911 WT12     1028     MECN     H13      HGA3     0.090000        1.0080           0
     28912 WT12     1028     MECN     C2       CG1N1    0.360000       12.0110           0
     28913 WT12     1028     MECN     N3       NG1T1   -0.460000       14.0070           0
     28914 WT12     1038     MECN     C1       CG331   -0.170000       12.0110           0
     28915 WT12     1038     MECN     H11      HGA3     0.090000        1.0080           0
     28916 WT12     1038     MECN     H12      HGA3     0.090000        1.0080           0
     28917 WT12     1038     MECN     H13      HGA3     0.090000        1.0080           0
     28918 WT12     1038     MECN     C2       CG1N1    0.360000       12.0110           0
     28919 WT12     1038     MECN     N3       NG1T1   -0.460000       14.0070           0
     28920 WT12     1042     MECN     C1       CG331   -0.170000       12.0110           0
     28921 WT12     1042     MECN     H11      HGA3     0.090000        1.0080           0
     28922 WT12     1042     MECN     H12      HGA3     0.090000        1.0080           0
     28923 WT12     1042     MECN     H13      HGA3     0.090000        1.0080           0
     28924 WT12     1042     MECN     C2       CG1N1    0.360000       12.0110           0
     28925 WT12     1042     MECN     N3       NG1T1   -0.460000       14.0070           0
     28926 WT12     1045     MECN     C1       CG331   -0.170000       12.0110           0
     28927 WT12     1045     MECN     H11      HGA3     0.090000        1.0080           0
     28928 WT12     1045     MECN     H12      HGA3     0.090000        1.0080           0
     28929 WT12     1045     MECN     H13      HGA3     0.090000        1.0080           0
     28930 WT12     1045     MECN     C2       CG1N1    0.360000       12.0110           0
     28931 WT12     1045     MECN     N3       NG1T1   -0.460000       14.0070           0
     28932 WT12     1049     MECN     C1       CG331   -0.170000       12.0110           0
     28933 WT12     1049     MECN     H11      HGA3     0.090000        1.0080           0
     28934 WT12     1049     MECN     H12      HGA3     0.090000        1.0080           0
     28935 WT12     1049     MECN     H13      HGA3     0.090000        1.0080           0
     28936 WT12     1049     MECN     C2       CG1N1    0.360000       12.0110           0
     28937 WT12     1049     MECN     N3       NG1T1   -0.460000       14.0070           0
     28938 WT12     1054     MECN     C1       CG331   -0.170000       12.0110           0
     28939 WT12     1054     MECN     H11      HGA3     0.090000        1.0080           0
     28940 WT12     1054     MECN     H12      HGA3     0.090000        1.0080           0
     28941 WT12     1054     MECN     H13      HGA3     0.090000        1.0080           0
     28942 WT12     1054     MECN     C2       CG1N1    0.360000       12.0110           0
     28943 WT12     1054     MECN     N3       NG1T1   -0.460000       14.0070           0
     28944 WT12     1059     MECN     C1       CG331   -0.170000       12.0110           0
     28945 WT12     1059     MECN     H11      HGA3     0.090000        1.0080           0
     28946 WT12     1059     MECN     H12      HGA3     0.090000        1.0080           0
     28947 WT12     1059     MECN     H13      HGA3     0.090000        1.0080           0
     28948 WT12     1059     MECN     C2       CG1N1    0.360000       12.0110           0
     28949 WT12     1059     MECN     N3       NG1T1   -0.460000       14.0070           0
     28950 WT12     1060     MECN     C1       CG331   -0.170000       12.0110           0
     28951 WT12     1060     MECN     H11      HGA3     0.090000        1.0080           0
     28952 WT12     1060     MECN     H12      HGA3     0.090000        1.0080           0
     28953 WT12     1060     MECN     H13      HGA3     0.090000        1.0080           0
     28954 WT12     1060     MECN     C2       CG1N1    0.360000       12.0110           0
     28955 WT12     1060     MECN     N3       NG1T1   -0.460000       14.0070           0
     28956 WT12     1061     MECN     C1       CG331   -0.170000       12.0110           0
     28957 WT12     1061     MECN     H11      HGA3     0.090000        1.0080           0
     28958 WT12     1061     MECN     H12      HGA3     0.090000        1.0080           0
     28959 WT12     1061     MECN     H13      HGA3     0.090000        1.0080           0
     28960 WT12     1061     MECN     C2       CG1N1    0.360000       12.0110           0
     28961 WT12     1061     MECN     N3       NG1T1   -0.460000       14.0070           0
     28962 WT12     1070     MECN     C1       CG331   -0.170000       12.0110           0
     28963 WT12     1070     MECN     H11      HGA3     0.090000        1.0080           0
     28964 WT12     1070     MECN     H12      HGA3     0.090000        1.0080           0
     28965 WT12     1070     MECN     H13      HGA3     0.090000        1.0080           0
     28966 WT12     1070     MECN     C2       CG1N1    0.360000       12.0110           0
     28967 WT12     1070     MECN     N3       NG1T1   -0.460000       14.0070           0
     28968 WT12     1073     MECN     C1       CG331   -0.170000       12.0110           0
     28969 WT12     1073     MECN     H11      HGA3     0.090000        1.0080           0
     28970 WT12     1073     MECN     H12      HGA3     0.090000        1.0080           0
     28971 WT12     1073     MECN     H13      HGA3     0.090000        1.0080           0
     28972 WT12     1073     MECN     C2       CG1N1    0.360000       12.0110           0
     28973 WT12     1073     MECN     N3       NG1T1   -0.460000       14.0070           0
     28974 WT12     1077     MECN     C1       CG331   -0.170000       12.0110           0
     28975 WT12     1077     MECN     H11      HGA3     0.090000        1.0080           0
     28976 WT12     1077     MECN     H12      HGA3     0.090000        1.0080           0
     28977 WT12     1077     MECN     H13      HGA3     0.090000        1.0080           0
     28978 WT12     1077     MECN     C2       CG1N1    0.360000       12.0110           0
     28979 WT12     1077     MECN     N3       NG1T1   -0.460000       14.0070           0
     28980 WT12     1083     MECN     C1       CG331   -0.170000       12.0110           0
     28981 WT12     1083     MECN     H11      HGA3     0.090000        1.0080           0
     28982 WT12     1083     MECN     H12      HGA3     0.090000        1.0080           0
     28983 WT12     1083     MECN     H13      HGA3     0.090000        1.0080           0
     28984 WT12     1083     MECN     C2       CG1N1    0.360000       12.0110           0
     28985 WT12     1083     MECN     N3       NG1T1   -0.460000       14.0070           0
     28986 WT12     1088     MECN     C1       CG331   -0.170000       12.0110           0
     28987 WT12     1088     MECN     H11      HGA3     0.090000        1.0080           0
     28988 WT12     1088     MECN     H12      HGA3     0.090000        1.0080           0
     28989 WT12     1088     MECN     H13      HGA3     0.090000        1.0080           0
     28990 WT12     1088     MECN     C2       CG1N1    0.360000       12.0110           0
     28991 WT12     1088     MECN     N3       NG1T1   -0.460000       14.0070           0
     28992 WT12     1096     MECN     C1       CG331   -0.170000       12.0110           0
     28993 WT12     1096     MECN     H11      HGA3     0.090000        1.0080           0
     28994 WT12     1096     MECN     H12      HGA3     0.090000        1.0080           0
     28995 WT12     1096     MECN     H13      HGA3     0.090000        1.0080           0
     28996 WT12     1096     MECN     C2       CG1N1    0.360000       12.0110           0
     28997 WT12     1096     MECN     N3       NG1T1   -0.460000       14.0070           0
     28998 WT12     1099     MECN     C1       CG331   -0.170000       12.0110           0
     28999 WT12     1099     MECN     H11      HGA3     0.090000        1.0080           0
     29000 WT12     1099     MECN     H12      HGA3     0.090000        1.0080           0
     29001 WT12     1099     MECN     H13      HGA3     0.090000        1.0080           0
     29002 WT12     1099     MECN     C2       CG1N1    0.360000       12.0110           0
     29003 WT12     1099     MECN     N3       NG1T1   -0.460000       14.0070           0
     29004 WT12     1100     MECN     C1       CG331   -0.170000       12.0110           0
     29005 WT12     1100     MECN     H11      HGA3     0.090000        1.0080           0
     29006 WT12     1100     MECN     H12      HGA3     0.090000        1.0080           0
     29007 WT12     1100     MECN     H13      HGA3     0.090000        1.0080           0
     29008 WT12     1100     MECN     C2       CG1N1    0.360000       12.0110           0
     29009 WT12     1100     MECN     N3       NG1T1   -0.460000       14.0070           0
     29010 WT12     1101     MECN     C1       CG331   -0.170000       12.0110           0
     29011 WT12     1101     MECN     H11      HGA3     0.090000        1.0080           0
     29012 WT12     1101     MECN     H12      HGA3     0.090000        1.0080           0
     29013 WT12     1101     MECN     H13      HGA3     0.090000        1.0080           0
     29014 WT12     1101     MECN     C2       CG1N1    0.360000       12.0110           0
     29015 WT12     1101     MECN     N3       NG1T1   -0.460000       14.0070           0
     29016 WT12     1110     MECN     C1       CG331   -0.170000       12.0110           0
     29017 WT12     1110     MECN     H11      HGA3     0.090000        1.0080           0
     29018 WT12     1110     MECN     H12      HGA3     0.090000        1.0080           0
     29019 WT12     1110     MECN     H13      HGA3     0.090000        1.0080           0
     29020 WT12     1110     MECN     C2       CG1N1    0.360000       12.0110           0
     29021 WT12     1110     MECN     N3       NG1T1   -0.460000       14.0070           0
     29022 WT12     1112     MECN     C1       CG331   -0.170000       12.0110           0
     29023 WT12     1112     MECN     H11      HGA3     0.090000        1.0080           0
     29024 WT12     1112     MECN     H12      HGA3     0.090000        1.0080           0
     29025 WT12     1112     MECN     H13      HGA3     0.090000        1.0080           0
     29026 WT12     1112     MECN     C2       CG1N1    0.360000       12.0110           0
     29027 WT12     1112     MECN     N3       NG1T1   -0.460000       14.0070           0
     29028 WT12     1113     MECN     C1       CG331   -0.170000       12.0110           0
     29029 WT12     1113     MECN     H11      HGA3     0.090000        1.0080           0
     29030 WT12     1113     MECN     H12      HGA3     0.090000        1.0080           0
     29031 WT12     1113     MECN     H13      HGA3     0.090000        1.0080           0
     29032 WT12     1113     MECN     C2       CG1N1    0.360000       12.0110           0
     29033 WT12     1113     MECN     N3       NG1T1   -0.460000       14.0070           0
     29034 WT12     1121     MECN     C1       CG331   -0.170000       12.0110           0
     29035 WT12     1121     MECN     H11      HGA3     0.090000        1.0080           0
     29036 WT12     1121     MECN     H12      HGA3     0.090000        1.0080           0
     29037 WT12     1121     MECN     H13      HGA3     0.090000        1.0080           0
     29038 WT12     1121     MECN     C2       CG1N1    0.360000       12.0110           0
     29039 WT12     1121     MECN     N3       NG1T1   -0.460000       14.0070           0
     29040 WT12     1123     MECN     C1       CG331   -0.170000       12.0110           0
     29041 WT12     1123     MECN     H11      HGA3     0.090000        1.0080           0
     29042 WT12     1123     MECN     H12      HGA3     0.090000        1.0080           0
     29043 WT12     1123     MECN     H13      HGA3     0.090000        1.0080           0
     29044 WT12     1123     MECN     C2       CG1N1    0.360000       12.0110           0
     29045 WT12     1123     MECN     N3       NG1T1   -0.460000       14.0070           0
     29046 WT12     1127     MECN     C1       CG331   -0.170000       12.0110           0
     29047 WT12     1127     MECN     H11      HGA3     0.090000        1.0080           0
     29048 WT12     1127     MECN     H12      HGA3     0.090000        1.0080           0
     29049 WT12     1127     MECN     H13      HGA3     0.090000        1.0080           0
     29050 WT12     1127     MECN     C2       CG1N1    0.360000       12.0110           0
     29051 WT12     1127     MECN     N3       NG1T1   -0.460000       14.0070           0
     29052 WT12     1129     MECN     C1       CG331   -0.170000       12.0110           0
     29053 WT12     1129     MECN     H11      HGA3     0.090000        1.0080           0
     29054 WT12     1129     MECN     H12      HGA3     0.090000        1.0080           0
     29055 WT12     1129     MECN     H13      HGA3     0.090000        1.0080           0
     29056 WT12     1129     MECN     C2       CG1N1    0.360000       12.0110           0
     29057 WT12     1129     MECN     N3       NG1T1   -0.460000       14.0070           0
     29058 WT12     1134     MECN     C1       CG331   -0.170000       12.0110           0
     29059 WT12     1134     MECN     H11      HGA3     0.090000        1.0080           0
     29060 WT12     1134     MECN     H12      HGA3     0.090000        1.0080           0
     29061 WT12     1134     MECN     H13      HGA3     0.090000        1.0080           0
     29062 WT12     1134     MECN     C2       CG1N1    0.360000       12.0110           0
     29063 WT12     1134     MECN     N3       NG1T1   -0.460000       14.0070           0
     29064 WT12     1136     MECN     C1       CG331   -0.170000       12.0110           0
     29065 WT12     1136     MECN     H11      HGA3     0.090000        1.0080           0
     29066 WT12     1136     MECN     H12      HGA3     0.090000        1.0080           0
     29067 WT12     1136     MECN     H13      HGA3     0.090000        1.0080           0
     29068 WT12     1136     MECN     C2       CG1N1    0.360000       12.0110           0
     29069 WT12     1136     MECN     N3       NG1T1   -0.460000       14.0070           0
     29070 WT12     1138     MECN     C1       CG331   -0.170000       12.0110           0
     29071 WT12     1138     MECN     H11      HGA3     0.090000        1.0080           0
     29072 WT12     1138     MECN     H12      HGA3     0.090000        1.0080           0
     29073 WT12     1138     MECN     H13      HGA3     0.090000        1.0080           0
     29074 WT12     1138     MECN     C2       CG1N1    0.360000       12.0110           0
     29075 WT12     1138     MECN     N3       NG1T1   -0.460000       14.0070           0
     29076 WT12     1139     MECN     C1       CG331   -0.170000       12.0110           0
     29077 WT12     1139     MECN     H11      HGA3     0.090000        1.0080           0
     29078 WT12     1139     MECN     H12      HGA3     0.090000        1.0080           0
     29079 WT12     1139     MECN     H13      HGA3     0.090000        1.0080           0
     29080 WT12     1139     MECN     C2       CG1N1    0.360000       12.0110           0
     29081 WT12     1139     MECN     N3       NG1T1   -0.460000       14.0070           0
     29082 WT12     1140     MECN     C1       CG331   -0.170000       12.0110           0
     29083 WT12     1140     MECN     H11      HGA3     0.090000        1.0080           0
     29084 WT12     1140     MECN     H12      HGA3     0.090000        1.0080           0
     29085 WT12     1140     MECN     H13      HGA3     0.090000        1.0080           0
     29086 WT12     1140     MECN     C2       CG1N1    0.360000       12.0110           0
     29087 WT12     1140     MECN     N3       NG1T1   -0.460000       14.0070           0
     29088 WT12     1141     MECN     C1       CG331   -0.170000       12.0110           0
     29089 WT12     1141     MECN     H11      HGA3     0.090000        1.0080           0
     29090 WT12     1141     MECN     H12      HGA3     0.090000        1.0080           0
     29091 WT12     1141     MECN     H13      HGA3     0.090000        1.0080           0
     29092 WT12     1141     MECN     C2       CG1N1    0.360000       12.0110           0
     29093 WT12     1141     MECN     N3       NG1T1   -0.460000       14.0070           0
     29094 WT12     1142     MECN     C1       CG331   -0.170000       12.0110           0
     29095 WT12     1142     MECN     H11      HGA3     0.090000        1.0080           0
     29096 WT12     1142     MECN     H12      HGA3     0.090000        1.0080           0
     29097 WT12     1142     MECN     H13      HGA3     0.090000        1.0080           0
     29098 WT12     1142     MECN     C2       CG1N1    0.360000       12.0110           0
     29099 WT12     1142     MECN     N3       NG1T1   -0.460000       14.0070           0
     29100 WT12     1144     MECN     C1       CG331   -0.170000       12.0110           0
     29101 WT12     1144     MECN     H11      HGA3     0.090000        1.0080           0
     29102 WT12     1144     MECN     H12      HGA3     0.090000        1.0080           0
     29103 WT12     1144     MECN     H13      HGA3     0.090000        1.0080           0
     29104 WT12     1144     MECN     C2       CG1N1    0.360000       12.0110           0
     29105 WT12     1144     MECN     N3       NG1T1   -0.460000       14.0070           0
     29106 WT12     1153     MECN     C1       CG331   -0.170000       12.0110           0
     29107 WT12     1153     MECN     H11      HGA3     0.090000        1.0080           0
     29108 WT12     1153     MECN     H12      HGA3     0.090000        1.0080           0
     29109 WT12     1153     MECN     H13      HGA3     0.090000        1.0080           0
     29110 WT12     1153     MECN     C2       CG1N1    0.360000       12.0110           0
     29111 WT12     1153     MECN     N3       NG1T1   -0.460000       14.0070           0
     29112 WT12     1154     MECN     C1       CG331   -0.170000       12.0110           0
     29113 WT12     1154     MECN     H11      HGA3     0.090000        1.0080           0
     29114 WT12     1154     MECN     H12      HGA3     0.090000        1.0080           0
     29115 WT12     1154     MECN     H13      HGA3     0.090000        1.0080           0
     29116 WT12     1154     MECN     C2       CG1N1    0.360000       12.0110           0
     29117 WT12     1154     MECN     N3       NG1T1   -0.460000       14.0070           0
     29118 WT12     1157     MECN     C1       CG331   -0.170000       12.0110           0
     29119 WT12     1157     MECN     H11      HGA3     0.090000        1.0080           0
     29120 WT12     1157     MECN     H12      HGA3     0.090000        1.0080           0
     29121 WT12     1157     MECN     H13      HGA3     0.090000        1.0080           0
     29122 WT12     1157     MECN     C2       CG1N1    0.360000       12.0110           0
     29123 WT12     1157     MECN     N3       NG1T1   -0.460000       14.0070           0
     29124 WT12     1164     MECN     C1       CG331   -0.170000       12.0110           0
     29125 WT12     1164     MECN     H11      HGA3     0.090000        1.0080           0
     29126 WT12     1164     MECN     H12      HGA3     0.090000        1.0080           0
     29127 WT12     1164     MECN     H13      HGA3     0.090000        1.0080           0
     29128 WT12     1164     MECN     C2       CG1N1    0.360000       12.0110           0
     29129 WT12     1164     MECN     N3       NG1T1   -0.460000       14.0070           0
     29130 WT12     1165     MECN     C1       CG331   -0.170000       12.0110           0
     29131 WT12     1165     MECN     H11      HGA3     0.090000        1.0080           0
     29132 WT12     1165     MECN     H12      HGA3     0.090000        1.0080           0
     29133 WT12     1165     MECN     H13      HGA3     0.090000        1.0080           0
     29134 WT12     1165     MECN     C2       CG1N1    0.360000       12.0110           0
     29135 WT12     1165     MECN     N3       NG1T1   -0.460000       14.0070           0
     29136 WT12     1166     MECN     C1       CG331   -0.170000       12.0110           0
     29137 WT12     1166     MECN     H11      HGA3     0.090000        1.0080           0
     29138 WT12     1166     MECN     H12      HGA3     0.090000        1.0080           0
     29139 WT12     1166     MECN     H13      HGA3     0.090000        1.0080           0
     29140 WT12     1166     MECN     C2       CG1N1    0.360000       12.0110           0
     29141 WT12     1166     MECN     N3       NG1T1   -0.460000       14.0070           0
     29142 WT12     1167     MECN     C1       CG331   -0.170000       12.0110           0
     29143 WT12     1167     MECN     H11      HGA3     0.090000        1.0080           0
     29144 WT12     1167     MECN     H12      HGA3     0.090000        1.0080           0
     29145 WT12     1167     MECN     H13      HGA3     0.090000        1.0080           0
     29146 WT12     1167     MECN     C2       CG1N1    0.360000       12.0110           0
     29147 WT12     1167     MECN     N3       NG1T1   -0.460000       14.0070           0
     29148 WT12     1169     MECN     C1       CG331   -0.170000       12.0110           0
     29149 WT12     1169     MECN     H11      HGA3     0.090000        1.0080           0
     29150 WT12     1169     MECN     H12      HGA3     0.090000        1.0080           0
     29151 WT12     1169     MECN     H13      HGA3     0.090000        1.0080           0
     29152 WT12     1169     MECN     C2       CG1N1    0.360000       12.0110           0
     29153 WT12     1169     MECN     N3       NG1T1   -0.460000       14.0070           0
     29154 WT12     1172     MECN     C1       CG331   -0.170000       12.0110           0
     29155 WT12     1172     MECN     H11      HGA3     0.090000        1.0080           0
     29156 WT12     1172     MECN     H12      HGA3     0.090000        1.0080           0
     29157 WT12     1172     MECN     H13      HGA3     0.090000        1.0080           0
     29158 WT12     1172     MECN     C2       CG1N1    0.360000       12.0110           0
     29159 WT12     1172     MECN     N3       NG1T1   -0.460000       14.0070           0
     29160 WT12     1173     MECN     C1       CG331   -0.170000       12.0110           0
     29161 WT12     1173     MECN     H11      HGA3     0.090000        1.0080           0
     29162 WT12     1173     MECN     H12      HGA3     0.090000        1.0080           0
     29163 WT12     1173     MECN     H13      HGA3     0.090000        1.0080           0
     29164 WT12     1173     MECN     C2       CG1N1    0.360000       12.0110           0
     29165 WT12     1173     MECN     N3       NG1T1   -0.460000       14.0070           0
     29166 WT12     1180     MECN     C1       CG331   -0.170000       12.0110           0
     29167 WT12     1180     MECN     H11      HGA3     0.090000        1.0080           0
     29168 WT12     1180     MECN     H12      HGA3     0.090000        1.0080           0
     29169 WT12     1180     MECN     H13      HGA3     0.090000        1.0080           0
     29170 WT12     1180     MECN     C2       CG1N1    0.360000       12.0110           0
     29171 WT12     1180     MECN     N3       NG1T1   -0.460000       14.0070           0
     29172 WT12     1186     MECN     C1       CG331   -0.170000       12.0110           0
     29173 WT12     1186     MECN     H11      HGA3     0.090000        1.0080           0
     29174 WT12     1186     MECN     H12      HGA3     0.090000        1.0080           0
     29175 WT12     1186     MECN     H13      HGA3     0.090000        1.0080           0
     29176 WT12     1186     MECN     C2       CG1N1    0.360000       12.0110           0
     29177 WT12     1186     MECN     N3       NG1T1   -0.460000       14.0070           0
     29178 WT12     1187     MECN     C1       CG331   -0.170000       12.0110           0
     29179 WT12     1187     MECN     H11      HGA3     0.090000        1.0080           0
     29180 WT12     1187     MECN     H12      HGA3     0.090000        1.0080           0
     29181 WT12     1187     MECN     H13      HGA3     0.090000        1.0080           0
     29182 WT12     1187     MECN     C2       CG1N1    0.360000       12.0110           0
     29183 WT12     1187     MECN     N3       NG1T1   -0.460000       14.0070           0
     29184 WT12     1189     MECN     C1       CG331   -0.170000       12.0110           0
     29185 WT12     1189     MECN     H11      HGA3     0.090000        1.0080           0
     29186 WT12     1189     MECN     H12      HGA3     0.090000        1.0080           0
     29187 WT12     1189     MECN     H13      HGA3     0.090000        1.0080           0
     29188 WT12     1189     MECN     C2       CG1N1    0.360000       12.0110           0
     29189 WT12     1189     MECN     N3       NG1T1   -0.460000       14.0070           0
     29190 WT12     1190     MECN     C1       CG331   -0.170000       12.0110           0
     29191 WT12     1190     MECN     H11      HGA3     0.090000        1.0080           0
     29192 WT12     1190     MECN     H12      HGA3     0.090000        1.0080           0
     29193 WT12     1190     MECN     H13      HGA3     0.090000        1.0080           0
     29194 WT12     1190     MECN     C2       CG1N1    0.360000       12.0110           0
     29195 WT12     1190     MECN     N3       NG1T1   -0.460000       14.0070           0
     29196 WT12     1192     MECN     C1       CG331   -0.170000       12.0110           0
     29197 WT12     1192     MECN     H11      HGA3     0.090000        1.0080           0
     29198 WT12     1192     MECN     H12      HGA3     0.090000        1.0080           0
     29199 WT12     1192     MECN     H13      HGA3     0.090000        1.0080           0
     29200 WT12     1192     MECN     C2       CG1N1    0.360000       12.0110           0
     29201 WT12     1192     MECN     N3       NG1T1   -0.460000       14.0070           0
     29202 WT12     1194     MECN     C1       CG331   -0.170000       12.0110           0
     29203 WT12     1194     MECN     H11      HGA3     0.090000        1.0080           0
     29204 WT12     1194     MECN     H12      HGA3     0.090000        1.0080           0
     29205 WT12     1194     MECN     H13      HGA3     0.090000        1.0080           0
     29206 WT12     1194     MECN     C2       CG1N1    0.360000       12.0110           0
     29207 WT12     1194     MECN     N3       NG1T1   -0.460000       14.0070           0
     29208 WT12     1198     MECN     C1       CG331   -0.170000       12.0110           0
     29209 WT12     1198     MECN     H11      HGA3     0.090000        1.0080           0
     29210 WT12     1198     MECN     H12      HGA3     0.090000        1.0080           0
     29211 WT12     1198     MECN     H13      HGA3     0.090000        1.0080           0
     29212 WT12     1198     MECN     C2       CG1N1    0.360000       12.0110           0
     29213 WT12     1198     MECN     N3       NG1T1   -0.460000       14.0070           0
     29214 WT12     1201     MECN     C1       CG331   -0.170000       12.0110           0
     29215 WT12     1201     MECN     H11      HGA3     0.090000        1.0080           0
     29216 WT12     1201     MECN     H12      HGA3     0.090000        1.0080           0
     29217 WT12     1201     MECN     H13      HGA3     0.090000        1.0080           0
     29218 WT12     1201     MECN     C2       CG1N1    0.360000       12.0110           0
     29219 WT12     1201     MECN     N3       NG1T1   -0.460000       14.0070           0
     29220 WT12     1202     MECN     C1       CG331   -0.170000       12.0110           0
     29221 WT12     1202     MECN     H11      HGA3     0.090000        1.0080           0
     29222 WT12     1202     MECN     H12      HGA3     0.090000        1.0080           0
     29223 WT12     1202     MECN     H13      HGA3     0.090000        1.0080           0
     29224 WT12     1202     MECN     C2       CG1N1    0.360000       12.0110           0
     29225 WT12     1202     MECN     N3       NG1T1   -0.460000       14.0070           0
     29226 WT12     1205     MECN     C1       CG331   -0.170000       12.0110           0
     29227 WT12     1205     MECN     H11      HGA3     0.090000        1.0080           0
     29228 WT12     1205     MECN     H12      HGA3     0.090000        1.0080           0
     29229 WT12     1205     MECN     H13      HGA3     0.090000        1.0080           0
     29230 WT12     1205     MECN     C2       CG1N1    0.360000       12.0110           0
     29231 WT12     1205     MECN     N3       NG1T1   -0.460000       14.0070           0
     29232 WT12     1207     MECN     C1       CG331   -0.170000       12.0110           0
     29233 WT12     1207     MECN     H11      HGA3     0.090000        1.0080           0
     29234 WT12     1207     MECN     H12      HGA3     0.090000        1.0080           0
     29235 WT12     1207     MECN     H13      HGA3     0.090000        1.0080           0
     29236 WT12     1207     MECN     C2       CG1N1    0.360000       12.0110           0
     29237 WT12     1207     MECN     N3       NG1T1   -0.460000       14.0070           0
     29238 WT12     1211     MECN     C1       CG331   -0.170000       12.0110           0
     29239 WT12     1211     MECN     H11      HGA3     0.090000        1.0080           0
     29240 WT12     1211     MECN     H12      HGA3     0.090000        1.0080           0
     29241 WT12     1211     MECN     H13      HGA3     0.090000        1.0080           0
     29242 WT12     1211     MECN     C2       CG1N1    0.360000       12.0110           0
     29243 WT12     1211     MECN     N3       NG1T1   -0.460000       14.0070           0
     29244 WT12     1212     MECN     C1       CG331   -0.170000       12.0110           0
     29245 WT12     1212     MECN     H11      HGA3     0.090000        1.0080           0
     29246 WT12     1212     MECN     H12      HGA3     0.090000        1.0080           0
     29247 WT12     1212     MECN     H13      HGA3     0.090000        1.0080           0
     29248 WT12     1212     MECN     C2       CG1N1    0.360000       12.0110           0
     29249 WT12     1212     MECN     N3       NG1T1   -0.460000       14.0070           0
     29250 WT12     1214     MECN     C1       CG331   -0.170000       12.0110           0
     29251 WT12     1214     MECN     H11      HGA3     0.090000        1.0080           0
     29252 WT12     1214     MECN     H12      HGA3     0.090000        1.0080           0
     29253 WT12     1214     MECN     H13      HGA3     0.090000        1.0080           0
     29254 WT12     1214     MECN     C2       CG1N1    0.360000       12.0110           0
     29255 WT12     1214     MECN     N3       NG1T1   -0.460000       14.0070           0
     29256 WT12     1215     MECN     C1       CG331   -0.170000       12.0110           0
     29257 WT12     1215     MECN     H11      HGA3     0.090000        1.0080           0
     29258 WT12     1215     MECN     H12      HGA3     0.090000        1.0080           0
     29259 WT12     1215     MECN     H13      HGA3     0.090000        1.0080           0
     29260 WT12     1215     MECN     C2       CG1N1    0.360000       12.0110           0
     29261 WT12     1215     MECN     N3       NG1T1   -0.460000       14.0070           0
     29262 WT12     1219     MECN     C1       CG331   -0.170000       12.0110           0
     29263 WT12     1219     MECN     H11      HGA3     0.090000        1.0080           0
     29264 WT12     1219     MECN     H12      HGA3     0.090000        1.0080           0
     29265 WT12     1219     MECN     H13      HGA3     0.090000        1.0080           0
     29266 WT12     1219     MECN     C2       CG1N1    0.360000       12.0110           0
     29267 WT12     1219     MECN     N3       NG1T1   -0.460000       14.0070           0
     29268 WT12     1220     MECN     C1       CG331   -0.170000       12.0110           0
     29269 WT12     1220     MECN     H11      HGA3     0.090000        1.0080           0
     29270 WT12     1220     MECN     H12      HGA3     0.090000        1.0080           0
     29271 WT12     1220     MECN     H13      HGA3     0.090000        1.0080           0
     29272 WT12     1220     MECN     C2       CG1N1    0.360000       12.0110           0
     29273 WT12     1220     MECN     N3       NG1T1   -0.460000       14.0070           0
     29274 WT12     1225     MECN     C1       CG331   -0.170000       12.0110           0
     29275 WT12     1225     MECN     H11      HGA3     0.090000        1.0080           0
     29276 WT12     1225     MECN     H12      HGA3     0.090000        1.0080           0
     29277 WT12     1225     MECN     H13      HGA3     0.090000        1.0080           0
     29278 WT12     1225     MECN     C2       CG1N1    0.360000       12.0110           0
     29279 WT12     1225     MECN     N3       NG1T1   -0.460000       14.0070           0
     29280 WT12     1226     MECN     C1       CG331   -0.170000       12.0110           0
     29281 WT12     1226     MECN     H11      HGA3     0.090000        1.0080           0
     29282 WT12     1226     MECN     H12      HGA3     0.090000        1.0080           0
     29283 WT12     1226     MECN     H13      HGA3     0.090000        1.0080           0
     29284 WT12     1226     MECN     C2       CG1N1    0.360000       12.0110           0
     29285 WT12     1226     MECN     N3       NG1T1   -0.460000       14.0070           0
     29286 WT12     1228     MECN     C1       CG331   -0.170000       12.0110           0
     29287 WT12     1228     MECN     H11      HGA3     0.090000        1.0080           0
     29288 WT12     1228     MECN     H12      HGA3     0.090000        1.0080           0
     29289 WT12     1228     MECN     H13      HGA3     0.090000        1.0080           0
     29290 WT12     1228     MECN     C2       CG1N1    0.360000       12.0110           0
     29291 WT12     1228     MECN     N3       NG1T1   -0.460000       14.0070           0
     29292 WT12     1231     MECN     C1       CG331   -0.170000       12.0110           0
     29293 WT12     1231     MECN     H11      HGA3     0.090000        1.0080           0
     29294 WT12     1231     MECN     H12      HGA3     0.090000        1.0080           0
     29295 WT12     1231     MECN     H13      HGA3     0.090000        1.0080           0
     29296 WT12     1231     MECN     C2       CG1N1    0.360000       12.0110           0
     29297 WT12     1231     MECN     N3       NG1T1   -0.460000       14.0070           0
     29298 WT12     1232     MECN     C1       CG331   -0.170000       12.0110           0
     29299 WT12     1232     MECN     H11      HGA3     0.090000        1.0080           0
     29300 WT12     1232     MECN     H12      HGA3     0.090000        1.0080           0
     29301 WT12     1232     MECN     H13      HGA3     0.090000        1.0080           0
     29302 WT12     1232     MECN     C2       CG1N1    0.360000       12.0110           0
     29303 WT12     1232     MECN     N3       NG1T1   -0.460000       14.0070           0
     29304 WT12     1233     MECN     C1       CG331   -0.170000       12.0110           0
     29305 WT12     1233     MECN     H11      HGA3     0.090000        1.0080           0
     29306 WT12     1233     MECN     H12      HGA3     0.090000        1.0080           0
     29307 WT12     1233     MECN     H13      HGA3     0.090000        1.0080           0
     29308 WT12     1233     MECN     C2       CG1N1    0.360000       12.0110           0
     29309 WT12     1233     MECN     N3       NG1T1   -0.460000       14.0070           0
     29310 WT12     1236     MECN     C1       CG331   -0.170000       12.0110           0
     29311 WT12     1236     MECN     H11      HGA3     0.090000        1.0080           0
     29312 WT12     1236     MECN     H12      HGA3     0.090000        1.0080           0
     29313 WT12     1236     MECN     H13      HGA3     0.090000        1.0080           0
     29314 WT12     1236     MECN     C2       CG1N1    0.360000       12.0110           0
     29315 WT12     1236     MECN     N3       NG1T1   -0.460000       14.0070           0
     29316 WT12     1238     MECN     C1       CG331   -0.170000       12.0110           0
     29317 WT12     1238     MECN     H11      HGA3     0.090000        1.0080           0
     29318 WT12     1238     MECN     H12      HGA3     0.090000        1.0080           0
     29319 WT12     1238     MECN     H13      HGA3     0.090000        1.0080           0
     29320 WT12     1238     MECN     C2       CG1N1    0.360000       12.0110           0
     29321 WT12     1238     MECN     N3       NG1T1   -0.460000       14.0070           0
     29322 WT12     1242     MECN     C1       CG331   -0.170000       12.0110           0
     29323 WT12     1242     MECN     H11      HGA3     0.090000        1.0080           0
     29324 WT12     1242     MECN     H12      HGA3     0.090000        1.0080           0
     29325 WT12     1242     MECN     H13      HGA3     0.090000        1.0080           0
     29326 WT12     1242     MECN     C2       CG1N1    0.360000       12.0110           0
     29327 WT12     1242     MECN     N3       NG1T1   -0.460000       14.0070           0
     29328 WT12     1245     MECN     C1       CG331   -0.170000       12.0110           0
     29329 WT12     1245     MECN     H11      HGA3     0.090000        1.0080           0
     29330 WT12     1245     MECN     H12      HGA3     0.090000        1.0080           0
     29331 WT12     1245     MECN     H13      HGA3     0.090000        1.0080           0
     29332 WT12     1245     MECN     C2       CG1N1    0.360000       12.0110           0
     29333 WT12     1245     MECN     N3       NG1T1   -0.460000       14.0070           0
     29334 WT12     1246     MECN     C1       CG331   -0.170000       12.0110           0
     29335 WT12     1246     MECN     H11      HGA3     0.090000        1.0080           0
     29336 WT12     1246     MECN     H12      HGA3     0.090000        1.0080           0
     29337 WT12     1246     MECN     H13      HGA3     0.090000        1.0080           0
     29338 WT12     1246     MECN     C2       CG1N1    0.360000       12.0110           0
     29339 WT12     1246     MECN     N3       NG1T1   -0.460000       14.0070           0
     29340 WT12     1247     MECN     C1       CG331   -0.170000       12.0110           0
     29341 WT12     1247     MECN     H11      HGA3     0.090000        1.0080           0
     29342 WT12     1247     MECN     H12      HGA3     0.090000        1.0080           0
     29343 WT12     1247     MECN     H13      HGA3     0.090000        1.0080           0
     29344 WT12     1247     MECN     C2       CG1N1    0.360000       12.0110           0
     29345 WT12     1247     MECN     N3       NG1T1   -0.460000       14.0070           0
     29346 WT12     1252     MECN     C1       CG331   -0.170000       12.0110           0
     29347 WT12     1252     MECN     H11      HGA3     0.090000        1.0080           0
     29348 WT12     1252     MECN     H12      HGA3     0.090000        1.0080           0
     29349 WT12     1252     MECN     H13      HGA3     0.090000        1.0080           0
     29350 WT12     1252     MECN     C2       CG1N1    0.360000       12.0110           0
     29351 WT12     1252     MECN     N3       NG1T1   -0.460000       14.0070           0
     29352 WT12     1255     MECN     C1       CG331   -0.170000       12.0110           0
     29353 WT12     1255     MECN     H11      HGA3     0.090000        1.0080           0
     29354 WT12     1255     MECN     H12      HGA3     0.090000        1.0080           0
     29355 WT12     1255     MECN     H13      HGA3     0.090000        1.0080           0
     29356 WT12     1255     MECN     C2       CG1N1    0.360000       12.0110           0
     29357 WT12     1255     MECN     N3       NG1T1   -0.460000       14.0070           0
     29358 WT12     1256     MECN     C1       CG331   -0.170000       12.0110           0
     29359 WT12     1256     MECN     H11      HGA3     0.090000        1.0080           0
     29360 WT12     1256     MECN     H12      HGA3     0.090000        1.0080           0
     29361 WT12     1256     MECN     H13      HGA3     0.090000        1.0080           0
     29362 WT12     1256     MECN     C2       CG1N1    0.360000       12.0110           0
     29363 WT12     1256     MECN     N3       NG1T1   -0.460000       14.0070           0
     29364 WT12     1259     MECN     C1       CG331   -0.170000       12.0110           0
     29365 WT12     1259     MECN     H11      HGA3     0.090000        1.0080           0
     29366 WT12     1259     MECN     H12      HGA3     0.090000        1.0080           0
     29367 WT12     1259     MECN     H13      HGA3     0.090000        1.0080           0
     29368 WT12     1259     MECN     C2       CG1N1    0.360000       12.0110           0
     29369 WT12     1259     MECN     N3       NG1T1   -0.460000       14.0070           0
     29370 WT12     1266     MECN     C1       CG331   -0.170000       12.0110           0
     29371 WT12     1266     MECN     H11      HGA3     0.090000        1.0080           0
     29372 WT12     1266     MECN     H12      HGA3     0.090000        1.0080           0
     29373 WT12     1266     MECN     H13      HGA3     0.090000        1.0080           0
     29374 WT12     1266     MECN     C2       CG1N1    0.360000       12.0110           0
     29375 WT12     1266     MECN     N3       NG1T1   -0.460000       14.0070           0
     29376 WT12     1269     MECN     C1       CG331   -0.170000       12.0110           0
     29377 WT12     1269     MECN     H11      HGA3     0.090000        1.0080           0
     29378 WT12     1269     MECN     H12      HGA3     0.090000        1.0080           0
     29379 WT12     1269     MECN     H13      HGA3     0.090000        1.0080           0
     29380 WT12     1269     MECN     C2       CG1N1    0.360000       12.0110           0
     29381 WT12     1269     MECN     N3       NG1T1   -0.460000       14.0070           0
     29382 WT12     1272     MECN     C1       CG331   -0.170000       12.0110           0
     29383 WT12     1272     MECN     H11      HGA3     0.090000        1.0080           0
     29384 WT12     1272     MECN     H12      HGA3     0.090000        1.0080           0
     29385 WT12     1272     MECN     H13      HGA3     0.090000        1.0080           0
     29386 WT12     1272     MECN     C2       CG1N1    0.360000       12.0110           0
     29387 WT12     1272     MECN     N3       NG1T1   -0.460000       14.0070           0
     29388 WT12     1275     MECN     C1       CG331   -0.170000       12.0110           0
     29389 WT12     1275     MECN     H11      HGA3     0.090000        1.0080           0
     29390 WT12     1275     MECN     H12      HGA3     0.090000        1.0080           0
     29391 WT12     1275     MECN     H13      HGA3     0.090000        1.0080           0
     29392 WT12     1275     MECN     C2       CG1N1    0.360000       12.0110           0
     29393 WT12     1275     MECN     N3       NG1T1   -0.460000       14.0070           0
     29394 WT12     1278     MECN     C1       CG331   -0.170000       12.0110           0
     29395 WT12     1278     MECN     H11      HGA3     0.090000        1.0080           0
     29396 WT12     1278     MECN     H12      HGA3     0.090000        1.0080           0
     29397 WT12     1278     MECN     H13      HGA3     0.090000        1.0080           0
     29398 WT12     1278     MECN     C2       CG1N1    0.360000       12.0110           0
     29399 WT12     1278     MECN     N3       NG1T1   -0.460000       14.0070           0
     29400 WT12     1279     MECN     C1       CG331   -0.170000       12.0110           0
     29401 WT12     1279     MECN     H11      HGA3     0.090000        1.0080           0
     29402 WT12     1279     MECN     H12      HGA3     0.090000        1.0080           0
     29403 WT12     1279     MECN     H13      HGA3     0.090000        1.0080           0
     29404 WT12     1279     MECN     C2       CG1N1    0.360000       12.0110           0
     29405 WT12     1279     MECN     N3       NG1T1   -0.460000       14.0070           0
     29406 WT12     1280     MECN     C1       CG331   -0.170000       12.0110           0
     29407 WT12     1280     MECN     H11      HGA3     0.090000        1.0080           0
     29408 WT12     1280     MECN     H12      HGA3     0.090000        1.0080           0
     29409 WT12     1280     MECN     H13      HGA3     0.090000        1.0080           0
     29410 WT12     1280     MECN     C2       CG1N1    0.360000       12.0110           0
     29411 WT12     1280     MECN     N3       NG1T1   -0.460000       14.0070           0
     29412 WT12     1282     MECN     C1       CG331   -0.170000       12.0110           0
     29413 WT12     1282     MECN     H11      HGA3     0.090000        1.0080           0
     29414 WT12     1282     MECN     H12      HGA3     0.090000        1.0080           0
     29415 WT12     1282     MECN     H13      HGA3     0.090000        1.0080           0
     29416 WT12     1282     MECN     C2       CG1N1    0.360000       12.0110           0
     29417 WT12     1282     MECN     N3       NG1T1   -0.460000       14.0070           0
     29418 WT12     1285     MECN     C1       CG331   -0.170000       12.0110           0
     29419 WT12     1285     MECN     H11      HGA3     0.090000        1.0080           0
     29420 WT12     1285     MECN     H12      HGA3     0.090000        1.0080           0
     29421 WT12     1285     MECN     H13      HGA3     0.090000        1.0080           0
     29422 WT12     1285     MECN     C2       CG1N1    0.360000       12.0110           0
     29423 WT12     1285     MECN     N3       NG1T1   -0.460000       14.0070           0
     29424 WT12     1288     MECN     C1       CG331   -0.170000       12.0110           0
     29425 WT12     1288     MECN     H11      HGA3     0.090000        1.0080           0
     29426 WT12     1288     MECN     H12      HGA3     0.090000        1.0080           0
     29427 WT12     1288     MECN     H13      HGA3     0.090000        1.0080           0
     29428 WT12     1288     MECN     C2       CG1N1    0.360000       12.0110           0
     29429 WT12     1288     MECN     N3       NG1T1   -0.460000       14.0070           0
     29430 WT12     1290     MECN     C1       CG331   -0.170000       12.0110           0
     29431 WT12     1290     MECN     H11      HGA3     0.090000        1.0080           0
     29432 WT12     1290     MECN     H12      HGA3     0.090000        1.0080           0
     29433 WT12     1290     MECN     H13      HGA3     0.090000        1.0080           0
     29434 WT12     1290     MECN     C2       CG1N1    0.360000       12.0110           0
     29435 WT12     1290     MECN     N3       NG1T1   -0.460000       14.0070           0
     29436 WT12     1291     MECN     C1       CG331   -0.170000       12.0110           0
     29437 WT12     1291     MECN     H11      HGA3     0.090000        1.0080           0
     29438 WT12     1291     MECN     H12      HGA3     0.090000        1.0080           0
     29439 WT12     1291     MECN     H13      HGA3     0.090000        1.0080           0
     29440 WT12     1291     MECN     C2       CG1N1    0.360000       12.0110           0
     29441 WT12     1291     MECN     N3       NG1T1   -0.460000       14.0070           0
     29442 WT12     1296     MECN     C1       CG331   -0.170000       12.0110           0
     29443 WT12     1296     MECN     H11      HGA3     0.090000        1.0080           0
     29444 WT12     1296     MECN     H12      HGA3     0.090000        1.0080           0
     29445 WT12     1296     MECN     H13      HGA3     0.090000        1.0080           0
     29446 WT12     1296     MECN     C2       CG1N1    0.360000       12.0110           0
     29447 WT12     1296     MECN     N3       NG1T1   -0.460000       14.0070           0
     29448 WT12     1299     MECN     C1       CG331   -0.170000       12.0110           0
     29449 WT12     1299     MECN     H11      HGA3     0.090000        1.0080           0
     29450 WT12     1299     MECN     H12      HGA3     0.090000        1.0080           0
     29451 WT12     1299     MECN     H13      HGA3     0.090000        1.0080           0
     29452 WT12     1299     MECN     C2       CG1N1    0.360000       12.0110           0
     29453 WT12     1299     MECN     N3       NG1T1   -0.460000       14.0070           0
     29454 WT12     1302     MECN     C1       CG331   -0.170000       12.0110           0
     29455 WT12     1302     MECN     H11      HGA3     0.090000        1.0080           0
     29456 WT12     1302     MECN     H12      HGA3     0.090000        1.0080           0
     29457 WT12     1302     MECN     H13      HGA3     0.090000        1.0080           0
     29458 WT12     1302     MECN     C2       CG1N1    0.360000       12.0110           0
     29459 WT12     1302     MECN     N3       NG1T1   -0.460000       14.0070           0
     29460 WT12     1308     MECN     C1       CG331   -0.170000       12.0110           0
     29461 WT12     1308     MECN     H11      HGA3     0.090000        1.0080           0
     29462 WT12     1308     MECN     H12      HGA3     0.090000        1.0080           0
     29463 WT12     1308     MECN     H13      HGA3     0.090000        1.0080           0
     29464 WT12     1308     MECN     C2       CG1N1    0.360000       12.0110           0
     29465 WT12     1308     MECN     N3       NG1T1   -0.460000       14.0070           0
     29466 WT12     1311     MECN     C1       CG331   -0.170000       12.0110           0
     29467 WT12     1311     MECN     H11      HGA3     0.090000        1.0080           0
     29468 WT12     1311     MECN     H12      HGA3     0.090000        1.0080           0
     29469 WT12     1311     MECN     H13      HGA3     0.090000        1.0080           0
     29470 WT12     1311     MECN     C2       CG1N1    0.360000       12.0110           0
     29471 WT12     1311     MECN     N3       NG1T1   -0.460000       14.0070           0
     29472 WT12     1312     MECN     C1       CG331   -0.170000       12.0110           0
     29473 WT12     1312     MECN     H11      HGA3     0.090000        1.0080           0
     29474 WT12     1312     MECN     H12      HGA3     0.090000        1.0080           0
     29475 WT12     1312     MECN     H13      HGA3     0.090000        1.0080           0
     29476 WT12     1312     MECN     C2       CG1N1    0.360000       12.0110           0
     29477 WT12     1312     MECN     N3       NG1T1   -0.460000       14.0070           0
     29478 WT12     1313     MECN     C1       CG331   -0.170000       12.0110           0
     29479 WT12     1313     MECN     H11      HGA3     0.090000        1.0080           0
     29480 WT12     1313     MECN     H12      HGA3     0.090000        1.0080           0
     29481 WT12     1313     MECN     H13      HGA3     0.090000        1.0080           0
     29482 WT12     1313     MECN     C2       CG1N1    0.360000       12.0110           0
     29483 WT12     1313     MECN     N3       NG1T1   -0.460000       14.0070           0
     29484 WT12     1320     MECN     C1       CG331   -0.170000       12.0110           0
     29485 WT12     1320     MECN     H11      HGA3     0.090000        1.0080           0
     29486 WT12     1320     MECN     H12      HGA3     0.090000        1.0080           0
     29487 WT12     1320     MECN     H13      HGA3     0.090000        1.0080           0
     29488 WT12     1320     MECN     C2       CG1N1    0.360000       12.0110           0
     29489 WT12     1320     MECN     N3       NG1T1   -0.460000       14.0070           0
     29490 WT12     1321     MECN     C1       CG331   -0.170000       12.0110           0
     29491 WT12     1321     MECN     H11      HGA3     0.090000        1.0080           0
     29492 WT12     1321     MECN     H12      HGA3     0.090000        1.0080           0
     29493 WT12     1321     MECN     H13      HGA3     0.090000        1.0080           0
     29494 WT12     1321     MECN     C2       CG1N1    0.360000       12.0110           0
     29495 WT12     1321     MECN     N3       NG1T1   -0.460000       14.0070           0
     29496 WT12     1322     MECN     C1       CG331   -0.170000       12.0110           0
     29497 WT12     1322     MECN     H11      HGA3     0.090000        1.0080           0
     29498 WT12     1322     MECN     H12      HGA3     0.090000        1.0080           0
     29499 WT12     1322     MECN     H13      HGA3     0.090000        1.0080           0
     29500 WT12     1322     MECN     C2       CG1N1    0.360000       12.0110           0
     29501 WT12     1322     MECN     N3       NG1T1   -0.460000       14.0070           0
     29502 WT12     1323     MECN     C1       CG331   -0.170000       12.0110           0
     29503 WT12     1323     MECN     H11      HGA3     0.090000        1.0080           0
     29504 WT12     1323     MECN     H12      HGA3     0.090000        1.0080           0
     29505 WT12     1323     MECN     H13      HGA3     0.090000        1.0080           0
     29506 WT12     1323     MECN     C2       CG1N1    0.360000       12.0110           0
     29507 WT12     1323     MECN     N3       NG1T1   -0.460000       14.0070           0
     29508 WT12     1327     MECN     C1       CG331   -0.170000       12.0110           0
     29509 WT12     1327     MECN     H11      HGA3     0.090000        1.0080           0
     29510 WT12     1327     MECN     H12      HGA3     0.090000        1.0080           0
     29511 WT12     1327     MECN     H13      HGA3     0.090000        1.0080           0
     29512 WT12     1327     MECN     C2       CG1N1    0.360000       12.0110           0
     29513 WT12     1327     MECN     N3       NG1T1   -0.460000       14.0070           0
     29514 WT12     1330     MECN     C1       CG331   -0.170000       12.0110           0
     29515 WT12     1330     MECN     H11      HGA3     0.090000        1.0080           0
     29516 WT12     1330     MECN     H12      HGA3     0.090000        1.0080           0
     29517 WT12     1330     MECN     H13      HGA3     0.090000        1.0080           0
     29518 WT12     1330     MECN     C2       CG1N1    0.360000       12.0110           0
     29519 WT12     1330     MECN     N3       NG1T1   -0.460000       14.0070           0
     29520 WT13     1        MECN     C1       CG331   -0.170000       12.0110           0
     29521 WT13     1        MECN     H11      HGA3     0.090000        1.0080           0
     29522 WT13     1        MECN     H12      HGA3     0.090000        1.0080           0
     29523 WT13     1        MECN     H13      HGA3     0.090000        1.0080           0
     29524 WT13     1        MECN     C2       CG1N1    0.360000       12.0110           0
     29525 WT13     1        MECN     N3       NG1T1   -0.460000       14.0070           0
     29526 WT13     4        MECN     C1       CG331   -0.170000       12.0110           0
     29527 WT13     4        MECN     H11      HGA3     0.090000        1.0080           0
     29528 WT13     4        MECN     H12      HGA3     0.090000        1.0080           0
     29529 WT13     4        MECN     H13      HGA3     0.090000        1.0080           0
     29530 WT13     4        MECN     C2       CG1N1    0.360000       12.0110           0
     29531 WT13     4        MECN     N3       NG1T1   -0.460000       14.0070           0
     29532 WT13     7        MECN     C1       CG331   -0.170000       12.0110           0
     29533 WT13     7        MECN     H11      HGA3     0.090000        1.0080           0
     29534 WT13     7        MECN     H12      HGA3     0.090000        1.0080           0
     29535 WT13     7        MECN     H13      HGA3     0.090000        1.0080           0
     29536 WT13     7        MECN     C2       CG1N1    0.360000       12.0110           0
     29537 WT13     7        MECN     N3       NG1T1   -0.460000       14.0070           0
     29538 WT13     8        MECN     C1       CG331   -0.170000       12.0110           0
     29539 WT13     8        MECN     H11      HGA3     0.090000        1.0080           0
     29540 WT13     8        MECN     H12      HGA3     0.090000        1.0080           0
     29541 WT13     8        MECN     H13      HGA3     0.090000        1.0080           0
     29542 WT13     8        MECN     C2       CG1N1    0.360000       12.0110           0
     29543 WT13     8        MECN     N3       NG1T1   -0.460000       14.0070           0
     29544 WT13     9        MECN     C1       CG331   -0.170000       12.0110           0
     29545 WT13     9        MECN     H11      HGA3     0.090000        1.0080           0
     29546 WT13     9        MECN     H12      HGA3     0.090000        1.0080           0
     29547 WT13     9        MECN     H13      HGA3     0.090000        1.0080           0
     29548 WT13     9        MECN     C2       CG1N1    0.360000       12.0110           0
     29549 WT13     9        MECN     N3       NG1T1   -0.460000       14.0070           0
     29550 WT13     16       MECN     C1       CG331   -0.170000       12.0110           0
     29551 WT13     16       MECN     H11      HGA3     0.090000        1.0080           0
     29552 WT13     16       MECN     H12      HGA3     0.090000        1.0080           0
     29553 WT13     16       MECN     H13      HGA3     0.090000        1.0080           0
     29554 WT13     16       MECN     C2       CG1N1    0.360000       12.0110           0
     29555 WT13     16       MECN     N3       NG1T1   -0.460000       14.0070           0
     29556 WT13     17       MECN     C1       CG331   -0.170000       12.0110           0
     29557 WT13     17       MECN     H11      HGA3     0.090000        1.0080           0
     29558 WT13     17       MECN     H12      HGA3     0.090000        1.0080           0
     29559 WT13     17       MECN     H13      HGA3     0.090000        1.0080           0
     29560 WT13     17       MECN     C2       CG1N1    0.360000       12.0110           0
     29561 WT13     17       MECN     N3       NG1T1   -0.460000       14.0070           0
     29562 WT13     23       MECN     C1       CG331   -0.170000       12.0110           0
     29563 WT13     23       MECN     H11      HGA3     0.090000        1.0080           0
     29564 WT13     23       MECN     H12      HGA3     0.090000        1.0080           0
     29565 WT13     23       MECN     H13      HGA3     0.090000        1.0080           0
     29566 WT13     23       MECN     C2       CG1N1    0.360000       12.0110           0
     29567 WT13     23       MECN     N3       NG1T1   -0.460000       14.0070           0
     29568 WT13     25       MECN     C1       CG331   -0.170000       12.0110           0
     29569 WT13     25       MECN     H11      HGA3     0.090000        1.0080           0
     29570 WT13     25       MECN     H12      HGA3     0.090000        1.0080           0
     29571 WT13     25       MECN     H13      HGA3     0.090000        1.0080           0
     29572 WT13     25       MECN     C2       CG1N1    0.360000       12.0110           0
     29573 WT13     25       MECN     N3       NG1T1   -0.460000       14.0070           0
     29574 WT13     31       MECN     C1       CG331   -0.170000       12.0110           0
     29575 WT13     31       MECN     H11      HGA3     0.090000        1.0080           0
     29576 WT13     31       MECN     H12      HGA3     0.090000        1.0080           0
     29577 WT13     31       MECN     H13      HGA3     0.090000        1.0080           0
     29578 WT13     31       MECN     C2       CG1N1    0.360000       12.0110           0
     29579 WT13     31       MECN     N3       NG1T1   -0.460000       14.0070           0
     29580 WT13     33       MECN     C1       CG331   -0.170000       12.0110           0
     29581 WT13     33       MECN     H11      HGA3     0.090000        1.0080           0
     29582 WT13     33       MECN     H12      HGA3     0.090000        1.0080           0
     29583 WT13     33       MECN     H13      HGA3     0.090000        1.0080           0
     29584 WT13     33       MECN     C2       CG1N1    0.360000       12.0110           0
     29585 WT13     33       MECN     N3       NG1T1   -0.460000       14.0070           0
     29586 WT13     34       MECN     C1       CG331   -0.170000       12.0110           0
     29587 WT13     34       MECN     H11      HGA3     0.090000        1.0080           0
     29588 WT13     34       MECN     H12      HGA3     0.090000        1.0080           0
     29589 WT13     34       MECN     H13      HGA3     0.090000        1.0080           0
     29590 WT13     34       MECN     C2       CG1N1    0.360000       12.0110           0
     29591 WT13     34       MECN     N3       NG1T1   -0.460000       14.0070           0
     29592 WT13     36       MECN     C1       CG331   -0.170000       12.0110           0
     29593 WT13     36       MECN     H11      HGA3     0.090000        1.0080           0
     29594 WT13     36       MECN     H12      HGA3     0.090000        1.0080           0
     29595 WT13     36       MECN     H13      HGA3     0.090000        1.0080           0
     29596 WT13     36       MECN     C2       CG1N1    0.360000       12.0110           0
     29597 WT13     36       MECN     N3       NG1T1   -0.460000       14.0070           0
     29598 WT13     37       MECN     C1       CG331   -0.170000       12.0110           0
     29599 WT13     37       MECN     H11      HGA3     0.090000        1.0080           0
     29600 WT13     37       MECN     H12      HGA3     0.090000        1.0080           0
     29601 WT13     37       MECN     H13      HGA3     0.090000        1.0080           0
     29602 WT13     37       MECN     C2       CG1N1    0.360000       12.0110           0
     29603 WT13     37       MECN     N3       NG1T1   -0.460000       14.0070           0
     29604 WT13     38       MECN     C1       CG331   -0.170000       12.0110           0
     29605 WT13     38       MECN     H11      HGA3     0.090000        1.0080           0
     29606 WT13     38       MECN     H12      HGA3     0.090000        1.0080           0
     29607 WT13     38       MECN     H13      HGA3     0.090000        1.0080           0
     29608 WT13     38       MECN     C2       CG1N1    0.360000       12.0110           0
     29609 WT13     38       MECN     N3       NG1T1   -0.460000       14.0070           0
     29610 WT13     39       MECN     C1       CG331   -0.170000       12.0110           0
     29611 WT13     39       MECN     H11      HGA3     0.090000        1.0080           0
     29612 WT13     39       MECN     H12      HGA3     0.090000        1.0080           0
     29613 WT13     39       MECN     H13      HGA3     0.090000        1.0080           0
     29614 WT13     39       MECN     C2       CG1N1    0.360000       12.0110           0
     29615 WT13     39       MECN     N3       NG1T1   -0.460000       14.0070           0
     29616 WT13     42       MECN     C1       CG331   -0.170000       12.0110           0
     29617 WT13     42       MECN     H11      HGA3     0.090000        1.0080           0
     29618 WT13     42       MECN     H12      HGA3     0.090000        1.0080           0
     29619 WT13     42       MECN     H13      HGA3     0.090000        1.0080           0
     29620 WT13     42       MECN     C2       CG1N1    0.360000       12.0110           0
     29621 WT13     42       MECN     N3       NG1T1   -0.460000       14.0070           0
     29622 WT13     43       MECN     C1       CG331   -0.170000       12.0110           0
     29623 WT13     43       MECN     H11      HGA3     0.090000        1.0080           0
     29624 WT13     43       MECN     H12      HGA3     0.090000        1.0080           0
     29625 WT13     43       MECN     H13      HGA3     0.090000        1.0080           0
     29626 WT13     43       MECN     C2       CG1N1    0.360000       12.0110           0
     29627 WT13     43       MECN     N3       NG1T1   -0.460000       14.0070           0
     29628 WT13     45       MECN     C1       CG331   -0.170000       12.0110           0
     29629 WT13     45       MECN     H11      HGA3     0.090000        1.0080           0
     29630 WT13     45       MECN     H12      HGA3     0.090000        1.0080           0
     29631 WT13     45       MECN     H13      HGA3     0.090000        1.0080           0
     29632 WT13     45       MECN     C2       CG1N1    0.360000       12.0110           0
     29633 WT13     45       MECN     N3       NG1T1   -0.460000       14.0070           0
     29634 WT13     46       MECN     C1       CG331   -0.170000       12.0110           0
     29635 WT13     46       MECN     H11      HGA3     0.090000        1.0080           0
     29636 WT13     46       MECN     H12      HGA3     0.090000        1.0080           0
     29637 WT13     46       MECN     H13      HGA3     0.090000        1.0080           0
     29638 WT13     46       MECN     C2       CG1N1    0.360000       12.0110           0
     29639 WT13     46       MECN     N3       NG1T1   -0.460000       14.0070           0
     29640 WT13     50       MECN     C1       CG331   -0.170000       12.0110           0
     29641 WT13     50       MECN     H11      HGA3     0.090000        1.0080           0
     29642 WT13     50       MECN     H12      HGA3     0.090000        1.0080           0
     29643 WT13     50       MECN     H13      HGA3     0.090000        1.0080           0
     29644 WT13     50       MECN     C2       CG1N1    0.360000       12.0110           0
     29645 WT13     50       MECN     N3       NG1T1   -0.460000       14.0070           0
     29646 WT13     52       MECN     C1       CG331   -0.170000       12.0110           0
     29647 WT13     52       MECN     H11      HGA3     0.090000        1.0080           0
     29648 WT13     52       MECN     H12      HGA3     0.090000        1.0080           0
     29649 WT13     52       MECN     H13      HGA3     0.090000        1.0080           0
     29650 WT13     52       MECN     C2       CG1N1    0.360000       12.0110           0
     29651 WT13     52       MECN     N3       NG1T1   -0.460000       14.0070           0
     29652 WT13     54       MECN     C1       CG331   -0.170000       12.0110           0
     29653 WT13     54       MECN     H11      HGA3     0.090000        1.0080           0
     29654 WT13     54       MECN     H12      HGA3     0.090000        1.0080           0
     29655 WT13     54       MECN     H13      HGA3     0.090000        1.0080           0
     29656 WT13     54       MECN     C2       CG1N1    0.360000       12.0110           0
     29657 WT13     54       MECN     N3       NG1T1   -0.460000       14.0070           0
     29658 WT13     56       MECN     C1       CG331   -0.170000       12.0110           0
     29659 WT13     56       MECN     H11      HGA3     0.090000        1.0080           0
     29660 WT13     56       MECN     H12      HGA3     0.090000        1.0080           0
     29661 WT13     56       MECN     H13      HGA3     0.090000        1.0080           0
     29662 WT13     56       MECN     C2       CG1N1    0.360000       12.0110           0
     29663 WT13     56       MECN     N3       NG1T1   -0.460000       14.0070           0
     29664 WT13     57       MECN     C1       CG331   -0.170000       12.0110           0
     29665 WT13     57       MECN     H11      HGA3     0.090000        1.0080           0
     29666 WT13     57       MECN     H12      HGA3     0.090000        1.0080           0
     29667 WT13     57       MECN     H13      HGA3     0.090000        1.0080           0
     29668 WT13     57       MECN     C2       CG1N1    0.360000       12.0110           0
     29669 WT13     57       MECN     N3       NG1T1   -0.460000       14.0070           0
     29670 WT13     58       MECN     C1       CG331   -0.170000       12.0110           0
     29671 WT13     58       MECN     H11      HGA3     0.090000        1.0080           0
     29672 WT13     58       MECN     H12      HGA3     0.090000        1.0080           0
     29673 WT13     58       MECN     H13      HGA3     0.090000        1.0080           0
     29674 WT13     58       MECN     C2       CG1N1    0.360000       12.0110           0
     29675 WT13     58       MECN     N3       NG1T1   -0.460000       14.0070           0
     29676 WT13     59       MECN     C1       CG331   -0.170000       12.0110           0
     29677 WT13     59       MECN     H11      HGA3     0.090000        1.0080           0
     29678 WT13     59       MECN     H12      HGA3     0.090000        1.0080           0
     29679 WT13     59       MECN     H13      HGA3     0.090000        1.0080           0
     29680 WT13     59       MECN     C2       CG1N1    0.360000       12.0110           0
     29681 WT13     59       MECN     N3       NG1T1   -0.460000       14.0070           0
     29682 WT13     60       MECN     C1       CG331   -0.170000       12.0110           0
     29683 WT13     60       MECN     H11      HGA3     0.090000        1.0080           0
     29684 WT13     60       MECN     H12      HGA3     0.090000        1.0080           0
     29685 WT13     60       MECN     H13      HGA3     0.090000        1.0080           0
     29686 WT13     60       MECN     C2       CG1N1    0.360000       12.0110           0
     29687 WT13     60       MECN     N3       NG1T1   -0.460000       14.0070           0
     29688 WT13     62       MECN     C1       CG331   -0.170000       12.0110           0
     29689 WT13     62       MECN     H11      HGA3     0.090000        1.0080           0
     29690 WT13     62       MECN     H12      HGA3     0.090000        1.0080           0
     29691 WT13     62       MECN     H13      HGA3     0.090000        1.0080           0
     29692 WT13     62       MECN     C2       CG1N1    0.360000       12.0110           0
     29693 WT13     62       MECN     N3       NG1T1   -0.460000       14.0070           0
     29694 WT13     63       MECN     C1       CG331   -0.170000       12.0110           0
     29695 WT13     63       MECN     H11      HGA3     0.090000        1.0080           0
     29696 WT13     63       MECN     H12      HGA3     0.090000        1.0080           0
     29697 WT13     63       MECN     H13      HGA3     0.090000        1.0080           0
     29698 WT13     63       MECN     C2       CG1N1    0.360000       12.0110           0
     29699 WT13     63       MECN     N3       NG1T1   -0.460000       14.0070           0
     29700 WT13     71       MECN     C1       CG331   -0.170000       12.0110           0
     29701 WT13     71       MECN     H11      HGA3     0.090000        1.0080           0
     29702 WT13     71       MECN     H12      HGA3     0.090000        1.0080           0
     29703 WT13     71       MECN     H13      HGA3     0.090000        1.0080           0
     29704 WT13     71       MECN     C2       CG1N1    0.360000       12.0110           0
     29705 WT13     71       MECN     N3       NG1T1   -0.460000       14.0070           0
     29706 WT13     72       MECN     C1       CG331   -0.170000       12.0110           0
     29707 WT13     72       MECN     H11      HGA3     0.090000        1.0080           0
     29708 WT13     72       MECN     H12      HGA3     0.090000        1.0080           0
     29709 WT13     72       MECN     H13      HGA3     0.090000        1.0080           0
     29710 WT13     72       MECN     C2       CG1N1    0.360000       12.0110           0
     29711 WT13     72       MECN     N3       NG1T1   -0.460000       14.0070           0
     29712 WT13     73       MECN     C1       CG331   -0.170000       12.0110           0
     29713 WT13     73       MECN     H11      HGA3     0.090000        1.0080           0
     29714 WT13     73       MECN     H12      HGA3     0.090000        1.0080           0
     29715 WT13     73       MECN     H13      HGA3     0.090000        1.0080           0
     29716 WT13     73       MECN     C2       CG1N1    0.360000       12.0110           0
     29717 WT13     73       MECN     N3       NG1T1   -0.460000       14.0070           0
     29718 WT13     75       MECN     C1       CG331   -0.170000       12.0110           0
     29719 WT13     75       MECN     H11      HGA3     0.090000        1.0080           0
     29720 WT13     75       MECN     H12      HGA3     0.090000        1.0080           0
     29721 WT13     75       MECN     H13      HGA3     0.090000        1.0080           0
     29722 WT13     75       MECN     C2       CG1N1    0.360000       12.0110           0
     29723 WT13     75       MECN     N3       NG1T1   -0.460000       14.0070           0
     29724 WT13     76       MECN     C1       CG331   -0.170000       12.0110           0
     29725 WT13     76       MECN     H11      HGA3     0.090000        1.0080           0
     29726 WT13     76       MECN     H12      HGA3     0.090000        1.0080           0
     29727 WT13     76       MECN     H13      HGA3     0.090000        1.0080           0
     29728 WT13     76       MECN     C2       CG1N1    0.360000       12.0110           0
     29729 WT13     76       MECN     N3       NG1T1   -0.460000       14.0070           0
     29730 WT13     78       MECN     C1       CG331   -0.170000       12.0110           0
     29731 WT13     78       MECN     H11      HGA3     0.090000        1.0080           0
     29732 WT13     78       MECN     H12      HGA3     0.090000        1.0080           0
     29733 WT13     78       MECN     H13      HGA3     0.090000        1.0080           0
     29734 WT13     78       MECN     C2       CG1N1    0.360000       12.0110           0
     29735 WT13     78       MECN     N3       NG1T1   -0.460000       14.0070           0
     29736 WT13     79       MECN     C1       CG331   -0.170000       12.0110           0
     29737 WT13     79       MECN     H11      HGA3     0.090000        1.0080           0
     29738 WT13     79       MECN     H12      HGA3     0.090000        1.0080           0
     29739 WT13     79       MECN     H13      HGA3     0.090000        1.0080           0
     29740 WT13     79       MECN     C2       CG1N1    0.360000       12.0110           0
     29741 WT13     79       MECN     N3       NG1T1   -0.460000       14.0070           0
     29742 WT13     80       MECN     C1       CG331   -0.170000       12.0110           0
     29743 WT13     80       MECN     H11      HGA3     0.090000        1.0080           0
     29744 WT13     80       MECN     H12      HGA3     0.090000        1.0080           0
     29745 WT13     80       MECN     H13      HGA3     0.090000        1.0080           0
     29746 WT13     80       MECN     C2       CG1N1    0.360000       12.0110           0
     29747 WT13     80       MECN     N3       NG1T1   -0.460000       14.0070           0
     29748 WT13     81       MECN     C1       CG331   -0.170000       12.0110           0
     29749 WT13     81       MECN     H11      HGA3     0.090000        1.0080           0
     29750 WT13     81       MECN     H12      HGA3     0.090000        1.0080           0
     29751 WT13     81       MECN     H13      HGA3     0.090000        1.0080           0
     29752 WT13     81       MECN     C2       CG1N1    0.360000       12.0110           0
     29753 WT13     81       MECN     N3       NG1T1   -0.460000       14.0070           0
     29754 WT13     83       MECN     C1       CG331   -0.170000       12.0110           0
     29755 WT13     83       MECN     H11      HGA3     0.090000        1.0080           0
     29756 WT13     83       MECN     H12      HGA3     0.090000        1.0080           0
     29757 WT13     83       MECN     H13      HGA3     0.090000        1.0080           0
     29758 WT13     83       MECN     C2       CG1N1    0.360000       12.0110           0
     29759 WT13     83       MECN     N3       NG1T1   -0.460000       14.0070           0
     29760 WT13     84       MECN     C1       CG331   -0.170000       12.0110           0
     29761 WT13     84       MECN     H11      HGA3     0.090000        1.0080           0
     29762 WT13     84       MECN     H12      HGA3     0.090000        1.0080           0
     29763 WT13     84       MECN     H13      HGA3     0.090000        1.0080           0
     29764 WT13     84       MECN     C2       CG1N1    0.360000       12.0110           0
     29765 WT13     84       MECN     N3       NG1T1   -0.460000       14.0070           0
     29766 WT13     86       MECN     C1       CG331   -0.170000       12.0110           0
     29767 WT13     86       MECN     H11      HGA3     0.090000        1.0080           0
     29768 WT13     86       MECN     H12      HGA3     0.090000        1.0080           0
     29769 WT13     86       MECN     H13      HGA3     0.090000        1.0080           0
     29770 WT13     86       MECN     C2       CG1N1    0.360000       12.0110           0
     29771 WT13     86       MECN     N3       NG1T1   -0.460000       14.0070           0
     29772 WT13     90       MECN     C1       CG331   -0.170000       12.0110           0
     29773 WT13     90       MECN     H11      HGA3     0.090000        1.0080           0
     29774 WT13     90       MECN     H12      HGA3     0.090000        1.0080           0
     29775 WT13     90       MECN     H13      HGA3     0.090000        1.0080           0
     29776 WT13     90       MECN     C2       CG1N1    0.360000       12.0110           0
     29777 WT13     90       MECN     N3       NG1T1   -0.460000       14.0070           0
     29778 WT13     91       MECN     C1       CG331   -0.170000       12.0110           0
     29779 WT13     91       MECN     H11      HGA3     0.090000        1.0080           0
     29780 WT13     91       MECN     H12      HGA3     0.090000        1.0080           0
     29781 WT13     91       MECN     H13      HGA3     0.090000        1.0080           0
     29782 WT13     91       MECN     C2       CG1N1    0.360000       12.0110           0
     29783 WT13     91       MECN     N3       NG1T1   -0.460000       14.0070           0
     29784 WT13     92       MECN     C1       CG331   -0.170000       12.0110           0
     29785 WT13     92       MECN     H11      HGA3     0.090000        1.0080           0
     29786 WT13     92       MECN     H12      HGA3     0.090000        1.0080           0
     29787 WT13     92       MECN     H13      HGA3     0.090000        1.0080           0
     29788 WT13     92       MECN     C2       CG1N1    0.360000       12.0110           0
     29789 WT13     92       MECN     N3       NG1T1   -0.460000       14.0070           0
     29790 WT13     94       MECN     C1       CG331   -0.170000       12.0110           0
     29791 WT13     94       MECN     H11      HGA3     0.090000        1.0080           0
     29792 WT13     94       MECN     H12      HGA3     0.090000        1.0080           0
     29793 WT13     94       MECN     H13      HGA3     0.090000        1.0080           0
     29794 WT13     94       MECN     C2       CG1N1    0.360000       12.0110           0
     29795 WT13     94       MECN     N3       NG1T1   -0.460000       14.0070           0
     29796 WT13     95       MECN     C1       CG331   -0.170000       12.0110           0
     29797 WT13     95       MECN     H11      HGA3     0.090000        1.0080           0
     29798 WT13     95       MECN     H12      HGA3     0.090000        1.0080           0
     29799 WT13     95       MECN     H13      HGA3     0.090000        1.0080           0
     29800 WT13     95       MECN     C2       CG1N1    0.360000       12.0110           0
     29801 WT13     95       MECN     N3       NG1T1   -0.460000       14.0070           0
     29802 WT13     96       MECN     C1       CG331   -0.170000       12.0110           0
     29803 WT13     96       MECN     H11      HGA3     0.090000        1.0080           0
     29804 WT13     96       MECN     H12      HGA3     0.090000        1.0080           0
     29805 WT13     96       MECN     H13      HGA3     0.090000        1.0080           0
     29806 WT13     96       MECN     C2       CG1N1    0.360000       12.0110           0
     29807 WT13     96       MECN     N3       NG1T1   -0.460000       14.0070           0
     29808 WT13     100      MECN     C1       CG331   -0.170000       12.0110           0
     29809 WT13     100      MECN     H11      HGA3     0.090000        1.0080           0
     29810 WT13     100      MECN     H12      HGA3     0.090000        1.0080           0
     29811 WT13     100      MECN     H13      HGA3     0.090000        1.0080           0
     29812 WT13     100      MECN     C2       CG1N1    0.360000       12.0110           0
     29813 WT13     100      MECN     N3       NG1T1   -0.460000       14.0070           0
     29814 WT13     101      MECN     C1       CG331   -0.170000       12.0110           0
     29815 WT13     101      MECN     H11      HGA3     0.090000        1.0080           0
     29816 WT13     101      MECN     H12      HGA3     0.090000        1.0080           0
     29817 WT13     101      MECN     H13      HGA3     0.090000        1.0080           0
     29818 WT13     101      MECN     C2       CG1N1    0.360000       12.0110           0
     29819 WT13     101      MECN     N3       NG1T1   -0.460000       14.0070           0
     29820 WT13     102      MECN     C1       CG331   -0.170000       12.0110           0
     29821 WT13     102      MECN     H11      HGA3     0.090000        1.0080           0
     29822 WT13     102      MECN     H12      HGA3     0.090000        1.0080           0
     29823 WT13     102      MECN     H13      HGA3     0.090000        1.0080           0
     29824 WT13     102      MECN     C2       CG1N1    0.360000       12.0110           0
     29825 WT13     102      MECN     N3       NG1T1   -0.460000       14.0070           0
     29826 WT13     104      MECN     C1       CG331   -0.170000       12.0110           0
     29827 WT13     104      MECN     H11      HGA3     0.090000        1.0080           0
     29828 WT13     104      MECN     H12      HGA3     0.090000        1.0080           0
     29829 WT13     104      MECN     H13      HGA3     0.090000        1.0080           0
     29830 WT13     104      MECN     C2       CG1N1    0.360000       12.0110           0
     29831 WT13     104      MECN     N3       NG1T1   -0.460000       14.0070           0
     29832 WT13     105      MECN     C1       CG331   -0.170000       12.0110           0
     29833 WT13     105      MECN     H11      HGA3     0.090000        1.0080           0
     29834 WT13     105      MECN     H12      HGA3     0.090000        1.0080           0
     29835 WT13     105      MECN     H13      HGA3     0.090000        1.0080           0
     29836 WT13     105      MECN     C2       CG1N1    0.360000       12.0110           0
     29837 WT13     105      MECN     N3       NG1T1   -0.460000       14.0070           0
     29838 WT13     108      MECN     C1       CG331   -0.170000       12.0110           0
     29839 WT13     108      MECN     H11      HGA3     0.090000        1.0080           0
     29840 WT13     108      MECN     H12      HGA3     0.090000        1.0080           0
     29841 WT13     108      MECN     H13      HGA3     0.090000        1.0080           0
     29842 WT13     108      MECN     C2       CG1N1    0.360000       12.0110           0
     29843 WT13     108      MECN     N3       NG1T1   -0.460000       14.0070           0
     29844 WT13     111      MECN     C1       CG331   -0.170000       12.0110           0
     29845 WT13     111      MECN     H11      HGA3     0.090000        1.0080           0
     29846 WT13     111      MECN     H12      HGA3     0.090000        1.0080           0
     29847 WT13     111      MECN     H13      HGA3     0.090000        1.0080           0
     29848 WT13     111      MECN     C2       CG1N1    0.360000       12.0110           0
     29849 WT13     111      MECN     N3       NG1T1   -0.460000       14.0070           0
     29850 WT13     112      MECN     C1       CG331   -0.170000       12.0110           0
     29851 WT13     112      MECN     H11      HGA3     0.090000        1.0080           0
     29852 WT13     112      MECN     H12      HGA3     0.090000        1.0080           0
     29853 WT13     112      MECN     H13      HGA3     0.090000        1.0080           0
     29854 WT13     112      MECN     C2       CG1N1    0.360000       12.0110           0
     29855 WT13     112      MECN     N3       NG1T1   -0.460000       14.0070           0
     29856 WT13     115      MECN     C1       CG331   -0.170000       12.0110           0
     29857 WT13     115      MECN     H11      HGA3     0.090000        1.0080           0
     29858 WT13     115      MECN     H12      HGA3     0.090000        1.0080           0
     29859 WT13     115      MECN     H13      HGA3     0.090000        1.0080           0
     29860 WT13     115      MECN     C2       CG1N1    0.360000       12.0110           0
     29861 WT13     115      MECN     N3       NG1T1   -0.460000       14.0070           0
     29862 WT13     117      MECN     C1       CG331   -0.170000       12.0110           0
     29863 WT13     117      MECN     H11      HGA3     0.090000        1.0080           0
     29864 WT13     117      MECN     H12      HGA3     0.090000        1.0080           0
     29865 WT13     117      MECN     H13      HGA3     0.090000        1.0080           0
     29866 WT13     117      MECN     C2       CG1N1    0.360000       12.0110           0
     29867 WT13     117      MECN     N3       NG1T1   -0.460000       14.0070           0
     29868 WT13     118      MECN     C1       CG331   -0.170000       12.0110           0
     29869 WT13     118      MECN     H11      HGA3     0.090000        1.0080           0
     29870 WT13     118      MECN     H12      HGA3     0.090000        1.0080           0
     29871 WT13     118      MECN     H13      HGA3     0.090000        1.0080           0
     29872 WT13     118      MECN     C2       CG1N1    0.360000       12.0110           0
     29873 WT13     118      MECN     N3       NG1T1   -0.460000       14.0070           0
     29874 WT13     120      MECN     C1       CG331   -0.170000       12.0110           0
     29875 WT13     120      MECN     H11      HGA3     0.090000        1.0080           0
     29876 WT13     120      MECN     H12      HGA3     0.090000        1.0080           0
     29877 WT13     120      MECN     H13      HGA3     0.090000        1.0080           0
     29878 WT13     120      MECN     C2       CG1N1    0.360000       12.0110           0
     29879 WT13     120      MECN     N3       NG1T1   -0.460000       14.0070           0
     29880 WT13     121      MECN     C1       CG331   -0.170000       12.0110           0
     29881 WT13     121      MECN     H11      HGA3     0.090000        1.0080           0
     29882 WT13     121      MECN     H12      HGA3     0.090000        1.0080           0
     29883 WT13     121      MECN     H13      HGA3     0.090000        1.0080           0
     29884 WT13     121      MECN     C2       CG1N1    0.360000       12.0110           0
     29885 WT13     121      MECN     N3       NG1T1   -0.460000       14.0070           0
     29886 WT13     126      MECN     C1       CG331   -0.170000       12.0110           0
     29887 WT13     126      MECN     H11      HGA3     0.090000        1.0080           0
     29888 WT13     126      MECN     H12      HGA3     0.090000        1.0080           0
     29889 WT13     126      MECN     H13      HGA3     0.090000        1.0080           0
     29890 WT13     126      MECN     C2       CG1N1    0.360000       12.0110           0
     29891 WT13     126      MECN     N3       NG1T1   -0.460000       14.0070           0
     29892 WT13     133      MECN     C1       CG331   -0.170000       12.0110           0
     29893 WT13     133      MECN     H11      HGA3     0.090000        1.0080           0
     29894 WT13     133      MECN     H12      HGA3     0.090000        1.0080           0
     29895 WT13     133      MECN     H13      HGA3     0.090000        1.0080           0
     29896 WT13     133      MECN     C2       CG1N1    0.360000       12.0110           0
     29897 WT13     133      MECN     N3       NG1T1   -0.460000       14.0070           0
     29898 WT13     134      MECN     C1       CG331   -0.170000       12.0110           0
     29899 WT13     134      MECN     H11      HGA3     0.090000        1.0080           0
     29900 WT13     134      MECN     H12      HGA3     0.090000        1.0080           0
     29901 WT13     134      MECN     H13      HGA3     0.090000        1.0080           0
     29902 WT13     134      MECN     C2       CG1N1    0.360000       12.0110           0
     29903 WT13     134      MECN     N3       NG1T1   -0.460000       14.0070           0
     29904 WT13     138      MECN     C1       CG331   -0.170000       12.0110           0
     29905 WT13     138      MECN     H11      HGA3     0.090000        1.0080           0
     29906 WT13     138      MECN     H12      HGA3     0.090000        1.0080           0
     29907 WT13     138      MECN     H13      HGA3     0.090000        1.0080           0
     29908 WT13     138      MECN     C2       CG1N1    0.360000       12.0110           0
     29909 WT13     138      MECN     N3       NG1T1   -0.460000       14.0070           0
     29910 WT13     141      MECN     C1       CG331   -0.170000       12.0110           0
     29911 WT13     141      MECN     H11      HGA3     0.090000        1.0080           0
     29912 WT13     141      MECN     H12      HGA3     0.090000        1.0080           0
     29913 WT13     141      MECN     H13      HGA3     0.090000        1.0080           0
     29914 WT13     141      MECN     C2       CG1N1    0.360000       12.0110           0
     29915 WT13     141      MECN     N3       NG1T1   -0.460000       14.0070           0
     29916 WT13     144      MECN     C1       CG331   -0.170000       12.0110           0
     29917 WT13     144      MECN     H11      HGA3     0.090000        1.0080           0
     29918 WT13     144      MECN     H12      HGA3     0.090000        1.0080           0
     29919 WT13     144      MECN     H13      HGA3     0.090000        1.0080           0
     29920 WT13     144      MECN     C2       CG1N1    0.360000       12.0110           0
     29921 WT13     144      MECN     N3       NG1T1   -0.460000       14.0070           0
     29922 WT13     146      MECN     C1       CG331   -0.170000       12.0110           0
     29923 WT13     146      MECN     H11      HGA3     0.090000        1.0080           0
     29924 WT13     146      MECN     H12      HGA3     0.090000        1.0080           0
     29925 WT13     146      MECN     H13      HGA3     0.090000        1.0080           0
     29926 WT13     146      MECN     C2       CG1N1    0.360000       12.0110           0
     29927 WT13     146      MECN     N3       NG1T1   -0.460000       14.0070           0
     29928 WT13     147      MECN     C1       CG331   -0.170000       12.0110           0
     29929 WT13     147      MECN     H11      HGA3     0.090000        1.0080           0
     29930 WT13     147      MECN     H12      HGA3     0.090000        1.0080           0
     29931 WT13     147      MECN     H13      HGA3     0.090000        1.0080           0
     29932 WT13     147      MECN     C2       CG1N1    0.360000       12.0110           0
     29933 WT13     147      MECN     N3       NG1T1   -0.460000       14.0070           0
     29934 WT13     148      MECN     C1       CG331   -0.170000       12.0110           0
     29935 WT13     148      MECN     H11      HGA3     0.090000        1.0080           0
     29936 WT13     148      MECN     H12      HGA3     0.090000        1.0080           0
     29937 WT13     148      MECN     H13      HGA3     0.090000        1.0080           0
     29938 WT13     148      MECN     C2       CG1N1    0.360000       12.0110           0
     29939 WT13     148      MECN     N3       NG1T1   -0.460000       14.0070           0
     29940 WT13     149      MECN     C1       CG331   -0.170000       12.0110           0
     29941 WT13     149      MECN     H11      HGA3     0.090000        1.0080           0
     29942 WT13     149      MECN     H12      HGA3     0.090000        1.0080           0
     29943 WT13     149      MECN     H13      HGA3     0.090000        1.0080           0
     29944 WT13     149      MECN     C2       CG1N1    0.360000       12.0110           0
     29945 WT13     149      MECN     N3       NG1T1   -0.460000       14.0070           0
     29946 WT13     151      MECN     C1       CG331   -0.170000       12.0110           0
     29947 WT13     151      MECN     H11      HGA3     0.090000        1.0080           0
     29948 WT13     151      MECN     H12      HGA3     0.090000        1.0080           0
     29949 WT13     151      MECN     H13      HGA3     0.090000        1.0080           0
     29950 WT13     151      MECN     C2       CG1N1    0.360000       12.0110           0
     29951 WT13     151      MECN     N3       NG1T1   -0.460000       14.0070           0
     29952 WT13     158      MECN     C1       CG331   -0.170000       12.0110           0
     29953 WT13     158      MECN     H11      HGA3     0.090000        1.0080           0
     29954 WT13     158      MECN     H12      HGA3     0.090000        1.0080           0
     29955 WT13     158      MECN     H13      HGA3     0.090000        1.0080           0
     29956 WT13     158      MECN     C2       CG1N1    0.360000       12.0110           0
     29957 WT13     158      MECN     N3       NG1T1   -0.460000       14.0070           0
     29958 WT13     159      MECN     C1       CG331   -0.170000       12.0110           0
     29959 WT13     159      MECN     H11      HGA3     0.090000        1.0080           0
     29960 WT13     159      MECN     H12      HGA3     0.090000        1.0080           0
     29961 WT13     159      MECN     H13      HGA3     0.090000        1.0080           0
     29962 WT13     159      MECN     C2       CG1N1    0.360000       12.0110           0
     29963 WT13     159      MECN     N3       NG1T1   -0.460000       14.0070           0
     29964 WT13     161      MECN     C1       CG331   -0.170000       12.0110           0
     29965 WT13     161      MECN     H11      HGA3     0.090000        1.0080           0
     29966 WT13     161      MECN     H12      HGA3     0.090000        1.0080           0
     29967 WT13     161      MECN     H13      HGA3     0.090000        1.0080           0
     29968 WT13     161      MECN     C2       CG1N1    0.360000       12.0110           0
     29969 WT13     161      MECN     N3       NG1T1   -0.460000       14.0070           0
     29970 WT13     162      MECN     C1       CG331   -0.170000       12.0110           0
     29971 WT13     162      MECN     H11      HGA3     0.090000        1.0080           0
     29972 WT13     162      MECN     H12      HGA3     0.090000        1.0080           0
     29973 WT13     162      MECN     H13      HGA3     0.090000        1.0080           0
     29974 WT13     162      MECN     C2       CG1N1    0.360000       12.0110           0
     29975 WT13     162      MECN     N3       NG1T1   -0.460000       14.0070           0
     29976 WT13     171      MECN     C1       CG331   -0.170000       12.0110           0
     29977 WT13     171      MECN     H11      HGA3     0.090000        1.0080           0
     29978 WT13     171      MECN     H12      HGA3     0.090000        1.0080           0
     29979 WT13     171      MECN     H13      HGA3     0.090000        1.0080           0
     29980 WT13     171      MECN     C2       CG1N1    0.360000       12.0110           0
     29981 WT13     171      MECN     N3       NG1T1   -0.460000       14.0070           0
     29982 WT13     173      MECN     C1       CG331   -0.170000       12.0110           0
     29983 WT13     173      MECN     H11      HGA3     0.090000        1.0080           0
     29984 WT13     173      MECN     H12      HGA3     0.090000        1.0080           0
     29985 WT13     173      MECN     H13      HGA3     0.090000        1.0080           0
     29986 WT13     173      MECN     C2       CG1N1    0.360000       12.0110           0
     29987 WT13     173      MECN     N3       NG1T1   -0.460000       14.0070           0
     29988 WT13     176      MECN     C1       CG331   -0.170000       12.0110           0
     29989 WT13     176      MECN     H11      HGA3     0.090000        1.0080           0
     29990 WT13     176      MECN     H12      HGA3     0.090000        1.0080           0
     29991 WT13     176      MECN     H13      HGA3     0.090000        1.0080           0
     29992 WT13     176      MECN     C2       CG1N1    0.360000       12.0110           0
     29993 WT13     176      MECN     N3       NG1T1   -0.460000       14.0070           0
     29994 WT13     177      MECN     C1       CG331   -0.170000       12.0110           0
     29995 WT13     177      MECN     H11      HGA3     0.090000        1.0080           0
     29996 WT13     177      MECN     H12      HGA3     0.090000        1.0080           0
     29997 WT13     177      MECN     H13      HGA3     0.090000        1.0080           0
     29998 WT13     177      MECN     C2       CG1N1    0.360000       12.0110           0
     29999 WT13     177      MECN     N3       NG1T1   -0.460000       14.0070           0
     30000 WT13     179      MECN     C1       CG331   -0.170000       12.0110           0
     30001 WT13     179      MECN     H11      HGA3     0.090000        1.0080           0
     30002 WT13     179      MECN     H12      HGA3     0.090000        1.0080           0
     30003 WT13     179      MECN     H13      HGA3     0.090000        1.0080           0
     30004 WT13     179      MECN     C2       CG1N1    0.360000       12.0110           0
     30005 WT13     179      MECN     N3       NG1T1   -0.460000       14.0070           0
     30006 WT13     182      MECN     C1       CG331   -0.170000       12.0110           0
     30007 WT13     182      MECN     H11      HGA3     0.090000        1.0080           0
     30008 WT13     182      MECN     H12      HGA3     0.090000        1.0080           0
     30009 WT13     182      MECN     H13      HGA3     0.090000        1.0080           0
     30010 WT13     182      MECN     C2       CG1N1    0.360000       12.0110           0
     30011 WT13     182      MECN     N3       NG1T1   -0.460000       14.0070           0
     30012 WT13     183      MECN     C1       CG331   -0.170000       12.0110           0
     30013 WT13     183      MECN     H11      HGA3     0.090000        1.0080           0
     30014 WT13     183      MECN     H12      HGA3     0.090000        1.0080           0
     30015 WT13     183      MECN     H13      HGA3     0.090000        1.0080           0
     30016 WT13     183      MECN     C2       CG1N1    0.360000       12.0110           0
     30017 WT13     183      MECN     N3       NG1T1   -0.460000       14.0070           0
     30018 WT13     185      MECN     C1       CG331   -0.170000       12.0110           0
     30019 WT13     185      MECN     H11      HGA3     0.090000        1.0080           0
     30020 WT13     185      MECN     H12      HGA3     0.090000        1.0080           0
     30021 WT13     185      MECN     H13      HGA3     0.090000        1.0080           0
     30022 WT13     185      MECN     C2       CG1N1    0.360000       12.0110           0
     30023 WT13     185      MECN     N3       NG1T1   -0.460000       14.0070           0
     30024 WT13     189      MECN     C1       CG331   -0.170000       12.0110           0
     30025 WT13     189      MECN     H11      HGA3     0.090000        1.0080           0
     30026 WT13     189      MECN     H12      HGA3     0.090000        1.0080           0
     30027 WT13     189      MECN     H13      HGA3     0.090000        1.0080           0
     30028 WT13     189      MECN     C2       CG1N1    0.360000       12.0110           0
     30029 WT13     189      MECN     N3       NG1T1   -0.460000       14.0070           0
     30030 WT13     191      MECN     C1       CG331   -0.170000       12.0110           0
     30031 WT13     191      MECN     H11      HGA3     0.090000        1.0080           0
     30032 WT13     191      MECN     H12      HGA3     0.090000        1.0080           0
     30033 WT13     191      MECN     H13      HGA3     0.090000        1.0080           0
     30034 WT13     191      MECN     C2       CG1N1    0.360000       12.0110           0
     30035 WT13     191      MECN     N3       NG1T1   -0.460000       14.0070           0
     30036 WT13     193      MECN     C1       CG331   -0.170000       12.0110           0
     30037 WT13     193      MECN     H11      HGA3     0.090000        1.0080           0
     30038 WT13     193      MECN     H12      HGA3     0.090000        1.0080           0
     30039 WT13     193      MECN     H13      HGA3     0.090000        1.0080           0
     30040 WT13     193      MECN     C2       CG1N1    0.360000       12.0110           0
     30041 WT13     193      MECN     N3       NG1T1   -0.460000       14.0070           0
     30042 WT13     194      MECN     C1       CG331   -0.170000       12.0110           0
     30043 WT13     194      MECN     H11      HGA3     0.090000        1.0080           0
     30044 WT13     194      MECN     H12      HGA3     0.090000        1.0080           0
     30045 WT13     194      MECN     H13      HGA3     0.090000        1.0080           0
     30046 WT13     194      MECN     C2       CG1N1    0.360000       12.0110           0
     30047 WT13     194      MECN     N3       NG1T1   -0.460000       14.0070           0
     30048 WT13     195      MECN     C1       CG331   -0.170000       12.0110           0
     30049 WT13     195      MECN     H11      HGA3     0.090000        1.0080           0
     30050 WT13     195      MECN     H12      HGA3     0.090000        1.0080           0
     30051 WT13     195      MECN     H13      HGA3     0.090000        1.0080           0
     30052 WT13     195      MECN     C2       CG1N1    0.360000       12.0110           0
     30053 WT13     195      MECN     N3       NG1T1   -0.460000       14.0070           0
     30054 WT13     197      MECN     C1       CG331   -0.170000       12.0110           0
     30055 WT13     197      MECN     H11      HGA3     0.090000        1.0080           0
     30056 WT13     197      MECN     H12      HGA3     0.090000        1.0080           0
     30057 WT13     197      MECN     H13      HGA3     0.090000        1.0080           0
     30058 WT13     197      MECN     C2       CG1N1    0.360000       12.0110           0
     30059 WT13     197      MECN     N3       NG1T1   -0.460000       14.0070           0
     30060 WT13     198      MECN     C1       CG331   -0.170000       12.0110           0
     30061 WT13     198      MECN     H11      HGA3     0.090000        1.0080           0
     30062 WT13     198      MECN     H12      HGA3     0.090000        1.0080           0
     30063 WT13     198      MECN     H13      HGA3     0.090000        1.0080           0
     30064 WT13     198      MECN     C2       CG1N1    0.360000       12.0110           0
     30065 WT13     198      MECN     N3       NG1T1   -0.460000       14.0070           0
     30066 WT13     200      MECN     C1       CG331   -0.170000       12.0110           0
     30067 WT13     200      MECN     H11      HGA3     0.090000        1.0080           0
     30068 WT13     200      MECN     H12      HGA3     0.090000        1.0080           0
     30069 WT13     200      MECN     H13      HGA3     0.090000        1.0080           0
     30070 WT13     200      MECN     C2       CG1N1    0.360000       12.0110           0
     30071 WT13     200      MECN     N3       NG1T1   -0.460000       14.0070           0
     30072 WT13     201      MECN     C1       CG331   -0.170000       12.0110           0
     30073 WT13     201      MECN     H11      HGA3     0.090000        1.0080           0
     30074 WT13     201      MECN     H12      HGA3     0.090000        1.0080           0
     30075 WT13     201      MECN     H13      HGA3     0.090000        1.0080           0
     30076 WT13     201      MECN     C2       CG1N1    0.360000       12.0110           0
     30077 WT13     201      MECN     N3       NG1T1   -0.460000       14.0070           0
     30078 WT13     202      MECN     C1       CG331   -0.170000       12.0110           0
     30079 WT13     202      MECN     H11      HGA3     0.090000        1.0080           0
     30080 WT13     202      MECN     H12      HGA3     0.090000        1.0080           0
     30081 WT13     202      MECN     H13      HGA3     0.090000        1.0080           0
     30082 WT13     202      MECN     C2       CG1N1    0.360000       12.0110           0
     30083 WT13     202      MECN     N3       NG1T1   -0.460000       14.0070           0
     30084 WT13     204      MECN     C1       CG331   -0.170000       12.0110           0
     30085 WT13     204      MECN     H11      HGA3     0.090000        1.0080           0
     30086 WT13     204      MECN     H12      HGA3     0.090000        1.0080           0
     30087 WT13     204      MECN     H13      HGA3     0.090000        1.0080           0
     30088 WT13     204      MECN     C2       CG1N1    0.360000       12.0110           0
     30089 WT13     204      MECN     N3       NG1T1   -0.460000       14.0070           0
     30090 WT13     207      MECN     C1       CG331   -0.170000       12.0110           0
     30091 WT13     207      MECN     H11      HGA3     0.090000        1.0080           0
     30092 WT13     207      MECN     H12      HGA3     0.090000        1.0080           0
     30093 WT13     207      MECN     H13      HGA3     0.090000        1.0080           0
     30094 WT13     207      MECN     C2       CG1N1    0.360000       12.0110           0
     30095 WT13     207      MECN     N3       NG1T1   -0.460000       14.0070           0
     30096 WT13     208      MECN     C1       CG331   -0.170000       12.0110           0
     30097 WT13     208      MECN     H11      HGA3     0.090000        1.0080           0
     30098 WT13     208      MECN     H12      HGA3     0.090000        1.0080           0
     30099 WT13     208      MECN     H13      HGA3     0.090000        1.0080           0
     30100 WT13     208      MECN     C2       CG1N1    0.360000       12.0110           0
     30101 WT13     208      MECN     N3       NG1T1   -0.460000       14.0070           0
     30102 WT13     209      MECN     C1       CG331   -0.170000       12.0110           0
     30103 WT13     209      MECN     H11      HGA3     0.090000        1.0080           0
     30104 WT13     209      MECN     H12      HGA3     0.090000        1.0080           0
     30105 WT13     209      MECN     H13      HGA3     0.090000        1.0080           0
     30106 WT13     209      MECN     C2       CG1N1    0.360000       12.0110           0
     30107 WT13     209      MECN     N3       NG1T1   -0.460000       14.0070           0
     30108 WT13     210      MECN     C1       CG331   -0.170000       12.0110           0
     30109 WT13     210      MECN     H11      HGA3     0.090000        1.0080           0
     30110 WT13     210      MECN     H12      HGA3     0.090000        1.0080           0
     30111 WT13     210      MECN     H13      HGA3     0.090000        1.0080           0
     30112 WT13     210      MECN     C2       CG1N1    0.360000       12.0110           0
     30113 WT13     210      MECN     N3       NG1T1   -0.460000       14.0070           0
     30114 WT13     211      MECN     C1       CG331   -0.170000       12.0110           0
     30115 WT13     211      MECN     H11      HGA3     0.090000        1.0080           0
     30116 WT13     211      MECN     H12      HGA3     0.090000        1.0080           0
     30117 WT13     211      MECN     H13      HGA3     0.090000        1.0080           0
     30118 WT13     211      MECN     C2       CG1N1    0.360000       12.0110           0
     30119 WT13     211      MECN     N3       NG1T1   -0.460000       14.0070           0
     30120 WT13     213      MECN     C1       CG331   -0.170000       12.0110           0
     30121 WT13     213      MECN     H11      HGA3     0.090000        1.0080           0
     30122 WT13     213      MECN     H12      HGA3     0.090000        1.0080           0
     30123 WT13     213      MECN     H13      HGA3     0.090000        1.0080           0
     30124 WT13     213      MECN     C2       CG1N1    0.360000       12.0110           0
     30125 WT13     213      MECN     N3       NG1T1   -0.460000       14.0070           0
     30126 WT13     215      MECN     C1       CG331   -0.170000       12.0110           0
     30127 WT13     215      MECN     H11      HGA3     0.090000        1.0080           0
     30128 WT13     215      MECN     H12      HGA3     0.090000        1.0080           0
     30129 WT13     215      MECN     H13      HGA3     0.090000        1.0080           0
     30130 WT13     215      MECN     C2       CG1N1    0.360000       12.0110           0
     30131 WT13     215      MECN     N3       NG1T1   -0.460000       14.0070           0
     30132 WT13     216      MECN     C1       CG331   -0.170000       12.0110           0
     30133 WT13     216      MECN     H11      HGA3     0.090000        1.0080           0
     30134 WT13     216      MECN     H12      HGA3     0.090000        1.0080           0
     30135 WT13     216      MECN     H13      HGA3     0.090000        1.0080           0
     30136 WT13     216      MECN     C2       CG1N1    0.360000       12.0110           0
     30137 WT13     216      MECN     N3       NG1T1   -0.460000       14.0070           0
     30138 WT13     219      MECN     C1       CG331   -0.170000       12.0110           0
     30139 WT13     219      MECN     H11      HGA3     0.090000        1.0080           0
     30140 WT13     219      MECN     H12      HGA3     0.090000        1.0080           0
     30141 WT13     219      MECN     H13      HGA3     0.090000        1.0080           0
     30142 WT13     219      MECN     C2       CG1N1    0.360000       12.0110           0
     30143 WT13     219      MECN     N3       NG1T1   -0.460000       14.0070           0
     30144 WT13     221      MECN     C1       CG331   -0.170000       12.0110           0
     30145 WT13     221      MECN     H11      HGA3     0.090000        1.0080           0
     30146 WT13     221      MECN     H12      HGA3     0.090000        1.0080           0
     30147 WT13     221      MECN     H13      HGA3     0.090000        1.0080           0
     30148 WT13     221      MECN     C2       CG1N1    0.360000       12.0110           0
     30149 WT13     221      MECN     N3       NG1T1   -0.460000       14.0070           0
     30150 WT13     225      MECN     C1       CG331   -0.170000       12.0110           0
     30151 WT13     225      MECN     H11      HGA3     0.090000        1.0080           0
     30152 WT13     225      MECN     H12      HGA3     0.090000        1.0080           0
     30153 WT13     225      MECN     H13      HGA3     0.090000        1.0080           0
     30154 WT13     225      MECN     C2       CG1N1    0.360000       12.0110           0
     30155 WT13     225      MECN     N3       NG1T1   -0.460000       14.0070           0
     30156 WT13     228      MECN     C1       CG331   -0.170000       12.0110           0
     30157 WT13     228      MECN     H11      HGA3     0.090000        1.0080           0
     30158 WT13     228      MECN     H12      HGA3     0.090000        1.0080           0
     30159 WT13     228      MECN     H13      HGA3     0.090000        1.0080           0
     30160 WT13     228      MECN     C2       CG1N1    0.360000       12.0110           0
     30161 WT13     228      MECN     N3       NG1T1   -0.460000       14.0070           0
     30162 WT13     230      MECN     C1       CG331   -0.170000       12.0110           0
     30163 WT13     230      MECN     H11      HGA3     0.090000        1.0080           0
     30164 WT13     230      MECN     H12      HGA3     0.090000        1.0080           0
     30165 WT13     230      MECN     H13      HGA3     0.090000        1.0080           0
     30166 WT13     230      MECN     C2       CG1N1    0.360000       12.0110           0
     30167 WT13     230      MECN     N3       NG1T1   -0.460000       14.0070           0
     30168 WT13     233      MECN     C1       CG331   -0.170000       12.0110           0
     30169 WT13     233      MECN     H11      HGA3     0.090000        1.0080           0
     30170 WT13     233      MECN     H12      HGA3     0.090000        1.0080           0
     30171 WT13     233      MECN     H13      HGA3     0.090000        1.0080           0
     30172 WT13     233      MECN     C2       CG1N1    0.360000       12.0110           0
     30173 WT13     233      MECN     N3       NG1T1   -0.460000       14.0070           0
     30174 WT13     241      MECN     C1       CG331   -0.170000       12.0110           0
     30175 WT13     241      MECN     H11      HGA3     0.090000        1.0080           0
     30176 WT13     241      MECN     H12      HGA3     0.090000        1.0080           0
     30177 WT13     241      MECN     H13      HGA3     0.090000        1.0080           0
     30178 WT13     241      MECN     C2       CG1N1    0.360000       12.0110           0
     30179 WT13     241      MECN     N3       NG1T1   -0.460000       14.0070           0
     30180 WT13     245      MECN     C1       CG331   -0.170000       12.0110           0
     30181 WT13     245      MECN     H11      HGA3     0.090000        1.0080           0
     30182 WT13     245      MECN     H12      HGA3     0.090000        1.0080           0
     30183 WT13     245      MECN     H13      HGA3     0.090000        1.0080           0
     30184 WT13     245      MECN     C2       CG1N1    0.360000       12.0110           0
     30185 WT13     245      MECN     N3       NG1T1   -0.460000       14.0070           0
     30186 WT13     246      MECN     C1       CG331   -0.170000       12.0110           0
     30187 WT13     246      MECN     H11      HGA3     0.090000        1.0080           0
     30188 WT13     246      MECN     H12      HGA3     0.090000        1.0080           0
     30189 WT13     246      MECN     H13      HGA3     0.090000        1.0080           0
     30190 WT13     246      MECN     C2       CG1N1    0.360000       12.0110           0
     30191 WT13     246      MECN     N3       NG1T1   -0.460000       14.0070           0
     30192 WT13     247      MECN     C1       CG331   -0.170000       12.0110           0
     30193 WT13     247      MECN     H11      HGA3     0.090000        1.0080           0
     30194 WT13     247      MECN     H12      HGA3     0.090000        1.0080           0
     30195 WT13     247      MECN     H13      HGA3     0.090000        1.0080           0
     30196 WT13     247      MECN     C2       CG1N1    0.360000       12.0110           0
     30197 WT13     247      MECN     N3       NG1T1   -0.460000       14.0070           0
     30198 WT13     248      MECN     C1       CG331   -0.170000       12.0110           0
     30199 WT13     248      MECN     H11      HGA3     0.090000        1.0080           0
     30200 WT13     248      MECN     H12      HGA3     0.090000        1.0080           0
     30201 WT13     248      MECN     H13      HGA3     0.090000        1.0080           0
     30202 WT13     248      MECN     C2       CG1N1    0.360000       12.0110           0
     30203 WT13     248      MECN     N3       NG1T1   -0.460000       14.0070           0
     30204 WT13     251      MECN     C1       CG331   -0.170000       12.0110           0
     30205 WT13     251      MECN     H11      HGA3     0.090000        1.0080           0
     30206 WT13     251      MECN     H12      HGA3     0.090000        1.0080           0
     30207 WT13     251      MECN     H13      HGA3     0.090000        1.0080           0
     30208 WT13     251      MECN     C2       CG1N1    0.360000       12.0110           0
     30209 WT13     251      MECN     N3       NG1T1   -0.460000       14.0070           0
     30210 WT13     253      MECN     C1       CG331   -0.170000       12.0110           0
     30211 WT13     253      MECN     H11      HGA3     0.090000        1.0080           0
     30212 WT13     253      MECN     H12      HGA3     0.090000        1.0080           0
     30213 WT13     253      MECN     H13      HGA3     0.090000        1.0080           0
     30214 WT13     253      MECN     C2       CG1N1    0.360000       12.0110           0
     30215 WT13     253      MECN     N3       NG1T1   -0.460000       14.0070           0
     30216 WT13     255      MECN     C1       CG331   -0.170000       12.0110           0
     30217 WT13     255      MECN     H11      HGA3     0.090000        1.0080           0
     30218 WT13     255      MECN     H12      HGA3     0.090000        1.0080           0
     30219 WT13     255      MECN     H13      HGA3     0.090000        1.0080           0
     30220 WT13     255      MECN     C2       CG1N1    0.360000       12.0110           0
     30221 WT13     255      MECN     N3       NG1T1   -0.460000       14.0070           0
     30222 WT13     256      MECN     C1       CG331   -0.170000       12.0110           0
     30223 WT13     256      MECN     H11      HGA3     0.090000        1.0080           0
     30224 WT13     256      MECN     H12      HGA3     0.090000        1.0080           0
     30225 WT13     256      MECN     H13      HGA3     0.090000        1.0080           0
     30226 WT13     256      MECN     C2       CG1N1    0.360000       12.0110           0
     30227 WT13     256      MECN     N3       NG1T1   -0.460000       14.0070           0
     30228 WT13     257      MECN     C1       CG331   -0.170000       12.0110           0
     30229 WT13     257      MECN     H11      HGA3     0.090000        1.0080           0
     30230 WT13     257      MECN     H12      HGA3     0.090000        1.0080           0
     30231 WT13     257      MECN     H13      HGA3     0.090000        1.0080           0
     30232 WT13     257      MECN     C2       CG1N1    0.360000       12.0110           0
     30233 WT13     257      MECN     N3       NG1T1   -0.460000       14.0070           0
     30234 WT13     259      MECN     C1       CG331   -0.170000       12.0110           0
     30235 WT13     259      MECN     H11      HGA3     0.090000        1.0080           0
     30236 WT13     259      MECN     H12      HGA3     0.090000        1.0080           0
     30237 WT13     259      MECN     H13      HGA3     0.090000        1.0080           0
     30238 WT13     259      MECN     C2       CG1N1    0.360000       12.0110           0
     30239 WT13     259      MECN     N3       NG1T1   -0.460000       14.0070           0
     30240 WT13     260      MECN     C1       CG331   -0.170000       12.0110           0
     30241 WT13     260      MECN     H11      HGA3     0.090000        1.0080           0
     30242 WT13     260      MECN     H12      HGA3     0.090000        1.0080           0
     30243 WT13     260      MECN     H13      HGA3     0.090000        1.0080           0
     30244 WT13     260      MECN     C2       CG1N1    0.360000       12.0110           0
     30245 WT13     260      MECN     N3       NG1T1   -0.460000       14.0070           0
     30246 WT13     262      MECN     C1       CG331   -0.170000       12.0110           0
     30247 WT13     262      MECN     H11      HGA3     0.090000        1.0080           0
     30248 WT13     262      MECN     H12      HGA3     0.090000        1.0080           0
     30249 WT13     262      MECN     H13      HGA3     0.090000        1.0080           0
     30250 WT13     262      MECN     C2       CG1N1    0.360000       12.0110           0
     30251 WT13     262      MECN     N3       NG1T1   -0.460000       14.0070           0
     30252 WT13     265      MECN     C1       CG331   -0.170000       12.0110           0
     30253 WT13     265      MECN     H11      HGA3     0.090000        1.0080           0
     30254 WT13     265      MECN     H12      HGA3     0.090000        1.0080           0
     30255 WT13     265      MECN     H13      HGA3     0.090000        1.0080           0
     30256 WT13     265      MECN     C2       CG1N1    0.360000       12.0110           0
     30257 WT13     265      MECN     N3       NG1T1   -0.460000       14.0070           0
     30258 WT13     266      MECN     C1       CG331   -0.170000       12.0110           0
     30259 WT13     266      MECN     H11      HGA3     0.090000        1.0080           0
     30260 WT13     266      MECN     H12      HGA3     0.090000        1.0080           0
     30261 WT13     266      MECN     H13      HGA3     0.090000        1.0080           0
     30262 WT13     266      MECN     C2       CG1N1    0.360000       12.0110           0
     30263 WT13     266      MECN     N3       NG1T1   -0.460000       14.0070           0
     30264 WT13     270      MECN     C1       CG331   -0.170000       12.0110           0
     30265 WT13     270      MECN     H11      HGA3     0.090000        1.0080           0
     30266 WT13     270      MECN     H12      HGA3     0.090000        1.0080           0
     30267 WT13     270      MECN     H13      HGA3     0.090000        1.0080           0
     30268 WT13     270      MECN     C2       CG1N1    0.360000       12.0110           0
     30269 WT13     270      MECN     N3       NG1T1   -0.460000       14.0070           0
     30270 WT13     271      MECN     C1       CG331   -0.170000       12.0110           0
     30271 WT13     271      MECN     H11      HGA3     0.090000        1.0080           0
     30272 WT13     271      MECN     H12      HGA3     0.090000        1.0080           0
     30273 WT13     271      MECN     H13      HGA3     0.090000        1.0080           0
     30274 WT13     271      MECN     C2       CG1N1    0.360000       12.0110           0
     30275 WT13     271      MECN     N3       NG1T1   -0.460000       14.0070           0
     30276 WT13     272      MECN     C1       CG331   -0.170000       12.0110           0
     30277 WT13     272      MECN     H11      HGA3     0.090000        1.0080           0
     30278 WT13     272      MECN     H12      HGA3     0.090000        1.0080           0
     30279 WT13     272      MECN     H13      HGA3     0.090000        1.0080           0
     30280 WT13     272      MECN     C2       CG1N1    0.360000       12.0110           0
     30281 WT13     272      MECN     N3       NG1T1   -0.460000       14.0070           0
     30282 WT13     273      MECN     C1       CG331   -0.170000       12.0110           0
     30283 WT13     273      MECN     H11      HGA3     0.090000        1.0080           0
     30284 WT13     273      MECN     H12      HGA3     0.090000        1.0080           0
     30285 WT13     273      MECN     H13      HGA3     0.090000        1.0080           0
     30286 WT13     273      MECN     C2       CG1N1    0.360000       12.0110           0
     30287 WT13     273      MECN     N3       NG1T1   -0.460000       14.0070           0
     30288 WT13     274      MECN     C1       CG331   -0.170000       12.0110           0
     30289 WT13     274      MECN     H11      HGA3     0.090000        1.0080           0
     30290 WT13     274      MECN     H12      HGA3     0.090000        1.0080           0
     30291 WT13     274      MECN     H13      HGA3     0.090000        1.0080           0
     30292 WT13     274      MECN     C2       CG1N1    0.360000       12.0110           0
     30293 WT13     274      MECN     N3       NG1T1   -0.460000       14.0070           0
     30294 WT13     275      MECN     C1       CG331   -0.170000       12.0110           0
     30295 WT13     275      MECN     H11      HGA3     0.090000        1.0080           0
     30296 WT13     275      MECN     H12      HGA3     0.090000        1.0080           0
     30297 WT13     275      MECN     H13      HGA3     0.090000        1.0080           0
     30298 WT13     275      MECN     C2       CG1N1    0.360000       12.0110           0
     30299 WT13     275      MECN     N3       NG1T1   -0.460000       14.0070           0
     30300 WT13     282      MECN     C1       CG331   -0.170000       12.0110           0
     30301 WT13     282      MECN     H11      HGA3     0.090000        1.0080           0
     30302 WT13     282      MECN     H12      HGA3     0.090000        1.0080           0
     30303 WT13     282      MECN     H13      HGA3     0.090000        1.0080           0
     30304 WT13     282      MECN     C2       CG1N1    0.360000       12.0110           0
     30305 WT13     282      MECN     N3       NG1T1   -0.460000       14.0070           0
     30306 WT13     285      MECN     C1       CG331   -0.170000       12.0110           0
     30307 WT13     285      MECN     H11      HGA3     0.090000        1.0080           0
     30308 WT13     285      MECN     H12      HGA3     0.090000        1.0080           0
     30309 WT13     285      MECN     H13      HGA3     0.090000        1.0080           0
     30310 WT13     285      MECN     C2       CG1N1    0.360000       12.0110           0
     30311 WT13     285      MECN     N3       NG1T1   -0.460000       14.0070           0
     30312 WT13     287      MECN     C1       CG331   -0.170000       12.0110           0
     30313 WT13     287      MECN     H11      HGA3     0.090000        1.0080           0
     30314 WT13     287      MECN     H12      HGA3     0.090000        1.0080           0
     30315 WT13     287      MECN     H13      HGA3     0.090000        1.0080           0
     30316 WT13     287      MECN     C2       CG1N1    0.360000       12.0110           0
     30317 WT13     287      MECN     N3       NG1T1   -0.460000       14.0070           0
     30318 WT13     289      MECN     C1       CG331   -0.170000       12.0110           0
     30319 WT13     289      MECN     H11      HGA3     0.090000        1.0080           0
     30320 WT13     289      MECN     H12      HGA3     0.090000        1.0080           0
     30321 WT13     289      MECN     H13      HGA3     0.090000        1.0080           0
     30322 WT13     289      MECN     C2       CG1N1    0.360000       12.0110           0
     30323 WT13     289      MECN     N3       NG1T1   -0.460000       14.0070           0
     30324 WT13     290      MECN     C1       CG331   -0.170000       12.0110           0
     30325 WT13     290      MECN     H11      HGA3     0.090000        1.0080           0
     30326 WT13     290      MECN     H12      HGA3     0.090000        1.0080           0
     30327 WT13     290      MECN     H13      HGA3     0.090000        1.0080           0
     30328 WT13     290      MECN     C2       CG1N1    0.360000       12.0110           0
     30329 WT13     290      MECN     N3       NG1T1   -0.460000       14.0070           0
     30330 WT13     292      MECN     C1       CG331   -0.170000       12.0110           0
     30331 WT13     292      MECN     H11      HGA3     0.090000        1.0080           0
     30332 WT13     292      MECN     H12      HGA3     0.090000        1.0080           0
     30333 WT13     292      MECN     H13      HGA3     0.090000        1.0080           0
     30334 WT13     292      MECN     C2       CG1N1    0.360000       12.0110           0
     30335 WT13     292      MECN     N3       NG1T1   -0.460000       14.0070           0
     30336 WT13     295      MECN     C1       CG331   -0.170000       12.0110           0
     30337 WT13     295      MECN     H11      HGA3     0.090000        1.0080           0
     30338 WT13     295      MECN     H12      HGA3     0.090000        1.0080           0
     30339 WT13     295      MECN     H13      HGA3     0.090000        1.0080           0
     30340 WT13     295      MECN     C2       CG1N1    0.360000       12.0110           0
     30341 WT13     295      MECN     N3       NG1T1   -0.460000       14.0070           0
     30342 WT13     298      MECN     C1       CG331   -0.170000       12.0110           0
     30343 WT13     298      MECN     H11      HGA3     0.090000        1.0080           0
     30344 WT13     298      MECN     H12      HGA3     0.090000        1.0080           0
     30345 WT13     298      MECN     H13      HGA3     0.090000        1.0080           0
     30346 WT13     298      MECN     C2       CG1N1    0.360000       12.0110           0
     30347 WT13     298      MECN     N3       NG1T1   -0.460000       14.0070           0
     30348 WT13     299      MECN     C1       CG331   -0.170000       12.0110           0
     30349 WT13     299      MECN     H11      HGA3     0.090000        1.0080           0
     30350 WT13     299      MECN     H12      HGA3     0.090000        1.0080           0
     30351 WT13     299      MECN     H13      HGA3     0.090000        1.0080           0
     30352 WT13     299      MECN     C2       CG1N1    0.360000       12.0110           0
     30353 WT13     299      MECN     N3       NG1T1   -0.460000       14.0070           0
     30354 WT13     300      MECN     C1       CG331   -0.170000       12.0110           0
     30355 WT13     300      MECN     H11      HGA3     0.090000        1.0080           0
     30356 WT13     300      MECN     H12      HGA3     0.090000        1.0080           0
     30357 WT13     300      MECN     H13      HGA3     0.090000        1.0080           0
     30358 WT13     300      MECN     C2       CG1N1    0.360000       12.0110           0
     30359 WT13     300      MECN     N3       NG1T1   -0.460000       14.0070           0
     30360 WT13     301      MECN     C1       CG331   -0.170000       12.0110           0
     30361 WT13     301      MECN     H11      HGA3     0.090000        1.0080           0
     30362 WT13     301      MECN     H12      HGA3     0.090000        1.0080           0
     30363 WT13     301      MECN     H13      HGA3     0.090000        1.0080           0
     30364 WT13     301      MECN     C2       CG1N1    0.360000       12.0110           0
     30365 WT13     301      MECN     N3       NG1T1   -0.460000       14.0070           0
     30366 WT13     302      MECN     C1       CG331   -0.170000       12.0110           0
     30367 WT13     302      MECN     H11      HGA3     0.090000        1.0080           0
     30368 WT13     302      MECN     H12      HGA3     0.090000        1.0080           0
     30369 WT13     302      MECN     H13      HGA3     0.090000        1.0080           0
     30370 WT13     302      MECN     C2       CG1N1    0.360000       12.0110           0
     30371 WT13     302      MECN     N3       NG1T1   -0.460000       14.0070           0
     30372 WT13     303      MECN     C1       CG331   -0.170000       12.0110           0
     30373 WT13     303      MECN     H11      HGA3     0.090000        1.0080           0
     30374 WT13     303      MECN     H12      HGA3     0.090000        1.0080           0
     30375 WT13     303      MECN     H13      HGA3     0.090000        1.0080           0
     30376 WT13     303      MECN     C2       CG1N1    0.360000       12.0110           0
     30377 WT13     303      MECN     N3       NG1T1   -0.460000       14.0070           0
     30378 WT13     304      MECN     C1       CG331   -0.170000       12.0110           0
     30379 WT13     304      MECN     H11      HGA3     0.090000        1.0080           0
     30380 WT13     304      MECN     H12      HGA3     0.090000        1.0080           0
     30381 WT13     304      MECN     H13      HGA3     0.090000        1.0080           0
     30382 WT13     304      MECN     C2       CG1N1    0.360000       12.0110           0
     30383 WT13     304      MECN     N3       NG1T1   -0.460000       14.0070           0
     30384 WT13     308      MECN     C1       CG331   -0.170000       12.0110           0
     30385 WT13     308      MECN     H11      HGA3     0.090000        1.0080           0
     30386 WT13     308      MECN     H12      HGA3     0.090000        1.0080           0
     30387 WT13     308      MECN     H13      HGA3     0.090000        1.0080           0
     30388 WT13     308      MECN     C2       CG1N1    0.360000       12.0110           0
     30389 WT13     308      MECN     N3       NG1T1   -0.460000       14.0070           0
     30390 WT13     310      MECN     C1       CG331   -0.170000       12.0110           0
     30391 WT13     310      MECN     H11      HGA3     0.090000        1.0080           0
     30392 WT13     310      MECN     H12      HGA3     0.090000        1.0080           0
     30393 WT13     310      MECN     H13      HGA3     0.090000        1.0080           0
     30394 WT13     310      MECN     C2       CG1N1    0.360000       12.0110           0
     30395 WT13     310      MECN     N3       NG1T1   -0.460000       14.0070           0
     30396 WT13     311      MECN     C1       CG331   -0.170000       12.0110           0
     30397 WT13     311      MECN     H11      HGA3     0.090000        1.0080           0
     30398 WT13     311      MECN     H12      HGA3     0.090000        1.0080           0
     30399 WT13     311      MECN     H13      HGA3     0.090000        1.0080           0
     30400 WT13     311      MECN     C2       CG1N1    0.360000       12.0110           0
     30401 WT13     311      MECN     N3       NG1T1   -0.460000       14.0070           0
     30402 WT13     312      MECN     C1       CG331   -0.170000       12.0110           0
     30403 WT13     312      MECN     H11      HGA3     0.090000        1.0080           0
     30404 WT13     312      MECN     H12      HGA3     0.090000        1.0080           0
     30405 WT13     312      MECN     H13      HGA3     0.090000        1.0080           0
     30406 WT13     312      MECN     C2       CG1N1    0.360000       12.0110           0
     30407 WT13     312      MECN     N3       NG1T1   -0.460000       14.0070           0
     30408 WT13     313      MECN     C1       CG331   -0.170000       12.0110           0
     30409 WT13     313      MECN     H11      HGA3     0.090000        1.0080           0
     30410 WT13     313      MECN     H12      HGA3     0.090000        1.0080           0
     30411 WT13     313      MECN     H13      HGA3     0.090000        1.0080           0
     30412 WT13     313      MECN     C2       CG1N1    0.360000       12.0110           0
     30413 WT13     313      MECN     N3       NG1T1   -0.460000       14.0070           0
     30414 WT13     315      MECN     C1       CG331   -0.170000       12.0110           0
     30415 WT13     315      MECN     H11      HGA3     0.090000        1.0080           0
     30416 WT13     315      MECN     H12      HGA3     0.090000        1.0080           0
     30417 WT13     315      MECN     H13      HGA3     0.090000        1.0080           0
     30418 WT13     315      MECN     C2       CG1N1    0.360000       12.0110           0
     30419 WT13     315      MECN     N3       NG1T1   -0.460000       14.0070           0
     30420 WT13     317      MECN     C1       CG331   -0.170000       12.0110           0
     30421 WT13     317      MECN     H11      HGA3     0.090000        1.0080           0
     30422 WT13     317      MECN     H12      HGA3     0.090000        1.0080           0
     30423 WT13     317      MECN     H13      HGA3     0.090000        1.0080           0
     30424 WT13     317      MECN     C2       CG1N1    0.360000       12.0110           0
     30425 WT13     317      MECN     N3       NG1T1   -0.460000       14.0070           0
     30426 WT13     322      MECN     C1       CG331   -0.170000       12.0110           0
     30427 WT13     322      MECN     H11      HGA3     0.090000        1.0080           0
     30428 WT13     322      MECN     H12      HGA3     0.090000        1.0080           0
     30429 WT13     322      MECN     H13      HGA3     0.090000        1.0080           0
     30430 WT13     322      MECN     C2       CG1N1    0.360000       12.0110           0
     30431 WT13     322      MECN     N3       NG1T1   -0.460000       14.0070           0
     30432 WT13     323      MECN     C1       CG331   -0.170000       12.0110           0
     30433 WT13     323      MECN     H11      HGA3     0.090000        1.0080           0
     30434 WT13     323      MECN     H12      HGA3     0.090000        1.0080           0
     30435 WT13     323      MECN     H13      HGA3     0.090000        1.0080           0
     30436 WT13     323      MECN     C2       CG1N1    0.360000       12.0110           0
     30437 WT13     323      MECN     N3       NG1T1   -0.460000       14.0070           0
     30438 WT13     325      MECN     C1       CG331   -0.170000       12.0110           0
     30439 WT13     325      MECN     H11      HGA3     0.090000        1.0080           0
     30440 WT13     325      MECN     H12      HGA3     0.090000        1.0080           0
     30441 WT13     325      MECN     H13      HGA3     0.090000        1.0080           0
     30442 WT13     325      MECN     C2       CG1N1    0.360000       12.0110           0
     30443 WT13     325      MECN     N3       NG1T1   -0.460000       14.0070           0
     30444 WT13     326      MECN     C1       CG331   -0.170000       12.0110           0
     30445 WT13     326      MECN     H11      HGA3     0.090000        1.0080           0
     30446 WT13     326      MECN     H12      HGA3     0.090000        1.0080           0
     30447 WT13     326      MECN     H13      HGA3     0.090000        1.0080           0
     30448 WT13     326      MECN     C2       CG1N1    0.360000       12.0110           0
     30449 WT13     326      MECN     N3       NG1T1   -0.460000       14.0070           0
     30450 WT13     327      MECN     C1       CG331   -0.170000       12.0110           0
     30451 WT13     327      MECN     H11      HGA3     0.090000        1.0080           0
     30452 WT13     327      MECN     H12      HGA3     0.090000        1.0080           0
     30453 WT13     327      MECN     H13      HGA3     0.090000        1.0080           0
     30454 WT13     327      MECN     C2       CG1N1    0.360000       12.0110           0
     30455 WT13     327      MECN     N3       NG1T1   -0.460000       14.0070           0
     30456 WT13     328      MECN     C1       CG331   -0.170000       12.0110           0
     30457 WT13     328      MECN     H11      HGA3     0.090000        1.0080           0
     30458 WT13     328      MECN     H12      HGA3     0.090000        1.0080           0
     30459 WT13     328      MECN     H13      HGA3     0.090000        1.0080           0
     30460 WT13     328      MECN     C2       CG1N1    0.360000       12.0110           0
     30461 WT13     328      MECN     N3       NG1T1   -0.460000       14.0070           0
     30462 WT13     332      MECN     C1       CG331   -0.170000       12.0110           0
     30463 WT13     332      MECN     H11      HGA3     0.090000        1.0080           0
     30464 WT13     332      MECN     H12      HGA3     0.090000        1.0080           0
     30465 WT13     332      MECN     H13      HGA3     0.090000        1.0080           0
     30466 WT13     332      MECN     C2       CG1N1    0.360000       12.0110           0
     30467 WT13     332      MECN     N3       NG1T1   -0.460000       14.0070           0
     30468 WT13     333      MECN     C1       CG331   -0.170000       12.0110           0
     30469 WT13     333      MECN     H11      HGA3     0.090000        1.0080           0
     30470 WT13     333      MECN     H12      HGA3     0.090000        1.0080           0
     30471 WT13     333      MECN     H13      HGA3     0.090000        1.0080           0
     30472 WT13     333      MECN     C2       CG1N1    0.360000       12.0110           0
     30473 WT13     333      MECN     N3       NG1T1   -0.460000       14.0070           0
     30474 WT13     335      MECN     C1       CG331   -0.170000       12.0110           0
     30475 WT13     335      MECN     H11      HGA3     0.090000        1.0080           0
     30476 WT13     335      MECN     H12      HGA3     0.090000        1.0080           0
     30477 WT13     335      MECN     H13      HGA3     0.090000        1.0080           0
     30478 WT13     335      MECN     C2       CG1N1    0.360000       12.0110           0
     30479 WT13     335      MECN     N3       NG1T1   -0.460000       14.0070           0
     30480 WT13     336      MECN     C1       CG331   -0.170000       12.0110           0
     30481 WT13     336      MECN     H11      HGA3     0.090000        1.0080           0
     30482 WT13     336      MECN     H12      HGA3     0.090000        1.0080           0
     30483 WT13     336      MECN     H13      HGA3     0.090000        1.0080           0
     30484 WT13     336      MECN     C2       CG1N1    0.360000       12.0110           0
     30485 WT13     336      MECN     N3       NG1T1   -0.460000       14.0070           0
     30486 WT13     338      MECN     C1       CG331   -0.170000       12.0110           0
     30487 WT13     338      MECN     H11      HGA3     0.090000        1.0080           0
     30488 WT13     338      MECN     H12      HGA3     0.090000        1.0080           0
     30489 WT13     338      MECN     H13      HGA3     0.090000        1.0080           0
     30490 WT13     338      MECN     C2       CG1N1    0.360000       12.0110           0
     30491 WT13     338      MECN     N3       NG1T1   -0.460000       14.0070           0
     30492 WT13     339      MECN     C1       CG331   -0.170000       12.0110           0
     30493 WT13     339      MECN     H11      HGA3     0.090000        1.0080           0
     30494 WT13     339      MECN     H12      HGA3     0.090000        1.0080           0
     30495 WT13     339      MECN     H13      HGA3     0.090000        1.0080           0
     30496 WT13     339      MECN     C2       CG1N1    0.360000       12.0110           0
     30497 WT13     339      MECN     N3       NG1T1   -0.460000       14.0070           0
     30498 WT13     340      MECN     C1       CG331   -0.170000       12.0110           0
     30499 WT13     340      MECN     H11      HGA3     0.090000        1.0080           0
     30500 WT13     340      MECN     H12      HGA3     0.090000        1.0080           0
     30501 WT13     340      MECN     H13      HGA3     0.090000        1.0080           0
     30502 WT13     340      MECN     C2       CG1N1    0.360000       12.0110           0
     30503 WT13     340      MECN     N3       NG1T1   -0.460000       14.0070           0
     30504 WT13     341      MECN     C1       CG331   -0.170000       12.0110           0
     30505 WT13     341      MECN     H11      HGA3     0.090000        1.0080           0
     30506 WT13     341      MECN     H12      HGA3     0.090000        1.0080           0
     30507 WT13     341      MECN     H13      HGA3     0.090000        1.0080           0
     30508 WT13     341      MECN     C2       CG1N1    0.360000       12.0110           0
     30509 WT13     341      MECN     N3       NG1T1   -0.460000       14.0070           0
     30510 WT13     342      MECN     C1       CG331   -0.170000       12.0110           0
     30511 WT13     342      MECN     H11      HGA3     0.090000        1.0080           0
     30512 WT13     342      MECN     H12      HGA3     0.090000        1.0080           0
     30513 WT13     342      MECN     H13      HGA3     0.090000        1.0080           0
     30514 WT13     342      MECN     C2       CG1N1    0.360000       12.0110           0
     30515 WT13     342      MECN     N3       NG1T1   -0.460000       14.0070           0
     30516 WT13     343      MECN     C1       CG331   -0.170000       12.0110           0
     30517 WT13     343      MECN     H11      HGA3     0.090000        1.0080           0
     30518 WT13     343      MECN     H12      HGA3     0.090000        1.0080           0
     30519 WT13     343      MECN     H13      HGA3     0.090000        1.0080           0
     30520 WT13     343      MECN     C2       CG1N1    0.360000       12.0110           0
     30521 WT13     343      MECN     N3       NG1T1   -0.460000       14.0070           0
     30522 WT13     344      MECN     C1       CG331   -0.170000       12.0110           0
     30523 WT13     344      MECN     H11      HGA3     0.090000        1.0080           0
     30524 WT13     344      MECN     H12      HGA3     0.090000        1.0080           0
     30525 WT13     344      MECN     H13      HGA3     0.090000        1.0080           0
     30526 WT13     344      MECN     C2       CG1N1    0.360000       12.0110           0
     30527 WT13     344      MECN     N3       NG1T1   -0.460000       14.0070           0
     30528 WT13     346      MECN     C1       CG331   -0.170000       12.0110           0
     30529 WT13     346      MECN     H11      HGA3     0.090000        1.0080           0
     30530 WT13     346      MECN     H12      HGA3     0.090000        1.0080           0
     30531 WT13     346      MECN     H13      HGA3     0.090000        1.0080           0
     30532 WT13     346      MECN     C2       CG1N1    0.360000       12.0110           0
     30533 WT13     346      MECN     N3       NG1T1   -0.460000       14.0070           0
     30534 WT13     348      MECN     C1       CG331   -0.170000       12.0110           0
     30535 WT13     348      MECN     H11      HGA3     0.090000        1.0080           0
     30536 WT13     348      MECN     H12      HGA3     0.090000        1.0080           0
     30537 WT13     348      MECN     H13      HGA3     0.090000        1.0080           0
     30538 WT13     348      MECN     C2       CG1N1    0.360000       12.0110           0
     30539 WT13     348      MECN     N3       NG1T1   -0.460000       14.0070           0
     30540 WT13     349      MECN     C1       CG331   -0.170000       12.0110           0
     30541 WT13     349      MECN     H11      HGA3     0.090000        1.0080           0
     30542 WT13     349      MECN     H12      HGA3     0.090000        1.0080           0
     30543 WT13     349      MECN     H13      HGA3     0.090000        1.0080           0
     30544 WT13     349      MECN     C2       CG1N1    0.360000       12.0110           0
     30545 WT13     349      MECN     N3       NG1T1   -0.460000       14.0070           0
     30546 WT13     356      MECN     C1       CG331   -0.170000       12.0110           0
     30547 WT13     356      MECN     H11      HGA3     0.090000        1.0080           0
     30548 WT13     356      MECN     H12      HGA3     0.090000        1.0080           0
     30549 WT13     356      MECN     H13      HGA3     0.090000        1.0080           0
     30550 WT13     356      MECN     C2       CG1N1    0.360000       12.0110           0
     30551 WT13     356      MECN     N3       NG1T1   -0.460000       14.0070           0
     30552 WT13     360      MECN     C1       CG331   -0.170000       12.0110           0
     30553 WT13     360      MECN     H11      HGA3     0.090000        1.0080           0
     30554 WT13     360      MECN     H12      HGA3     0.090000        1.0080           0
     30555 WT13     360      MECN     H13      HGA3     0.090000        1.0080           0
     30556 WT13     360      MECN     C2       CG1N1    0.360000       12.0110           0
     30557 WT13     360      MECN     N3       NG1T1   -0.460000       14.0070           0
     30558 WT13     366      MECN     C1       CG331   -0.170000       12.0110           0
     30559 WT13     366      MECN     H11      HGA3     0.090000        1.0080           0
     30560 WT13     366      MECN     H12      HGA3     0.090000        1.0080           0
     30561 WT13     366      MECN     H13      HGA3     0.090000        1.0080           0
     30562 WT13     366      MECN     C2       CG1N1    0.360000       12.0110           0
     30563 WT13     366      MECN     N3       NG1T1   -0.460000       14.0070           0
     30564 WT13     367      MECN     C1       CG331   -0.170000       12.0110           0
     30565 WT13     367      MECN     H11      HGA3     0.090000        1.0080           0
     30566 WT13     367      MECN     H12      HGA3     0.090000        1.0080           0
     30567 WT13     367      MECN     H13      HGA3     0.090000        1.0080           0
     30568 WT13     367      MECN     C2       CG1N1    0.360000       12.0110           0
     30569 WT13     367      MECN     N3       NG1T1   -0.460000       14.0070           0
     30570 WT13     369      MECN     C1       CG331   -0.170000       12.0110           0
     30571 WT13     369      MECN     H11      HGA3     0.090000        1.0080           0
     30572 WT13     369      MECN     H12      HGA3     0.090000        1.0080           0
     30573 WT13     369      MECN     H13      HGA3     0.090000        1.0080           0
     30574 WT13     369      MECN     C2       CG1N1    0.360000       12.0110           0
     30575 WT13     369      MECN     N3       NG1T1   -0.460000       14.0070           0
     30576 WT13     371      MECN     C1       CG331   -0.170000       12.0110           0
     30577 WT13     371      MECN     H11      HGA3     0.090000        1.0080           0
     30578 WT13     371      MECN     H12      HGA3     0.090000        1.0080           0
     30579 WT13     371      MECN     H13      HGA3     0.090000        1.0080           0
     30580 WT13     371      MECN     C2       CG1N1    0.360000       12.0110           0
     30581 WT13     371      MECN     N3       NG1T1   -0.460000       14.0070           0
     30582 WT13     374      MECN     C1       CG331   -0.170000       12.0110           0
     30583 WT13     374      MECN     H11      HGA3     0.090000        1.0080           0
     30584 WT13     374      MECN     H12      HGA3     0.090000        1.0080           0
     30585 WT13     374      MECN     H13      HGA3     0.090000        1.0080           0
     30586 WT13     374      MECN     C2       CG1N1    0.360000       12.0110           0
     30587 WT13     374      MECN     N3       NG1T1   -0.460000       14.0070           0
     30588 WT13     376      MECN     C1       CG331   -0.170000       12.0110           0
     30589 WT13     376      MECN     H11      HGA3     0.090000        1.0080           0
     30590 WT13     376      MECN     H12      HGA3     0.090000        1.0080           0
     30591 WT13     376      MECN     H13      HGA3     0.090000        1.0080           0
     30592 WT13     376      MECN     C2       CG1N1    0.360000       12.0110           0
     30593 WT13     376      MECN     N3       NG1T1   -0.460000       14.0070           0
     30594 WT13     378      MECN     C1       CG331   -0.170000       12.0110           0
     30595 WT13     378      MECN     H11      HGA3     0.090000        1.0080           0
     30596 WT13     378      MECN     H12      HGA3     0.090000        1.0080           0
     30597 WT13     378      MECN     H13      HGA3     0.090000        1.0080           0
     30598 WT13     378      MECN     C2       CG1N1    0.360000       12.0110           0
     30599 WT13     378      MECN     N3       NG1T1   -0.460000       14.0070           0
     30600 WT13     381      MECN     C1       CG331   -0.170000       12.0110           0
     30601 WT13     381      MECN     H11      HGA3     0.090000        1.0080           0
     30602 WT13     381      MECN     H12      HGA3     0.090000        1.0080           0
     30603 WT13     381      MECN     H13      HGA3     0.090000        1.0080           0
     30604 WT13     381      MECN     C2       CG1N1    0.360000       12.0110           0
     30605 WT13     381      MECN     N3       NG1T1   -0.460000       14.0070           0
     30606 WT13     383      MECN     C1       CG331   -0.170000       12.0110           0
     30607 WT13     383      MECN     H11      HGA3     0.090000        1.0080           0
     30608 WT13     383      MECN     H12      HGA3     0.090000        1.0080           0
     30609 WT13     383      MECN     H13      HGA3     0.090000        1.0080           0
     30610 WT13     383      MECN     C2       CG1N1    0.360000       12.0110           0
     30611 WT13     383      MECN     N3       NG1T1   -0.460000       14.0070           0
     30612 WT13     384      MECN     C1       CG331   -0.170000       12.0110           0
     30613 WT13     384      MECN     H11      HGA3     0.090000        1.0080           0
     30614 WT13     384      MECN     H12      HGA3     0.090000        1.0080           0
     30615 WT13     384      MECN     H13      HGA3     0.090000        1.0080           0
     30616 WT13     384      MECN     C2       CG1N1    0.360000       12.0110           0
     30617 WT13     384      MECN     N3       NG1T1   -0.460000       14.0070           0
     30618 WT13     386      MECN     C1       CG331   -0.170000       12.0110           0
     30619 WT13     386      MECN     H11      HGA3     0.090000        1.0080           0
     30620 WT13     386      MECN     H12      HGA3     0.090000        1.0080           0
     30621 WT13     386      MECN     H13      HGA3     0.090000        1.0080           0
     30622 WT13     386      MECN     C2       CG1N1    0.360000       12.0110           0
     30623 WT13     386      MECN     N3       NG1T1   -0.460000       14.0070           0
     30624 WT13     388      MECN     C1       CG331   -0.170000       12.0110           0
     30625 WT13     388      MECN     H11      HGA3     0.090000        1.0080           0
     30626 WT13     388      MECN     H12      HGA3     0.090000        1.0080           0
     30627 WT13     388      MECN     H13      HGA3     0.090000        1.0080           0
     30628 WT13     388      MECN     C2       CG1N1    0.360000       12.0110           0
     30629 WT13     388      MECN     N3       NG1T1   -0.460000       14.0070           0
     30630 WT13     391      MECN     C1       CG331   -0.170000       12.0110           0
     30631 WT13     391      MECN     H11      HGA3     0.090000        1.0080           0
     30632 WT13     391      MECN     H12      HGA3     0.090000        1.0080           0
     30633 WT13     391      MECN     H13      HGA3     0.090000        1.0080           0
     30634 WT13     391      MECN     C2       CG1N1    0.360000       12.0110           0
     30635 WT13     391      MECN     N3       NG1T1   -0.460000       14.0070           0
     30636 WT13     392      MECN     C1       CG331   -0.170000       12.0110           0
     30637 WT13     392      MECN     H11      HGA3     0.090000        1.0080           0
     30638 WT13     392      MECN     H12      HGA3     0.090000        1.0080           0
     30639 WT13     392      MECN     H13      HGA3     0.090000        1.0080           0
     30640 WT13     392      MECN     C2       CG1N1    0.360000       12.0110           0
     30641 WT13     392      MECN     N3       NG1T1   -0.460000       14.0070           0
     30642 WT13     395      MECN     C1       CG331   -0.170000       12.0110           0
     30643 WT13     395      MECN     H11      HGA3     0.090000        1.0080           0
     30644 WT13     395      MECN     H12      HGA3     0.090000        1.0080           0
     30645 WT13     395      MECN     H13      HGA3     0.090000        1.0080           0
     30646 WT13     395      MECN     C2       CG1N1    0.360000       12.0110           0
     30647 WT13     395      MECN     N3       NG1T1   -0.460000       14.0070           0
     30648 WT13     400      MECN     C1       CG331   -0.170000       12.0110           0
     30649 WT13     400      MECN     H11      HGA3     0.090000        1.0080           0
     30650 WT13     400      MECN     H12      HGA3     0.090000        1.0080           0
     30651 WT13     400      MECN     H13      HGA3     0.090000        1.0080           0
     30652 WT13     400      MECN     C2       CG1N1    0.360000       12.0110           0
     30653 WT13     400      MECN     N3       NG1T1   -0.460000       14.0070           0
     30654 WT13     401      MECN     C1       CG331   -0.170000       12.0110           0
     30655 WT13     401      MECN     H11      HGA3     0.090000        1.0080           0
     30656 WT13     401      MECN     H12      HGA3     0.090000        1.0080           0
     30657 WT13     401      MECN     H13      HGA3     0.090000        1.0080           0
     30658 WT13     401      MECN     C2       CG1N1    0.360000       12.0110           0
     30659 WT13     401      MECN     N3       NG1T1   -0.460000       14.0070           0
     30660 WT13     402      MECN     C1       CG331   -0.170000       12.0110           0
     30661 WT13     402      MECN     H11      HGA3     0.090000        1.0080           0
     30662 WT13     402      MECN     H12      HGA3     0.090000        1.0080           0
     30663 WT13     402      MECN     H13      HGA3     0.090000        1.0080           0
     30664 WT13     402      MECN     C2       CG1N1    0.360000       12.0110           0
     30665 WT13     402      MECN     N3       NG1T1   -0.460000       14.0070           0
     30666 WT13     403      MECN     C1       CG331   -0.170000       12.0110           0
     30667 WT13     403      MECN     H11      HGA3     0.090000        1.0080           0
     30668 WT13     403      MECN     H12      HGA3     0.090000        1.0080           0
     30669 WT13     403      MECN     H13      HGA3     0.090000        1.0080           0
     30670 WT13     403      MECN     C2       CG1N1    0.360000       12.0110           0
     30671 WT13     403      MECN     N3       NG1T1   -0.460000       14.0070           0
     30672 WT13     404      MECN     C1       CG331   -0.170000       12.0110           0
     30673 WT13     404      MECN     H11      HGA3     0.090000        1.0080           0
     30674 WT13     404      MECN     H12      HGA3     0.090000        1.0080           0
     30675 WT13     404      MECN     H13      HGA3     0.090000        1.0080           0
     30676 WT13     404      MECN     C2       CG1N1    0.360000       12.0110           0
     30677 WT13     404      MECN     N3       NG1T1   -0.460000       14.0070           0
     30678 WT13     406      MECN     C1       CG331   -0.170000       12.0110           0
     30679 WT13     406      MECN     H11      HGA3     0.090000        1.0080           0
     30680 WT13     406      MECN     H12      HGA3     0.090000        1.0080           0
     30681 WT13     406      MECN     H13      HGA3     0.090000        1.0080           0
     30682 WT13     406      MECN     C2       CG1N1    0.360000       12.0110           0
     30683 WT13     406      MECN     N3       NG1T1   -0.460000       14.0070           0
     30684 WT13     407      MECN     C1       CG331   -0.170000       12.0110           0
     30685 WT13     407      MECN     H11      HGA3     0.090000        1.0080           0
     30686 WT13     407      MECN     H12      HGA3     0.090000        1.0080           0
     30687 WT13     407      MECN     H13      HGA3     0.090000        1.0080           0
     30688 WT13     407      MECN     C2       CG1N1    0.360000       12.0110           0
     30689 WT13     407      MECN     N3       NG1T1   -0.460000       14.0070           0
     30690 WT13     408      MECN     C1       CG331   -0.170000       12.0110           0
     30691 WT13     408      MECN     H11      HGA3     0.090000        1.0080           0
     30692 WT13     408      MECN     H12      HGA3     0.090000        1.0080           0
     30693 WT13     408      MECN     H13      HGA3     0.090000        1.0080           0
     30694 WT13     408      MECN     C2       CG1N1    0.360000       12.0110           0
     30695 WT13     408      MECN     N3       NG1T1   -0.460000       14.0070           0
     30696 WT13     412      MECN     C1       CG331   -0.170000       12.0110           0
     30697 WT13     412      MECN     H11      HGA3     0.090000        1.0080           0
     30698 WT13     412      MECN     H12      HGA3     0.090000        1.0080           0
     30699 WT13     412      MECN     H13      HGA3     0.090000        1.0080           0
     30700 WT13     412      MECN     C2       CG1N1    0.360000       12.0110           0
     30701 WT13     412      MECN     N3       NG1T1   -0.460000       14.0070           0
     30702 WT13     414      MECN     C1       CG331   -0.170000       12.0110           0
     30703 WT13     414      MECN     H11      HGA3     0.090000        1.0080           0
     30704 WT13     414      MECN     H12      HGA3     0.090000        1.0080           0
     30705 WT13     414      MECN     H13      HGA3     0.090000        1.0080           0
     30706 WT13     414      MECN     C2       CG1N1    0.360000       12.0110           0
     30707 WT13     414      MECN     N3       NG1T1   -0.460000       14.0070           0
     30708 WT13     415      MECN     C1       CG331   -0.170000       12.0110           0
     30709 WT13     415      MECN     H11      HGA3     0.090000        1.0080           0
     30710 WT13     415      MECN     H12      HGA3     0.090000        1.0080           0
     30711 WT13     415      MECN     H13      HGA3     0.090000        1.0080           0
     30712 WT13     415      MECN     C2       CG1N1    0.360000       12.0110           0
     30713 WT13     415      MECN     N3       NG1T1   -0.460000       14.0070           0
     30714 WT13     416      MECN     C1       CG331   -0.170000       12.0110           0
     30715 WT13     416      MECN     H11      HGA3     0.090000        1.0080           0
     30716 WT13     416      MECN     H12      HGA3     0.090000        1.0080           0
     30717 WT13     416      MECN     H13      HGA3     0.090000        1.0080           0
     30718 WT13     416      MECN     C2       CG1N1    0.360000       12.0110           0
     30719 WT13     416      MECN     N3       NG1T1   -0.460000       14.0070           0
     30720 WT13     421      MECN     C1       CG331   -0.170000       12.0110           0
     30721 WT13     421      MECN     H11      HGA3     0.090000        1.0080           0
     30722 WT13     421      MECN     H12      HGA3     0.090000        1.0080           0
     30723 WT13     421      MECN     H13      HGA3     0.090000        1.0080           0
     30724 WT13     421      MECN     C2       CG1N1    0.360000       12.0110           0
     30725 WT13     421      MECN     N3       NG1T1   -0.460000       14.0070           0
     30726 WT13     423      MECN     C1       CG331   -0.170000       12.0110           0
     30727 WT13     423      MECN     H11      HGA3     0.090000        1.0080           0
     30728 WT13     423      MECN     H12      HGA3     0.090000        1.0080           0
     30729 WT13     423      MECN     H13      HGA3     0.090000        1.0080           0
     30730 WT13     423      MECN     C2       CG1N1    0.360000       12.0110           0
     30731 WT13     423      MECN     N3       NG1T1   -0.460000       14.0070           0
     30732 WT13     430      MECN     C1       CG331   -0.170000       12.0110           0
     30733 WT13     430      MECN     H11      HGA3     0.090000        1.0080           0
     30734 WT13     430      MECN     H12      HGA3     0.090000        1.0080           0
     30735 WT13     430      MECN     H13      HGA3     0.090000        1.0080           0
     30736 WT13     430      MECN     C2       CG1N1    0.360000       12.0110           0
     30737 WT13     430      MECN     N3       NG1T1   -0.460000       14.0070           0
     30738 WT13     432      MECN     C1       CG331   -0.170000       12.0110           0
     30739 WT13     432      MECN     H11      HGA3     0.090000        1.0080           0
     30740 WT13     432      MECN     H12      HGA3     0.090000        1.0080           0
     30741 WT13     432      MECN     H13      HGA3     0.090000        1.0080           0
     30742 WT13     432      MECN     C2       CG1N1    0.360000       12.0110           0
     30743 WT13     432      MECN     N3       NG1T1   -0.460000       14.0070           0
     30744 WT13     433      MECN     C1       CG331   -0.170000       12.0110           0
     30745 WT13     433      MECN     H11      HGA3     0.090000        1.0080           0
     30746 WT13     433      MECN     H12      HGA3     0.090000        1.0080           0
     30747 WT13     433      MECN     H13      HGA3     0.090000        1.0080           0
     30748 WT13     433      MECN     C2       CG1N1    0.360000       12.0110           0
     30749 WT13     433      MECN     N3       NG1T1   -0.460000       14.0070           0
     30750 WT13     436      MECN     C1       CG331   -0.170000       12.0110           0
     30751 WT13     436      MECN     H11      HGA3     0.090000        1.0080           0
     30752 WT13     436      MECN     H12      HGA3     0.090000        1.0080           0
     30753 WT13     436      MECN     H13      HGA3     0.090000        1.0080           0
     30754 WT13     436      MECN     C2       CG1N1    0.360000       12.0110           0
     30755 WT13     436      MECN     N3       NG1T1   -0.460000       14.0070           0
     30756 WT13     437      MECN     C1       CG331   -0.170000       12.0110           0
     30757 WT13     437      MECN     H11      HGA3     0.090000        1.0080           0
     30758 WT13     437      MECN     H12      HGA3     0.090000        1.0080           0
     30759 WT13     437      MECN     H13      HGA3     0.090000        1.0080           0
     30760 WT13     437      MECN     C2       CG1N1    0.360000       12.0110           0
     30761 WT13     437      MECN     N3       NG1T1   -0.460000       14.0070           0
     30762 WT13     438      MECN     C1       CG331   -0.170000       12.0110           0
     30763 WT13     438      MECN     H11      HGA3     0.090000        1.0080           0
     30764 WT13     438      MECN     H12      HGA3     0.090000        1.0080           0
     30765 WT13     438      MECN     H13      HGA3     0.090000        1.0080           0
     30766 WT13     438      MECN     C2       CG1N1    0.360000       12.0110           0
     30767 WT13     438      MECN     N3       NG1T1   -0.460000       14.0070           0
     30768 WT13     439      MECN     C1       CG331   -0.170000       12.0110           0
     30769 WT13     439      MECN     H11      HGA3     0.090000        1.0080           0
     30770 WT13     439      MECN     H12      HGA3     0.090000        1.0080           0
     30771 WT13     439      MECN     H13      HGA3     0.090000        1.0080           0
     30772 WT13     439      MECN     C2       CG1N1    0.360000       12.0110           0
     30773 WT13     439      MECN     N3       NG1T1   -0.460000       14.0070           0
     30774 WT13     440      MECN     C1       CG331   -0.170000       12.0110           0
     30775 WT13     440      MECN     H11      HGA3     0.090000        1.0080           0
     30776 WT13     440      MECN     H12      HGA3     0.090000        1.0080           0
     30777 WT13     440      MECN     H13      HGA3     0.090000        1.0080           0
     30778 WT13     440      MECN     C2       CG1N1    0.360000       12.0110           0
     30779 WT13     440      MECN     N3       NG1T1   -0.460000       14.0070           0
     30780 WT13     442      MECN     C1       CG331   -0.170000       12.0110           0
     30781 WT13     442      MECN     H11      HGA3     0.090000        1.0080           0
     30782 WT13     442      MECN     H12      HGA3     0.090000        1.0080           0
     30783 WT13     442      MECN     H13      HGA3     0.090000        1.0080           0
     30784 WT13     442      MECN     C2       CG1N1    0.360000       12.0110           0
     30785 WT13     442      MECN     N3       NG1T1   -0.460000       14.0070           0
     30786 WT13     443      MECN     C1       CG331   -0.170000       12.0110           0
     30787 WT13     443      MECN     H11      HGA3     0.090000        1.0080           0
     30788 WT13     443      MECN     H12      HGA3     0.090000        1.0080           0
     30789 WT13     443      MECN     H13      HGA3     0.090000        1.0080           0
     30790 WT13     443      MECN     C2       CG1N1    0.360000       12.0110           0
     30791 WT13     443      MECN     N3       NG1T1   -0.460000       14.0070           0
     30792 WT13     444      MECN     C1       CG331   -0.170000       12.0110           0
     30793 WT13     444      MECN     H11      HGA3     0.090000        1.0080           0
     30794 WT13     444      MECN     H12      HGA3     0.090000        1.0080           0
     30795 WT13     444      MECN     H13      HGA3     0.090000        1.0080           0
     30796 WT13     444      MECN     C2       CG1N1    0.360000       12.0110           0
     30797 WT13     444      MECN     N3       NG1T1   -0.460000       14.0070           0
     30798 WT13     446      MECN     C1       CG331   -0.170000       12.0110           0
     30799 WT13     446      MECN     H11      HGA3     0.090000        1.0080           0
     30800 WT13     446      MECN     H12      HGA3     0.090000        1.0080           0
     30801 WT13     446      MECN     H13      HGA3     0.090000        1.0080           0
     30802 WT13     446      MECN     C2       CG1N1    0.360000       12.0110           0
     30803 WT13     446      MECN     N3       NG1T1   -0.460000       14.0070           0
     30804 WT13     449      MECN     C1       CG331   -0.170000       12.0110           0
     30805 WT13     449      MECN     H11      HGA3     0.090000        1.0080           0
     30806 WT13     449      MECN     H12      HGA3     0.090000        1.0080           0
     30807 WT13     449      MECN     H13      HGA3     0.090000        1.0080           0
     30808 WT13     449      MECN     C2       CG1N1    0.360000       12.0110           0
     30809 WT13     449      MECN     N3       NG1T1   -0.460000       14.0070           0
     30810 WT13     451      MECN     C1       CG331   -0.170000       12.0110           0
     30811 WT13     451      MECN     H11      HGA3     0.090000        1.0080           0
     30812 WT13     451      MECN     H12      HGA3     0.090000        1.0080           0
     30813 WT13     451      MECN     H13      HGA3     0.090000        1.0080           0
     30814 WT13     451      MECN     C2       CG1N1    0.360000       12.0110           0
     30815 WT13     451      MECN     N3       NG1T1   -0.460000       14.0070           0
     30816 WT13     452      MECN     C1       CG331   -0.170000       12.0110           0
     30817 WT13     452      MECN     H11      HGA3     0.090000        1.0080           0
     30818 WT13     452      MECN     H12      HGA3     0.090000        1.0080           0
     30819 WT13     452      MECN     H13      HGA3     0.090000        1.0080           0
     30820 WT13     452      MECN     C2       CG1N1    0.360000       12.0110           0
     30821 WT13     452      MECN     N3       NG1T1   -0.460000       14.0070           0
     30822 WT13     453      MECN     C1       CG331   -0.170000       12.0110           0
     30823 WT13     453      MECN     H11      HGA3     0.090000        1.0080           0
     30824 WT13     453      MECN     H12      HGA3     0.090000        1.0080           0
     30825 WT13     453      MECN     H13      HGA3     0.090000        1.0080           0
     30826 WT13     453      MECN     C2       CG1N1    0.360000       12.0110           0
     30827 WT13     453      MECN     N3       NG1T1   -0.460000       14.0070           0
     30828 WT13     454      MECN     C1       CG331   -0.170000       12.0110           0
     30829 WT13     454      MECN     H11      HGA3     0.090000        1.0080           0
     30830 WT13     454      MECN     H12      HGA3     0.090000        1.0080           0
     30831 WT13     454      MECN     H13      HGA3     0.090000        1.0080           0
     30832 WT13     454      MECN     C2       CG1N1    0.360000       12.0110           0
     30833 WT13     454      MECN     N3       NG1T1   -0.460000       14.0070           0
     30834 WT13     456      MECN     C1       CG331   -0.170000       12.0110           0
     30835 WT13     456      MECN     H11      HGA3     0.090000        1.0080           0
     30836 WT13     456      MECN     H12      HGA3     0.090000        1.0080           0
     30837 WT13     456      MECN     H13      HGA3     0.090000        1.0080           0
     30838 WT13     456      MECN     C2       CG1N1    0.360000       12.0110           0
     30839 WT13     456      MECN     N3       NG1T1   -0.460000       14.0070           0
     30840 WT13     458      MECN     C1       CG331   -0.170000       12.0110           0
     30841 WT13     458      MECN     H11      HGA3     0.090000        1.0080           0
     30842 WT13     458      MECN     H12      HGA3     0.090000        1.0080           0
     30843 WT13     458      MECN     H13      HGA3     0.090000        1.0080           0
     30844 WT13     458      MECN     C2       CG1N1    0.360000       12.0110           0
     30845 WT13     458      MECN     N3       NG1T1   -0.460000       14.0070           0
     30846 WT13     464      MECN     C1       CG331   -0.170000       12.0110           0
     30847 WT13     464      MECN     H11      HGA3     0.090000        1.0080           0
     30848 WT13     464      MECN     H12      HGA3     0.090000        1.0080           0
     30849 WT13     464      MECN     H13      HGA3     0.090000        1.0080           0
     30850 WT13     464      MECN     C2       CG1N1    0.360000       12.0110           0
     30851 WT13     464      MECN     N3       NG1T1   -0.460000       14.0070           0
     30852 WT13     465      MECN     C1       CG331   -0.170000       12.0110           0
     30853 WT13     465      MECN     H11      HGA3     0.090000        1.0080           0
     30854 WT13     465      MECN     H12      HGA3     0.090000        1.0080           0
     30855 WT13     465      MECN     H13      HGA3     0.090000        1.0080           0
     30856 WT13     465      MECN     C2       CG1N1    0.360000       12.0110           0
     30857 WT13     465      MECN     N3       NG1T1   -0.460000       14.0070           0
     30858 WT13     467      MECN     C1       CG331   -0.170000       12.0110           0
     30859 WT13     467      MECN     H11      HGA3     0.090000        1.0080           0
     30860 WT13     467      MECN     H12      HGA3     0.090000        1.0080           0
     30861 WT13     467      MECN     H13      HGA3     0.090000        1.0080           0
     30862 WT13     467      MECN     C2       CG1N1    0.360000       12.0110           0
     30863 WT13     467      MECN     N3       NG1T1   -0.460000       14.0070           0
     30864 WT13     469      MECN     C1       CG331   -0.170000       12.0110           0
     30865 WT13     469      MECN     H11      HGA3     0.090000        1.0080           0
     30866 WT13     469      MECN     H12      HGA3     0.090000        1.0080           0
     30867 WT13     469      MECN     H13      HGA3     0.090000        1.0080           0
     30868 WT13     469      MECN     C2       CG1N1    0.360000       12.0110           0
     30869 WT13     469      MECN     N3       NG1T1   -0.460000       14.0070           0
     30870 WT13     471      MECN     C1       CG331   -0.170000       12.0110           0
     30871 WT13     471      MECN     H11      HGA3     0.090000        1.0080           0
     30872 WT13     471      MECN     H12      HGA3     0.090000        1.0080           0
     30873 WT13     471      MECN     H13      HGA3     0.090000        1.0080           0
     30874 WT13     471      MECN     C2       CG1N1    0.360000       12.0110           0
     30875 WT13     471      MECN     N3       NG1T1   -0.460000       14.0070           0
     30876 WT13     472      MECN     C1       CG331   -0.170000       12.0110           0
     30877 WT13     472      MECN     H11      HGA3     0.090000        1.0080           0
     30878 WT13     472      MECN     H12      HGA3     0.090000        1.0080           0
     30879 WT13     472      MECN     H13      HGA3     0.090000        1.0080           0
     30880 WT13     472      MECN     C2       CG1N1    0.360000       12.0110           0
     30881 WT13     472      MECN     N3       NG1T1   -0.460000       14.0070           0
     30882 WT13     474      MECN     C1       CG331   -0.170000       12.0110           0
     30883 WT13     474      MECN     H11      HGA3     0.090000        1.0080           0
     30884 WT13     474      MECN     H12      HGA3     0.090000        1.0080           0
     30885 WT13     474      MECN     H13      HGA3     0.090000        1.0080           0
     30886 WT13     474      MECN     C2       CG1N1    0.360000       12.0110           0
     30887 WT13     474      MECN     N3       NG1T1   -0.460000       14.0070           0
     30888 WT13     477      MECN     C1       CG331   -0.170000       12.0110           0
     30889 WT13     477      MECN     H11      HGA3     0.090000        1.0080           0
     30890 WT13     477      MECN     H12      HGA3     0.090000        1.0080           0
     30891 WT13     477      MECN     H13      HGA3     0.090000        1.0080           0
     30892 WT13     477      MECN     C2       CG1N1    0.360000       12.0110           0
     30893 WT13     477      MECN     N3       NG1T1   -0.460000       14.0070           0
     30894 WT13     478      MECN     C1       CG331   -0.170000       12.0110           0
     30895 WT13     478      MECN     H11      HGA3     0.090000        1.0080           0
     30896 WT13     478      MECN     H12      HGA3     0.090000        1.0080           0
     30897 WT13     478      MECN     H13      HGA3     0.090000        1.0080           0
     30898 WT13     478      MECN     C2       CG1N1    0.360000       12.0110           0
     30899 WT13     478      MECN     N3       NG1T1   -0.460000       14.0070           0
     30900 WT13     479      MECN     C1       CG331   -0.170000       12.0110           0
     30901 WT13     479      MECN     H11      HGA3     0.090000        1.0080           0
     30902 WT13     479      MECN     H12      HGA3     0.090000        1.0080           0
     30903 WT13     479      MECN     H13      HGA3     0.090000        1.0080           0
     30904 WT13     479      MECN     C2       CG1N1    0.360000       12.0110           0
     30905 WT13     479      MECN     N3       NG1T1   -0.460000       14.0070           0
     30906 WT13     480      MECN     C1       CG331   -0.170000       12.0110           0
     30907 WT13     480      MECN     H11      HGA3     0.090000        1.0080           0
     30908 WT13     480      MECN     H12      HGA3     0.090000        1.0080           0
     30909 WT13     480      MECN     H13      HGA3     0.090000        1.0080           0
     30910 WT13     480      MECN     C2       CG1N1    0.360000       12.0110           0
     30911 WT13     480      MECN     N3       NG1T1   -0.460000       14.0070           0
     30912 WT13     481      MECN     C1       CG331   -0.170000       12.0110           0
     30913 WT13     481      MECN     H11      HGA3     0.090000        1.0080           0
     30914 WT13     481      MECN     H12      HGA3     0.090000        1.0080           0
     30915 WT13     481      MECN     H13      HGA3     0.090000        1.0080           0
     30916 WT13     481      MECN     C2       CG1N1    0.360000       12.0110           0
     30917 WT13     481      MECN     N3       NG1T1   -0.460000       14.0070           0
     30918 WT13     484      MECN     C1       CG331   -0.170000       12.0110           0
     30919 WT13     484      MECN     H11      HGA3     0.090000        1.0080           0
     30920 WT13     484      MECN     H12      HGA3     0.090000        1.0080           0
     30921 WT13     484      MECN     H13      HGA3     0.090000        1.0080           0
     30922 WT13     484      MECN     C2       CG1N1    0.360000       12.0110           0
     30923 WT13     484      MECN     N3       NG1T1   -0.460000       14.0070           0
     30924 WT13     485      MECN     C1       CG331   -0.170000       12.0110           0
     30925 WT13     485      MECN     H11      HGA3     0.090000        1.0080           0
     30926 WT13     485      MECN     H12      HGA3     0.090000        1.0080           0
     30927 WT13     485      MECN     H13      HGA3     0.090000        1.0080           0
     30928 WT13     485      MECN     C2       CG1N1    0.360000       12.0110           0
     30929 WT13     485      MECN     N3       NG1T1   -0.460000       14.0070           0
     30930 WT13     488      MECN     C1       CG331   -0.170000       12.0110           0
     30931 WT13     488      MECN     H11      HGA3     0.090000        1.0080           0
     30932 WT13     488      MECN     H12      HGA3     0.090000        1.0080           0
     30933 WT13     488      MECN     H13      HGA3     0.090000        1.0080           0
     30934 WT13     488      MECN     C2       CG1N1    0.360000       12.0110           0
     30935 WT13     488      MECN     N3       NG1T1   -0.460000       14.0070           0
     30936 WT13     492      MECN     C1       CG331   -0.170000       12.0110           0
     30937 WT13     492      MECN     H11      HGA3     0.090000        1.0080           0
     30938 WT13     492      MECN     H12      HGA3     0.090000        1.0080           0
     30939 WT13     492      MECN     H13      HGA3     0.090000        1.0080           0
     30940 WT13     492      MECN     C2       CG1N1    0.360000       12.0110           0
     30941 WT13     492      MECN     N3       NG1T1   -0.460000       14.0070           0
     30942 WT13     494      MECN     C1       CG331   -0.170000       12.0110           0
     30943 WT13     494      MECN     H11      HGA3     0.090000        1.0080           0
     30944 WT13     494      MECN     H12      HGA3     0.090000        1.0080           0
     30945 WT13     494      MECN     H13      HGA3     0.090000        1.0080           0
     30946 WT13     494      MECN     C2       CG1N1    0.360000       12.0110           0
     30947 WT13     494      MECN     N3       NG1T1   -0.460000       14.0070           0
     30948 WT13     495      MECN     C1       CG331   -0.170000       12.0110           0
     30949 WT13     495      MECN     H11      HGA3     0.090000        1.0080           0
     30950 WT13     495      MECN     H12      HGA3     0.090000        1.0080           0
     30951 WT13     495      MECN     H13      HGA3     0.090000        1.0080           0
     30952 WT13     495      MECN     C2       CG1N1    0.360000       12.0110           0
     30953 WT13     495      MECN     N3       NG1T1   -0.460000       14.0070           0
     30954 WT13     497      MECN     C1       CG331   -0.170000       12.0110           0
     30955 WT13     497      MECN     H11      HGA3     0.090000        1.0080           0
     30956 WT13     497      MECN     H12      HGA3     0.090000        1.0080           0
     30957 WT13     497      MECN     H13      HGA3     0.090000        1.0080           0
     30958 WT13     497      MECN     C2       CG1N1    0.360000       12.0110           0
     30959 WT13     497      MECN     N3       NG1T1   -0.460000       14.0070           0
     30960 WT13     505      MECN     C1       CG331   -0.170000       12.0110           0
     30961 WT13     505      MECN     H11      HGA3     0.090000        1.0080           0
     30962 WT13     505      MECN     H12      HGA3     0.090000        1.0080           0
     30963 WT13     505      MECN     H13      HGA3     0.090000        1.0080           0
     30964 WT13     505      MECN     C2       CG1N1    0.360000       12.0110           0
     30965 WT13     505      MECN     N3       NG1T1   -0.460000       14.0070           0
     30966 WT13     508      MECN     C1       CG331   -0.170000       12.0110           0
     30967 WT13     508      MECN     H11      HGA3     0.090000        1.0080           0
     30968 WT13     508      MECN     H12      HGA3     0.090000        1.0080           0
     30969 WT13     508      MECN     H13      HGA3     0.090000        1.0080           0
     30970 WT13     508      MECN     C2       CG1N1    0.360000       12.0110           0
     30971 WT13     508      MECN     N3       NG1T1   -0.460000       14.0070           0
     30972 WT13     510      MECN     C1       CG331   -0.170000       12.0110           0
     30973 WT13     510      MECN     H11      HGA3     0.090000        1.0080           0
     30974 WT13     510      MECN     H12      HGA3     0.090000        1.0080           0
     30975 WT13     510      MECN     H13      HGA3     0.090000        1.0080           0
     30976 WT13     510      MECN     C2       CG1N1    0.360000       12.0110           0
     30977 WT13     510      MECN     N3       NG1T1   -0.460000       14.0070           0
     30978 WT13     511      MECN     C1       CG331   -0.170000       12.0110           0
     30979 WT13     511      MECN     H11      HGA3     0.090000        1.0080           0
     30980 WT13     511      MECN     H12      HGA3     0.090000        1.0080           0
     30981 WT13     511      MECN     H13      HGA3     0.090000        1.0080           0
     30982 WT13     511      MECN     C2       CG1N1    0.360000       12.0110           0
     30983 WT13     511      MECN     N3       NG1T1   -0.460000       14.0070           0
     30984 WT13     512      MECN     C1       CG331   -0.170000       12.0110           0
     30985 WT13     512      MECN     H11      HGA3     0.090000        1.0080           0
     30986 WT13     512      MECN     H12      HGA3     0.090000        1.0080           0
     30987 WT13     512      MECN     H13      HGA3     0.090000        1.0080           0
     30988 WT13     512      MECN     C2       CG1N1    0.360000       12.0110           0
     30989 WT13     512      MECN     N3       NG1T1   -0.460000       14.0070           0
     30990 WT13     518      MECN     C1       CG331   -0.170000       12.0110           0
     30991 WT13     518      MECN     H11      HGA3     0.090000        1.0080           0
     30992 WT13     518      MECN     H12      HGA3     0.090000        1.0080           0
     30993 WT13     518      MECN     H13      HGA3     0.090000        1.0080           0
     30994 WT13     518      MECN     C2       CG1N1    0.360000       12.0110           0
     30995 WT13     518      MECN     N3       NG1T1   -0.460000       14.0070           0
     30996 WT13     519      MECN     C1       CG331   -0.170000       12.0110           0
     30997 WT13     519      MECN     H11      HGA3     0.090000        1.0080           0
     30998 WT13     519      MECN     H12      HGA3     0.090000        1.0080           0
     30999 WT13     519      MECN     H13      HGA3     0.090000        1.0080           0
     31000 WT13     519      MECN     C2       CG1N1    0.360000       12.0110           0
     31001 WT13     519      MECN     N3       NG1T1   -0.460000       14.0070           0
     31002 WT13     520      MECN     C1       CG331   -0.170000       12.0110           0
     31003 WT13     520      MECN     H11      HGA3     0.090000        1.0080           0
     31004 WT13     520      MECN     H12      HGA3     0.090000        1.0080           0
     31005 WT13     520      MECN     H13      HGA3     0.090000        1.0080           0
     31006 WT13     520      MECN     C2       CG1N1    0.360000       12.0110           0
     31007 WT13     520      MECN     N3       NG1T1   -0.460000       14.0070           0
     31008 WT13     525      MECN     C1       CG331   -0.170000       12.0110           0
     31009 WT13     525      MECN     H11      HGA3     0.090000        1.0080           0
     31010 WT13     525      MECN     H12      HGA3     0.090000        1.0080           0
     31011 WT13     525      MECN     H13      HGA3     0.090000        1.0080           0
     31012 WT13     525      MECN     C2       CG1N1    0.360000       12.0110           0
     31013 WT13     525      MECN     N3       NG1T1   -0.460000       14.0070           0
     31014 WT13     526      MECN     C1       CG331   -0.170000       12.0110           0
     31015 WT13     526      MECN     H11      HGA3     0.090000        1.0080           0
     31016 WT13     526      MECN     H12      HGA3     0.090000        1.0080           0
     31017 WT13     526      MECN     H13      HGA3     0.090000        1.0080           0
     31018 WT13     526      MECN     C2       CG1N1    0.360000       12.0110           0
     31019 WT13     526      MECN     N3       NG1T1   -0.460000       14.0070           0
     31020 WT13     527      MECN     C1       CG331   -0.170000       12.0110           0
     31021 WT13     527      MECN     H11      HGA3     0.090000        1.0080           0
     31022 WT13     527      MECN     H12      HGA3     0.090000        1.0080           0
     31023 WT13     527      MECN     H13      HGA3     0.090000        1.0080           0
     31024 WT13     527      MECN     C2       CG1N1    0.360000       12.0110           0
     31025 WT13     527      MECN     N3       NG1T1   -0.460000       14.0070           0
     31026 WT13     528      MECN     C1       CG331   -0.170000       12.0110           0
     31027 WT13     528      MECN     H11      HGA3     0.090000        1.0080           0
     31028 WT13     528      MECN     H12      HGA3     0.090000        1.0080           0
     31029 WT13     528      MECN     H13      HGA3     0.090000        1.0080           0
     31030 WT13     528      MECN     C2       CG1N1    0.360000       12.0110           0
     31031 WT13     528      MECN     N3       NG1T1   -0.460000       14.0070           0
     31032 WT13     531      MECN     C1       CG331   -0.170000       12.0110           0
     31033 WT13     531      MECN     H11      HGA3     0.090000        1.0080           0
     31034 WT13     531      MECN     H12      HGA3     0.090000        1.0080           0
     31035 WT13     531      MECN     H13      HGA3     0.090000        1.0080           0
     31036 WT13     531      MECN     C2       CG1N1    0.360000       12.0110           0
     31037 WT13     531      MECN     N3       NG1T1   -0.460000       14.0070           0
     31038 WT13     535      MECN     C1       CG331   -0.170000       12.0110           0
     31039 WT13     535      MECN     H11      HGA3     0.090000        1.0080           0
     31040 WT13     535      MECN     H12      HGA3     0.090000        1.0080           0
     31041 WT13     535      MECN     H13      HGA3     0.090000        1.0080           0
     31042 WT13     535      MECN     C2       CG1N1    0.360000       12.0110           0
     31043 WT13     535      MECN     N3       NG1T1   -0.460000       14.0070           0
     31044 WT13     541      MECN     C1       CG331   -0.170000       12.0110           0
     31045 WT13     541      MECN     H11      HGA3     0.090000        1.0080           0
     31046 WT13     541      MECN     H12      HGA3     0.090000        1.0080           0
     31047 WT13     541      MECN     H13      HGA3     0.090000        1.0080           0
     31048 WT13     541      MECN     C2       CG1N1    0.360000       12.0110           0
     31049 WT13     541      MECN     N3       NG1T1   -0.460000       14.0070           0
     31050 WT13     542      MECN     C1       CG331   -0.170000       12.0110           0
     31051 WT13     542      MECN     H11      HGA3     0.090000        1.0080           0
     31052 WT13     542      MECN     H12      HGA3     0.090000        1.0080           0
     31053 WT13     542      MECN     H13      HGA3     0.090000        1.0080           0
     31054 WT13     542      MECN     C2       CG1N1    0.360000       12.0110           0
     31055 WT13     542      MECN     N3       NG1T1   -0.460000       14.0070           0
     31056 WT13     543      MECN     C1       CG331   -0.170000       12.0110           0
     31057 WT13     543      MECN     H11      HGA3     0.090000        1.0080           0
     31058 WT13     543      MECN     H12      HGA3     0.090000        1.0080           0
     31059 WT13     543      MECN     H13      HGA3     0.090000        1.0080           0
     31060 WT13     543      MECN     C2       CG1N1    0.360000       12.0110           0
     31061 WT13     543      MECN     N3       NG1T1   -0.460000       14.0070           0
     31062 WT13     544      MECN     C1       CG331   -0.170000       12.0110           0
     31063 WT13     544      MECN     H11      HGA3     0.090000        1.0080           0
     31064 WT13     544      MECN     H12      HGA3     0.090000        1.0080           0
     31065 WT13     544      MECN     H13      HGA3     0.090000        1.0080           0
     31066 WT13     544      MECN     C2       CG1N1    0.360000       12.0110           0
     31067 WT13     544      MECN     N3       NG1T1   -0.460000       14.0070           0
     31068 WT13     546      MECN     C1       CG331   -0.170000       12.0110           0
     31069 WT13     546      MECN     H11      HGA3     0.090000        1.0080           0
     31070 WT13     546      MECN     H12      HGA3     0.090000        1.0080           0
     31071 WT13     546      MECN     H13      HGA3     0.090000        1.0080           0
     31072 WT13     546      MECN     C2       CG1N1    0.360000       12.0110           0
     31073 WT13     546      MECN     N3       NG1T1   -0.460000       14.0070           0
     31074 WT13     553      MECN     C1       CG331   -0.170000       12.0110           0
     31075 WT13     553      MECN     H11      HGA3     0.090000        1.0080           0
     31076 WT13     553      MECN     H12      HGA3     0.090000        1.0080           0
     31077 WT13     553      MECN     H13      HGA3     0.090000        1.0080           0
     31078 WT13     553      MECN     C2       CG1N1    0.360000       12.0110           0
     31079 WT13     553      MECN     N3       NG1T1   -0.460000       14.0070           0
     31080 WT13     554      MECN     C1       CG331   -0.170000       12.0110           0
     31081 WT13     554      MECN     H11      HGA3     0.090000        1.0080           0
     31082 WT13     554      MECN     H12      HGA3     0.090000        1.0080           0
     31083 WT13     554      MECN     H13      HGA3     0.090000        1.0080           0
     31084 WT13     554      MECN     C2       CG1N1    0.360000       12.0110           0
     31085 WT13     554      MECN     N3       NG1T1   -0.460000       14.0070           0
     31086 WT13     555      MECN     C1       CG331   -0.170000       12.0110           0
     31087 WT13     555      MECN     H11      HGA3     0.090000        1.0080           0
     31088 WT13     555      MECN     H12      HGA3     0.090000        1.0080           0
     31089 WT13     555      MECN     H13      HGA3     0.090000        1.0080           0
     31090 WT13     555      MECN     C2       CG1N1    0.360000       12.0110           0
     31091 WT13     555      MECN     N3       NG1T1   -0.460000       14.0070           0
     31092 WT13     556      MECN     C1       CG331   -0.170000       12.0110           0
     31093 WT13     556      MECN     H11      HGA3     0.090000        1.0080           0
     31094 WT13     556      MECN     H12      HGA3     0.090000        1.0080           0
     31095 WT13     556      MECN     H13      HGA3     0.090000        1.0080           0
     31096 WT13     556      MECN     C2       CG1N1    0.360000       12.0110           0
     31097 WT13     556      MECN     N3       NG1T1   -0.460000       14.0070           0
     31098 WT13     558      MECN     C1       CG331   -0.170000       12.0110           0
     31099 WT13     558      MECN     H11      HGA3     0.090000        1.0080           0
     31100 WT13     558      MECN     H12      HGA3     0.090000        1.0080           0
     31101 WT13     558      MECN     H13      HGA3     0.090000        1.0080           0
     31102 WT13     558      MECN     C2       CG1N1    0.360000       12.0110           0
     31103 WT13     558      MECN     N3       NG1T1   -0.460000       14.0070           0
     31104 WT13     559      MECN     C1       CG331   -0.170000       12.0110           0
     31105 WT13     559      MECN     H11      HGA3     0.090000        1.0080           0
     31106 WT13     559      MECN     H12      HGA3     0.090000        1.0080           0
     31107 WT13     559      MECN     H13      HGA3     0.090000        1.0080           0
     31108 WT13     559      MECN     C2       CG1N1    0.360000       12.0110           0
     31109 WT13     559      MECN     N3       NG1T1   -0.460000       14.0070           0
     31110 WT13     562      MECN     C1       CG331   -0.170000       12.0110           0
     31111 WT13     562      MECN     H11      HGA3     0.090000        1.0080           0
     31112 WT13     562      MECN     H12      HGA3     0.090000        1.0080           0
     31113 WT13     562      MECN     H13      HGA3     0.090000        1.0080           0
     31114 WT13     562      MECN     C2       CG1N1    0.360000       12.0110           0
     31115 WT13     562      MECN     N3       NG1T1   -0.460000       14.0070           0
     31116 WT13     566      MECN     C1       CG331   -0.170000       12.0110           0
     31117 WT13     566      MECN     H11      HGA3     0.090000        1.0080           0
     31118 WT13     566      MECN     H12      HGA3     0.090000        1.0080           0
     31119 WT13     566      MECN     H13      HGA3     0.090000        1.0080           0
     31120 WT13     566      MECN     C2       CG1N1    0.360000       12.0110           0
     31121 WT13     566      MECN     N3       NG1T1   -0.460000       14.0070           0
     31122 WT13     569      MECN     C1       CG331   -0.170000       12.0110           0
     31123 WT13     569      MECN     H11      HGA3     0.090000        1.0080           0
     31124 WT13     569      MECN     H12      HGA3     0.090000        1.0080           0
     31125 WT13     569      MECN     H13      HGA3     0.090000        1.0080           0
     31126 WT13     569      MECN     C2       CG1N1    0.360000       12.0110           0
     31127 WT13     569      MECN     N3       NG1T1   -0.460000       14.0070           0
     31128 WT13     578      MECN     C1       CG331   -0.170000       12.0110           0
     31129 WT13     578      MECN     H11      HGA3     0.090000        1.0080           0
     31130 WT13     578      MECN     H12      HGA3     0.090000        1.0080           0
     31131 WT13     578      MECN     H13      HGA3     0.090000        1.0080           0
     31132 WT13     578      MECN     C2       CG1N1    0.360000       12.0110           0
     31133 WT13     578      MECN     N3       NG1T1   -0.460000       14.0070           0
     31134 WT13     579      MECN     C1       CG331   -0.170000       12.0110           0
     31135 WT13     579      MECN     H11      HGA3     0.090000        1.0080           0
     31136 WT13     579      MECN     H12      HGA3     0.090000        1.0080           0
     31137 WT13     579      MECN     H13      HGA3     0.090000        1.0080           0
     31138 WT13     579      MECN     C2       CG1N1    0.360000       12.0110           0
     31139 WT13     579      MECN     N3       NG1T1   -0.460000       14.0070           0
     31140 WT13     580      MECN     C1       CG331   -0.170000       12.0110           0
     31141 WT13     580      MECN     H11      HGA3     0.090000        1.0080           0
     31142 WT13     580      MECN     H12      HGA3     0.090000        1.0080           0
     31143 WT13     580      MECN     H13      HGA3     0.090000        1.0080           0
     31144 WT13     580      MECN     C2       CG1N1    0.360000       12.0110           0
     31145 WT13     580      MECN     N3       NG1T1   -0.460000       14.0070           0
     31146 WT13     584      MECN     C1       CG331   -0.170000       12.0110           0
     31147 WT13     584      MECN     H11      HGA3     0.090000        1.0080           0
     31148 WT13     584      MECN     H12      HGA3     0.090000        1.0080           0
     31149 WT13     584      MECN     H13      HGA3     0.090000        1.0080           0
     31150 WT13     584      MECN     C2       CG1N1    0.360000       12.0110           0
     31151 WT13     584      MECN     N3       NG1T1   -0.460000       14.0070           0
     31152 WT13     585      MECN     C1       CG331   -0.170000       12.0110           0
     31153 WT13     585      MECN     H11      HGA3     0.090000        1.0080           0
     31154 WT13     585      MECN     H12      HGA3     0.090000        1.0080           0
     31155 WT13     585      MECN     H13      HGA3     0.090000        1.0080           0
     31156 WT13     585      MECN     C2       CG1N1    0.360000       12.0110           0
     31157 WT13     585      MECN     N3       NG1T1   -0.460000       14.0070           0
     31158 WT13     586      MECN     C1       CG331   -0.170000       12.0110           0
     31159 WT13     586      MECN     H11      HGA3     0.090000        1.0080           0
     31160 WT13     586      MECN     H12      HGA3     0.090000        1.0080           0
     31161 WT13     586      MECN     H13      HGA3     0.090000        1.0080           0
     31162 WT13     586      MECN     C2       CG1N1    0.360000       12.0110           0
     31163 WT13     586      MECN     N3       NG1T1   -0.460000       14.0070           0
     31164 WT13     587      MECN     C1       CG331   -0.170000       12.0110           0
     31165 WT13     587      MECN     H11      HGA3     0.090000        1.0080           0
     31166 WT13     587      MECN     H12      HGA3     0.090000        1.0080           0
     31167 WT13     587      MECN     H13      HGA3     0.090000        1.0080           0
     31168 WT13     587      MECN     C2       CG1N1    0.360000       12.0110           0
     31169 WT13     587      MECN     N3       NG1T1   -0.460000       14.0070           0
     31170 WT13     588      MECN     C1       CG331   -0.170000       12.0110           0
     31171 WT13     588      MECN     H11      HGA3     0.090000        1.0080           0
     31172 WT13     588      MECN     H12      HGA3     0.090000        1.0080           0
     31173 WT13     588      MECN     H13      HGA3     0.090000        1.0080           0
     31174 WT13     588      MECN     C2       CG1N1    0.360000       12.0110           0
     31175 WT13     588      MECN     N3       NG1T1   -0.460000       14.0070           0
     31176 WT13     589      MECN     C1       CG331   -0.170000       12.0110           0
     31177 WT13     589      MECN     H11      HGA3     0.090000        1.0080           0
     31178 WT13     589      MECN     H12      HGA3     0.090000        1.0080           0
     31179 WT13     589      MECN     H13      HGA3     0.090000        1.0080           0
     31180 WT13     589      MECN     C2       CG1N1    0.360000       12.0110           0
     31181 WT13     589      MECN     N3       NG1T1   -0.460000       14.0070           0
     31182 WT13     590      MECN     C1       CG331   -0.170000       12.0110           0
     31183 WT13     590      MECN     H11      HGA3     0.090000        1.0080           0
     31184 WT13     590      MECN     H12      HGA3     0.090000        1.0080           0
     31185 WT13     590      MECN     H13      HGA3     0.090000        1.0080           0
     31186 WT13     590      MECN     C2       CG1N1    0.360000       12.0110           0
     31187 WT13     590      MECN     N3       NG1T1   -0.460000       14.0070           0
     31188 WT13     594      MECN     C1       CG331   -0.170000       12.0110           0
     31189 WT13     594      MECN     H11      HGA3     0.090000        1.0080           0
     31190 WT13     594      MECN     H12      HGA3     0.090000        1.0080           0
     31191 WT13     594      MECN     H13      HGA3     0.090000        1.0080           0
     31192 WT13     594      MECN     C2       CG1N1    0.360000       12.0110           0
     31193 WT13     594      MECN     N3       NG1T1   -0.460000       14.0070           0
     31194 WT13     595      MECN     C1       CG331   -0.170000       12.0110           0
     31195 WT13     595      MECN     H11      HGA3     0.090000        1.0080           0
     31196 WT13     595      MECN     H12      HGA3     0.090000        1.0080           0
     31197 WT13     595      MECN     H13      HGA3     0.090000        1.0080           0
     31198 WT13     595      MECN     C2       CG1N1    0.360000       12.0110           0
     31199 WT13     595      MECN     N3       NG1T1   -0.460000       14.0070           0
     31200 WT13     601      MECN     C1       CG331   -0.170000       12.0110           0
     31201 WT13     601      MECN     H11      HGA3     0.090000        1.0080           0
     31202 WT13     601      MECN     H12      HGA3     0.090000        1.0080           0
     31203 WT13     601      MECN     H13      HGA3     0.090000        1.0080           0
     31204 WT13     601      MECN     C2       CG1N1    0.360000       12.0110           0
     31205 WT13     601      MECN     N3       NG1T1   -0.460000       14.0070           0
     31206 WT13     602      MECN     C1       CG331   -0.170000       12.0110           0
     31207 WT13     602      MECN     H11      HGA3     0.090000        1.0080           0
     31208 WT13     602      MECN     H12      HGA3     0.090000        1.0080           0
     31209 WT13     602      MECN     H13      HGA3     0.090000        1.0080           0
     31210 WT13     602      MECN     C2       CG1N1    0.360000       12.0110           0
     31211 WT13     602      MECN     N3       NG1T1   -0.460000       14.0070           0
     31212 WT13     605      MECN     C1       CG331   -0.170000       12.0110           0
     31213 WT13     605      MECN     H11      HGA3     0.090000        1.0080           0
     31214 WT13     605      MECN     H12      HGA3     0.090000        1.0080           0
     31215 WT13     605      MECN     H13      HGA3     0.090000        1.0080           0
     31216 WT13     605      MECN     C2       CG1N1    0.360000       12.0110           0
     31217 WT13     605      MECN     N3       NG1T1   -0.460000       14.0070           0
     31218 WT13     608      MECN     C1       CG331   -0.170000       12.0110           0
     31219 WT13     608      MECN     H11      HGA3     0.090000        1.0080           0
     31220 WT13     608      MECN     H12      HGA3     0.090000        1.0080           0
     31221 WT13     608      MECN     H13      HGA3     0.090000        1.0080           0
     31222 WT13     608      MECN     C2       CG1N1    0.360000       12.0110           0
     31223 WT13     608      MECN     N3       NG1T1   -0.460000       14.0070           0
     31224 WT13     611      MECN     C1       CG331   -0.170000       12.0110           0
     31225 WT13     611      MECN     H11      HGA3     0.090000        1.0080           0
     31226 WT13     611      MECN     H12      HGA3     0.090000        1.0080           0
     31227 WT13     611      MECN     H13      HGA3     0.090000        1.0080           0
     31228 WT13     611      MECN     C2       CG1N1    0.360000       12.0110           0
     31229 WT13     611      MECN     N3       NG1T1   -0.460000       14.0070           0
     31230 WT13     613      MECN     C1       CG331   -0.170000       12.0110           0
     31231 WT13     613      MECN     H11      HGA3     0.090000        1.0080           0
     31232 WT13     613      MECN     H12      HGA3     0.090000        1.0080           0
     31233 WT13     613      MECN     H13      HGA3     0.090000        1.0080           0
     31234 WT13     613      MECN     C2       CG1N1    0.360000       12.0110           0
     31235 WT13     613      MECN     N3       NG1T1   -0.460000       14.0070           0
     31236 WT13     615      MECN     C1       CG331   -0.170000       12.0110           0
     31237 WT13     615      MECN     H11      HGA3     0.090000        1.0080           0
     31238 WT13     615      MECN     H12      HGA3     0.090000        1.0080           0
     31239 WT13     615      MECN     H13      HGA3     0.090000        1.0080           0
     31240 WT13     615      MECN     C2       CG1N1    0.360000       12.0110           0
     31241 WT13     615      MECN     N3       NG1T1   -0.460000       14.0070           0
     31242 WT13     617      MECN     C1       CG331   -0.170000       12.0110           0
     31243 WT13     617      MECN     H11      HGA3     0.090000        1.0080           0
     31244 WT13     617      MECN     H12      HGA3     0.090000        1.0080           0
     31245 WT13     617      MECN     H13      HGA3     0.090000        1.0080           0
     31246 WT13     617      MECN     C2       CG1N1    0.360000       12.0110           0
     31247 WT13     617      MECN     N3       NG1T1   -0.460000       14.0070           0
     31248 WT13     618      MECN     C1       CG331   -0.170000       12.0110           0
     31249 WT13     618      MECN     H11      HGA3     0.090000        1.0080           0
     31250 WT13     618      MECN     H12      HGA3     0.090000        1.0080           0
     31251 WT13     618      MECN     H13      HGA3     0.090000        1.0080           0
     31252 WT13     618      MECN     C2       CG1N1    0.360000       12.0110           0
     31253 WT13     618      MECN     N3       NG1T1   -0.460000       14.0070           0
     31254 WT13     619      MECN     C1       CG331   -0.170000       12.0110           0
     31255 WT13     619      MECN     H11      HGA3     0.090000        1.0080           0
     31256 WT13     619      MECN     H12      HGA3     0.090000        1.0080           0
     31257 WT13     619      MECN     H13      HGA3     0.090000        1.0080           0
     31258 WT13     619      MECN     C2       CG1N1    0.360000       12.0110           0
     31259 WT13     619      MECN     N3       NG1T1   -0.460000       14.0070           0
     31260 WT13     620      MECN     C1       CG331   -0.170000       12.0110           0
     31261 WT13     620      MECN     H11      HGA3     0.090000        1.0080           0
     31262 WT13     620      MECN     H12      HGA3     0.090000        1.0080           0
     31263 WT13     620      MECN     H13      HGA3     0.090000        1.0080           0
     31264 WT13     620      MECN     C2       CG1N1    0.360000       12.0110           0
     31265 WT13     620      MECN     N3       NG1T1   -0.460000       14.0070           0
     31266 WT13     621      MECN     C1       CG331   -0.170000       12.0110           0
     31267 WT13     621      MECN     H11      HGA3     0.090000        1.0080           0
     31268 WT13     621      MECN     H12      HGA3     0.090000        1.0080           0
     31269 WT13     621      MECN     H13      HGA3     0.090000        1.0080           0
     31270 WT13     621      MECN     C2       CG1N1    0.360000       12.0110           0
     31271 WT13     621      MECN     N3       NG1T1   -0.460000       14.0070           0
     31272 WT13     622      MECN     C1       CG331   -0.170000       12.0110           0
     31273 WT13     622      MECN     H11      HGA3     0.090000        1.0080           0
     31274 WT13     622      MECN     H12      HGA3     0.090000        1.0080           0
     31275 WT13     622      MECN     H13      HGA3     0.090000        1.0080           0
     31276 WT13     622      MECN     C2       CG1N1    0.360000       12.0110           0
     31277 WT13     622      MECN     N3       NG1T1   -0.460000       14.0070           0
     31278 WT13     623      MECN     C1       CG331   -0.170000       12.0110           0
     31279 WT13     623      MECN     H11      HGA3     0.090000        1.0080           0
     31280 WT13     623      MECN     H12      HGA3     0.090000        1.0080           0
     31281 WT13     623      MECN     H13      HGA3     0.090000        1.0080           0
     31282 WT13     623      MECN     C2       CG1N1    0.360000       12.0110           0
     31283 WT13     623      MECN     N3       NG1T1   -0.460000       14.0070           0
     31284 WT13     625      MECN     C1       CG331   -0.170000       12.0110           0
     31285 WT13     625      MECN     H11      HGA3     0.090000        1.0080           0
     31286 WT13     625      MECN     H12      HGA3     0.090000        1.0080           0
     31287 WT13     625      MECN     H13      HGA3     0.090000        1.0080           0
     31288 WT13     625      MECN     C2       CG1N1    0.360000       12.0110           0
     31289 WT13     625      MECN     N3       NG1T1   -0.460000       14.0070           0
     31290 WT13     627      MECN     C1       CG331   -0.170000       12.0110           0
     31291 WT13     627      MECN     H11      HGA3     0.090000        1.0080           0
     31292 WT13     627      MECN     H12      HGA3     0.090000        1.0080           0
     31293 WT13     627      MECN     H13      HGA3     0.090000        1.0080           0
     31294 WT13     627      MECN     C2       CG1N1    0.360000       12.0110           0
     31295 WT13     627      MECN     N3       NG1T1   -0.460000       14.0070           0
     31296 WT13     633      MECN     C1       CG331   -0.170000       12.0110           0
     31297 WT13     633      MECN     H11      HGA3     0.090000        1.0080           0
     31298 WT13     633      MECN     H12      HGA3     0.090000        1.0080           0
     31299 WT13     633      MECN     H13      HGA3     0.090000        1.0080           0
     31300 WT13     633      MECN     C2       CG1N1    0.360000       12.0110           0
     31301 WT13     633      MECN     N3       NG1T1   -0.460000       14.0070           0
     31302 WT13     634      MECN     C1       CG331   -0.170000       12.0110           0
     31303 WT13     634      MECN     H11      HGA3     0.090000        1.0080           0
     31304 WT13     634      MECN     H12      HGA3     0.090000        1.0080           0
     31305 WT13     634      MECN     H13      HGA3     0.090000        1.0080           0
     31306 WT13     634      MECN     C2       CG1N1    0.360000       12.0110           0
     31307 WT13     634      MECN     N3       NG1T1   -0.460000       14.0070           0
     31308 WT13     636      MECN     C1       CG331   -0.170000       12.0110           0
     31309 WT13     636      MECN     H11      HGA3     0.090000        1.0080           0
     31310 WT13     636      MECN     H12      HGA3     0.090000        1.0080           0
     31311 WT13     636      MECN     H13      HGA3     0.090000        1.0080           0
     31312 WT13     636      MECN     C2       CG1N1    0.360000       12.0110           0
     31313 WT13     636      MECN     N3       NG1T1   -0.460000       14.0070           0
     31314 WT13     637      MECN     C1       CG331   -0.170000       12.0110           0
     31315 WT13     637      MECN     H11      HGA3     0.090000        1.0080           0
     31316 WT13     637      MECN     H12      HGA3     0.090000        1.0080           0
     31317 WT13     637      MECN     H13      HGA3     0.090000        1.0080           0
     31318 WT13     637      MECN     C2       CG1N1    0.360000       12.0110           0
     31319 WT13     637      MECN     N3       NG1T1   -0.460000       14.0070           0
     31320 WT13     639      MECN     C1       CG331   -0.170000       12.0110           0
     31321 WT13     639      MECN     H11      HGA3     0.090000        1.0080           0
     31322 WT13     639      MECN     H12      HGA3     0.090000        1.0080           0
     31323 WT13     639      MECN     H13      HGA3     0.090000        1.0080           0
     31324 WT13     639      MECN     C2       CG1N1    0.360000       12.0110           0
     31325 WT13     639      MECN     N3       NG1T1   -0.460000       14.0070           0
     31326 WT13     640      MECN     C1       CG331   -0.170000       12.0110           0
     31327 WT13     640      MECN     H11      HGA3     0.090000        1.0080           0
     31328 WT13     640      MECN     H12      HGA3     0.090000        1.0080           0
     31329 WT13     640      MECN     H13      HGA3     0.090000        1.0080           0
     31330 WT13     640      MECN     C2       CG1N1    0.360000       12.0110           0
     31331 WT13     640      MECN     N3       NG1T1   -0.460000       14.0070           0
     31332 WT13     641      MECN     C1       CG331   -0.170000       12.0110           0
     31333 WT13     641      MECN     H11      HGA3     0.090000        1.0080           0
     31334 WT13     641      MECN     H12      HGA3     0.090000        1.0080           0
     31335 WT13     641      MECN     H13      HGA3     0.090000        1.0080           0
     31336 WT13     641      MECN     C2       CG1N1    0.360000       12.0110           0
     31337 WT13     641      MECN     N3       NG1T1   -0.460000       14.0070           0
     31338 WT13     644      MECN     C1       CG331   -0.170000       12.0110           0
     31339 WT13     644      MECN     H11      HGA3     0.090000        1.0080           0
     31340 WT13     644      MECN     H12      HGA3     0.090000        1.0080           0
     31341 WT13     644      MECN     H13      HGA3     0.090000        1.0080           0
     31342 WT13     644      MECN     C2       CG1N1    0.360000       12.0110           0
     31343 WT13     644      MECN     N3       NG1T1   -0.460000       14.0070           0
     31344 WT13     645      MECN     C1       CG331   -0.170000       12.0110           0
     31345 WT13     645      MECN     H11      HGA3     0.090000        1.0080           0
     31346 WT13     645      MECN     H12      HGA3     0.090000        1.0080           0
     31347 WT13     645      MECN     H13      HGA3     0.090000        1.0080           0
     31348 WT13     645      MECN     C2       CG1N1    0.360000       12.0110           0
     31349 WT13     645      MECN     N3       NG1T1   -0.460000       14.0070           0
     31350 WT13     646      MECN     C1       CG331   -0.170000       12.0110           0
     31351 WT13     646      MECN     H11      HGA3     0.090000        1.0080           0
     31352 WT13     646      MECN     H12      HGA3     0.090000        1.0080           0
     31353 WT13     646      MECN     H13      HGA3     0.090000        1.0080           0
     31354 WT13     646      MECN     C2       CG1N1    0.360000       12.0110           0
     31355 WT13     646      MECN     N3       NG1T1   -0.460000       14.0070           0
     31356 WT13     648      MECN     C1       CG331   -0.170000       12.0110           0
     31357 WT13     648      MECN     H11      HGA3     0.090000        1.0080           0
     31358 WT13     648      MECN     H12      HGA3     0.090000        1.0080           0
     31359 WT13     648      MECN     H13      HGA3     0.090000        1.0080           0
     31360 WT13     648      MECN     C2       CG1N1    0.360000       12.0110           0
     31361 WT13     648      MECN     N3       NG1T1   -0.460000       14.0070           0
     31362 WT13     649      MECN     C1       CG331   -0.170000       12.0110           0
     31363 WT13     649      MECN     H11      HGA3     0.090000        1.0080           0
     31364 WT13     649      MECN     H12      HGA3     0.090000        1.0080           0
     31365 WT13     649      MECN     H13      HGA3     0.090000        1.0080           0
     31366 WT13     649      MECN     C2       CG1N1    0.360000       12.0110           0
     31367 WT13     649      MECN     N3       NG1T1   -0.460000       14.0070           0
     31368 WT13     650      MECN     C1       CG331   -0.170000       12.0110           0
     31369 WT13     650      MECN     H11      HGA3     0.090000        1.0080           0
     31370 WT13     650      MECN     H12      HGA3     0.090000        1.0080           0
     31371 WT13     650      MECN     H13      HGA3     0.090000        1.0080           0
     31372 WT13     650      MECN     C2       CG1N1    0.360000       12.0110           0
     31373 WT13     650      MECN     N3       NG1T1   -0.460000       14.0070           0
     31374 WT13     651      MECN     C1       CG331   -0.170000       12.0110           0
     31375 WT13     651      MECN     H11      HGA3     0.090000        1.0080           0
     31376 WT13     651      MECN     H12      HGA3     0.090000        1.0080           0
     31377 WT13     651      MECN     H13      HGA3     0.090000        1.0080           0
     31378 WT13     651      MECN     C2       CG1N1    0.360000       12.0110           0
     31379 WT13     651      MECN     N3       NG1T1   -0.460000       14.0070           0
     31380 WT13     655      MECN     C1       CG331   -0.170000       12.0110           0
     31381 WT13     655      MECN     H11      HGA3     0.090000        1.0080           0
     31382 WT13     655      MECN     H12      HGA3     0.090000        1.0080           0
     31383 WT13     655      MECN     H13      HGA3     0.090000        1.0080           0
     31384 WT13     655      MECN     C2       CG1N1    0.360000       12.0110           0
     31385 WT13     655      MECN     N3       NG1T1   -0.460000       14.0070           0
     31386 WT13     656      MECN     C1       CG331   -0.170000       12.0110           0
     31387 WT13     656      MECN     H11      HGA3     0.090000        1.0080           0
     31388 WT13     656      MECN     H12      HGA3     0.090000        1.0080           0
     31389 WT13     656      MECN     H13      HGA3     0.090000        1.0080           0
     31390 WT13     656      MECN     C2       CG1N1    0.360000       12.0110           0
     31391 WT13     656      MECN     N3       NG1T1   -0.460000       14.0070           0
     31392 WT13     657      MECN     C1       CG331   -0.170000       12.0110           0
     31393 WT13     657      MECN     H11      HGA3     0.090000        1.0080           0
     31394 WT13     657      MECN     H12      HGA3     0.090000        1.0080           0
     31395 WT13     657      MECN     H13      HGA3     0.090000        1.0080           0
     31396 WT13     657      MECN     C2       CG1N1    0.360000       12.0110           0
     31397 WT13     657      MECN     N3       NG1T1   -0.460000       14.0070           0
     31398 WT13     658      MECN     C1       CG331   -0.170000       12.0110           0
     31399 WT13     658      MECN     H11      HGA3     0.090000        1.0080           0
     31400 WT13     658      MECN     H12      HGA3     0.090000        1.0080           0
     31401 WT13     658      MECN     H13      HGA3     0.090000        1.0080           0
     31402 WT13     658      MECN     C2       CG1N1    0.360000       12.0110           0
     31403 WT13     658      MECN     N3       NG1T1   -0.460000       14.0070           0
     31404 WT13     659      MECN     C1       CG331   -0.170000       12.0110           0
     31405 WT13     659      MECN     H11      HGA3     0.090000        1.0080           0
     31406 WT13     659      MECN     H12      HGA3     0.090000        1.0080           0
     31407 WT13     659      MECN     H13      HGA3     0.090000        1.0080           0
     31408 WT13     659      MECN     C2       CG1N1    0.360000       12.0110           0
     31409 WT13     659      MECN     N3       NG1T1   -0.460000       14.0070           0
     31410 WT13     661      MECN     C1       CG331   -0.170000       12.0110           0
     31411 WT13     661      MECN     H11      HGA3     0.090000        1.0080           0
     31412 WT13     661      MECN     H12      HGA3     0.090000        1.0080           0
     31413 WT13     661      MECN     H13      HGA3     0.090000        1.0080           0
     31414 WT13     661      MECN     C2       CG1N1    0.360000       12.0110           0
     31415 WT13     661      MECN     N3       NG1T1   -0.460000       14.0070           0
     31416 WT13     664      MECN     C1       CG331   -0.170000       12.0110           0
     31417 WT13     664      MECN     H11      HGA3     0.090000        1.0080           0
     31418 WT13     664      MECN     H12      HGA3     0.090000        1.0080           0
     31419 WT13     664      MECN     H13      HGA3     0.090000        1.0080           0
     31420 WT13     664      MECN     C2       CG1N1    0.360000       12.0110           0
     31421 WT13     664      MECN     N3       NG1T1   -0.460000       14.0070           0
     31422 WT13     665      MECN     C1       CG331   -0.170000       12.0110           0
     31423 WT13     665      MECN     H11      HGA3     0.090000        1.0080           0
     31424 WT13     665      MECN     H12      HGA3     0.090000        1.0080           0
     31425 WT13     665      MECN     H13      HGA3     0.090000        1.0080           0
     31426 WT13     665      MECN     C2       CG1N1    0.360000       12.0110           0
     31427 WT13     665      MECN     N3       NG1T1   -0.460000       14.0070           0
     31428 WT13     666      MECN     C1       CG331   -0.170000       12.0110           0
     31429 WT13     666      MECN     H11      HGA3     0.090000        1.0080           0
     31430 WT13     666      MECN     H12      HGA3     0.090000        1.0080           0
     31431 WT13     666      MECN     H13      HGA3     0.090000        1.0080           0
     31432 WT13     666      MECN     C2       CG1N1    0.360000       12.0110           0
     31433 WT13     666      MECN     N3       NG1T1   -0.460000       14.0070           0
     31434 WT13     667      MECN     C1       CG331   -0.170000       12.0110           0
     31435 WT13     667      MECN     H11      HGA3     0.090000        1.0080           0
     31436 WT13     667      MECN     H12      HGA3     0.090000        1.0080           0
     31437 WT13     667      MECN     H13      HGA3     0.090000        1.0080           0
     31438 WT13     667      MECN     C2       CG1N1    0.360000       12.0110           0
     31439 WT13     667      MECN     N3       NG1T1   -0.460000       14.0070           0
     31440 WT13     672      MECN     C1       CG331   -0.170000       12.0110           0
     31441 WT13     672      MECN     H11      HGA3     0.090000        1.0080           0
     31442 WT13     672      MECN     H12      HGA3     0.090000        1.0080           0
     31443 WT13     672      MECN     H13      HGA3     0.090000        1.0080           0
     31444 WT13     672      MECN     C2       CG1N1    0.360000       12.0110           0
     31445 WT13     672      MECN     N3       NG1T1   -0.460000       14.0070           0
     31446 WT13     673      MECN     C1       CG331   -0.170000       12.0110           0
     31447 WT13     673      MECN     H11      HGA3     0.090000        1.0080           0
     31448 WT13     673      MECN     H12      HGA3     0.090000        1.0080           0
     31449 WT13     673      MECN     H13      HGA3     0.090000        1.0080           0
     31450 WT13     673      MECN     C2       CG1N1    0.360000       12.0110           0
     31451 WT13     673      MECN     N3       NG1T1   -0.460000       14.0070           0
     31452 WT13     674      MECN     C1       CG331   -0.170000       12.0110           0
     31453 WT13     674      MECN     H11      HGA3     0.090000        1.0080           0
     31454 WT13     674      MECN     H12      HGA3     0.090000        1.0080           0
     31455 WT13     674      MECN     H13      HGA3     0.090000        1.0080           0
     31456 WT13     674      MECN     C2       CG1N1    0.360000       12.0110           0
     31457 WT13     674      MECN     N3       NG1T1   -0.460000       14.0070           0
     31458 WT13     678      MECN     C1       CG331   -0.170000       12.0110           0
     31459 WT13     678      MECN     H11      HGA3     0.090000        1.0080           0
     31460 WT13     678      MECN     H12      HGA3     0.090000        1.0080           0
     31461 WT13     678      MECN     H13      HGA3     0.090000        1.0080           0
     31462 WT13     678      MECN     C2       CG1N1    0.360000       12.0110           0
     31463 WT13     678      MECN     N3       NG1T1   -0.460000       14.0070           0
     31464 WT13     680      MECN     C1       CG331   -0.170000       12.0110           0
     31465 WT13     680      MECN     H11      HGA3     0.090000        1.0080           0
     31466 WT13     680      MECN     H12      HGA3     0.090000        1.0080           0
     31467 WT13     680      MECN     H13      HGA3     0.090000        1.0080           0
     31468 WT13     680      MECN     C2       CG1N1    0.360000       12.0110           0
     31469 WT13     680      MECN     N3       NG1T1   -0.460000       14.0070           0
     31470 WT13     681      MECN     C1       CG331   -0.170000       12.0110           0
     31471 WT13     681      MECN     H11      HGA3     0.090000        1.0080           0
     31472 WT13     681      MECN     H12      HGA3     0.090000        1.0080           0
     31473 WT13     681      MECN     H13      HGA3     0.090000        1.0080           0
     31474 WT13     681      MECN     C2       CG1N1    0.360000       12.0110           0
     31475 WT13     681      MECN     N3       NG1T1   -0.460000       14.0070           0
     31476 WT13     682      MECN     C1       CG331   -0.170000       12.0110           0
     31477 WT13     682      MECN     H11      HGA3     0.090000        1.0080           0
     31478 WT13     682      MECN     H12      HGA3     0.090000        1.0080           0
     31479 WT13     682      MECN     H13      HGA3     0.090000        1.0080           0
     31480 WT13     682      MECN     C2       CG1N1    0.360000       12.0110           0
     31481 WT13     682      MECN     N3       NG1T1   -0.460000       14.0070           0
     31482 WT13     691      MECN     C1       CG331   -0.170000       12.0110           0
     31483 WT13     691      MECN     H11      HGA3     0.090000        1.0080           0
     31484 WT13     691      MECN     H12      HGA3     0.090000        1.0080           0
     31485 WT13     691      MECN     H13      HGA3     0.090000        1.0080           0
     31486 WT13     691      MECN     C2       CG1N1    0.360000       12.0110           0
     31487 WT13     691      MECN     N3       NG1T1   -0.460000       14.0070           0
     31488 WT13     694      MECN     C1       CG331   -0.170000       12.0110           0
     31489 WT13     694      MECN     H11      HGA3     0.090000        1.0080           0
     31490 WT13     694      MECN     H12      HGA3     0.090000        1.0080           0
     31491 WT13     694      MECN     H13      HGA3     0.090000        1.0080           0
     31492 WT13     694      MECN     C2       CG1N1    0.360000       12.0110           0
     31493 WT13     694      MECN     N3       NG1T1   -0.460000       14.0070           0
     31494 WT13     696      MECN     C1       CG331   -0.170000       12.0110           0
     31495 WT13     696      MECN     H11      HGA3     0.090000        1.0080           0
     31496 WT13     696      MECN     H12      HGA3     0.090000        1.0080           0
     31497 WT13     696      MECN     H13      HGA3     0.090000        1.0080           0
     31498 WT13     696      MECN     C2       CG1N1    0.360000       12.0110           0
     31499 WT13     696      MECN     N3       NG1T1   -0.460000       14.0070           0
     31500 WT13     698      MECN     C1       CG331   -0.170000       12.0110           0
     31501 WT13     698      MECN     H11      HGA3     0.090000        1.0080           0
     31502 WT13     698      MECN     H12      HGA3     0.090000        1.0080           0
     31503 WT13     698      MECN     H13      HGA3     0.090000        1.0080           0
     31504 WT13     698      MECN     C2       CG1N1    0.360000       12.0110           0
     31505 WT13     698      MECN     N3       NG1T1   -0.460000       14.0070           0
     31506 WT13     699      MECN     C1       CG331   -0.170000       12.0110           0
     31507 WT13     699      MECN     H11      HGA3     0.090000        1.0080           0
     31508 WT13     699      MECN     H12      HGA3     0.090000        1.0080           0
     31509 WT13     699      MECN     H13      HGA3     0.090000        1.0080           0
     31510 WT13     699      MECN     C2       CG1N1    0.360000       12.0110           0
     31511 WT13     699      MECN     N3       NG1T1   -0.460000       14.0070           0
     31512 WT13     700      MECN     C1       CG331   -0.170000       12.0110           0
     31513 WT13     700      MECN     H11      HGA3     0.090000        1.0080           0
     31514 WT13     700      MECN     H12      HGA3     0.090000        1.0080           0
     31515 WT13     700      MECN     H13      HGA3     0.090000        1.0080           0
     31516 WT13     700      MECN     C2       CG1N1    0.360000       12.0110           0
     31517 WT13     700      MECN     N3       NG1T1   -0.460000       14.0070           0
     31518 WT13     704      MECN     C1       CG331   -0.170000       12.0110           0
     31519 WT13     704      MECN     H11      HGA3     0.090000        1.0080           0
     31520 WT13     704      MECN     H12      HGA3     0.090000        1.0080           0
     31521 WT13     704      MECN     H13      HGA3     0.090000        1.0080           0
     31522 WT13     704      MECN     C2       CG1N1    0.360000       12.0110           0
     31523 WT13     704      MECN     N3       NG1T1   -0.460000       14.0070           0
     31524 WT13     709      MECN     C1       CG331   -0.170000       12.0110           0
     31525 WT13     709      MECN     H11      HGA3     0.090000        1.0080           0
     31526 WT13     709      MECN     H12      HGA3     0.090000        1.0080           0
     31527 WT13     709      MECN     H13      HGA3     0.090000        1.0080           0
     31528 WT13     709      MECN     C2       CG1N1    0.360000       12.0110           0
     31529 WT13     709      MECN     N3       NG1T1   -0.460000       14.0070           0
     31530 WT13     710      MECN     C1       CG331   -0.170000       12.0110           0
     31531 WT13     710      MECN     H11      HGA3     0.090000        1.0080           0
     31532 WT13     710      MECN     H12      HGA3     0.090000        1.0080           0
     31533 WT13     710      MECN     H13      HGA3     0.090000        1.0080           0
     31534 WT13     710      MECN     C2       CG1N1    0.360000       12.0110           0
     31535 WT13     710      MECN     N3       NG1T1   -0.460000       14.0070           0
     31536 WT13     711      MECN     C1       CG331   -0.170000       12.0110           0
     31537 WT13     711      MECN     H11      HGA3     0.090000        1.0080           0
     31538 WT13     711      MECN     H12      HGA3     0.090000        1.0080           0
     31539 WT13     711      MECN     H13      HGA3     0.090000        1.0080           0
     31540 WT13     711      MECN     C2       CG1N1    0.360000       12.0110           0
     31541 WT13     711      MECN     N3       NG1T1   -0.460000       14.0070           0
     31542 WT13     714      MECN     C1       CG331   -0.170000       12.0110           0
     31543 WT13     714      MECN     H11      HGA3     0.090000        1.0080           0
     31544 WT13     714      MECN     H12      HGA3     0.090000        1.0080           0
     31545 WT13     714      MECN     H13      HGA3     0.090000        1.0080           0
     31546 WT13     714      MECN     C2       CG1N1    0.360000       12.0110           0
     31547 WT13     714      MECN     N3       NG1T1   -0.460000       14.0070           0
     31548 WT13     717      MECN     C1       CG331   -0.170000       12.0110           0
     31549 WT13     717      MECN     H11      HGA3     0.090000        1.0080           0
     31550 WT13     717      MECN     H12      HGA3     0.090000        1.0080           0
     31551 WT13     717      MECN     H13      HGA3     0.090000        1.0080           0
     31552 WT13     717      MECN     C2       CG1N1    0.360000       12.0110           0
     31553 WT13     717      MECN     N3       NG1T1   -0.460000       14.0070           0
     31554 WT13     721      MECN     C1       CG331   -0.170000       12.0110           0
     31555 WT13     721      MECN     H11      HGA3     0.090000        1.0080           0
     31556 WT13     721      MECN     H12      HGA3     0.090000        1.0080           0
     31557 WT13     721      MECN     H13      HGA3     0.090000        1.0080           0
     31558 WT13     721      MECN     C2       CG1N1    0.360000       12.0110           0
     31559 WT13     721      MECN     N3       NG1T1   -0.460000       14.0070           0
     31560 WT13     722      MECN     C1       CG331   -0.170000       12.0110           0
     31561 WT13     722      MECN     H11      HGA3     0.090000        1.0080           0
     31562 WT13     722      MECN     H12      HGA3     0.090000        1.0080           0
     31563 WT13     722      MECN     H13      HGA3     0.090000        1.0080           0
     31564 WT13     722      MECN     C2       CG1N1    0.360000       12.0110           0
     31565 WT13     722      MECN     N3       NG1T1   -0.460000       14.0070           0
     31566 WT13     723      MECN     C1       CG331   -0.170000       12.0110           0
     31567 WT13     723      MECN     H11      HGA3     0.090000        1.0080           0
     31568 WT13     723      MECN     H12      HGA3     0.090000        1.0080           0
     31569 WT13     723      MECN     H13      HGA3     0.090000        1.0080           0
     31570 WT13     723      MECN     C2       CG1N1    0.360000       12.0110           0
     31571 WT13     723      MECN     N3       NG1T1   -0.460000       14.0070           0
     31572 WT13     724      MECN     C1       CG331   -0.170000       12.0110           0
     31573 WT13     724      MECN     H11      HGA3     0.090000        1.0080           0
     31574 WT13     724      MECN     H12      HGA3     0.090000        1.0080           0
     31575 WT13     724      MECN     H13      HGA3     0.090000        1.0080           0
     31576 WT13     724      MECN     C2       CG1N1    0.360000       12.0110           0
     31577 WT13     724      MECN     N3       NG1T1   -0.460000       14.0070           0
     31578 WT13     725      MECN     C1       CG331   -0.170000       12.0110           0
     31579 WT13     725      MECN     H11      HGA3     0.090000        1.0080           0
     31580 WT13     725      MECN     H12      HGA3     0.090000        1.0080           0
     31581 WT13     725      MECN     H13      HGA3     0.090000        1.0080           0
     31582 WT13     725      MECN     C2       CG1N1    0.360000       12.0110           0
     31583 WT13     725      MECN     N3       NG1T1   -0.460000       14.0070           0
     31584 WT13     726      MECN     C1       CG331   -0.170000       12.0110           0
     31585 WT13     726      MECN     H11      HGA3     0.090000        1.0080           0
     31586 WT13     726      MECN     H12      HGA3     0.090000        1.0080           0
     31587 WT13     726      MECN     H13      HGA3     0.090000        1.0080           0
     31588 WT13     726      MECN     C2       CG1N1    0.360000       12.0110           0
     31589 WT13     726      MECN     N3       NG1T1   -0.460000       14.0070           0
     31590 WT13     727      MECN     C1       CG331   -0.170000       12.0110           0
     31591 WT13     727      MECN     H11      HGA3     0.090000        1.0080           0
     31592 WT13     727      MECN     H12      HGA3     0.090000        1.0080           0
     31593 WT13     727      MECN     H13      HGA3     0.090000        1.0080           0
     31594 WT13     727      MECN     C2       CG1N1    0.360000       12.0110           0
     31595 WT13     727      MECN     N3       NG1T1   -0.460000       14.0070           0
     31596 WT13     731      MECN     C1       CG331   -0.170000       12.0110           0
     31597 WT13     731      MECN     H11      HGA3     0.090000        1.0080           0
     31598 WT13     731      MECN     H12      HGA3     0.090000        1.0080           0
     31599 WT13     731      MECN     H13      HGA3     0.090000        1.0080           0
     31600 WT13     731      MECN     C2       CG1N1    0.360000       12.0110           0
     31601 WT13     731      MECN     N3       NG1T1   -0.460000       14.0070           0
     31602 WT13     735      MECN     C1       CG331   -0.170000       12.0110           0
     31603 WT13     735      MECN     H11      HGA3     0.090000        1.0080           0
     31604 WT13     735      MECN     H12      HGA3     0.090000        1.0080           0
     31605 WT13     735      MECN     H13      HGA3     0.090000        1.0080           0
     31606 WT13     735      MECN     C2       CG1N1    0.360000       12.0110           0
     31607 WT13     735      MECN     N3       NG1T1   -0.460000       14.0070           0
     31608 WT13     743      MECN     C1       CG331   -0.170000       12.0110           0
     31609 WT13     743      MECN     H11      HGA3     0.090000        1.0080           0
     31610 WT13     743      MECN     H12      HGA3     0.090000        1.0080           0
     31611 WT13     743      MECN     H13      HGA3     0.090000        1.0080           0
     31612 WT13     743      MECN     C2       CG1N1    0.360000       12.0110           0
     31613 WT13     743      MECN     N3       NG1T1   -0.460000       14.0070           0
     31614 WT13     748      MECN     C1       CG331   -0.170000       12.0110           0
     31615 WT13     748      MECN     H11      HGA3     0.090000        1.0080           0
     31616 WT13     748      MECN     H12      HGA3     0.090000        1.0080           0
     31617 WT13     748      MECN     H13      HGA3     0.090000        1.0080           0
     31618 WT13     748      MECN     C2       CG1N1    0.360000       12.0110           0
     31619 WT13     748      MECN     N3       NG1T1   -0.460000       14.0070           0
     31620 WT13     751      MECN     C1       CG331   -0.170000       12.0110           0
     31621 WT13     751      MECN     H11      HGA3     0.090000        1.0080           0
     31622 WT13     751      MECN     H12      HGA3     0.090000        1.0080           0
     31623 WT13     751      MECN     H13      HGA3     0.090000        1.0080           0
     31624 WT13     751      MECN     C2       CG1N1    0.360000       12.0110           0
     31625 WT13     751      MECN     N3       NG1T1   -0.460000       14.0070           0
     31626 WT13     760      MECN     C1       CG331   -0.170000       12.0110           0
     31627 WT13     760      MECN     H11      HGA3     0.090000        1.0080           0
     31628 WT13     760      MECN     H12      HGA3     0.090000        1.0080           0
     31629 WT13     760      MECN     H13      HGA3     0.090000        1.0080           0
     31630 WT13     760      MECN     C2       CG1N1    0.360000       12.0110           0
     31631 WT13     760      MECN     N3       NG1T1   -0.460000       14.0070           0
     31632 WT13     761      MECN     C1       CG331   -0.170000       12.0110           0
     31633 WT13     761      MECN     H11      HGA3     0.090000        1.0080           0
     31634 WT13     761      MECN     H12      HGA3     0.090000        1.0080           0
     31635 WT13     761      MECN     H13      HGA3     0.090000        1.0080           0
     31636 WT13     761      MECN     C2       CG1N1    0.360000       12.0110           0
     31637 WT13     761      MECN     N3       NG1T1   -0.460000       14.0070           0
     31638 WT13     762      MECN     C1       CG331   -0.170000       12.0110           0
     31639 WT13     762      MECN     H11      HGA3     0.090000        1.0080           0
     31640 WT13     762      MECN     H12      HGA3     0.090000        1.0080           0
     31641 WT13     762      MECN     H13      HGA3     0.090000        1.0080           0
     31642 WT13     762      MECN     C2       CG1N1    0.360000       12.0110           0
     31643 WT13     762      MECN     N3       NG1T1   -0.460000       14.0070           0
     31644 WT13     763      MECN     C1       CG331   -0.170000       12.0110           0
     31645 WT13     763      MECN     H11      HGA3     0.090000        1.0080           0
     31646 WT13     763      MECN     H12      HGA3     0.090000        1.0080           0
     31647 WT13     763      MECN     H13      HGA3     0.090000        1.0080           0
     31648 WT13     763      MECN     C2       CG1N1    0.360000       12.0110           0
     31649 WT13     763      MECN     N3       NG1T1   -0.460000       14.0070           0
     31650 WT13     765      MECN     C1       CG331   -0.170000       12.0110           0
     31651 WT13     765      MECN     H11      HGA3     0.090000        1.0080           0
     31652 WT13     765      MECN     H12      HGA3     0.090000        1.0080           0
     31653 WT13     765      MECN     H13      HGA3     0.090000        1.0080           0
     31654 WT13     765      MECN     C2       CG1N1    0.360000       12.0110           0
     31655 WT13     765      MECN     N3       NG1T1   -0.460000       14.0070           0
     31656 WT13     766      MECN     C1       CG331   -0.170000       12.0110           0
     31657 WT13     766      MECN     H11      HGA3     0.090000        1.0080           0
     31658 WT13     766      MECN     H12      HGA3     0.090000        1.0080           0
     31659 WT13     766      MECN     H13      HGA3     0.090000        1.0080           0
     31660 WT13     766      MECN     C2       CG1N1    0.360000       12.0110           0
     31661 WT13     766      MECN     N3       NG1T1   -0.460000       14.0070           0
     31662 WT13     767      MECN     C1       CG331   -0.170000       12.0110           0
     31663 WT13     767      MECN     H11      HGA3     0.090000        1.0080           0
     31664 WT13     767      MECN     H12      HGA3     0.090000        1.0080           0
     31665 WT13     767      MECN     H13      HGA3     0.090000        1.0080           0
     31666 WT13     767      MECN     C2       CG1N1    0.360000       12.0110           0
     31667 WT13     767      MECN     N3       NG1T1   -0.460000       14.0070           0
     31668 WT13     768      MECN     C1       CG331   -0.170000       12.0110           0
     31669 WT13     768      MECN     H11      HGA3     0.090000        1.0080           0
     31670 WT13     768      MECN     H12      HGA3     0.090000        1.0080           0
     31671 WT13     768      MECN     H13      HGA3     0.090000        1.0080           0
     31672 WT13     768      MECN     C2       CG1N1    0.360000       12.0110           0
     31673 WT13     768      MECN     N3       NG1T1   -0.460000       14.0070           0
     31674 WT13     769      MECN     C1       CG331   -0.170000       12.0110           0
     31675 WT13     769      MECN     H11      HGA3     0.090000        1.0080           0
     31676 WT13     769      MECN     H12      HGA3     0.090000        1.0080           0
     31677 WT13     769      MECN     H13      HGA3     0.090000        1.0080           0
     31678 WT13     769      MECN     C2       CG1N1    0.360000       12.0110           0
     31679 WT13     769      MECN     N3       NG1T1   -0.460000       14.0070           0
     31680 WT13     770      MECN     C1       CG331   -0.170000       12.0110           0
     31681 WT13     770      MECN     H11      HGA3     0.090000        1.0080           0
     31682 WT13     770      MECN     H12      HGA3     0.090000        1.0080           0
     31683 WT13     770      MECN     H13      HGA3     0.090000        1.0080           0
     31684 WT13     770      MECN     C2       CG1N1    0.360000       12.0110           0
     31685 WT13     770      MECN     N3       NG1T1   -0.460000       14.0070           0
     31686 WT13     771      MECN     C1       CG331   -0.170000       12.0110           0
     31687 WT13     771      MECN     H11      HGA3     0.090000        1.0080           0
     31688 WT13     771      MECN     H12      HGA3     0.090000        1.0080           0
     31689 WT13     771      MECN     H13      HGA3     0.090000        1.0080           0
     31690 WT13     771      MECN     C2       CG1N1    0.360000       12.0110           0
     31691 WT13     771      MECN     N3       NG1T1   -0.460000       14.0070           0
     31692 WT13     772      MECN     C1       CG331   -0.170000       12.0110           0
     31693 WT13     772      MECN     H11      HGA3     0.090000        1.0080           0
     31694 WT13     772      MECN     H12      HGA3     0.090000        1.0080           0
     31695 WT13     772      MECN     H13      HGA3     0.090000        1.0080           0
     31696 WT13     772      MECN     C2       CG1N1    0.360000       12.0110           0
     31697 WT13     772      MECN     N3       NG1T1   -0.460000       14.0070           0
     31698 WT13     773      MECN     C1       CG331   -0.170000       12.0110           0
     31699 WT13     773      MECN     H11      HGA3     0.090000        1.0080           0
     31700 WT13     773      MECN     H12      HGA3     0.090000        1.0080           0
     31701 WT13     773      MECN     H13      HGA3     0.090000        1.0080           0
     31702 WT13     773      MECN     C2       CG1N1    0.360000       12.0110           0
     31703 WT13     773      MECN     N3       NG1T1   -0.460000       14.0070           0
     31704 WT13     775      MECN     C1       CG331   -0.170000       12.0110           0
     31705 WT13     775      MECN     H11      HGA3     0.090000        1.0080           0
     31706 WT13     775      MECN     H12      HGA3     0.090000        1.0080           0
     31707 WT13     775      MECN     H13      HGA3     0.090000        1.0080           0
     31708 WT13     775      MECN     C2       CG1N1    0.360000       12.0110           0
     31709 WT13     775      MECN     N3       NG1T1   -0.460000       14.0070           0
     31710 WT13     776      MECN     C1       CG331   -0.170000       12.0110           0
     31711 WT13     776      MECN     H11      HGA3     0.090000        1.0080           0
     31712 WT13     776      MECN     H12      HGA3     0.090000        1.0080           0
     31713 WT13     776      MECN     H13      HGA3     0.090000        1.0080           0
     31714 WT13     776      MECN     C2       CG1N1    0.360000       12.0110           0
     31715 WT13     776      MECN     N3       NG1T1   -0.460000       14.0070           0
     31716 WT13     778      MECN     C1       CG331   -0.170000       12.0110           0
     31717 WT13     778      MECN     H11      HGA3     0.090000        1.0080           0
     31718 WT13     778      MECN     H12      HGA3     0.090000        1.0080           0
     31719 WT13     778      MECN     H13      HGA3     0.090000        1.0080           0
     31720 WT13     778      MECN     C2       CG1N1    0.360000       12.0110           0
     31721 WT13     778      MECN     N3       NG1T1   -0.460000       14.0070           0
     31722 WT13     782      MECN     C1       CG331   -0.170000       12.0110           0
     31723 WT13     782      MECN     H11      HGA3     0.090000        1.0080           0
     31724 WT13     782      MECN     H12      HGA3     0.090000        1.0080           0
     31725 WT13     782      MECN     H13      HGA3     0.090000        1.0080           0
     31726 WT13     782      MECN     C2       CG1N1    0.360000       12.0110           0
     31727 WT13     782      MECN     N3       NG1T1   -0.460000       14.0070           0
     31728 WT13     783      MECN     C1       CG331   -0.170000       12.0110           0
     31729 WT13     783      MECN     H11      HGA3     0.090000        1.0080           0
     31730 WT13     783      MECN     H12      HGA3     0.090000        1.0080           0
     31731 WT13     783      MECN     H13      HGA3     0.090000        1.0080           0
     31732 WT13     783      MECN     C2       CG1N1    0.360000       12.0110           0
     31733 WT13     783      MECN     N3       NG1T1   -0.460000       14.0070           0
     31734 WT13     786      MECN     C1       CG331   -0.170000       12.0110           0
     31735 WT13     786      MECN     H11      HGA3     0.090000        1.0080           0
     31736 WT13     786      MECN     H12      HGA3     0.090000        1.0080           0
     31737 WT13     786      MECN     H13      HGA3     0.090000        1.0080           0
     31738 WT13     786      MECN     C2       CG1N1    0.360000       12.0110           0
     31739 WT13     786      MECN     N3       NG1T1   -0.460000       14.0070           0
     31740 WT13     788      MECN     C1       CG331   -0.170000       12.0110           0
     31741 WT13     788      MECN     H11      HGA3     0.090000        1.0080           0
     31742 WT13     788      MECN     H12      HGA3     0.090000        1.0080           0
     31743 WT13     788      MECN     H13      HGA3     0.090000        1.0080           0
     31744 WT13     788      MECN     C2       CG1N1    0.360000       12.0110           0
     31745 WT13     788      MECN     N3       NG1T1   -0.460000       14.0070           0
     31746 WT13     791      MECN     C1       CG331   -0.170000       12.0110           0
     31747 WT13     791      MECN     H11      HGA3     0.090000        1.0080           0
     31748 WT13     791      MECN     H12      HGA3     0.090000        1.0080           0
     31749 WT13     791      MECN     H13      HGA3     0.090000        1.0080           0
     31750 WT13     791      MECN     C2       CG1N1    0.360000       12.0110           0
     31751 WT13     791      MECN     N3       NG1T1   -0.460000       14.0070           0
     31752 WT13     793      MECN     C1       CG331   -0.170000       12.0110           0
     31753 WT13     793      MECN     H11      HGA3     0.090000        1.0080           0
     31754 WT13     793      MECN     H12      HGA3     0.090000        1.0080           0
     31755 WT13     793      MECN     H13      HGA3     0.090000        1.0080           0
     31756 WT13     793      MECN     C2       CG1N1    0.360000       12.0110           0
     31757 WT13     793      MECN     N3       NG1T1   -0.460000       14.0070           0
     31758 WT13     794      MECN     C1       CG331   -0.170000       12.0110           0
     31759 WT13     794      MECN     H11      HGA3     0.090000        1.0080           0
     31760 WT13     794      MECN     H12      HGA3     0.090000        1.0080           0
     31761 WT13     794      MECN     H13      HGA3     0.090000        1.0080           0
     31762 WT13     794      MECN     C2       CG1N1    0.360000       12.0110           0
     31763 WT13     794      MECN     N3       NG1T1   -0.460000       14.0070           0
     31764 WT13     797      MECN     C1       CG331   -0.170000       12.0110           0
     31765 WT13     797      MECN     H11      HGA3     0.090000        1.0080           0
     31766 WT13     797      MECN     H12      HGA3     0.090000        1.0080           0
     31767 WT13     797      MECN     H13      HGA3     0.090000        1.0080           0
     31768 WT13     797      MECN     C2       CG1N1    0.360000       12.0110           0
     31769 WT13     797      MECN     N3       NG1T1   -0.460000       14.0070           0
     31770 WT13     799      MECN     C1       CG331   -0.170000       12.0110           0
     31771 WT13     799      MECN     H11      HGA3     0.090000        1.0080           0
     31772 WT13     799      MECN     H12      HGA3     0.090000        1.0080           0
     31773 WT13     799      MECN     H13      HGA3     0.090000        1.0080           0
     31774 WT13     799      MECN     C2       CG1N1    0.360000       12.0110           0
     31775 WT13     799      MECN     N3       NG1T1   -0.460000       14.0070           0
     31776 WT13     805      MECN     C1       CG331   -0.170000       12.0110           0
     31777 WT13     805      MECN     H11      HGA3     0.090000        1.0080           0
     31778 WT13     805      MECN     H12      HGA3     0.090000        1.0080           0
     31779 WT13     805      MECN     H13      HGA3     0.090000        1.0080           0
     31780 WT13     805      MECN     C2       CG1N1    0.360000       12.0110           0
     31781 WT13     805      MECN     N3       NG1T1   -0.460000       14.0070           0
     31782 WT13     806      MECN     C1       CG331   -0.170000       12.0110           0
     31783 WT13     806      MECN     H11      HGA3     0.090000        1.0080           0
     31784 WT13     806      MECN     H12      HGA3     0.090000        1.0080           0
     31785 WT13     806      MECN     H13      HGA3     0.090000        1.0080           0
     31786 WT13     806      MECN     C2       CG1N1    0.360000       12.0110           0
     31787 WT13     806      MECN     N3       NG1T1   -0.460000       14.0070           0
     31788 WT13     807      MECN     C1       CG331   -0.170000       12.0110           0
     31789 WT13     807      MECN     H11      HGA3     0.090000        1.0080           0
     31790 WT13     807      MECN     H12      HGA3     0.090000        1.0080           0
     31791 WT13     807      MECN     H13      HGA3     0.090000        1.0080           0
     31792 WT13     807      MECN     C2       CG1N1    0.360000       12.0110           0
     31793 WT13     807      MECN     N3       NG1T1   -0.460000       14.0070           0
     31794 WT13     808      MECN     C1       CG331   -0.170000       12.0110           0
     31795 WT13     808      MECN     H11      HGA3     0.090000        1.0080           0
     31796 WT13     808      MECN     H12      HGA3     0.090000        1.0080           0
     31797 WT13     808      MECN     H13      HGA3     0.090000        1.0080           0
     31798 WT13     808      MECN     C2       CG1N1    0.360000       12.0110           0
     31799 WT13     808      MECN     N3       NG1T1   -0.460000       14.0070           0
     31800 WT13     809      MECN     C1       CG331   -0.170000       12.0110           0
     31801 WT13     809      MECN     H11      HGA3     0.090000        1.0080           0
     31802 WT13     809      MECN     H12      HGA3     0.090000        1.0080           0
     31803 WT13     809      MECN     H13      HGA3     0.090000        1.0080           0
     31804 WT13     809      MECN     C2       CG1N1    0.360000       12.0110           0
     31805 WT13     809      MECN     N3       NG1T1   -0.460000       14.0070           0
     31806 WT13     815      MECN     C1       CG331   -0.170000       12.0110           0
     31807 WT13     815      MECN     H11      HGA3     0.090000        1.0080           0
     31808 WT13     815      MECN     H12      HGA3     0.090000        1.0080           0
     31809 WT13     815      MECN     H13      HGA3     0.090000        1.0080           0
     31810 WT13     815      MECN     C2       CG1N1    0.360000       12.0110           0
     31811 WT13     815      MECN     N3       NG1T1   -0.460000       14.0070           0
     31812 WT13     817      MECN     C1       CG331   -0.170000       12.0110           0
     31813 WT13     817      MECN     H11      HGA3     0.090000        1.0080           0
     31814 WT13     817      MECN     H12      HGA3     0.090000        1.0080           0
     31815 WT13     817      MECN     H13      HGA3     0.090000        1.0080           0
     31816 WT13     817      MECN     C2       CG1N1    0.360000       12.0110           0
     31817 WT13     817      MECN     N3       NG1T1   -0.460000       14.0070           0
     31818 WT13     818      MECN     C1       CG331   -0.170000       12.0110           0
     31819 WT13     818      MECN     H11      HGA3     0.090000        1.0080           0
     31820 WT13     818      MECN     H12      HGA3     0.090000        1.0080           0
     31821 WT13     818      MECN     H13      HGA3     0.090000        1.0080           0
     31822 WT13     818      MECN     C2       CG1N1    0.360000       12.0110           0
     31823 WT13     818      MECN     N3       NG1T1   -0.460000       14.0070           0
     31824 WT13     821      MECN     C1       CG331   -0.170000       12.0110           0
     31825 WT13     821      MECN     H11      HGA3     0.090000        1.0080           0
     31826 WT13     821      MECN     H12      HGA3     0.090000        1.0080           0
     31827 WT13     821      MECN     H13      HGA3     0.090000        1.0080           0
     31828 WT13     821      MECN     C2       CG1N1    0.360000       12.0110           0
     31829 WT13     821      MECN     N3       NG1T1   -0.460000       14.0070           0
     31830 WT13     822      MECN     C1       CG331   -0.170000       12.0110           0
     31831 WT13     822      MECN     H11      HGA3     0.090000        1.0080           0
     31832 WT13     822      MECN     H12      HGA3     0.090000        1.0080           0
     31833 WT13     822      MECN     H13      HGA3     0.090000        1.0080           0
     31834 WT13     822      MECN     C2       CG1N1    0.360000       12.0110           0
     31835 WT13     822      MECN     N3       NG1T1   -0.460000       14.0070           0
     31836 WT13     823      MECN     C1       CG331   -0.170000       12.0110           0
     31837 WT13     823      MECN     H11      HGA3     0.090000        1.0080           0
     31838 WT13     823      MECN     H12      HGA3     0.090000        1.0080           0
     31839 WT13     823      MECN     H13      HGA3     0.090000        1.0080           0
     31840 WT13     823      MECN     C2       CG1N1    0.360000       12.0110           0
     31841 WT13     823      MECN     N3       NG1T1   -0.460000       14.0070           0
     31842 WT13     827      MECN     C1       CG331   -0.170000       12.0110           0
     31843 WT13     827      MECN     H11      HGA3     0.090000        1.0080           0
     31844 WT13     827      MECN     H12      HGA3     0.090000        1.0080           0
     31845 WT13     827      MECN     H13      HGA3     0.090000        1.0080           0
     31846 WT13     827      MECN     C2       CG1N1    0.360000       12.0110           0
     31847 WT13     827      MECN     N3       NG1T1   -0.460000       14.0070           0
     31848 WT13     828      MECN     C1       CG331   -0.170000       12.0110           0
     31849 WT13     828      MECN     H11      HGA3     0.090000        1.0080           0
     31850 WT13     828      MECN     H12      HGA3     0.090000        1.0080           0
     31851 WT13     828      MECN     H13      HGA3     0.090000        1.0080           0
     31852 WT13     828      MECN     C2       CG1N1    0.360000       12.0110           0
     31853 WT13     828      MECN     N3       NG1T1   -0.460000       14.0070           0
     31854 WT13     832      MECN     C1       CG331   -0.170000       12.0110           0
     31855 WT13     832      MECN     H11      HGA3     0.090000        1.0080           0
     31856 WT13     832      MECN     H12      HGA3     0.090000        1.0080           0
     31857 WT13     832      MECN     H13      HGA3     0.090000        1.0080           0
     31858 WT13     832      MECN     C2       CG1N1    0.360000       12.0110           0
     31859 WT13     832      MECN     N3       NG1T1   -0.460000       14.0070           0
     31860 WT13     833      MECN     C1       CG331   -0.170000       12.0110           0
     31861 WT13     833      MECN     H11      HGA3     0.090000        1.0080           0
     31862 WT13     833      MECN     H12      HGA3     0.090000        1.0080           0
     31863 WT13     833      MECN     H13      HGA3     0.090000        1.0080           0
     31864 WT13     833      MECN     C2       CG1N1    0.360000       12.0110           0
     31865 WT13     833      MECN     N3       NG1T1   -0.460000       14.0070           0
     31866 WT13     834      MECN     C1       CG331   -0.170000       12.0110           0
     31867 WT13     834      MECN     H11      HGA3     0.090000        1.0080           0
     31868 WT13     834      MECN     H12      HGA3     0.090000        1.0080           0
     31869 WT13     834      MECN     H13      HGA3     0.090000        1.0080           0
     31870 WT13     834      MECN     C2       CG1N1    0.360000       12.0110           0
     31871 WT13     834      MECN     N3       NG1T1   -0.460000       14.0070           0
     31872 WT13     835      MECN     C1       CG331   -0.170000       12.0110           0
     31873 WT13     835      MECN     H11      HGA3     0.090000        1.0080           0
     31874 WT13     835      MECN     H12      HGA3     0.090000        1.0080           0
     31875 WT13     835      MECN     H13      HGA3     0.090000        1.0080           0
     31876 WT13     835      MECN     C2       CG1N1    0.360000       12.0110           0
     31877 WT13     835      MECN     N3       NG1T1   -0.460000       14.0070           0
     31878 WT13     839      MECN     C1       CG331   -0.170000       12.0110           0
     31879 WT13     839      MECN     H11      HGA3     0.090000        1.0080           0
     31880 WT13     839      MECN     H12      HGA3     0.090000        1.0080           0
     31881 WT13     839      MECN     H13      HGA3     0.090000        1.0080           0
     31882 WT13     839      MECN     C2       CG1N1    0.360000       12.0110           0
     31883 WT13     839      MECN     N3       NG1T1   -0.460000       14.0070           0
     31884 WT13     840      MECN     C1       CG331   -0.170000       12.0110           0
     31885 WT13     840      MECN     H11      HGA3     0.090000        1.0080           0
     31886 WT13     840      MECN     H12      HGA3     0.090000        1.0080           0
     31887 WT13     840      MECN     H13      HGA3     0.090000        1.0080           0
     31888 WT13     840      MECN     C2       CG1N1    0.360000       12.0110           0
     31889 WT13     840      MECN     N3       NG1T1   -0.460000       14.0070           0
     31890 WT13     841      MECN     C1       CG331   -0.170000       12.0110           0
     31891 WT13     841      MECN     H11      HGA3     0.090000        1.0080           0
     31892 WT13     841      MECN     H12      HGA3     0.090000        1.0080           0
     31893 WT13     841      MECN     H13      HGA3     0.090000        1.0080           0
     31894 WT13     841      MECN     C2       CG1N1    0.360000       12.0110           0
     31895 WT13     841      MECN     N3       NG1T1   -0.460000       14.0070           0
     31896 WT13     846      MECN     C1       CG331   -0.170000       12.0110           0
     31897 WT13     846      MECN     H11      HGA3     0.090000        1.0080           0
     31898 WT13     846      MECN     H12      HGA3     0.090000        1.0080           0
     31899 WT13     846      MECN     H13      HGA3     0.090000        1.0080           0
     31900 WT13     846      MECN     C2       CG1N1    0.360000       12.0110           0
     31901 WT13     846      MECN     N3       NG1T1   -0.460000       14.0070           0
     31902 WT13     848      MECN     C1       CG331   -0.170000       12.0110           0
     31903 WT13     848      MECN     H11      HGA3     0.090000        1.0080           0
     31904 WT13     848      MECN     H12      HGA3     0.090000        1.0080           0
     31905 WT13     848      MECN     H13      HGA3     0.090000        1.0080           0
     31906 WT13     848      MECN     C2       CG1N1    0.360000       12.0110           0
     31907 WT13     848      MECN     N3       NG1T1   -0.460000       14.0070           0
     31908 WT13     849      MECN     C1       CG331   -0.170000       12.0110           0
     31909 WT13     849      MECN     H11      HGA3     0.090000        1.0080           0
     31910 WT13     849      MECN     H12      HGA3     0.090000        1.0080           0
     31911 WT13     849      MECN     H13      HGA3     0.090000        1.0080           0
     31912 WT13     849      MECN     C2       CG1N1    0.360000       12.0110           0
     31913 WT13     849      MECN     N3       NG1T1   -0.460000       14.0070           0
     31914 WT13     856      MECN     C1       CG331   -0.170000       12.0110           0
     31915 WT13     856      MECN     H11      HGA3     0.090000        1.0080           0
     31916 WT13     856      MECN     H12      HGA3     0.090000        1.0080           0
     31917 WT13     856      MECN     H13      HGA3     0.090000        1.0080           0
     31918 WT13     856      MECN     C2       CG1N1    0.360000       12.0110           0
     31919 WT13     856      MECN     N3       NG1T1   -0.460000       14.0070           0
     31920 WT13     859      MECN     C1       CG331   -0.170000       12.0110           0
     31921 WT13     859      MECN     H11      HGA3     0.090000        1.0080           0
     31922 WT13     859      MECN     H12      HGA3     0.090000        1.0080           0
     31923 WT13     859      MECN     H13      HGA3     0.090000        1.0080           0
     31924 WT13     859      MECN     C2       CG1N1    0.360000       12.0110           0
     31925 WT13     859      MECN     N3       NG1T1   -0.460000       14.0070           0
     31926 WT13     860      MECN     C1       CG331   -0.170000       12.0110           0
     31927 WT13     860      MECN     H11      HGA3     0.090000        1.0080           0
     31928 WT13     860      MECN     H12      HGA3     0.090000        1.0080           0
     31929 WT13     860      MECN     H13      HGA3     0.090000        1.0080           0
     31930 WT13     860      MECN     C2       CG1N1    0.360000       12.0110           0
     31931 WT13     860      MECN     N3       NG1T1   -0.460000       14.0070           0
     31932 WT13     862      MECN     C1       CG331   -0.170000       12.0110           0
     31933 WT13     862      MECN     H11      HGA3     0.090000        1.0080           0
     31934 WT13     862      MECN     H12      HGA3     0.090000        1.0080           0
     31935 WT13     862      MECN     H13      HGA3     0.090000        1.0080           0
     31936 WT13     862      MECN     C2       CG1N1    0.360000       12.0110           0
     31937 WT13     862      MECN     N3       NG1T1   -0.460000       14.0070           0
     31938 WT13     863      MECN     C1       CG331   -0.170000       12.0110           0
     31939 WT13     863      MECN     H11      HGA3     0.090000        1.0080           0
     31940 WT13     863      MECN     H12      HGA3     0.090000        1.0080           0
     31941 WT13     863      MECN     H13      HGA3     0.090000        1.0080           0
     31942 WT13     863      MECN     C2       CG1N1    0.360000       12.0110           0
     31943 WT13     863      MECN     N3       NG1T1   -0.460000       14.0070           0
     31944 WT13     864      MECN     C1       CG331   -0.170000       12.0110           0
     31945 WT13     864      MECN     H11      HGA3     0.090000        1.0080           0
     31946 WT13     864      MECN     H12      HGA3     0.090000        1.0080           0
     31947 WT13     864      MECN     H13      HGA3     0.090000        1.0080           0
     31948 WT13     864      MECN     C2       CG1N1    0.360000       12.0110           0
     31949 WT13     864      MECN     N3       NG1T1   -0.460000       14.0070           0
     31950 WT13     866      MECN     C1       CG331   -0.170000       12.0110           0
     31951 WT13     866      MECN     H11      HGA3     0.090000        1.0080           0
     31952 WT13     866      MECN     H12      HGA3     0.090000        1.0080           0
     31953 WT13     866      MECN     H13      HGA3     0.090000        1.0080           0
     31954 WT13     866      MECN     C2       CG1N1    0.360000       12.0110           0
     31955 WT13     866      MECN     N3       NG1T1   -0.460000       14.0070           0
     31956 WT13     867      MECN     C1       CG331   -0.170000       12.0110           0
     31957 WT13     867      MECN     H11      HGA3     0.090000        1.0080           0
     31958 WT13     867      MECN     H12      HGA3     0.090000        1.0080           0
     31959 WT13     867      MECN     H13      HGA3     0.090000        1.0080           0
     31960 WT13     867      MECN     C2       CG1N1    0.360000       12.0110           0
     31961 WT13     867      MECN     N3       NG1T1   -0.460000       14.0070           0
     31962 WT13     873      MECN     C1       CG331   -0.170000       12.0110           0
     31963 WT13     873      MECN     H11      HGA3     0.090000        1.0080           0
     31964 WT13     873      MECN     H12      HGA3     0.090000        1.0080           0
     31965 WT13     873      MECN     H13      HGA3     0.090000        1.0080           0
     31966 WT13     873      MECN     C2       CG1N1    0.360000       12.0110           0
     31967 WT13     873      MECN     N3       NG1T1   -0.460000       14.0070           0
     31968 WT13     875      MECN     C1       CG331   -0.170000       12.0110           0
     31969 WT13     875      MECN     H11      HGA3     0.090000        1.0080           0
     31970 WT13     875      MECN     H12      HGA3     0.090000        1.0080           0
     31971 WT13     875      MECN     H13      HGA3     0.090000        1.0080           0
     31972 WT13     875      MECN     C2       CG1N1    0.360000       12.0110           0
     31973 WT13     875      MECN     N3       NG1T1   -0.460000       14.0070           0
     31974 WT13     876      MECN     C1       CG331   -0.170000       12.0110           0
     31975 WT13     876      MECN     H11      HGA3     0.090000        1.0080           0
     31976 WT13     876      MECN     H12      HGA3     0.090000        1.0080           0
     31977 WT13     876      MECN     H13      HGA3     0.090000        1.0080           0
     31978 WT13     876      MECN     C2       CG1N1    0.360000       12.0110           0
     31979 WT13     876      MECN     N3       NG1T1   -0.460000       14.0070           0
     31980 WT13     878      MECN     C1       CG331   -0.170000       12.0110           0
     31981 WT13     878      MECN     H11      HGA3     0.090000        1.0080           0
     31982 WT13     878      MECN     H12      HGA3     0.090000        1.0080           0
     31983 WT13     878      MECN     H13      HGA3     0.090000        1.0080           0
     31984 WT13     878      MECN     C2       CG1N1    0.360000       12.0110           0
     31985 WT13     878      MECN     N3       NG1T1   -0.460000       14.0070           0
     31986 WT13     882      MECN     C1       CG331   -0.170000       12.0110           0
     31987 WT13     882      MECN     H11      HGA3     0.090000        1.0080           0
     31988 WT13     882      MECN     H12      HGA3     0.090000        1.0080           0
     31989 WT13     882      MECN     H13      HGA3     0.090000        1.0080           0
     31990 WT13     882      MECN     C2       CG1N1    0.360000       12.0110           0
     31991 WT13     882      MECN     N3       NG1T1   -0.460000       14.0070           0
     31992 WT13     886      MECN     C1       CG331   -0.170000       12.0110           0
     31993 WT13     886      MECN     H11      HGA3     0.090000        1.0080           0
     31994 WT13     886      MECN     H12      HGA3     0.090000        1.0080           0
     31995 WT13     886      MECN     H13      HGA3     0.090000        1.0080           0
     31996 WT13     886      MECN     C2       CG1N1    0.360000       12.0110           0
     31997 WT13     886      MECN     N3       NG1T1   -0.460000       14.0070           0
     31998 WT13     888      MECN     C1       CG331   -0.170000       12.0110           0
     31999 WT13     888      MECN     H11      HGA3     0.090000        1.0080           0
     32000 WT13     888      MECN     H12      HGA3     0.090000        1.0080           0
     32001 WT13     888      MECN     H13      HGA3     0.090000        1.0080           0
     32002 WT13     888      MECN     C2       CG1N1    0.360000       12.0110           0
     32003 WT13     888      MECN     N3       NG1T1   -0.460000       14.0070           0
     32004 WT13     890      MECN     C1       CG331   -0.170000       12.0110           0
     32005 WT13     890      MECN     H11      HGA3     0.090000        1.0080           0
     32006 WT13     890      MECN     H12      HGA3     0.090000        1.0080           0
     32007 WT13     890      MECN     H13      HGA3     0.090000        1.0080           0
     32008 WT13     890      MECN     C2       CG1N1    0.360000       12.0110           0
     32009 WT13     890      MECN     N3       NG1T1   -0.460000       14.0070           0
     32010 WT13     891      MECN     C1       CG331   -0.170000       12.0110           0
     32011 WT13     891      MECN     H11      HGA3     0.090000        1.0080           0
     32012 WT13     891      MECN     H12      HGA3     0.090000        1.0080           0
     32013 WT13     891      MECN     H13      HGA3     0.090000        1.0080           0
     32014 WT13     891      MECN     C2       CG1N1    0.360000       12.0110           0
     32015 WT13     891      MECN     N3       NG1T1   -0.460000       14.0070           0
     32016 WT13     892      MECN     C1       CG331   -0.170000       12.0110           0
     32017 WT13     892      MECN     H11      HGA3     0.090000        1.0080           0
     32018 WT13     892      MECN     H12      HGA3     0.090000        1.0080           0
     32019 WT13     892      MECN     H13      HGA3     0.090000        1.0080           0
     32020 WT13     892      MECN     C2       CG1N1    0.360000       12.0110           0
     32021 WT13     892      MECN     N3       NG1T1   -0.460000       14.0070           0
     32022 WT13     895      MECN     C1       CG331   -0.170000       12.0110           0
     32023 WT13     895      MECN     H11      HGA3     0.090000        1.0080           0
     32024 WT13     895      MECN     H12      HGA3     0.090000        1.0080           0
     32025 WT13     895      MECN     H13      HGA3     0.090000        1.0080           0
     32026 WT13     895      MECN     C2       CG1N1    0.360000       12.0110           0
     32027 WT13     895      MECN     N3       NG1T1   -0.460000       14.0070           0
     32028 WT13     897      MECN     C1       CG331   -0.170000       12.0110           0
     32029 WT13     897      MECN     H11      HGA3     0.090000        1.0080           0
     32030 WT13     897      MECN     H12      HGA3     0.090000        1.0080           0
     32031 WT13     897      MECN     H13      HGA3     0.090000        1.0080           0
     32032 WT13     897      MECN     C2       CG1N1    0.360000       12.0110           0
     32033 WT13     897      MECN     N3       NG1T1   -0.460000       14.0070           0
     32034 WT13     898      MECN     C1       CG331   -0.170000       12.0110           0
     32035 WT13     898      MECN     H11      HGA3     0.090000        1.0080           0
     32036 WT13     898      MECN     H12      HGA3     0.090000        1.0080           0
     32037 WT13     898      MECN     H13      HGA3     0.090000        1.0080           0
     32038 WT13     898      MECN     C2       CG1N1    0.360000       12.0110           0
     32039 WT13     898      MECN     N3       NG1T1   -0.460000       14.0070           0
     32040 WT13     899      MECN     C1       CG331   -0.170000       12.0110           0
     32041 WT13     899      MECN     H11      HGA3     0.090000        1.0080           0
     32042 WT13     899      MECN     H12      HGA3     0.090000        1.0080           0
     32043 WT13     899      MECN     H13      HGA3     0.090000        1.0080           0
     32044 WT13     899      MECN     C2       CG1N1    0.360000       12.0110           0
     32045 WT13     899      MECN     N3       NG1T1   -0.460000       14.0070           0
     32046 WT13     902      MECN     C1       CG331   -0.170000       12.0110           0
     32047 WT13     902      MECN     H11      HGA3     0.090000        1.0080           0
     32048 WT13     902      MECN     H12      HGA3     0.090000        1.0080           0
     32049 WT13     902      MECN     H13      HGA3     0.090000        1.0080           0
     32050 WT13     902      MECN     C2       CG1N1    0.360000       12.0110           0
     32051 WT13     902      MECN     N3       NG1T1   -0.460000       14.0070           0
     32052 WT13     904      MECN     C1       CG331   -0.170000       12.0110           0
     32053 WT13     904      MECN     H11      HGA3     0.090000        1.0080           0
     32054 WT13     904      MECN     H12      HGA3     0.090000        1.0080           0
     32055 WT13     904      MECN     H13      HGA3     0.090000        1.0080           0
     32056 WT13     904      MECN     C2       CG1N1    0.360000       12.0110           0
     32057 WT13     904      MECN     N3       NG1T1   -0.460000       14.0070           0
     32058 WT13     905      MECN     C1       CG331   -0.170000       12.0110           0
     32059 WT13     905      MECN     H11      HGA3     0.090000        1.0080           0
     32060 WT13     905      MECN     H12      HGA3     0.090000        1.0080           0
     32061 WT13     905      MECN     H13      HGA3     0.090000        1.0080           0
     32062 WT13     905      MECN     C2       CG1N1    0.360000       12.0110           0
     32063 WT13     905      MECN     N3       NG1T1   -0.460000       14.0070           0
     32064 WT13     908      MECN     C1       CG331   -0.170000       12.0110           0
     32065 WT13     908      MECN     H11      HGA3     0.090000        1.0080           0
     32066 WT13     908      MECN     H12      HGA3     0.090000        1.0080           0
     32067 WT13     908      MECN     H13      HGA3     0.090000        1.0080           0
     32068 WT13     908      MECN     C2       CG1N1    0.360000       12.0110           0
     32069 WT13     908      MECN     N3       NG1T1   -0.460000       14.0070           0
     32070 WT13     909      MECN     C1       CG331   -0.170000       12.0110           0
     32071 WT13     909      MECN     H11      HGA3     0.090000        1.0080           0
     32072 WT13     909      MECN     H12      HGA3     0.090000        1.0080           0
     32073 WT13     909      MECN     H13      HGA3     0.090000        1.0080           0
     32074 WT13     909      MECN     C2       CG1N1    0.360000       12.0110           0
     32075 WT13     909      MECN     N3       NG1T1   -0.460000       14.0070           0
     32076 WT13     910      MECN     C1       CG331   -0.170000       12.0110           0
     32077 WT13     910      MECN     H11      HGA3     0.090000        1.0080           0
     32078 WT13     910      MECN     H12      HGA3     0.090000        1.0080           0
     32079 WT13     910      MECN     H13      HGA3     0.090000        1.0080           0
     32080 WT13     910      MECN     C2       CG1N1    0.360000       12.0110           0
     32081 WT13     910      MECN     N3       NG1T1   -0.460000       14.0070           0
     32082 WT13     911      MECN     C1       CG331   -0.170000       12.0110           0
     32083 WT13     911      MECN     H11      HGA3     0.090000        1.0080           0
     32084 WT13     911      MECN     H12      HGA3     0.090000        1.0080           0
     32085 WT13     911      MECN     H13      HGA3     0.090000        1.0080           0
     32086 WT13     911      MECN     C2       CG1N1    0.360000       12.0110           0
     32087 WT13     911      MECN     N3       NG1T1   -0.460000       14.0070           0
     32088 WT13     913      MECN     C1       CG331   -0.170000       12.0110           0
     32089 WT13     913      MECN     H11      HGA3     0.090000        1.0080           0
     32090 WT13     913      MECN     H12      HGA3     0.090000        1.0080           0
     32091 WT13     913      MECN     H13      HGA3     0.090000        1.0080           0
     32092 WT13     913      MECN     C2       CG1N1    0.360000       12.0110           0
     32093 WT13     913      MECN     N3       NG1T1   -0.460000       14.0070           0
     32094 WT13     914      MECN     C1       CG331   -0.170000       12.0110           0
     32095 WT13     914      MECN     H11      HGA3     0.090000        1.0080           0
     32096 WT13     914      MECN     H12      HGA3     0.090000        1.0080           0
     32097 WT13     914      MECN     H13      HGA3     0.090000        1.0080           0
     32098 WT13     914      MECN     C2       CG1N1    0.360000       12.0110           0
     32099 WT13     914      MECN     N3       NG1T1   -0.460000       14.0070           0
     32100 WT13     915      MECN     C1       CG331   -0.170000       12.0110           0
     32101 WT13     915      MECN     H11      HGA3     0.090000        1.0080           0
     32102 WT13     915      MECN     H12      HGA3     0.090000        1.0080           0
     32103 WT13     915      MECN     H13      HGA3     0.090000        1.0080           0
     32104 WT13     915      MECN     C2       CG1N1    0.360000       12.0110           0
     32105 WT13     915      MECN     N3       NG1T1   -0.460000       14.0070           0
     32106 WT13     916      MECN     C1       CG331   -0.170000       12.0110           0
     32107 WT13     916      MECN     H11      HGA3     0.090000        1.0080           0
     32108 WT13     916      MECN     H12      HGA3     0.090000        1.0080           0
     32109 WT13     916      MECN     H13      HGA3     0.090000        1.0080           0
     32110 WT13     916      MECN     C2       CG1N1    0.360000       12.0110           0
     32111 WT13     916      MECN     N3       NG1T1   -0.460000       14.0070           0
     32112 WT13     917      MECN     C1       CG331   -0.170000       12.0110           0
     32113 WT13     917      MECN     H11      HGA3     0.090000        1.0080           0
     32114 WT13     917      MECN     H12      HGA3     0.090000        1.0080           0
     32115 WT13     917      MECN     H13      HGA3     0.090000        1.0080           0
     32116 WT13     917      MECN     C2       CG1N1    0.360000       12.0110           0
     32117 WT13     917      MECN     N3       NG1T1   -0.460000       14.0070           0
     32118 WT13     918      MECN     C1       CG331   -0.170000       12.0110           0
     32119 WT13     918      MECN     H11      HGA3     0.090000        1.0080           0
     32120 WT13     918      MECN     H12      HGA3     0.090000        1.0080           0
     32121 WT13     918      MECN     H13      HGA3     0.090000        1.0080           0
     32122 WT13     918      MECN     C2       CG1N1    0.360000       12.0110           0
     32123 WT13     918      MECN     N3       NG1T1   -0.460000       14.0070           0
     32124 WT13     919      MECN     C1       CG331   -0.170000       12.0110           0
     32125 WT13     919      MECN     H11      HGA3     0.090000        1.0080           0
     32126 WT13     919      MECN     H12      HGA3     0.090000        1.0080           0
     32127 WT13     919      MECN     H13      HGA3     0.090000        1.0080           0
     32128 WT13     919      MECN     C2       CG1N1    0.360000       12.0110           0
     32129 WT13     919      MECN     N3       NG1T1   -0.460000       14.0070           0
     32130 WT13     920      MECN     C1       CG331   -0.170000       12.0110           0
     32131 WT13     920      MECN     H11      HGA3     0.090000        1.0080           0
     32132 WT13     920      MECN     H12      HGA3     0.090000        1.0080           0
     32133 WT13     920      MECN     H13      HGA3     0.090000        1.0080           0
     32134 WT13     920      MECN     C2       CG1N1    0.360000       12.0110           0
     32135 WT13     920      MECN     N3       NG1T1   -0.460000       14.0070           0
     32136 WT13     922      MECN     C1       CG331   -0.170000       12.0110           0
     32137 WT13     922      MECN     H11      HGA3     0.090000        1.0080           0
     32138 WT13     922      MECN     H12      HGA3     0.090000        1.0080           0
     32139 WT13     922      MECN     H13      HGA3     0.090000        1.0080           0
     32140 WT13     922      MECN     C2       CG1N1    0.360000       12.0110           0
     32141 WT13     922      MECN     N3       NG1T1   -0.460000       14.0070           0
     32142 WT13     923      MECN     C1       CG331   -0.170000       12.0110           0
     32143 WT13     923      MECN     H11      HGA3     0.090000        1.0080           0
     32144 WT13     923      MECN     H12      HGA3     0.090000        1.0080           0
     32145 WT13     923      MECN     H13      HGA3     0.090000        1.0080           0
     32146 WT13     923      MECN     C2       CG1N1    0.360000       12.0110           0
     32147 WT13     923      MECN     N3       NG1T1   -0.460000       14.0070           0
     32148 WT13     924      MECN     C1       CG331   -0.170000       12.0110           0
     32149 WT13     924      MECN     H11      HGA3     0.090000        1.0080           0
     32150 WT13     924      MECN     H12      HGA3     0.090000        1.0080           0
     32151 WT13     924      MECN     H13      HGA3     0.090000        1.0080           0
     32152 WT13     924      MECN     C2       CG1N1    0.360000       12.0110           0
     32153 WT13     924      MECN     N3       NG1T1   -0.460000       14.0070           0
     32154 WT13     926      MECN     C1       CG331   -0.170000       12.0110           0
     32155 WT13     926      MECN     H11      HGA3     0.090000        1.0080           0
     32156 WT13     926      MECN     H12      HGA3     0.090000        1.0080           0
     32157 WT13     926      MECN     H13      HGA3     0.090000        1.0080           0
     32158 WT13     926      MECN     C2       CG1N1    0.360000       12.0110           0
     32159 WT13     926      MECN     N3       NG1T1   -0.460000       14.0070           0
     32160 WT13     928      MECN     C1       CG331   -0.170000       12.0110           0
     32161 WT13     928      MECN     H11      HGA3     0.090000        1.0080           0
     32162 WT13     928      MECN     H12      HGA3     0.090000        1.0080           0
     32163 WT13     928      MECN     H13      HGA3     0.090000        1.0080           0
     32164 WT13     928      MECN     C2       CG1N1    0.360000       12.0110           0
     32165 WT13     928      MECN     N3       NG1T1   -0.460000       14.0070           0
     32166 WT13     933      MECN     C1       CG331   -0.170000       12.0110           0
     32167 WT13     933      MECN     H11      HGA3     0.090000        1.0080           0
     32168 WT13     933      MECN     H12      HGA3     0.090000        1.0080           0
     32169 WT13     933      MECN     H13      HGA3     0.090000        1.0080           0
     32170 WT13     933      MECN     C2       CG1N1    0.360000       12.0110           0
     32171 WT13     933      MECN     N3       NG1T1   -0.460000       14.0070           0
     32172 WT13     934      MECN     C1       CG331   -0.170000       12.0110           0
     32173 WT13     934      MECN     H11      HGA3     0.090000        1.0080           0
     32174 WT13     934      MECN     H12      HGA3     0.090000        1.0080           0
     32175 WT13     934      MECN     H13      HGA3     0.090000        1.0080           0
     32176 WT13     934      MECN     C2       CG1N1    0.360000       12.0110           0
     32177 WT13     934      MECN     N3       NG1T1   -0.460000       14.0070           0
     32178 WT13     935      MECN     C1       CG331   -0.170000       12.0110           0
     32179 WT13     935      MECN     H11      HGA3     0.090000        1.0080           0
     32180 WT13     935      MECN     H12      HGA3     0.090000        1.0080           0
     32181 WT13     935      MECN     H13      HGA3     0.090000        1.0080           0
     32182 WT13     935      MECN     C2       CG1N1    0.360000       12.0110           0
     32183 WT13     935      MECN     N3       NG1T1   -0.460000       14.0070           0
     32184 WT13     938      MECN     C1       CG331   -0.170000       12.0110           0
     32185 WT13     938      MECN     H11      HGA3     0.090000        1.0080           0
     32186 WT13     938      MECN     H12      HGA3     0.090000        1.0080           0
     32187 WT13     938      MECN     H13      HGA3     0.090000        1.0080           0
     32188 WT13     938      MECN     C2       CG1N1    0.360000       12.0110           0
     32189 WT13     938      MECN     N3       NG1T1   -0.460000       14.0070           0
     32190 WT13     939      MECN     C1       CG331   -0.170000       12.0110           0
     32191 WT13     939      MECN     H11      HGA3     0.090000        1.0080           0
     32192 WT13     939      MECN     H12      HGA3     0.090000        1.0080           0
     32193 WT13     939      MECN     H13      HGA3     0.090000        1.0080           0
     32194 WT13     939      MECN     C2       CG1N1    0.360000       12.0110           0
     32195 WT13     939      MECN     N3       NG1T1   -0.460000       14.0070           0
     32196 WT13     941      MECN     C1       CG331   -0.170000       12.0110           0
     32197 WT13     941      MECN     H11      HGA3     0.090000        1.0080           0
     32198 WT13     941      MECN     H12      HGA3     0.090000        1.0080           0
     32199 WT13     941      MECN     H13      HGA3     0.090000        1.0080           0
     32200 WT13     941      MECN     C2       CG1N1    0.360000       12.0110           0
     32201 WT13     941      MECN     N3       NG1T1   -0.460000       14.0070           0
     32202 WT13     943      MECN     C1       CG331   -0.170000       12.0110           0
     32203 WT13     943      MECN     H11      HGA3     0.090000        1.0080           0
     32204 WT13     943      MECN     H12      HGA3     0.090000        1.0080           0
     32205 WT13     943      MECN     H13      HGA3     0.090000        1.0080           0
     32206 WT13     943      MECN     C2       CG1N1    0.360000       12.0110           0
     32207 WT13     943      MECN     N3       NG1T1   -0.460000       14.0070           0
     32208 WT13     945      MECN     C1       CG331   -0.170000       12.0110           0
     32209 WT13     945      MECN     H11      HGA3     0.090000        1.0080           0
     32210 WT13     945      MECN     H12      HGA3     0.090000        1.0080           0
     32211 WT13     945      MECN     H13      HGA3     0.090000        1.0080           0
     32212 WT13     945      MECN     C2       CG1N1    0.360000       12.0110           0
     32213 WT13     945      MECN     N3       NG1T1   -0.460000       14.0070           0
     32214 WT13     949      MECN     C1       CG331   -0.170000       12.0110           0
     32215 WT13     949      MECN     H11      HGA3     0.090000        1.0080           0
     32216 WT13     949      MECN     H12      HGA3     0.090000        1.0080           0
     32217 WT13     949      MECN     H13      HGA3     0.090000        1.0080           0
     32218 WT13     949      MECN     C2       CG1N1    0.360000       12.0110           0
     32219 WT13     949      MECN     N3       NG1T1   -0.460000       14.0070           0
     32220 WT13     951      MECN     C1       CG331   -0.170000       12.0110           0
     32221 WT13     951      MECN     H11      HGA3     0.090000        1.0080           0
     32222 WT13     951      MECN     H12      HGA3     0.090000        1.0080           0
     32223 WT13     951      MECN     H13      HGA3     0.090000        1.0080           0
     32224 WT13     951      MECN     C2       CG1N1    0.360000       12.0110           0
     32225 WT13     951      MECN     N3       NG1T1   -0.460000       14.0070           0
     32226 WT13     955      MECN     C1       CG331   -0.170000       12.0110           0
     32227 WT13     955      MECN     H11      HGA3     0.090000        1.0080           0
     32228 WT13     955      MECN     H12      HGA3     0.090000        1.0080           0
     32229 WT13     955      MECN     H13      HGA3     0.090000        1.0080           0
     32230 WT13     955      MECN     C2       CG1N1    0.360000       12.0110           0
     32231 WT13     955      MECN     N3       NG1T1   -0.460000       14.0070           0
     32232 WT13     956      MECN     C1       CG331   -0.170000       12.0110           0
     32233 WT13     956      MECN     H11      HGA3     0.090000        1.0080           0
     32234 WT13     956      MECN     H12      HGA3     0.090000        1.0080           0
     32235 WT13     956      MECN     H13      HGA3     0.090000        1.0080           0
     32236 WT13     956      MECN     C2       CG1N1    0.360000       12.0110           0
     32237 WT13     956      MECN     N3       NG1T1   -0.460000       14.0070           0
     32238 WT13     957      MECN     C1       CG331   -0.170000       12.0110           0
     32239 WT13     957      MECN     H11      HGA3     0.090000        1.0080           0
     32240 WT13     957      MECN     H12      HGA3     0.090000        1.0080           0
     32241 WT13     957      MECN     H13      HGA3     0.090000        1.0080           0
     32242 WT13     957      MECN     C2       CG1N1    0.360000       12.0110           0
     32243 WT13     957      MECN     N3       NG1T1   -0.460000       14.0070           0
     32244 WT13     961      MECN     C1       CG331   -0.170000       12.0110           0
     32245 WT13     961      MECN     H11      HGA3     0.090000        1.0080           0
     32246 WT13     961      MECN     H12      HGA3     0.090000        1.0080           0
     32247 WT13     961      MECN     H13      HGA3     0.090000        1.0080           0
     32248 WT13     961      MECN     C2       CG1N1    0.360000       12.0110           0
     32249 WT13     961      MECN     N3       NG1T1   -0.460000       14.0070           0
     32250 WT13     965      MECN     C1       CG331   -0.170000       12.0110           0
     32251 WT13     965      MECN     H11      HGA3     0.090000        1.0080           0
     32252 WT13     965      MECN     H12      HGA3     0.090000        1.0080           0
     32253 WT13     965      MECN     H13      HGA3     0.090000        1.0080           0
     32254 WT13     965      MECN     C2       CG1N1    0.360000       12.0110           0
     32255 WT13     965      MECN     N3       NG1T1   -0.460000       14.0070           0
     32256 WT13     966      MECN     C1       CG331   -0.170000       12.0110           0
     32257 WT13     966      MECN     H11      HGA3     0.090000        1.0080           0
     32258 WT13     966      MECN     H12      HGA3     0.090000        1.0080           0
     32259 WT13     966      MECN     H13      HGA3     0.090000        1.0080           0
     32260 WT13     966      MECN     C2       CG1N1    0.360000       12.0110           0
     32261 WT13     966      MECN     N3       NG1T1   -0.460000       14.0070           0
     32262 WT13     968      MECN     C1       CG331   -0.170000       12.0110           0
     32263 WT13     968      MECN     H11      HGA3     0.090000        1.0080           0
     32264 WT13     968      MECN     H12      HGA3     0.090000        1.0080           0
     32265 WT13     968      MECN     H13      HGA3     0.090000        1.0080           0
     32266 WT13     968      MECN     C2       CG1N1    0.360000       12.0110           0
     32267 WT13     968      MECN     N3       NG1T1   -0.460000       14.0070           0
     32268 WT13     977      MECN     C1       CG331   -0.170000       12.0110           0
     32269 WT13     977      MECN     H11      HGA3     0.090000        1.0080           0
     32270 WT13     977      MECN     H12      HGA3     0.090000        1.0080           0
     32271 WT13     977      MECN     H13      HGA3     0.090000        1.0080           0
     32272 WT13     977      MECN     C2       CG1N1    0.360000       12.0110           0
     32273 WT13     977      MECN     N3       NG1T1   -0.460000       14.0070           0
     32274 WT13     978      MECN     C1       CG331   -0.170000       12.0110           0
     32275 WT13     978      MECN     H11      HGA3     0.090000        1.0080           0
     32276 WT13     978      MECN     H12      HGA3     0.090000        1.0080           0
     32277 WT13     978      MECN     H13      HGA3     0.090000        1.0080           0
     32278 WT13     978      MECN     C2       CG1N1    0.360000       12.0110           0
     32279 WT13     978      MECN     N3       NG1T1   -0.460000       14.0070           0
     32280 WT13     982      MECN     C1       CG331   -0.170000       12.0110           0
     32281 WT13     982      MECN     H11      HGA3     0.090000        1.0080           0
     32282 WT13     982      MECN     H12      HGA3     0.090000        1.0080           0
     32283 WT13     982      MECN     H13      HGA3     0.090000        1.0080           0
     32284 WT13     982      MECN     C2       CG1N1    0.360000       12.0110           0
     32285 WT13     982      MECN     N3       NG1T1   -0.460000       14.0070           0
     32286 WT13     983      MECN     C1       CG331   -0.170000       12.0110           0
     32287 WT13     983      MECN     H11      HGA3     0.090000        1.0080           0
     32288 WT13     983      MECN     H12      HGA3     0.090000        1.0080           0
     32289 WT13     983      MECN     H13      HGA3     0.090000        1.0080           0
     32290 WT13     983      MECN     C2       CG1N1    0.360000       12.0110           0
     32291 WT13     983      MECN     N3       NG1T1   -0.460000       14.0070           0
     32292 WT13     984      MECN     C1       CG331   -0.170000       12.0110           0
     32293 WT13     984      MECN     H11      HGA3     0.090000        1.0080           0
     32294 WT13     984      MECN     H12      HGA3     0.090000        1.0080           0
     32295 WT13     984      MECN     H13      HGA3     0.090000        1.0080           0
     32296 WT13     984      MECN     C2       CG1N1    0.360000       12.0110           0
     32297 WT13     984      MECN     N3       NG1T1   -0.460000       14.0070           0
     32298 WT13     985      MECN     C1       CG331   -0.170000       12.0110           0
     32299 WT13     985      MECN     H11      HGA3     0.090000        1.0080           0
     32300 WT13     985      MECN     H12      HGA3     0.090000        1.0080           0
     32301 WT13     985      MECN     H13      HGA3     0.090000        1.0080           0
     32302 WT13     985      MECN     C2       CG1N1    0.360000       12.0110           0
     32303 WT13     985      MECN     N3       NG1T1   -0.460000       14.0070           0
     32304 WT13     986      MECN     C1       CG331   -0.170000       12.0110           0
     32305 WT13     986      MECN     H11      HGA3     0.090000        1.0080           0
     32306 WT13     986      MECN     H12      HGA3     0.090000        1.0080           0
     32307 WT13     986      MECN     H13      HGA3     0.090000        1.0080           0
     32308 WT13     986      MECN     C2       CG1N1    0.360000       12.0110           0
     32309 WT13     986      MECN     N3       NG1T1   -0.460000       14.0070           0
     32310 WT13     987      MECN     C1       CG331   -0.170000       12.0110           0
     32311 WT13     987      MECN     H11      HGA3     0.090000        1.0080           0
     32312 WT13     987      MECN     H12      HGA3     0.090000        1.0080           0
     32313 WT13     987      MECN     H13      HGA3     0.090000        1.0080           0
     32314 WT13     987      MECN     C2       CG1N1    0.360000       12.0110           0
     32315 WT13     987      MECN     N3       NG1T1   -0.460000       14.0070           0
     32316 WT13     988      MECN     C1       CG331   -0.170000       12.0110           0
     32317 WT13     988      MECN     H11      HGA3     0.090000        1.0080           0
     32318 WT13     988      MECN     H12      HGA3     0.090000        1.0080           0
     32319 WT13     988      MECN     H13      HGA3     0.090000        1.0080           0
     32320 WT13     988      MECN     C2       CG1N1    0.360000       12.0110           0
     32321 WT13     988      MECN     N3       NG1T1   -0.460000       14.0070           0
     32322 WT13     989      MECN     C1       CG331   -0.170000       12.0110           0
     32323 WT13     989      MECN     H11      HGA3     0.090000        1.0080           0
     32324 WT13     989      MECN     H12      HGA3     0.090000        1.0080           0
     32325 WT13     989      MECN     H13      HGA3     0.090000        1.0080           0
     32326 WT13     989      MECN     C2       CG1N1    0.360000       12.0110           0
     32327 WT13     989      MECN     N3       NG1T1   -0.460000       14.0070           0
     32328 WT13     990      MECN     C1       CG331   -0.170000       12.0110           0
     32329 WT13     990      MECN     H11      HGA3     0.090000        1.0080           0
     32330 WT13     990      MECN     H12      HGA3     0.090000        1.0080           0
     32331 WT13     990      MECN     H13      HGA3     0.090000        1.0080           0
     32332 WT13     990      MECN     C2       CG1N1    0.360000       12.0110           0
     32333 WT13     990      MECN     N3       NG1T1   -0.460000       14.0070           0
     32334 WT13     991      MECN     C1       CG331   -0.170000       12.0110           0
     32335 WT13     991      MECN     H11      HGA3     0.090000        1.0080           0
     32336 WT13     991      MECN     H12      HGA3     0.090000        1.0080           0
     32337 WT13     991      MECN     H13      HGA3     0.090000        1.0080           0
     32338 WT13     991      MECN     C2       CG1N1    0.360000       12.0110           0
     32339 WT13     991      MECN     N3       NG1T1   -0.460000       14.0070           0
     32340 WT13     992      MECN     C1       CG331   -0.170000       12.0110           0
     32341 WT13     992      MECN     H11      HGA3     0.090000        1.0080           0
     32342 WT13     992      MECN     H12      HGA3     0.090000        1.0080           0
     32343 WT13     992      MECN     H13      HGA3     0.090000        1.0080           0
     32344 WT13     992      MECN     C2       CG1N1    0.360000       12.0110           0
     32345 WT13     992      MECN     N3       NG1T1   -0.460000       14.0070           0
     32346 WT13     993      MECN     C1       CG331   -0.170000       12.0110           0
     32347 WT13     993      MECN     H11      HGA3     0.090000        1.0080           0
     32348 WT13     993      MECN     H12      HGA3     0.090000        1.0080           0
     32349 WT13     993      MECN     H13      HGA3     0.090000        1.0080           0
     32350 WT13     993      MECN     C2       CG1N1    0.360000       12.0110           0
     32351 WT13     993      MECN     N3       NG1T1   -0.460000       14.0070           0
     32352 WT13     994      MECN     C1       CG331   -0.170000       12.0110           0
     32353 WT13     994      MECN     H11      HGA3     0.090000        1.0080           0
     32354 WT13     994      MECN     H12      HGA3     0.090000        1.0080           0
     32355 WT13     994      MECN     H13      HGA3     0.090000        1.0080           0
     32356 WT13     994      MECN     C2       CG1N1    0.360000       12.0110           0
     32357 WT13     994      MECN     N3       NG1T1   -0.460000       14.0070           0
     32358 WT13     999      MECN     C1       CG331   -0.170000       12.0110           0
     32359 WT13     999      MECN     H11      HGA3     0.090000        1.0080           0
     32360 WT13     999      MECN     H12      HGA3     0.090000        1.0080           0
     32361 WT13     999      MECN     H13      HGA3     0.090000        1.0080           0
     32362 WT13     999      MECN     C2       CG1N1    0.360000       12.0110           0
     32363 WT13     999      MECN     N3       NG1T1   -0.460000       14.0070           0
     32364 WT13     1004     MECN     C1       CG331   -0.170000       12.0110           0
     32365 WT13     1004     MECN     H11      HGA3     0.090000        1.0080           0
     32366 WT13     1004     MECN     H12      HGA3     0.090000        1.0080           0
     32367 WT13     1004     MECN     H13      HGA3     0.090000        1.0080           0
     32368 WT13     1004     MECN     C2       CG1N1    0.360000       12.0110           0
     32369 WT13     1004     MECN     N3       NG1T1   -0.460000       14.0070           0
     32370 WT13     1006     MECN     C1       CG331   -0.170000       12.0110           0
     32371 WT13     1006     MECN     H11      HGA3     0.090000        1.0080           0
     32372 WT13     1006     MECN     H12      HGA3     0.090000        1.0080           0
     32373 WT13     1006     MECN     H13      HGA3     0.090000        1.0080           0
     32374 WT13     1006     MECN     C2       CG1N1    0.360000       12.0110           0
     32375 WT13     1006     MECN     N3       NG1T1   -0.460000       14.0070           0
     32376 WT13     1008     MECN     C1       CG331   -0.170000       12.0110           0
     32377 WT13     1008     MECN     H11      HGA3     0.090000        1.0080           0
     32378 WT13     1008     MECN     H12      HGA3     0.090000        1.0080           0
     32379 WT13     1008     MECN     H13      HGA3     0.090000        1.0080           0
     32380 WT13     1008     MECN     C2       CG1N1    0.360000       12.0110           0
     32381 WT13     1008     MECN     N3       NG1T1   -0.460000       14.0070           0
     32382 WT13     1009     MECN     C1       CG331   -0.170000       12.0110           0
     32383 WT13     1009     MECN     H11      HGA3     0.090000        1.0080           0
     32384 WT13     1009     MECN     H12      HGA3     0.090000        1.0080           0
     32385 WT13     1009     MECN     H13      HGA3     0.090000        1.0080           0
     32386 WT13     1009     MECN     C2       CG1N1    0.360000       12.0110           0
     32387 WT13     1009     MECN     N3       NG1T1   -0.460000       14.0070           0
     32388 WT13     1010     MECN     C1       CG331   -0.170000       12.0110           0
     32389 WT13     1010     MECN     H11      HGA3     0.090000        1.0080           0
     32390 WT13     1010     MECN     H12      HGA3     0.090000        1.0080           0
     32391 WT13     1010     MECN     H13      HGA3     0.090000        1.0080           0
     32392 WT13     1010     MECN     C2       CG1N1    0.360000       12.0110           0
     32393 WT13     1010     MECN     N3       NG1T1   -0.460000       14.0070           0
     32394 WT13     1011     MECN     C1       CG331   -0.170000       12.0110           0
     32395 WT13     1011     MECN     H11      HGA3     0.090000        1.0080           0
     32396 WT13     1011     MECN     H12      HGA3     0.090000        1.0080           0
     32397 WT13     1011     MECN     H13      HGA3     0.090000        1.0080           0
     32398 WT13     1011     MECN     C2       CG1N1    0.360000       12.0110           0
     32399 WT13     1011     MECN     N3       NG1T1   -0.460000       14.0070           0
     32400 WT13     1012     MECN     C1       CG331   -0.170000       12.0110           0
     32401 WT13     1012     MECN     H11      HGA3     0.090000        1.0080           0
     32402 WT13     1012     MECN     H12      HGA3     0.090000        1.0080           0
     32403 WT13     1012     MECN     H13      HGA3     0.090000        1.0080           0
     32404 WT13     1012     MECN     C2       CG1N1    0.360000       12.0110           0
     32405 WT13     1012     MECN     N3       NG1T1   -0.460000       14.0070           0
     32406 WT13     1014     MECN     C1       CG331   -0.170000       12.0110           0
     32407 WT13     1014     MECN     H11      HGA3     0.090000        1.0080           0
     32408 WT13     1014     MECN     H12      HGA3     0.090000        1.0080           0
     32409 WT13     1014     MECN     H13      HGA3     0.090000        1.0080           0
     32410 WT13     1014     MECN     C2       CG1N1    0.360000       12.0110           0
     32411 WT13     1014     MECN     N3       NG1T1   -0.460000       14.0070           0
     32412 WT13     1015     MECN     C1       CG331   -0.170000       12.0110           0
     32413 WT13     1015     MECN     H11      HGA3     0.090000        1.0080           0
     32414 WT13     1015     MECN     H12      HGA3     0.090000        1.0080           0
     32415 WT13     1015     MECN     H13      HGA3     0.090000        1.0080           0
     32416 WT13     1015     MECN     C2       CG1N1    0.360000       12.0110           0
     32417 WT13     1015     MECN     N3       NG1T1   -0.460000       14.0070           0
     32418 WT13     1019     MECN     C1       CG331   -0.170000       12.0110           0
     32419 WT13     1019     MECN     H11      HGA3     0.090000        1.0080           0
     32420 WT13     1019     MECN     H12      HGA3     0.090000        1.0080           0
     32421 WT13     1019     MECN     H13      HGA3     0.090000        1.0080           0
     32422 WT13     1019     MECN     C2       CG1N1    0.360000       12.0110           0
     32423 WT13     1019     MECN     N3       NG1T1   -0.460000       14.0070           0
     32424 WT13     1020     MECN     C1       CG331   -0.170000       12.0110           0
     32425 WT13     1020     MECN     H11      HGA3     0.090000        1.0080           0
     32426 WT13     1020     MECN     H12      HGA3     0.090000        1.0080           0
     32427 WT13     1020     MECN     H13      HGA3     0.090000        1.0080           0
     32428 WT13     1020     MECN     C2       CG1N1    0.360000       12.0110           0
     32429 WT13     1020     MECN     N3       NG1T1   -0.460000       14.0070           0
     32430 WT13     1021     MECN     C1       CG331   -0.170000       12.0110           0
     32431 WT13     1021     MECN     H11      HGA3     0.090000        1.0080           0
     32432 WT13     1021     MECN     H12      HGA3     0.090000        1.0080           0
     32433 WT13     1021     MECN     H13      HGA3     0.090000        1.0080           0
     32434 WT13     1021     MECN     C2       CG1N1    0.360000       12.0110           0
     32435 WT13     1021     MECN     N3       NG1T1   -0.460000       14.0070           0
     32436 WT13     1023     MECN     C1       CG331   -0.170000       12.0110           0
     32437 WT13     1023     MECN     H11      HGA3     0.090000        1.0080           0
     32438 WT13     1023     MECN     H12      HGA3     0.090000        1.0080           0
     32439 WT13     1023     MECN     H13      HGA3     0.090000        1.0080           0
     32440 WT13     1023     MECN     C2       CG1N1    0.360000       12.0110           0
     32441 WT13     1023     MECN     N3       NG1T1   -0.460000       14.0070           0
     32442 WT13     1029     MECN     C1       CG331   -0.170000       12.0110           0
     32443 WT13     1029     MECN     H11      HGA3     0.090000        1.0080           0
     32444 WT13     1029     MECN     H12      HGA3     0.090000        1.0080           0
     32445 WT13     1029     MECN     H13      HGA3     0.090000        1.0080           0
     32446 WT13     1029     MECN     C2       CG1N1    0.360000       12.0110           0
     32447 WT13     1029     MECN     N3       NG1T1   -0.460000       14.0070           0
     32448 WT13     1030     MECN     C1       CG331   -0.170000       12.0110           0
     32449 WT13     1030     MECN     H11      HGA3     0.090000        1.0080           0
     32450 WT13     1030     MECN     H12      HGA3     0.090000        1.0080           0
     32451 WT13     1030     MECN     H13      HGA3     0.090000        1.0080           0
     32452 WT13     1030     MECN     C2       CG1N1    0.360000       12.0110           0
     32453 WT13     1030     MECN     N3       NG1T1   -0.460000       14.0070           0
     32454 WT13     1033     MECN     C1       CG331   -0.170000       12.0110           0
     32455 WT13     1033     MECN     H11      HGA3     0.090000        1.0080           0
     32456 WT13     1033     MECN     H12      HGA3     0.090000        1.0080           0
     32457 WT13     1033     MECN     H13      HGA3     0.090000        1.0080           0
     32458 WT13     1033     MECN     C2       CG1N1    0.360000       12.0110           0
     32459 WT13     1033     MECN     N3       NG1T1   -0.460000       14.0070           0
     32460 WT13     1034     MECN     C1       CG331   -0.170000       12.0110           0
     32461 WT13     1034     MECN     H11      HGA3     0.090000        1.0080           0
     32462 WT13     1034     MECN     H12      HGA3     0.090000        1.0080           0
     32463 WT13     1034     MECN     H13      HGA3     0.090000        1.0080           0
     32464 WT13     1034     MECN     C2       CG1N1    0.360000       12.0110           0
     32465 WT13     1034     MECN     N3       NG1T1   -0.460000       14.0070           0
     32466 WT13     1035     MECN     C1       CG331   -0.170000       12.0110           0
     32467 WT13     1035     MECN     H11      HGA3     0.090000        1.0080           0
     32468 WT13     1035     MECN     H12      HGA3     0.090000        1.0080           0
     32469 WT13     1035     MECN     H13      HGA3     0.090000        1.0080           0
     32470 WT13     1035     MECN     C2       CG1N1    0.360000       12.0110           0
     32471 WT13     1035     MECN     N3       NG1T1   -0.460000       14.0070           0
     32472 WT13     1036     MECN     C1       CG331   -0.170000       12.0110           0
     32473 WT13     1036     MECN     H11      HGA3     0.090000        1.0080           0
     32474 WT13     1036     MECN     H12      HGA3     0.090000        1.0080           0
     32475 WT13     1036     MECN     H13      HGA3     0.090000        1.0080           0
     32476 WT13     1036     MECN     C2       CG1N1    0.360000       12.0110           0
     32477 WT13     1036     MECN     N3       NG1T1   -0.460000       14.0070           0
     32478 WT13     1039     MECN     C1       CG331   -0.170000       12.0110           0
     32479 WT13     1039     MECN     H11      HGA3     0.090000        1.0080           0
     32480 WT13     1039     MECN     H12      HGA3     0.090000        1.0080           0
     32481 WT13     1039     MECN     H13      HGA3     0.090000        1.0080           0
     32482 WT13     1039     MECN     C2       CG1N1    0.360000       12.0110           0
     32483 WT13     1039     MECN     N3       NG1T1   -0.460000       14.0070           0
     32484 WT13     1040     MECN     C1       CG331   -0.170000       12.0110           0
     32485 WT13     1040     MECN     H11      HGA3     0.090000        1.0080           0
     32486 WT13     1040     MECN     H12      HGA3     0.090000        1.0080           0
     32487 WT13     1040     MECN     H13      HGA3     0.090000        1.0080           0
     32488 WT13     1040     MECN     C2       CG1N1    0.360000       12.0110           0
     32489 WT13     1040     MECN     N3       NG1T1   -0.460000       14.0070           0
     32490 WT13     1043     MECN     C1       CG331   -0.170000       12.0110           0
     32491 WT13     1043     MECN     H11      HGA3     0.090000        1.0080           0
     32492 WT13     1043     MECN     H12      HGA3     0.090000        1.0080           0
     32493 WT13     1043     MECN     H13      HGA3     0.090000        1.0080           0
     32494 WT13     1043     MECN     C2       CG1N1    0.360000       12.0110           0
     32495 WT13     1043     MECN     N3       NG1T1   -0.460000       14.0070           0
     32496 WT13     1044     MECN     C1       CG331   -0.170000       12.0110           0
     32497 WT13     1044     MECN     H11      HGA3     0.090000        1.0080           0
     32498 WT13     1044     MECN     H12      HGA3     0.090000        1.0080           0
     32499 WT13     1044     MECN     H13      HGA3     0.090000        1.0080           0
     32500 WT13     1044     MECN     C2       CG1N1    0.360000       12.0110           0
     32501 WT13     1044     MECN     N3       NG1T1   -0.460000       14.0070           0
     32502 WT13     1048     MECN     C1       CG331   -0.170000       12.0110           0
     32503 WT13     1048     MECN     H11      HGA3     0.090000        1.0080           0
     32504 WT13     1048     MECN     H12      HGA3     0.090000        1.0080           0
     32505 WT13     1048     MECN     H13      HGA3     0.090000        1.0080           0
     32506 WT13     1048     MECN     C2       CG1N1    0.360000       12.0110           0
     32507 WT13     1048     MECN     N3       NG1T1   -0.460000       14.0070           0
     32508 WT13     1050     MECN     C1       CG331   -0.170000       12.0110           0
     32509 WT13     1050     MECN     H11      HGA3     0.090000        1.0080           0
     32510 WT13     1050     MECN     H12      HGA3     0.090000        1.0080           0
     32511 WT13     1050     MECN     H13      HGA3     0.090000        1.0080           0
     32512 WT13     1050     MECN     C2       CG1N1    0.360000       12.0110           0
     32513 WT13     1050     MECN     N3       NG1T1   -0.460000       14.0070           0
     32514 WT13     1051     MECN     C1       CG331   -0.170000       12.0110           0
     32515 WT13     1051     MECN     H11      HGA3     0.090000        1.0080           0
     32516 WT13     1051     MECN     H12      HGA3     0.090000        1.0080           0
     32517 WT13     1051     MECN     H13      HGA3     0.090000        1.0080           0
     32518 WT13     1051     MECN     C2       CG1N1    0.360000       12.0110           0
     32519 WT13     1051     MECN     N3       NG1T1   -0.460000       14.0070           0
     32520 WT13     1052     MECN     C1       CG331   -0.170000       12.0110           0
     32521 WT13     1052     MECN     H11      HGA3     0.090000        1.0080           0
     32522 WT13     1052     MECN     H12      HGA3     0.090000        1.0080           0
     32523 WT13     1052     MECN     H13      HGA3     0.090000        1.0080           0
     32524 WT13     1052     MECN     C2       CG1N1    0.360000       12.0110           0
     32525 WT13     1052     MECN     N3       NG1T1   -0.460000       14.0070           0
     32526 WT13     1053     MECN     C1       CG331   -0.170000       12.0110           0
     32527 WT13     1053     MECN     H11      HGA3     0.090000        1.0080           0
     32528 WT13     1053     MECN     H12      HGA3     0.090000        1.0080           0
     32529 WT13     1053     MECN     H13      HGA3     0.090000        1.0080           0
     32530 WT13     1053     MECN     C2       CG1N1    0.360000       12.0110           0
     32531 WT13     1053     MECN     N3       NG1T1   -0.460000       14.0070           0
     32532 WT13     1054     MECN     C1       CG331   -0.170000       12.0110           0
     32533 WT13     1054     MECN     H11      HGA3     0.090000        1.0080           0
     32534 WT13     1054     MECN     H12      HGA3     0.090000        1.0080           0
     32535 WT13     1054     MECN     H13      HGA3     0.090000        1.0080           0
     32536 WT13     1054     MECN     C2       CG1N1    0.360000       12.0110           0
     32537 WT13     1054     MECN     N3       NG1T1   -0.460000       14.0070           0
     32538 WT13     1055     MECN     C1       CG331   -0.170000       12.0110           0
     32539 WT13     1055     MECN     H11      HGA3     0.090000        1.0080           0
     32540 WT13     1055     MECN     H12      HGA3     0.090000        1.0080           0
     32541 WT13     1055     MECN     H13      HGA3     0.090000        1.0080           0
     32542 WT13     1055     MECN     C2       CG1N1    0.360000       12.0110           0
     32543 WT13     1055     MECN     N3       NG1T1   -0.460000       14.0070           0
     32544 WT13     1057     MECN     C1       CG331   -0.170000       12.0110           0
     32545 WT13     1057     MECN     H11      HGA3     0.090000        1.0080           0
     32546 WT13     1057     MECN     H12      HGA3     0.090000        1.0080           0
     32547 WT13     1057     MECN     H13      HGA3     0.090000        1.0080           0
     32548 WT13     1057     MECN     C2       CG1N1    0.360000       12.0110           0
     32549 WT13     1057     MECN     N3       NG1T1   -0.460000       14.0070           0
     32550 WT13     1058     MECN     C1       CG331   -0.170000       12.0110           0
     32551 WT13     1058     MECN     H11      HGA3     0.090000        1.0080           0
     32552 WT13     1058     MECN     H12      HGA3     0.090000        1.0080           0
     32553 WT13     1058     MECN     H13      HGA3     0.090000        1.0080           0
     32554 WT13     1058     MECN     C2       CG1N1    0.360000       12.0110           0
     32555 WT13     1058     MECN     N3       NG1T1   -0.460000       14.0070           0
     32556 WT13     1059     MECN     C1       CG331   -0.170000       12.0110           0
     32557 WT13     1059     MECN     H11      HGA3     0.090000        1.0080           0
     32558 WT13     1059     MECN     H12      HGA3     0.090000        1.0080           0
     32559 WT13     1059     MECN     H13      HGA3     0.090000        1.0080           0
     32560 WT13     1059     MECN     C2       CG1N1    0.360000       12.0110           0
     32561 WT13     1059     MECN     N3       NG1T1   -0.460000       14.0070           0
     32562 WT13     1061     MECN     C1       CG331   -0.170000       12.0110           0
     32563 WT13     1061     MECN     H11      HGA3     0.090000        1.0080           0
     32564 WT13     1061     MECN     H12      HGA3     0.090000        1.0080           0
     32565 WT13     1061     MECN     H13      HGA3     0.090000        1.0080           0
     32566 WT13     1061     MECN     C2       CG1N1    0.360000       12.0110           0
     32567 WT13     1061     MECN     N3       NG1T1   -0.460000       14.0070           0
     32568 WT13     1062     MECN     C1       CG331   -0.170000       12.0110           0
     32569 WT13     1062     MECN     H11      HGA3     0.090000        1.0080           0
     32570 WT13     1062     MECN     H12      HGA3     0.090000        1.0080           0
     32571 WT13     1062     MECN     H13      HGA3     0.090000        1.0080           0
     32572 WT13     1062     MECN     C2       CG1N1    0.360000       12.0110           0
     32573 WT13     1062     MECN     N3       NG1T1   -0.460000       14.0070           0
     32574 WT13     1063     MECN     C1       CG331   -0.170000       12.0110           0
     32575 WT13     1063     MECN     H11      HGA3     0.090000        1.0080           0
     32576 WT13     1063     MECN     H12      HGA3     0.090000        1.0080           0
     32577 WT13     1063     MECN     H13      HGA3     0.090000        1.0080           0
     32578 WT13     1063     MECN     C2       CG1N1    0.360000       12.0110           0
     32579 WT13     1063     MECN     N3       NG1T1   -0.460000       14.0070           0
     32580 WT13     1068     MECN     C1       CG331   -0.170000       12.0110           0
     32581 WT13     1068     MECN     H11      HGA3     0.090000        1.0080           0
     32582 WT13     1068     MECN     H12      HGA3     0.090000        1.0080           0
     32583 WT13     1068     MECN     H13      HGA3     0.090000        1.0080           0
     32584 WT13     1068     MECN     C2       CG1N1    0.360000       12.0110           0
     32585 WT13     1068     MECN     N3       NG1T1   -0.460000       14.0070           0
     32586 WT13     1071     MECN     C1       CG331   -0.170000       12.0110           0
     32587 WT13     1071     MECN     H11      HGA3     0.090000        1.0080           0
     32588 WT13     1071     MECN     H12      HGA3     0.090000        1.0080           0
     32589 WT13     1071     MECN     H13      HGA3     0.090000        1.0080           0
     32590 WT13     1071     MECN     C2       CG1N1    0.360000       12.0110           0
     32591 WT13     1071     MECN     N3       NG1T1   -0.460000       14.0070           0
     32592 WT13     1072     MECN     C1       CG331   -0.170000       12.0110           0
     32593 WT13     1072     MECN     H11      HGA3     0.090000        1.0080           0
     32594 WT13     1072     MECN     H12      HGA3     0.090000        1.0080           0
     32595 WT13     1072     MECN     H13      HGA3     0.090000        1.0080           0
     32596 WT13     1072     MECN     C2       CG1N1    0.360000       12.0110           0
     32597 WT13     1072     MECN     N3       NG1T1   -0.460000       14.0070           0
     32598 WT13     1075     MECN     C1       CG331   -0.170000       12.0110           0
     32599 WT13     1075     MECN     H11      HGA3     0.090000        1.0080           0
     32600 WT13     1075     MECN     H12      HGA3     0.090000        1.0080           0
     32601 WT13     1075     MECN     H13      HGA3     0.090000        1.0080           0
     32602 WT13     1075     MECN     C2       CG1N1    0.360000       12.0110           0
     32603 WT13     1075     MECN     N3       NG1T1   -0.460000       14.0070           0
     32604 WT13     1076     MECN     C1       CG331   -0.170000       12.0110           0
     32605 WT13     1076     MECN     H11      HGA3     0.090000        1.0080           0
     32606 WT13     1076     MECN     H12      HGA3     0.090000        1.0080           0
     32607 WT13     1076     MECN     H13      HGA3     0.090000        1.0080           0
     32608 WT13     1076     MECN     C2       CG1N1    0.360000       12.0110           0
     32609 WT13     1076     MECN     N3       NG1T1   -0.460000       14.0070           0
     32610 WT13     1080     MECN     C1       CG331   -0.170000       12.0110           0
     32611 WT13     1080     MECN     H11      HGA3     0.090000        1.0080           0
     32612 WT13     1080     MECN     H12      HGA3     0.090000        1.0080           0
     32613 WT13     1080     MECN     H13      HGA3     0.090000        1.0080           0
     32614 WT13     1080     MECN     C2       CG1N1    0.360000       12.0110           0
     32615 WT13     1080     MECN     N3       NG1T1   -0.460000       14.0070           0
     32616 WT13     1081     MECN     C1       CG331   -0.170000       12.0110           0
     32617 WT13     1081     MECN     H11      HGA3     0.090000        1.0080           0
     32618 WT13     1081     MECN     H12      HGA3     0.090000        1.0080           0
     32619 WT13     1081     MECN     H13      HGA3     0.090000        1.0080           0
     32620 WT13     1081     MECN     C2       CG1N1    0.360000       12.0110           0
     32621 WT13     1081     MECN     N3       NG1T1   -0.460000       14.0070           0
     32622 WT13     1084     MECN     C1       CG331   -0.170000       12.0110           0
     32623 WT13     1084     MECN     H11      HGA3     0.090000        1.0080           0
     32624 WT13     1084     MECN     H12      HGA3     0.090000        1.0080           0
     32625 WT13     1084     MECN     H13      HGA3     0.090000        1.0080           0
     32626 WT13     1084     MECN     C2       CG1N1    0.360000       12.0110           0
     32627 WT13     1084     MECN     N3       NG1T1   -0.460000       14.0070           0
     32628 WT13     1085     MECN     C1       CG331   -0.170000       12.0110           0
     32629 WT13     1085     MECN     H11      HGA3     0.090000        1.0080           0
     32630 WT13     1085     MECN     H12      HGA3     0.090000        1.0080           0
     32631 WT13     1085     MECN     H13      HGA3     0.090000        1.0080           0
     32632 WT13     1085     MECN     C2       CG1N1    0.360000       12.0110           0
     32633 WT13     1085     MECN     N3       NG1T1   -0.460000       14.0070           0
     32634 WT13     1087     MECN     C1       CG331   -0.170000       12.0110           0
     32635 WT13     1087     MECN     H11      HGA3     0.090000        1.0080           0
     32636 WT13     1087     MECN     H12      HGA3     0.090000        1.0080           0
     32637 WT13     1087     MECN     H13      HGA3     0.090000        1.0080           0
     32638 WT13     1087     MECN     C2       CG1N1    0.360000       12.0110           0
     32639 WT13     1087     MECN     N3       NG1T1   -0.460000       14.0070           0
     32640 WT13     1089     MECN     C1       CG331   -0.170000       12.0110           0
     32641 WT13     1089     MECN     H11      HGA3     0.090000        1.0080           0
     32642 WT13     1089     MECN     H12      HGA3     0.090000        1.0080           0
     32643 WT13     1089     MECN     H13      HGA3     0.090000        1.0080           0
     32644 WT13     1089     MECN     C2       CG1N1    0.360000       12.0110           0
     32645 WT13     1089     MECN     N3       NG1T1   -0.460000       14.0070           0
     32646 WT13     1091     MECN     C1       CG331   -0.170000       12.0110           0
     32647 WT13     1091     MECN     H11      HGA3     0.090000        1.0080           0
     32648 WT13     1091     MECN     H12      HGA3     0.090000        1.0080           0
     32649 WT13     1091     MECN     H13      HGA3     0.090000        1.0080           0
     32650 WT13     1091     MECN     C2       CG1N1    0.360000       12.0110           0
     32651 WT13     1091     MECN     N3       NG1T1   -0.460000       14.0070           0
     32652 WT13     1093     MECN     C1       CG331   -0.170000       12.0110           0
     32653 WT13     1093     MECN     H11      HGA3     0.090000        1.0080           0
     32654 WT13     1093     MECN     H12      HGA3     0.090000        1.0080           0
     32655 WT13     1093     MECN     H13      HGA3     0.090000        1.0080           0
     32656 WT13     1093     MECN     C2       CG1N1    0.360000       12.0110           0
     32657 WT13     1093     MECN     N3       NG1T1   -0.460000       14.0070           0
     32658 WT13     1094     MECN     C1       CG331   -0.170000       12.0110           0
     32659 WT13     1094     MECN     H11      HGA3     0.090000        1.0080           0
     32660 WT13     1094     MECN     H12      HGA3     0.090000        1.0080           0
     32661 WT13     1094     MECN     H13      HGA3     0.090000        1.0080           0
     32662 WT13     1094     MECN     C2       CG1N1    0.360000       12.0110           0
     32663 WT13     1094     MECN     N3       NG1T1   -0.460000       14.0070           0
     32664 WT13     1095     MECN     C1       CG331   -0.170000       12.0110           0
     32665 WT13     1095     MECN     H11      HGA3     0.090000        1.0080           0
     32666 WT13     1095     MECN     H12      HGA3     0.090000        1.0080           0
     32667 WT13     1095     MECN     H13      HGA3     0.090000        1.0080           0
     32668 WT13     1095     MECN     C2       CG1N1    0.360000       12.0110           0
     32669 WT13     1095     MECN     N3       NG1T1   -0.460000       14.0070           0
     32670 WT13     1098     MECN     C1       CG331   -0.170000       12.0110           0
     32671 WT13     1098     MECN     H11      HGA3     0.090000        1.0080           0
     32672 WT13     1098     MECN     H12      HGA3     0.090000        1.0080           0
     32673 WT13     1098     MECN     H13      HGA3     0.090000        1.0080           0
     32674 WT13     1098     MECN     C2       CG1N1    0.360000       12.0110           0
     32675 WT13     1098     MECN     N3       NG1T1   -0.460000       14.0070           0
     32676 WT13     1099     MECN     C1       CG331   -0.170000       12.0110           0
     32677 WT13     1099     MECN     H11      HGA3     0.090000        1.0080           0
     32678 WT13     1099     MECN     H12      HGA3     0.090000        1.0080           0
     32679 WT13     1099     MECN     H13      HGA3     0.090000        1.0080           0
     32680 WT13     1099     MECN     C2       CG1N1    0.360000       12.0110           0
     32681 WT13     1099     MECN     N3       NG1T1   -0.460000       14.0070           0
     32682 WT13     1102     MECN     C1       CG331   -0.170000       12.0110           0
     32683 WT13     1102     MECN     H11      HGA3     0.090000        1.0080           0
     32684 WT13     1102     MECN     H12      HGA3     0.090000        1.0080           0
     32685 WT13     1102     MECN     H13      HGA3     0.090000        1.0080           0
     32686 WT13     1102     MECN     C2       CG1N1    0.360000       12.0110           0
     32687 WT13     1102     MECN     N3       NG1T1   -0.460000       14.0070           0
     32688 WT13     1106     MECN     C1       CG331   -0.170000       12.0110           0
     32689 WT13     1106     MECN     H11      HGA3     0.090000        1.0080           0
     32690 WT13     1106     MECN     H12      HGA3     0.090000        1.0080           0
     32691 WT13     1106     MECN     H13      HGA3     0.090000        1.0080           0
     32692 WT13     1106     MECN     C2       CG1N1    0.360000       12.0110           0
     32693 WT13     1106     MECN     N3       NG1T1   -0.460000       14.0070           0
     32694 WT13     1107     MECN     C1       CG331   -0.170000       12.0110           0
     32695 WT13     1107     MECN     H11      HGA3     0.090000        1.0080           0
     32696 WT13     1107     MECN     H12      HGA3     0.090000        1.0080           0
     32697 WT13     1107     MECN     H13      HGA3     0.090000        1.0080           0
     32698 WT13     1107     MECN     C2       CG1N1    0.360000       12.0110           0
     32699 WT13     1107     MECN     N3       NG1T1   -0.460000       14.0070           0
     32700 WT13     1109     MECN     C1       CG331   -0.170000       12.0110           0
     32701 WT13     1109     MECN     H11      HGA3     0.090000        1.0080           0
     32702 WT13     1109     MECN     H12      HGA3     0.090000        1.0080           0
     32703 WT13     1109     MECN     H13      HGA3     0.090000        1.0080           0
     32704 WT13     1109     MECN     C2       CG1N1    0.360000       12.0110           0
     32705 WT13     1109     MECN     N3       NG1T1   -0.460000       14.0070           0
     32706 WT13     1113     MECN     C1       CG331   -0.170000       12.0110           0
     32707 WT13     1113     MECN     H11      HGA3     0.090000        1.0080           0
     32708 WT13     1113     MECN     H12      HGA3     0.090000        1.0080           0
     32709 WT13     1113     MECN     H13      HGA3     0.090000        1.0080           0
     32710 WT13     1113     MECN     C2       CG1N1    0.360000       12.0110           0
     32711 WT13     1113     MECN     N3       NG1T1   -0.460000       14.0070           0
     32712 WT13     1115     MECN     C1       CG331   -0.170000       12.0110           0
     32713 WT13     1115     MECN     H11      HGA3     0.090000        1.0080           0
     32714 WT13     1115     MECN     H12      HGA3     0.090000        1.0080           0
     32715 WT13     1115     MECN     H13      HGA3     0.090000        1.0080           0
     32716 WT13     1115     MECN     C2       CG1N1    0.360000       12.0110           0
     32717 WT13     1115     MECN     N3       NG1T1   -0.460000       14.0070           0
     32718 WT13     1117     MECN     C1       CG331   -0.170000       12.0110           0
     32719 WT13     1117     MECN     H11      HGA3     0.090000        1.0080           0
     32720 WT13     1117     MECN     H12      HGA3     0.090000        1.0080           0
     32721 WT13     1117     MECN     H13      HGA3     0.090000        1.0080           0
     32722 WT13     1117     MECN     C2       CG1N1    0.360000       12.0110           0
     32723 WT13     1117     MECN     N3       NG1T1   -0.460000       14.0070           0
     32724 WT13     1120     MECN     C1       CG331   -0.170000       12.0110           0
     32725 WT13     1120     MECN     H11      HGA3     0.090000        1.0080           0
     32726 WT13     1120     MECN     H12      HGA3     0.090000        1.0080           0
     32727 WT13     1120     MECN     H13      HGA3     0.090000        1.0080           0
     32728 WT13     1120     MECN     C2       CG1N1    0.360000       12.0110           0
     32729 WT13     1120     MECN     N3       NG1T1   -0.460000       14.0070           0
     32730 WT13     1121     MECN     C1       CG331   -0.170000       12.0110           0
     32731 WT13     1121     MECN     H11      HGA3     0.090000        1.0080           0
     32732 WT13     1121     MECN     H12      HGA3     0.090000        1.0080           0
     32733 WT13     1121     MECN     H13      HGA3     0.090000        1.0080           0
     32734 WT13     1121     MECN     C2       CG1N1    0.360000       12.0110           0
     32735 WT13     1121     MECN     N3       NG1T1   -0.460000       14.0070           0
     32736 WT13     1122     MECN     C1       CG331   -0.170000       12.0110           0
     32737 WT13     1122     MECN     H11      HGA3     0.090000        1.0080           0
     32738 WT13     1122     MECN     H12      HGA3     0.090000        1.0080           0
     32739 WT13     1122     MECN     H13      HGA3     0.090000        1.0080           0
     32740 WT13     1122     MECN     C2       CG1N1    0.360000       12.0110           0
     32741 WT13     1122     MECN     N3       NG1T1   -0.460000       14.0070           0
     32742 WT13     1124     MECN     C1       CG331   -0.170000       12.0110           0
     32743 WT13     1124     MECN     H11      HGA3     0.090000        1.0080           0
     32744 WT13     1124     MECN     H12      HGA3     0.090000        1.0080           0
     32745 WT13     1124     MECN     H13      HGA3     0.090000        1.0080           0
     32746 WT13     1124     MECN     C2       CG1N1    0.360000       12.0110           0
     32747 WT13     1124     MECN     N3       NG1T1   -0.460000       14.0070           0
     32748 WT13     1125     MECN     C1       CG331   -0.170000       12.0110           0
     32749 WT13     1125     MECN     H11      HGA3     0.090000        1.0080           0
     32750 WT13     1125     MECN     H12      HGA3     0.090000        1.0080           0
     32751 WT13     1125     MECN     H13      HGA3     0.090000        1.0080           0
     32752 WT13     1125     MECN     C2       CG1N1    0.360000       12.0110           0
     32753 WT13     1125     MECN     N3       NG1T1   -0.460000       14.0070           0
     32754 WT13     1126     MECN     C1       CG331   -0.170000       12.0110           0
     32755 WT13     1126     MECN     H11      HGA3     0.090000        1.0080           0
     32756 WT13     1126     MECN     H12      HGA3     0.090000        1.0080           0
     32757 WT13     1126     MECN     H13      HGA3     0.090000        1.0080           0
     32758 WT13     1126     MECN     C2       CG1N1    0.360000       12.0110           0
     32759 WT13     1126     MECN     N3       NG1T1   -0.460000       14.0070           0
     32760 WT13     1130     MECN     C1       CG331   -0.170000       12.0110           0
     32761 WT13     1130     MECN     H11      HGA3     0.090000        1.0080           0
     32762 WT13     1130     MECN     H12      HGA3     0.090000        1.0080           0
     32763 WT13     1130     MECN     H13      HGA3     0.090000        1.0080           0
     32764 WT13     1130     MECN     C2       CG1N1    0.360000       12.0110           0
     32765 WT13     1130     MECN     N3       NG1T1   -0.460000       14.0070           0
     32766 WT13     1131     MECN     C1       CG331   -0.170000       12.0110           0
     32767 WT13     1131     MECN     H11      HGA3     0.090000        1.0080           0
     32768 WT13     1131     MECN     H12      HGA3     0.090000        1.0080           0
     32769 WT13     1131     MECN     H13      HGA3     0.090000        1.0080           0
     32770 WT13     1131     MECN     C2       CG1N1    0.360000       12.0110           0
     32771 WT13     1131     MECN     N3       NG1T1   -0.460000       14.0070           0
     32772 WT13     1132     MECN     C1       CG331   -0.170000       12.0110           0
     32773 WT13     1132     MECN     H11      HGA3     0.090000        1.0080           0
     32774 WT13     1132     MECN     H12      HGA3     0.090000        1.0080           0
     32775 WT13     1132     MECN     H13      HGA3     0.090000        1.0080           0
     32776 WT13     1132     MECN     C2       CG1N1    0.360000       12.0110           0
     32777 WT13     1132     MECN     N3       NG1T1   -0.460000       14.0070           0
     32778 WT13     1134     MECN     C1       CG331   -0.170000       12.0110           0
     32779 WT13     1134     MECN     H11      HGA3     0.090000        1.0080           0
     32780 WT13     1134     MECN     H12      HGA3     0.090000        1.0080           0
     32781 WT13     1134     MECN     H13      HGA3     0.090000        1.0080           0
     32782 WT13     1134     MECN     C2       CG1N1    0.360000       12.0110           0
     32783 WT13     1134     MECN     N3       NG1T1   -0.460000       14.0070           0
     32784 WT13     1136     MECN     C1       CG331   -0.170000       12.0110           0
     32785 WT13     1136     MECN     H11      HGA3     0.090000        1.0080           0
     32786 WT13     1136     MECN     H12      HGA3     0.090000        1.0080           0
     32787 WT13     1136     MECN     H13      HGA3     0.090000        1.0080           0
     32788 WT13     1136     MECN     C2       CG1N1    0.360000       12.0110           0
     32789 WT13     1136     MECN     N3       NG1T1   -0.460000       14.0070           0
     32790 WT13     1137     MECN     C1       CG331   -0.170000       12.0110           0
     32791 WT13     1137     MECN     H11      HGA3     0.090000        1.0080           0
     32792 WT13     1137     MECN     H12      HGA3     0.090000        1.0080           0
     32793 WT13     1137     MECN     H13      HGA3     0.090000        1.0080           0
     32794 WT13     1137     MECN     C2       CG1N1    0.360000       12.0110           0
     32795 WT13     1137     MECN     N3       NG1T1   -0.460000       14.0070           0
     32796 WT13     1143     MECN     C1       CG331   -0.170000       12.0110           0
     32797 WT13     1143     MECN     H11      HGA3     0.090000        1.0080           0
     32798 WT13     1143     MECN     H12      HGA3     0.090000        1.0080           0
     32799 WT13     1143     MECN     H13      HGA3     0.090000        1.0080           0
     32800 WT13     1143     MECN     C2       CG1N1    0.360000       12.0110           0
     32801 WT13     1143     MECN     N3       NG1T1   -0.460000       14.0070           0
     32802 WT13     1146     MECN     C1       CG331   -0.170000       12.0110           0
     32803 WT13     1146     MECN     H11      HGA3     0.090000        1.0080           0
     32804 WT13     1146     MECN     H12      HGA3     0.090000        1.0080           0
     32805 WT13     1146     MECN     H13      HGA3     0.090000        1.0080           0
     32806 WT13     1146     MECN     C2       CG1N1    0.360000       12.0110           0
     32807 WT13     1146     MECN     N3       NG1T1   -0.460000       14.0070           0
     32808 WT13     1147     MECN     C1       CG331   -0.170000       12.0110           0
     32809 WT13     1147     MECN     H11      HGA3     0.090000        1.0080           0
     32810 WT13     1147     MECN     H12      HGA3     0.090000        1.0080           0
     32811 WT13     1147     MECN     H13      HGA3     0.090000        1.0080           0
     32812 WT13     1147     MECN     C2       CG1N1    0.360000       12.0110           0
     32813 WT13     1147     MECN     N3       NG1T1   -0.460000       14.0070           0
     32814 WT13     1148     MECN     C1       CG331   -0.170000       12.0110           0
     32815 WT13     1148     MECN     H11      HGA3     0.090000        1.0080           0
     32816 WT13     1148     MECN     H12      HGA3     0.090000        1.0080           0
     32817 WT13     1148     MECN     H13      HGA3     0.090000        1.0080           0
     32818 WT13     1148     MECN     C2       CG1N1    0.360000       12.0110           0
     32819 WT13     1148     MECN     N3       NG1T1   -0.460000       14.0070           0
     32820 WT13     1155     MECN     C1       CG331   -0.170000       12.0110           0
     32821 WT13     1155     MECN     H11      HGA3     0.090000        1.0080           0
     32822 WT13     1155     MECN     H12      HGA3     0.090000        1.0080           0
     32823 WT13     1155     MECN     H13      HGA3     0.090000        1.0080           0
     32824 WT13     1155     MECN     C2       CG1N1    0.360000       12.0110           0
     32825 WT13     1155     MECN     N3       NG1T1   -0.460000       14.0070           0
     32826 WT13     1156     MECN     C1       CG331   -0.170000       12.0110           0
     32827 WT13     1156     MECN     H11      HGA3     0.090000        1.0080           0
     32828 WT13     1156     MECN     H12      HGA3     0.090000        1.0080           0
     32829 WT13     1156     MECN     H13      HGA3     0.090000        1.0080           0
     32830 WT13     1156     MECN     C2       CG1N1    0.360000       12.0110           0
     32831 WT13     1156     MECN     N3       NG1T1   -0.460000       14.0070           0
     32832 WT13     1158     MECN     C1       CG331   -0.170000       12.0110           0
     32833 WT13     1158     MECN     H11      HGA3     0.090000        1.0080           0
     32834 WT13     1158     MECN     H12      HGA3     0.090000        1.0080           0
     32835 WT13     1158     MECN     H13      HGA3     0.090000        1.0080           0
     32836 WT13     1158     MECN     C2       CG1N1    0.360000       12.0110           0
     32837 WT13     1158     MECN     N3       NG1T1   -0.460000       14.0070           0
     32838 WT13     1161     MECN     C1       CG331   -0.170000       12.0110           0
     32839 WT13     1161     MECN     H11      HGA3     0.090000        1.0080           0
     32840 WT13     1161     MECN     H12      HGA3     0.090000        1.0080           0
     32841 WT13     1161     MECN     H13      HGA3     0.090000        1.0080           0
     32842 WT13     1161     MECN     C2       CG1N1    0.360000       12.0110           0
     32843 WT13     1161     MECN     N3       NG1T1   -0.460000       14.0070           0
     32844 WT13     1163     MECN     C1       CG331   -0.170000       12.0110           0
     32845 WT13     1163     MECN     H11      HGA3     0.090000        1.0080           0
     32846 WT13     1163     MECN     H12      HGA3     0.090000        1.0080           0
     32847 WT13     1163     MECN     H13      HGA3     0.090000        1.0080           0
     32848 WT13     1163     MECN     C2       CG1N1    0.360000       12.0110           0
     32849 WT13     1163     MECN     N3       NG1T1   -0.460000       14.0070           0
     32850 WT13     1166     MECN     C1       CG331   -0.170000       12.0110           0
     32851 WT13     1166     MECN     H11      HGA3     0.090000        1.0080           0
     32852 WT13     1166     MECN     H12      HGA3     0.090000        1.0080           0
     32853 WT13     1166     MECN     H13      HGA3     0.090000        1.0080           0
     32854 WT13     1166     MECN     C2       CG1N1    0.360000       12.0110           0
     32855 WT13     1166     MECN     N3       NG1T1   -0.460000       14.0070           0
     32856 WT13     1168     MECN     C1       CG331   -0.170000       12.0110           0
     32857 WT13     1168     MECN     H11      HGA3     0.090000        1.0080           0
     32858 WT13     1168     MECN     H12      HGA3     0.090000        1.0080           0
     32859 WT13     1168     MECN     H13      HGA3     0.090000        1.0080           0
     32860 WT13     1168     MECN     C2       CG1N1    0.360000       12.0110           0
     32861 WT13     1168     MECN     N3       NG1T1   -0.460000       14.0070           0
     32862 WT13     1171     MECN     C1       CG331   -0.170000       12.0110           0
     32863 WT13     1171     MECN     H11      HGA3     0.090000        1.0080           0
     32864 WT13     1171     MECN     H12      HGA3     0.090000        1.0080           0
     32865 WT13     1171     MECN     H13      HGA3     0.090000        1.0080           0
     32866 WT13     1171     MECN     C2       CG1N1    0.360000       12.0110           0
     32867 WT13     1171     MECN     N3       NG1T1   -0.460000       14.0070           0
     32868 WT13     1174     MECN     C1       CG331   -0.170000       12.0110           0
     32869 WT13     1174     MECN     H11      HGA3     0.090000        1.0080           0
     32870 WT13     1174     MECN     H12      HGA3     0.090000        1.0080           0
     32871 WT13     1174     MECN     H13      HGA3     0.090000        1.0080           0
     32872 WT13     1174     MECN     C2       CG1N1    0.360000       12.0110           0
     32873 WT13     1174     MECN     N3       NG1T1   -0.460000       14.0070           0
     32874 WT13     1178     MECN     C1       CG331   -0.170000       12.0110           0
     32875 WT13     1178     MECN     H11      HGA3     0.090000        1.0080           0
     32876 WT13     1178     MECN     H12      HGA3     0.090000        1.0080           0
     32877 WT13     1178     MECN     H13      HGA3     0.090000        1.0080           0
     32878 WT13     1178     MECN     C2       CG1N1    0.360000       12.0110           0
     32879 WT13     1178     MECN     N3       NG1T1   -0.460000       14.0070           0
     32880 WT13     1181     MECN     C1       CG331   -0.170000       12.0110           0
     32881 WT13     1181     MECN     H11      HGA3     0.090000        1.0080           0
     32882 WT13     1181     MECN     H12      HGA3     0.090000        1.0080           0
     32883 WT13     1181     MECN     H13      HGA3     0.090000        1.0080           0
     32884 WT13     1181     MECN     C2       CG1N1    0.360000       12.0110           0
     32885 WT13     1181     MECN     N3       NG1T1   -0.460000       14.0070           0
     32886 WT13     1188     MECN     C1       CG331   -0.170000       12.0110           0
     32887 WT13     1188     MECN     H11      HGA3     0.090000        1.0080           0
     32888 WT13     1188     MECN     H12      HGA3     0.090000        1.0080           0
     32889 WT13     1188     MECN     H13      HGA3     0.090000        1.0080           0
     32890 WT13     1188     MECN     C2       CG1N1    0.360000       12.0110           0
     32891 WT13     1188     MECN     N3       NG1T1   -0.460000       14.0070           0
     32892 WT13     1191     MECN     C1       CG331   -0.170000       12.0110           0
     32893 WT13     1191     MECN     H11      HGA3     0.090000        1.0080           0
     32894 WT13     1191     MECN     H12      HGA3     0.090000        1.0080           0
     32895 WT13     1191     MECN     H13      HGA3     0.090000        1.0080           0
     32896 WT13     1191     MECN     C2       CG1N1    0.360000       12.0110           0
     32897 WT13     1191     MECN     N3       NG1T1   -0.460000       14.0070           0
     32898 WT13     1193     MECN     C1       CG331   -0.170000       12.0110           0
     32899 WT13     1193     MECN     H11      HGA3     0.090000        1.0080           0
     32900 WT13     1193     MECN     H12      HGA3     0.090000        1.0080           0
     32901 WT13     1193     MECN     H13      HGA3     0.090000        1.0080           0
     32902 WT13     1193     MECN     C2       CG1N1    0.360000       12.0110           0
     32903 WT13     1193     MECN     N3       NG1T1   -0.460000       14.0070           0
     32904 WT13     1195     MECN     C1       CG331   -0.170000       12.0110           0
     32905 WT13     1195     MECN     H11      HGA3     0.090000        1.0080           0
     32906 WT13     1195     MECN     H12      HGA3     0.090000        1.0080           0
     32907 WT13     1195     MECN     H13      HGA3     0.090000        1.0080           0
     32908 WT13     1195     MECN     C2       CG1N1    0.360000       12.0110           0
     32909 WT13     1195     MECN     N3       NG1T1   -0.460000       14.0070           0
     32910 WT13     1196     MECN     C1       CG331   -0.170000       12.0110           0
     32911 WT13     1196     MECN     H11      HGA3     0.090000        1.0080           0
     32912 WT13     1196     MECN     H12      HGA3     0.090000        1.0080           0
     32913 WT13     1196     MECN     H13      HGA3     0.090000        1.0080           0
     32914 WT13     1196     MECN     C2       CG1N1    0.360000       12.0110           0
     32915 WT13     1196     MECN     N3       NG1T1   -0.460000       14.0070           0
     32916 WT13     1197     MECN     C1       CG331   -0.170000       12.0110           0
     32917 WT13     1197     MECN     H11      HGA3     0.090000        1.0080           0
     32918 WT13     1197     MECN     H12      HGA3     0.090000        1.0080           0
     32919 WT13     1197     MECN     H13      HGA3     0.090000        1.0080           0
     32920 WT13     1197     MECN     C2       CG1N1    0.360000       12.0110           0
     32921 WT13     1197     MECN     N3       NG1T1   -0.460000       14.0070           0
     32922 WT13     1199     MECN     C1       CG331   -0.170000       12.0110           0
     32923 WT13     1199     MECN     H11      HGA3     0.090000        1.0080           0
     32924 WT13     1199     MECN     H12      HGA3     0.090000        1.0080           0
     32925 WT13     1199     MECN     H13      HGA3     0.090000        1.0080           0
     32926 WT13     1199     MECN     C2       CG1N1    0.360000       12.0110           0
     32927 WT13     1199     MECN     N3       NG1T1   -0.460000       14.0070           0
     32928 WT13     1200     MECN     C1       CG331   -0.170000       12.0110           0
     32929 WT13     1200     MECN     H11      HGA3     0.090000        1.0080           0
     32930 WT13     1200     MECN     H12      HGA3     0.090000        1.0080           0
     32931 WT13     1200     MECN     H13      HGA3     0.090000        1.0080           0
     32932 WT13     1200     MECN     C2       CG1N1    0.360000       12.0110           0
     32933 WT13     1200     MECN     N3       NG1T1   -0.460000       14.0070           0
     32934 WT13     1205     MECN     C1       CG331   -0.170000       12.0110           0
     32935 WT13     1205     MECN     H11      HGA3     0.090000        1.0080           0
     32936 WT13     1205     MECN     H12      HGA3     0.090000        1.0080           0
     32937 WT13     1205     MECN     H13      HGA3     0.090000        1.0080           0
     32938 WT13     1205     MECN     C2       CG1N1    0.360000       12.0110           0
     32939 WT13     1205     MECN     N3       NG1T1   -0.460000       14.0070           0
     32940 WT13     1207     MECN     C1       CG331   -0.170000       12.0110           0
     32941 WT13     1207     MECN     H11      HGA3     0.090000        1.0080           0
     32942 WT13     1207     MECN     H12      HGA3     0.090000        1.0080           0
     32943 WT13     1207     MECN     H13      HGA3     0.090000        1.0080           0
     32944 WT13     1207     MECN     C2       CG1N1    0.360000       12.0110           0
     32945 WT13     1207     MECN     N3       NG1T1   -0.460000       14.0070           0
     32946 WT13     1210     MECN     C1       CG331   -0.170000       12.0110           0
     32947 WT13     1210     MECN     H11      HGA3     0.090000        1.0080           0
     32948 WT13     1210     MECN     H12      HGA3     0.090000        1.0080           0
     32949 WT13     1210     MECN     H13      HGA3     0.090000        1.0080           0
     32950 WT13     1210     MECN     C2       CG1N1    0.360000       12.0110           0
     32951 WT13     1210     MECN     N3       NG1T1   -0.460000       14.0070           0
     32952 WT13     1211     MECN     C1       CG331   -0.170000       12.0110           0
     32953 WT13     1211     MECN     H11      HGA3     0.090000        1.0080           0
     32954 WT13     1211     MECN     H12      HGA3     0.090000        1.0080           0
     32955 WT13     1211     MECN     H13      HGA3     0.090000        1.0080           0
     32956 WT13     1211     MECN     C2       CG1N1    0.360000       12.0110           0
     32957 WT13     1211     MECN     N3       NG1T1   -0.460000       14.0070           0
     32958 WT13     1215     MECN     C1       CG331   -0.170000       12.0110           0
     32959 WT13     1215     MECN     H11      HGA3     0.090000        1.0080           0
     32960 WT13     1215     MECN     H12      HGA3     0.090000        1.0080           0
     32961 WT13     1215     MECN     H13      HGA3     0.090000        1.0080           0
     32962 WT13     1215     MECN     C2       CG1N1    0.360000       12.0110           0
     32963 WT13     1215     MECN     N3       NG1T1   -0.460000       14.0070           0
     32964 WT13     1218     MECN     C1       CG331   -0.170000       12.0110           0
     32965 WT13     1218     MECN     H11      HGA3     0.090000        1.0080           0
     32966 WT13     1218     MECN     H12      HGA3     0.090000        1.0080           0
     32967 WT13     1218     MECN     H13      HGA3     0.090000        1.0080           0
     32968 WT13     1218     MECN     C2       CG1N1    0.360000       12.0110           0
     32969 WT13     1218     MECN     N3       NG1T1   -0.460000       14.0070           0
     32970 WT13     1220     MECN     C1       CG331   -0.170000       12.0110           0
     32971 WT13     1220     MECN     H11      HGA3     0.090000        1.0080           0
     32972 WT13     1220     MECN     H12      HGA3     0.090000        1.0080           0
     32973 WT13     1220     MECN     H13      HGA3     0.090000        1.0080           0
     32974 WT13     1220     MECN     C2       CG1N1    0.360000       12.0110           0
     32975 WT13     1220     MECN     N3       NG1T1   -0.460000       14.0070           0
     32976 WT13     1222     MECN     C1       CG331   -0.170000       12.0110           0
     32977 WT13     1222     MECN     H11      HGA3     0.090000        1.0080           0
     32978 WT13     1222     MECN     H12      HGA3     0.090000        1.0080           0
     32979 WT13     1222     MECN     H13      HGA3     0.090000        1.0080           0
     32980 WT13     1222     MECN     C2       CG1N1    0.360000       12.0110           0
     32981 WT13     1222     MECN     N3       NG1T1   -0.460000       14.0070           0
     32982 WT13     1223     MECN     C1       CG331   -0.170000       12.0110           0
     32983 WT13     1223     MECN     H11      HGA3     0.090000        1.0080           0
     32984 WT13     1223     MECN     H12      HGA3     0.090000        1.0080           0
     32985 WT13     1223     MECN     H13      HGA3     0.090000        1.0080           0
     32986 WT13     1223     MECN     C2       CG1N1    0.360000       12.0110           0
     32987 WT13     1223     MECN     N3       NG1T1   -0.460000       14.0070           0
     32988 WT13     1228     MECN     C1       CG331   -0.170000       12.0110           0
     32989 WT13     1228     MECN     H11      HGA3     0.090000        1.0080           0
     32990 WT13     1228     MECN     H12      HGA3     0.090000        1.0080           0
     32991 WT13     1228     MECN     H13      HGA3     0.090000        1.0080           0
     32992 WT13     1228     MECN     C2       CG1N1    0.360000       12.0110           0
     32993 WT13     1228     MECN     N3       NG1T1   -0.460000       14.0070           0
     32994 WT13     1229     MECN     C1       CG331   -0.170000       12.0110           0
     32995 WT13     1229     MECN     H11      HGA3     0.090000        1.0080           0
     32996 WT13     1229     MECN     H12      HGA3     0.090000        1.0080           0
     32997 WT13     1229     MECN     H13      HGA3     0.090000        1.0080           0
     32998 WT13     1229     MECN     C2       CG1N1    0.360000       12.0110           0
     32999 WT13     1229     MECN     N3       NG1T1   -0.460000       14.0070           0
     33000 WT13     1230     MECN     C1       CG331   -0.170000       12.0110           0
     33001 WT13     1230     MECN     H11      HGA3     0.090000        1.0080           0
     33002 WT13     1230     MECN     H12      HGA3     0.090000        1.0080           0
     33003 WT13     1230     MECN     H13      HGA3     0.090000        1.0080           0
     33004 WT13     1230     MECN     C2       CG1N1    0.360000       12.0110           0
     33005 WT13     1230     MECN     N3       NG1T1   -0.460000       14.0070           0
     33006 WT13     1234     MECN     C1       CG331   -0.170000       12.0110           0
     33007 WT13     1234     MECN     H11      HGA3     0.090000        1.0080           0
     33008 WT13     1234     MECN     H12      HGA3     0.090000        1.0080           0
     33009 WT13     1234     MECN     H13      HGA3     0.090000        1.0080           0
     33010 WT13     1234     MECN     C2       CG1N1    0.360000       12.0110           0
     33011 WT13     1234     MECN     N3       NG1T1   -0.460000       14.0070           0
     33012 WT13     1236     MECN     C1       CG331   -0.170000       12.0110           0
     33013 WT13     1236     MECN     H11      HGA3     0.090000        1.0080           0
     33014 WT13     1236     MECN     H12      HGA3     0.090000        1.0080           0
     33015 WT13     1236     MECN     H13      HGA3     0.090000        1.0080           0
     33016 WT13     1236     MECN     C2       CG1N1    0.360000       12.0110           0
     33017 WT13     1236     MECN     N3       NG1T1   -0.460000       14.0070           0
     33018 WT13     1239     MECN     C1       CG331   -0.170000       12.0110           0
     33019 WT13     1239     MECN     H11      HGA3     0.090000        1.0080           0
     33020 WT13     1239     MECN     H12      HGA3     0.090000        1.0080           0
     33021 WT13     1239     MECN     H13      HGA3     0.090000        1.0080           0
     33022 WT13     1239     MECN     C2       CG1N1    0.360000       12.0110           0
     33023 WT13     1239     MECN     N3       NG1T1   -0.460000       14.0070           0
     33024 WT13     1242     MECN     C1       CG331   -0.170000       12.0110           0
     33025 WT13     1242     MECN     H11      HGA3     0.090000        1.0080           0
     33026 WT13     1242     MECN     H12      HGA3     0.090000        1.0080           0
     33027 WT13     1242     MECN     H13      HGA3     0.090000        1.0080           0
     33028 WT13     1242     MECN     C2       CG1N1    0.360000       12.0110           0
     33029 WT13     1242     MECN     N3       NG1T1   -0.460000       14.0070           0
     33030 WT13     1245     MECN     C1       CG331   -0.170000       12.0110           0
     33031 WT13     1245     MECN     H11      HGA3     0.090000        1.0080           0
     33032 WT13     1245     MECN     H12      HGA3     0.090000        1.0080           0
     33033 WT13     1245     MECN     H13      HGA3     0.090000        1.0080           0
     33034 WT13     1245     MECN     C2       CG1N1    0.360000       12.0110           0
     33035 WT13     1245     MECN     N3       NG1T1   -0.460000       14.0070           0
     33036 WT13     1246     MECN     C1       CG331   -0.170000       12.0110           0
     33037 WT13     1246     MECN     H11      HGA3     0.090000        1.0080           0
     33038 WT13     1246     MECN     H12      HGA3     0.090000        1.0080           0
     33039 WT13     1246     MECN     H13      HGA3     0.090000        1.0080           0
     33040 WT13     1246     MECN     C2       CG1N1    0.360000       12.0110           0
     33041 WT13     1246     MECN     N3       NG1T1   -0.460000       14.0070           0
     33042 WT13     1248     MECN     C1       CG331   -0.170000       12.0110           0
     33043 WT13     1248     MECN     H11      HGA3     0.090000        1.0080           0
     33044 WT13     1248     MECN     H12      HGA3     0.090000        1.0080           0
     33045 WT13     1248     MECN     H13      HGA3     0.090000        1.0080           0
     33046 WT13     1248     MECN     C2       CG1N1    0.360000       12.0110           0
     33047 WT13     1248     MECN     N3       NG1T1   -0.460000       14.0070           0
     33048 WT13     1249     MECN     C1       CG331   -0.170000       12.0110           0
     33049 WT13     1249     MECN     H11      HGA3     0.090000        1.0080           0
     33050 WT13     1249     MECN     H12      HGA3     0.090000        1.0080           0
     33051 WT13     1249     MECN     H13      HGA3     0.090000        1.0080           0
     33052 WT13     1249     MECN     C2       CG1N1    0.360000       12.0110           0
     33053 WT13     1249     MECN     N3       NG1T1   -0.460000       14.0070           0
     33054 WT13     1252     MECN     C1       CG331   -0.170000       12.0110           0
     33055 WT13     1252     MECN     H11      HGA3     0.090000        1.0080           0
     33056 WT13     1252     MECN     H12      HGA3     0.090000        1.0080           0
     33057 WT13     1252     MECN     H13      HGA3     0.090000        1.0080           0
     33058 WT13     1252     MECN     C2       CG1N1    0.360000       12.0110           0
     33059 WT13     1252     MECN     N3       NG1T1   -0.460000       14.0070           0
     33060 WT13     1253     MECN     C1       CG331   -0.170000       12.0110           0
     33061 WT13     1253     MECN     H11      HGA3     0.090000        1.0080           0
     33062 WT13     1253     MECN     H12      HGA3     0.090000        1.0080           0
     33063 WT13     1253     MECN     H13      HGA3     0.090000        1.0080           0
     33064 WT13     1253     MECN     C2       CG1N1    0.360000       12.0110           0
     33065 WT13     1253     MECN     N3       NG1T1   -0.460000       14.0070           0
     33066 WT13     1256     MECN     C1       CG331   -0.170000       12.0110           0
     33067 WT13     1256     MECN     H11      HGA3     0.090000        1.0080           0
     33068 WT13     1256     MECN     H12      HGA3     0.090000        1.0080           0
     33069 WT13     1256     MECN     H13      HGA3     0.090000        1.0080           0
     33070 WT13     1256     MECN     C2       CG1N1    0.360000       12.0110           0
     33071 WT13     1256     MECN     N3       NG1T1   -0.460000       14.0070           0
     33072 WT13     1257     MECN     C1       CG331   -0.170000       12.0110           0
     33073 WT13     1257     MECN     H11      HGA3     0.090000        1.0080           0
     33074 WT13     1257     MECN     H12      HGA3     0.090000        1.0080           0
     33075 WT13     1257     MECN     H13      HGA3     0.090000        1.0080           0
     33076 WT13     1257     MECN     C2       CG1N1    0.360000       12.0110           0
     33077 WT13     1257     MECN     N3       NG1T1   -0.460000       14.0070           0
     33078 WT13     1261     MECN     C1       CG331   -0.170000       12.0110           0
     33079 WT13     1261     MECN     H11      HGA3     0.090000        1.0080           0
     33080 WT13     1261     MECN     H12      HGA3     0.090000        1.0080           0
     33081 WT13     1261     MECN     H13      HGA3     0.090000        1.0080           0
     33082 WT13     1261     MECN     C2       CG1N1    0.360000       12.0110           0
     33083 WT13     1261     MECN     N3       NG1T1   -0.460000       14.0070           0
     33084 WT13     1263     MECN     C1       CG331   -0.170000       12.0110           0
     33085 WT13     1263     MECN     H11      HGA3     0.090000        1.0080           0
     33086 WT13     1263     MECN     H12      HGA3     0.090000        1.0080           0
     33087 WT13     1263     MECN     H13      HGA3     0.090000        1.0080           0
     33088 WT13     1263     MECN     C2       CG1N1    0.360000       12.0110           0
     33089 WT13     1263     MECN     N3       NG1T1   -0.460000       14.0070           0
     33090 WT13     1264     MECN     C1       CG331   -0.170000       12.0110           0
     33091 WT13     1264     MECN     H11      HGA3     0.090000        1.0080           0
     33092 WT13     1264     MECN     H12      HGA3     0.090000        1.0080           0
     33093 WT13     1264     MECN     H13      HGA3     0.090000        1.0080           0
     33094 WT13     1264     MECN     C2       CG1N1    0.360000       12.0110           0
     33095 WT13     1264     MECN     N3       NG1T1   -0.460000       14.0070           0
     33096 WT13     1265     MECN     C1       CG331   -0.170000       12.0110           0
     33097 WT13     1265     MECN     H11      HGA3     0.090000        1.0080           0
     33098 WT13     1265     MECN     H12      HGA3     0.090000        1.0080           0
     33099 WT13     1265     MECN     H13      HGA3     0.090000        1.0080           0
     33100 WT13     1265     MECN     C2       CG1N1    0.360000       12.0110           0
     33101 WT13     1265     MECN     N3       NG1T1   -0.460000       14.0070           0
     33102 WT13     1267     MECN     C1       CG331   -0.170000       12.0110           0
     33103 WT13     1267     MECN     H11      HGA3     0.090000        1.0080           0
     33104 WT13     1267     MECN     H12      HGA3     0.090000        1.0080           0
     33105 WT13     1267     MECN     H13      HGA3     0.090000        1.0080           0
     33106 WT13     1267     MECN     C2       CG1N1    0.360000       12.0110           0
     33107 WT13     1267     MECN     N3       NG1T1   -0.460000       14.0070           0
     33108 WT13     1269     MECN     C1       CG331   -0.170000       12.0110           0
     33109 WT13     1269     MECN     H11      HGA3     0.090000        1.0080           0
     33110 WT13     1269     MECN     H12      HGA3     0.090000        1.0080           0
     33111 WT13     1269     MECN     H13      HGA3     0.090000        1.0080           0
     33112 WT13     1269     MECN     C2       CG1N1    0.360000       12.0110           0
     33113 WT13     1269     MECN     N3       NG1T1   -0.460000       14.0070           0
     33114 WT13     1270     MECN     C1       CG331   -0.170000       12.0110           0
     33115 WT13     1270     MECN     H11      HGA3     0.090000        1.0080           0
     33116 WT13     1270     MECN     H12      HGA3     0.090000        1.0080           0
     33117 WT13     1270     MECN     H13      HGA3     0.090000        1.0080           0
     33118 WT13     1270     MECN     C2       CG1N1    0.360000       12.0110           0
     33119 WT13     1270     MECN     N3       NG1T1   -0.460000       14.0070           0
     33120 WT13     1271     MECN     C1       CG331   -0.170000       12.0110           0
     33121 WT13     1271     MECN     H11      HGA3     0.090000        1.0080           0
     33122 WT13     1271     MECN     H12      HGA3     0.090000        1.0080           0
     33123 WT13     1271     MECN     H13      HGA3     0.090000        1.0080           0
     33124 WT13     1271     MECN     C2       CG1N1    0.360000       12.0110           0
     33125 WT13     1271     MECN     N3       NG1T1   -0.460000       14.0070           0
     33126 WT13     1273     MECN     C1       CG331   -0.170000       12.0110           0
     33127 WT13     1273     MECN     H11      HGA3     0.090000        1.0080           0
     33128 WT13     1273     MECN     H12      HGA3     0.090000        1.0080           0
     33129 WT13     1273     MECN     H13      HGA3     0.090000        1.0080           0
     33130 WT13     1273     MECN     C2       CG1N1    0.360000       12.0110           0
     33131 WT13     1273     MECN     N3       NG1T1   -0.460000       14.0070           0
     33132 WT13     1274     MECN     C1       CG331   -0.170000       12.0110           0
     33133 WT13     1274     MECN     H11      HGA3     0.090000        1.0080           0
     33134 WT13     1274     MECN     H12      HGA3     0.090000        1.0080           0
     33135 WT13     1274     MECN     H13      HGA3     0.090000        1.0080           0
     33136 WT13     1274     MECN     C2       CG1N1    0.360000       12.0110           0
     33137 WT13     1274     MECN     N3       NG1T1   -0.460000       14.0070           0
     33138 WT13     1276     MECN     C1       CG331   -0.170000       12.0110           0
     33139 WT13     1276     MECN     H11      HGA3     0.090000        1.0080           0
     33140 WT13     1276     MECN     H12      HGA3     0.090000        1.0080           0
     33141 WT13     1276     MECN     H13      HGA3     0.090000        1.0080           0
     33142 WT13     1276     MECN     C2       CG1N1    0.360000       12.0110           0
     33143 WT13     1276     MECN     N3       NG1T1   -0.460000       14.0070           0
     33144 WT13     1281     MECN     C1       CG331   -0.170000       12.0110           0
     33145 WT13     1281     MECN     H11      HGA3     0.090000        1.0080           0
     33146 WT13     1281     MECN     H12      HGA3     0.090000        1.0080           0
     33147 WT13     1281     MECN     H13      HGA3     0.090000        1.0080           0
     33148 WT13     1281     MECN     C2       CG1N1    0.360000       12.0110           0
     33149 WT13     1281     MECN     N3       NG1T1   -0.460000       14.0070           0
     33150 WT13     1284     MECN     C1       CG331   -0.170000       12.0110           0
     33151 WT13     1284     MECN     H11      HGA3     0.090000        1.0080           0
     33152 WT13     1284     MECN     H12      HGA3     0.090000        1.0080           0
     33153 WT13     1284     MECN     H13      HGA3     0.090000        1.0080           0
     33154 WT13     1284     MECN     C2       CG1N1    0.360000       12.0110           0
     33155 WT13     1284     MECN     N3       NG1T1   -0.460000       14.0070           0
     33156 WT13     1287     MECN     C1       CG331   -0.170000       12.0110           0
     33157 WT13     1287     MECN     H11      HGA3     0.090000        1.0080           0
     33158 WT13     1287     MECN     H12      HGA3     0.090000        1.0080           0
     33159 WT13     1287     MECN     H13      HGA3     0.090000        1.0080           0
     33160 WT13     1287     MECN     C2       CG1N1    0.360000       12.0110           0
     33161 WT13     1287     MECN     N3       NG1T1   -0.460000       14.0070           0
     33162 WT13     1288     MECN     C1       CG331   -0.170000       12.0110           0
     33163 WT13     1288     MECN     H11      HGA3     0.090000        1.0080           0
     33164 WT13     1288     MECN     H12      HGA3     0.090000        1.0080           0
     33165 WT13     1288     MECN     H13      HGA3     0.090000        1.0080           0
     33166 WT13     1288     MECN     C2       CG1N1    0.360000       12.0110           0
     33167 WT13     1288     MECN     N3       NG1T1   -0.460000       14.0070           0
     33168 WT13     1289     MECN     C1       CG331   -0.170000       12.0110           0
     33169 WT13     1289     MECN     H11      HGA3     0.090000        1.0080           0
     33170 WT13     1289     MECN     H12      HGA3     0.090000        1.0080           0
     33171 WT13     1289     MECN     H13      HGA3     0.090000        1.0080           0
     33172 WT13     1289     MECN     C2       CG1N1    0.360000       12.0110           0
     33173 WT13     1289     MECN     N3       NG1T1   -0.460000       14.0070           0
     33174 WT13     1291     MECN     C1       CG331   -0.170000       12.0110           0
     33175 WT13     1291     MECN     H11      HGA3     0.090000        1.0080           0
     33176 WT13     1291     MECN     H12      HGA3     0.090000        1.0080           0
     33177 WT13     1291     MECN     H13      HGA3     0.090000        1.0080           0
     33178 WT13     1291     MECN     C2       CG1N1    0.360000       12.0110           0
     33179 WT13     1291     MECN     N3       NG1T1   -0.460000       14.0070           0
     33180 WT13     1292     MECN     C1       CG331   -0.170000       12.0110           0
     33181 WT13     1292     MECN     H11      HGA3     0.090000        1.0080           0
     33182 WT13     1292     MECN     H12      HGA3     0.090000        1.0080           0
     33183 WT13     1292     MECN     H13      HGA3     0.090000        1.0080           0
     33184 WT13     1292     MECN     C2       CG1N1    0.360000       12.0110           0
     33185 WT13     1292     MECN     N3       NG1T1   -0.460000       14.0070           0
     33186 WT13     1293     MECN     C1       CG331   -0.170000       12.0110           0
     33187 WT13     1293     MECN     H11      HGA3     0.090000        1.0080           0
     33188 WT13     1293     MECN     H12      HGA3     0.090000        1.0080           0
     33189 WT13     1293     MECN     H13      HGA3     0.090000        1.0080           0
     33190 WT13     1293     MECN     C2       CG1N1    0.360000       12.0110           0
     33191 WT13     1293     MECN     N3       NG1T1   -0.460000       14.0070           0
     33192 WT13     1294     MECN     C1       CG331   -0.170000       12.0110           0
     33193 WT13     1294     MECN     H11      HGA3     0.090000        1.0080           0
     33194 WT13     1294     MECN     H12      HGA3     0.090000        1.0080           0
     33195 WT13     1294     MECN     H13      HGA3     0.090000        1.0080           0
     33196 WT13     1294     MECN     C2       CG1N1    0.360000       12.0110           0
     33197 WT13     1294     MECN     N3       NG1T1   -0.460000       14.0070           0
     33198 WT13     1295     MECN     C1       CG331   -0.170000       12.0110           0
     33199 WT13     1295     MECN     H11      HGA3     0.090000        1.0080           0
     33200 WT13     1295     MECN     H12      HGA3     0.090000        1.0080           0
     33201 WT13     1295     MECN     H13      HGA3     0.090000        1.0080           0
     33202 WT13     1295     MECN     C2       CG1N1    0.360000       12.0110           0
     33203 WT13     1295     MECN     N3       NG1T1   -0.460000       14.0070           0
     33204 WT13     1296     MECN     C1       CG331   -0.170000       12.0110           0
     33205 WT13     1296     MECN     H11      HGA3     0.090000        1.0080           0
     33206 WT13     1296     MECN     H12      HGA3     0.090000        1.0080           0
     33207 WT13     1296     MECN     H13      HGA3     0.090000        1.0080           0
     33208 WT13     1296     MECN     C2       CG1N1    0.360000       12.0110           0
     33209 WT13     1296     MECN     N3       NG1T1   -0.460000       14.0070           0
     33210 WT13     1298     MECN     C1       CG331   -0.170000       12.0110           0
     33211 WT13     1298     MECN     H11      HGA3     0.090000        1.0080           0
     33212 WT13     1298     MECN     H12      HGA3     0.090000        1.0080           0
     33213 WT13     1298     MECN     H13      HGA3     0.090000        1.0080           0
     33214 WT13     1298     MECN     C2       CG1N1    0.360000       12.0110           0
     33215 WT13     1298     MECN     N3       NG1T1   -0.460000       14.0070           0
     33216 WT13     1300     MECN     C1       CG331   -0.170000       12.0110           0
     33217 WT13     1300     MECN     H11      HGA3     0.090000        1.0080           0
     33218 WT13     1300     MECN     H12      HGA3     0.090000        1.0080           0
     33219 WT13     1300     MECN     H13      HGA3     0.090000        1.0080           0
     33220 WT13     1300     MECN     C2       CG1N1    0.360000       12.0110           0
     33221 WT13     1300     MECN     N3       NG1T1   -0.460000       14.0070           0
     33222 WT13     1303     MECN     C1       CG331   -0.170000       12.0110           0
     33223 WT13     1303     MECN     H11      HGA3     0.090000        1.0080           0
     33224 WT13     1303     MECN     H12      HGA3     0.090000        1.0080           0
     33225 WT13     1303     MECN     H13      HGA3     0.090000        1.0080           0
     33226 WT13     1303     MECN     C2       CG1N1    0.360000       12.0110           0
     33227 WT13     1303     MECN     N3       NG1T1   -0.460000       14.0070           0
     33228 WT13     1304     MECN     C1       CG331   -0.170000       12.0110           0
     33229 WT13     1304     MECN     H11      HGA3     0.090000        1.0080           0
     33230 WT13     1304     MECN     H12      HGA3     0.090000        1.0080           0
     33231 WT13     1304     MECN     H13      HGA3     0.090000        1.0080           0
     33232 WT13     1304     MECN     C2       CG1N1    0.360000       12.0110           0
     33233 WT13     1304     MECN     N3       NG1T1   -0.460000       14.0070           0
     33234 WT13     1305     MECN     C1       CG331   -0.170000       12.0110           0
     33235 WT13     1305     MECN     H11      HGA3     0.090000        1.0080           0
     33236 WT13     1305     MECN     H12      HGA3     0.090000        1.0080           0
     33237 WT13     1305     MECN     H13      HGA3     0.090000        1.0080           0
     33238 WT13     1305     MECN     C2       CG1N1    0.360000       12.0110           0
     33239 WT13     1305     MECN     N3       NG1T1   -0.460000       14.0070           0
     33240 WT13     1306     MECN     C1       CG331   -0.170000       12.0110           0
     33241 WT13     1306     MECN     H11      HGA3     0.090000        1.0080           0
     33242 WT13     1306     MECN     H12      HGA3     0.090000        1.0080           0
     33243 WT13     1306     MECN     H13      HGA3     0.090000        1.0080           0
     33244 WT13     1306     MECN     C2       CG1N1    0.360000       12.0110           0
     33245 WT13     1306     MECN     N3       NG1T1   -0.460000       14.0070           0
     33246 WT13     1307     MECN     C1       CG331   -0.170000       12.0110           0
     33247 WT13     1307     MECN     H11      HGA3     0.090000        1.0080           0
     33248 WT13     1307     MECN     H12      HGA3     0.090000        1.0080           0
     33249 WT13     1307     MECN     H13      HGA3     0.090000        1.0080           0
     33250 WT13     1307     MECN     C2       CG1N1    0.360000       12.0110           0
     33251 WT13     1307     MECN     N3       NG1T1   -0.460000       14.0070           0
     33252 WT13     1310     MECN     C1       CG331   -0.170000       12.0110           0
     33253 WT13     1310     MECN     H11      HGA3     0.090000        1.0080           0
     33254 WT13     1310     MECN     H12      HGA3     0.090000        1.0080           0
     33255 WT13     1310     MECN     H13      HGA3     0.090000        1.0080           0
     33256 WT13     1310     MECN     C2       CG1N1    0.360000       12.0110           0
     33257 WT13     1310     MECN     N3       NG1T1   -0.460000       14.0070           0
     33258 WT13     1315     MECN     C1       CG331   -0.170000       12.0110           0
     33259 WT13     1315     MECN     H11      HGA3     0.090000        1.0080           0
     33260 WT13     1315     MECN     H12      HGA3     0.090000        1.0080           0
     33261 WT13     1315     MECN     H13      HGA3     0.090000        1.0080           0
     33262 WT13     1315     MECN     C2       CG1N1    0.360000       12.0110           0
     33263 WT13     1315     MECN     N3       NG1T1   -0.460000       14.0070           0
     33264 WT13     1317     MECN     C1       CG331   -0.170000       12.0110           0
     33265 WT13     1317     MECN     H11      HGA3     0.090000        1.0080           0
     33266 WT13     1317     MECN     H12      HGA3     0.090000        1.0080           0
     33267 WT13     1317     MECN     H13      HGA3     0.090000        1.0080           0
     33268 WT13     1317     MECN     C2       CG1N1    0.360000       12.0110           0
     33269 WT13     1317     MECN     N3       NG1T1   -0.460000       14.0070           0
     33270 WT13     1321     MECN     C1       CG331   -0.170000       12.0110           0
     33271 WT13     1321     MECN     H11      HGA3     0.090000        1.0080           0
     33272 WT13     1321     MECN     H12      HGA3     0.090000        1.0080           0
     33273 WT13     1321     MECN     H13      HGA3     0.090000        1.0080           0
     33274 WT13     1321     MECN     C2       CG1N1    0.360000       12.0110           0
     33275 WT13     1321     MECN     N3       NG1T1   -0.460000       14.0070           0
     33276 WT13     1322     MECN     C1       CG331   -0.170000       12.0110           0
     33277 WT13     1322     MECN     H11      HGA3     0.090000        1.0080           0
     33278 WT13     1322     MECN     H12      HGA3     0.090000        1.0080           0
     33279 WT13     1322     MECN     H13      HGA3     0.090000        1.0080           0
     33280 WT13     1322     MECN     C2       CG1N1    0.360000       12.0110           0
     33281 WT13     1322     MECN     N3       NG1T1   -0.460000       14.0070           0
     33282 WT13     1325     MECN     C1       CG331   -0.170000       12.0110           0
     33283 WT13     1325     MECN     H11      HGA3     0.090000        1.0080           0
     33284 WT13     1325     MECN     H12      HGA3     0.090000        1.0080           0
     33285 WT13     1325     MECN     H13      HGA3     0.090000        1.0080           0
     33286 WT13     1325     MECN     C2       CG1N1    0.360000       12.0110           0
     33287 WT13     1325     MECN     N3       NG1T1   -0.460000       14.0070           0
     33288 WT13     1326     MECN     C1       CG331   -0.170000       12.0110           0
     33289 WT13     1326     MECN     H11      HGA3     0.090000        1.0080           0
     33290 WT13     1326     MECN     H12      HGA3     0.090000        1.0080           0
     33291 WT13     1326     MECN     H13      HGA3     0.090000        1.0080           0
     33292 WT13     1326     MECN     C2       CG1N1    0.360000       12.0110           0
     33293 WT13     1326     MECN     N3       NG1T1   -0.460000       14.0070           0
     33294 WT13     1328     MECN     C1       CG331   -0.170000       12.0110           0
     33295 WT13     1328     MECN     H11      HGA3     0.090000        1.0080           0
     33296 WT13     1328     MECN     H12      HGA3     0.090000        1.0080           0
     33297 WT13     1328     MECN     H13      HGA3     0.090000        1.0080           0
     33298 WT13     1328     MECN     C2       CG1N1    0.360000       12.0110           0
     33299 WT13     1328     MECN     N3       NG1T1   -0.460000       14.0070           0
     33300 WT13     1329     MECN     C1       CG331   -0.170000       12.0110           0
     33301 WT13     1329     MECN     H11      HGA3     0.090000        1.0080           0
     33302 WT13     1329     MECN     H12      HGA3     0.090000        1.0080           0
     33303 WT13     1329     MECN     H13      HGA3     0.090000        1.0080           0
     33304 WT13     1329     MECN     C2       CG1N1    0.360000       12.0110           0
     33305 WT13     1329     MECN     N3       NG1T1   -0.460000       14.0070           0
     33306 WT14     1        MECN     C1       CG331   -0.170000       12.0110           0
     33307 WT14     1        MECN     H11      HGA3     0.090000        1.0080           0
     33308 WT14     1        MECN     H12      HGA3     0.090000        1.0080           0
     33309 WT14     1        MECN     H13      HGA3     0.090000        1.0080           0
     33310 WT14     1        MECN     C2       CG1N1    0.360000       12.0110           0
     33311 WT14     1        MECN     N3       NG1T1   -0.460000       14.0070           0
     33312 WT14     2        MECN     C1       CG331   -0.170000       12.0110           0
     33313 WT14     2        MECN     H11      HGA3     0.090000        1.0080           0
     33314 WT14     2        MECN     H12      HGA3     0.090000        1.0080           0
     33315 WT14     2        MECN     H13      HGA3     0.090000        1.0080           0
     33316 WT14     2        MECN     C2       CG1N1    0.360000       12.0110           0
     33317 WT14     2        MECN     N3       NG1T1   -0.460000       14.0070           0
     33318 WT14     3        MECN     C1       CG331   -0.170000       12.0110           0
     33319 WT14     3        MECN     H11      HGA3     0.090000        1.0080           0
     33320 WT14     3        MECN     H12      HGA3     0.090000        1.0080           0
     33321 WT14     3        MECN     H13      HGA3     0.090000        1.0080           0
     33322 WT14     3        MECN     C2       CG1N1    0.360000       12.0110           0
     33323 WT14     3        MECN     N3       NG1T1   -0.460000       14.0070           0
     33324 WT14     4        MECN     C1       CG331   -0.170000       12.0110           0
     33325 WT14     4        MECN     H11      HGA3     0.090000        1.0080           0
     33326 WT14     4        MECN     H12      HGA3     0.090000        1.0080           0
     33327 WT14     4        MECN     H13      HGA3     0.090000        1.0080           0
     33328 WT14     4        MECN     C2       CG1N1    0.360000       12.0110           0
     33329 WT14     4        MECN     N3       NG1T1   -0.460000       14.0070           0
     33330 WT14     5        MECN     C1       CG331   -0.170000       12.0110           0
     33331 WT14     5        MECN     H11      HGA3     0.090000        1.0080           0
     33332 WT14     5        MECN     H12      HGA3     0.090000        1.0080           0
     33333 WT14     5        MECN     H13      HGA3     0.090000        1.0080           0
     33334 WT14     5        MECN     C2       CG1N1    0.360000       12.0110           0
     33335 WT14     5        MECN     N3       NG1T1   -0.460000       14.0070           0
     33336 WT14     6        MECN     C1       CG331   -0.170000       12.0110           0
     33337 WT14     6        MECN     H11      HGA3     0.090000        1.0080           0
     33338 WT14     6        MECN     H12      HGA3     0.090000        1.0080           0
     33339 WT14     6        MECN     H13      HGA3     0.090000        1.0080           0
     33340 WT14     6        MECN     C2       CG1N1    0.360000       12.0110           0
     33341 WT14     6        MECN     N3       NG1T1   -0.460000       14.0070           0
     33342 WT14     7        MECN     C1       CG331   -0.170000       12.0110           0
     33343 WT14     7        MECN     H11      HGA3     0.090000        1.0080           0
     33344 WT14     7        MECN     H12      HGA3     0.090000        1.0080           0
     33345 WT14     7        MECN     H13      HGA3     0.090000        1.0080           0
     33346 WT14     7        MECN     C2       CG1N1    0.360000       12.0110           0
     33347 WT14     7        MECN     N3       NG1T1   -0.460000       14.0070           0
     33348 WT14     9        MECN     C1       CG331   -0.170000       12.0110           0
     33349 WT14     9        MECN     H11      HGA3     0.090000        1.0080           0
     33350 WT14     9        MECN     H12      HGA3     0.090000        1.0080           0
     33351 WT14     9        MECN     H13      HGA3     0.090000        1.0080           0
     33352 WT14     9        MECN     C2       CG1N1    0.360000       12.0110           0
     33353 WT14     9        MECN     N3       NG1T1   -0.460000       14.0070           0
     33354 WT14     10       MECN     C1       CG331   -0.170000       12.0110           0
     33355 WT14     10       MECN     H11      HGA3     0.090000        1.0080           0
     33356 WT14     10       MECN     H12      HGA3     0.090000        1.0080           0
     33357 WT14     10       MECN     H13      HGA3     0.090000        1.0080           0
     33358 WT14     10       MECN     C2       CG1N1    0.360000       12.0110           0
     33359 WT14     10       MECN     N3       NG1T1   -0.460000       14.0070           0
     33360 WT14     11       MECN     C1       CG331   -0.170000       12.0110           0
     33361 WT14     11       MECN     H11      HGA3     0.090000        1.0080           0
     33362 WT14     11       MECN     H12      HGA3     0.090000        1.0080           0
     33363 WT14     11       MECN     H13      HGA3     0.090000        1.0080           0
     33364 WT14     11       MECN     C2       CG1N1    0.360000       12.0110           0
     33365 WT14     11       MECN     N3       NG1T1   -0.460000       14.0070           0
     33366 WT14     12       MECN     C1       CG331   -0.170000       12.0110           0
     33367 WT14     12       MECN     H11      HGA3     0.090000        1.0080           0
     33368 WT14     12       MECN     H12      HGA3     0.090000        1.0080           0
     33369 WT14     12       MECN     H13      HGA3     0.090000        1.0080           0
     33370 WT14     12       MECN     C2       CG1N1    0.360000       12.0110           0
     33371 WT14     12       MECN     N3       NG1T1   -0.460000       14.0070           0
     33372 WT14     13       MECN     C1       CG331   -0.170000       12.0110           0
     33373 WT14     13       MECN     H11      HGA3     0.090000        1.0080           0
     33374 WT14     13       MECN     H12      HGA3     0.090000        1.0080           0
     33375 WT14     13       MECN     H13      HGA3     0.090000        1.0080           0
     33376 WT14     13       MECN     C2       CG1N1    0.360000       12.0110           0
     33377 WT14     13       MECN     N3       NG1T1   -0.460000       14.0070           0
     33378 WT14     14       MECN     C1       CG331   -0.170000       12.0110           0
     33379 WT14     14       MECN     H11      HGA3     0.090000        1.0080           0
     33380 WT14     14       MECN     H12      HGA3     0.090000        1.0080           0
     33381 WT14     14       MECN     H13      HGA3     0.090000        1.0080           0
     33382 WT14     14       MECN     C2       CG1N1    0.360000       12.0110           0
     33383 WT14     14       MECN     N3       NG1T1   -0.460000       14.0070           0
     33384 WT14     15       MECN     C1       CG331   -0.170000       12.0110           0
     33385 WT14     15       MECN     H11      HGA3     0.090000        1.0080           0
     33386 WT14     15       MECN     H12      HGA3     0.090000        1.0080           0
     33387 WT14     15       MECN     H13      HGA3     0.090000        1.0080           0
     33388 WT14     15       MECN     C2       CG1N1    0.360000       12.0110           0
     33389 WT14     15       MECN     N3       NG1T1   -0.460000       14.0070           0
     33390 WT14     16       MECN     C1       CG331   -0.170000       12.0110           0
     33391 WT14     16       MECN     H11      HGA3     0.090000        1.0080           0
     33392 WT14     16       MECN     H12      HGA3     0.090000        1.0080           0
     33393 WT14     16       MECN     H13      HGA3     0.090000        1.0080           0
     33394 WT14     16       MECN     C2       CG1N1    0.360000       12.0110           0
     33395 WT14     16       MECN     N3       NG1T1   -0.460000       14.0070           0
     33396 WT14     17       MECN     C1       CG331   -0.170000       12.0110           0
     33397 WT14     17       MECN     H11      HGA3     0.090000        1.0080           0
     33398 WT14     17       MECN     H12      HGA3     0.090000        1.0080           0
     33399 WT14     17       MECN     H13      HGA3     0.090000        1.0080           0
     33400 WT14     17       MECN     C2       CG1N1    0.360000       12.0110           0
     33401 WT14     17       MECN     N3       NG1T1   -0.460000       14.0070           0
     33402 WT14     18       MECN     C1       CG331   -0.170000       12.0110           0
     33403 WT14     18       MECN     H11      HGA3     0.090000        1.0080           0
     33404 WT14     18       MECN     H12      HGA3     0.090000        1.0080           0
     33405 WT14     18       MECN     H13      HGA3     0.090000        1.0080           0
     33406 WT14     18       MECN     C2       CG1N1    0.360000       12.0110           0
     33407 WT14     18       MECN     N3       NG1T1   -0.460000       14.0070           0
     33408 WT14     20       MECN     C1       CG331   -0.170000       12.0110           0
     33409 WT14     20       MECN     H11      HGA3     0.090000        1.0080           0
     33410 WT14     20       MECN     H12      HGA3     0.090000        1.0080           0
     33411 WT14     20       MECN     H13      HGA3     0.090000        1.0080           0
     33412 WT14     20       MECN     C2       CG1N1    0.360000       12.0110           0
     33413 WT14     20       MECN     N3       NG1T1   -0.460000       14.0070           0
     33414 WT14     21       MECN     C1       CG331   -0.170000       12.0110           0
     33415 WT14     21       MECN     H11      HGA3     0.090000        1.0080           0
     33416 WT14     21       MECN     H12      HGA3     0.090000        1.0080           0
     33417 WT14     21       MECN     H13      HGA3     0.090000        1.0080           0
     33418 WT14     21       MECN     C2       CG1N1    0.360000       12.0110           0
     33419 WT14     21       MECN     N3       NG1T1   -0.460000       14.0070           0
     33420 WT14     22       MECN     C1       CG331   -0.170000       12.0110           0
     33421 WT14     22       MECN     H11      HGA3     0.090000        1.0080           0
     33422 WT14     22       MECN     H12      HGA3     0.090000        1.0080           0
     33423 WT14     22       MECN     H13      HGA3     0.090000        1.0080           0
     33424 WT14     22       MECN     C2       CG1N1    0.360000       12.0110           0
     33425 WT14     22       MECN     N3       NG1T1   -0.460000       14.0070           0
     33426 WT14     23       MECN     C1       CG331   -0.170000       12.0110           0
     33427 WT14     23       MECN     H11      HGA3     0.090000        1.0080           0
     33428 WT14     23       MECN     H12      HGA3     0.090000        1.0080           0
     33429 WT14     23       MECN     H13      HGA3     0.090000        1.0080           0
     33430 WT14     23       MECN     C2       CG1N1    0.360000       12.0110           0
     33431 WT14     23       MECN     N3       NG1T1   -0.460000       14.0070           0
     33432 WT14     24       MECN     C1       CG331   -0.170000       12.0110           0
     33433 WT14     24       MECN     H11      HGA3     0.090000        1.0080           0
     33434 WT14     24       MECN     H12      HGA3     0.090000        1.0080           0
     33435 WT14     24       MECN     H13      HGA3     0.090000        1.0080           0
     33436 WT14     24       MECN     C2       CG1N1    0.360000       12.0110           0
     33437 WT14     24       MECN     N3       NG1T1   -0.460000       14.0070           0
     33438 WT14     26       MECN     C1       CG331   -0.170000       12.0110           0
     33439 WT14     26       MECN     H11      HGA3     0.090000        1.0080           0
     33440 WT14     26       MECN     H12      HGA3     0.090000        1.0080           0
     33441 WT14     26       MECN     H13      HGA3     0.090000        1.0080           0
     33442 WT14     26       MECN     C2       CG1N1    0.360000       12.0110           0
     33443 WT14     26       MECN     N3       NG1T1   -0.460000       14.0070           0
     33444 WT14     27       MECN     C1       CG331   -0.170000       12.0110           0
     33445 WT14     27       MECN     H11      HGA3     0.090000        1.0080           0
     33446 WT14     27       MECN     H12      HGA3     0.090000        1.0080           0
     33447 WT14     27       MECN     H13      HGA3     0.090000        1.0080           0
     33448 WT14     27       MECN     C2       CG1N1    0.360000       12.0110           0
     33449 WT14     27       MECN     N3       NG1T1   -0.460000       14.0070           0
     33450 WT14     28       MECN     C1       CG331   -0.170000       12.0110           0
     33451 WT14     28       MECN     H11      HGA3     0.090000        1.0080           0
     33452 WT14     28       MECN     H12      HGA3     0.090000        1.0080           0
     33453 WT14     28       MECN     H13      HGA3     0.090000        1.0080           0
     33454 WT14     28       MECN     C2       CG1N1    0.360000       12.0110           0
     33455 WT14     28       MECN     N3       NG1T1   -0.460000       14.0070           0
     33456 WT14     29       MECN     C1       CG331   -0.170000       12.0110           0
     33457 WT14     29       MECN     H11      HGA3     0.090000        1.0080           0
     33458 WT14     29       MECN     H12      HGA3     0.090000        1.0080           0
     33459 WT14     29       MECN     H13      HGA3     0.090000        1.0080           0
     33460 WT14     29       MECN     C2       CG1N1    0.360000       12.0110           0
     33461 WT14     29       MECN     N3       NG1T1   -0.460000       14.0070           0
     33462 WT14     30       MECN     C1       CG331   -0.170000       12.0110           0
     33463 WT14     30       MECN     H11      HGA3     0.090000        1.0080           0
     33464 WT14     30       MECN     H12      HGA3     0.090000        1.0080           0
     33465 WT14     30       MECN     H13      HGA3     0.090000        1.0080           0
     33466 WT14     30       MECN     C2       CG1N1    0.360000       12.0110           0
     33467 WT14     30       MECN     N3       NG1T1   -0.460000       14.0070           0
     33468 WT14     31       MECN     C1       CG331   -0.170000       12.0110           0
     33469 WT14     31       MECN     H11      HGA3     0.090000        1.0080           0
     33470 WT14     31       MECN     H12      HGA3     0.090000        1.0080           0
     33471 WT14     31       MECN     H13      HGA3     0.090000        1.0080           0
     33472 WT14     31       MECN     C2       CG1N1    0.360000       12.0110           0
     33473 WT14     31       MECN     N3       NG1T1   -0.460000       14.0070           0
     33474 WT14     32       MECN     C1       CG331   -0.170000       12.0110           0
     33475 WT14     32       MECN     H11      HGA3     0.090000        1.0080           0
     33476 WT14     32       MECN     H12      HGA3     0.090000        1.0080           0
     33477 WT14     32       MECN     H13      HGA3     0.090000        1.0080           0
     33478 WT14     32       MECN     C2       CG1N1    0.360000       12.0110           0
     33479 WT14     32       MECN     N3       NG1T1   -0.460000       14.0070           0
     33480 WT14     33       MECN     C1       CG331   -0.170000       12.0110           0
     33481 WT14     33       MECN     H11      HGA3     0.090000        1.0080           0
     33482 WT14     33       MECN     H12      HGA3     0.090000        1.0080           0
     33483 WT14     33       MECN     H13      HGA3     0.090000        1.0080           0
     33484 WT14     33       MECN     C2       CG1N1    0.360000       12.0110           0
     33485 WT14     33       MECN     N3       NG1T1   -0.460000       14.0070           0
     33486 WT14     34       MECN     C1       CG331   -0.170000       12.0110           0
     33487 WT14     34       MECN     H11      HGA3     0.090000        1.0080           0
     33488 WT14     34       MECN     H12      HGA3     0.090000        1.0080           0
     33489 WT14     34       MECN     H13      HGA3     0.090000        1.0080           0
     33490 WT14     34       MECN     C2       CG1N1    0.360000       12.0110           0
     33491 WT14     34       MECN     N3       NG1T1   -0.460000       14.0070           0
     33492 WT14     35       MECN     C1       CG331   -0.170000       12.0110           0
     33493 WT14     35       MECN     H11      HGA3     0.090000        1.0080           0
     33494 WT14     35       MECN     H12      HGA3     0.090000        1.0080           0
     33495 WT14     35       MECN     H13      HGA3     0.090000        1.0080           0
     33496 WT14     35       MECN     C2       CG1N1    0.360000       12.0110           0
     33497 WT14     35       MECN     N3       NG1T1   -0.460000       14.0070           0
     33498 WT14     36       MECN     C1       CG331   -0.170000       12.0110           0
     33499 WT14     36       MECN     H11      HGA3     0.090000        1.0080           0
     33500 WT14     36       MECN     H12      HGA3     0.090000        1.0080           0
     33501 WT14     36       MECN     H13      HGA3     0.090000        1.0080           0
     33502 WT14     36       MECN     C2       CG1N1    0.360000       12.0110           0
     33503 WT14     36       MECN     N3       NG1T1   -0.460000       14.0070           0
     33504 WT14     37       MECN     C1       CG331   -0.170000       12.0110           0
     33505 WT14     37       MECN     H11      HGA3     0.090000        1.0080           0
     33506 WT14     37       MECN     H12      HGA3     0.090000        1.0080           0
     33507 WT14     37       MECN     H13      HGA3     0.090000        1.0080           0
     33508 WT14     37       MECN     C2       CG1N1    0.360000       12.0110           0
     33509 WT14     37       MECN     N3       NG1T1   -0.460000       14.0070           0
     33510 WT14     40       MECN     C1       CG331   -0.170000       12.0110           0
     33511 WT14     40       MECN     H11      HGA3     0.090000        1.0080           0
     33512 WT14     40       MECN     H12      HGA3     0.090000        1.0080           0
     33513 WT14     40       MECN     H13      HGA3     0.090000        1.0080           0
     33514 WT14     40       MECN     C2       CG1N1    0.360000       12.0110           0
     33515 WT14     40       MECN     N3       NG1T1   -0.460000       14.0070           0
     33516 WT14     41       MECN     C1       CG331   -0.170000       12.0110           0
     33517 WT14     41       MECN     H11      HGA3     0.090000        1.0080           0
     33518 WT14     41       MECN     H12      HGA3     0.090000        1.0080           0
     33519 WT14     41       MECN     H13      HGA3     0.090000        1.0080           0
     33520 WT14     41       MECN     C2       CG1N1    0.360000       12.0110           0
     33521 WT14     41       MECN     N3       NG1T1   -0.460000       14.0070           0
     33522 WT14     42       MECN     C1       CG331   -0.170000       12.0110           0
     33523 WT14     42       MECN     H11      HGA3     0.090000        1.0080           0
     33524 WT14     42       MECN     H12      HGA3     0.090000        1.0080           0
     33525 WT14     42       MECN     H13      HGA3     0.090000        1.0080           0
     33526 WT14     42       MECN     C2       CG1N1    0.360000       12.0110           0
     33527 WT14     42       MECN     N3       NG1T1   -0.460000       14.0070           0
     33528 WT14     43       MECN     C1       CG331   -0.170000       12.0110           0
     33529 WT14     43       MECN     H11      HGA3     0.090000        1.0080           0
     33530 WT14     43       MECN     H12      HGA3     0.090000        1.0080           0
     33531 WT14     43       MECN     H13      HGA3     0.090000        1.0080           0
     33532 WT14     43       MECN     C2       CG1N1    0.360000       12.0110           0
     33533 WT14     43       MECN     N3       NG1T1   -0.460000       14.0070           0
     33534 WT14     44       MECN     C1       CG331   -0.170000       12.0110           0
     33535 WT14     44       MECN     H11      HGA3     0.090000        1.0080           0
     33536 WT14     44       MECN     H12      HGA3     0.090000        1.0080           0
     33537 WT14     44       MECN     H13      HGA3     0.090000        1.0080           0
     33538 WT14     44       MECN     C2       CG1N1    0.360000       12.0110           0
     33539 WT14     44       MECN     N3       NG1T1   -0.460000       14.0070           0
     33540 WT14     45       MECN     C1       CG331   -0.170000       12.0110           0
     33541 WT14     45       MECN     H11      HGA3     0.090000        1.0080           0
     33542 WT14     45       MECN     H12      HGA3     0.090000        1.0080           0
     33543 WT14     45       MECN     H13      HGA3     0.090000        1.0080           0
     33544 WT14     45       MECN     C2       CG1N1    0.360000       12.0110           0
     33545 WT14     45       MECN     N3       NG1T1   -0.460000       14.0070           0
     33546 WT14     46       MECN     C1       CG331   -0.170000       12.0110           0
     33547 WT14     46       MECN     H11      HGA3     0.090000        1.0080           0
     33548 WT14     46       MECN     H12      HGA3     0.090000        1.0080           0
     33549 WT14     46       MECN     H13      HGA3     0.090000        1.0080           0
     33550 WT14     46       MECN     C2       CG1N1    0.360000       12.0110           0
     33551 WT14     46       MECN     N3       NG1T1   -0.460000       14.0070           0
     33552 WT14     47       MECN     C1       CG331   -0.170000       12.0110           0
     33553 WT14     47       MECN     H11      HGA3     0.090000        1.0080           0
     33554 WT14     47       MECN     H12      HGA3     0.090000        1.0080           0
     33555 WT14     47       MECN     H13      HGA3     0.090000        1.0080           0
     33556 WT14     47       MECN     C2       CG1N1    0.360000       12.0110           0
     33557 WT14     47       MECN     N3       NG1T1   -0.460000       14.0070           0
     33558 WT14     48       MECN     C1       CG331   -0.170000       12.0110           0
     33559 WT14     48       MECN     H11      HGA3     0.090000        1.0080           0
     33560 WT14     48       MECN     H12      HGA3     0.090000        1.0080           0
     33561 WT14     48       MECN     H13      HGA3     0.090000        1.0080           0
     33562 WT14     48       MECN     C2       CG1N1    0.360000       12.0110           0
     33563 WT14     48       MECN     N3       NG1T1   -0.460000       14.0070           0
     33564 WT14     49       MECN     C1       CG331   -0.170000       12.0110           0
     33565 WT14     49       MECN     H11      HGA3     0.090000        1.0080           0
     33566 WT14     49       MECN     H12      HGA3     0.090000        1.0080           0
     33567 WT14     49       MECN     H13      HGA3     0.090000        1.0080           0
     33568 WT14     49       MECN     C2       CG1N1    0.360000       12.0110           0
     33569 WT14     49       MECN     N3       NG1T1   -0.460000       14.0070           0
     33570 WT14     50       MECN     C1       CG331   -0.170000       12.0110           0
     33571 WT14     50       MECN     H11      HGA3     0.090000        1.0080           0
     33572 WT14     50       MECN     H12      HGA3     0.090000        1.0080           0
     33573 WT14     50       MECN     H13      HGA3     0.090000        1.0080           0
     33574 WT14     50       MECN     C2       CG1N1    0.360000       12.0110           0
     33575 WT14     50       MECN     N3       NG1T1   -0.460000       14.0070           0
     33576 WT14     51       MECN     C1       CG331   -0.170000       12.0110           0
     33577 WT14     51       MECN     H11      HGA3     0.090000        1.0080           0
     33578 WT14     51       MECN     H12      HGA3     0.090000        1.0080           0
     33579 WT14     51       MECN     H13      HGA3     0.090000        1.0080           0
     33580 WT14     51       MECN     C2       CG1N1    0.360000       12.0110           0
     33581 WT14     51       MECN     N3       NG1T1   -0.460000       14.0070           0
     33582 WT14     52       MECN     C1       CG331   -0.170000       12.0110           0
     33583 WT14     52       MECN     H11      HGA3     0.090000        1.0080           0
     33584 WT14     52       MECN     H12      HGA3     0.090000        1.0080           0
     33585 WT14     52       MECN     H13      HGA3     0.090000        1.0080           0
     33586 WT14     52       MECN     C2       CG1N1    0.360000       12.0110           0
     33587 WT14     52       MECN     N3       NG1T1   -0.460000       14.0070           0
     33588 WT14     53       MECN     C1       CG331   -0.170000       12.0110           0
     33589 WT14     53       MECN     H11      HGA3     0.090000        1.0080           0
     33590 WT14     53       MECN     H12      HGA3     0.090000        1.0080           0
     33591 WT14     53       MECN     H13      HGA3     0.090000        1.0080           0
     33592 WT14     53       MECN     C2       CG1N1    0.360000       12.0110           0
     33593 WT14     53       MECN     N3       NG1T1   -0.460000       14.0070           0
     33594 WT14     54       MECN     C1       CG331   -0.170000       12.0110           0
     33595 WT14     54       MECN     H11      HGA3     0.090000        1.0080           0
     33596 WT14     54       MECN     H12      HGA3     0.090000        1.0080           0
     33597 WT14     54       MECN     H13      HGA3     0.090000        1.0080           0
     33598 WT14     54       MECN     C2       CG1N1    0.360000       12.0110           0
     33599 WT14     54       MECN     N3       NG1T1   -0.460000       14.0070           0
     33600 WT14     55       MECN     C1       CG331   -0.170000       12.0110           0
     33601 WT14     55       MECN     H11      HGA3     0.090000        1.0080           0
     33602 WT14     55       MECN     H12      HGA3     0.090000        1.0080           0
     33603 WT14     55       MECN     H13      HGA3     0.090000        1.0080           0
     33604 WT14     55       MECN     C2       CG1N1    0.360000       12.0110           0
     33605 WT14     55       MECN     N3       NG1T1   -0.460000       14.0070           0
     33606 WT14     56       MECN     C1       CG331   -0.170000       12.0110           0
     33607 WT14     56       MECN     H11      HGA3     0.090000        1.0080           0
     33608 WT14     56       MECN     H12      HGA3     0.090000        1.0080           0
     33609 WT14     56       MECN     H13      HGA3     0.090000        1.0080           0
     33610 WT14     56       MECN     C2       CG1N1    0.360000       12.0110           0
     33611 WT14     56       MECN     N3       NG1T1   -0.460000       14.0070           0
     33612 WT14     57       MECN     C1       CG331   -0.170000       12.0110           0
     33613 WT14     57       MECN     H11      HGA3     0.090000        1.0080           0
     33614 WT14     57       MECN     H12      HGA3     0.090000        1.0080           0
     33615 WT14     57       MECN     H13      HGA3     0.090000        1.0080           0
     33616 WT14     57       MECN     C2       CG1N1    0.360000       12.0110           0
     33617 WT14     57       MECN     N3       NG1T1   -0.460000       14.0070           0
     33618 WT14     58       MECN     C1       CG331   -0.170000       12.0110           0
     33619 WT14     58       MECN     H11      HGA3     0.090000        1.0080           0
     33620 WT14     58       MECN     H12      HGA3     0.090000        1.0080           0
     33621 WT14     58       MECN     H13      HGA3     0.090000        1.0080           0
     33622 WT14     58       MECN     C2       CG1N1    0.360000       12.0110           0
     33623 WT14     58       MECN     N3       NG1T1   -0.460000       14.0070           0
     33624 WT14     59       MECN     C1       CG331   -0.170000       12.0110           0
     33625 WT14     59       MECN     H11      HGA3     0.090000        1.0080           0
     33626 WT14     59       MECN     H12      HGA3     0.090000        1.0080           0
     33627 WT14     59       MECN     H13      HGA3     0.090000        1.0080           0
     33628 WT14     59       MECN     C2       CG1N1    0.360000       12.0110           0
     33629 WT14     59       MECN     N3       NG1T1   -0.460000       14.0070           0
     33630 WT14     60       MECN     C1       CG331   -0.170000       12.0110           0
     33631 WT14     60       MECN     H11      HGA3     0.090000        1.0080           0
     33632 WT14     60       MECN     H12      HGA3     0.090000        1.0080           0
     33633 WT14     60       MECN     H13      HGA3     0.090000        1.0080           0
     33634 WT14     60       MECN     C2       CG1N1    0.360000       12.0110           0
     33635 WT14     60       MECN     N3       NG1T1   -0.460000       14.0070           0
     33636 WT14     61       MECN     C1       CG331   -0.170000       12.0110           0
     33637 WT14     61       MECN     H11      HGA3     0.090000        1.0080           0
     33638 WT14     61       MECN     H12      HGA3     0.090000        1.0080           0
     33639 WT14     61       MECN     H13      HGA3     0.090000        1.0080           0
     33640 WT14     61       MECN     C2       CG1N1    0.360000       12.0110           0
     33641 WT14     61       MECN     N3       NG1T1   -0.460000       14.0070           0
     33642 WT14     63       MECN     C1       CG331   -0.170000       12.0110           0
     33643 WT14     63       MECN     H11      HGA3     0.090000        1.0080           0
     33644 WT14     63       MECN     H12      HGA3     0.090000        1.0080           0
     33645 WT14     63       MECN     H13      HGA3     0.090000        1.0080           0
     33646 WT14     63       MECN     C2       CG1N1    0.360000       12.0110           0
     33647 WT14     63       MECN     N3       NG1T1   -0.460000       14.0070           0
     33648 WT14     64       MECN     C1       CG331   -0.170000       12.0110           0
     33649 WT14     64       MECN     H11      HGA3     0.090000        1.0080           0
     33650 WT14     64       MECN     H12      HGA3     0.090000        1.0080           0
     33651 WT14     64       MECN     H13      HGA3     0.090000        1.0080           0
     33652 WT14     64       MECN     C2       CG1N1    0.360000       12.0110           0
     33653 WT14     64       MECN     N3       NG1T1   -0.460000       14.0070           0
     33654 WT14     65       MECN     C1       CG331   -0.170000       12.0110           0
     33655 WT14     65       MECN     H11      HGA3     0.090000        1.0080           0
     33656 WT14     65       MECN     H12      HGA3     0.090000        1.0080           0
     33657 WT14     65       MECN     H13      HGA3     0.090000        1.0080           0
     33658 WT14     65       MECN     C2       CG1N1    0.360000       12.0110           0
     33659 WT14     65       MECN     N3       NG1T1   -0.460000       14.0070           0
     33660 WT14     66       MECN     C1       CG331   -0.170000       12.0110           0
     33661 WT14     66       MECN     H11      HGA3     0.090000        1.0080           0
     33662 WT14     66       MECN     H12      HGA3     0.090000        1.0080           0
     33663 WT14     66       MECN     H13      HGA3     0.090000        1.0080           0
     33664 WT14     66       MECN     C2       CG1N1    0.360000       12.0110           0
     33665 WT14     66       MECN     N3       NG1T1   -0.460000       14.0070           0
     33666 WT14     67       MECN     C1       CG331   -0.170000       12.0110           0
     33667 WT14     67       MECN     H11      HGA3     0.090000        1.0080           0
     33668 WT14     67       MECN     H12      HGA3     0.090000        1.0080           0
     33669 WT14     67       MECN     H13      HGA3     0.090000        1.0080           0
     33670 WT14     67       MECN     C2       CG1N1    0.360000       12.0110           0
     33671 WT14     67       MECN     N3       NG1T1   -0.460000       14.0070           0
     33672 WT14     68       MECN     C1       CG331   -0.170000       12.0110           0
     33673 WT14     68       MECN     H11      HGA3     0.090000        1.0080           0
     33674 WT14     68       MECN     H12      HGA3     0.090000        1.0080           0
     33675 WT14     68       MECN     H13      HGA3     0.090000        1.0080           0
     33676 WT14     68       MECN     C2       CG1N1    0.360000       12.0110           0
     33677 WT14     68       MECN     N3       NG1T1   -0.460000       14.0070           0
     33678 WT14     69       MECN     C1       CG331   -0.170000       12.0110           0
     33679 WT14     69       MECN     H11      HGA3     0.090000        1.0080           0
     33680 WT14     69       MECN     H12      HGA3     0.090000        1.0080           0
     33681 WT14     69       MECN     H13      HGA3     0.090000        1.0080           0
     33682 WT14     69       MECN     C2       CG1N1    0.360000       12.0110           0
     33683 WT14     69       MECN     N3       NG1T1   -0.460000       14.0070           0
     33684 WT14     70       MECN     C1       CG331   -0.170000       12.0110           0
     33685 WT14     70       MECN     H11      HGA3     0.090000        1.0080           0
     33686 WT14     70       MECN     H12      HGA3     0.090000        1.0080           0
     33687 WT14     70       MECN     H13      HGA3     0.090000        1.0080           0
     33688 WT14     70       MECN     C2       CG1N1    0.360000       12.0110           0
     33689 WT14     70       MECN     N3       NG1T1   -0.460000       14.0070           0
     33690 WT14     71       MECN     C1       CG331   -0.170000       12.0110           0
     33691 WT14     71       MECN     H11      HGA3     0.090000        1.0080           0
     33692 WT14     71       MECN     H12      HGA3     0.090000        1.0080           0
     33693 WT14     71       MECN     H13      HGA3     0.090000        1.0080           0
     33694 WT14     71       MECN     C2       CG1N1    0.360000       12.0110           0
     33695 WT14     71       MECN     N3       NG1T1   -0.460000       14.0070           0
     33696 WT14     72       MECN     C1       CG331   -0.170000       12.0110           0
     33697 WT14     72       MECN     H11      HGA3     0.090000        1.0080           0
     33698 WT14     72       MECN     H12      HGA3     0.090000        1.0080           0
     33699 WT14     72       MECN     H13      HGA3     0.090000        1.0080           0
     33700 WT14     72       MECN     C2       CG1N1    0.360000       12.0110           0
     33701 WT14     72       MECN     N3       NG1T1   -0.460000       14.0070           0
     33702 WT14     73       MECN     C1       CG331   -0.170000       12.0110           0
     33703 WT14     73       MECN     H11      HGA3     0.090000        1.0080           0
     33704 WT14     73       MECN     H12      HGA3     0.090000        1.0080           0
     33705 WT14     73       MECN     H13      HGA3     0.090000        1.0080           0
     33706 WT14     73       MECN     C2       CG1N1    0.360000       12.0110           0
     33707 WT14     73       MECN     N3       NG1T1   -0.460000       14.0070           0
     33708 WT14     74       MECN     C1       CG331   -0.170000       12.0110           0
     33709 WT14     74       MECN     H11      HGA3     0.090000        1.0080           0
     33710 WT14     74       MECN     H12      HGA3     0.090000        1.0080           0
     33711 WT14     74       MECN     H13      HGA3     0.090000        1.0080           0
     33712 WT14     74       MECN     C2       CG1N1    0.360000       12.0110           0
     33713 WT14     74       MECN     N3       NG1T1   -0.460000       14.0070           0
     33714 WT14     75       MECN     C1       CG331   -0.170000       12.0110           0
     33715 WT14     75       MECN     H11      HGA3     0.090000        1.0080           0
     33716 WT14     75       MECN     H12      HGA3     0.090000        1.0080           0
     33717 WT14     75       MECN     H13      HGA3     0.090000        1.0080           0
     33718 WT14     75       MECN     C2       CG1N1    0.360000       12.0110           0
     33719 WT14     75       MECN     N3       NG1T1   -0.460000       14.0070           0
     33720 WT14     76       MECN     C1       CG331   -0.170000       12.0110           0
     33721 WT14     76       MECN     H11      HGA3     0.090000        1.0080           0
     33722 WT14     76       MECN     H12      HGA3     0.090000        1.0080           0
     33723 WT14     76       MECN     H13      HGA3     0.090000        1.0080           0
     33724 WT14     76       MECN     C2       CG1N1    0.360000       12.0110           0
     33725 WT14     76       MECN     N3       NG1T1   -0.460000       14.0070           0
     33726 WT14     77       MECN     C1       CG331   -0.170000       12.0110           0
     33727 WT14     77       MECN     H11      HGA3     0.090000        1.0080           0
     33728 WT14     77       MECN     H12      HGA3     0.090000        1.0080           0
     33729 WT14     77       MECN     H13      HGA3     0.090000        1.0080           0
     33730 WT14     77       MECN     C2       CG1N1    0.360000       12.0110           0
     33731 WT14     77       MECN     N3       NG1T1   -0.460000       14.0070           0
     33732 WT14     78       MECN     C1       CG331   -0.170000       12.0110           0
     33733 WT14     78       MECN     H11      HGA3     0.090000        1.0080           0
     33734 WT14     78       MECN     H12      HGA3     0.090000        1.0080           0
     33735 WT14     78       MECN     H13      HGA3     0.090000        1.0080           0
     33736 WT14     78       MECN     C2       CG1N1    0.360000       12.0110           0
     33737 WT14     78       MECN     N3       NG1T1   -0.460000       14.0070           0
     33738 WT14     79       MECN     C1       CG331   -0.170000       12.0110           0
     33739 WT14     79       MECN     H11      HGA3     0.090000        1.0080           0
     33740 WT14     79       MECN     H12      HGA3     0.090000        1.0080           0
     33741 WT14     79       MECN     H13      HGA3     0.090000        1.0080           0
     33742 WT14     79       MECN     C2       CG1N1    0.360000       12.0110           0
     33743 WT14     79       MECN     N3       NG1T1   -0.460000       14.0070           0
     33744 WT14     81       MECN     C1       CG331   -0.170000       12.0110           0
     33745 WT14     81       MECN     H11      HGA3     0.090000        1.0080           0
     33746 WT14     81       MECN     H12      HGA3     0.090000        1.0080           0
     33747 WT14     81       MECN     H13      HGA3     0.090000        1.0080           0
     33748 WT14     81       MECN     C2       CG1N1    0.360000       12.0110           0
     33749 WT14     81       MECN     N3       NG1T1   -0.460000       14.0070           0
     33750 WT14     82       MECN     C1       CG331   -0.170000       12.0110           0
     33751 WT14     82       MECN     H11      HGA3     0.090000        1.0080           0
     33752 WT14     82       MECN     H12      HGA3     0.090000        1.0080           0
     33753 WT14     82       MECN     H13      HGA3     0.090000        1.0080           0
     33754 WT14     82       MECN     C2       CG1N1    0.360000       12.0110           0
     33755 WT14     82       MECN     N3       NG1T1   -0.460000       14.0070           0
     33756 WT14     83       MECN     C1       CG331   -0.170000       12.0110           0
     33757 WT14     83       MECN     H11      HGA3     0.090000        1.0080           0
     33758 WT14     83       MECN     H12      HGA3     0.090000        1.0080           0
     33759 WT14     83       MECN     H13      HGA3     0.090000        1.0080           0
     33760 WT14     83       MECN     C2       CG1N1    0.360000       12.0110           0
     33761 WT14     83       MECN     N3       NG1T1   -0.460000       14.0070           0
     33762 WT14     84       MECN     C1       CG331   -0.170000       12.0110           0
     33763 WT14     84       MECN     H11      HGA3     0.090000        1.0080           0
     33764 WT14     84       MECN     H12      HGA3     0.090000        1.0080           0
     33765 WT14     84       MECN     H13      HGA3     0.090000        1.0080           0
     33766 WT14     84       MECN     C2       CG1N1    0.360000       12.0110           0
     33767 WT14     84       MECN     N3       NG1T1   -0.460000       14.0070           0
     33768 WT14     85       MECN     C1       CG331   -0.170000       12.0110           0
     33769 WT14     85       MECN     H11      HGA3     0.090000        1.0080           0
     33770 WT14     85       MECN     H12      HGA3     0.090000        1.0080           0
     33771 WT14     85       MECN     H13      HGA3     0.090000        1.0080           0
     33772 WT14     85       MECN     C2       CG1N1    0.360000       12.0110           0
     33773 WT14     85       MECN     N3       NG1T1   -0.460000       14.0070           0
     33774 WT14     86       MECN     C1       CG331   -0.170000       12.0110           0
     33775 WT14     86       MECN     H11      HGA3     0.090000        1.0080           0
     33776 WT14     86       MECN     H12      HGA3     0.090000        1.0080           0
     33777 WT14     86       MECN     H13      HGA3     0.090000        1.0080           0
     33778 WT14     86       MECN     C2       CG1N1    0.360000       12.0110           0
     33779 WT14     86       MECN     N3       NG1T1   -0.460000       14.0070           0
     33780 WT14     87       MECN     C1       CG331   -0.170000       12.0110           0
     33781 WT14     87       MECN     H11      HGA3     0.090000        1.0080           0
     33782 WT14     87       MECN     H12      HGA3     0.090000        1.0080           0
     33783 WT14     87       MECN     H13      HGA3     0.090000        1.0080           0
     33784 WT14     87       MECN     C2       CG1N1    0.360000       12.0110           0
     33785 WT14     87       MECN     N3       NG1T1   -0.460000       14.0070           0
     33786 WT14     88       MECN     C1       CG331   -0.170000       12.0110           0
     33787 WT14     88       MECN     H11      HGA3     0.090000        1.0080           0
     33788 WT14     88       MECN     H12      HGA3     0.090000        1.0080           0
     33789 WT14     88       MECN     H13      HGA3     0.090000        1.0080           0
     33790 WT14     88       MECN     C2       CG1N1    0.360000       12.0110           0
     33791 WT14     88       MECN     N3       NG1T1   -0.460000       14.0070           0
     33792 WT14     89       MECN     C1       CG331   -0.170000       12.0110           0
     33793 WT14     89       MECN     H11      HGA3     0.090000        1.0080           0
     33794 WT14     89       MECN     H12      HGA3     0.090000        1.0080           0
     33795 WT14     89       MECN     H13      HGA3     0.090000        1.0080           0
     33796 WT14     89       MECN     C2       CG1N1    0.360000       12.0110           0
     33797 WT14     89       MECN     N3       NG1T1   -0.460000       14.0070           0
     33798 WT14     90       MECN     C1       CG331   -0.170000       12.0110           0
     33799 WT14     90       MECN     H11      HGA3     0.090000        1.0080           0
     33800 WT14     90       MECN     H12      HGA3     0.090000        1.0080           0
     33801 WT14     90       MECN     H13      HGA3     0.090000        1.0080           0
     33802 WT14     90       MECN     C2       CG1N1    0.360000       12.0110           0
     33803 WT14     90       MECN     N3       NG1T1   -0.460000       14.0070           0
     33804 WT14     91       MECN     C1       CG331   -0.170000       12.0110           0
     33805 WT14     91       MECN     H11      HGA3     0.090000        1.0080           0
     33806 WT14     91       MECN     H12      HGA3     0.090000        1.0080           0
     33807 WT14     91       MECN     H13      HGA3     0.090000        1.0080           0
     33808 WT14     91       MECN     C2       CG1N1    0.360000       12.0110           0
     33809 WT14     91       MECN     N3       NG1T1   -0.460000       14.0070           0
     33810 WT14     92       MECN     C1       CG331   -0.170000       12.0110           0
     33811 WT14     92       MECN     H11      HGA3     0.090000        1.0080           0
     33812 WT14     92       MECN     H12      HGA3     0.090000        1.0080           0
     33813 WT14     92       MECN     H13      HGA3     0.090000        1.0080           0
     33814 WT14     92       MECN     C2       CG1N1    0.360000       12.0110           0
     33815 WT14     92       MECN     N3       NG1T1   -0.460000       14.0070           0
     33816 WT14     93       MECN     C1       CG331   -0.170000       12.0110           0
     33817 WT14     93       MECN     H11      HGA3     0.090000        1.0080           0
     33818 WT14     93       MECN     H12      HGA3     0.090000        1.0080           0
     33819 WT14     93       MECN     H13      HGA3     0.090000        1.0080           0
     33820 WT14     93       MECN     C2       CG1N1    0.360000       12.0110           0
     33821 WT14     93       MECN     N3       NG1T1   -0.460000       14.0070           0
     33822 WT14     94       MECN     C1       CG331   -0.170000       12.0110           0
     33823 WT14     94       MECN     H11      HGA3     0.090000        1.0080           0
     33824 WT14     94       MECN     H12      HGA3     0.090000        1.0080           0
     33825 WT14     94       MECN     H13      HGA3     0.090000        1.0080           0
     33826 WT14     94       MECN     C2       CG1N1    0.360000       12.0110           0
     33827 WT14     94       MECN     N3       NG1T1   -0.460000       14.0070           0
     33828 WT14     95       MECN     C1       CG331   -0.170000       12.0110           0
     33829 WT14     95       MECN     H11      HGA3     0.090000        1.0080           0
     33830 WT14     95       MECN     H12      HGA3     0.090000        1.0080           0
     33831 WT14     95       MECN     H13      HGA3     0.090000        1.0080           0
     33832 WT14     95       MECN     C2       CG1N1    0.360000       12.0110           0
     33833 WT14     95       MECN     N3       NG1T1   -0.460000       14.0070           0
     33834 WT14     97       MECN     C1       CG331   -0.170000       12.0110           0
     33835 WT14     97       MECN     H11      HGA3     0.090000        1.0080           0
     33836 WT14     97       MECN     H12      HGA3     0.090000        1.0080           0
     33837 WT14     97       MECN     H13      HGA3     0.090000        1.0080           0
     33838 WT14     97       MECN     C2       CG1N1    0.360000       12.0110           0
     33839 WT14     97       MECN     N3       NG1T1   -0.460000       14.0070           0
     33840 WT14     98       MECN     C1       CG331   -0.170000       12.0110           0
     33841 WT14     98       MECN     H11      HGA3     0.090000        1.0080           0
     33842 WT14     98       MECN     H12      HGA3     0.090000        1.0080           0
     33843 WT14     98       MECN     H13      HGA3     0.090000        1.0080           0
     33844 WT14     98       MECN     C2       CG1N1    0.360000       12.0110           0
     33845 WT14     98       MECN     N3       NG1T1   -0.460000       14.0070           0
     33846 WT14     99       MECN     C1       CG331   -0.170000       12.0110           0
     33847 WT14     99       MECN     H11      HGA3     0.090000        1.0080           0
     33848 WT14     99       MECN     H12      HGA3     0.090000        1.0080           0
     33849 WT14     99       MECN     H13      HGA3     0.090000        1.0080           0
     33850 WT14     99       MECN     C2       CG1N1    0.360000       12.0110           0
     33851 WT14     99       MECN     N3       NG1T1   -0.460000       14.0070           0
     33852 WT14     101      MECN     C1       CG331   -0.170000       12.0110           0
     33853 WT14     101      MECN     H11      HGA3     0.090000        1.0080           0
     33854 WT14     101      MECN     H12      HGA3     0.090000        1.0080           0
     33855 WT14     101      MECN     H13      HGA3     0.090000        1.0080           0
     33856 WT14     101      MECN     C2       CG1N1    0.360000       12.0110           0
     33857 WT14     101      MECN     N3       NG1T1   -0.460000       14.0070           0
     33858 WT14     103      MECN     C1       CG331   -0.170000       12.0110           0
     33859 WT14     103      MECN     H11      HGA3     0.090000        1.0080           0
     33860 WT14     103      MECN     H12      HGA3     0.090000        1.0080           0
     33861 WT14     103      MECN     H13      HGA3     0.090000        1.0080           0
     33862 WT14     103      MECN     C2       CG1N1    0.360000       12.0110           0
     33863 WT14     103      MECN     N3       NG1T1   -0.460000       14.0070           0
     33864 WT14     104      MECN     C1       CG331   -0.170000       12.0110           0
     33865 WT14     104      MECN     H11      HGA3     0.090000        1.0080           0
     33866 WT14     104      MECN     H12      HGA3     0.090000        1.0080           0
     33867 WT14     104      MECN     H13      HGA3     0.090000        1.0080           0
     33868 WT14     104      MECN     C2       CG1N1    0.360000       12.0110           0
     33869 WT14     104      MECN     N3       NG1T1   -0.460000       14.0070           0
     33870 WT14     105      MECN     C1       CG331   -0.170000       12.0110           0
     33871 WT14     105      MECN     H11      HGA3     0.090000        1.0080           0
     33872 WT14     105      MECN     H12      HGA3     0.090000        1.0080           0
     33873 WT14     105      MECN     H13      HGA3     0.090000        1.0080           0
     33874 WT14     105      MECN     C2       CG1N1    0.360000       12.0110           0
     33875 WT14     105      MECN     N3       NG1T1   -0.460000       14.0070           0
     33876 WT14     106      MECN     C1       CG331   -0.170000       12.0110           0
     33877 WT14     106      MECN     H11      HGA3     0.090000        1.0080           0
     33878 WT14     106      MECN     H12      HGA3     0.090000        1.0080           0
     33879 WT14     106      MECN     H13      HGA3     0.090000        1.0080           0
     33880 WT14     106      MECN     C2       CG1N1    0.360000       12.0110           0
     33881 WT14     106      MECN     N3       NG1T1   -0.460000       14.0070           0
     33882 WT14     107      MECN     C1       CG331   -0.170000       12.0110           0
     33883 WT14     107      MECN     H11      HGA3     0.090000        1.0080           0
     33884 WT14     107      MECN     H12      HGA3     0.090000        1.0080           0
     33885 WT14     107      MECN     H13      HGA3     0.090000        1.0080           0
     33886 WT14     107      MECN     C2       CG1N1    0.360000       12.0110           0
     33887 WT14     107      MECN     N3       NG1T1   -0.460000       14.0070           0
     33888 WT14     109      MECN     C1       CG331   -0.170000       12.0110           0
     33889 WT14     109      MECN     H11      HGA3     0.090000        1.0080           0
     33890 WT14     109      MECN     H12      HGA3     0.090000        1.0080           0
     33891 WT14     109      MECN     H13      HGA3     0.090000        1.0080           0
     33892 WT14     109      MECN     C2       CG1N1    0.360000       12.0110           0
     33893 WT14     109      MECN     N3       NG1T1   -0.460000       14.0070           0
     33894 WT14     110      MECN     C1       CG331   -0.170000       12.0110           0
     33895 WT14     110      MECN     H11      HGA3     0.090000        1.0080           0
     33896 WT14     110      MECN     H12      HGA3     0.090000        1.0080           0
     33897 WT14     110      MECN     H13      HGA3     0.090000        1.0080           0
     33898 WT14     110      MECN     C2       CG1N1    0.360000       12.0110           0
     33899 WT14     110      MECN     N3       NG1T1   -0.460000       14.0070           0
     33900 WT14     111      MECN     C1       CG331   -0.170000       12.0110           0
     33901 WT14     111      MECN     H11      HGA3     0.090000        1.0080           0
     33902 WT14     111      MECN     H12      HGA3     0.090000        1.0080           0
     33903 WT14     111      MECN     H13      HGA3     0.090000        1.0080           0
     33904 WT14     111      MECN     C2       CG1N1    0.360000       12.0110           0
     33905 WT14     111      MECN     N3       NG1T1   -0.460000       14.0070           0
     33906 WT14     112      MECN     C1       CG331   -0.170000       12.0110           0
     33907 WT14     112      MECN     H11      HGA3     0.090000        1.0080           0
     33908 WT14     112      MECN     H12      HGA3     0.090000        1.0080           0
     33909 WT14     112      MECN     H13      HGA3     0.090000        1.0080           0
     33910 WT14     112      MECN     C2       CG1N1    0.360000       12.0110           0
     33911 WT14     112      MECN     N3       NG1T1   -0.460000       14.0070           0
     33912 WT14     113      MECN     C1       CG331   -0.170000       12.0110           0
     33913 WT14     113      MECN     H11      HGA3     0.090000        1.0080           0
     33914 WT14     113      MECN     H12      HGA3     0.090000        1.0080           0
     33915 WT14     113      MECN     H13      HGA3     0.090000        1.0080           0
     33916 WT14     113      MECN     C2       CG1N1    0.360000       12.0110           0
     33917 WT14     113      MECN     N3       NG1T1   -0.460000       14.0070           0
     33918 WT14     114      MECN     C1       CG331   -0.170000       12.0110           0
     33919 WT14     114      MECN     H11      HGA3     0.090000        1.0080           0
     33920 WT14     114      MECN     H12      HGA3     0.090000        1.0080           0
     33921 WT14     114      MECN     H13      HGA3     0.090000        1.0080           0
     33922 WT14     114      MECN     C2       CG1N1    0.360000       12.0110           0
     33923 WT14     114      MECN     N3       NG1T1   -0.460000       14.0070           0
     33924 WT14     115      MECN     C1       CG331   -0.170000       12.0110           0
     33925 WT14     115      MECN     H11      HGA3     0.090000        1.0080           0
     33926 WT14     115      MECN     H12      HGA3     0.090000        1.0080           0
     33927 WT14     115      MECN     H13      HGA3     0.090000        1.0080           0
     33928 WT14     115      MECN     C2       CG1N1    0.360000       12.0110           0
     33929 WT14     115      MECN     N3       NG1T1   -0.460000       14.0070           0
     33930 WT14     116      MECN     C1       CG331   -0.170000       12.0110           0
     33931 WT14     116      MECN     H11      HGA3     0.090000        1.0080           0
     33932 WT14     116      MECN     H12      HGA3     0.090000        1.0080           0
     33933 WT14     116      MECN     H13      HGA3     0.090000        1.0080           0
     33934 WT14     116      MECN     C2       CG1N1    0.360000       12.0110           0
     33935 WT14     116      MECN     N3       NG1T1   -0.460000       14.0070           0
     33936 WT14     117      MECN     C1       CG331   -0.170000       12.0110           0
     33937 WT14     117      MECN     H11      HGA3     0.090000        1.0080           0
     33938 WT14     117      MECN     H12      HGA3     0.090000        1.0080           0
     33939 WT14     117      MECN     H13      HGA3     0.090000        1.0080           0
     33940 WT14     117      MECN     C2       CG1N1    0.360000       12.0110           0
     33941 WT14     117      MECN     N3       NG1T1   -0.460000       14.0070           0
     33942 WT14     118      MECN     C1       CG331   -0.170000       12.0110           0
     33943 WT14     118      MECN     H11      HGA3     0.090000        1.0080           0
     33944 WT14     118      MECN     H12      HGA3     0.090000        1.0080           0
     33945 WT14     118      MECN     H13      HGA3     0.090000        1.0080           0
     33946 WT14     118      MECN     C2       CG1N1    0.360000       12.0110           0
     33947 WT14     118      MECN     N3       NG1T1   -0.460000       14.0070           0
     33948 WT14     119      MECN     C1       CG331   -0.170000       12.0110           0
     33949 WT14     119      MECN     H11      HGA3     0.090000        1.0080           0
     33950 WT14     119      MECN     H12      HGA3     0.090000        1.0080           0
     33951 WT14     119      MECN     H13      HGA3     0.090000        1.0080           0
     33952 WT14     119      MECN     C2       CG1N1    0.360000       12.0110           0
     33953 WT14     119      MECN     N3       NG1T1   -0.460000       14.0070           0
     33954 WT14     120      MECN     C1       CG331   -0.170000       12.0110           0
     33955 WT14     120      MECN     H11      HGA3     0.090000        1.0080           0
     33956 WT14     120      MECN     H12      HGA3     0.090000        1.0080           0
     33957 WT14     120      MECN     H13      HGA3     0.090000        1.0080           0
     33958 WT14     120      MECN     C2       CG1N1    0.360000       12.0110           0
     33959 WT14     120      MECN     N3       NG1T1   -0.460000       14.0070           0
     33960 WT14     121      MECN     C1       CG331   -0.170000       12.0110           0
     33961 WT14     121      MECN     H11      HGA3     0.090000        1.0080           0
     33962 WT14     121      MECN     H12      HGA3     0.090000        1.0080           0
     33963 WT14     121      MECN     H13      HGA3     0.090000        1.0080           0
     33964 WT14     121      MECN     C2       CG1N1    0.360000       12.0110           0
     33965 WT14     121      MECN     N3       NG1T1   -0.460000       14.0070           0
     33966 WT14     122      MECN     C1       CG331   -0.170000       12.0110           0
     33967 WT14     122      MECN     H11      HGA3     0.090000        1.0080           0
     33968 WT14     122      MECN     H12      HGA3     0.090000        1.0080           0
     33969 WT14     122      MECN     H13      HGA3     0.090000        1.0080           0
     33970 WT14     122      MECN     C2       CG1N1    0.360000       12.0110           0
     33971 WT14     122      MECN     N3       NG1T1   -0.460000       14.0070           0
     33972 WT14     123      MECN     C1       CG331   -0.170000       12.0110           0
     33973 WT14     123      MECN     H11      HGA3     0.090000        1.0080           0
     33974 WT14     123      MECN     H12      HGA3     0.090000        1.0080           0
     33975 WT14     123      MECN     H13      HGA3     0.090000        1.0080           0
     33976 WT14     123      MECN     C2       CG1N1    0.360000       12.0110           0
     33977 WT14     123      MECN     N3       NG1T1   -0.460000       14.0070           0
     33978 WT14     124      MECN     C1       CG331   -0.170000       12.0110           0
     33979 WT14     124      MECN     H11      HGA3     0.090000        1.0080           0
     33980 WT14     124      MECN     H12      HGA3     0.090000        1.0080           0
     33981 WT14     124      MECN     H13      HGA3     0.090000        1.0080           0
     33982 WT14     124      MECN     C2       CG1N1    0.360000       12.0110           0
     33983 WT14     124      MECN     N3       NG1T1   -0.460000       14.0070           0
     33984 WT14     125      MECN     C1       CG331   -0.170000       12.0110           0
     33985 WT14     125      MECN     H11      HGA3     0.090000        1.0080           0
     33986 WT14     125      MECN     H12      HGA3     0.090000        1.0080           0
     33987 WT14     125      MECN     H13      HGA3     0.090000        1.0080           0
     33988 WT14     125      MECN     C2       CG1N1    0.360000       12.0110           0
     33989 WT14     125      MECN     N3       NG1T1   -0.460000       14.0070           0
     33990 WT14     126      MECN     C1       CG331   -0.170000       12.0110           0
     33991 WT14     126      MECN     H11      HGA3     0.090000        1.0080           0
     33992 WT14     126      MECN     H12      HGA3     0.090000        1.0080           0
     33993 WT14     126      MECN     H13      HGA3     0.090000        1.0080           0
     33994 WT14     126      MECN     C2       CG1N1    0.360000       12.0110           0
     33995 WT14     126      MECN     N3       NG1T1   -0.460000       14.0070           0
     33996 WT14     127      MECN     C1       CG331   -0.170000       12.0110           0
     33997 WT14     127      MECN     H11      HGA3     0.090000        1.0080           0
     33998 WT14     127      MECN     H12      HGA3     0.090000        1.0080           0
     33999 WT14     127      MECN     H13      HGA3     0.090000        1.0080           0
     34000 WT14     127      MECN     C2       CG1N1    0.360000       12.0110           0
     34001 WT14     127      MECN     N3       NG1T1   -0.460000       14.0070           0
     34002 WT14     128      MECN     C1       CG331   -0.170000       12.0110           0
     34003 WT14     128      MECN     H11      HGA3     0.090000        1.0080           0
     34004 WT14     128      MECN     H12      HGA3     0.090000        1.0080           0
     34005 WT14     128      MECN     H13      HGA3     0.090000        1.0080           0
     34006 WT14     128      MECN     C2       CG1N1    0.360000       12.0110           0
     34007 WT14     128      MECN     N3       NG1T1   -0.460000       14.0070           0
     34008 WT14     129      MECN     C1       CG331   -0.170000       12.0110           0
     34009 WT14     129      MECN     H11      HGA3     0.090000        1.0080           0
     34010 WT14     129      MECN     H12      HGA3     0.090000        1.0080           0
     34011 WT14     129      MECN     H13      HGA3     0.090000        1.0080           0
     34012 WT14     129      MECN     C2       CG1N1    0.360000       12.0110           0
     34013 WT14     129      MECN     N3       NG1T1   -0.460000       14.0070           0
     34014 WT14     130      MECN     C1       CG331   -0.170000       12.0110           0
     34015 WT14     130      MECN     H11      HGA3     0.090000        1.0080           0
     34016 WT14     130      MECN     H12      HGA3     0.090000        1.0080           0
     34017 WT14     130      MECN     H13      HGA3     0.090000        1.0080           0
     34018 WT14     130      MECN     C2       CG1N1    0.360000       12.0110           0
     34019 WT14     130      MECN     N3       NG1T1   -0.460000       14.0070           0
     34020 WT14     131      MECN     C1       CG331   -0.170000       12.0110           0
     34021 WT14     131      MECN     H11      HGA3     0.090000        1.0080           0
     34022 WT14     131      MECN     H12      HGA3     0.090000        1.0080           0
     34023 WT14     131      MECN     H13      HGA3     0.090000        1.0080           0
     34024 WT14     131      MECN     C2       CG1N1    0.360000       12.0110           0
     34025 WT14     131      MECN     N3       NG1T1   -0.460000       14.0070           0
     34026 WT14     132      MECN     C1       CG331   -0.170000       12.0110           0
     34027 WT14     132      MECN     H11      HGA3     0.090000        1.0080           0
     34028 WT14     132      MECN     H12      HGA3     0.090000        1.0080           0
     34029 WT14     132      MECN     H13      HGA3     0.090000        1.0080           0
     34030 WT14     132      MECN     C2       CG1N1    0.360000       12.0110           0
     34031 WT14     132      MECN     N3       NG1T1   -0.460000       14.0070           0
     34032 WT14     134      MECN     C1       CG331   -0.170000       12.0110           0
     34033 WT14     134      MECN     H11      HGA3     0.090000        1.0080           0
     34034 WT14     134      MECN     H12      HGA3     0.090000        1.0080           0
     34035 WT14     134      MECN     H13      HGA3     0.090000        1.0080           0
     34036 WT14     134      MECN     C2       CG1N1    0.360000       12.0110           0
     34037 WT14     134      MECN     N3       NG1T1   -0.460000       14.0070           0
     34038 WT14     135      MECN     C1       CG331   -0.170000       12.0110           0
     34039 WT14     135      MECN     H11      HGA3     0.090000        1.0080           0
     34040 WT14     135      MECN     H12      HGA3     0.090000        1.0080           0
     34041 WT14     135      MECN     H13      HGA3     0.090000        1.0080           0
     34042 WT14     135      MECN     C2       CG1N1    0.360000       12.0110           0
     34043 WT14     135      MECN     N3       NG1T1   -0.460000       14.0070           0
     34044 WT14     136      MECN     C1       CG331   -0.170000       12.0110           0
     34045 WT14     136      MECN     H11      HGA3     0.090000        1.0080           0
     34046 WT14     136      MECN     H12      HGA3     0.090000        1.0080           0
     34047 WT14     136      MECN     H13      HGA3     0.090000        1.0080           0
     34048 WT14     136      MECN     C2       CG1N1    0.360000       12.0110           0
     34049 WT14     136      MECN     N3       NG1T1   -0.460000       14.0070           0
     34050 WT14     137      MECN     C1       CG331   -0.170000       12.0110           0
     34051 WT14     137      MECN     H11      HGA3     0.090000        1.0080           0
     34052 WT14     137      MECN     H12      HGA3     0.090000        1.0080           0
     34053 WT14     137      MECN     H13      HGA3     0.090000        1.0080           0
     34054 WT14     137      MECN     C2       CG1N1    0.360000       12.0110           0
     34055 WT14     137      MECN     N3       NG1T1   -0.460000       14.0070           0
     34056 WT14     138      MECN     C1       CG331   -0.170000       12.0110           0
     34057 WT14     138      MECN     H11      HGA3     0.090000        1.0080           0
     34058 WT14     138      MECN     H12      HGA3     0.090000        1.0080           0
     34059 WT14     138      MECN     H13      HGA3     0.090000        1.0080           0
     34060 WT14     138      MECN     C2       CG1N1    0.360000       12.0110           0
     34061 WT14     138      MECN     N3       NG1T1   -0.460000       14.0070           0
     34062 WT14     139      MECN     C1       CG331   -0.170000       12.0110           0
     34063 WT14     139      MECN     H11      HGA3     0.090000        1.0080           0
     34064 WT14     139      MECN     H12      HGA3     0.090000        1.0080           0
     34065 WT14     139      MECN     H13      HGA3     0.090000        1.0080           0
     34066 WT14     139      MECN     C2       CG1N1    0.360000       12.0110           0
     34067 WT14     139      MECN     N3       NG1T1   -0.460000       14.0070           0
     34068 WT14     140      MECN     C1       CG331   -0.170000       12.0110           0
     34069 WT14     140      MECN     H11      HGA3     0.090000        1.0080           0
     34070 WT14     140      MECN     H12      HGA3     0.090000        1.0080           0
     34071 WT14     140      MECN     H13      HGA3     0.090000        1.0080           0
     34072 WT14     140      MECN     C2       CG1N1    0.360000       12.0110           0
     34073 WT14     140      MECN     N3       NG1T1   -0.460000       14.0070           0
     34074 WT14     143      MECN     C1       CG331   -0.170000       12.0110           0
     34075 WT14     143      MECN     H11      HGA3     0.090000        1.0080           0
     34076 WT14     143      MECN     H12      HGA3     0.090000        1.0080           0
     34077 WT14     143      MECN     H13      HGA3     0.090000        1.0080           0
     34078 WT14     143      MECN     C2       CG1N1    0.360000       12.0110           0
     34079 WT14     143      MECN     N3       NG1T1   -0.460000       14.0070           0
     34080 WT14     144      MECN     C1       CG331   -0.170000       12.0110           0
     34081 WT14     144      MECN     H11      HGA3     0.090000        1.0080           0
     34082 WT14     144      MECN     H12      HGA3     0.090000        1.0080           0
     34083 WT14     144      MECN     H13      HGA3     0.090000        1.0080           0
     34084 WT14     144      MECN     C2       CG1N1    0.360000       12.0110           0
     34085 WT14     144      MECN     N3       NG1T1   -0.460000       14.0070           0
     34086 WT14     145      MECN     C1       CG331   -0.170000       12.0110           0
     34087 WT14     145      MECN     H11      HGA3     0.090000        1.0080           0
     34088 WT14     145      MECN     H12      HGA3     0.090000        1.0080           0
     34089 WT14     145      MECN     H13      HGA3     0.090000        1.0080           0
     34090 WT14     145      MECN     C2       CG1N1    0.360000       12.0110           0
     34091 WT14     145      MECN     N3       NG1T1   -0.460000       14.0070           0
     34092 WT14     146      MECN     C1       CG331   -0.170000       12.0110           0
     34093 WT14     146      MECN     H11      HGA3     0.090000        1.0080           0
     34094 WT14     146      MECN     H12      HGA3     0.090000        1.0080           0
     34095 WT14     146      MECN     H13      HGA3     0.090000        1.0080           0
     34096 WT14     146      MECN     C2       CG1N1    0.360000       12.0110           0
     34097 WT14     146      MECN     N3       NG1T1   -0.460000       14.0070           0
     34098 WT14     147      MECN     C1       CG331   -0.170000       12.0110           0
     34099 WT14     147      MECN     H11      HGA3     0.090000        1.0080           0
     34100 WT14     147      MECN     H12      HGA3     0.090000        1.0080           0
     34101 WT14     147      MECN     H13      HGA3     0.090000        1.0080           0
     34102 WT14     147      MECN     C2       CG1N1    0.360000       12.0110           0
     34103 WT14     147      MECN     N3       NG1T1   -0.460000       14.0070           0
     34104 WT14     148      MECN     C1       CG331   -0.170000       12.0110           0
     34105 WT14     148      MECN     H11      HGA3     0.090000        1.0080           0
     34106 WT14     148      MECN     H12      HGA3     0.090000        1.0080           0
     34107 WT14     148      MECN     H13      HGA3     0.090000        1.0080           0
     34108 WT14     148      MECN     C2       CG1N1    0.360000       12.0110           0
     34109 WT14     148      MECN     N3       NG1T1   -0.460000       14.0070           0
     34110 WT14     149      MECN     C1       CG331   -0.170000       12.0110           0
     34111 WT14     149      MECN     H11      HGA3     0.090000        1.0080           0
     34112 WT14     149      MECN     H12      HGA3     0.090000        1.0080           0
     34113 WT14     149      MECN     H13      HGA3     0.090000        1.0080           0
     34114 WT14     149      MECN     C2       CG1N1    0.360000       12.0110           0
     34115 WT14     149      MECN     N3       NG1T1   -0.460000       14.0070           0
     34116 WT14     150      MECN     C1       CG331   -0.170000       12.0110           0
     34117 WT14     150      MECN     H11      HGA3     0.090000        1.0080           0
     34118 WT14     150      MECN     H12      HGA3     0.090000        1.0080           0
     34119 WT14     150      MECN     H13      HGA3     0.090000        1.0080           0
     34120 WT14     150      MECN     C2       CG1N1    0.360000       12.0110           0
     34121 WT14     150      MECN     N3       NG1T1   -0.460000       14.0070           0
     34122 WT14     152      MECN     C1       CG331   -0.170000       12.0110           0
     34123 WT14     152      MECN     H11      HGA3     0.090000        1.0080           0
     34124 WT14     152      MECN     H12      HGA3     0.090000        1.0080           0
     34125 WT14     152      MECN     H13      HGA3     0.090000        1.0080           0
     34126 WT14     152      MECN     C2       CG1N1    0.360000       12.0110           0
     34127 WT14     152      MECN     N3       NG1T1   -0.460000       14.0070           0
     34128 WT14     153      MECN     C1       CG331   -0.170000       12.0110           0
     34129 WT14     153      MECN     H11      HGA3     0.090000        1.0080           0
     34130 WT14     153      MECN     H12      HGA3     0.090000        1.0080           0
     34131 WT14     153      MECN     H13      HGA3     0.090000        1.0080           0
     34132 WT14     153      MECN     C2       CG1N1    0.360000       12.0110           0
     34133 WT14     153      MECN     N3       NG1T1   -0.460000       14.0070           0
     34134 WT14     155      MECN     C1       CG331   -0.170000       12.0110           0
     34135 WT14     155      MECN     H11      HGA3     0.090000        1.0080           0
     34136 WT14     155      MECN     H12      HGA3     0.090000        1.0080           0
     34137 WT14     155      MECN     H13      HGA3     0.090000        1.0080           0
     34138 WT14     155      MECN     C2       CG1N1    0.360000       12.0110           0
     34139 WT14     155      MECN     N3       NG1T1   -0.460000       14.0070           0
     34140 WT14     156      MECN     C1       CG331   -0.170000       12.0110           0
     34141 WT14     156      MECN     H11      HGA3     0.090000        1.0080           0
     34142 WT14     156      MECN     H12      HGA3     0.090000        1.0080           0
     34143 WT14     156      MECN     H13      HGA3     0.090000        1.0080           0
     34144 WT14     156      MECN     C2       CG1N1    0.360000       12.0110           0
     34145 WT14     156      MECN     N3       NG1T1   -0.460000       14.0070           0
     34146 WT14     157      MECN     C1       CG331   -0.170000       12.0110           0
     34147 WT14     157      MECN     H11      HGA3     0.090000        1.0080           0
     34148 WT14     157      MECN     H12      HGA3     0.090000        1.0080           0
     34149 WT14     157      MECN     H13      HGA3     0.090000        1.0080           0
     34150 WT14     157      MECN     C2       CG1N1    0.360000       12.0110           0
     34151 WT14     157      MECN     N3       NG1T1   -0.460000       14.0070           0
     34152 WT14     158      MECN     C1       CG331   -0.170000       12.0110           0
     34153 WT14     158      MECN     H11      HGA3     0.090000        1.0080           0
     34154 WT14     158      MECN     H12      HGA3     0.090000        1.0080           0
     34155 WT14     158      MECN     H13      HGA3     0.090000        1.0080           0
     34156 WT14     158      MECN     C2       CG1N1    0.360000       12.0110           0
     34157 WT14     158      MECN     N3       NG1T1   -0.460000       14.0070           0
     34158 WT14     159      MECN     C1       CG331   -0.170000       12.0110           0
     34159 WT14     159      MECN     H11      HGA3     0.090000        1.0080           0
     34160 WT14     159      MECN     H12      HGA3     0.090000        1.0080           0
     34161 WT14     159      MECN     H13      HGA3     0.090000        1.0080           0
     34162 WT14     159      MECN     C2       CG1N1    0.360000       12.0110           0
     34163 WT14     159      MECN     N3       NG1T1   -0.460000       14.0070           0
     34164 WT14     160      MECN     C1       CG331   -0.170000       12.0110           0
     34165 WT14     160      MECN     H11      HGA3     0.090000        1.0080           0
     34166 WT14     160      MECN     H12      HGA3     0.090000        1.0080           0
     34167 WT14     160      MECN     H13      HGA3     0.090000        1.0080           0
     34168 WT14     160      MECN     C2       CG1N1    0.360000       12.0110           0
     34169 WT14     160      MECN     N3       NG1T1   -0.460000       14.0070           0
     34170 WT14     162      MECN     C1       CG331   -0.170000       12.0110           0
     34171 WT14     162      MECN     H11      HGA3     0.090000        1.0080           0
     34172 WT14     162      MECN     H12      HGA3     0.090000        1.0080           0
     34173 WT14     162      MECN     H13      HGA3     0.090000        1.0080           0
     34174 WT14     162      MECN     C2       CG1N1    0.360000       12.0110           0
     34175 WT14     162      MECN     N3       NG1T1   -0.460000       14.0070           0
     34176 WT14     163      MECN     C1       CG331   -0.170000       12.0110           0
     34177 WT14     163      MECN     H11      HGA3     0.090000        1.0080           0
     34178 WT14     163      MECN     H12      HGA3     0.090000        1.0080           0
     34179 WT14     163      MECN     H13      HGA3     0.090000        1.0080           0
     34180 WT14     163      MECN     C2       CG1N1    0.360000       12.0110           0
     34181 WT14     163      MECN     N3       NG1T1   -0.460000       14.0070           0
     34182 WT14     164      MECN     C1       CG331   -0.170000       12.0110           0
     34183 WT14     164      MECN     H11      HGA3     0.090000        1.0080           0
     34184 WT14     164      MECN     H12      HGA3     0.090000        1.0080           0
     34185 WT14     164      MECN     H13      HGA3     0.090000        1.0080           0
     34186 WT14     164      MECN     C2       CG1N1    0.360000       12.0110           0
     34187 WT14     164      MECN     N3       NG1T1   -0.460000       14.0070           0
     34188 WT14     165      MECN     C1       CG331   -0.170000       12.0110           0
     34189 WT14     165      MECN     H11      HGA3     0.090000        1.0080           0
     34190 WT14     165      MECN     H12      HGA3     0.090000        1.0080           0
     34191 WT14     165      MECN     H13      HGA3     0.090000        1.0080           0
     34192 WT14     165      MECN     C2       CG1N1    0.360000       12.0110           0
     34193 WT14     165      MECN     N3       NG1T1   -0.460000       14.0070           0
     34194 WT14     166      MECN     C1       CG331   -0.170000       12.0110           0
     34195 WT14     166      MECN     H11      HGA3     0.090000        1.0080           0
     34196 WT14     166      MECN     H12      HGA3     0.090000        1.0080           0
     34197 WT14     166      MECN     H13      HGA3     0.090000        1.0080           0
     34198 WT14     166      MECN     C2       CG1N1    0.360000       12.0110           0
     34199 WT14     166      MECN     N3       NG1T1   -0.460000       14.0070           0
     34200 WT14     167      MECN     C1       CG331   -0.170000       12.0110           0
     34201 WT14     167      MECN     H11      HGA3     0.090000        1.0080           0
     34202 WT14     167      MECN     H12      HGA3     0.090000        1.0080           0
     34203 WT14     167      MECN     H13      HGA3     0.090000        1.0080           0
     34204 WT14     167      MECN     C2       CG1N1    0.360000       12.0110           0
     34205 WT14     167      MECN     N3       NG1T1   -0.460000       14.0070           0
     34206 WT14     168      MECN     C1       CG331   -0.170000       12.0110           0
     34207 WT14     168      MECN     H11      HGA3     0.090000        1.0080           0
     34208 WT14     168      MECN     H12      HGA3     0.090000        1.0080           0
     34209 WT14     168      MECN     H13      HGA3     0.090000        1.0080           0
     34210 WT14     168      MECN     C2       CG1N1    0.360000       12.0110           0
     34211 WT14     168      MECN     N3       NG1T1   -0.460000       14.0070           0
     34212 WT14     169      MECN     C1       CG331   -0.170000       12.0110           0
     34213 WT14     169      MECN     H11      HGA3     0.090000        1.0080           0
     34214 WT14     169      MECN     H12      HGA3     0.090000        1.0080           0
     34215 WT14     169      MECN     H13      HGA3     0.090000        1.0080           0
     34216 WT14     169      MECN     C2       CG1N1    0.360000       12.0110           0
     34217 WT14     169      MECN     N3       NG1T1   -0.460000       14.0070           0
     34218 WT14     170      MECN     C1       CG331   -0.170000       12.0110           0
     34219 WT14     170      MECN     H11      HGA3     0.090000        1.0080           0
     34220 WT14     170      MECN     H12      HGA3     0.090000        1.0080           0
     34221 WT14     170      MECN     H13      HGA3     0.090000        1.0080           0
     34222 WT14     170      MECN     C2       CG1N1    0.360000       12.0110           0
     34223 WT14     170      MECN     N3       NG1T1   -0.460000       14.0070           0
     34224 WT14     171      MECN     C1       CG331   -0.170000       12.0110           0
     34225 WT14     171      MECN     H11      HGA3     0.090000        1.0080           0
     34226 WT14     171      MECN     H12      HGA3     0.090000        1.0080           0
     34227 WT14     171      MECN     H13      HGA3     0.090000        1.0080           0
     34228 WT14     171      MECN     C2       CG1N1    0.360000       12.0110           0
     34229 WT14     171      MECN     N3       NG1T1   -0.460000       14.0070           0
     34230 WT14     172      MECN     C1       CG331   -0.170000       12.0110           0
     34231 WT14     172      MECN     H11      HGA3     0.090000        1.0080           0
     34232 WT14     172      MECN     H12      HGA3     0.090000        1.0080           0
     34233 WT14     172      MECN     H13      HGA3     0.090000        1.0080           0
     34234 WT14     172      MECN     C2       CG1N1    0.360000       12.0110           0
     34235 WT14     172      MECN     N3       NG1T1   -0.460000       14.0070           0
     34236 WT14     173      MECN     C1       CG331   -0.170000       12.0110           0
     34237 WT14     173      MECN     H11      HGA3     0.090000        1.0080           0
     34238 WT14     173      MECN     H12      HGA3     0.090000        1.0080           0
     34239 WT14     173      MECN     H13      HGA3     0.090000        1.0080           0
     34240 WT14     173      MECN     C2       CG1N1    0.360000       12.0110           0
     34241 WT14     173      MECN     N3       NG1T1   -0.460000       14.0070           0
     34242 WT14     174      MECN     C1       CG331   -0.170000       12.0110           0
     34243 WT14     174      MECN     H11      HGA3     0.090000        1.0080           0
     34244 WT14     174      MECN     H12      HGA3     0.090000        1.0080           0
     34245 WT14     174      MECN     H13      HGA3     0.090000        1.0080           0
     34246 WT14     174      MECN     C2       CG1N1    0.360000       12.0110           0
     34247 WT14     174      MECN     N3       NG1T1   -0.460000       14.0070           0
     34248 WT14     175      MECN     C1       CG331   -0.170000       12.0110           0
     34249 WT14     175      MECN     H11      HGA3     0.090000        1.0080           0
     34250 WT14     175      MECN     H12      HGA3     0.090000        1.0080           0
     34251 WT14     175      MECN     H13      HGA3     0.090000        1.0080           0
     34252 WT14     175      MECN     C2       CG1N1    0.360000       12.0110           0
     34253 WT14     175      MECN     N3       NG1T1   -0.460000       14.0070           0
     34254 WT14     176      MECN     C1       CG331   -0.170000       12.0110           0
     34255 WT14     176      MECN     H11      HGA3     0.090000        1.0080           0
     34256 WT14     176      MECN     H12      HGA3     0.090000        1.0080           0
     34257 WT14     176      MECN     H13      HGA3     0.090000        1.0080           0
     34258 WT14     176      MECN     C2       CG1N1    0.360000       12.0110           0
     34259 WT14     176      MECN     N3       NG1T1   -0.460000       14.0070           0
     34260 WT14     178      MECN     C1       CG331   -0.170000       12.0110           0
     34261 WT14     178      MECN     H11      HGA3     0.090000        1.0080           0
     34262 WT14     178      MECN     H12      HGA3     0.090000        1.0080           0
     34263 WT14     178      MECN     H13      HGA3     0.090000        1.0080           0
     34264 WT14     178      MECN     C2       CG1N1    0.360000       12.0110           0
     34265 WT14     178      MECN     N3       NG1T1   -0.460000       14.0070           0
     34266 WT14     179      MECN     C1       CG331   -0.170000       12.0110           0
     34267 WT14     179      MECN     H11      HGA3     0.090000        1.0080           0
     34268 WT14     179      MECN     H12      HGA3     0.090000        1.0080           0
     34269 WT14     179      MECN     H13      HGA3     0.090000        1.0080           0
     34270 WT14     179      MECN     C2       CG1N1    0.360000       12.0110           0
     34271 WT14     179      MECN     N3       NG1T1   -0.460000       14.0070           0
     34272 WT14     180      MECN     C1       CG331   -0.170000       12.0110           0
     34273 WT14     180      MECN     H11      HGA3     0.090000        1.0080           0
     34274 WT14     180      MECN     H12      HGA3     0.090000        1.0080           0
     34275 WT14     180      MECN     H13      HGA3     0.090000        1.0080           0
     34276 WT14     180      MECN     C2       CG1N1    0.360000       12.0110           0
     34277 WT14     180      MECN     N3       NG1T1   -0.460000       14.0070           0
     34278 WT14     181      MECN     C1       CG331   -0.170000       12.0110           0
     34279 WT14     181      MECN     H11      HGA3     0.090000        1.0080           0
     34280 WT14     181      MECN     H12      HGA3     0.090000        1.0080           0
     34281 WT14     181      MECN     H13      HGA3     0.090000        1.0080           0
     34282 WT14     181      MECN     C2       CG1N1    0.360000       12.0110           0
     34283 WT14     181      MECN     N3       NG1T1   -0.460000       14.0070           0
     34284 WT14     183      MECN     C1       CG331   -0.170000       12.0110           0
     34285 WT14     183      MECN     H11      HGA3     0.090000        1.0080           0
     34286 WT14     183      MECN     H12      HGA3     0.090000        1.0080           0
     34287 WT14     183      MECN     H13      HGA3     0.090000        1.0080           0
     34288 WT14     183      MECN     C2       CG1N1    0.360000       12.0110           0
     34289 WT14     183      MECN     N3       NG1T1   -0.460000       14.0070           0
     34290 WT14     184      MECN     C1       CG331   -0.170000       12.0110           0
     34291 WT14     184      MECN     H11      HGA3     0.090000        1.0080           0
     34292 WT14     184      MECN     H12      HGA3     0.090000        1.0080           0
     34293 WT14     184      MECN     H13      HGA3     0.090000        1.0080           0
     34294 WT14     184      MECN     C2       CG1N1    0.360000       12.0110           0
     34295 WT14     184      MECN     N3       NG1T1   -0.460000       14.0070           0
     34296 WT14     185      MECN     C1       CG331   -0.170000       12.0110           0
     34297 WT14     185      MECN     H11      HGA3     0.090000        1.0080           0
     34298 WT14     185      MECN     H12      HGA3     0.090000        1.0080           0
     34299 WT14     185      MECN     H13      HGA3     0.090000        1.0080           0
     34300 WT14     185      MECN     C2       CG1N1    0.360000       12.0110           0
     34301 WT14     185      MECN     N3       NG1T1   -0.460000       14.0070           0
     34302 WT14     186      MECN     C1       CG331   -0.170000       12.0110           0
     34303 WT14     186      MECN     H11      HGA3     0.090000        1.0080           0
     34304 WT14     186      MECN     H12      HGA3     0.090000        1.0080           0
     34305 WT14     186      MECN     H13      HGA3     0.090000        1.0080           0
     34306 WT14     186      MECN     C2       CG1N1    0.360000       12.0110           0
     34307 WT14     186      MECN     N3       NG1T1   -0.460000       14.0070           0
     34308 WT14     187      MECN     C1       CG331   -0.170000       12.0110           0
     34309 WT14     187      MECN     H11      HGA3     0.090000        1.0080           0
     34310 WT14     187      MECN     H12      HGA3     0.090000        1.0080           0
     34311 WT14     187      MECN     H13      HGA3     0.090000        1.0080           0
     34312 WT14     187      MECN     C2       CG1N1    0.360000       12.0110           0
     34313 WT14     187      MECN     N3       NG1T1   -0.460000       14.0070           0
     34314 WT14     188      MECN     C1       CG331   -0.170000       12.0110           0
     34315 WT14     188      MECN     H11      HGA3     0.090000        1.0080           0
     34316 WT14     188      MECN     H12      HGA3     0.090000        1.0080           0
     34317 WT14     188      MECN     H13      HGA3     0.090000        1.0080           0
     34318 WT14     188      MECN     C2       CG1N1    0.360000       12.0110           0
     34319 WT14     188      MECN     N3       NG1T1   -0.460000       14.0070           0
     34320 WT14     189      MECN     C1       CG331   -0.170000       12.0110           0
     34321 WT14     189      MECN     H11      HGA3     0.090000        1.0080           0
     34322 WT14     189      MECN     H12      HGA3     0.090000        1.0080           0
     34323 WT14     189      MECN     H13      HGA3     0.090000        1.0080           0
     34324 WT14     189      MECN     C2       CG1N1    0.360000       12.0110           0
     34325 WT14     189      MECN     N3       NG1T1   -0.460000       14.0070           0
     34326 WT14     190      MECN     C1       CG331   -0.170000       12.0110           0
     34327 WT14     190      MECN     H11      HGA3     0.090000        1.0080           0
     34328 WT14     190      MECN     H12      HGA3     0.090000        1.0080           0
     34329 WT14     190      MECN     H13      HGA3     0.090000        1.0080           0
     34330 WT14     190      MECN     C2       CG1N1    0.360000       12.0110           0
     34331 WT14     190      MECN     N3       NG1T1   -0.460000       14.0070           0
     34332 WT14     191      MECN     C1       CG331   -0.170000       12.0110           0
     34333 WT14     191      MECN     H11      HGA3     0.090000        1.0080           0
     34334 WT14     191      MECN     H12      HGA3     0.090000        1.0080           0
     34335 WT14     191      MECN     H13      HGA3     0.090000        1.0080           0
     34336 WT14     191      MECN     C2       CG1N1    0.360000       12.0110           0
     34337 WT14     191      MECN     N3       NG1T1   -0.460000       14.0070           0
     34338 WT14     192      MECN     C1       CG331   -0.170000       12.0110           0
     34339 WT14     192      MECN     H11      HGA3     0.090000        1.0080           0
     34340 WT14     192      MECN     H12      HGA3     0.090000        1.0080           0
     34341 WT14     192      MECN     H13      HGA3     0.090000        1.0080           0
     34342 WT14     192      MECN     C2       CG1N1    0.360000       12.0110           0
     34343 WT14     192      MECN     N3       NG1T1   -0.460000       14.0070           0
     34344 WT14     194      MECN     C1       CG331   -0.170000       12.0110           0
     34345 WT14     194      MECN     H11      HGA3     0.090000        1.0080           0
     34346 WT14     194      MECN     H12      HGA3     0.090000        1.0080           0
     34347 WT14     194      MECN     H13      HGA3     0.090000        1.0080           0
     34348 WT14     194      MECN     C2       CG1N1    0.360000       12.0110           0
     34349 WT14     194      MECN     N3       NG1T1   -0.460000       14.0070           0
     34350 WT14     196      MECN     C1       CG331   -0.170000       12.0110           0
     34351 WT14     196      MECN     H11      HGA3     0.090000        1.0080           0
     34352 WT14     196      MECN     H12      HGA3     0.090000        1.0080           0
     34353 WT14     196      MECN     H13      HGA3     0.090000        1.0080           0
     34354 WT14     196      MECN     C2       CG1N1    0.360000       12.0110           0
     34355 WT14     196      MECN     N3       NG1T1   -0.460000       14.0070           0
     34356 WT14     197      MECN     C1       CG331   -0.170000       12.0110           0
     34357 WT14     197      MECN     H11      HGA3     0.090000        1.0080           0
     34358 WT14     197      MECN     H12      HGA3     0.090000        1.0080           0
     34359 WT14     197      MECN     H13      HGA3     0.090000        1.0080           0
     34360 WT14     197      MECN     C2       CG1N1    0.360000       12.0110           0
     34361 WT14     197      MECN     N3       NG1T1   -0.460000       14.0070           0
     34362 WT14     198      MECN     C1       CG331   -0.170000       12.0110           0
     34363 WT14     198      MECN     H11      HGA3     0.090000        1.0080           0
     34364 WT14     198      MECN     H12      HGA3     0.090000        1.0080           0
     34365 WT14     198      MECN     H13      HGA3     0.090000        1.0080           0
     34366 WT14     198      MECN     C2       CG1N1    0.360000       12.0110           0
     34367 WT14     198      MECN     N3       NG1T1   -0.460000       14.0070           0
     34368 WT14     199      MECN     C1       CG331   -0.170000       12.0110           0
     34369 WT14     199      MECN     H11      HGA3     0.090000        1.0080           0
     34370 WT14     199      MECN     H12      HGA3     0.090000        1.0080           0
     34371 WT14     199      MECN     H13      HGA3     0.090000        1.0080           0
     34372 WT14     199      MECN     C2       CG1N1    0.360000       12.0110           0
     34373 WT14     199      MECN     N3       NG1T1   -0.460000       14.0070           0
     34374 WT14     200      MECN     C1       CG331   -0.170000       12.0110           0
     34375 WT14     200      MECN     H11      HGA3     0.090000        1.0080           0
     34376 WT14     200      MECN     H12      HGA3     0.090000        1.0080           0
     34377 WT14     200      MECN     H13      HGA3     0.090000        1.0080           0
     34378 WT14     200      MECN     C2       CG1N1    0.360000       12.0110           0
     34379 WT14     200      MECN     N3       NG1T1   -0.460000       14.0070           0
     34380 WT14     203      MECN     C1       CG331   -0.170000       12.0110           0
     34381 WT14     203      MECN     H11      HGA3     0.090000        1.0080           0
     34382 WT14     203      MECN     H12      HGA3     0.090000        1.0080           0
     34383 WT14     203      MECN     H13      HGA3     0.090000        1.0080           0
     34384 WT14     203      MECN     C2       CG1N1    0.360000       12.0110           0
     34385 WT14     203      MECN     N3       NG1T1   -0.460000       14.0070           0
     34386 WT14     204      MECN     C1       CG331   -0.170000       12.0110           0
     34387 WT14     204      MECN     H11      HGA3     0.090000        1.0080           0
     34388 WT14     204      MECN     H12      HGA3     0.090000        1.0080           0
     34389 WT14     204      MECN     H13      HGA3     0.090000        1.0080           0
     34390 WT14     204      MECN     C2       CG1N1    0.360000       12.0110           0
     34391 WT14     204      MECN     N3       NG1T1   -0.460000       14.0070           0
     34392 WT14     205      MECN     C1       CG331   -0.170000       12.0110           0
     34393 WT14     205      MECN     H11      HGA3     0.090000        1.0080           0
     34394 WT14     205      MECN     H12      HGA3     0.090000        1.0080           0
     34395 WT14     205      MECN     H13      HGA3     0.090000        1.0080           0
     34396 WT14     205      MECN     C2       CG1N1    0.360000       12.0110           0
     34397 WT14     205      MECN     N3       NG1T1   -0.460000       14.0070           0
     34398 WT14     206      MECN     C1       CG331   -0.170000       12.0110           0
     34399 WT14     206      MECN     H11      HGA3     0.090000        1.0080           0
     34400 WT14     206      MECN     H12      HGA3     0.090000        1.0080           0
     34401 WT14     206      MECN     H13      HGA3     0.090000        1.0080           0
     34402 WT14     206      MECN     C2       CG1N1    0.360000       12.0110           0
     34403 WT14     206      MECN     N3       NG1T1   -0.460000       14.0070           0
     34404 WT14     208      MECN     C1       CG331   -0.170000       12.0110           0
     34405 WT14     208      MECN     H11      HGA3     0.090000        1.0080           0
     34406 WT14     208      MECN     H12      HGA3     0.090000        1.0080           0
     34407 WT14     208      MECN     H13      HGA3     0.090000        1.0080           0
     34408 WT14     208      MECN     C2       CG1N1    0.360000       12.0110           0
     34409 WT14     208      MECN     N3       NG1T1   -0.460000       14.0070           0
     34410 WT14     209      MECN     C1       CG331   -0.170000       12.0110           0
     34411 WT14     209      MECN     H11      HGA3     0.090000        1.0080           0
     34412 WT14     209      MECN     H12      HGA3     0.090000        1.0080           0
     34413 WT14     209      MECN     H13      HGA3     0.090000        1.0080           0
     34414 WT14     209      MECN     C2       CG1N1    0.360000       12.0110           0
     34415 WT14     209      MECN     N3       NG1T1   -0.460000       14.0070           0
     34416 WT14     210      MECN     C1       CG331   -0.170000       12.0110           0
     34417 WT14     210      MECN     H11      HGA3     0.090000        1.0080           0
     34418 WT14     210      MECN     H12      HGA3     0.090000        1.0080           0
     34419 WT14     210      MECN     H13      HGA3     0.090000        1.0080           0
     34420 WT14     210      MECN     C2       CG1N1    0.360000       12.0110           0
     34421 WT14     210      MECN     N3       NG1T1   -0.460000       14.0070           0
     34422 WT14     212      MECN     C1       CG331   -0.170000       12.0110           0
     34423 WT14     212      MECN     H11      HGA3     0.090000        1.0080           0
     34424 WT14     212      MECN     H12      HGA3     0.090000        1.0080           0
     34425 WT14     212      MECN     H13      HGA3     0.090000        1.0080           0
     34426 WT14     212      MECN     C2       CG1N1    0.360000       12.0110           0
     34427 WT14     212      MECN     N3       NG1T1   -0.460000       14.0070           0
     34428 WT14     214      MECN     C1       CG331   -0.170000       12.0110           0
     34429 WT14     214      MECN     H11      HGA3     0.090000        1.0080           0
     34430 WT14     214      MECN     H12      HGA3     0.090000        1.0080           0
     34431 WT14     214      MECN     H13      HGA3     0.090000        1.0080           0
     34432 WT14     214      MECN     C2       CG1N1    0.360000       12.0110           0
     34433 WT14     214      MECN     N3       NG1T1   -0.460000       14.0070           0
     34434 WT14     215      MECN     C1       CG331   -0.170000       12.0110           0
     34435 WT14     215      MECN     H11      HGA3     0.090000        1.0080           0
     34436 WT14     215      MECN     H12      HGA3     0.090000        1.0080           0
     34437 WT14     215      MECN     H13      HGA3     0.090000        1.0080           0
     34438 WT14     215      MECN     C2       CG1N1    0.360000       12.0110           0
     34439 WT14     215      MECN     N3       NG1T1   -0.460000       14.0070           0
     34440 WT14     216      MECN     C1       CG331   -0.170000       12.0110           0
     34441 WT14     216      MECN     H11      HGA3     0.090000        1.0080           0
     34442 WT14     216      MECN     H12      HGA3     0.090000        1.0080           0
     34443 WT14     216      MECN     H13      HGA3     0.090000        1.0080           0
     34444 WT14     216      MECN     C2       CG1N1    0.360000       12.0110           0
     34445 WT14     216      MECN     N3       NG1T1   -0.460000       14.0070           0
     34446 WT14     217      MECN     C1       CG331   -0.170000       12.0110           0
     34447 WT14     217      MECN     H11      HGA3     0.090000        1.0080           0
     34448 WT14     217      MECN     H12      HGA3     0.090000        1.0080           0
     34449 WT14     217      MECN     H13      HGA3     0.090000        1.0080           0
     34450 WT14     217      MECN     C2       CG1N1    0.360000       12.0110           0
     34451 WT14     217      MECN     N3       NG1T1   -0.460000       14.0070           0
     34452 WT14     218      MECN     C1       CG331   -0.170000       12.0110           0
     34453 WT14     218      MECN     H11      HGA3     0.090000        1.0080           0
     34454 WT14     218      MECN     H12      HGA3     0.090000        1.0080           0
     34455 WT14     218      MECN     H13      HGA3     0.090000        1.0080           0
     34456 WT14     218      MECN     C2       CG1N1    0.360000       12.0110           0
     34457 WT14     218      MECN     N3       NG1T1   -0.460000       14.0070           0
     34458 WT14     219      MECN     C1       CG331   -0.170000       12.0110           0
     34459 WT14     219      MECN     H11      HGA3     0.090000        1.0080           0
     34460 WT14     219      MECN     H12      HGA3     0.090000        1.0080           0
     34461 WT14     219      MECN     H13      HGA3     0.090000        1.0080           0
     34462 WT14     219      MECN     C2       CG1N1    0.360000       12.0110           0
     34463 WT14     219      MECN     N3       NG1T1   -0.460000       14.0070           0
     34464 WT14     220      MECN     C1       CG331   -0.170000       12.0110           0
     34465 WT14     220      MECN     H11      HGA3     0.090000        1.0080           0
     34466 WT14     220      MECN     H12      HGA3     0.090000        1.0080           0
     34467 WT14     220      MECN     H13      HGA3     0.090000        1.0080           0
     34468 WT14     220      MECN     C2       CG1N1    0.360000       12.0110           0
     34469 WT14     220      MECN     N3       NG1T1   -0.460000       14.0070           0
     34470 WT14     221      MECN     C1       CG331   -0.170000       12.0110           0
     34471 WT14     221      MECN     H11      HGA3     0.090000        1.0080           0
     34472 WT14     221      MECN     H12      HGA3     0.090000        1.0080           0
     34473 WT14     221      MECN     H13      HGA3     0.090000        1.0080           0
     34474 WT14     221      MECN     C2       CG1N1    0.360000       12.0110           0
     34475 WT14     221      MECN     N3       NG1T1   -0.460000       14.0070           0
     34476 WT14     222      MECN     C1       CG331   -0.170000       12.0110           0
     34477 WT14     222      MECN     H11      HGA3     0.090000        1.0080           0
     34478 WT14     222      MECN     H12      HGA3     0.090000        1.0080           0
     34479 WT14     222      MECN     H13      HGA3     0.090000        1.0080           0
     34480 WT14     222      MECN     C2       CG1N1    0.360000       12.0110           0
     34481 WT14     222      MECN     N3       NG1T1   -0.460000       14.0070           0
     34482 WT14     223      MECN     C1       CG331   -0.170000       12.0110           0
     34483 WT14     223      MECN     H11      HGA3     0.090000        1.0080           0
     34484 WT14     223      MECN     H12      HGA3     0.090000        1.0080           0
     34485 WT14     223      MECN     H13      HGA3     0.090000        1.0080           0
     34486 WT14     223      MECN     C2       CG1N1    0.360000       12.0110           0
     34487 WT14     223      MECN     N3       NG1T1   -0.460000       14.0070           0
     34488 WT14     224      MECN     C1       CG331   -0.170000       12.0110           0
     34489 WT14     224      MECN     H11      HGA3     0.090000        1.0080           0
     34490 WT14     224      MECN     H12      HGA3     0.090000        1.0080           0
     34491 WT14     224      MECN     H13      HGA3     0.090000        1.0080           0
     34492 WT14     224      MECN     C2       CG1N1    0.360000       12.0110           0
     34493 WT14     224      MECN     N3       NG1T1   -0.460000       14.0070           0
     34494 WT14     226      MECN     C1       CG331   -0.170000       12.0110           0
     34495 WT14     226      MECN     H11      HGA3     0.090000        1.0080           0
     34496 WT14     226      MECN     H12      HGA3     0.090000        1.0080           0
     34497 WT14     226      MECN     H13      HGA3     0.090000        1.0080           0
     34498 WT14     226      MECN     C2       CG1N1    0.360000       12.0110           0
     34499 WT14     226      MECN     N3       NG1T1   -0.460000       14.0070           0
     34500 WT14     227      MECN     C1       CG331   -0.170000       12.0110           0
     34501 WT14     227      MECN     H11      HGA3     0.090000        1.0080           0
     34502 WT14     227      MECN     H12      HGA3     0.090000        1.0080           0
     34503 WT14     227      MECN     H13      HGA3     0.090000        1.0080           0
     34504 WT14     227      MECN     C2       CG1N1    0.360000       12.0110           0
     34505 WT14     227      MECN     N3       NG1T1   -0.460000       14.0070           0
     34506 WT14     229      MECN     C1       CG331   -0.170000       12.0110           0
     34507 WT14     229      MECN     H11      HGA3     0.090000        1.0080           0
     34508 WT14     229      MECN     H12      HGA3     0.090000        1.0080           0
     34509 WT14     229      MECN     H13      HGA3     0.090000        1.0080           0
     34510 WT14     229      MECN     C2       CG1N1    0.360000       12.0110           0
     34511 WT14     229      MECN     N3       NG1T1   -0.460000       14.0070           0
     34512 WT14     230      MECN     C1       CG331   -0.170000       12.0110           0
     34513 WT14     230      MECN     H11      HGA3     0.090000        1.0080           0
     34514 WT14     230      MECN     H12      HGA3     0.090000        1.0080           0
     34515 WT14     230      MECN     H13      HGA3     0.090000        1.0080           0
     34516 WT14     230      MECN     C2       CG1N1    0.360000       12.0110           0
     34517 WT14     230      MECN     N3       NG1T1   -0.460000       14.0070           0
     34518 WT14     231      MECN     C1       CG331   -0.170000       12.0110           0
     34519 WT14     231      MECN     H11      HGA3     0.090000        1.0080           0
     34520 WT14     231      MECN     H12      HGA3     0.090000        1.0080           0
     34521 WT14     231      MECN     H13      HGA3     0.090000        1.0080           0
     34522 WT14     231      MECN     C2       CG1N1    0.360000       12.0110           0
     34523 WT14     231      MECN     N3       NG1T1   -0.460000       14.0070           0
     34524 WT14     232      MECN     C1       CG331   -0.170000       12.0110           0
     34525 WT14     232      MECN     H11      HGA3     0.090000        1.0080           0
     34526 WT14     232      MECN     H12      HGA3     0.090000        1.0080           0
     34527 WT14     232      MECN     H13      HGA3     0.090000        1.0080           0
     34528 WT14     232      MECN     C2       CG1N1    0.360000       12.0110           0
     34529 WT14     232      MECN     N3       NG1T1   -0.460000       14.0070           0
     34530 WT14     234      MECN     C1       CG331   -0.170000       12.0110           0
     34531 WT14     234      MECN     H11      HGA3     0.090000        1.0080           0
     34532 WT14     234      MECN     H12      HGA3     0.090000        1.0080           0
     34533 WT14     234      MECN     H13      HGA3     0.090000        1.0080           0
     34534 WT14     234      MECN     C2       CG1N1    0.360000       12.0110           0
     34535 WT14     234      MECN     N3       NG1T1   -0.460000       14.0070           0
     34536 WT14     235      MECN     C1       CG331   -0.170000       12.0110           0
     34537 WT14     235      MECN     H11      HGA3     0.090000        1.0080           0
     34538 WT14     235      MECN     H12      HGA3     0.090000        1.0080           0
     34539 WT14     235      MECN     H13      HGA3     0.090000        1.0080           0
     34540 WT14     235      MECN     C2       CG1N1    0.360000       12.0110           0
     34541 WT14     235      MECN     N3       NG1T1   -0.460000       14.0070           0
     34542 WT14     236      MECN     C1       CG331   -0.170000       12.0110           0
     34543 WT14     236      MECN     H11      HGA3     0.090000        1.0080           0
     34544 WT14     236      MECN     H12      HGA3     0.090000        1.0080           0
     34545 WT14     236      MECN     H13      HGA3     0.090000        1.0080           0
     34546 WT14     236      MECN     C2       CG1N1    0.360000       12.0110           0
     34547 WT14     236      MECN     N3       NG1T1   -0.460000       14.0070           0
     34548 WT14     237      MECN     C1       CG331   -0.170000       12.0110           0
     34549 WT14     237      MECN     H11      HGA3     0.090000        1.0080           0
     34550 WT14     237      MECN     H12      HGA3     0.090000        1.0080           0
     34551 WT14     237      MECN     H13      HGA3     0.090000        1.0080           0
     34552 WT14     237      MECN     C2       CG1N1    0.360000       12.0110           0
     34553 WT14     237      MECN     N3       NG1T1   -0.460000       14.0070           0
     34554 WT14     238      MECN     C1       CG331   -0.170000       12.0110           0
     34555 WT14     238      MECN     H11      HGA3     0.090000        1.0080           0
     34556 WT14     238      MECN     H12      HGA3     0.090000        1.0080           0
     34557 WT14     238      MECN     H13      HGA3     0.090000        1.0080           0
     34558 WT14     238      MECN     C2       CG1N1    0.360000       12.0110           0
     34559 WT14     238      MECN     N3       NG1T1   -0.460000       14.0070           0
     34560 WT14     239      MECN     C1       CG331   -0.170000       12.0110           0
     34561 WT14     239      MECN     H11      HGA3     0.090000        1.0080           0
     34562 WT14     239      MECN     H12      HGA3     0.090000        1.0080           0
     34563 WT14     239      MECN     H13      HGA3     0.090000        1.0080           0
     34564 WT14     239      MECN     C2       CG1N1    0.360000       12.0110           0
     34565 WT14     239      MECN     N3       NG1T1   -0.460000       14.0070           0
     34566 WT14     241      MECN     C1       CG331   -0.170000       12.0110           0
     34567 WT14     241      MECN     H11      HGA3     0.090000        1.0080           0
     34568 WT14     241      MECN     H12      HGA3     0.090000        1.0080           0
     34569 WT14     241      MECN     H13      HGA3     0.090000        1.0080           0
     34570 WT14     241      MECN     C2       CG1N1    0.360000       12.0110           0
     34571 WT14     241      MECN     N3       NG1T1   -0.460000       14.0070           0
     34572 WT14     242      MECN     C1       CG331   -0.170000       12.0110           0
     34573 WT14     242      MECN     H11      HGA3     0.090000        1.0080           0
     34574 WT14     242      MECN     H12      HGA3     0.090000        1.0080           0
     34575 WT14     242      MECN     H13      HGA3     0.090000        1.0080           0
     34576 WT14     242      MECN     C2       CG1N1    0.360000       12.0110           0
     34577 WT14     242      MECN     N3       NG1T1   -0.460000       14.0070           0
     34578 WT14     243      MECN     C1       CG331   -0.170000       12.0110           0
     34579 WT14     243      MECN     H11      HGA3     0.090000        1.0080           0
     34580 WT14     243      MECN     H12      HGA3     0.090000        1.0080           0
     34581 WT14     243      MECN     H13      HGA3     0.090000        1.0080           0
     34582 WT14     243      MECN     C2       CG1N1    0.360000       12.0110           0
     34583 WT14     243      MECN     N3       NG1T1   -0.460000       14.0070           0
     34584 WT14     244      MECN     C1       CG331   -0.170000       12.0110           0
     34585 WT14     244      MECN     H11      HGA3     0.090000        1.0080           0
     34586 WT14     244      MECN     H12      HGA3     0.090000        1.0080           0
     34587 WT14     244      MECN     H13      HGA3     0.090000        1.0080           0
     34588 WT14     244      MECN     C2       CG1N1    0.360000       12.0110           0
     34589 WT14     244      MECN     N3       NG1T1   -0.460000       14.0070           0
     34590 WT14     245      MECN     C1       CG331   -0.170000       12.0110           0
     34591 WT14     245      MECN     H11      HGA3     0.090000        1.0080           0
     34592 WT14     245      MECN     H12      HGA3     0.090000        1.0080           0
     34593 WT14     245      MECN     H13      HGA3     0.090000        1.0080           0
     34594 WT14     245      MECN     C2       CG1N1    0.360000       12.0110           0
     34595 WT14     245      MECN     N3       NG1T1   -0.460000       14.0070           0
     34596 WT14     246      MECN     C1       CG331   -0.170000       12.0110           0
     34597 WT14     246      MECN     H11      HGA3     0.090000        1.0080           0
     34598 WT14     246      MECN     H12      HGA3     0.090000        1.0080           0
     34599 WT14     246      MECN     H13      HGA3     0.090000        1.0080           0
     34600 WT14     246      MECN     C2       CG1N1    0.360000       12.0110           0
     34601 WT14     246      MECN     N3       NG1T1   -0.460000       14.0070           0
     34602 WT14     247      MECN     C1       CG331   -0.170000       12.0110           0
     34603 WT14     247      MECN     H11      HGA3     0.090000        1.0080           0
     34604 WT14     247      MECN     H12      HGA3     0.090000        1.0080           0
     34605 WT14     247      MECN     H13      HGA3     0.090000        1.0080           0
     34606 WT14     247      MECN     C2       CG1N1    0.360000       12.0110           0
     34607 WT14     247      MECN     N3       NG1T1   -0.460000       14.0070           0
     34608 WT14     248      MECN     C1       CG331   -0.170000       12.0110           0
     34609 WT14     248      MECN     H11      HGA3     0.090000        1.0080           0
     34610 WT14     248      MECN     H12      HGA3     0.090000        1.0080           0
     34611 WT14     248      MECN     H13      HGA3     0.090000        1.0080           0
     34612 WT14     248      MECN     C2       CG1N1    0.360000       12.0110           0
     34613 WT14     248      MECN     N3       NG1T1   -0.460000       14.0070           0
     34614 WT14     249      MECN     C1       CG331   -0.170000       12.0110           0
     34615 WT14     249      MECN     H11      HGA3     0.090000        1.0080           0
     34616 WT14     249      MECN     H12      HGA3     0.090000        1.0080           0
     34617 WT14     249      MECN     H13      HGA3     0.090000        1.0080           0
     34618 WT14     249      MECN     C2       CG1N1    0.360000       12.0110           0
     34619 WT14     249      MECN     N3       NG1T1   -0.460000       14.0070           0
     34620 WT14     250      MECN     C1       CG331   -0.170000       12.0110           0
     34621 WT14     250      MECN     H11      HGA3     0.090000        1.0080           0
     34622 WT14     250      MECN     H12      HGA3     0.090000        1.0080           0
     34623 WT14     250      MECN     H13      HGA3     0.090000        1.0080           0
     34624 WT14     250      MECN     C2       CG1N1    0.360000       12.0110           0
     34625 WT14     250      MECN     N3       NG1T1   -0.460000       14.0070           0
     34626 WT14     252      MECN     C1       CG331   -0.170000       12.0110           0
     34627 WT14     252      MECN     H11      HGA3     0.090000        1.0080           0
     34628 WT14     252      MECN     H12      HGA3     0.090000        1.0080           0
     34629 WT14     252      MECN     H13      HGA3     0.090000        1.0080           0
     34630 WT14     252      MECN     C2       CG1N1    0.360000       12.0110           0
     34631 WT14     252      MECN     N3       NG1T1   -0.460000       14.0070           0
     34632 WT14     253      MECN     C1       CG331   -0.170000       12.0110           0
     34633 WT14     253      MECN     H11      HGA3     0.090000        1.0080           0
     34634 WT14     253      MECN     H12      HGA3     0.090000        1.0080           0
     34635 WT14     253      MECN     H13      HGA3     0.090000        1.0080           0
     34636 WT14     253      MECN     C2       CG1N1    0.360000       12.0110           0
     34637 WT14     253      MECN     N3       NG1T1   -0.460000       14.0070           0
     34638 WT14     254      MECN     C1       CG331   -0.170000       12.0110           0
     34639 WT14     254      MECN     H11      HGA3     0.090000        1.0080           0
     34640 WT14     254      MECN     H12      HGA3     0.090000        1.0080           0
     34641 WT14     254      MECN     H13      HGA3     0.090000        1.0080           0
     34642 WT14     254      MECN     C2       CG1N1    0.360000       12.0110           0
     34643 WT14     254      MECN     N3       NG1T1   -0.460000       14.0070           0
     34644 WT14     256      MECN     C1       CG331   -0.170000       12.0110           0
     34645 WT14     256      MECN     H11      HGA3     0.090000        1.0080           0
     34646 WT14     256      MECN     H12      HGA3     0.090000        1.0080           0
     34647 WT14     256      MECN     H13      HGA3     0.090000        1.0080           0
     34648 WT14     256      MECN     C2       CG1N1    0.360000       12.0110           0
     34649 WT14     256      MECN     N3       NG1T1   -0.460000       14.0070           0
     34650 WT14     258      MECN     C1       CG331   -0.170000       12.0110           0
     34651 WT14     258      MECN     H11      HGA3     0.090000        1.0080           0
     34652 WT14     258      MECN     H12      HGA3     0.090000        1.0080           0
     34653 WT14     258      MECN     H13      HGA3     0.090000        1.0080           0
     34654 WT14     258      MECN     C2       CG1N1    0.360000       12.0110           0
     34655 WT14     258      MECN     N3       NG1T1   -0.460000       14.0070           0
     34656 WT14     259      MECN     C1       CG331   -0.170000       12.0110           0
     34657 WT14     259      MECN     H11      HGA3     0.090000        1.0080           0
     34658 WT14     259      MECN     H12      HGA3     0.090000        1.0080           0
     34659 WT14     259      MECN     H13      HGA3     0.090000        1.0080           0
     34660 WT14     259      MECN     C2       CG1N1    0.360000       12.0110           0
     34661 WT14     259      MECN     N3       NG1T1   -0.460000       14.0070           0
     34662 WT14     260      MECN     C1       CG331   -0.170000       12.0110           0
     34663 WT14     260      MECN     H11      HGA3     0.090000        1.0080           0
     34664 WT14     260      MECN     H12      HGA3     0.090000        1.0080           0
     34665 WT14     260      MECN     H13      HGA3     0.090000        1.0080           0
     34666 WT14     260      MECN     C2       CG1N1    0.360000       12.0110           0
     34667 WT14     260      MECN     N3       NG1T1   -0.460000       14.0070           0
     34668 WT14     261      MECN     C1       CG331   -0.170000       12.0110           0
     34669 WT14     261      MECN     H11      HGA3     0.090000        1.0080           0
     34670 WT14     261      MECN     H12      HGA3     0.090000        1.0080           0
     34671 WT14     261      MECN     H13      HGA3     0.090000        1.0080           0
     34672 WT14     261      MECN     C2       CG1N1    0.360000       12.0110           0
     34673 WT14     261      MECN     N3       NG1T1   -0.460000       14.0070           0
     34674 WT14     263      MECN     C1       CG331   -0.170000       12.0110           0
     34675 WT14     263      MECN     H11      HGA3     0.090000        1.0080           0
     34676 WT14     263      MECN     H12      HGA3     0.090000        1.0080           0
     34677 WT14     263      MECN     H13      HGA3     0.090000        1.0080           0
     34678 WT14     263      MECN     C2       CG1N1    0.360000       12.0110           0
     34679 WT14     263      MECN     N3       NG1T1   -0.460000       14.0070           0
     34680 WT14     264      MECN     C1       CG331   -0.170000       12.0110           0
     34681 WT14     264      MECN     H11      HGA3     0.090000        1.0080           0
     34682 WT14     264      MECN     H12      HGA3     0.090000        1.0080           0
     34683 WT14     264      MECN     H13      HGA3     0.090000        1.0080           0
     34684 WT14     264      MECN     C2       CG1N1    0.360000       12.0110           0
     34685 WT14     264      MECN     N3       NG1T1   -0.460000       14.0070           0
     34686 WT14     265      MECN     C1       CG331   -0.170000       12.0110           0
     34687 WT14     265      MECN     H11      HGA3     0.090000        1.0080           0
     34688 WT14     265      MECN     H12      HGA3     0.090000        1.0080           0
     34689 WT14     265      MECN     H13      HGA3     0.090000        1.0080           0
     34690 WT14     265      MECN     C2       CG1N1    0.360000       12.0110           0
     34691 WT14     265      MECN     N3       NG1T1   -0.460000       14.0070           0
     34692 WT14     266      MECN     C1       CG331   -0.170000       12.0110           0
     34693 WT14     266      MECN     H11      HGA3     0.090000        1.0080           0
     34694 WT14     266      MECN     H12      HGA3     0.090000        1.0080           0
     34695 WT14     266      MECN     H13      HGA3     0.090000        1.0080           0
     34696 WT14     266      MECN     C2       CG1N1    0.360000       12.0110           0
     34697 WT14     266      MECN     N3       NG1T1   -0.460000       14.0070           0
     34698 WT14     267      MECN     C1       CG331   -0.170000       12.0110           0
     34699 WT14     267      MECN     H11      HGA3     0.090000        1.0080           0
     34700 WT14     267      MECN     H12      HGA3     0.090000        1.0080           0
     34701 WT14     267      MECN     H13      HGA3     0.090000        1.0080           0
     34702 WT14     267      MECN     C2       CG1N1    0.360000       12.0110           0
     34703 WT14     267      MECN     N3       NG1T1   -0.460000       14.0070           0
     34704 WT14     268      MECN     C1       CG331   -0.170000       12.0110           0
     34705 WT14     268      MECN     H11      HGA3     0.090000        1.0080           0
     34706 WT14     268      MECN     H12      HGA3     0.090000        1.0080           0
     34707 WT14     268      MECN     H13      HGA3     0.090000        1.0080           0
     34708 WT14     268      MECN     C2       CG1N1    0.360000       12.0110           0
     34709 WT14     268      MECN     N3       NG1T1   -0.460000       14.0070           0
     34710 WT14     269      MECN     C1       CG331   -0.170000       12.0110           0
     34711 WT14     269      MECN     H11      HGA3     0.090000        1.0080           0
     34712 WT14     269      MECN     H12      HGA3     0.090000        1.0080           0
     34713 WT14     269      MECN     H13      HGA3     0.090000        1.0080           0
     34714 WT14     269      MECN     C2       CG1N1    0.360000       12.0110           0
     34715 WT14     269      MECN     N3       NG1T1   -0.460000       14.0070           0
     34716 WT14     270      MECN     C1       CG331   -0.170000       12.0110           0
     34717 WT14     270      MECN     H11      HGA3     0.090000        1.0080           0
     34718 WT14     270      MECN     H12      HGA3     0.090000        1.0080           0
     34719 WT14     270      MECN     H13      HGA3     0.090000        1.0080           0
     34720 WT14     270      MECN     C2       CG1N1    0.360000       12.0110           0
     34721 WT14     270      MECN     N3       NG1T1   -0.460000       14.0070           0
     34722 WT14     271      MECN     C1       CG331   -0.170000       12.0110           0
     34723 WT14     271      MECN     H11      HGA3     0.090000        1.0080           0
     34724 WT14     271      MECN     H12      HGA3     0.090000        1.0080           0
     34725 WT14     271      MECN     H13      HGA3     0.090000        1.0080           0
     34726 WT14     271      MECN     C2       CG1N1    0.360000       12.0110           0
     34727 WT14     271      MECN     N3       NG1T1   -0.460000       14.0070           0
     34728 WT14     272      MECN     C1       CG331   -0.170000       12.0110           0
     34729 WT14     272      MECN     H11      HGA3     0.090000        1.0080           0
     34730 WT14     272      MECN     H12      HGA3     0.090000        1.0080           0
     34731 WT14     272      MECN     H13      HGA3     0.090000        1.0080           0
     34732 WT14     272      MECN     C2       CG1N1    0.360000       12.0110           0
     34733 WT14     272      MECN     N3       NG1T1   -0.460000       14.0070           0
     34734 WT14     273      MECN     C1       CG331   -0.170000       12.0110           0
     34735 WT14     273      MECN     H11      HGA3     0.090000        1.0080           0
     34736 WT14     273      MECN     H12      HGA3     0.090000        1.0080           0
     34737 WT14     273      MECN     H13      HGA3     0.090000        1.0080           0
     34738 WT14     273      MECN     C2       CG1N1    0.360000       12.0110           0
     34739 WT14     273      MECN     N3       NG1T1   -0.460000       14.0070           0
     34740 WT14     274      MECN     C1       CG331   -0.170000       12.0110           0
     34741 WT14     274      MECN     H11      HGA3     0.090000        1.0080           0
     34742 WT14     274      MECN     H12      HGA3     0.090000        1.0080           0
     34743 WT14     274      MECN     H13      HGA3     0.090000        1.0080           0
     34744 WT14     274      MECN     C2       CG1N1    0.360000       12.0110           0
     34745 WT14     274      MECN     N3       NG1T1   -0.460000       14.0070           0
     34746 WT14     275      MECN     C1       CG331   -0.170000       12.0110           0
     34747 WT14     275      MECN     H11      HGA3     0.090000        1.0080           0
     34748 WT14     275      MECN     H12      HGA3     0.090000        1.0080           0
     34749 WT14     275      MECN     H13      HGA3     0.090000        1.0080           0
     34750 WT14     275      MECN     C2       CG1N1    0.360000       12.0110           0
     34751 WT14     275      MECN     N3       NG1T1   -0.460000       14.0070           0
     34752 WT14     276      MECN     C1       CG331   -0.170000       12.0110           0
     34753 WT14     276      MECN     H11      HGA3     0.090000        1.0080           0
     34754 WT14     276      MECN     H12      HGA3     0.090000        1.0080           0
     34755 WT14     276      MECN     H13      HGA3     0.090000        1.0080           0
     34756 WT14     276      MECN     C2       CG1N1    0.360000       12.0110           0
     34757 WT14     276      MECN     N3       NG1T1   -0.460000       14.0070           0
     34758 WT14     277      MECN     C1       CG331   -0.170000       12.0110           0
     34759 WT14     277      MECN     H11      HGA3     0.090000        1.0080           0
     34760 WT14     277      MECN     H12      HGA3     0.090000        1.0080           0
     34761 WT14     277      MECN     H13      HGA3     0.090000        1.0080           0
     34762 WT14     277      MECN     C2       CG1N1    0.360000       12.0110           0
     34763 WT14     277      MECN     N3       NG1T1   -0.460000       14.0070           0
     34764 WT14     278      MECN     C1       CG331   -0.170000       12.0110           0
     34765 WT14     278      MECN     H11      HGA3     0.090000        1.0080           0
     34766 WT14     278      MECN     H12      HGA3     0.090000        1.0080           0
     34767 WT14     278      MECN     H13      HGA3     0.090000        1.0080           0
     34768 WT14     278      MECN     C2       CG1N1    0.360000       12.0110           0
     34769 WT14     278      MECN     N3       NG1T1   -0.460000       14.0070           0
     34770 WT14     279      MECN     C1       CG331   -0.170000       12.0110           0
     34771 WT14     279      MECN     H11      HGA3     0.090000        1.0080           0
     34772 WT14     279      MECN     H12      HGA3     0.090000        1.0080           0
     34773 WT14     279      MECN     H13      HGA3     0.090000        1.0080           0
     34774 WT14     279      MECN     C2       CG1N1    0.360000       12.0110           0
     34775 WT14     279      MECN     N3       NG1T1   -0.460000       14.0070           0
     34776 WT14     280      MECN     C1       CG331   -0.170000       12.0110           0
     34777 WT14     280      MECN     H11      HGA3     0.090000        1.0080           0
     34778 WT14     280      MECN     H12      HGA3     0.090000        1.0080           0
     34779 WT14     280      MECN     H13      HGA3     0.090000        1.0080           0
     34780 WT14     280      MECN     C2       CG1N1    0.360000       12.0110           0
     34781 WT14     280      MECN     N3       NG1T1   -0.460000       14.0070           0
     34782 WT14     281      MECN     C1       CG331   -0.170000       12.0110           0
     34783 WT14     281      MECN     H11      HGA3     0.090000        1.0080           0
     34784 WT14     281      MECN     H12      HGA3     0.090000        1.0080           0
     34785 WT14     281      MECN     H13      HGA3     0.090000        1.0080           0
     34786 WT14     281      MECN     C2       CG1N1    0.360000       12.0110           0
     34787 WT14     281      MECN     N3       NG1T1   -0.460000       14.0070           0
     34788 WT14     283      MECN     C1       CG331   -0.170000       12.0110           0
     34789 WT14     283      MECN     H11      HGA3     0.090000        1.0080           0
     34790 WT14     283      MECN     H12      HGA3     0.090000        1.0080           0
     34791 WT14     283      MECN     H13      HGA3     0.090000        1.0080           0
     34792 WT14     283      MECN     C2       CG1N1    0.360000       12.0110           0
     34793 WT14     283      MECN     N3       NG1T1   -0.460000       14.0070           0
     34794 WT14     284      MECN     C1       CG331   -0.170000       12.0110           0
     34795 WT14     284      MECN     H11      HGA3     0.090000        1.0080           0
     34796 WT14     284      MECN     H12      HGA3     0.090000        1.0080           0
     34797 WT14     284      MECN     H13      HGA3     0.090000        1.0080           0
     34798 WT14     284      MECN     C2       CG1N1    0.360000       12.0110           0
     34799 WT14     284      MECN     N3       NG1T1   -0.460000       14.0070           0
     34800 WT14     286      MECN     C1       CG331   -0.170000       12.0110           0
     34801 WT14     286      MECN     H11      HGA3     0.090000        1.0080           0
     34802 WT14     286      MECN     H12      HGA3     0.090000        1.0080           0
     34803 WT14     286      MECN     H13      HGA3     0.090000        1.0080           0
     34804 WT14     286      MECN     C2       CG1N1    0.360000       12.0110           0
     34805 WT14     286      MECN     N3       NG1T1   -0.460000       14.0070           0
     34806 WT14     287      MECN     C1       CG331   -0.170000       12.0110           0
     34807 WT14     287      MECN     H11      HGA3     0.090000        1.0080           0
     34808 WT14     287      MECN     H12      HGA3     0.090000        1.0080           0
     34809 WT14     287      MECN     H13      HGA3     0.090000        1.0080           0
     34810 WT14     287      MECN     C2       CG1N1    0.360000       12.0110           0
     34811 WT14     287      MECN     N3       NG1T1   -0.460000       14.0070           0
     34812 WT14     288      MECN     C1       CG331   -0.170000       12.0110           0
     34813 WT14     288      MECN     H11      HGA3     0.090000        1.0080           0
     34814 WT14     288      MECN     H12      HGA3     0.090000        1.0080           0
     34815 WT14     288      MECN     H13      HGA3     0.090000        1.0080           0
     34816 WT14     288      MECN     C2       CG1N1    0.360000       12.0110           0
     34817 WT14     288      MECN     N3       NG1T1   -0.460000       14.0070           0
     34818 WT14     289      MECN     C1       CG331   -0.170000       12.0110           0
     34819 WT14     289      MECN     H11      HGA3     0.090000        1.0080           0
     34820 WT14     289      MECN     H12      HGA3     0.090000        1.0080           0
     34821 WT14     289      MECN     H13      HGA3     0.090000        1.0080           0
     34822 WT14     289      MECN     C2       CG1N1    0.360000       12.0110           0
     34823 WT14     289      MECN     N3       NG1T1   -0.460000       14.0070           0
     34824 WT14     290      MECN     C1       CG331   -0.170000       12.0110           0
     34825 WT14     290      MECN     H11      HGA3     0.090000        1.0080           0
     34826 WT14     290      MECN     H12      HGA3     0.090000        1.0080           0
     34827 WT14     290      MECN     H13      HGA3     0.090000        1.0080           0
     34828 WT14     290      MECN     C2       CG1N1    0.360000       12.0110           0
     34829 WT14     290      MECN     N3       NG1T1   -0.460000       14.0070           0
     34830 WT14     291      MECN     C1       CG331   -0.170000       12.0110           0
     34831 WT14     291      MECN     H11      HGA3     0.090000        1.0080           0
     34832 WT14     291      MECN     H12      HGA3     0.090000        1.0080           0
     34833 WT14     291      MECN     H13      HGA3     0.090000        1.0080           0
     34834 WT14     291      MECN     C2       CG1N1    0.360000       12.0110           0
     34835 WT14     291      MECN     N3       NG1T1   -0.460000       14.0070           0
     34836 WT14     292      MECN     C1       CG331   -0.170000       12.0110           0
     34837 WT14     292      MECN     H11      HGA3     0.090000        1.0080           0
     34838 WT14     292      MECN     H12      HGA3     0.090000        1.0080           0
     34839 WT14     292      MECN     H13      HGA3     0.090000        1.0080           0
     34840 WT14     292      MECN     C2       CG1N1    0.360000       12.0110           0
     34841 WT14     292      MECN     N3       NG1T1   -0.460000       14.0070           0
     34842 WT14     293      MECN     C1       CG331   -0.170000       12.0110           0
     34843 WT14     293      MECN     H11      HGA3     0.090000        1.0080           0
     34844 WT14     293      MECN     H12      HGA3     0.090000        1.0080           0
     34845 WT14     293      MECN     H13      HGA3     0.090000        1.0080           0
     34846 WT14     293      MECN     C2       CG1N1    0.360000       12.0110           0
     34847 WT14     293      MECN     N3       NG1T1   -0.460000       14.0070           0
     34848 WT14     294      MECN     C1       CG331   -0.170000       12.0110           0
     34849 WT14     294      MECN     H11      HGA3     0.090000        1.0080           0
     34850 WT14     294      MECN     H12      HGA3     0.090000        1.0080           0
     34851 WT14     294      MECN     H13      HGA3     0.090000        1.0080           0
     34852 WT14     294      MECN     C2       CG1N1    0.360000       12.0110           0
     34853 WT14     294      MECN     N3       NG1T1   -0.460000       14.0070           0
     34854 WT14     297      MECN     C1       CG331   -0.170000       12.0110           0
     34855 WT14     297      MECN     H11      HGA3     0.090000        1.0080           0
     34856 WT14     297      MECN     H12      HGA3     0.090000        1.0080           0
     34857 WT14     297      MECN     H13      HGA3     0.090000        1.0080           0
     34858 WT14     297      MECN     C2       CG1N1    0.360000       12.0110           0
     34859 WT14     297      MECN     N3       NG1T1   -0.460000       14.0070           0
     34860 WT14     298      MECN     C1       CG331   -0.170000       12.0110           0
     34861 WT14     298      MECN     H11      HGA3     0.090000        1.0080           0
     34862 WT14     298      MECN     H12      HGA3     0.090000        1.0080           0
     34863 WT14     298      MECN     H13      HGA3     0.090000        1.0080           0
     34864 WT14     298      MECN     C2       CG1N1    0.360000       12.0110           0
     34865 WT14     298      MECN     N3       NG1T1   -0.460000       14.0070           0
     34866 WT14     299      MECN     C1       CG331   -0.170000       12.0110           0
     34867 WT14     299      MECN     H11      HGA3     0.090000        1.0080           0
     34868 WT14     299      MECN     H12      HGA3     0.090000        1.0080           0
     34869 WT14     299      MECN     H13      HGA3     0.090000        1.0080           0
     34870 WT14     299      MECN     C2       CG1N1    0.360000       12.0110           0
     34871 WT14     299      MECN     N3       NG1T1   -0.460000       14.0070           0
     34872 WT14     300      MECN     C1       CG331   -0.170000       12.0110           0
     34873 WT14     300      MECN     H11      HGA3     0.090000        1.0080           0
     34874 WT14     300      MECN     H12      HGA3     0.090000        1.0080           0
     34875 WT14     300      MECN     H13      HGA3     0.090000        1.0080           0
     34876 WT14     300      MECN     C2       CG1N1    0.360000       12.0110           0
     34877 WT14     300      MECN     N3       NG1T1   -0.460000       14.0070           0
     34878 WT14     301      MECN     C1       CG331   -0.170000       12.0110           0
     34879 WT14     301      MECN     H11      HGA3     0.090000        1.0080           0
     34880 WT14     301      MECN     H12      HGA3     0.090000        1.0080           0
     34881 WT14     301      MECN     H13      HGA3     0.090000        1.0080           0
     34882 WT14     301      MECN     C2       CG1N1    0.360000       12.0110           0
     34883 WT14     301      MECN     N3       NG1T1   -0.460000       14.0070           0
     34884 WT14     303      MECN     C1       CG331   -0.170000       12.0110           0
     34885 WT14     303      MECN     H11      HGA3     0.090000        1.0080           0
     34886 WT14     303      MECN     H12      HGA3     0.090000        1.0080           0
     34887 WT14     303      MECN     H13      HGA3     0.090000        1.0080           0
     34888 WT14     303      MECN     C2       CG1N1    0.360000       12.0110           0
     34889 WT14     303      MECN     N3       NG1T1   -0.460000       14.0070           0
     34890 WT14     304      MECN     C1       CG331   -0.170000       12.0110           0
     34891 WT14     304      MECN     H11      HGA3     0.090000        1.0080           0
     34892 WT14     304      MECN     H12      HGA3     0.090000        1.0080           0
     34893 WT14     304      MECN     H13      HGA3     0.090000        1.0080           0
     34894 WT14     304      MECN     C2       CG1N1    0.360000       12.0110           0
     34895 WT14     304      MECN     N3       NG1T1   -0.460000       14.0070           0
     34896 WT14     306      MECN     C1       CG331   -0.170000       12.0110           0
     34897 WT14     306      MECN     H11      HGA3     0.090000        1.0080           0
     34898 WT14     306      MECN     H12      HGA3     0.090000        1.0080           0
     34899 WT14     306      MECN     H13      HGA3     0.090000        1.0080           0
     34900 WT14     306      MECN     C2       CG1N1    0.360000       12.0110           0
     34901 WT14     306      MECN     N3       NG1T1   -0.460000       14.0070           0
     34902 WT14     307      MECN     C1       CG331   -0.170000       12.0110           0
     34903 WT14     307      MECN     H11      HGA3     0.090000        1.0080           0
     34904 WT14     307      MECN     H12      HGA3     0.090000        1.0080           0
     34905 WT14     307      MECN     H13      HGA3     0.090000        1.0080           0
     34906 WT14     307      MECN     C2       CG1N1    0.360000       12.0110           0
     34907 WT14     307      MECN     N3       NG1T1   -0.460000       14.0070           0
     34908 WT14     309      MECN     C1       CG331   -0.170000       12.0110           0
     34909 WT14     309      MECN     H11      HGA3     0.090000        1.0080           0
     34910 WT14     309      MECN     H12      HGA3     0.090000        1.0080           0
     34911 WT14     309      MECN     H13      HGA3     0.090000        1.0080           0
     34912 WT14     309      MECN     C2       CG1N1    0.360000       12.0110           0
     34913 WT14     309      MECN     N3       NG1T1   -0.460000       14.0070           0
     34914 WT14     310      MECN     C1       CG331   -0.170000       12.0110           0
     34915 WT14     310      MECN     H11      HGA3     0.090000        1.0080           0
     34916 WT14     310      MECN     H12      HGA3     0.090000        1.0080           0
     34917 WT14     310      MECN     H13      HGA3     0.090000        1.0080           0
     34918 WT14     310      MECN     C2       CG1N1    0.360000       12.0110           0
     34919 WT14     310      MECN     N3       NG1T1   -0.460000       14.0070           0
     34920 WT14     311      MECN     C1       CG331   -0.170000       12.0110           0
     34921 WT14     311      MECN     H11      HGA3     0.090000        1.0080           0
     34922 WT14     311      MECN     H12      HGA3     0.090000        1.0080           0
     34923 WT14     311      MECN     H13      HGA3     0.090000        1.0080           0
     34924 WT14     311      MECN     C2       CG1N1    0.360000       12.0110           0
     34925 WT14     311      MECN     N3       NG1T1   -0.460000       14.0070           0
     34926 WT14     312      MECN     C1       CG331   -0.170000       12.0110           0
     34927 WT14     312      MECN     H11      HGA3     0.090000        1.0080           0
     34928 WT14     312      MECN     H12      HGA3     0.090000        1.0080           0
     34929 WT14     312      MECN     H13      HGA3     0.090000        1.0080           0
     34930 WT14     312      MECN     C2       CG1N1    0.360000       12.0110           0
     34931 WT14     312      MECN     N3       NG1T1   -0.460000       14.0070           0
     34932 WT14     313      MECN     C1       CG331   -0.170000       12.0110           0
     34933 WT14     313      MECN     H11      HGA3     0.090000        1.0080           0
     34934 WT14     313      MECN     H12      HGA3     0.090000        1.0080           0
     34935 WT14     313      MECN     H13      HGA3     0.090000        1.0080           0
     34936 WT14     313      MECN     C2       CG1N1    0.360000       12.0110           0
     34937 WT14     313      MECN     N3       NG1T1   -0.460000       14.0070           0
     34938 WT14     314      MECN     C1       CG331   -0.170000       12.0110           0
     34939 WT14     314      MECN     H11      HGA3     0.090000        1.0080           0
     34940 WT14     314      MECN     H12      HGA3     0.090000        1.0080           0
     34941 WT14     314      MECN     H13      HGA3     0.090000        1.0080           0
     34942 WT14     314      MECN     C2       CG1N1    0.360000       12.0110           0
     34943 WT14     314      MECN     N3       NG1T1   -0.460000       14.0070           0
     34944 WT14     315      MECN     C1       CG331   -0.170000       12.0110           0
     34945 WT14     315      MECN     H11      HGA3     0.090000        1.0080           0
     34946 WT14     315      MECN     H12      HGA3     0.090000        1.0080           0
     34947 WT14     315      MECN     H13      HGA3     0.090000        1.0080           0
     34948 WT14     315      MECN     C2       CG1N1    0.360000       12.0110           0
     34949 WT14     315      MECN     N3       NG1T1   -0.460000       14.0070           0
     34950 WT14     316      MECN     C1       CG331   -0.170000       12.0110           0
     34951 WT14     316      MECN     H11      HGA3     0.090000        1.0080           0
     34952 WT14     316      MECN     H12      HGA3     0.090000        1.0080           0
     34953 WT14     316      MECN     H13      HGA3     0.090000        1.0080           0
     34954 WT14     316      MECN     C2       CG1N1    0.360000       12.0110           0
     34955 WT14     316      MECN     N3       NG1T1   -0.460000       14.0070           0
     34956 WT14     317      MECN     C1       CG331   -0.170000       12.0110           0
     34957 WT14     317      MECN     H11      HGA3     0.090000        1.0080           0
     34958 WT14     317      MECN     H12      HGA3     0.090000        1.0080           0
     34959 WT14     317      MECN     H13      HGA3     0.090000        1.0080           0
     34960 WT14     317      MECN     C2       CG1N1    0.360000       12.0110           0
     34961 WT14     317      MECN     N3       NG1T1   -0.460000       14.0070           0
     34962 WT14     318      MECN     C1       CG331   -0.170000       12.0110           0
     34963 WT14     318      MECN     H11      HGA3     0.090000        1.0080           0
     34964 WT14     318      MECN     H12      HGA3     0.090000        1.0080           0
     34965 WT14     318      MECN     H13      HGA3     0.090000        1.0080           0
     34966 WT14     318      MECN     C2       CG1N1    0.360000       12.0110           0
     34967 WT14     318      MECN     N3       NG1T1   -0.460000       14.0070           0
     34968 WT14     319      MECN     C1       CG331   -0.170000       12.0110           0
     34969 WT14     319      MECN     H11      HGA3     0.090000        1.0080           0
     34970 WT14     319      MECN     H12      HGA3     0.090000        1.0080           0
     34971 WT14     319      MECN     H13      HGA3     0.090000        1.0080           0
     34972 WT14     319      MECN     C2       CG1N1    0.360000       12.0110           0
     34973 WT14     319      MECN     N3       NG1T1   -0.460000       14.0070           0
     34974 WT14     320      MECN     C1       CG331   -0.170000       12.0110           0
     34975 WT14     320      MECN     H11      HGA3     0.090000        1.0080           0
     34976 WT14     320      MECN     H12      HGA3     0.090000        1.0080           0
     34977 WT14     320      MECN     H13      HGA3     0.090000        1.0080           0
     34978 WT14     320      MECN     C2       CG1N1    0.360000       12.0110           0
     34979 WT14     320      MECN     N3       NG1T1   -0.460000       14.0070           0
     34980 WT14     321      MECN     C1       CG331   -0.170000       12.0110           0
     34981 WT14     321      MECN     H11      HGA3     0.090000        1.0080           0
     34982 WT14     321      MECN     H12      HGA3     0.090000        1.0080           0
     34983 WT14     321      MECN     H13      HGA3     0.090000        1.0080           0
     34984 WT14     321      MECN     C2       CG1N1    0.360000       12.0110           0
     34985 WT14     321      MECN     N3       NG1T1   -0.460000       14.0070           0
     34986 WT14     322      MECN     C1       CG331   -0.170000       12.0110           0
     34987 WT14     322      MECN     H11      HGA3     0.090000        1.0080           0
     34988 WT14     322      MECN     H12      HGA3     0.090000        1.0080           0
     34989 WT14     322      MECN     H13      HGA3     0.090000        1.0080           0
     34990 WT14     322      MECN     C2       CG1N1    0.360000       12.0110           0
     34991 WT14     322      MECN     N3       NG1T1   -0.460000       14.0070           0
     34992 WT14     324      MECN     C1       CG331   -0.170000       12.0110           0
     34993 WT14     324      MECN     H11      HGA3     0.090000        1.0080           0
     34994 WT14     324      MECN     H12      HGA3     0.090000        1.0080           0
     34995 WT14     324      MECN     H13      HGA3     0.090000        1.0080           0
     34996 WT14     324      MECN     C2       CG1N1    0.360000       12.0110           0
     34997 WT14     324      MECN     N3       NG1T1   -0.460000       14.0070           0
     34998 WT14     325      MECN     C1       CG331   -0.170000       12.0110           0
     34999 WT14     325      MECN     H11      HGA3     0.090000        1.0080           0
     35000 WT14     325      MECN     H12      HGA3     0.090000        1.0080           0
     35001 WT14     325      MECN     H13      HGA3     0.090000        1.0080           0
     35002 WT14     325      MECN     C2       CG1N1    0.360000       12.0110           0
     35003 WT14     325      MECN     N3       NG1T1   -0.460000       14.0070           0
     35004 WT14     327      MECN     C1       CG331   -0.170000       12.0110           0
     35005 WT14     327      MECN     H11      HGA3     0.090000        1.0080           0
     35006 WT14     327      MECN     H12      HGA3     0.090000        1.0080           0
     35007 WT14     327      MECN     H13      HGA3     0.090000        1.0080           0
     35008 WT14     327      MECN     C2       CG1N1    0.360000       12.0110           0
     35009 WT14     327      MECN     N3       NG1T1   -0.460000       14.0070           0
     35010 WT14     328      MECN     C1       CG331   -0.170000       12.0110           0
     35011 WT14     328      MECN     H11      HGA3     0.090000        1.0080           0
     35012 WT14     328      MECN     H12      HGA3     0.090000        1.0080           0
     35013 WT14     328      MECN     H13      HGA3     0.090000        1.0080           0
     35014 WT14     328      MECN     C2       CG1N1    0.360000       12.0110           0
     35015 WT14     328      MECN     N3       NG1T1   -0.460000       14.0070           0
     35016 WT14     329      MECN     C1       CG331   -0.170000       12.0110           0
     35017 WT14     329      MECN     H11      HGA3     0.090000        1.0080           0
     35018 WT14     329      MECN     H12      HGA3     0.090000        1.0080           0
     35019 WT14     329      MECN     H13      HGA3     0.090000        1.0080           0
     35020 WT14     329      MECN     C2       CG1N1    0.360000       12.0110           0
     35021 WT14     329      MECN     N3       NG1T1   -0.460000       14.0070           0
     35022 WT14     330      MECN     C1       CG331   -0.170000       12.0110           0
     35023 WT14     330      MECN     H11      HGA3     0.090000        1.0080           0
     35024 WT14     330      MECN     H12      HGA3     0.090000        1.0080           0
     35025 WT14     330      MECN     H13      HGA3     0.090000        1.0080           0
     35026 WT14     330      MECN     C2       CG1N1    0.360000       12.0110           0
     35027 WT14     330      MECN     N3       NG1T1   -0.460000       14.0070           0
     35028 WT14     331      MECN     C1       CG331   -0.170000       12.0110           0
     35029 WT14     331      MECN     H11      HGA3     0.090000        1.0080           0
     35030 WT14     331      MECN     H12      HGA3     0.090000        1.0080           0
     35031 WT14     331      MECN     H13      HGA3     0.090000        1.0080           0
     35032 WT14     331      MECN     C2       CG1N1    0.360000       12.0110           0
     35033 WT14     331      MECN     N3       NG1T1   -0.460000       14.0070           0
     35034 WT14     332      MECN     C1       CG331   -0.170000       12.0110           0
     35035 WT14     332      MECN     H11      HGA3     0.090000        1.0080           0
     35036 WT14     332      MECN     H12      HGA3     0.090000        1.0080           0
     35037 WT14     332      MECN     H13      HGA3     0.090000        1.0080           0
     35038 WT14     332      MECN     C2       CG1N1    0.360000       12.0110           0
     35039 WT14     332      MECN     N3       NG1T1   -0.460000       14.0070           0
     35040 WT14     334      MECN     C1       CG331   -0.170000       12.0110           0
     35041 WT14     334      MECN     H11      HGA3     0.090000        1.0080           0
     35042 WT14     334      MECN     H12      HGA3     0.090000        1.0080           0
     35043 WT14     334      MECN     H13      HGA3     0.090000        1.0080           0
     35044 WT14     334      MECN     C2       CG1N1    0.360000       12.0110           0
     35045 WT14     334      MECN     N3       NG1T1   -0.460000       14.0070           0
     35046 WT14     335      MECN     C1       CG331   -0.170000       12.0110           0
     35047 WT14     335      MECN     H11      HGA3     0.090000        1.0080           0
     35048 WT14     335      MECN     H12      HGA3     0.090000        1.0080           0
     35049 WT14     335      MECN     H13      HGA3     0.090000        1.0080           0
     35050 WT14     335      MECN     C2       CG1N1    0.360000       12.0110           0
     35051 WT14     335      MECN     N3       NG1T1   -0.460000       14.0070           0
     35052 WT14     336      MECN     C1       CG331   -0.170000       12.0110           0
     35053 WT14     336      MECN     H11      HGA3     0.090000        1.0080           0
     35054 WT14     336      MECN     H12      HGA3     0.090000        1.0080           0
     35055 WT14     336      MECN     H13      HGA3     0.090000        1.0080           0
     35056 WT14     336      MECN     C2       CG1N1    0.360000       12.0110           0
     35057 WT14     336      MECN     N3       NG1T1   -0.460000       14.0070           0
     35058 WT14     337      MECN     C1       CG331   -0.170000       12.0110           0
     35059 WT14     337      MECN     H11      HGA3     0.090000        1.0080           0
     35060 WT14     337      MECN     H12      HGA3     0.090000        1.0080           0
     35061 WT14     337      MECN     H13      HGA3     0.090000        1.0080           0
     35062 WT14     337      MECN     C2       CG1N1    0.360000       12.0110           0
     35063 WT14     337      MECN     N3       NG1T1   -0.460000       14.0070           0
     35064 WT14     338      MECN     C1       CG331   -0.170000       12.0110           0
     35065 WT14     338      MECN     H11      HGA3     0.090000        1.0080           0
     35066 WT14     338      MECN     H12      HGA3     0.090000        1.0080           0
     35067 WT14     338      MECN     H13      HGA3     0.090000        1.0080           0
     35068 WT14     338      MECN     C2       CG1N1    0.360000       12.0110           0
     35069 WT14     338      MECN     N3       NG1T1   -0.460000       14.0070           0
     35070 WT14     339      MECN     C1       CG331   -0.170000       12.0110           0
     35071 WT14     339      MECN     H11      HGA3     0.090000        1.0080           0
     35072 WT14     339      MECN     H12      HGA3     0.090000        1.0080           0
     35073 WT14     339      MECN     H13      HGA3     0.090000        1.0080           0
     35074 WT14     339      MECN     C2       CG1N1    0.360000       12.0110           0
     35075 WT14     339      MECN     N3       NG1T1   -0.460000       14.0070           0
     35076 WT14     340      MECN     C1       CG331   -0.170000       12.0110           0
     35077 WT14     340      MECN     H11      HGA3     0.090000        1.0080           0
     35078 WT14     340      MECN     H12      HGA3     0.090000        1.0080           0
     35079 WT14     340      MECN     H13      HGA3     0.090000        1.0080           0
     35080 WT14     340      MECN     C2       CG1N1    0.360000       12.0110           0
     35081 WT14     340      MECN     N3       NG1T1   -0.460000       14.0070           0
     35082 WT14     341      MECN     C1       CG331   -0.170000       12.0110           0
     35083 WT14     341      MECN     H11      HGA3     0.090000        1.0080           0
     35084 WT14     341      MECN     H12      HGA3     0.090000        1.0080           0
     35085 WT14     341      MECN     H13      HGA3     0.090000        1.0080           0
     35086 WT14     341      MECN     C2       CG1N1    0.360000       12.0110           0
     35087 WT14     341      MECN     N3       NG1T1   -0.460000       14.0070           0
     35088 WT14     342      MECN     C1       CG331   -0.170000       12.0110           0
     35089 WT14     342      MECN     H11      HGA3     0.090000        1.0080           0
     35090 WT14     342      MECN     H12      HGA3     0.090000        1.0080           0
     35091 WT14     342      MECN     H13      HGA3     0.090000        1.0080           0
     35092 WT14     342      MECN     C2       CG1N1    0.360000       12.0110           0
     35093 WT14     342      MECN     N3       NG1T1   -0.460000       14.0070           0
     35094 WT14     343      MECN     C1       CG331   -0.170000       12.0110           0
     35095 WT14     343      MECN     H11      HGA3     0.090000        1.0080           0
     35096 WT14     343      MECN     H12      HGA3     0.090000        1.0080           0
     35097 WT14     343      MECN     H13      HGA3     0.090000        1.0080           0
     35098 WT14     343      MECN     C2       CG1N1    0.360000       12.0110           0
     35099 WT14     343      MECN     N3       NG1T1   -0.460000       14.0070           0
     35100 WT14     344      MECN     C1       CG331   -0.170000       12.0110           0
     35101 WT14     344      MECN     H11      HGA3     0.090000        1.0080           0
     35102 WT14     344      MECN     H12      HGA3     0.090000        1.0080           0
     35103 WT14     344      MECN     H13      HGA3     0.090000        1.0080           0
     35104 WT14     344      MECN     C2       CG1N1    0.360000       12.0110           0
     35105 WT14     344      MECN     N3       NG1T1   -0.460000       14.0070           0
     35106 WT14     345      MECN     C1       CG331   -0.170000       12.0110           0
     35107 WT14     345      MECN     H11      HGA3     0.090000        1.0080           0
     35108 WT14     345      MECN     H12      HGA3     0.090000        1.0080           0
     35109 WT14     345      MECN     H13      HGA3     0.090000        1.0080           0
     35110 WT14     345      MECN     C2       CG1N1    0.360000       12.0110           0
     35111 WT14     345      MECN     N3       NG1T1   -0.460000       14.0070           0
     35112 WT14     347      MECN     C1       CG331   -0.170000       12.0110           0
     35113 WT14     347      MECN     H11      HGA3     0.090000        1.0080           0
     35114 WT14     347      MECN     H12      HGA3     0.090000        1.0080           0
     35115 WT14     347      MECN     H13      HGA3     0.090000        1.0080           0
     35116 WT14     347      MECN     C2       CG1N1    0.360000       12.0110           0
     35117 WT14     347      MECN     N3       NG1T1   -0.460000       14.0070           0
     35118 WT14     349      MECN     C1       CG331   -0.170000       12.0110           0
     35119 WT14     349      MECN     H11      HGA3     0.090000        1.0080           0
     35120 WT14     349      MECN     H12      HGA3     0.090000        1.0080           0
     35121 WT14     349      MECN     H13      HGA3     0.090000        1.0080           0
     35122 WT14     349      MECN     C2       CG1N1    0.360000       12.0110           0
     35123 WT14     349      MECN     N3       NG1T1   -0.460000       14.0070           0
     35124 WT14     350      MECN     C1       CG331   -0.170000       12.0110           0
     35125 WT14     350      MECN     H11      HGA3     0.090000        1.0080           0
     35126 WT14     350      MECN     H12      HGA3     0.090000        1.0080           0
     35127 WT14     350      MECN     H13      HGA3     0.090000        1.0080           0
     35128 WT14     350      MECN     C2       CG1N1    0.360000       12.0110           0
     35129 WT14     350      MECN     N3       NG1T1   -0.460000       14.0070           0
     35130 WT14     351      MECN     C1       CG331   -0.170000       12.0110           0
     35131 WT14     351      MECN     H11      HGA3     0.090000        1.0080           0
     35132 WT14     351      MECN     H12      HGA3     0.090000        1.0080           0
     35133 WT14     351      MECN     H13      HGA3     0.090000        1.0080           0
     35134 WT14     351      MECN     C2       CG1N1    0.360000       12.0110           0
     35135 WT14     351      MECN     N3       NG1T1   -0.460000       14.0070           0
     35136 WT14     352      MECN     C1       CG331   -0.170000       12.0110           0
     35137 WT14     352      MECN     H11      HGA3     0.090000        1.0080           0
     35138 WT14     352      MECN     H12      HGA3     0.090000        1.0080           0
     35139 WT14     352      MECN     H13      HGA3     0.090000        1.0080           0
     35140 WT14     352      MECN     C2       CG1N1    0.360000       12.0110           0
     35141 WT14     352      MECN     N3       NG1T1   -0.460000       14.0070           0
     35142 WT14     353      MECN     C1       CG331   -0.170000       12.0110           0
     35143 WT14     353      MECN     H11      HGA3     0.090000        1.0080           0
     35144 WT14     353      MECN     H12      HGA3     0.090000        1.0080           0
     35145 WT14     353      MECN     H13      HGA3     0.090000        1.0080           0
     35146 WT14     353      MECN     C2       CG1N1    0.360000       12.0110           0
     35147 WT14     353      MECN     N3       NG1T1   -0.460000       14.0070           0
     35148 WT14     354      MECN     C1       CG331   -0.170000       12.0110           0
     35149 WT14     354      MECN     H11      HGA3     0.090000        1.0080           0
     35150 WT14     354      MECN     H12      HGA3     0.090000        1.0080           0
     35151 WT14     354      MECN     H13      HGA3     0.090000        1.0080           0
     35152 WT14     354      MECN     C2       CG1N1    0.360000       12.0110           0
     35153 WT14     354      MECN     N3       NG1T1   -0.460000       14.0070           0
     35154 WT14     355      MECN     C1       CG331   -0.170000       12.0110           0
     35155 WT14     355      MECN     H11      HGA3     0.090000        1.0080           0
     35156 WT14     355      MECN     H12      HGA3     0.090000        1.0080           0
     35157 WT14     355      MECN     H13      HGA3     0.090000        1.0080           0
     35158 WT14     355      MECN     C2       CG1N1    0.360000       12.0110           0
     35159 WT14     355      MECN     N3       NG1T1   -0.460000       14.0070           0
     35160 WT14     357      MECN     C1       CG331   -0.170000       12.0110           0
     35161 WT14     357      MECN     H11      HGA3     0.090000        1.0080           0
     35162 WT14     357      MECN     H12      HGA3     0.090000        1.0080           0
     35163 WT14     357      MECN     H13      HGA3     0.090000        1.0080           0
     35164 WT14     357      MECN     C2       CG1N1    0.360000       12.0110           0
     35165 WT14     357      MECN     N3       NG1T1   -0.460000       14.0070           0
     35166 WT14     358      MECN     C1       CG331   -0.170000       12.0110           0
     35167 WT14     358      MECN     H11      HGA3     0.090000        1.0080           0
     35168 WT14     358      MECN     H12      HGA3     0.090000        1.0080           0
     35169 WT14     358      MECN     H13      HGA3     0.090000        1.0080           0
     35170 WT14     358      MECN     C2       CG1N1    0.360000       12.0110           0
     35171 WT14     358      MECN     N3       NG1T1   -0.460000       14.0070           0
     35172 WT14     359      MECN     C1       CG331   -0.170000       12.0110           0
     35173 WT14     359      MECN     H11      HGA3     0.090000        1.0080           0
     35174 WT14     359      MECN     H12      HGA3     0.090000        1.0080           0
     35175 WT14     359      MECN     H13      HGA3     0.090000        1.0080           0
     35176 WT14     359      MECN     C2       CG1N1    0.360000       12.0110           0
     35177 WT14     359      MECN     N3       NG1T1   -0.460000       14.0070           0
     35178 WT14     360      MECN     C1       CG331   -0.170000       12.0110           0
     35179 WT14     360      MECN     H11      HGA3     0.090000        1.0080           0
     35180 WT14     360      MECN     H12      HGA3     0.090000        1.0080           0
     35181 WT14     360      MECN     H13      HGA3     0.090000        1.0080           0
     35182 WT14     360      MECN     C2       CG1N1    0.360000       12.0110           0
     35183 WT14     360      MECN     N3       NG1T1   -0.460000       14.0070           0
     35184 WT14     361      MECN     C1       CG331   -0.170000       12.0110           0
     35185 WT14     361      MECN     H11      HGA3     0.090000        1.0080           0
     35186 WT14     361      MECN     H12      HGA3     0.090000        1.0080           0
     35187 WT14     361      MECN     H13      HGA3     0.090000        1.0080           0
     35188 WT14     361      MECN     C2       CG1N1    0.360000       12.0110           0
     35189 WT14     361      MECN     N3       NG1T1   -0.460000       14.0070           0
     35190 WT14     362      MECN     C1       CG331   -0.170000       12.0110           0
     35191 WT14     362      MECN     H11      HGA3     0.090000        1.0080           0
     35192 WT14     362      MECN     H12      HGA3     0.090000        1.0080           0
     35193 WT14     362      MECN     H13      HGA3     0.090000        1.0080           0
     35194 WT14     362      MECN     C2       CG1N1    0.360000       12.0110           0
     35195 WT14     362      MECN     N3       NG1T1   -0.460000       14.0070           0
     35196 WT14     363      MECN     C1       CG331   -0.170000       12.0110           0
     35197 WT14     363      MECN     H11      HGA3     0.090000        1.0080           0
     35198 WT14     363      MECN     H12      HGA3     0.090000        1.0080           0
     35199 WT14     363      MECN     H13      HGA3     0.090000        1.0080           0
     35200 WT14     363      MECN     C2       CG1N1    0.360000       12.0110           0
     35201 WT14     363      MECN     N3       NG1T1   -0.460000       14.0070           0
     35202 WT14     364      MECN     C1       CG331   -0.170000       12.0110           0
     35203 WT14     364      MECN     H11      HGA3     0.090000        1.0080           0
     35204 WT14     364      MECN     H12      HGA3     0.090000        1.0080           0
     35205 WT14     364      MECN     H13      HGA3     0.090000        1.0080           0
     35206 WT14     364      MECN     C2       CG1N1    0.360000       12.0110           0
     35207 WT14     364      MECN     N3       NG1T1   -0.460000       14.0070           0
     35208 WT14     365      MECN     C1       CG331   -0.170000       12.0110           0
     35209 WT14     365      MECN     H11      HGA3     0.090000        1.0080           0
     35210 WT14     365      MECN     H12      HGA3     0.090000        1.0080           0
     35211 WT14     365      MECN     H13      HGA3     0.090000        1.0080           0
     35212 WT14     365      MECN     C2       CG1N1    0.360000       12.0110           0
     35213 WT14     365      MECN     N3       NG1T1   -0.460000       14.0070           0
     35214 WT14     366      MECN     C1       CG331   -0.170000       12.0110           0
     35215 WT14     366      MECN     H11      HGA3     0.090000        1.0080           0
     35216 WT14     366      MECN     H12      HGA3     0.090000        1.0080           0
     35217 WT14     366      MECN     H13      HGA3     0.090000        1.0080           0
     35218 WT14     366      MECN     C2       CG1N1    0.360000       12.0110           0
     35219 WT14     366      MECN     N3       NG1T1   -0.460000       14.0070           0
     35220 WT14     367      MECN     C1       CG331   -0.170000       12.0110           0
     35221 WT14     367      MECN     H11      HGA3     0.090000        1.0080           0
     35222 WT14     367      MECN     H12      HGA3     0.090000        1.0080           0
     35223 WT14     367      MECN     H13      HGA3     0.090000        1.0080           0
     35224 WT14     367      MECN     C2       CG1N1    0.360000       12.0110           0
     35225 WT14     367      MECN     N3       NG1T1   -0.460000       14.0070           0
     35226 WT14     368      MECN     C1       CG331   -0.170000       12.0110           0
     35227 WT14     368      MECN     H11      HGA3     0.090000        1.0080           0
     35228 WT14     368      MECN     H12      HGA3     0.090000        1.0080           0
     35229 WT14     368      MECN     H13      HGA3     0.090000        1.0080           0
     35230 WT14     368      MECN     C2       CG1N1    0.360000       12.0110           0
     35231 WT14     368      MECN     N3       NG1T1   -0.460000       14.0070           0
     35232 WT14     370      MECN     C1       CG331   -0.170000       12.0110           0
     35233 WT14     370      MECN     H11      HGA3     0.090000        1.0080           0
     35234 WT14     370      MECN     H12      HGA3     0.090000        1.0080           0
     35235 WT14     370      MECN     H13      HGA3     0.090000        1.0080           0
     35236 WT14     370      MECN     C2       CG1N1    0.360000       12.0110           0
     35237 WT14     370      MECN     N3       NG1T1   -0.460000       14.0070           0
     35238 WT14     372      MECN     C1       CG331   -0.170000       12.0110           0
     35239 WT14     372      MECN     H11      HGA3     0.090000        1.0080           0
     35240 WT14     372      MECN     H12      HGA3     0.090000        1.0080           0
     35241 WT14     372      MECN     H13      HGA3     0.090000        1.0080           0
     35242 WT14     372      MECN     C2       CG1N1    0.360000       12.0110           0
     35243 WT14     372      MECN     N3       NG1T1   -0.460000       14.0070           0
     35244 WT14     373      MECN     C1       CG331   -0.170000       12.0110           0
     35245 WT14     373      MECN     H11      HGA3     0.090000        1.0080           0
     35246 WT14     373      MECN     H12      HGA3     0.090000        1.0080           0
     35247 WT14     373      MECN     H13      HGA3     0.090000        1.0080           0
     35248 WT14     373      MECN     C2       CG1N1    0.360000       12.0110           0
     35249 WT14     373      MECN     N3       NG1T1   -0.460000       14.0070           0
     35250 WT14     375      MECN     C1       CG331   -0.170000       12.0110           0
     35251 WT14     375      MECN     H11      HGA3     0.090000        1.0080           0
     35252 WT14     375      MECN     H12      HGA3     0.090000        1.0080           0
     35253 WT14     375      MECN     H13      HGA3     0.090000        1.0080           0
     35254 WT14     375      MECN     C2       CG1N1    0.360000       12.0110           0
     35255 WT14     375      MECN     N3       NG1T1   -0.460000       14.0070           0
     35256 WT14     376      MECN     C1       CG331   -0.170000       12.0110           0
     35257 WT14     376      MECN     H11      HGA3     0.090000        1.0080           0
     35258 WT14     376      MECN     H12      HGA3     0.090000        1.0080           0
     35259 WT14     376      MECN     H13      HGA3     0.090000        1.0080           0
     35260 WT14     376      MECN     C2       CG1N1    0.360000       12.0110           0
     35261 WT14     376      MECN     N3       NG1T1   -0.460000       14.0070           0
     35262 WT14     377      MECN     C1       CG331   -0.170000       12.0110           0
     35263 WT14     377      MECN     H11      HGA3     0.090000        1.0080           0
     35264 WT14     377      MECN     H12      HGA3     0.090000        1.0080           0
     35265 WT14     377      MECN     H13      HGA3     0.090000        1.0080           0
     35266 WT14     377      MECN     C2       CG1N1    0.360000       12.0110           0
     35267 WT14     377      MECN     N3       NG1T1   -0.460000       14.0070           0
     35268 WT14     378      MECN     C1       CG331   -0.170000       12.0110           0
     35269 WT14     378      MECN     H11      HGA3     0.090000        1.0080           0
     35270 WT14     378      MECN     H12      HGA3     0.090000        1.0080           0
     35271 WT14     378      MECN     H13      HGA3     0.090000        1.0080           0
     35272 WT14     378      MECN     C2       CG1N1    0.360000       12.0110           0
     35273 WT14     378      MECN     N3       NG1T1   -0.460000       14.0070           0
     35274 WT14     379      MECN     C1       CG331   -0.170000       12.0110           0
     35275 WT14     379      MECN     H11      HGA3     0.090000        1.0080           0
     35276 WT14     379      MECN     H12      HGA3     0.090000        1.0080           0
     35277 WT14     379      MECN     H13      HGA3     0.090000        1.0080           0
     35278 WT14     379      MECN     C2       CG1N1    0.360000       12.0110           0
     35279 WT14     379      MECN     N3       NG1T1   -0.460000       14.0070           0
     35280 WT14     380      MECN     C1       CG331   -0.170000       12.0110           0
     35281 WT14     380      MECN     H11      HGA3     0.090000        1.0080           0
     35282 WT14     380      MECN     H12      HGA3     0.090000        1.0080           0
     35283 WT14     380      MECN     H13      HGA3     0.090000        1.0080           0
     35284 WT14     380      MECN     C2       CG1N1    0.360000       12.0110           0
     35285 WT14     380      MECN     N3       NG1T1   -0.460000       14.0070           0
     35286 WT14     381      MECN     C1       CG331   -0.170000       12.0110           0
     35287 WT14     381      MECN     H11      HGA3     0.090000        1.0080           0
     35288 WT14     381      MECN     H12      HGA3     0.090000        1.0080           0
     35289 WT14     381      MECN     H13      HGA3     0.090000        1.0080           0
     35290 WT14     381      MECN     C2       CG1N1    0.360000       12.0110           0
     35291 WT14     381      MECN     N3       NG1T1   -0.460000       14.0070           0
     35292 WT14     382      MECN     C1       CG331   -0.170000       12.0110           0
     35293 WT14     382      MECN     H11      HGA3     0.090000        1.0080           0
     35294 WT14     382      MECN     H12      HGA3     0.090000        1.0080           0
     35295 WT14     382      MECN     H13      HGA3     0.090000        1.0080           0
     35296 WT14     382      MECN     C2       CG1N1    0.360000       12.0110           0
     35297 WT14     382      MECN     N3       NG1T1   -0.460000       14.0070           0
     35298 WT14     383      MECN     C1       CG331   -0.170000       12.0110           0
     35299 WT14     383      MECN     H11      HGA3     0.090000        1.0080           0
     35300 WT14     383      MECN     H12      HGA3     0.090000        1.0080           0
     35301 WT14     383      MECN     H13      HGA3     0.090000        1.0080           0
     35302 WT14     383      MECN     C2       CG1N1    0.360000       12.0110           0
     35303 WT14     383      MECN     N3       NG1T1   -0.460000       14.0070           0
     35304 WT14     385      MECN     C1       CG331   -0.170000       12.0110           0
     35305 WT14     385      MECN     H11      HGA3     0.090000        1.0080           0
     35306 WT14     385      MECN     H12      HGA3     0.090000        1.0080           0
     35307 WT14     385      MECN     H13      HGA3     0.090000        1.0080           0
     35308 WT14     385      MECN     C2       CG1N1    0.360000       12.0110           0
     35309 WT14     385      MECN     N3       NG1T1   -0.460000       14.0070           0
     35310 WT14     386      MECN     C1       CG331   -0.170000       12.0110           0
     35311 WT14     386      MECN     H11      HGA3     0.090000        1.0080           0
     35312 WT14     386      MECN     H12      HGA3     0.090000        1.0080           0
     35313 WT14     386      MECN     H13      HGA3     0.090000        1.0080           0
     35314 WT14     386      MECN     C2       CG1N1    0.360000       12.0110           0
     35315 WT14     386      MECN     N3       NG1T1   -0.460000       14.0070           0
     35316 WT14     387      MECN     C1       CG331   -0.170000       12.0110           0
     35317 WT14     387      MECN     H11      HGA3     0.090000        1.0080           0
     35318 WT14     387      MECN     H12      HGA3     0.090000        1.0080           0
     35319 WT14     387      MECN     H13      HGA3     0.090000        1.0080           0
     35320 WT14     387      MECN     C2       CG1N1    0.360000       12.0110           0
     35321 WT14     387      MECN     N3       NG1T1   -0.460000       14.0070           0
     35322 WT14     389      MECN     C1       CG331   -0.170000       12.0110           0
     35323 WT14     389      MECN     H11      HGA3     0.090000        1.0080           0
     35324 WT14     389      MECN     H12      HGA3     0.090000        1.0080           0
     35325 WT14     389      MECN     H13      HGA3     0.090000        1.0080           0
     35326 WT14     389      MECN     C2       CG1N1    0.360000       12.0110           0
     35327 WT14     389      MECN     N3       NG1T1   -0.460000       14.0070           0
     35328 WT14     390      MECN     C1       CG331   -0.170000       12.0110           0
     35329 WT14     390      MECN     H11      HGA3     0.090000        1.0080           0
     35330 WT14     390      MECN     H12      HGA3     0.090000        1.0080           0
     35331 WT14     390      MECN     H13      HGA3     0.090000        1.0080           0
     35332 WT14     390      MECN     C2       CG1N1    0.360000       12.0110           0
     35333 WT14     390      MECN     N3       NG1T1   -0.460000       14.0070           0
     35334 WT14     392      MECN     C1       CG331   -0.170000       12.0110           0
     35335 WT14     392      MECN     H11      HGA3     0.090000        1.0080           0
     35336 WT14     392      MECN     H12      HGA3     0.090000        1.0080           0
     35337 WT14     392      MECN     H13      HGA3     0.090000        1.0080           0
     35338 WT14     392      MECN     C2       CG1N1    0.360000       12.0110           0
     35339 WT14     392      MECN     N3       NG1T1   -0.460000       14.0070           0
     35340 WT14     393      MECN     C1       CG331   -0.170000       12.0110           0
     35341 WT14     393      MECN     H11      HGA3     0.090000        1.0080           0
     35342 WT14     393      MECN     H12      HGA3     0.090000        1.0080           0
     35343 WT14     393      MECN     H13      HGA3     0.090000        1.0080           0
     35344 WT14     393      MECN     C2       CG1N1    0.360000       12.0110           0
     35345 WT14     393      MECN     N3       NG1T1   -0.460000       14.0070           0
     35346 WT14     394      MECN     C1       CG331   -0.170000       12.0110           0
     35347 WT14     394      MECN     H11      HGA3     0.090000        1.0080           0
     35348 WT14     394      MECN     H12      HGA3     0.090000        1.0080           0
     35349 WT14     394      MECN     H13      HGA3     0.090000        1.0080           0
     35350 WT14     394      MECN     C2       CG1N1    0.360000       12.0110           0
     35351 WT14     394      MECN     N3       NG1T1   -0.460000       14.0070           0
     35352 WT14     396      MECN     C1       CG331   -0.170000       12.0110           0
     35353 WT14     396      MECN     H11      HGA3     0.090000        1.0080           0
     35354 WT14     396      MECN     H12      HGA3     0.090000        1.0080           0
     35355 WT14     396      MECN     H13      HGA3     0.090000        1.0080           0
     35356 WT14     396      MECN     C2       CG1N1    0.360000       12.0110           0
     35357 WT14     396      MECN     N3       NG1T1   -0.460000       14.0070           0
     35358 WT14     397      MECN     C1       CG331   -0.170000       12.0110           0
     35359 WT14     397      MECN     H11      HGA3     0.090000        1.0080           0
     35360 WT14     397      MECN     H12      HGA3     0.090000        1.0080           0
     35361 WT14     397      MECN     H13      HGA3     0.090000        1.0080           0
     35362 WT14     397      MECN     C2       CG1N1    0.360000       12.0110           0
     35363 WT14     397      MECN     N3       NG1T1   -0.460000       14.0070           0
     35364 WT14     398      MECN     C1       CG331   -0.170000       12.0110           0
     35365 WT14     398      MECN     H11      HGA3     0.090000        1.0080           0
     35366 WT14     398      MECN     H12      HGA3     0.090000        1.0080           0
     35367 WT14     398      MECN     H13      HGA3     0.090000        1.0080           0
     35368 WT14     398      MECN     C2       CG1N1    0.360000       12.0110           0
     35369 WT14     398      MECN     N3       NG1T1   -0.460000       14.0070           0
     35370 WT14     399      MECN     C1       CG331   -0.170000       12.0110           0
     35371 WT14     399      MECN     H11      HGA3     0.090000        1.0080           0
     35372 WT14     399      MECN     H12      HGA3     0.090000        1.0080           0
     35373 WT14     399      MECN     H13      HGA3     0.090000        1.0080           0
     35374 WT14     399      MECN     C2       CG1N1    0.360000       12.0110           0
     35375 WT14     399      MECN     N3       NG1T1   -0.460000       14.0070           0
     35376 WT14     400      MECN     C1       CG331   -0.170000       12.0110           0
     35377 WT14     400      MECN     H11      HGA3     0.090000        1.0080           0
     35378 WT14     400      MECN     H12      HGA3     0.090000        1.0080           0
     35379 WT14     400      MECN     H13      HGA3     0.090000        1.0080           0
     35380 WT14     400      MECN     C2       CG1N1    0.360000       12.0110           0
     35381 WT14     400      MECN     N3       NG1T1   -0.460000       14.0070           0
     35382 WT14     402      MECN     C1       CG331   -0.170000       12.0110           0
     35383 WT14     402      MECN     H11      HGA3     0.090000        1.0080           0
     35384 WT14     402      MECN     H12      HGA3     0.090000        1.0080           0
     35385 WT14     402      MECN     H13      HGA3     0.090000        1.0080           0
     35386 WT14     402      MECN     C2       CG1N1    0.360000       12.0110           0
     35387 WT14     402      MECN     N3       NG1T1   -0.460000       14.0070           0
     35388 WT14     403      MECN     C1       CG331   -0.170000       12.0110           0
     35389 WT14     403      MECN     H11      HGA3     0.090000        1.0080           0
     35390 WT14     403      MECN     H12      HGA3     0.090000        1.0080           0
     35391 WT14     403      MECN     H13      HGA3     0.090000        1.0080           0
     35392 WT14     403      MECN     C2       CG1N1    0.360000       12.0110           0
     35393 WT14     403      MECN     N3       NG1T1   -0.460000       14.0070           0
     35394 WT14     404      MECN     C1       CG331   -0.170000       12.0110           0
     35395 WT14     404      MECN     H11      HGA3     0.090000        1.0080           0
     35396 WT14     404      MECN     H12      HGA3     0.090000        1.0080           0
     35397 WT14     404      MECN     H13      HGA3     0.090000        1.0080           0
     35398 WT14     404      MECN     C2       CG1N1    0.360000       12.0110           0
     35399 WT14     404      MECN     N3       NG1T1   -0.460000       14.0070           0
     35400 WT14     405      MECN     C1       CG331   -0.170000       12.0110           0
     35401 WT14     405      MECN     H11      HGA3     0.090000        1.0080           0
     35402 WT14     405      MECN     H12      HGA3     0.090000        1.0080           0
     35403 WT14     405      MECN     H13      HGA3     0.090000        1.0080           0
     35404 WT14     405      MECN     C2       CG1N1    0.360000       12.0110           0
     35405 WT14     405      MECN     N3       NG1T1   -0.460000       14.0070           0
     35406 WT14     406      MECN     C1       CG331   -0.170000       12.0110           0
     35407 WT14     406      MECN     H11      HGA3     0.090000        1.0080           0
     35408 WT14     406      MECN     H12      HGA3     0.090000        1.0080           0
     35409 WT14     406      MECN     H13      HGA3     0.090000        1.0080           0
     35410 WT14     406      MECN     C2       CG1N1    0.360000       12.0110           0
     35411 WT14     406      MECN     N3       NG1T1   -0.460000       14.0070           0
     35412 WT14     407      MECN     C1       CG331   -0.170000       12.0110           0
     35413 WT14     407      MECN     H11      HGA3     0.090000        1.0080           0
     35414 WT14     407      MECN     H12      HGA3     0.090000        1.0080           0
     35415 WT14     407      MECN     H13      HGA3     0.090000        1.0080           0
     35416 WT14     407      MECN     C2       CG1N1    0.360000       12.0110           0
     35417 WT14     407      MECN     N3       NG1T1   -0.460000       14.0070           0
     35418 WT14     408      MECN     C1       CG331   -0.170000       12.0110           0
     35419 WT14     408      MECN     H11      HGA3     0.090000        1.0080           0
     35420 WT14     408      MECN     H12      HGA3     0.090000        1.0080           0
     35421 WT14     408      MECN     H13      HGA3     0.090000        1.0080           0
     35422 WT14     408      MECN     C2       CG1N1    0.360000       12.0110           0
     35423 WT14     408      MECN     N3       NG1T1   -0.460000       14.0070           0
     35424 WT14     409      MECN     C1       CG331   -0.170000       12.0110           0
     35425 WT14     409      MECN     H11      HGA3     0.090000        1.0080           0
     35426 WT14     409      MECN     H12      HGA3     0.090000        1.0080           0
     35427 WT14     409      MECN     H13      HGA3     0.090000        1.0080           0
     35428 WT14     409      MECN     C2       CG1N1    0.360000       12.0110           0
     35429 WT14     409      MECN     N3       NG1T1   -0.460000       14.0070           0
     35430 WT14     410      MECN     C1       CG331   -0.170000       12.0110           0
     35431 WT14     410      MECN     H11      HGA3     0.090000        1.0080           0
     35432 WT14     410      MECN     H12      HGA3     0.090000        1.0080           0
     35433 WT14     410      MECN     H13      HGA3     0.090000        1.0080           0
     35434 WT14     410      MECN     C2       CG1N1    0.360000       12.0110           0
     35435 WT14     410      MECN     N3       NG1T1   -0.460000       14.0070           0
     35436 WT14     411      MECN     C1       CG331   -0.170000       12.0110           0
     35437 WT14     411      MECN     H11      HGA3     0.090000        1.0080           0
     35438 WT14     411      MECN     H12      HGA3     0.090000        1.0080           0
     35439 WT14     411      MECN     H13      HGA3     0.090000        1.0080           0
     35440 WT14     411      MECN     C2       CG1N1    0.360000       12.0110           0
     35441 WT14     411      MECN     N3       NG1T1   -0.460000       14.0070           0
     35442 WT14     412      MECN     C1       CG331   -0.170000       12.0110           0
     35443 WT14     412      MECN     H11      HGA3     0.090000        1.0080           0
     35444 WT14     412      MECN     H12      HGA3     0.090000        1.0080           0
     35445 WT14     412      MECN     H13      HGA3     0.090000        1.0080           0
     35446 WT14     412      MECN     C2       CG1N1    0.360000       12.0110           0
     35447 WT14     412      MECN     N3       NG1T1   -0.460000       14.0070           0
     35448 WT14     413      MECN     C1       CG331   -0.170000       12.0110           0
     35449 WT14     413      MECN     H11      HGA3     0.090000        1.0080           0
     35450 WT14     413      MECN     H12      HGA3     0.090000        1.0080           0
     35451 WT14     413      MECN     H13      HGA3     0.090000        1.0080           0
     35452 WT14     413      MECN     C2       CG1N1    0.360000       12.0110           0
     35453 WT14     413      MECN     N3       NG1T1   -0.460000       14.0070           0
     35454 WT14     417      MECN     C1       CG331   -0.170000       12.0110           0
     35455 WT14     417      MECN     H11      HGA3     0.090000        1.0080           0
     35456 WT14     417      MECN     H12      HGA3     0.090000        1.0080           0
     35457 WT14     417      MECN     H13      HGA3     0.090000        1.0080           0
     35458 WT14     417      MECN     C2       CG1N1    0.360000       12.0110           0
     35459 WT14     417      MECN     N3       NG1T1   -0.460000       14.0070           0
     35460 WT14     418      MECN     C1       CG331   -0.170000       12.0110           0
     35461 WT14     418      MECN     H11      HGA3     0.090000        1.0080           0
     35462 WT14     418      MECN     H12      HGA3     0.090000        1.0080           0
     35463 WT14     418      MECN     H13      HGA3     0.090000        1.0080           0
     35464 WT14     418      MECN     C2       CG1N1    0.360000       12.0110           0
     35465 WT14     418      MECN     N3       NG1T1   -0.460000       14.0070           0
     35466 WT14     419      MECN     C1       CG331   -0.170000       12.0110           0
     35467 WT14     419      MECN     H11      HGA3     0.090000        1.0080           0
     35468 WT14     419      MECN     H12      HGA3     0.090000        1.0080           0
     35469 WT14     419      MECN     H13      HGA3     0.090000        1.0080           0
     35470 WT14     419      MECN     C2       CG1N1    0.360000       12.0110           0
     35471 WT14     419      MECN     N3       NG1T1   -0.460000       14.0070           0
     35472 WT14     421      MECN     C1       CG331   -0.170000       12.0110           0
     35473 WT14     421      MECN     H11      HGA3     0.090000        1.0080           0
     35474 WT14     421      MECN     H12      HGA3     0.090000        1.0080           0
     35475 WT14     421      MECN     H13      HGA3     0.090000        1.0080           0
     35476 WT14     421      MECN     C2       CG1N1    0.360000       12.0110           0
     35477 WT14     421      MECN     N3       NG1T1   -0.460000       14.0070           0
     35478 WT14     422      MECN     C1       CG331   -0.170000       12.0110           0
     35479 WT14     422      MECN     H11      HGA3     0.090000        1.0080           0
     35480 WT14     422      MECN     H12      HGA3     0.090000        1.0080           0
     35481 WT14     422      MECN     H13      HGA3     0.090000        1.0080           0
     35482 WT14     422      MECN     C2       CG1N1    0.360000       12.0110           0
     35483 WT14     422      MECN     N3       NG1T1   -0.460000       14.0070           0
     35484 WT14     423      MECN     C1       CG331   -0.170000       12.0110           0
     35485 WT14     423      MECN     H11      HGA3     0.090000        1.0080           0
     35486 WT14     423      MECN     H12      HGA3     0.090000        1.0080           0
     35487 WT14     423      MECN     H13      HGA3     0.090000        1.0080           0
     35488 WT14     423      MECN     C2       CG1N1    0.360000       12.0110           0
     35489 WT14     423      MECN     N3       NG1T1   -0.460000       14.0070           0
     35490 WT14     424      MECN     C1       CG331   -0.170000       12.0110           0
     35491 WT14     424      MECN     H11      HGA3     0.090000        1.0080           0
     35492 WT14     424      MECN     H12      HGA3     0.090000        1.0080           0
     35493 WT14     424      MECN     H13      HGA3     0.090000        1.0080           0
     35494 WT14     424      MECN     C2       CG1N1    0.360000       12.0110           0
     35495 WT14     424      MECN     N3       NG1T1   -0.460000       14.0070           0
     35496 WT14     425      MECN     C1       CG331   -0.170000       12.0110           0
     35497 WT14     425      MECN     H11      HGA3     0.090000        1.0080           0
     35498 WT14     425      MECN     H12      HGA3     0.090000        1.0080           0
     35499 WT14     425      MECN     H13      HGA3     0.090000        1.0080           0
     35500 WT14     425      MECN     C2       CG1N1    0.360000       12.0110           0
     35501 WT14     425      MECN     N3       NG1T1   -0.460000       14.0070           0
     35502 WT14     426      MECN     C1       CG331   -0.170000       12.0110           0
     35503 WT14     426      MECN     H11      HGA3     0.090000        1.0080           0
     35504 WT14     426      MECN     H12      HGA3     0.090000        1.0080           0
     35505 WT14     426      MECN     H13      HGA3     0.090000        1.0080           0
     35506 WT14     426      MECN     C2       CG1N1    0.360000       12.0110           0
     35507 WT14     426      MECN     N3       NG1T1   -0.460000       14.0070           0
     35508 WT14     427      MECN     C1       CG331   -0.170000       12.0110           0
     35509 WT14     427      MECN     H11      HGA3     0.090000        1.0080           0
     35510 WT14     427      MECN     H12      HGA3     0.090000        1.0080           0
     35511 WT14     427      MECN     H13      HGA3     0.090000        1.0080           0
     35512 WT14     427      MECN     C2       CG1N1    0.360000       12.0110           0
     35513 WT14     427      MECN     N3       NG1T1   -0.460000       14.0070           0
     35514 WT14     428      MECN     C1       CG331   -0.170000       12.0110           0
     35515 WT14     428      MECN     H11      HGA3     0.090000        1.0080           0
     35516 WT14     428      MECN     H12      HGA3     0.090000        1.0080           0
     35517 WT14     428      MECN     H13      HGA3     0.090000        1.0080           0
     35518 WT14     428      MECN     C2       CG1N1    0.360000       12.0110           0
     35519 WT14     428      MECN     N3       NG1T1   -0.460000       14.0070           0
     35520 WT14     429      MECN     C1       CG331   -0.170000       12.0110           0
     35521 WT14     429      MECN     H11      HGA3     0.090000        1.0080           0
     35522 WT14     429      MECN     H12      HGA3     0.090000        1.0080           0
     35523 WT14     429      MECN     H13      HGA3     0.090000        1.0080           0
     35524 WT14     429      MECN     C2       CG1N1    0.360000       12.0110           0
     35525 WT14     429      MECN     N3       NG1T1   -0.460000       14.0070           0
     35526 WT14     431      MECN     C1       CG331   -0.170000       12.0110           0
     35527 WT14     431      MECN     H11      HGA3     0.090000        1.0080           0
     35528 WT14     431      MECN     H12      HGA3     0.090000        1.0080           0
     35529 WT14     431      MECN     H13      HGA3     0.090000        1.0080           0
     35530 WT14     431      MECN     C2       CG1N1    0.360000       12.0110           0
     35531 WT14     431      MECN     N3       NG1T1   -0.460000       14.0070           0
     35532 WT14     432      MECN     C1       CG331   -0.170000       12.0110           0
     35533 WT14     432      MECN     H11      HGA3     0.090000        1.0080           0
     35534 WT14     432      MECN     H12      HGA3     0.090000        1.0080           0
     35535 WT14     432      MECN     H13      HGA3     0.090000        1.0080           0
     35536 WT14     432      MECN     C2       CG1N1    0.360000       12.0110           0
     35537 WT14     432      MECN     N3       NG1T1   -0.460000       14.0070           0
     35538 WT14     433      MECN     C1       CG331   -0.170000       12.0110           0
     35539 WT14     433      MECN     H11      HGA3     0.090000        1.0080           0
     35540 WT14     433      MECN     H12      HGA3     0.090000        1.0080           0
     35541 WT14     433      MECN     H13      HGA3     0.090000        1.0080           0
     35542 WT14     433      MECN     C2       CG1N1    0.360000       12.0110           0
     35543 WT14     433      MECN     N3       NG1T1   -0.460000       14.0070           0
     35544 WT14     434      MECN     C1       CG331   -0.170000       12.0110           0
     35545 WT14     434      MECN     H11      HGA3     0.090000        1.0080           0
     35546 WT14     434      MECN     H12      HGA3     0.090000        1.0080           0
     35547 WT14     434      MECN     H13      HGA3     0.090000        1.0080           0
     35548 WT14     434      MECN     C2       CG1N1    0.360000       12.0110           0
     35549 WT14     434      MECN     N3       NG1T1   -0.460000       14.0070           0
     35550 WT14     435      MECN     C1       CG331   -0.170000       12.0110           0
     35551 WT14     435      MECN     H11      HGA3     0.090000        1.0080           0
     35552 WT14     435      MECN     H12      HGA3     0.090000        1.0080           0
     35553 WT14     435      MECN     H13      HGA3     0.090000        1.0080           0
     35554 WT14     435      MECN     C2       CG1N1    0.360000       12.0110           0
     35555 WT14     435      MECN     N3       NG1T1   -0.460000       14.0070           0
     35556 WT14     437      MECN     C1       CG331   -0.170000       12.0110           0
     35557 WT14     437      MECN     H11      HGA3     0.090000        1.0080           0
     35558 WT14     437      MECN     H12      HGA3     0.090000        1.0080           0
     35559 WT14     437      MECN     H13      HGA3     0.090000        1.0080           0
     35560 WT14     437      MECN     C2       CG1N1    0.360000       12.0110           0
     35561 WT14     437      MECN     N3       NG1T1   -0.460000       14.0070           0
     35562 WT14     438      MECN     C1       CG331   -0.170000       12.0110           0
     35563 WT14     438      MECN     H11      HGA3     0.090000        1.0080           0
     35564 WT14     438      MECN     H12      HGA3     0.090000        1.0080           0
     35565 WT14     438      MECN     H13      HGA3     0.090000        1.0080           0
     35566 WT14     438      MECN     C2       CG1N1    0.360000       12.0110           0
     35567 WT14     438      MECN     N3       NG1T1   -0.460000       14.0070           0
     35568 WT14     441      MECN     C1       CG331   -0.170000       12.0110           0
     35569 WT14     441      MECN     H11      HGA3     0.090000        1.0080           0
     35570 WT14     441      MECN     H12      HGA3     0.090000        1.0080           0
     35571 WT14     441      MECN     H13      HGA3     0.090000        1.0080           0
     35572 WT14     441      MECN     C2       CG1N1    0.360000       12.0110           0
     35573 WT14     441      MECN     N3       NG1T1   -0.460000       14.0070           0
     35574 WT14     442      MECN     C1       CG331   -0.170000       12.0110           0
     35575 WT14     442      MECN     H11      HGA3     0.090000        1.0080           0
     35576 WT14     442      MECN     H12      HGA3     0.090000        1.0080           0
     35577 WT14     442      MECN     H13      HGA3     0.090000        1.0080           0
     35578 WT14     442      MECN     C2       CG1N1    0.360000       12.0110           0
     35579 WT14     442      MECN     N3       NG1T1   -0.460000       14.0070           0
     35580 WT14     443      MECN     C1       CG331   -0.170000       12.0110           0
     35581 WT14     443      MECN     H11      HGA3     0.090000        1.0080           0
     35582 WT14     443      MECN     H12      HGA3     0.090000        1.0080           0
     35583 WT14     443      MECN     H13      HGA3     0.090000        1.0080           0
     35584 WT14     443      MECN     C2       CG1N1    0.360000       12.0110           0
     35585 WT14     443      MECN     N3       NG1T1   -0.460000       14.0070           0
     35586 WT14     444      MECN     C1       CG331   -0.170000       12.0110           0
     35587 WT14     444      MECN     H11      HGA3     0.090000        1.0080           0
     35588 WT14     444      MECN     H12      HGA3     0.090000        1.0080           0
     35589 WT14     444      MECN     H13      HGA3     0.090000        1.0080           0
     35590 WT14     444      MECN     C2       CG1N1    0.360000       12.0110           0
     35591 WT14     444      MECN     N3       NG1T1   -0.460000       14.0070           0
     35592 WT14     445      MECN     C1       CG331   -0.170000       12.0110           0
     35593 WT14     445      MECN     H11      HGA3     0.090000        1.0080           0
     35594 WT14     445      MECN     H12      HGA3     0.090000        1.0080           0
     35595 WT14     445      MECN     H13      HGA3     0.090000        1.0080           0
     35596 WT14     445      MECN     C2       CG1N1    0.360000       12.0110           0
     35597 WT14     445      MECN     N3       NG1T1   -0.460000       14.0070           0
     35598 WT14     446      MECN     C1       CG331   -0.170000       12.0110           0
     35599 WT14     446      MECN     H11      HGA3     0.090000        1.0080           0
     35600 WT14     446      MECN     H12      HGA3     0.090000        1.0080           0
     35601 WT14     446      MECN     H13      HGA3     0.090000        1.0080           0
     35602 WT14     446      MECN     C2       CG1N1    0.360000       12.0110           0
     35603 WT14     446      MECN     N3       NG1T1   -0.460000       14.0070           0
     35604 WT14     447      MECN     C1       CG331   -0.170000       12.0110           0
     35605 WT14     447      MECN     H11      HGA3     0.090000        1.0080           0
     35606 WT14     447      MECN     H12      HGA3     0.090000        1.0080           0
     35607 WT14     447      MECN     H13      HGA3     0.090000        1.0080           0
     35608 WT14     447      MECN     C2       CG1N1    0.360000       12.0110           0
     35609 WT14     447      MECN     N3       NG1T1   -0.460000       14.0070           0
     35610 WT14     448      MECN     C1       CG331   -0.170000       12.0110           0
     35611 WT14     448      MECN     H11      HGA3     0.090000        1.0080           0
     35612 WT14     448      MECN     H12      HGA3     0.090000        1.0080           0
     35613 WT14     448      MECN     H13      HGA3     0.090000        1.0080           0
     35614 WT14     448      MECN     C2       CG1N1    0.360000       12.0110           0
     35615 WT14     448      MECN     N3       NG1T1   -0.460000       14.0070           0
     35616 WT14     450      MECN     C1       CG331   -0.170000       12.0110           0
     35617 WT14     450      MECN     H11      HGA3     0.090000        1.0080           0
     35618 WT14     450      MECN     H12      HGA3     0.090000        1.0080           0
     35619 WT14     450      MECN     H13      HGA3     0.090000        1.0080           0
     35620 WT14     450      MECN     C2       CG1N1    0.360000       12.0110           0
     35621 WT14     450      MECN     N3       NG1T1   -0.460000       14.0070           0
     35622 WT14     452      MECN     C1       CG331   -0.170000       12.0110           0
     35623 WT14     452      MECN     H11      HGA3     0.090000        1.0080           0
     35624 WT14     452      MECN     H12      HGA3     0.090000        1.0080           0
     35625 WT14     452      MECN     H13      HGA3     0.090000        1.0080           0
     35626 WT14     452      MECN     C2       CG1N1    0.360000       12.0110           0
     35627 WT14     452      MECN     N3       NG1T1   -0.460000       14.0070           0
     35628 WT14     453      MECN     C1       CG331   -0.170000       12.0110           0
     35629 WT14     453      MECN     H11      HGA3     0.090000        1.0080           0
     35630 WT14     453      MECN     H12      HGA3     0.090000        1.0080           0
     35631 WT14     453      MECN     H13      HGA3     0.090000        1.0080           0
     35632 WT14     453      MECN     C2       CG1N1    0.360000       12.0110           0
     35633 WT14     453      MECN     N3       NG1T1   -0.460000       14.0070           0
     35634 WT14     455      MECN     C1       CG331   -0.170000       12.0110           0
     35635 WT14     455      MECN     H11      HGA3     0.090000        1.0080           0
     35636 WT14     455      MECN     H12      HGA3     0.090000        1.0080           0
     35637 WT14     455      MECN     H13      HGA3     0.090000        1.0080           0
     35638 WT14     455      MECN     C2       CG1N1    0.360000       12.0110           0
     35639 WT14     455      MECN     N3       NG1T1   -0.460000       14.0070           0
     35640 WT14     457      MECN     C1       CG331   -0.170000       12.0110           0
     35641 WT14     457      MECN     H11      HGA3     0.090000        1.0080           0
     35642 WT14     457      MECN     H12      HGA3     0.090000        1.0080           0
     35643 WT14     457      MECN     H13      HGA3     0.090000        1.0080           0
     35644 WT14     457      MECN     C2       CG1N1    0.360000       12.0110           0
     35645 WT14     457      MECN     N3       NG1T1   -0.460000       14.0070           0
     35646 WT14     458      MECN     C1       CG331   -0.170000       12.0110           0
     35647 WT14     458      MECN     H11      HGA3     0.090000        1.0080           0
     35648 WT14     458      MECN     H12      HGA3     0.090000        1.0080           0
     35649 WT14     458      MECN     H13      HGA3     0.090000        1.0080           0
     35650 WT14     458      MECN     C2       CG1N1    0.360000       12.0110           0
     35651 WT14     458      MECN     N3       NG1T1   -0.460000       14.0070           0
     35652 WT14     459      MECN     C1       CG331   -0.170000       12.0110           0
     35653 WT14     459      MECN     H11      HGA3     0.090000        1.0080           0
     35654 WT14     459      MECN     H12      HGA3     0.090000        1.0080           0
     35655 WT14     459      MECN     H13      HGA3     0.090000        1.0080           0
     35656 WT14     459      MECN     C2       CG1N1    0.360000       12.0110           0
     35657 WT14     459      MECN     N3       NG1T1   -0.460000       14.0070           0
     35658 WT14     460      MECN     C1       CG331   -0.170000       12.0110           0
     35659 WT14     460      MECN     H11      HGA3     0.090000        1.0080           0
     35660 WT14     460      MECN     H12      HGA3     0.090000        1.0080           0
     35661 WT14     460      MECN     H13      HGA3     0.090000        1.0080           0
     35662 WT14     460      MECN     C2       CG1N1    0.360000       12.0110           0
     35663 WT14     460      MECN     N3       NG1T1   -0.460000       14.0070           0
     35664 WT14     461      MECN     C1       CG331   -0.170000       12.0110           0
     35665 WT14     461      MECN     H11      HGA3     0.090000        1.0080           0
     35666 WT14     461      MECN     H12      HGA3     0.090000        1.0080           0
     35667 WT14     461      MECN     H13      HGA3     0.090000        1.0080           0
     35668 WT14     461      MECN     C2       CG1N1    0.360000       12.0110           0
     35669 WT14     461      MECN     N3       NG1T1   -0.460000       14.0070           0
     35670 WT14     462      MECN     C1       CG331   -0.170000       12.0110           0
     35671 WT14     462      MECN     H11      HGA3     0.090000        1.0080           0
     35672 WT14     462      MECN     H12      HGA3     0.090000        1.0080           0
     35673 WT14     462      MECN     H13      HGA3     0.090000        1.0080           0
     35674 WT14     462      MECN     C2       CG1N1    0.360000       12.0110           0
     35675 WT14     462      MECN     N3       NG1T1   -0.460000       14.0070           0
     35676 WT14     463      MECN     C1       CG331   -0.170000       12.0110           0
     35677 WT14     463      MECN     H11      HGA3     0.090000        1.0080           0
     35678 WT14     463      MECN     H12      HGA3     0.090000        1.0080           0
     35679 WT14     463      MECN     H13      HGA3     0.090000        1.0080           0
     35680 WT14     463      MECN     C2       CG1N1    0.360000       12.0110           0
     35681 WT14     463      MECN     N3       NG1T1   -0.460000       14.0070           0
     35682 WT14     465      MECN     C1       CG331   -0.170000       12.0110           0
     35683 WT14     465      MECN     H11      HGA3     0.090000        1.0080           0
     35684 WT14     465      MECN     H12      HGA3     0.090000        1.0080           0
     35685 WT14     465      MECN     H13      HGA3     0.090000        1.0080           0
     35686 WT14     465      MECN     C2       CG1N1    0.360000       12.0110           0
     35687 WT14     465      MECN     N3       NG1T1   -0.460000       14.0070           0
     35688 WT14     466      MECN     C1       CG331   -0.170000       12.0110           0
     35689 WT14     466      MECN     H11      HGA3     0.090000        1.0080           0
     35690 WT14     466      MECN     H12      HGA3     0.090000        1.0080           0
     35691 WT14     466      MECN     H13      HGA3     0.090000        1.0080           0
     35692 WT14     466      MECN     C2       CG1N1    0.360000       12.0110           0
     35693 WT14     466      MECN     N3       NG1T1   -0.460000       14.0070           0
     35694 WT14     467      MECN     C1       CG331   -0.170000       12.0110           0
     35695 WT14     467      MECN     H11      HGA3     0.090000        1.0080           0
     35696 WT14     467      MECN     H12      HGA3     0.090000        1.0080           0
     35697 WT14     467      MECN     H13      HGA3     0.090000        1.0080           0
     35698 WT14     467      MECN     C2       CG1N1    0.360000       12.0110           0
     35699 WT14     467      MECN     N3       NG1T1   -0.460000       14.0070           0
     35700 WT14     468      MECN     C1       CG331   -0.170000       12.0110           0
     35701 WT14     468      MECN     H11      HGA3     0.090000        1.0080           0
     35702 WT14     468      MECN     H12      HGA3     0.090000        1.0080           0
     35703 WT14     468      MECN     H13      HGA3     0.090000        1.0080           0
     35704 WT14     468      MECN     C2       CG1N1    0.360000       12.0110           0
     35705 WT14     468      MECN     N3       NG1T1   -0.460000       14.0070           0
     35706 WT14     469      MECN     C1       CG331   -0.170000       12.0110           0
     35707 WT14     469      MECN     H11      HGA3     0.090000        1.0080           0
     35708 WT14     469      MECN     H12      HGA3     0.090000        1.0080           0
     35709 WT14     469      MECN     H13      HGA3     0.090000        1.0080           0
     35710 WT14     469      MECN     C2       CG1N1    0.360000       12.0110           0
     35711 WT14     469      MECN     N3       NG1T1   -0.460000       14.0070           0
     35712 WT14     470      MECN     C1       CG331   -0.170000       12.0110           0
     35713 WT14     470      MECN     H11      HGA3     0.090000        1.0080           0
     35714 WT14     470      MECN     H12      HGA3     0.090000        1.0080           0
     35715 WT14     470      MECN     H13      HGA3     0.090000        1.0080           0
     35716 WT14     470      MECN     C2       CG1N1    0.360000       12.0110           0
     35717 WT14     470      MECN     N3       NG1T1   -0.460000       14.0070           0
     35718 WT14     471      MECN     C1       CG331   -0.170000       12.0110           0
     35719 WT14     471      MECN     H11      HGA3     0.090000        1.0080           0
     35720 WT14     471      MECN     H12      HGA3     0.090000        1.0080           0
     35721 WT14     471      MECN     H13      HGA3     0.090000        1.0080           0
     35722 WT14     471      MECN     C2       CG1N1    0.360000       12.0110           0
     35723 WT14     471      MECN     N3       NG1T1   -0.460000       14.0070           0
     35724 WT14     473      MECN     C1       CG331   -0.170000       12.0110           0
     35725 WT14     473      MECN     H11      HGA3     0.090000        1.0080           0
     35726 WT14     473      MECN     H12      HGA3     0.090000        1.0080           0
     35727 WT14     473      MECN     H13      HGA3     0.090000        1.0080           0
     35728 WT14     473      MECN     C2       CG1N1    0.360000       12.0110           0
     35729 WT14     473      MECN     N3       NG1T1   -0.460000       14.0070           0
     35730 WT14     474      MECN     C1       CG331   -0.170000       12.0110           0
     35731 WT14     474      MECN     H11      HGA3     0.090000        1.0080           0
     35732 WT14     474      MECN     H12      HGA3     0.090000        1.0080           0
     35733 WT14     474      MECN     H13      HGA3     0.090000        1.0080           0
     35734 WT14     474      MECN     C2       CG1N1    0.360000       12.0110           0
     35735 WT14     474      MECN     N3       NG1T1   -0.460000       14.0070           0
     35736 WT14     475      MECN     C1       CG331   -0.170000       12.0110           0
     35737 WT14     475      MECN     H11      HGA3     0.090000        1.0080           0
     35738 WT14     475      MECN     H12      HGA3     0.090000        1.0080           0
     35739 WT14     475      MECN     H13      HGA3     0.090000        1.0080           0
     35740 WT14     475      MECN     C2       CG1N1    0.360000       12.0110           0
     35741 WT14     475      MECN     N3       NG1T1   -0.460000       14.0070           0
     35742 WT14     476      MECN     C1       CG331   -0.170000       12.0110           0
     35743 WT14     476      MECN     H11      HGA3     0.090000        1.0080           0
     35744 WT14     476      MECN     H12      HGA3     0.090000        1.0080           0
     35745 WT14     476      MECN     H13      HGA3     0.090000        1.0080           0
     35746 WT14     476      MECN     C2       CG1N1    0.360000       12.0110           0
     35747 WT14     476      MECN     N3       NG1T1   -0.460000       14.0070           0
     35748 WT14     478      MECN     C1       CG331   -0.170000       12.0110           0
     35749 WT14     478      MECN     H11      HGA3     0.090000        1.0080           0
     35750 WT14     478      MECN     H12      HGA3     0.090000        1.0080           0
     35751 WT14     478      MECN     H13      HGA3     0.090000        1.0080           0
     35752 WT14     478      MECN     C2       CG1N1    0.360000       12.0110           0
     35753 WT14     478      MECN     N3       NG1T1   -0.460000       14.0070           0
     35754 WT14     479      MECN     C1       CG331   -0.170000       12.0110           0
     35755 WT14     479      MECN     H11      HGA3     0.090000        1.0080           0
     35756 WT14     479      MECN     H12      HGA3     0.090000        1.0080           0
     35757 WT14     479      MECN     H13      HGA3     0.090000        1.0080           0
     35758 WT14     479      MECN     C2       CG1N1    0.360000       12.0110           0
     35759 WT14     479      MECN     N3       NG1T1   -0.460000       14.0070           0
     35760 WT14     481      MECN     C1       CG331   -0.170000       12.0110           0
     35761 WT14     481      MECN     H11      HGA3     0.090000        1.0080           0
     35762 WT14     481      MECN     H12      HGA3     0.090000        1.0080           0
     35763 WT14     481      MECN     H13      HGA3     0.090000        1.0080           0
     35764 WT14     481      MECN     C2       CG1N1    0.360000       12.0110           0
     35765 WT14     481      MECN     N3       NG1T1   -0.460000       14.0070           0
     35766 WT14     482      MECN     C1       CG331   -0.170000       12.0110           0
     35767 WT14     482      MECN     H11      HGA3     0.090000        1.0080           0
     35768 WT14     482      MECN     H12      HGA3     0.090000        1.0080           0
     35769 WT14     482      MECN     H13      HGA3     0.090000        1.0080           0
     35770 WT14     482      MECN     C2       CG1N1    0.360000       12.0110           0
     35771 WT14     482      MECN     N3       NG1T1   -0.460000       14.0070           0
     35772 WT14     483      MECN     C1       CG331   -0.170000       12.0110           0
     35773 WT14     483      MECN     H11      HGA3     0.090000        1.0080           0
     35774 WT14     483      MECN     H12      HGA3     0.090000        1.0080           0
     35775 WT14     483      MECN     H13      HGA3     0.090000        1.0080           0
     35776 WT14     483      MECN     C2       CG1N1    0.360000       12.0110           0
     35777 WT14     483      MECN     N3       NG1T1   -0.460000       14.0070           0
     35778 WT14     485      MECN     C1       CG331   -0.170000       12.0110           0
     35779 WT14     485      MECN     H11      HGA3     0.090000        1.0080           0
     35780 WT14     485      MECN     H12      HGA3     0.090000        1.0080           0
     35781 WT14     485      MECN     H13      HGA3     0.090000        1.0080           0
     35782 WT14     485      MECN     C2       CG1N1    0.360000       12.0110           0
     35783 WT14     485      MECN     N3       NG1T1   -0.460000       14.0070           0
     35784 WT14     486      MECN     C1       CG331   -0.170000       12.0110           0
     35785 WT14     486      MECN     H11      HGA3     0.090000        1.0080           0
     35786 WT14     486      MECN     H12      HGA3     0.090000        1.0080           0
     35787 WT14     486      MECN     H13      HGA3     0.090000        1.0080           0
     35788 WT14     486      MECN     C2       CG1N1    0.360000       12.0110           0
     35789 WT14     486      MECN     N3       NG1T1   -0.460000       14.0070           0
     35790 WT14     487      MECN     C1       CG331   -0.170000       12.0110           0
     35791 WT14     487      MECN     H11      HGA3     0.090000        1.0080           0
     35792 WT14     487      MECN     H12      HGA3     0.090000        1.0080           0
     35793 WT14     487      MECN     H13      HGA3     0.090000        1.0080           0
     35794 WT14     487      MECN     C2       CG1N1    0.360000       12.0110           0
     35795 WT14     487      MECN     N3       NG1T1   -0.460000       14.0070           0
     35796 WT14     489      MECN     C1       CG331   -0.170000       12.0110           0
     35797 WT14     489      MECN     H11      HGA3     0.090000        1.0080           0
     35798 WT14     489      MECN     H12      HGA3     0.090000        1.0080           0
     35799 WT14     489      MECN     H13      HGA3     0.090000        1.0080           0
     35800 WT14     489      MECN     C2       CG1N1    0.360000       12.0110           0
     35801 WT14     489      MECN     N3       NG1T1   -0.460000       14.0070           0
     35802 WT14     490      MECN     C1       CG331   -0.170000       12.0110           0
     35803 WT14     490      MECN     H11      HGA3     0.090000        1.0080           0
     35804 WT14     490      MECN     H12      HGA3     0.090000        1.0080           0
     35805 WT14     490      MECN     H13      HGA3     0.090000        1.0080           0
     35806 WT14     490      MECN     C2       CG1N1    0.360000       12.0110           0
     35807 WT14     490      MECN     N3       NG1T1   -0.460000       14.0070           0
     35808 WT14     491      MECN     C1       CG331   -0.170000       12.0110           0
     35809 WT14     491      MECN     H11      HGA3     0.090000        1.0080           0
     35810 WT14     491      MECN     H12      HGA3     0.090000        1.0080           0
     35811 WT14     491      MECN     H13      HGA3     0.090000        1.0080           0
     35812 WT14     491      MECN     C2       CG1N1    0.360000       12.0110           0
     35813 WT14     491      MECN     N3       NG1T1   -0.460000       14.0070           0
     35814 WT14     492      MECN     C1       CG331   -0.170000       12.0110           0
     35815 WT14     492      MECN     H11      HGA3     0.090000        1.0080           0
     35816 WT14     492      MECN     H12      HGA3     0.090000        1.0080           0
     35817 WT14     492      MECN     H13      HGA3     0.090000        1.0080           0
     35818 WT14     492      MECN     C2       CG1N1    0.360000       12.0110           0
     35819 WT14     492      MECN     N3       NG1T1   -0.460000       14.0070           0
     35820 WT14     493      MECN     C1       CG331   -0.170000       12.0110           0
     35821 WT14     493      MECN     H11      HGA3     0.090000        1.0080           0
     35822 WT14     493      MECN     H12      HGA3     0.090000        1.0080           0
     35823 WT14     493      MECN     H13      HGA3     0.090000        1.0080           0
     35824 WT14     493      MECN     C2       CG1N1    0.360000       12.0110           0
     35825 WT14     493      MECN     N3       NG1T1   -0.460000       14.0070           0
     35826 WT14     495      MECN     C1       CG331   -0.170000       12.0110           0
     35827 WT14     495      MECN     H11      HGA3     0.090000        1.0080           0
     35828 WT14     495      MECN     H12      HGA3     0.090000        1.0080           0
     35829 WT14     495      MECN     H13      HGA3     0.090000        1.0080           0
     35830 WT14     495      MECN     C2       CG1N1    0.360000       12.0110           0
     35831 WT14     495      MECN     N3       NG1T1   -0.460000       14.0070           0
     35832 WT14     496      MECN     C1       CG331   -0.170000       12.0110           0
     35833 WT14     496      MECN     H11      HGA3     0.090000        1.0080           0
     35834 WT14     496      MECN     H12      HGA3     0.090000        1.0080           0
     35835 WT14     496      MECN     H13      HGA3     0.090000        1.0080           0
     35836 WT14     496      MECN     C2       CG1N1    0.360000       12.0110           0
     35837 WT14     496      MECN     N3       NG1T1   -0.460000       14.0070           0
     35838 WT14     498      MECN     C1       CG331   -0.170000       12.0110           0
     35839 WT14     498      MECN     H11      HGA3     0.090000        1.0080           0
     35840 WT14     498      MECN     H12      HGA3     0.090000        1.0080           0
     35841 WT14     498      MECN     H13      HGA3     0.090000        1.0080           0
     35842 WT14     498      MECN     C2       CG1N1    0.360000       12.0110           0
     35843 WT14     498      MECN     N3       NG1T1   -0.460000       14.0070           0
     35844 WT14     499      MECN     C1       CG331   -0.170000       12.0110           0
     35845 WT14     499      MECN     H11      HGA3     0.090000        1.0080           0
     35846 WT14     499      MECN     H12      HGA3     0.090000        1.0080           0
     35847 WT14     499      MECN     H13      HGA3     0.090000        1.0080           0
     35848 WT14     499      MECN     C2       CG1N1    0.360000       12.0110           0
     35849 WT14     499      MECN     N3       NG1T1   -0.460000       14.0070           0
     35850 WT14     500      MECN     C1       CG331   -0.170000       12.0110           0
     35851 WT14     500      MECN     H11      HGA3     0.090000        1.0080           0
     35852 WT14     500      MECN     H12      HGA3     0.090000        1.0080           0
     35853 WT14     500      MECN     H13      HGA3     0.090000        1.0080           0
     35854 WT14     500      MECN     C2       CG1N1    0.360000       12.0110           0
     35855 WT14     500      MECN     N3       NG1T1   -0.460000       14.0070           0
     35856 WT14     501      MECN     C1       CG331   -0.170000       12.0110           0
     35857 WT14     501      MECN     H11      HGA3     0.090000        1.0080           0
     35858 WT14     501      MECN     H12      HGA3     0.090000        1.0080           0
     35859 WT14     501      MECN     H13      HGA3     0.090000        1.0080           0
     35860 WT14     501      MECN     C2       CG1N1    0.360000       12.0110           0
     35861 WT14     501      MECN     N3       NG1T1   -0.460000       14.0070           0
     35862 WT14     502      MECN     C1       CG331   -0.170000       12.0110           0
     35863 WT14     502      MECN     H11      HGA3     0.090000        1.0080           0
     35864 WT14     502      MECN     H12      HGA3     0.090000        1.0080           0
     35865 WT14     502      MECN     H13      HGA3     0.090000        1.0080           0
     35866 WT14     502      MECN     C2       CG1N1    0.360000       12.0110           0
     35867 WT14     502      MECN     N3       NG1T1   -0.460000       14.0070           0
     35868 WT14     503      MECN     C1       CG331   -0.170000       12.0110           0
     35869 WT14     503      MECN     H11      HGA3     0.090000        1.0080           0
     35870 WT14     503      MECN     H12      HGA3     0.090000        1.0080           0
     35871 WT14     503      MECN     H13      HGA3     0.090000        1.0080           0
     35872 WT14     503      MECN     C2       CG1N1    0.360000       12.0110           0
     35873 WT14     503      MECN     N3       NG1T1   -0.460000       14.0070           0
     35874 WT14     504      MECN     C1       CG331   -0.170000       12.0110           0
     35875 WT14     504      MECN     H11      HGA3     0.090000        1.0080           0
     35876 WT14     504      MECN     H12      HGA3     0.090000        1.0080           0
     35877 WT14     504      MECN     H13      HGA3     0.090000        1.0080           0
     35878 WT14     504      MECN     C2       CG1N1    0.360000       12.0110           0
     35879 WT14     504      MECN     N3       NG1T1   -0.460000       14.0070           0
     35880 WT14     505      MECN     C1       CG331   -0.170000       12.0110           0
     35881 WT14     505      MECN     H11      HGA3     0.090000        1.0080           0
     35882 WT14     505      MECN     H12      HGA3     0.090000        1.0080           0
     35883 WT14     505      MECN     H13      HGA3     0.090000        1.0080           0
     35884 WT14     505      MECN     C2       CG1N1    0.360000       12.0110           0
     35885 WT14     505      MECN     N3       NG1T1   -0.460000       14.0070           0
     35886 WT14     506      MECN     C1       CG331   -0.170000       12.0110           0
     35887 WT14     506      MECN     H11      HGA3     0.090000        1.0080           0
     35888 WT14     506      MECN     H12      HGA3     0.090000        1.0080           0
     35889 WT14     506      MECN     H13      HGA3     0.090000        1.0080           0
     35890 WT14     506      MECN     C2       CG1N1    0.360000       12.0110           0
     35891 WT14     506      MECN     N3       NG1T1   -0.460000       14.0070           0
     35892 WT14     507      MECN     C1       CG331   -0.170000       12.0110           0
     35893 WT14     507      MECN     H11      HGA3     0.090000        1.0080           0
     35894 WT14     507      MECN     H12      HGA3     0.090000        1.0080           0
     35895 WT14     507      MECN     H13      HGA3     0.090000        1.0080           0
     35896 WT14     507      MECN     C2       CG1N1    0.360000       12.0110           0
     35897 WT14     507      MECN     N3       NG1T1   -0.460000       14.0070           0
     35898 WT14     509      MECN     C1       CG331   -0.170000       12.0110           0
     35899 WT14     509      MECN     H11      HGA3     0.090000        1.0080           0
     35900 WT14     509      MECN     H12      HGA3     0.090000        1.0080           0
     35901 WT14     509      MECN     H13      HGA3     0.090000        1.0080           0
     35902 WT14     509      MECN     C2       CG1N1    0.360000       12.0110           0
     35903 WT14     509      MECN     N3       NG1T1   -0.460000       14.0070           0
     35904 WT14     510      MECN     C1       CG331   -0.170000       12.0110           0
     35905 WT14     510      MECN     H11      HGA3     0.090000        1.0080           0
     35906 WT14     510      MECN     H12      HGA3     0.090000        1.0080           0
     35907 WT14     510      MECN     H13      HGA3     0.090000        1.0080           0
     35908 WT14     510      MECN     C2       CG1N1    0.360000       12.0110           0
     35909 WT14     510      MECN     N3       NG1T1   -0.460000       14.0070           0
     35910 WT14     512      MECN     C1       CG331   -0.170000       12.0110           0
     35911 WT14     512      MECN     H11      HGA3     0.090000        1.0080           0
     35912 WT14     512      MECN     H12      HGA3     0.090000        1.0080           0
     35913 WT14     512      MECN     H13      HGA3     0.090000        1.0080           0
     35914 WT14     512      MECN     C2       CG1N1    0.360000       12.0110           0
     35915 WT14     512      MECN     N3       NG1T1   -0.460000       14.0070           0
     35916 WT14     513      MECN     C1       CG331   -0.170000       12.0110           0
     35917 WT14     513      MECN     H11      HGA3     0.090000        1.0080           0
     35918 WT14     513      MECN     H12      HGA3     0.090000        1.0080           0
     35919 WT14     513      MECN     H13      HGA3     0.090000        1.0080           0
     35920 WT14     513      MECN     C2       CG1N1    0.360000       12.0110           0
     35921 WT14     513      MECN     N3       NG1T1   -0.460000       14.0070           0
     35922 WT14     514      MECN     C1       CG331   -0.170000       12.0110           0
     35923 WT14     514      MECN     H11      HGA3     0.090000        1.0080           0
     35924 WT14     514      MECN     H12      HGA3     0.090000        1.0080           0
     35925 WT14     514      MECN     H13      HGA3     0.090000        1.0080           0
     35926 WT14     514      MECN     C2       CG1N1    0.360000       12.0110           0
     35927 WT14     514      MECN     N3       NG1T1   -0.460000       14.0070           0
     35928 WT14     515      MECN     C1       CG331   -0.170000       12.0110           0
     35929 WT14     515      MECN     H11      HGA3     0.090000        1.0080           0
     35930 WT14     515      MECN     H12      HGA3     0.090000        1.0080           0
     35931 WT14     515      MECN     H13      HGA3     0.090000        1.0080           0
     35932 WT14     515      MECN     C2       CG1N1    0.360000       12.0110           0
     35933 WT14     515      MECN     N3       NG1T1   -0.460000       14.0070           0
     35934 WT14     516      MECN     C1       CG331   -0.170000       12.0110           0
     35935 WT14     516      MECN     H11      HGA3     0.090000        1.0080           0
     35936 WT14     516      MECN     H12      HGA3     0.090000        1.0080           0
     35937 WT14     516      MECN     H13      HGA3     0.090000        1.0080           0
     35938 WT14     516      MECN     C2       CG1N1    0.360000       12.0110           0
     35939 WT14     516      MECN     N3       NG1T1   -0.460000       14.0070           0
     35940 WT14     520      MECN     C1       CG331   -0.170000       12.0110           0
     35941 WT14     520      MECN     H11      HGA3     0.090000        1.0080           0
     35942 WT14     520      MECN     H12      HGA3     0.090000        1.0080           0
     35943 WT14     520      MECN     H13      HGA3     0.090000        1.0080           0
     35944 WT14     520      MECN     C2       CG1N1    0.360000       12.0110           0
     35945 WT14     520      MECN     N3       NG1T1   -0.460000       14.0070           0
     35946 WT14     521      MECN     C1       CG331   -0.170000       12.0110           0
     35947 WT14     521      MECN     H11      HGA3     0.090000        1.0080           0
     35948 WT14     521      MECN     H12      HGA3     0.090000        1.0080           0
     35949 WT14     521      MECN     H13      HGA3     0.090000        1.0080           0
     35950 WT14     521      MECN     C2       CG1N1    0.360000       12.0110           0
     35951 WT14     521      MECN     N3       NG1T1   -0.460000       14.0070           0
     35952 WT14     522      MECN     C1       CG331   -0.170000       12.0110           0
     35953 WT14     522      MECN     H11      HGA3     0.090000        1.0080           0
     35954 WT14     522      MECN     H12      HGA3     0.090000        1.0080           0
     35955 WT14     522      MECN     H13      HGA3     0.090000        1.0080           0
     35956 WT14     522      MECN     C2       CG1N1    0.360000       12.0110           0
     35957 WT14     522      MECN     N3       NG1T1   -0.460000       14.0070           0
     35958 WT14     523      MECN     C1       CG331   -0.170000       12.0110           0
     35959 WT14     523      MECN     H11      HGA3     0.090000        1.0080           0
     35960 WT14     523      MECN     H12      HGA3     0.090000        1.0080           0
     35961 WT14     523      MECN     H13      HGA3     0.090000        1.0080           0
     35962 WT14     523      MECN     C2       CG1N1    0.360000       12.0110           0
     35963 WT14     523      MECN     N3       NG1T1   -0.460000       14.0070           0
     35964 WT14     524      MECN     C1       CG331   -0.170000       12.0110           0
     35965 WT14     524      MECN     H11      HGA3     0.090000        1.0080           0
     35966 WT14     524      MECN     H12      HGA3     0.090000        1.0080           0
     35967 WT14     524      MECN     H13      HGA3     0.090000        1.0080           0
     35968 WT14     524      MECN     C2       CG1N1    0.360000       12.0110           0
     35969 WT14     524      MECN     N3       NG1T1   -0.460000       14.0070           0
     35970 WT14     525      MECN     C1       CG331   -0.170000       12.0110           0
     35971 WT14     525      MECN     H11      HGA3     0.090000        1.0080           0
     35972 WT14     525      MECN     H12      HGA3     0.090000        1.0080           0
     35973 WT14     525      MECN     H13      HGA3     0.090000        1.0080           0
     35974 WT14     525      MECN     C2       CG1N1    0.360000       12.0110           0
     35975 WT14     525      MECN     N3       NG1T1   -0.460000       14.0070           0
     35976 WT14     527      MECN     C1       CG331   -0.170000       12.0110           0
     35977 WT14     527      MECN     H11      HGA3     0.090000        1.0080           0
     35978 WT14     527      MECN     H12      HGA3     0.090000        1.0080           0
     35979 WT14     527      MECN     H13      HGA3     0.090000        1.0080           0
     35980 WT14     527      MECN     C2       CG1N1    0.360000       12.0110           0
     35981 WT14     527      MECN     N3       NG1T1   -0.460000       14.0070           0
     35982 WT14     528      MECN     C1       CG331   -0.170000       12.0110           0
     35983 WT14     528      MECN     H11      HGA3     0.090000        1.0080           0
     35984 WT14     528      MECN     H12      HGA3     0.090000        1.0080           0
     35985 WT14     528      MECN     H13      HGA3     0.090000        1.0080           0
     35986 WT14     528      MECN     C2       CG1N1    0.360000       12.0110           0
     35987 WT14     528      MECN     N3       NG1T1   -0.460000       14.0070           0
     35988 WT14     529      MECN     C1       CG331   -0.170000       12.0110           0
     35989 WT14     529      MECN     H11      HGA3     0.090000        1.0080           0
     35990 WT14     529      MECN     H12      HGA3     0.090000        1.0080           0
     35991 WT14     529      MECN     H13      HGA3     0.090000        1.0080           0
     35992 WT14     529      MECN     C2       CG1N1    0.360000       12.0110           0
     35993 WT14     529      MECN     N3       NG1T1   -0.460000       14.0070           0
     35994 WT14     530      MECN     C1       CG331   -0.170000       12.0110           0
     35995 WT14     530      MECN     H11      HGA3     0.090000        1.0080           0
     35996 WT14     530      MECN     H12      HGA3     0.090000        1.0080           0
     35997 WT14     530      MECN     H13      HGA3     0.090000        1.0080           0
     35998 WT14     530      MECN     C2       CG1N1    0.360000       12.0110           0
     35999 WT14     530      MECN     N3       NG1T1   -0.460000       14.0070           0
     36000 WT14     531      MECN     C1       CG331   -0.170000       12.0110           0
     36001 WT14     531      MECN     H11      HGA3     0.090000        1.0080           0
     36002 WT14     531      MECN     H12      HGA3     0.090000        1.0080           0
     36003 WT14     531      MECN     H13      HGA3     0.090000        1.0080           0
     36004 WT14     531      MECN     C2       CG1N1    0.360000       12.0110           0
     36005 WT14     531      MECN     N3       NG1T1   -0.460000       14.0070           0
     36006 WT14     532      MECN     C1       CG331   -0.170000       12.0110           0
     36007 WT14     532      MECN     H11      HGA3     0.090000        1.0080           0
     36008 WT14     532      MECN     H12      HGA3     0.090000        1.0080           0
     36009 WT14     532      MECN     H13      HGA3     0.090000        1.0080           0
     36010 WT14     532      MECN     C2       CG1N1    0.360000       12.0110           0
     36011 WT14     532      MECN     N3       NG1T1   -0.460000       14.0070           0
     36012 WT14     533      MECN     C1       CG331   -0.170000       12.0110           0
     36013 WT14     533      MECN     H11      HGA3     0.090000        1.0080           0
     36014 WT14     533      MECN     H12      HGA3     0.090000        1.0080           0
     36015 WT14     533      MECN     H13      HGA3     0.090000        1.0080           0
     36016 WT14     533      MECN     C2       CG1N1    0.360000       12.0110           0
     36017 WT14     533      MECN     N3       NG1T1   -0.460000       14.0070           0
     36018 WT14     534      MECN     C1       CG331   -0.170000       12.0110           0
     36019 WT14     534      MECN     H11      HGA3     0.090000        1.0080           0
     36020 WT14     534      MECN     H12      HGA3     0.090000        1.0080           0
     36021 WT14     534      MECN     H13      HGA3     0.090000        1.0080           0
     36022 WT14     534      MECN     C2       CG1N1    0.360000       12.0110           0
     36023 WT14     534      MECN     N3       NG1T1   -0.460000       14.0070           0
     36024 WT14     535      MECN     C1       CG331   -0.170000       12.0110           0
     36025 WT14     535      MECN     H11      HGA3     0.090000        1.0080           0
     36026 WT14     535      MECN     H12      HGA3     0.090000        1.0080           0
     36027 WT14     535      MECN     H13      HGA3     0.090000        1.0080           0
     36028 WT14     535      MECN     C2       CG1N1    0.360000       12.0110           0
     36029 WT14     535      MECN     N3       NG1T1   -0.460000       14.0070           0
     36030 WT14     536      MECN     C1       CG331   -0.170000       12.0110           0
     36031 WT14     536      MECN     H11      HGA3     0.090000        1.0080           0
     36032 WT14     536      MECN     H12      HGA3     0.090000        1.0080           0
     36033 WT14     536      MECN     H13      HGA3     0.090000        1.0080           0
     36034 WT14     536      MECN     C2       CG1N1    0.360000       12.0110           0
     36035 WT14     536      MECN     N3       NG1T1   -0.460000       14.0070           0
     36036 WT14     537      MECN     C1       CG331   -0.170000       12.0110           0
     36037 WT14     537      MECN     H11      HGA3     0.090000        1.0080           0
     36038 WT14     537      MECN     H12      HGA3     0.090000        1.0080           0
     36039 WT14     537      MECN     H13      HGA3     0.090000        1.0080           0
     36040 WT14     537      MECN     C2       CG1N1    0.360000       12.0110           0
     36041 WT14     537      MECN     N3       NG1T1   -0.460000       14.0070           0
     36042 WT14     538      MECN     C1       CG331   -0.170000       12.0110           0
     36043 WT14     538      MECN     H11      HGA3     0.090000        1.0080           0
     36044 WT14     538      MECN     H12      HGA3     0.090000        1.0080           0
     36045 WT14     538      MECN     H13      HGA3     0.090000        1.0080           0
     36046 WT14     538      MECN     C2       CG1N1    0.360000       12.0110           0
     36047 WT14     538      MECN     N3       NG1T1   -0.460000       14.0070           0
     36048 WT14     539      MECN     C1       CG331   -0.170000       12.0110           0
     36049 WT14     539      MECN     H11      HGA3     0.090000        1.0080           0
     36050 WT14     539      MECN     H12      HGA3     0.090000        1.0080           0
     36051 WT14     539      MECN     H13      HGA3     0.090000        1.0080           0
     36052 WT14     539      MECN     C2       CG1N1    0.360000       12.0110           0
     36053 WT14     539      MECN     N3       NG1T1   -0.460000       14.0070           0
     36054 WT14     540      MECN     C1       CG331   -0.170000       12.0110           0
     36055 WT14     540      MECN     H11      HGA3     0.090000        1.0080           0
     36056 WT14     540      MECN     H12      HGA3     0.090000        1.0080           0
     36057 WT14     540      MECN     H13      HGA3     0.090000        1.0080           0
     36058 WT14     540      MECN     C2       CG1N1    0.360000       12.0110           0
     36059 WT14     540      MECN     N3       NG1T1   -0.460000       14.0070           0
     36060 WT14     543      MECN     C1       CG331   -0.170000       12.0110           0
     36061 WT14     543      MECN     H11      HGA3     0.090000        1.0080           0
     36062 WT14     543      MECN     H12      HGA3     0.090000        1.0080           0
     36063 WT14     543      MECN     H13      HGA3     0.090000        1.0080           0
     36064 WT14     543      MECN     C2       CG1N1    0.360000       12.0110           0
     36065 WT14     543      MECN     N3       NG1T1   -0.460000       14.0070           0
     36066 WT14     544      MECN     C1       CG331   -0.170000       12.0110           0
     36067 WT14     544      MECN     H11      HGA3     0.090000        1.0080           0
     36068 WT14     544      MECN     H12      HGA3     0.090000        1.0080           0
     36069 WT14     544      MECN     H13      HGA3     0.090000        1.0080           0
     36070 WT14     544      MECN     C2       CG1N1    0.360000       12.0110           0
     36071 WT14     544      MECN     N3       NG1T1   -0.460000       14.0070           0
     36072 WT14     545      MECN     C1       CG331   -0.170000       12.0110           0
     36073 WT14     545      MECN     H11      HGA3     0.090000        1.0080           0
     36074 WT14     545      MECN     H12      HGA3     0.090000        1.0080           0
     36075 WT14     545      MECN     H13      HGA3     0.090000        1.0080           0
     36076 WT14     545      MECN     C2       CG1N1    0.360000       12.0110           0
     36077 WT14     545      MECN     N3       NG1T1   -0.460000       14.0070           0
     36078 WT14     547      MECN     C1       CG331   -0.170000       12.0110           0
     36079 WT14     547      MECN     H11      HGA3     0.090000        1.0080           0
     36080 WT14     547      MECN     H12      HGA3     0.090000        1.0080           0
     36081 WT14     547      MECN     H13      HGA3     0.090000        1.0080           0
     36082 WT14     547      MECN     C2       CG1N1    0.360000       12.0110           0
     36083 WT14     547      MECN     N3       NG1T1   -0.460000       14.0070           0
     36084 WT14     548      MECN     C1       CG331   -0.170000       12.0110           0
     36085 WT14     548      MECN     H11      HGA3     0.090000        1.0080           0
     36086 WT14     548      MECN     H12      HGA3     0.090000        1.0080           0
     36087 WT14     548      MECN     H13      HGA3     0.090000        1.0080           0
     36088 WT14     548      MECN     C2       CG1N1    0.360000       12.0110           0
     36089 WT14     548      MECN     N3       NG1T1   -0.460000       14.0070           0
     36090 WT14     549      MECN     C1       CG331   -0.170000       12.0110           0
     36091 WT14     549      MECN     H11      HGA3     0.090000        1.0080           0
     36092 WT14     549      MECN     H12      HGA3     0.090000        1.0080           0
     36093 WT14     549      MECN     H13      HGA3     0.090000        1.0080           0
     36094 WT14     549      MECN     C2       CG1N1    0.360000       12.0110           0
     36095 WT14     549      MECN     N3       NG1T1   -0.460000       14.0070           0
     36096 WT14     550      MECN     C1       CG331   -0.170000       12.0110           0
     36097 WT14     550      MECN     H11      HGA3     0.090000        1.0080           0
     36098 WT14     550      MECN     H12      HGA3     0.090000        1.0080           0
     36099 WT14     550      MECN     H13      HGA3     0.090000        1.0080           0
     36100 WT14     550      MECN     C2       CG1N1    0.360000       12.0110           0
     36101 WT14     550      MECN     N3       NG1T1   -0.460000       14.0070           0
     36102 WT14     551      MECN     C1       CG331   -0.170000       12.0110           0
     36103 WT14     551      MECN     H11      HGA3     0.090000        1.0080           0
     36104 WT14     551      MECN     H12      HGA3     0.090000        1.0080           0
     36105 WT14     551      MECN     H13      HGA3     0.090000        1.0080           0
     36106 WT14     551      MECN     C2       CG1N1    0.360000       12.0110           0
     36107 WT14     551      MECN     N3       NG1T1   -0.460000       14.0070           0
     36108 WT14     552      MECN     C1       CG331   -0.170000       12.0110           0
     36109 WT14     552      MECN     H11      HGA3     0.090000        1.0080           0
     36110 WT14     552      MECN     H12      HGA3     0.090000        1.0080           0
     36111 WT14     552      MECN     H13      HGA3     0.090000        1.0080           0
     36112 WT14     552      MECN     C2       CG1N1    0.360000       12.0110           0
     36113 WT14     552      MECN     N3       NG1T1   -0.460000       14.0070           0
     36114 WT14     553      MECN     C1       CG331   -0.170000       12.0110           0
     36115 WT14     553      MECN     H11      HGA3     0.090000        1.0080           0
     36116 WT14     553      MECN     H12      HGA3     0.090000        1.0080           0
     36117 WT14     553      MECN     H13      HGA3     0.090000        1.0080           0
     36118 WT14     553      MECN     C2       CG1N1    0.360000       12.0110           0
     36119 WT14     553      MECN     N3       NG1T1   -0.460000       14.0070           0
     36120 WT14     554      MECN     C1       CG331   -0.170000       12.0110           0
     36121 WT14     554      MECN     H11      HGA3     0.090000        1.0080           0
     36122 WT14     554      MECN     H12      HGA3     0.090000        1.0080           0
     36123 WT14     554      MECN     H13      HGA3     0.090000        1.0080           0
     36124 WT14     554      MECN     C2       CG1N1    0.360000       12.0110           0
     36125 WT14     554      MECN     N3       NG1T1   -0.460000       14.0070           0
     36126 WT14     556      MECN     C1       CG331   -0.170000       12.0110           0
     36127 WT14     556      MECN     H11      HGA3     0.090000        1.0080           0
     36128 WT14     556      MECN     H12      HGA3     0.090000        1.0080           0
     36129 WT14     556      MECN     H13      HGA3     0.090000        1.0080           0
     36130 WT14     556      MECN     C2       CG1N1    0.360000       12.0110           0
     36131 WT14     556      MECN     N3       NG1T1   -0.460000       14.0070           0
     36132 WT14     557      MECN     C1       CG331   -0.170000       12.0110           0
     36133 WT14     557      MECN     H11      HGA3     0.090000        1.0080           0
     36134 WT14     557      MECN     H12      HGA3     0.090000        1.0080           0
     36135 WT14     557      MECN     H13      HGA3     0.090000        1.0080           0
     36136 WT14     557      MECN     C2       CG1N1    0.360000       12.0110           0
     36137 WT14     557      MECN     N3       NG1T1   -0.460000       14.0070           0
     36138 WT14     558      MECN     C1       CG331   -0.170000       12.0110           0
     36139 WT14     558      MECN     H11      HGA3     0.090000        1.0080           0
     36140 WT14     558      MECN     H12      HGA3     0.090000        1.0080           0
     36141 WT14     558      MECN     H13      HGA3     0.090000        1.0080           0
     36142 WT14     558      MECN     C2       CG1N1    0.360000       12.0110           0
     36143 WT14     558      MECN     N3       NG1T1   -0.460000       14.0070           0
     36144 WT14     559      MECN     C1       CG331   -0.170000       12.0110           0
     36145 WT14     559      MECN     H11      HGA3     0.090000        1.0080           0
     36146 WT14     559      MECN     H12      HGA3     0.090000        1.0080           0
     36147 WT14     559      MECN     H13      HGA3     0.090000        1.0080           0
     36148 WT14     559      MECN     C2       CG1N1    0.360000       12.0110           0
     36149 WT14     559      MECN     N3       NG1T1   -0.460000       14.0070           0
     36150 WT14     560      MECN     C1       CG331   -0.170000       12.0110           0
     36151 WT14     560      MECN     H11      HGA3     0.090000        1.0080           0
     36152 WT14     560      MECN     H12      HGA3     0.090000        1.0080           0
     36153 WT14     560      MECN     H13      HGA3     0.090000        1.0080           0
     36154 WT14     560      MECN     C2       CG1N1    0.360000       12.0110           0
     36155 WT14     560      MECN     N3       NG1T1   -0.460000       14.0070           0
     36156 WT14     561      MECN     C1       CG331   -0.170000       12.0110           0
     36157 WT14     561      MECN     H11      HGA3     0.090000        1.0080           0
     36158 WT14     561      MECN     H12      HGA3     0.090000        1.0080           0
     36159 WT14     561      MECN     H13      HGA3     0.090000        1.0080           0
     36160 WT14     561      MECN     C2       CG1N1    0.360000       12.0110           0
     36161 WT14     561      MECN     N3       NG1T1   -0.460000       14.0070           0
     36162 WT14     563      MECN     C1       CG331   -0.170000       12.0110           0
     36163 WT14     563      MECN     H11      HGA3     0.090000        1.0080           0
     36164 WT14     563      MECN     H12      HGA3     0.090000        1.0080           0
     36165 WT14     563      MECN     H13      HGA3     0.090000        1.0080           0
     36166 WT14     563      MECN     C2       CG1N1    0.360000       12.0110           0
     36167 WT14     563      MECN     N3       NG1T1   -0.460000       14.0070           0
     36168 WT14     564      MECN     C1       CG331   -0.170000       12.0110           0
     36169 WT14     564      MECN     H11      HGA3     0.090000        1.0080           0
     36170 WT14     564      MECN     H12      HGA3     0.090000        1.0080           0
     36171 WT14     564      MECN     H13      HGA3     0.090000        1.0080           0
     36172 WT14     564      MECN     C2       CG1N1    0.360000       12.0110           0
     36173 WT14     564      MECN     N3       NG1T1   -0.460000       14.0070           0
     36174 WT14     565      MECN     C1       CG331   -0.170000       12.0110           0
     36175 WT14     565      MECN     H11      HGA3     0.090000        1.0080           0
     36176 WT14     565      MECN     H12      HGA3     0.090000        1.0080           0
     36177 WT14     565      MECN     H13      HGA3     0.090000        1.0080           0
     36178 WT14     565      MECN     C2       CG1N1    0.360000       12.0110           0
     36179 WT14     565      MECN     N3       NG1T1   -0.460000       14.0070           0
     36180 WT14     566      MECN     C1       CG331   -0.170000       12.0110           0
     36181 WT14     566      MECN     H11      HGA3     0.090000        1.0080           0
     36182 WT14     566      MECN     H12      HGA3     0.090000        1.0080           0
     36183 WT14     566      MECN     H13      HGA3     0.090000        1.0080           0
     36184 WT14     566      MECN     C2       CG1N1    0.360000       12.0110           0
     36185 WT14     566      MECN     N3       NG1T1   -0.460000       14.0070           0
     36186 WT14     567      MECN     C1       CG331   -0.170000       12.0110           0
     36187 WT14     567      MECN     H11      HGA3     0.090000        1.0080           0
     36188 WT14     567      MECN     H12      HGA3     0.090000        1.0080           0
     36189 WT14     567      MECN     H13      HGA3     0.090000        1.0080           0
     36190 WT14     567      MECN     C2       CG1N1    0.360000       12.0110           0
     36191 WT14     567      MECN     N3       NG1T1   -0.460000       14.0070           0
     36192 WT14     568      MECN     C1       CG331   -0.170000       12.0110           0
     36193 WT14     568      MECN     H11      HGA3     0.090000        1.0080           0
     36194 WT14     568      MECN     H12      HGA3     0.090000        1.0080           0
     36195 WT14     568      MECN     H13      HGA3     0.090000        1.0080           0
     36196 WT14     568      MECN     C2       CG1N1    0.360000       12.0110           0
     36197 WT14     568      MECN     N3       NG1T1   -0.460000       14.0070           0
     36198 WT14     570      MECN     C1       CG331   -0.170000       12.0110           0
     36199 WT14     570      MECN     H11      HGA3     0.090000        1.0080           0
     36200 WT14     570      MECN     H12      HGA3     0.090000        1.0080           0
     36201 WT14     570      MECN     H13      HGA3     0.090000        1.0080           0
     36202 WT14     570      MECN     C2       CG1N1    0.360000       12.0110           0
     36203 WT14     570      MECN     N3       NG1T1   -0.460000       14.0070           0
     36204 WT14     571      MECN     C1       CG331   -0.170000       12.0110           0
     36205 WT14     571      MECN     H11      HGA3     0.090000        1.0080           0
     36206 WT14     571      MECN     H12      HGA3     0.090000        1.0080           0
     36207 WT14     571      MECN     H13      HGA3     0.090000        1.0080           0
     36208 WT14     571      MECN     C2       CG1N1    0.360000       12.0110           0
     36209 WT14     571      MECN     N3       NG1T1   -0.460000       14.0070           0
     36210 WT14     572      MECN     C1       CG331   -0.170000       12.0110           0
     36211 WT14     572      MECN     H11      HGA3     0.090000        1.0080           0
     36212 WT14     572      MECN     H12      HGA3     0.090000        1.0080           0
     36213 WT14     572      MECN     H13      HGA3     0.090000        1.0080           0
     36214 WT14     572      MECN     C2       CG1N1    0.360000       12.0110           0
     36215 WT14     572      MECN     N3       NG1T1   -0.460000       14.0070           0
     36216 WT14     573      MECN     C1       CG331   -0.170000       12.0110           0
     36217 WT14     573      MECN     H11      HGA3     0.090000        1.0080           0
     36218 WT14     573      MECN     H12      HGA3     0.090000        1.0080           0
     36219 WT14     573      MECN     H13      HGA3     0.090000        1.0080           0
     36220 WT14     573      MECN     C2       CG1N1    0.360000       12.0110           0
     36221 WT14     573      MECN     N3       NG1T1   -0.460000       14.0070           0
     36222 WT14     574      MECN     C1       CG331   -0.170000       12.0110           0
     36223 WT14     574      MECN     H11      HGA3     0.090000        1.0080           0
     36224 WT14     574      MECN     H12      HGA3     0.090000        1.0080           0
     36225 WT14     574      MECN     H13      HGA3     0.090000        1.0080           0
     36226 WT14     574      MECN     C2       CG1N1    0.360000       12.0110           0
     36227 WT14     574      MECN     N3       NG1T1   -0.460000       14.0070           0
     36228 WT14     575      MECN     C1       CG331   -0.170000       12.0110           0
     36229 WT14     575      MECN     H11      HGA3     0.090000        1.0080           0
     36230 WT14     575      MECN     H12      HGA3     0.090000        1.0080           0
     36231 WT14     575      MECN     H13      HGA3     0.090000        1.0080           0
     36232 WT14     575      MECN     C2       CG1N1    0.360000       12.0110           0
     36233 WT14     575      MECN     N3       NG1T1   -0.460000       14.0070           0
     36234 WT14     576      MECN     C1       CG331   -0.170000       12.0110           0
     36235 WT14     576      MECN     H11      HGA3     0.090000        1.0080           0
     36236 WT14     576      MECN     H12      HGA3     0.090000        1.0080           0
     36237 WT14     576      MECN     H13      HGA3     0.090000        1.0080           0
     36238 WT14     576      MECN     C2       CG1N1    0.360000       12.0110           0
     36239 WT14     576      MECN     N3       NG1T1   -0.460000       14.0070           0
     36240 WT14     577      MECN     C1       CG331   -0.170000       12.0110           0
     36241 WT14     577      MECN     H11      HGA3     0.090000        1.0080           0
     36242 WT14     577      MECN     H12      HGA3     0.090000        1.0080           0
     36243 WT14     577      MECN     H13      HGA3     0.090000        1.0080           0
     36244 WT14     577      MECN     C2       CG1N1    0.360000       12.0110           0
     36245 WT14     577      MECN     N3       NG1T1   -0.460000       14.0070           0
     36246 WT14     581      MECN     C1       CG331   -0.170000       12.0110           0
     36247 WT14     581      MECN     H11      HGA3     0.090000        1.0080           0
     36248 WT14     581      MECN     H12      HGA3     0.090000        1.0080           0
     36249 WT14     581      MECN     H13      HGA3     0.090000        1.0080           0
     36250 WT14     581      MECN     C2       CG1N1    0.360000       12.0110           0
     36251 WT14     581      MECN     N3       NG1T1   -0.460000       14.0070           0
     36252 WT14     582      MECN     C1       CG331   -0.170000       12.0110           0
     36253 WT14     582      MECN     H11      HGA3     0.090000        1.0080           0
     36254 WT14     582      MECN     H12      HGA3     0.090000        1.0080           0
     36255 WT14     582      MECN     H13      HGA3     0.090000        1.0080           0
     36256 WT14     582      MECN     C2       CG1N1    0.360000       12.0110           0
     36257 WT14     582      MECN     N3       NG1T1   -0.460000       14.0070           0
     36258 WT14     583      MECN     C1       CG331   -0.170000       12.0110           0
     36259 WT14     583      MECN     H11      HGA3     0.090000        1.0080           0
     36260 WT14     583      MECN     H12      HGA3     0.090000        1.0080           0
     36261 WT14     583      MECN     H13      HGA3     0.090000        1.0080           0
     36262 WT14     583      MECN     C2       CG1N1    0.360000       12.0110           0
     36263 WT14     583      MECN     N3       NG1T1   -0.460000       14.0070           0
     36264 WT14     584      MECN     C1       CG331   -0.170000       12.0110           0
     36265 WT14     584      MECN     H11      HGA3     0.090000        1.0080           0
     36266 WT14     584      MECN     H12      HGA3     0.090000        1.0080           0
     36267 WT14     584      MECN     H13      HGA3     0.090000        1.0080           0
     36268 WT14     584      MECN     C2       CG1N1    0.360000       12.0110           0
     36269 WT14     584      MECN     N3       NG1T1   -0.460000       14.0070           0
     36270 WT14     586      MECN     C1       CG331   -0.170000       12.0110           0
     36271 WT14     586      MECN     H11      HGA3     0.090000        1.0080           0
     36272 WT14     586      MECN     H12      HGA3     0.090000        1.0080           0
     36273 WT14     586      MECN     H13      HGA3     0.090000        1.0080           0
     36274 WT14     586      MECN     C2       CG1N1    0.360000       12.0110           0
     36275 WT14     586      MECN     N3       NG1T1   -0.460000       14.0070           0
     36276 WT14     588      MECN     C1       CG331   -0.170000       12.0110           0
     36277 WT14     588      MECN     H11      HGA3     0.090000        1.0080           0
     36278 WT14     588      MECN     H12      HGA3     0.090000        1.0080           0
     36279 WT14     588      MECN     H13      HGA3     0.090000        1.0080           0
     36280 WT14     588      MECN     C2       CG1N1    0.360000       12.0110           0
     36281 WT14     588      MECN     N3       NG1T1   -0.460000       14.0070           0
     36282 WT14     589      MECN     C1       CG331   -0.170000       12.0110           0
     36283 WT14     589      MECN     H11      HGA3     0.090000        1.0080           0
     36284 WT14     589      MECN     H12      HGA3     0.090000        1.0080           0
     36285 WT14     589      MECN     H13      HGA3     0.090000        1.0080           0
     36286 WT14     589      MECN     C2       CG1N1    0.360000       12.0110           0
     36287 WT14     589      MECN     N3       NG1T1   -0.460000       14.0070           0
     36288 WT14     591      MECN     C1       CG331   -0.170000       12.0110           0
     36289 WT14     591      MECN     H11      HGA3     0.090000        1.0080           0
     36290 WT14     591      MECN     H12      HGA3     0.090000        1.0080           0
     36291 WT14     591      MECN     H13      HGA3     0.090000        1.0080           0
     36292 WT14     591      MECN     C2       CG1N1    0.360000       12.0110           0
     36293 WT14     591      MECN     N3       NG1T1   -0.460000       14.0070           0
     36294 WT14     592      MECN     C1       CG331   -0.170000       12.0110           0
     36295 WT14     592      MECN     H11      HGA3     0.090000        1.0080           0
     36296 WT14     592      MECN     H12      HGA3     0.090000        1.0080           0
     36297 WT14     592      MECN     H13      HGA3     0.090000        1.0080           0
     36298 WT14     592      MECN     C2       CG1N1    0.360000       12.0110           0
     36299 WT14     592      MECN     N3       NG1T1   -0.460000       14.0070           0
     36300 WT14     593      MECN     C1       CG331   -0.170000       12.0110           0
     36301 WT14     593      MECN     H11      HGA3     0.090000        1.0080           0
     36302 WT14     593      MECN     H12      HGA3     0.090000        1.0080           0
     36303 WT14     593      MECN     H13      HGA3     0.090000        1.0080           0
     36304 WT14     593      MECN     C2       CG1N1    0.360000       12.0110           0
     36305 WT14     593      MECN     N3       NG1T1   -0.460000       14.0070           0
     36306 WT14     594      MECN     C1       CG331   -0.170000       12.0110           0
     36307 WT14     594      MECN     H11      HGA3     0.090000        1.0080           0
     36308 WT14     594      MECN     H12      HGA3     0.090000        1.0080           0
     36309 WT14     594      MECN     H13      HGA3     0.090000        1.0080           0
     36310 WT14     594      MECN     C2       CG1N1    0.360000       12.0110           0
     36311 WT14     594      MECN     N3       NG1T1   -0.460000       14.0070           0
     36312 WT14     596      MECN     C1       CG331   -0.170000       12.0110           0
     36313 WT14     596      MECN     H11      HGA3     0.090000        1.0080           0
     36314 WT14     596      MECN     H12      HGA3     0.090000        1.0080           0
     36315 WT14     596      MECN     H13      HGA3     0.090000        1.0080           0
     36316 WT14     596      MECN     C2       CG1N1    0.360000       12.0110           0
     36317 WT14     596      MECN     N3       NG1T1   -0.460000       14.0070           0
     36318 WT14     597      MECN     C1       CG331   -0.170000       12.0110           0
     36319 WT14     597      MECN     H11      HGA3     0.090000        1.0080           0
     36320 WT14     597      MECN     H12      HGA3     0.090000        1.0080           0
     36321 WT14     597      MECN     H13      HGA3     0.090000        1.0080           0
     36322 WT14     597      MECN     C2       CG1N1    0.360000       12.0110           0
     36323 WT14     597      MECN     N3       NG1T1   -0.460000       14.0070           0
     36324 WT14     598      MECN     C1       CG331   -0.170000       12.0110           0
     36325 WT14     598      MECN     H11      HGA3     0.090000        1.0080           0
     36326 WT14     598      MECN     H12      HGA3     0.090000        1.0080           0
     36327 WT14     598      MECN     H13      HGA3     0.090000        1.0080           0
     36328 WT14     598      MECN     C2       CG1N1    0.360000       12.0110           0
     36329 WT14     598      MECN     N3       NG1T1   -0.460000       14.0070           0
     36330 WT14     599      MECN     C1       CG331   -0.170000       12.0110           0
     36331 WT14     599      MECN     H11      HGA3     0.090000        1.0080           0
     36332 WT14     599      MECN     H12      HGA3     0.090000        1.0080           0
     36333 WT14     599      MECN     H13      HGA3     0.090000        1.0080           0
     36334 WT14     599      MECN     C2       CG1N1    0.360000       12.0110           0
     36335 WT14     599      MECN     N3       NG1T1   -0.460000       14.0070           0
     36336 WT14     600      MECN     C1       CG331   -0.170000       12.0110           0
     36337 WT14     600      MECN     H11      HGA3     0.090000        1.0080           0
     36338 WT14     600      MECN     H12      HGA3     0.090000        1.0080           0
     36339 WT14     600      MECN     H13      HGA3     0.090000        1.0080           0
     36340 WT14     600      MECN     C2       CG1N1    0.360000       12.0110           0
     36341 WT14     600      MECN     N3       NG1T1   -0.460000       14.0070           0
     36342 WT14     601      MECN     C1       CG331   -0.170000       12.0110           0
     36343 WT14     601      MECN     H11      HGA3     0.090000        1.0080           0
     36344 WT14     601      MECN     H12      HGA3     0.090000        1.0080           0
     36345 WT14     601      MECN     H13      HGA3     0.090000        1.0080           0
     36346 WT14     601      MECN     C2       CG1N1    0.360000       12.0110           0
     36347 WT14     601      MECN     N3       NG1T1   -0.460000       14.0070           0
     36348 WT14     603      MECN     C1       CG331   -0.170000       12.0110           0
     36349 WT14     603      MECN     H11      HGA3     0.090000        1.0080           0
     36350 WT14     603      MECN     H12      HGA3     0.090000        1.0080           0
     36351 WT14     603      MECN     H13      HGA3     0.090000        1.0080           0
     36352 WT14     603      MECN     C2       CG1N1    0.360000       12.0110           0
     36353 WT14     603      MECN     N3       NG1T1   -0.460000       14.0070           0
     36354 WT14     604      MECN     C1       CG331   -0.170000       12.0110           0
     36355 WT14     604      MECN     H11      HGA3     0.090000        1.0080           0
     36356 WT14     604      MECN     H12      HGA3     0.090000        1.0080           0
     36357 WT14     604      MECN     H13      HGA3     0.090000        1.0080           0
     36358 WT14     604      MECN     C2       CG1N1    0.360000       12.0110           0
     36359 WT14     604      MECN     N3       NG1T1   -0.460000       14.0070           0
     36360 WT14     606      MECN     C1       CG331   -0.170000       12.0110           0
     36361 WT14     606      MECN     H11      HGA3     0.090000        1.0080           0
     36362 WT14     606      MECN     H12      HGA3     0.090000        1.0080           0
     36363 WT14     606      MECN     H13      HGA3     0.090000        1.0080           0
     36364 WT14     606      MECN     C2       CG1N1    0.360000       12.0110           0
     36365 WT14     606      MECN     N3       NG1T1   -0.460000       14.0070           0
     36366 WT14     607      MECN     C1       CG331   -0.170000       12.0110           0
     36367 WT14     607      MECN     H11      HGA3     0.090000        1.0080           0
     36368 WT14     607      MECN     H12      HGA3     0.090000        1.0080           0
     36369 WT14     607      MECN     H13      HGA3     0.090000        1.0080           0
     36370 WT14     607      MECN     C2       CG1N1    0.360000       12.0110           0
     36371 WT14     607      MECN     N3       NG1T1   -0.460000       14.0070           0
     36372 WT14     608      MECN     C1       CG331   -0.170000       12.0110           0
     36373 WT14     608      MECN     H11      HGA3     0.090000        1.0080           0
     36374 WT14     608      MECN     H12      HGA3     0.090000        1.0080           0
     36375 WT14     608      MECN     H13      HGA3     0.090000        1.0080           0
     36376 WT14     608      MECN     C2       CG1N1    0.360000       12.0110           0
     36377 WT14     608      MECN     N3       NG1T1   -0.460000       14.0070           0
     36378 WT14     609      MECN     C1       CG331   -0.170000       12.0110           0
     36379 WT14     609      MECN     H11      HGA3     0.090000        1.0080           0
     36380 WT14     609      MECN     H12      HGA3     0.090000        1.0080           0
     36381 WT14     609      MECN     H13      HGA3     0.090000        1.0080           0
     36382 WT14     609      MECN     C2       CG1N1    0.360000       12.0110           0
     36383 WT14     609      MECN     N3       NG1T1   -0.460000       14.0070           0
     36384 WT14     610      MECN     C1       CG331   -0.170000       12.0110           0
     36385 WT14     610      MECN     H11      HGA3     0.090000        1.0080           0
     36386 WT14     610      MECN     H12      HGA3     0.090000        1.0080           0
     36387 WT14     610      MECN     H13      HGA3     0.090000        1.0080           0
     36388 WT14     610      MECN     C2       CG1N1    0.360000       12.0110           0
     36389 WT14     610      MECN     N3       NG1T1   -0.460000       14.0070           0
     36390 WT14     611      MECN     C1       CG331   -0.170000       12.0110           0
     36391 WT14     611      MECN     H11      HGA3     0.090000        1.0080           0
     36392 WT14     611      MECN     H12      HGA3     0.090000        1.0080           0
     36393 WT14     611      MECN     H13      HGA3     0.090000        1.0080           0
     36394 WT14     611      MECN     C2       CG1N1    0.360000       12.0110           0
     36395 WT14     611      MECN     N3       NG1T1   -0.460000       14.0070           0
     36396 WT14     612      MECN     C1       CG331   -0.170000       12.0110           0
     36397 WT14     612      MECN     H11      HGA3     0.090000        1.0080           0
     36398 WT14     612      MECN     H12      HGA3     0.090000        1.0080           0
     36399 WT14     612      MECN     H13      HGA3     0.090000        1.0080           0
     36400 WT14     612      MECN     C2       CG1N1    0.360000       12.0110           0
     36401 WT14     612      MECN     N3       NG1T1   -0.460000       14.0070           0
     36402 WT14     614      MECN     C1       CG331   -0.170000       12.0110           0
     36403 WT14     614      MECN     H11      HGA3     0.090000        1.0080           0
     36404 WT14     614      MECN     H12      HGA3     0.090000        1.0080           0
     36405 WT14     614      MECN     H13      HGA3     0.090000        1.0080           0
     36406 WT14     614      MECN     C2       CG1N1    0.360000       12.0110           0
     36407 WT14     614      MECN     N3       NG1T1   -0.460000       14.0070           0
     36408 WT14     615      MECN     C1       CG331   -0.170000       12.0110           0
     36409 WT14     615      MECN     H11      HGA3     0.090000        1.0080           0
     36410 WT14     615      MECN     H12      HGA3     0.090000        1.0080           0
     36411 WT14     615      MECN     H13      HGA3     0.090000        1.0080           0
     36412 WT14     615      MECN     C2       CG1N1    0.360000       12.0110           0
     36413 WT14     615      MECN     N3       NG1T1   -0.460000       14.0070           0
     36414 WT14     616      MECN     C1       CG331   -0.170000       12.0110           0
     36415 WT14     616      MECN     H11      HGA3     0.090000        1.0080           0
     36416 WT14     616      MECN     H12      HGA3     0.090000        1.0080           0
     36417 WT14     616      MECN     H13      HGA3     0.090000        1.0080           0
     36418 WT14     616      MECN     C2       CG1N1    0.360000       12.0110           0
     36419 WT14     616      MECN     N3       NG1T1   -0.460000       14.0070           0
     36420 WT14     617      MECN     C1       CG331   -0.170000       12.0110           0
     36421 WT14     617      MECN     H11      HGA3     0.090000        1.0080           0
     36422 WT14     617      MECN     H12      HGA3     0.090000        1.0080           0
     36423 WT14     617      MECN     H13      HGA3     0.090000        1.0080           0
     36424 WT14     617      MECN     C2       CG1N1    0.360000       12.0110           0
     36425 WT14     617      MECN     N3       NG1T1   -0.460000       14.0070           0
     36426 WT14     618      MECN     C1       CG331   -0.170000       12.0110           0
     36427 WT14     618      MECN     H11      HGA3     0.090000        1.0080           0
     36428 WT14     618      MECN     H12      HGA3     0.090000        1.0080           0
     36429 WT14     618      MECN     H13      HGA3     0.090000        1.0080           0
     36430 WT14     618      MECN     C2       CG1N1    0.360000       12.0110           0
     36431 WT14     618      MECN     N3       NG1T1   -0.460000       14.0070           0
     36432 WT14     619      MECN     C1       CG331   -0.170000       12.0110           0
     36433 WT14     619      MECN     H11      HGA3     0.090000        1.0080           0
     36434 WT14     619      MECN     H12      HGA3     0.090000        1.0080           0
     36435 WT14     619      MECN     H13      HGA3     0.090000        1.0080           0
     36436 WT14     619      MECN     C2       CG1N1    0.360000       12.0110           0
     36437 WT14     619      MECN     N3       NG1T1   -0.460000       14.0070           0
     36438 WT14     620      MECN     C1       CG331   -0.170000       12.0110           0
     36439 WT14     620      MECN     H11      HGA3     0.090000        1.0080           0
     36440 WT14     620      MECN     H12      HGA3     0.090000        1.0080           0
     36441 WT14     620      MECN     H13      HGA3     0.090000        1.0080           0
     36442 WT14     620      MECN     C2       CG1N1    0.360000       12.0110           0
     36443 WT14     620      MECN     N3       NG1T1   -0.460000       14.0070           0
     36444 WT14     621      MECN     C1       CG331   -0.170000       12.0110           0
     36445 WT14     621      MECN     H11      HGA3     0.090000        1.0080           0
     36446 WT14     621      MECN     H12      HGA3     0.090000        1.0080           0
     36447 WT14     621      MECN     H13      HGA3     0.090000        1.0080           0
     36448 WT14     621      MECN     C2       CG1N1    0.360000       12.0110           0
     36449 WT14     621      MECN     N3       NG1T1   -0.460000       14.0070           0
     36450 WT14     622      MECN     C1       CG331   -0.170000       12.0110           0
     36451 WT14     622      MECN     H11      HGA3     0.090000        1.0080           0
     36452 WT14     622      MECN     H12      HGA3     0.090000        1.0080           0
     36453 WT14     622      MECN     H13      HGA3     0.090000        1.0080           0
     36454 WT14     622      MECN     C2       CG1N1    0.360000       12.0110           0
     36455 WT14     622      MECN     N3       NG1T1   -0.460000       14.0070           0
     36456 WT14     624      MECN     C1       CG331   -0.170000       12.0110           0
     36457 WT14     624      MECN     H11      HGA3     0.090000        1.0080           0
     36458 WT14     624      MECN     H12      HGA3     0.090000        1.0080           0
     36459 WT14     624      MECN     H13      HGA3     0.090000        1.0080           0
     36460 WT14     624      MECN     C2       CG1N1    0.360000       12.0110           0
     36461 WT14     624      MECN     N3       NG1T1   -0.460000       14.0070           0
     36462 WT14     625      MECN     C1       CG331   -0.170000       12.0110           0
     36463 WT14     625      MECN     H11      HGA3     0.090000        1.0080           0
     36464 WT14     625      MECN     H12      HGA3     0.090000        1.0080           0
     36465 WT14     625      MECN     H13      HGA3     0.090000        1.0080           0
     36466 WT14     625      MECN     C2       CG1N1    0.360000       12.0110           0
     36467 WT14     625      MECN     N3       NG1T1   -0.460000       14.0070           0
     36468 WT14     626      MECN     C1       CG331   -0.170000       12.0110           0
     36469 WT14     626      MECN     H11      HGA3     0.090000        1.0080           0
     36470 WT14     626      MECN     H12      HGA3     0.090000        1.0080           0
     36471 WT14     626      MECN     H13      HGA3     0.090000        1.0080           0
     36472 WT14     626      MECN     C2       CG1N1    0.360000       12.0110           0
     36473 WT14     626      MECN     N3       NG1T1   -0.460000       14.0070           0
     36474 WT14     627      MECN     C1       CG331   -0.170000       12.0110           0
     36475 WT14     627      MECN     H11      HGA3     0.090000        1.0080           0
     36476 WT14     627      MECN     H12      HGA3     0.090000        1.0080           0
     36477 WT14     627      MECN     H13      HGA3     0.090000        1.0080           0
     36478 WT14     627      MECN     C2       CG1N1    0.360000       12.0110           0
     36479 WT14     627      MECN     N3       NG1T1   -0.460000       14.0070           0
     36480 WT14     628      MECN     C1       CG331   -0.170000       12.0110           0
     36481 WT14     628      MECN     H11      HGA3     0.090000        1.0080           0
     36482 WT14     628      MECN     H12      HGA3     0.090000        1.0080           0
     36483 WT14     628      MECN     H13      HGA3     0.090000        1.0080           0
     36484 WT14     628      MECN     C2       CG1N1    0.360000       12.0110           0
     36485 WT14     628      MECN     N3       NG1T1   -0.460000       14.0070           0
     36486 WT14     629      MECN     C1       CG331   -0.170000       12.0110           0
     36487 WT14     629      MECN     H11      HGA3     0.090000        1.0080           0
     36488 WT14     629      MECN     H12      HGA3     0.090000        1.0080           0
     36489 WT14     629      MECN     H13      HGA3     0.090000        1.0080           0
     36490 WT14     629      MECN     C2       CG1N1    0.360000       12.0110           0
     36491 WT14     629      MECN     N3       NG1T1   -0.460000       14.0070           0
     36492 WT14     630      MECN     C1       CG331   -0.170000       12.0110           0
     36493 WT14     630      MECN     H11      HGA3     0.090000        1.0080           0
     36494 WT14     630      MECN     H12      HGA3     0.090000        1.0080           0
     36495 WT14     630      MECN     H13      HGA3     0.090000        1.0080           0
     36496 WT14     630      MECN     C2       CG1N1    0.360000       12.0110           0
     36497 WT14     630      MECN     N3       NG1T1   -0.460000       14.0070           0
     36498 WT14     631      MECN     C1       CG331   -0.170000       12.0110           0
     36499 WT14     631      MECN     H11      HGA3     0.090000        1.0080           0
     36500 WT14     631      MECN     H12      HGA3     0.090000        1.0080           0
     36501 WT14     631      MECN     H13      HGA3     0.090000        1.0080           0
     36502 WT14     631      MECN     C2       CG1N1    0.360000       12.0110           0
     36503 WT14     631      MECN     N3       NG1T1   -0.460000       14.0070           0
     36504 WT14     632      MECN     C1       CG331   -0.170000       12.0110           0
     36505 WT14     632      MECN     H11      HGA3     0.090000        1.0080           0
     36506 WT14     632      MECN     H12      HGA3     0.090000        1.0080           0
     36507 WT14     632      MECN     H13      HGA3     0.090000        1.0080           0
     36508 WT14     632      MECN     C2       CG1N1    0.360000       12.0110           0
     36509 WT14     632      MECN     N3       NG1T1   -0.460000       14.0070           0
     36510 WT14     633      MECN     C1       CG331   -0.170000       12.0110           0
     36511 WT14     633      MECN     H11      HGA3     0.090000        1.0080           0
     36512 WT14     633      MECN     H12      HGA3     0.090000        1.0080           0
     36513 WT14     633      MECN     H13      HGA3     0.090000        1.0080           0
     36514 WT14     633      MECN     C2       CG1N1    0.360000       12.0110           0
     36515 WT14     633      MECN     N3       NG1T1   -0.460000       14.0070           0
     36516 WT14     635      MECN     C1       CG331   -0.170000       12.0110           0
     36517 WT14     635      MECN     H11      HGA3     0.090000        1.0080           0
     36518 WT14     635      MECN     H12      HGA3     0.090000        1.0080           0
     36519 WT14     635      MECN     H13      HGA3     0.090000        1.0080           0
     36520 WT14     635      MECN     C2       CG1N1    0.360000       12.0110           0
     36521 WT14     635      MECN     N3       NG1T1   -0.460000       14.0070           0
     36522 WT14     636      MECN     C1       CG331   -0.170000       12.0110           0
     36523 WT14     636      MECN     H11      HGA3     0.090000        1.0080           0
     36524 WT14     636      MECN     H12      HGA3     0.090000        1.0080           0
     36525 WT14     636      MECN     H13      HGA3     0.090000        1.0080           0
     36526 WT14     636      MECN     C2       CG1N1    0.360000       12.0110           0
     36527 WT14     636      MECN     N3       NG1T1   -0.460000       14.0070           0
     36528 WT14     637      MECN     C1       CG331   -0.170000       12.0110           0
     36529 WT14     637      MECN     H11      HGA3     0.090000        1.0080           0
     36530 WT14     637      MECN     H12      HGA3     0.090000        1.0080           0
     36531 WT14     637      MECN     H13      HGA3     0.090000        1.0080           0
     36532 WT14     637      MECN     C2       CG1N1    0.360000       12.0110           0
     36533 WT14     637      MECN     N3       NG1T1   -0.460000       14.0070           0
     36534 WT14     638      MECN     C1       CG331   -0.170000       12.0110           0
     36535 WT14     638      MECN     H11      HGA3     0.090000        1.0080           0
     36536 WT14     638      MECN     H12      HGA3     0.090000        1.0080           0
     36537 WT14     638      MECN     H13      HGA3     0.090000        1.0080           0
     36538 WT14     638      MECN     C2       CG1N1    0.360000       12.0110           0
     36539 WT14     638      MECN     N3       NG1T1   -0.460000       14.0070           0
     36540 WT14     639      MECN     C1       CG331   -0.170000       12.0110           0
     36541 WT14     639      MECN     H11      HGA3     0.090000        1.0080           0
     36542 WT14     639      MECN     H12      HGA3     0.090000        1.0080           0
     36543 WT14     639      MECN     H13      HGA3     0.090000        1.0080           0
     36544 WT14     639      MECN     C2       CG1N1    0.360000       12.0110           0
     36545 WT14     639      MECN     N3       NG1T1   -0.460000       14.0070           0
     36546 WT14     640      MECN     C1       CG331   -0.170000       12.0110           0
     36547 WT14     640      MECN     H11      HGA3     0.090000        1.0080           0
     36548 WT14     640      MECN     H12      HGA3     0.090000        1.0080           0
     36549 WT14     640      MECN     H13      HGA3     0.090000        1.0080           0
     36550 WT14     640      MECN     C2       CG1N1    0.360000       12.0110           0
     36551 WT14     640      MECN     N3       NG1T1   -0.460000       14.0070           0
     36552 WT14     641      MECN     C1       CG331   -0.170000       12.0110           0
     36553 WT14     641      MECN     H11      HGA3     0.090000        1.0080           0
     36554 WT14     641      MECN     H12      HGA3     0.090000        1.0080           0
     36555 WT14     641      MECN     H13      HGA3     0.090000        1.0080           0
     36556 WT14     641      MECN     C2       CG1N1    0.360000       12.0110           0
     36557 WT14     641      MECN     N3       NG1T1   -0.460000       14.0070           0
     36558 WT14     642      MECN     C1       CG331   -0.170000       12.0110           0
     36559 WT14     642      MECN     H11      HGA3     0.090000        1.0080           0
     36560 WT14     642      MECN     H12      HGA3     0.090000        1.0080           0
     36561 WT14     642      MECN     H13      HGA3     0.090000        1.0080           0
     36562 WT14     642      MECN     C2       CG1N1    0.360000       12.0110           0
     36563 WT14     642      MECN     N3       NG1T1   -0.460000       14.0070           0
     36564 WT14     643      MECN     C1       CG331   -0.170000       12.0110           0
     36565 WT14     643      MECN     H11      HGA3     0.090000        1.0080           0
     36566 WT14     643      MECN     H12      HGA3     0.090000        1.0080           0
     36567 WT14     643      MECN     H13      HGA3     0.090000        1.0080           0
     36568 WT14     643      MECN     C2       CG1N1    0.360000       12.0110           0
     36569 WT14     643      MECN     N3       NG1T1   -0.460000       14.0070           0
     36570 WT14     644      MECN     C1       CG331   -0.170000       12.0110           0
     36571 WT14     644      MECN     H11      HGA3     0.090000        1.0080           0
     36572 WT14     644      MECN     H12      HGA3     0.090000        1.0080           0
     36573 WT14     644      MECN     H13      HGA3     0.090000        1.0080           0
     36574 WT14     644      MECN     C2       CG1N1    0.360000       12.0110           0
     36575 WT14     644      MECN     N3       NG1T1   -0.460000       14.0070           0
     36576 WT14     645      MECN     C1       CG331   -0.170000       12.0110           0
     36577 WT14     645      MECN     H11      HGA3     0.090000        1.0080           0
     36578 WT14     645      MECN     H12      HGA3     0.090000        1.0080           0
     36579 WT14     645      MECN     H13      HGA3     0.090000        1.0080           0
     36580 WT14     645      MECN     C2       CG1N1    0.360000       12.0110           0
     36581 WT14     645      MECN     N3       NG1T1   -0.460000       14.0070           0
     36582 WT14     646      MECN     C1       CG331   -0.170000       12.0110           0
     36583 WT14     646      MECN     H11      HGA3     0.090000        1.0080           0
     36584 WT14     646      MECN     H12      HGA3     0.090000        1.0080           0
     36585 WT14     646      MECN     H13      HGA3     0.090000        1.0080           0
     36586 WT14     646      MECN     C2       CG1N1    0.360000       12.0110           0
     36587 WT14     646      MECN     N3       NG1T1   -0.460000       14.0070           0
     36588 WT14     647      MECN     C1       CG331   -0.170000       12.0110           0
     36589 WT14     647      MECN     H11      HGA3     0.090000        1.0080           0
     36590 WT14     647      MECN     H12      HGA3     0.090000        1.0080           0
     36591 WT14     647      MECN     H13      HGA3     0.090000        1.0080           0
     36592 WT14     647      MECN     C2       CG1N1    0.360000       12.0110           0
     36593 WT14     647      MECN     N3       NG1T1   -0.460000       14.0070           0
     36594 WT14     648      MECN     C1       CG331   -0.170000       12.0110           0
     36595 WT14     648      MECN     H11      HGA3     0.090000        1.0080           0
     36596 WT14     648      MECN     H12      HGA3     0.090000        1.0080           0
     36597 WT14     648      MECN     H13      HGA3     0.090000        1.0080           0
     36598 WT14     648      MECN     C2       CG1N1    0.360000       12.0110           0
     36599 WT14     648      MECN     N3       NG1T1   -0.460000       14.0070           0
     36600 WT14     649      MECN     C1       CG331   -0.170000       12.0110           0
     36601 WT14     649      MECN     H11      HGA3     0.090000        1.0080           0
     36602 WT14     649      MECN     H12      HGA3     0.090000        1.0080           0
     36603 WT14     649      MECN     H13      HGA3     0.090000        1.0080           0
     36604 WT14     649      MECN     C2       CG1N1    0.360000       12.0110           0
     36605 WT14     649      MECN     N3       NG1T1   -0.460000       14.0070           0
     36606 WT14     650      MECN     C1       CG331   -0.170000       12.0110           0
     36607 WT14     650      MECN     H11      HGA3     0.090000        1.0080           0
     36608 WT14     650      MECN     H12      HGA3     0.090000        1.0080           0
     36609 WT14     650      MECN     H13      HGA3     0.090000        1.0080           0
     36610 WT14     650      MECN     C2       CG1N1    0.360000       12.0110           0
     36611 WT14     650      MECN     N3       NG1T1   -0.460000       14.0070           0
     36612 WT14     651      MECN     C1       CG331   -0.170000       12.0110           0
     36613 WT14     651      MECN     H11      HGA3     0.090000        1.0080           0
     36614 WT14     651      MECN     H12      HGA3     0.090000        1.0080           0
     36615 WT14     651      MECN     H13      HGA3     0.090000        1.0080           0
     36616 WT14     651      MECN     C2       CG1N1    0.360000       12.0110           0
     36617 WT14     651      MECN     N3       NG1T1   -0.460000       14.0070           0
     36618 WT14     652      MECN     C1       CG331   -0.170000       12.0110           0
     36619 WT14     652      MECN     H11      HGA3     0.090000        1.0080           0
     36620 WT14     652      MECN     H12      HGA3     0.090000        1.0080           0
     36621 WT14     652      MECN     H13      HGA3     0.090000        1.0080           0
     36622 WT14     652      MECN     C2       CG1N1    0.360000       12.0110           0
     36623 WT14     652      MECN     N3       NG1T1   -0.460000       14.0070           0
     36624 WT14     653      MECN     C1       CG331   -0.170000       12.0110           0
     36625 WT14     653      MECN     H11      HGA3     0.090000        1.0080           0
     36626 WT14     653      MECN     H12      HGA3     0.090000        1.0080           0
     36627 WT14     653      MECN     H13      HGA3     0.090000        1.0080           0
     36628 WT14     653      MECN     C2       CG1N1    0.360000       12.0110           0
     36629 WT14     653      MECN     N3       NG1T1   -0.460000       14.0070           0
     36630 WT14     654      MECN     C1       CG331   -0.170000       12.0110           0
     36631 WT14     654      MECN     H11      HGA3     0.090000        1.0080           0
     36632 WT14     654      MECN     H12      HGA3     0.090000        1.0080           0
     36633 WT14     654      MECN     H13      HGA3     0.090000        1.0080           0
     36634 WT14     654      MECN     C2       CG1N1    0.360000       12.0110           0
     36635 WT14     654      MECN     N3       NG1T1   -0.460000       14.0070           0
     36636 WT14     655      MECN     C1       CG331   -0.170000       12.0110           0
     36637 WT14     655      MECN     H11      HGA3     0.090000        1.0080           0
     36638 WT14     655      MECN     H12      HGA3     0.090000        1.0080           0
     36639 WT14     655      MECN     H13      HGA3     0.090000        1.0080           0
     36640 WT14     655      MECN     C2       CG1N1    0.360000       12.0110           0
     36641 WT14     655      MECN     N3       NG1T1   -0.460000       14.0070           0
     36642 WT14     656      MECN     C1       CG331   -0.170000       12.0110           0
     36643 WT14     656      MECN     H11      HGA3     0.090000        1.0080           0
     36644 WT14     656      MECN     H12      HGA3     0.090000        1.0080           0
     36645 WT14     656      MECN     H13      HGA3     0.090000        1.0080           0
     36646 WT14     656      MECN     C2       CG1N1    0.360000       12.0110           0
     36647 WT14     656      MECN     N3       NG1T1   -0.460000       14.0070           0
     36648 WT14     657      MECN     C1       CG331   -0.170000       12.0110           0
     36649 WT14     657      MECN     H11      HGA3     0.090000        1.0080           0
     36650 WT14     657      MECN     H12      HGA3     0.090000        1.0080           0
     36651 WT14     657      MECN     H13      HGA3     0.090000        1.0080           0
     36652 WT14     657      MECN     C2       CG1N1    0.360000       12.0110           0
     36653 WT14     657      MECN     N3       NG1T1   -0.460000       14.0070           0
     36654 WT14     658      MECN     C1       CG331   -0.170000       12.0110           0
     36655 WT14     658      MECN     H11      HGA3     0.090000        1.0080           0
     36656 WT14     658      MECN     H12      HGA3     0.090000        1.0080           0
     36657 WT14     658      MECN     H13      HGA3     0.090000        1.0080           0
     36658 WT14     658      MECN     C2       CG1N1    0.360000       12.0110           0
     36659 WT14     658      MECN     N3       NG1T1   -0.460000       14.0070           0
     36660 WT14     660      MECN     C1       CG331   -0.170000       12.0110           0
     36661 WT14     660      MECN     H11      HGA3     0.090000        1.0080           0
     36662 WT14     660      MECN     H12      HGA3     0.090000        1.0080           0
     36663 WT14     660      MECN     H13      HGA3     0.090000        1.0080           0
     36664 WT14     660      MECN     C2       CG1N1    0.360000       12.0110           0
     36665 WT14     660      MECN     N3       NG1T1   -0.460000       14.0070           0
     36666 WT14     661      MECN     C1       CG331   -0.170000       12.0110           0
     36667 WT14     661      MECN     H11      HGA3     0.090000        1.0080           0
     36668 WT14     661      MECN     H12      HGA3     0.090000        1.0080           0
     36669 WT14     661      MECN     H13      HGA3     0.090000        1.0080           0
     36670 WT14     661      MECN     C2       CG1N1    0.360000       12.0110           0
     36671 WT14     661      MECN     N3       NG1T1   -0.460000       14.0070           0
     36672 WT14     662      MECN     C1       CG331   -0.170000       12.0110           0
     36673 WT14     662      MECN     H11      HGA3     0.090000        1.0080           0
     36674 WT14     662      MECN     H12      HGA3     0.090000        1.0080           0
     36675 WT14     662      MECN     H13      HGA3     0.090000        1.0080           0
     36676 WT14     662      MECN     C2       CG1N1    0.360000       12.0110           0
     36677 WT14     662      MECN     N3       NG1T1   -0.460000       14.0070           0
     36678 WT14     663      MECN     C1       CG331   -0.170000       12.0110           0
     36679 WT14     663      MECN     H11      HGA3     0.090000        1.0080           0
     36680 WT14     663      MECN     H12      HGA3     0.090000        1.0080           0
     36681 WT14     663      MECN     H13      HGA3     0.090000        1.0080           0
     36682 WT14     663      MECN     C2       CG1N1    0.360000       12.0110           0
     36683 WT14     663      MECN     N3       NG1T1   -0.460000       14.0070           0
     36684 WT14     664      MECN     C1       CG331   -0.170000       12.0110           0
     36685 WT14     664      MECN     H11      HGA3     0.090000        1.0080           0
     36686 WT14     664      MECN     H12      HGA3     0.090000        1.0080           0
     36687 WT14     664      MECN     H13      HGA3     0.090000        1.0080           0
     36688 WT14     664      MECN     C2       CG1N1    0.360000       12.0110           0
     36689 WT14     664      MECN     N3       NG1T1   -0.460000       14.0070           0
     36690 WT14     665      MECN     C1       CG331   -0.170000       12.0110           0
     36691 WT14     665      MECN     H11      HGA3     0.090000        1.0080           0
     36692 WT14     665      MECN     H12      HGA3     0.090000        1.0080           0
     36693 WT14     665      MECN     H13      HGA3     0.090000        1.0080           0
     36694 WT14     665      MECN     C2       CG1N1    0.360000       12.0110           0
     36695 WT14     665      MECN     N3       NG1T1   -0.460000       14.0070           0
     36696 WT14     666      MECN     C1       CG331   -0.170000       12.0110           0
     36697 WT14     666      MECN     H11      HGA3     0.090000        1.0080           0
     36698 WT14     666      MECN     H12      HGA3     0.090000        1.0080           0
     36699 WT14     666      MECN     H13      HGA3     0.090000        1.0080           0
     36700 WT14     666      MECN     C2       CG1N1    0.360000       12.0110           0
     36701 WT14     666      MECN     N3       NG1T1   -0.460000       14.0070           0
     36702 WT14     668      MECN     C1       CG331   -0.170000       12.0110           0
     36703 WT14     668      MECN     H11      HGA3     0.090000        1.0080           0
     36704 WT14     668      MECN     H12      HGA3     0.090000        1.0080           0
     36705 WT14     668      MECN     H13      HGA3     0.090000        1.0080           0
     36706 WT14     668      MECN     C2       CG1N1    0.360000       12.0110           0
     36707 WT14     668      MECN     N3       NG1T1   -0.460000       14.0070           0
     36708 WT14     670      MECN     C1       CG331   -0.170000       12.0110           0
     36709 WT14     670      MECN     H11      HGA3     0.090000        1.0080           0
     36710 WT14     670      MECN     H12      HGA3     0.090000        1.0080           0
     36711 WT14     670      MECN     H13      HGA3     0.090000        1.0080           0
     36712 WT14     670      MECN     C2       CG1N1    0.360000       12.0110           0
     36713 WT14     670      MECN     N3       NG1T1   -0.460000       14.0070           0
     36714 WT14     671      MECN     C1       CG331   -0.170000       12.0110           0
     36715 WT14     671      MECN     H11      HGA3     0.090000        1.0080           0
     36716 WT14     671      MECN     H12      HGA3     0.090000        1.0080           0
     36717 WT14     671      MECN     H13      HGA3     0.090000        1.0080           0
     36718 WT14     671      MECN     C2       CG1N1    0.360000       12.0110           0
     36719 WT14     671      MECN     N3       NG1T1   -0.460000       14.0070           0
     36720 WT14     672      MECN     C1       CG331   -0.170000       12.0110           0
     36721 WT14     672      MECN     H11      HGA3     0.090000        1.0080           0
     36722 WT14     672      MECN     H12      HGA3     0.090000        1.0080           0
     36723 WT14     672      MECN     H13      HGA3     0.090000        1.0080           0
     36724 WT14     672      MECN     C2       CG1N1    0.360000       12.0110           0
     36725 WT14     672      MECN     N3       NG1T1   -0.460000       14.0070           0
     36726 WT14     673      MECN     C1       CG331   -0.170000       12.0110           0
     36727 WT14     673      MECN     H11      HGA3     0.090000        1.0080           0
     36728 WT14     673      MECN     H12      HGA3     0.090000        1.0080           0
     36729 WT14     673      MECN     H13      HGA3     0.090000        1.0080           0
     36730 WT14     673      MECN     C2       CG1N1    0.360000       12.0110           0
     36731 WT14     673      MECN     N3       NG1T1   -0.460000       14.0070           0
     36732 WT14     675      MECN     C1       CG331   -0.170000       12.0110           0
     36733 WT14     675      MECN     H11      HGA3     0.090000        1.0080           0
     36734 WT14     675      MECN     H12      HGA3     0.090000        1.0080           0
     36735 WT14     675      MECN     H13      HGA3     0.090000        1.0080           0
     36736 WT14     675      MECN     C2       CG1N1    0.360000       12.0110           0
     36737 WT14     675      MECN     N3       NG1T1   -0.460000       14.0070           0
     36738 WT14     676      MECN     C1       CG331   -0.170000       12.0110           0
     36739 WT14     676      MECN     H11      HGA3     0.090000        1.0080           0
     36740 WT14     676      MECN     H12      HGA3     0.090000        1.0080           0
     36741 WT14     676      MECN     H13      HGA3     0.090000        1.0080           0
     36742 WT14     676      MECN     C2       CG1N1    0.360000       12.0110           0
     36743 WT14     676      MECN     N3       NG1T1   -0.460000       14.0070           0
     36744 WT14     677      MECN     C1       CG331   -0.170000       12.0110           0
     36745 WT14     677      MECN     H11      HGA3     0.090000        1.0080           0
     36746 WT14     677      MECN     H12      HGA3     0.090000        1.0080           0
     36747 WT14     677      MECN     H13      HGA3     0.090000        1.0080           0
     36748 WT14     677      MECN     C2       CG1N1    0.360000       12.0110           0
     36749 WT14     677      MECN     N3       NG1T1   -0.460000       14.0070           0
     36750 WT14     678      MECN     C1       CG331   -0.170000       12.0110           0
     36751 WT14     678      MECN     H11      HGA3     0.090000        1.0080           0
     36752 WT14     678      MECN     H12      HGA3     0.090000        1.0080           0
     36753 WT14     678      MECN     H13      HGA3     0.090000        1.0080           0
     36754 WT14     678      MECN     C2       CG1N1    0.360000       12.0110           0
     36755 WT14     678      MECN     N3       NG1T1   -0.460000       14.0070           0
     36756 WT14     679      MECN     C1       CG331   -0.170000       12.0110           0
     36757 WT14     679      MECN     H11      HGA3     0.090000        1.0080           0
     36758 WT14     679      MECN     H12      HGA3     0.090000        1.0080           0
     36759 WT14     679      MECN     H13      HGA3     0.090000        1.0080           0
     36760 WT14     679      MECN     C2       CG1N1    0.360000       12.0110           0
     36761 WT14     679      MECN     N3       NG1T1   -0.460000       14.0070           0
     36762 WT14     681      MECN     C1       CG331   -0.170000       12.0110           0
     36763 WT14     681      MECN     H11      HGA3     0.090000        1.0080           0
     36764 WT14     681      MECN     H12      HGA3     0.090000        1.0080           0
     36765 WT14     681      MECN     H13      HGA3     0.090000        1.0080           0
     36766 WT14     681      MECN     C2       CG1N1    0.360000       12.0110           0
     36767 WT14     681      MECN     N3       NG1T1   -0.460000       14.0070           0
     36768 WT14     683      MECN     C1       CG331   -0.170000       12.0110           0
     36769 WT14     683      MECN     H11      HGA3     0.090000        1.0080           0
     36770 WT14     683      MECN     H12      HGA3     0.090000        1.0080           0
     36771 WT14     683      MECN     H13      HGA3     0.090000        1.0080           0
     36772 WT14     683      MECN     C2       CG1N1    0.360000       12.0110           0
     36773 WT14     683      MECN     N3       NG1T1   -0.460000       14.0070           0
     36774 WT14     685      MECN     C1       CG331   -0.170000       12.0110           0
     36775 WT14     685      MECN     H11      HGA3     0.090000        1.0080           0
     36776 WT14     685      MECN     H12      HGA3     0.090000        1.0080           0
     36777 WT14     685      MECN     H13      HGA3     0.090000        1.0080           0
     36778 WT14     685      MECN     C2       CG1N1    0.360000       12.0110           0
     36779 WT14     685      MECN     N3       NG1T1   -0.460000       14.0070           0
     36780 WT14     687      MECN     C1       CG331   -0.170000       12.0110           0
     36781 WT14     687      MECN     H11      HGA3     0.090000        1.0080           0
     36782 WT14     687      MECN     H12      HGA3     0.090000        1.0080           0
     36783 WT14     687      MECN     H13      HGA3     0.090000        1.0080           0
     36784 WT14     687      MECN     C2       CG1N1    0.360000       12.0110           0
     36785 WT14     687      MECN     N3       NG1T1   -0.460000       14.0070           0
     36786 WT14     688      MECN     C1       CG331   -0.170000       12.0110           0
     36787 WT14     688      MECN     H11      HGA3     0.090000        1.0080           0
     36788 WT14     688      MECN     H12      HGA3     0.090000        1.0080           0
     36789 WT14     688      MECN     H13      HGA3     0.090000        1.0080           0
     36790 WT14     688      MECN     C2       CG1N1    0.360000       12.0110           0
     36791 WT14     688      MECN     N3       NG1T1   -0.460000       14.0070           0
     36792 WT14     689      MECN     C1       CG331   -0.170000       12.0110           0
     36793 WT14     689      MECN     H11      HGA3     0.090000        1.0080           0
     36794 WT14     689      MECN     H12      HGA3     0.090000        1.0080           0
     36795 WT14     689      MECN     H13      HGA3     0.090000        1.0080           0
     36796 WT14     689      MECN     C2       CG1N1    0.360000       12.0110           0
     36797 WT14     689      MECN     N3       NG1T1   -0.460000       14.0070           0
     36798 WT14     690      MECN     C1       CG331   -0.170000       12.0110           0
     36799 WT14     690      MECN     H11      HGA3     0.090000        1.0080           0
     36800 WT14     690      MECN     H12      HGA3     0.090000        1.0080           0
     36801 WT14     690      MECN     H13      HGA3     0.090000        1.0080           0
     36802 WT14     690      MECN     C2       CG1N1    0.360000       12.0110           0
     36803 WT14     690      MECN     N3       NG1T1   -0.460000       14.0070           0
     36804 WT14     691      MECN     C1       CG331   -0.170000       12.0110           0
     36805 WT14     691      MECN     H11      HGA3     0.090000        1.0080           0
     36806 WT14     691      MECN     H12      HGA3     0.090000        1.0080           0
     36807 WT14     691      MECN     H13      HGA3     0.090000        1.0080           0
     36808 WT14     691      MECN     C2       CG1N1    0.360000       12.0110           0
     36809 WT14     691      MECN     N3       NG1T1   -0.460000       14.0070           0
     36810 WT14     692      MECN     C1       CG331   -0.170000       12.0110           0
     36811 WT14     692      MECN     H11      HGA3     0.090000        1.0080           0
     36812 WT14     692      MECN     H12      HGA3     0.090000        1.0080           0
     36813 WT14     692      MECN     H13      HGA3     0.090000        1.0080           0
     36814 WT14     692      MECN     C2       CG1N1    0.360000       12.0110           0
     36815 WT14     692      MECN     N3       NG1T1   -0.460000       14.0070           0
     36816 WT14     693      MECN     C1       CG331   -0.170000       12.0110           0
     36817 WT14     693      MECN     H11      HGA3     0.090000        1.0080           0
     36818 WT14     693      MECN     H12      HGA3     0.090000        1.0080           0
     36819 WT14     693      MECN     H13      HGA3     0.090000        1.0080           0
     36820 WT14     693      MECN     C2       CG1N1    0.360000       12.0110           0
     36821 WT14     693      MECN     N3       NG1T1   -0.460000       14.0070           0
     36822 WT14     694      MECN     C1       CG331   -0.170000       12.0110           0
     36823 WT14     694      MECN     H11      HGA3     0.090000        1.0080           0
     36824 WT14     694      MECN     H12      HGA3     0.090000        1.0080           0
     36825 WT14     694      MECN     H13      HGA3     0.090000        1.0080           0
     36826 WT14     694      MECN     C2       CG1N1    0.360000       12.0110           0
     36827 WT14     694      MECN     N3       NG1T1   -0.460000       14.0070           0
     36828 WT14     695      MECN     C1       CG331   -0.170000       12.0110           0
     36829 WT14     695      MECN     H11      HGA3     0.090000        1.0080           0
     36830 WT14     695      MECN     H12      HGA3     0.090000        1.0080           0
     36831 WT14     695      MECN     H13      HGA3     0.090000        1.0080           0
     36832 WT14     695      MECN     C2       CG1N1    0.360000       12.0110           0
     36833 WT14     695      MECN     N3       NG1T1   -0.460000       14.0070           0
     36834 WT14     696      MECN     C1       CG331   -0.170000       12.0110           0
     36835 WT14     696      MECN     H11      HGA3     0.090000        1.0080           0
     36836 WT14     696      MECN     H12      HGA3     0.090000        1.0080           0
     36837 WT14     696      MECN     H13      HGA3     0.090000        1.0080           0
     36838 WT14     696      MECN     C2       CG1N1    0.360000       12.0110           0
     36839 WT14     696      MECN     N3       NG1T1   -0.460000       14.0070           0
     36840 WT14     697      MECN     C1       CG331   -0.170000       12.0110           0
     36841 WT14     697      MECN     H11      HGA3     0.090000        1.0080           0
     36842 WT14     697      MECN     H12      HGA3     0.090000        1.0080           0
     36843 WT14     697      MECN     H13      HGA3     0.090000        1.0080           0
     36844 WT14     697      MECN     C2       CG1N1    0.360000       12.0110           0
     36845 WT14     697      MECN     N3       NG1T1   -0.460000       14.0070           0
     36846 WT14     698      MECN     C1       CG331   -0.170000       12.0110           0
     36847 WT14     698      MECN     H11      HGA3     0.090000        1.0080           0
     36848 WT14     698      MECN     H12      HGA3     0.090000        1.0080           0
     36849 WT14     698      MECN     H13      HGA3     0.090000        1.0080           0
     36850 WT14     698      MECN     C2       CG1N1    0.360000       12.0110           0
     36851 WT14     698      MECN     N3       NG1T1   -0.460000       14.0070           0
     36852 WT14     699      MECN     C1       CG331   -0.170000       12.0110           0
     36853 WT14     699      MECN     H11      HGA3     0.090000        1.0080           0
     36854 WT14     699      MECN     H12      HGA3     0.090000        1.0080           0
     36855 WT14     699      MECN     H13      HGA3     0.090000        1.0080           0
     36856 WT14     699      MECN     C2       CG1N1    0.360000       12.0110           0
     36857 WT14     699      MECN     N3       NG1T1   -0.460000       14.0070           0
     36858 WT14     701      MECN     C1       CG331   -0.170000       12.0110           0
     36859 WT14     701      MECN     H11      HGA3     0.090000        1.0080           0
     36860 WT14     701      MECN     H12      HGA3     0.090000        1.0080           0
     36861 WT14     701      MECN     H13      HGA3     0.090000        1.0080           0
     36862 WT14     701      MECN     C2       CG1N1    0.360000       12.0110           0
     36863 WT14     701      MECN     N3       NG1T1   -0.460000       14.0070           0
     36864 WT14     702      MECN     C1       CG331   -0.170000       12.0110           0
     36865 WT14     702      MECN     H11      HGA3     0.090000        1.0080           0
     36866 WT14     702      MECN     H12      HGA3     0.090000        1.0080           0
     36867 WT14     702      MECN     H13      HGA3     0.090000        1.0080           0
     36868 WT14     702      MECN     C2       CG1N1    0.360000       12.0110           0
     36869 WT14     702      MECN     N3       NG1T1   -0.460000       14.0070           0
     36870 WT14     703      MECN     C1       CG331   -0.170000       12.0110           0
     36871 WT14     703      MECN     H11      HGA3     0.090000        1.0080           0
     36872 WT14     703      MECN     H12      HGA3     0.090000        1.0080           0
     36873 WT14     703      MECN     H13      HGA3     0.090000        1.0080           0
     36874 WT14     703      MECN     C2       CG1N1    0.360000       12.0110           0
     36875 WT14     703      MECN     N3       NG1T1   -0.460000       14.0070           0
     36876 WT14     704      MECN     C1       CG331   -0.170000       12.0110           0
     36877 WT14     704      MECN     H11      HGA3     0.090000        1.0080           0
     36878 WT14     704      MECN     H12      HGA3     0.090000        1.0080           0
     36879 WT14     704      MECN     H13      HGA3     0.090000        1.0080           0
     36880 WT14     704      MECN     C2       CG1N1    0.360000       12.0110           0
     36881 WT14     704      MECN     N3       NG1T1   -0.460000       14.0070           0
     36882 WT14     705      MECN     C1       CG331   -0.170000       12.0110           0
     36883 WT14     705      MECN     H11      HGA3     0.090000        1.0080           0
     36884 WT14     705      MECN     H12      HGA3     0.090000        1.0080           0
     36885 WT14     705      MECN     H13      HGA3     0.090000        1.0080           0
     36886 WT14     705      MECN     C2       CG1N1    0.360000       12.0110           0
     36887 WT14     705      MECN     N3       NG1T1   -0.460000       14.0070           0
     36888 WT14     706      MECN     C1       CG331   -0.170000       12.0110           0
     36889 WT14     706      MECN     H11      HGA3     0.090000        1.0080           0
     36890 WT14     706      MECN     H12      HGA3     0.090000        1.0080           0
     36891 WT14     706      MECN     H13      HGA3     0.090000        1.0080           0
     36892 WT14     706      MECN     C2       CG1N1    0.360000       12.0110           0
     36893 WT14     706      MECN     N3       NG1T1   -0.460000       14.0070           0
     36894 WT14     707      MECN     C1       CG331   -0.170000       12.0110           0
     36895 WT14     707      MECN     H11      HGA3     0.090000        1.0080           0
     36896 WT14     707      MECN     H12      HGA3     0.090000        1.0080           0
     36897 WT14     707      MECN     H13      HGA3     0.090000        1.0080           0
     36898 WT14     707      MECN     C2       CG1N1    0.360000       12.0110           0
     36899 WT14     707      MECN     N3       NG1T1   -0.460000       14.0070           0
     36900 WT14     708      MECN     C1       CG331   -0.170000       12.0110           0
     36901 WT14     708      MECN     H11      HGA3     0.090000        1.0080           0
     36902 WT14     708      MECN     H12      HGA3     0.090000        1.0080           0
     36903 WT14     708      MECN     H13      HGA3     0.090000        1.0080           0
     36904 WT14     708      MECN     C2       CG1N1    0.360000       12.0110           0
     36905 WT14     708      MECN     N3       NG1T1   -0.460000       14.0070           0
     36906 WT14     711      MECN     C1       CG331   -0.170000       12.0110           0
     36907 WT14     711      MECN     H11      HGA3     0.090000        1.0080           0
     36908 WT14     711      MECN     H12      HGA3     0.090000        1.0080           0
     36909 WT14     711      MECN     H13      HGA3     0.090000        1.0080           0
     36910 WT14     711      MECN     C2       CG1N1    0.360000       12.0110           0
     36911 WT14     711      MECN     N3       NG1T1   -0.460000       14.0070           0
     36912 WT14     712      MECN     C1       CG331   -0.170000       12.0110           0
     36913 WT14     712      MECN     H11      HGA3     0.090000        1.0080           0
     36914 WT14     712      MECN     H12      HGA3     0.090000        1.0080           0
     36915 WT14     712      MECN     H13      HGA3     0.090000        1.0080           0
     36916 WT14     712      MECN     C2       CG1N1    0.360000       12.0110           0
     36917 WT14     712      MECN     N3       NG1T1   -0.460000       14.0070           0
     36918 WT14     713      MECN     C1       CG331   -0.170000       12.0110           0
     36919 WT14     713      MECN     H11      HGA3     0.090000        1.0080           0
     36920 WT14     713      MECN     H12      HGA3     0.090000        1.0080           0
     36921 WT14     713      MECN     H13      HGA3     0.090000        1.0080           0
     36922 WT14     713      MECN     C2       CG1N1    0.360000       12.0110           0
     36923 WT14     713      MECN     N3       NG1T1   -0.460000       14.0070           0
     36924 WT14     715      MECN     C1       CG331   -0.170000       12.0110           0
     36925 WT14     715      MECN     H11      HGA3     0.090000        1.0080           0
     36926 WT14     715      MECN     H12      HGA3     0.090000        1.0080           0
     36927 WT14     715      MECN     H13      HGA3     0.090000        1.0080           0
     36928 WT14     715      MECN     C2       CG1N1    0.360000       12.0110           0
     36929 WT14     715      MECN     N3       NG1T1   -0.460000       14.0070           0
     36930 WT14     716      MECN     C1       CG331   -0.170000       12.0110           0
     36931 WT14     716      MECN     H11      HGA3     0.090000        1.0080           0
     36932 WT14     716      MECN     H12      HGA3     0.090000        1.0080           0
     36933 WT14     716      MECN     H13      HGA3     0.090000        1.0080           0
     36934 WT14     716      MECN     C2       CG1N1    0.360000       12.0110           0
     36935 WT14     716      MECN     N3       NG1T1   -0.460000       14.0070           0
     36936 WT14     718      MECN     C1       CG331   -0.170000       12.0110           0
     36937 WT14     718      MECN     H11      HGA3     0.090000        1.0080           0
     36938 WT14     718      MECN     H12      HGA3     0.090000        1.0080           0
     36939 WT14     718      MECN     H13      HGA3     0.090000        1.0080           0
     36940 WT14     718      MECN     C2       CG1N1    0.360000       12.0110           0
     36941 WT14     718      MECN     N3       NG1T1   -0.460000       14.0070           0
     36942 WT14     719      MECN     C1       CG331   -0.170000       12.0110           0
     36943 WT14     719      MECN     H11      HGA3     0.090000        1.0080           0
     36944 WT14     719      MECN     H12      HGA3     0.090000        1.0080           0
     36945 WT14     719      MECN     H13      HGA3     0.090000        1.0080           0
     36946 WT14     719      MECN     C2       CG1N1    0.360000       12.0110           0
     36947 WT14     719      MECN     N3       NG1T1   -0.460000       14.0070           0
     36948 WT14     720      MECN     C1       CG331   -0.170000       12.0110           0
     36949 WT14     720      MECN     H11      HGA3     0.090000        1.0080           0
     36950 WT14     720      MECN     H12      HGA3     0.090000        1.0080           0
     36951 WT14     720      MECN     H13      HGA3     0.090000        1.0080           0
     36952 WT14     720      MECN     C2       CG1N1    0.360000       12.0110           0
     36953 WT14     720      MECN     N3       NG1T1   -0.460000       14.0070           0
     36954 WT14     721      MECN     C1       CG331   -0.170000       12.0110           0
     36955 WT14     721      MECN     H11      HGA3     0.090000        1.0080           0
     36956 WT14     721      MECN     H12      HGA3     0.090000        1.0080           0
     36957 WT14     721      MECN     H13      HGA3     0.090000        1.0080           0
     36958 WT14     721      MECN     C2       CG1N1    0.360000       12.0110           0
     36959 WT14     721      MECN     N3       NG1T1   -0.460000       14.0070           0
     36960 WT14     722      MECN     C1       CG331   -0.170000       12.0110           0
     36961 WT14     722      MECN     H11      HGA3     0.090000        1.0080           0
     36962 WT14     722      MECN     H12      HGA3     0.090000        1.0080           0
     36963 WT14     722      MECN     H13      HGA3     0.090000        1.0080           0
     36964 WT14     722      MECN     C2       CG1N1    0.360000       12.0110           0
     36965 WT14     722      MECN     N3       NG1T1   -0.460000       14.0070           0
     36966 WT14     723      MECN     C1       CG331   -0.170000       12.0110           0
     36967 WT14     723      MECN     H11      HGA3     0.090000        1.0080           0
     36968 WT14     723      MECN     H12      HGA3     0.090000        1.0080           0
     36969 WT14     723      MECN     H13      HGA3     0.090000        1.0080           0
     36970 WT14     723      MECN     C2       CG1N1    0.360000       12.0110           0
     36971 WT14     723      MECN     N3       NG1T1   -0.460000       14.0070           0
     36972 WT14     724      MECN     C1       CG331   -0.170000       12.0110           0
     36973 WT14     724      MECN     H11      HGA3     0.090000        1.0080           0
     36974 WT14     724      MECN     H12      HGA3     0.090000        1.0080           0
     36975 WT14     724      MECN     H13      HGA3     0.090000        1.0080           0
     36976 WT14     724      MECN     C2       CG1N1    0.360000       12.0110           0
     36977 WT14     724      MECN     N3       NG1T1   -0.460000       14.0070           0
     36978 WT14     725      MECN     C1       CG331   -0.170000       12.0110           0
     36979 WT14     725      MECN     H11      HGA3     0.090000        1.0080           0
     36980 WT14     725      MECN     H12      HGA3     0.090000        1.0080           0
     36981 WT14     725      MECN     H13      HGA3     0.090000        1.0080           0
     36982 WT14     725      MECN     C2       CG1N1    0.360000       12.0110           0
     36983 WT14     725      MECN     N3       NG1T1   -0.460000       14.0070           0
     36984 WT14     727      MECN     C1       CG331   -0.170000       12.0110           0
     36985 WT14     727      MECN     H11      HGA3     0.090000        1.0080           0
     36986 WT14     727      MECN     H12      HGA3     0.090000        1.0080           0
     36987 WT14     727      MECN     H13      HGA3     0.090000        1.0080           0
     36988 WT14     727      MECN     C2       CG1N1    0.360000       12.0110           0
     36989 WT14     727      MECN     N3       NG1T1   -0.460000       14.0070           0
     36990 WT14     728      MECN     C1       CG331   -0.170000       12.0110           0
     36991 WT14     728      MECN     H11      HGA3     0.090000        1.0080           0
     36992 WT14     728      MECN     H12      HGA3     0.090000        1.0080           0
     36993 WT14     728      MECN     H13      HGA3     0.090000        1.0080           0
     36994 WT14     728      MECN     C2       CG1N1    0.360000       12.0110           0
     36995 WT14     728      MECN     N3       NG1T1   -0.460000       14.0070           0
     36996 WT14     729      MECN     C1       CG331   -0.170000       12.0110           0
     36997 WT14     729      MECN     H11      HGA3     0.090000        1.0080           0
     36998 WT14     729      MECN     H12      HGA3     0.090000        1.0080           0
     36999 WT14     729      MECN     H13      HGA3     0.090000        1.0080           0
     37000 WT14     729      MECN     C2       CG1N1    0.360000       12.0110           0
     37001 WT14     729      MECN     N3       NG1T1   -0.460000       14.0070           0
     37002 WT14     730      MECN     C1       CG331   -0.170000       12.0110           0
     37003 WT14     730      MECN     H11      HGA3     0.090000        1.0080           0
     37004 WT14     730      MECN     H12      HGA3     0.090000        1.0080           0
     37005 WT14     730      MECN     H13      HGA3     0.090000        1.0080           0
     37006 WT14     730      MECN     C2       CG1N1    0.360000       12.0110           0
     37007 WT14     730      MECN     N3       NG1T1   -0.460000       14.0070           0
     37008 WT14     732      MECN     C1       CG331   -0.170000       12.0110           0
     37009 WT14     732      MECN     H11      HGA3     0.090000        1.0080           0
     37010 WT14     732      MECN     H12      HGA3     0.090000        1.0080           0
     37011 WT14     732      MECN     H13      HGA3     0.090000        1.0080           0
     37012 WT14     732      MECN     C2       CG1N1    0.360000       12.0110           0
     37013 WT14     732      MECN     N3       NG1T1   -0.460000       14.0070           0
     37014 WT14     733      MECN     C1       CG331   -0.170000       12.0110           0
     37015 WT14     733      MECN     H11      HGA3     0.090000        1.0080           0
     37016 WT14     733      MECN     H12      HGA3     0.090000        1.0080           0
     37017 WT14     733      MECN     H13      HGA3     0.090000        1.0080           0
     37018 WT14     733      MECN     C2       CG1N1    0.360000       12.0110           0
     37019 WT14     733      MECN     N3       NG1T1   -0.460000       14.0070           0
     37020 WT14     734      MECN     C1       CG331   -0.170000       12.0110           0
     37021 WT14     734      MECN     H11      HGA3     0.090000        1.0080           0
     37022 WT14     734      MECN     H12      HGA3     0.090000        1.0080           0
     37023 WT14     734      MECN     H13      HGA3     0.090000        1.0080           0
     37024 WT14     734      MECN     C2       CG1N1    0.360000       12.0110           0
     37025 WT14     734      MECN     N3       NG1T1   -0.460000       14.0070           0
     37026 WT14     735      MECN     C1       CG331   -0.170000       12.0110           0
     37027 WT14     735      MECN     H11      HGA3     0.090000        1.0080           0
     37028 WT14     735      MECN     H12      HGA3     0.090000        1.0080           0
     37029 WT14     735      MECN     H13      HGA3     0.090000        1.0080           0
     37030 WT14     735      MECN     C2       CG1N1    0.360000       12.0110           0
     37031 WT14     735      MECN     N3       NG1T1   -0.460000       14.0070           0
     37032 WT14     736      MECN     C1       CG331   -0.170000       12.0110           0
     37033 WT14     736      MECN     H11      HGA3     0.090000        1.0080           0
     37034 WT14     736      MECN     H12      HGA3     0.090000        1.0080           0
     37035 WT14     736      MECN     H13      HGA3     0.090000        1.0080           0
     37036 WT14     736      MECN     C2       CG1N1    0.360000       12.0110           0
     37037 WT14     736      MECN     N3       NG1T1   -0.460000       14.0070           0
     37038 WT14     737      MECN     C1       CG331   -0.170000       12.0110           0
     37039 WT14     737      MECN     H11      HGA3     0.090000        1.0080           0
     37040 WT14     737      MECN     H12      HGA3     0.090000        1.0080           0
     37041 WT14     737      MECN     H13      HGA3     0.090000        1.0080           0
     37042 WT14     737      MECN     C2       CG1N1    0.360000       12.0110           0
     37043 WT14     737      MECN     N3       NG1T1   -0.460000       14.0070           0
     37044 WT14     738      MECN     C1       CG331   -0.170000       12.0110           0
     37045 WT14     738      MECN     H11      HGA3     0.090000        1.0080           0
     37046 WT14     738      MECN     H12      HGA3     0.090000        1.0080           0
     37047 WT14     738      MECN     H13      HGA3     0.090000        1.0080           0
     37048 WT14     738      MECN     C2       CG1N1    0.360000       12.0110           0
     37049 WT14     738      MECN     N3       NG1T1   -0.460000       14.0070           0
     37050 WT14     739      MECN     C1       CG331   -0.170000       12.0110           0
     37051 WT14     739      MECN     H11      HGA3     0.090000        1.0080           0
     37052 WT14     739      MECN     H12      HGA3     0.090000        1.0080           0
     37053 WT14     739      MECN     H13      HGA3     0.090000        1.0080           0
     37054 WT14     739      MECN     C2       CG1N1    0.360000       12.0110           0
     37055 WT14     739      MECN     N3       NG1T1   -0.460000       14.0070           0
     37056 WT14     740      MECN     C1       CG331   -0.170000       12.0110           0
     37057 WT14     740      MECN     H11      HGA3     0.090000        1.0080           0
     37058 WT14     740      MECN     H12      HGA3     0.090000        1.0080           0
     37059 WT14     740      MECN     H13      HGA3     0.090000        1.0080           0
     37060 WT14     740      MECN     C2       CG1N1    0.360000       12.0110           0
     37061 WT14     740      MECN     N3       NG1T1   -0.460000       14.0070           0
     37062 WT14     742      MECN     C1       CG331   -0.170000       12.0110           0
     37063 WT14     742      MECN     H11      HGA3     0.090000        1.0080           0
     37064 WT14     742      MECN     H12      HGA3     0.090000        1.0080           0
     37065 WT14     742      MECN     H13      HGA3     0.090000        1.0080           0
     37066 WT14     742      MECN     C2       CG1N1    0.360000       12.0110           0
     37067 WT14     742      MECN     N3       NG1T1   -0.460000       14.0070           0
     37068 WT14     744      MECN     C1       CG331   -0.170000       12.0110           0
     37069 WT14     744      MECN     H11      HGA3     0.090000        1.0080           0
     37070 WT14     744      MECN     H12      HGA3     0.090000        1.0080           0
     37071 WT14     744      MECN     H13      HGA3     0.090000        1.0080           0
     37072 WT14     744      MECN     C2       CG1N1    0.360000       12.0110           0
     37073 WT14     744      MECN     N3       NG1T1   -0.460000       14.0070           0
     37074 WT14     745      MECN     C1       CG331   -0.170000       12.0110           0
     37075 WT14     745      MECN     H11      HGA3     0.090000        1.0080           0
     37076 WT14     745      MECN     H12      HGA3     0.090000        1.0080           0
     37077 WT14     745      MECN     H13      HGA3     0.090000        1.0080           0
     37078 WT14     745      MECN     C2       CG1N1    0.360000       12.0110           0
     37079 WT14     745      MECN     N3       NG1T1   -0.460000       14.0070           0
     37080 WT14     746      MECN     C1       CG331   -0.170000       12.0110           0
     37081 WT14     746      MECN     H11      HGA3     0.090000        1.0080           0
     37082 WT14     746      MECN     H12      HGA3     0.090000        1.0080           0
     37083 WT14     746      MECN     H13      HGA3     0.090000        1.0080           0
     37084 WT14     746      MECN     C2       CG1N1    0.360000       12.0110           0
     37085 WT14     746      MECN     N3       NG1T1   -0.460000       14.0070           0
     37086 WT14     747      MECN     C1       CG331   -0.170000       12.0110           0
     37087 WT14     747      MECN     H11      HGA3     0.090000        1.0080           0
     37088 WT14     747      MECN     H12      HGA3     0.090000        1.0080           0
     37089 WT14     747      MECN     H13      HGA3     0.090000        1.0080           0
     37090 WT14     747      MECN     C2       CG1N1    0.360000       12.0110           0
     37091 WT14     747      MECN     N3       NG1T1   -0.460000       14.0070           0
     37092 WT14     748      MECN     C1       CG331   -0.170000       12.0110           0
     37093 WT14     748      MECN     H11      HGA3     0.090000        1.0080           0
     37094 WT14     748      MECN     H12      HGA3     0.090000        1.0080           0
     37095 WT14     748      MECN     H13      HGA3     0.090000        1.0080           0
     37096 WT14     748      MECN     C2       CG1N1    0.360000       12.0110           0
     37097 WT14     748      MECN     N3       NG1T1   -0.460000       14.0070           0
     37098 WT14     749      MECN     C1       CG331   -0.170000       12.0110           0
     37099 WT14     749      MECN     H11      HGA3     0.090000        1.0080           0
     37100 WT14     749      MECN     H12      HGA3     0.090000        1.0080           0
     37101 WT14     749      MECN     H13      HGA3     0.090000        1.0080           0
     37102 WT14     749      MECN     C2       CG1N1    0.360000       12.0110           0
     37103 WT14     749      MECN     N3       NG1T1   -0.460000       14.0070           0
     37104 WT14     750      MECN     C1       CG331   -0.170000       12.0110           0
     37105 WT14     750      MECN     H11      HGA3     0.090000        1.0080           0
     37106 WT14     750      MECN     H12      HGA3     0.090000        1.0080           0
     37107 WT14     750      MECN     H13      HGA3     0.090000        1.0080           0
     37108 WT14     750      MECN     C2       CG1N1    0.360000       12.0110           0
     37109 WT14     750      MECN     N3       NG1T1   -0.460000       14.0070           0
     37110 WT14     751      MECN     C1       CG331   -0.170000       12.0110           0
     37111 WT14     751      MECN     H11      HGA3     0.090000        1.0080           0
     37112 WT14     751      MECN     H12      HGA3     0.090000        1.0080           0
     37113 WT14     751      MECN     H13      HGA3     0.090000        1.0080           0
     37114 WT14     751      MECN     C2       CG1N1    0.360000       12.0110           0
     37115 WT14     751      MECN     N3       NG1T1   -0.460000       14.0070           0
     37116 WT14     752      MECN     C1       CG331   -0.170000       12.0110           0
     37117 WT14     752      MECN     H11      HGA3     0.090000        1.0080           0
     37118 WT14     752      MECN     H12      HGA3     0.090000        1.0080           0
     37119 WT14     752      MECN     H13      HGA3     0.090000        1.0080           0
     37120 WT14     752      MECN     C2       CG1N1    0.360000       12.0110           0
     37121 WT14     752      MECN     N3       NG1T1   -0.460000       14.0070           0
     37122 WT14     753      MECN     C1       CG331   -0.170000       12.0110           0
     37123 WT14     753      MECN     H11      HGA3     0.090000        1.0080           0
     37124 WT14     753      MECN     H12      HGA3     0.090000        1.0080           0
     37125 WT14     753      MECN     H13      HGA3     0.090000        1.0080           0
     37126 WT14     753      MECN     C2       CG1N1    0.360000       12.0110           0
     37127 WT14     753      MECN     N3       NG1T1   -0.460000       14.0070           0
     37128 WT14     754      MECN     C1       CG331   -0.170000       12.0110           0
     37129 WT14     754      MECN     H11      HGA3     0.090000        1.0080           0
     37130 WT14     754      MECN     H12      HGA3     0.090000        1.0080           0
     37131 WT14     754      MECN     H13      HGA3     0.090000        1.0080           0
     37132 WT14     754      MECN     C2       CG1N1    0.360000       12.0110           0
     37133 WT14     754      MECN     N3       NG1T1   -0.460000       14.0070           0
     37134 WT14     755      MECN     C1       CG331   -0.170000       12.0110           0
     37135 WT14     755      MECN     H11      HGA3     0.090000        1.0080           0
     37136 WT14     755      MECN     H12      HGA3     0.090000        1.0080           0
     37137 WT14     755      MECN     H13      HGA3     0.090000        1.0080           0
     37138 WT14     755      MECN     C2       CG1N1    0.360000       12.0110           0
     37139 WT14     755      MECN     N3       NG1T1   -0.460000       14.0070           0
     37140 WT14     756      MECN     C1       CG331   -0.170000       12.0110           0
     37141 WT14     756      MECN     H11      HGA3     0.090000        1.0080           0
     37142 WT14     756      MECN     H12      HGA3     0.090000        1.0080           0
     37143 WT14     756      MECN     H13      HGA3     0.090000        1.0080           0
     37144 WT14     756      MECN     C2       CG1N1    0.360000       12.0110           0
     37145 WT14     756      MECN     N3       NG1T1   -0.460000       14.0070           0
     37146 WT14     757      MECN     C1       CG331   -0.170000       12.0110           0
     37147 WT14     757      MECN     H11      HGA3     0.090000        1.0080           0
     37148 WT14     757      MECN     H12      HGA3     0.090000        1.0080           0
     37149 WT14     757      MECN     H13      HGA3     0.090000        1.0080           0
     37150 WT14     757      MECN     C2       CG1N1    0.360000       12.0110           0
     37151 WT14     757      MECN     N3       NG1T1   -0.460000       14.0070           0
     37152 WT14     758      MECN     C1       CG331   -0.170000       12.0110           0
     37153 WT14     758      MECN     H11      HGA3     0.090000        1.0080           0
     37154 WT14     758      MECN     H12      HGA3     0.090000        1.0080           0
     37155 WT14     758      MECN     H13      HGA3     0.090000        1.0080           0
     37156 WT14     758      MECN     C2       CG1N1    0.360000       12.0110           0
     37157 WT14     758      MECN     N3       NG1T1   -0.460000       14.0070           0
     37158 WT14     759      MECN     C1       CG331   -0.170000       12.0110           0
     37159 WT14     759      MECN     H11      HGA3     0.090000        1.0080           0
     37160 WT14     759      MECN     H12      HGA3     0.090000        1.0080           0
     37161 WT14     759      MECN     H13      HGA3     0.090000        1.0080           0
     37162 WT14     759      MECN     C2       CG1N1    0.360000       12.0110           0
     37163 WT14     759      MECN     N3       NG1T1   -0.460000       14.0070           0
     37164 WT14     761      MECN     C1       CG331   -0.170000       12.0110           0
     37165 WT14     761      MECN     H11      HGA3     0.090000        1.0080           0
     37166 WT14     761      MECN     H12      HGA3     0.090000        1.0080           0
     37167 WT14     761      MECN     H13      HGA3     0.090000        1.0080           0
     37168 WT14     761      MECN     C2       CG1N1    0.360000       12.0110           0
     37169 WT14     761      MECN     N3       NG1T1   -0.460000       14.0070           0
     37170 WT14     762      MECN     C1       CG331   -0.170000       12.0110           0
     37171 WT14     762      MECN     H11      HGA3     0.090000        1.0080           0
     37172 WT14     762      MECN     H12      HGA3     0.090000        1.0080           0
     37173 WT14     762      MECN     H13      HGA3     0.090000        1.0080           0
     37174 WT14     762      MECN     C2       CG1N1    0.360000       12.0110           0
     37175 WT14     762      MECN     N3       NG1T1   -0.460000       14.0070           0
     37176 WT14     764      MECN     C1       CG331   -0.170000       12.0110           0
     37177 WT14     764      MECN     H11      HGA3     0.090000        1.0080           0
     37178 WT14     764      MECN     H12      HGA3     0.090000        1.0080           0
     37179 WT14     764      MECN     H13      HGA3     0.090000        1.0080           0
     37180 WT14     764      MECN     C2       CG1N1    0.360000       12.0110           0
     37181 WT14     764      MECN     N3       NG1T1   -0.460000       14.0070           0
     37182 WT14     765      MECN     C1       CG331   -0.170000       12.0110           0
     37183 WT14     765      MECN     H11      HGA3     0.090000        1.0080           0
     37184 WT14     765      MECN     H12      HGA3     0.090000        1.0080           0
     37185 WT14     765      MECN     H13      HGA3     0.090000        1.0080           0
     37186 WT14     765      MECN     C2       CG1N1    0.360000       12.0110           0
     37187 WT14     765      MECN     N3       NG1T1   -0.460000       14.0070           0
     37188 WT14     767      MECN     C1       CG331   -0.170000       12.0110           0
     37189 WT14     767      MECN     H11      HGA3     0.090000        1.0080           0
     37190 WT14     767      MECN     H12      HGA3     0.090000        1.0080           0
     37191 WT14     767      MECN     H13      HGA3     0.090000        1.0080           0
     37192 WT14     767      MECN     C2       CG1N1    0.360000       12.0110           0
     37193 WT14     767      MECN     N3       NG1T1   -0.460000       14.0070           0
     37194 WT14     769      MECN     C1       CG331   -0.170000       12.0110           0
     37195 WT14     769      MECN     H11      HGA3     0.090000        1.0080           0
     37196 WT14     769      MECN     H12      HGA3     0.090000        1.0080           0
     37197 WT14     769      MECN     H13      HGA3     0.090000        1.0080           0
     37198 WT14     769      MECN     C2       CG1N1    0.360000       12.0110           0
     37199 WT14     769      MECN     N3       NG1T1   -0.460000       14.0070           0
     37200 WT14     770      MECN     C1       CG331   -0.170000       12.0110           0
     37201 WT14     770      MECN     H11      HGA3     0.090000        1.0080           0
     37202 WT14     770      MECN     H12      HGA3     0.090000        1.0080           0
     37203 WT14     770      MECN     H13      HGA3     0.090000        1.0080           0
     37204 WT14     770      MECN     C2       CG1N1    0.360000       12.0110           0
     37205 WT14     770      MECN     N3       NG1T1   -0.460000       14.0070           0
     37206 WT14     771      MECN     C1       CG331   -0.170000       12.0110           0
     37207 WT14     771      MECN     H11      HGA3     0.090000        1.0080           0
     37208 WT14     771      MECN     H12      HGA3     0.090000        1.0080           0
     37209 WT14     771      MECN     H13      HGA3     0.090000        1.0080           0
     37210 WT14     771      MECN     C2       CG1N1    0.360000       12.0110           0
     37211 WT14     771      MECN     N3       NG1T1   -0.460000       14.0070           0
     37212 WT14     772      MECN     C1       CG331   -0.170000       12.0110           0
     37213 WT14     772      MECN     H11      HGA3     0.090000        1.0080           0
     37214 WT14     772      MECN     H12      HGA3     0.090000        1.0080           0
     37215 WT14     772      MECN     H13      HGA3     0.090000        1.0080           0
     37216 WT14     772      MECN     C2       CG1N1    0.360000       12.0110           0
     37217 WT14     772      MECN     N3       NG1T1   -0.460000       14.0070           0
     37218 WT14     774      MECN     C1       CG331   -0.170000       12.0110           0
     37219 WT14     774      MECN     H11      HGA3     0.090000        1.0080           0
     37220 WT14     774      MECN     H12      HGA3     0.090000        1.0080           0
     37221 WT14     774      MECN     H13      HGA3     0.090000        1.0080           0
     37222 WT14     774      MECN     C2       CG1N1    0.360000       12.0110           0
     37223 WT14     774      MECN     N3       NG1T1   -0.460000       14.0070           0
     37224 WT14     776      MECN     C1       CG331   -0.170000       12.0110           0
     37225 WT14     776      MECN     H11      HGA3     0.090000        1.0080           0
     37226 WT14     776      MECN     H12      HGA3     0.090000        1.0080           0
     37227 WT14     776      MECN     H13      HGA3     0.090000        1.0080           0
     37228 WT14     776      MECN     C2       CG1N1    0.360000       12.0110           0
     37229 WT14     776      MECN     N3       NG1T1   -0.460000       14.0070           0
     37230 WT14     777      MECN     C1       CG331   -0.170000       12.0110           0
     37231 WT14     777      MECN     H11      HGA3     0.090000        1.0080           0
     37232 WT14     777      MECN     H12      HGA3     0.090000        1.0080           0
     37233 WT14     777      MECN     H13      HGA3     0.090000        1.0080           0
     37234 WT14     777      MECN     C2       CG1N1    0.360000       12.0110           0
     37235 WT14     777      MECN     N3       NG1T1   -0.460000       14.0070           0
     37236 WT14     778      MECN     C1       CG331   -0.170000       12.0110           0
     37237 WT14     778      MECN     H11      HGA3     0.090000        1.0080           0
     37238 WT14     778      MECN     H12      HGA3     0.090000        1.0080           0
     37239 WT14     778      MECN     H13      HGA3     0.090000        1.0080           0
     37240 WT14     778      MECN     C2       CG1N1    0.360000       12.0110           0
     37241 WT14     778      MECN     N3       NG1T1   -0.460000       14.0070           0
     37242 WT14     779      MECN     C1       CG331   -0.170000       12.0110           0
     37243 WT14     779      MECN     H11      HGA3     0.090000        1.0080           0
     37244 WT14     779      MECN     H12      HGA3     0.090000        1.0080           0
     37245 WT14     779      MECN     H13      HGA3     0.090000        1.0080           0
     37246 WT14     779      MECN     C2       CG1N1    0.360000       12.0110           0
     37247 WT14     779      MECN     N3       NG1T1   -0.460000       14.0070           0
     37248 WT14     780      MECN     C1       CG331   -0.170000       12.0110           0
     37249 WT14     780      MECN     H11      HGA3     0.090000        1.0080           0
     37250 WT14     780      MECN     H12      HGA3     0.090000        1.0080           0
     37251 WT14     780      MECN     H13      HGA3     0.090000        1.0080           0
     37252 WT14     780      MECN     C2       CG1N1    0.360000       12.0110           0
     37253 WT14     780      MECN     N3       NG1T1   -0.460000       14.0070           0
     37254 WT14     781      MECN     C1       CG331   -0.170000       12.0110           0
     37255 WT14     781      MECN     H11      HGA3     0.090000        1.0080           0
     37256 WT14     781      MECN     H12      HGA3     0.090000        1.0080           0
     37257 WT14     781      MECN     H13      HGA3     0.090000        1.0080           0
     37258 WT14     781      MECN     C2       CG1N1    0.360000       12.0110           0
     37259 WT14     781      MECN     N3       NG1T1   -0.460000       14.0070           0
     37260 WT14     783      MECN     C1       CG331   -0.170000       12.0110           0
     37261 WT14     783      MECN     H11      HGA3     0.090000        1.0080           0
     37262 WT14     783      MECN     H12      HGA3     0.090000        1.0080           0
     37263 WT14     783      MECN     H13      HGA3     0.090000        1.0080           0
     37264 WT14     783      MECN     C2       CG1N1    0.360000       12.0110           0
     37265 WT14     783      MECN     N3       NG1T1   -0.460000       14.0070           0
     37266 WT14     784      MECN     C1       CG331   -0.170000       12.0110           0
     37267 WT14     784      MECN     H11      HGA3     0.090000        1.0080           0
     37268 WT14     784      MECN     H12      HGA3     0.090000        1.0080           0
     37269 WT14     784      MECN     H13      HGA3     0.090000        1.0080           0
     37270 WT14     784      MECN     C2       CG1N1    0.360000       12.0110           0
     37271 WT14     784      MECN     N3       NG1T1   -0.460000       14.0070           0
     37272 WT14     785      MECN     C1       CG331   -0.170000       12.0110           0
     37273 WT14     785      MECN     H11      HGA3     0.090000        1.0080           0
     37274 WT14     785      MECN     H12      HGA3     0.090000        1.0080           0
     37275 WT14     785      MECN     H13      HGA3     0.090000        1.0080           0
     37276 WT14     785      MECN     C2       CG1N1    0.360000       12.0110           0
     37277 WT14     785      MECN     N3       NG1T1   -0.460000       14.0070           0
     37278 WT14     787      MECN     C1       CG331   -0.170000       12.0110           0
     37279 WT14     787      MECN     H11      HGA3     0.090000        1.0080           0
     37280 WT14     787      MECN     H12      HGA3     0.090000        1.0080           0
     37281 WT14     787      MECN     H13      HGA3     0.090000        1.0080           0
     37282 WT14     787      MECN     C2       CG1N1    0.360000       12.0110           0
     37283 WT14     787      MECN     N3       NG1T1   -0.460000       14.0070           0
     37284 WT14     789      MECN     C1       CG331   -0.170000       12.0110           0
     37285 WT14     789      MECN     H11      HGA3     0.090000        1.0080           0
     37286 WT14     789      MECN     H12      HGA3     0.090000        1.0080           0
     37287 WT14     789      MECN     H13      HGA3     0.090000        1.0080           0
     37288 WT14     789      MECN     C2       CG1N1    0.360000       12.0110           0
     37289 WT14     789      MECN     N3       NG1T1   -0.460000       14.0070           0
     37290 WT14     790      MECN     C1       CG331   -0.170000       12.0110           0
     37291 WT14     790      MECN     H11      HGA3     0.090000        1.0080           0
     37292 WT14     790      MECN     H12      HGA3     0.090000        1.0080           0
     37293 WT14     790      MECN     H13      HGA3     0.090000        1.0080           0
     37294 WT14     790      MECN     C2       CG1N1    0.360000       12.0110           0
     37295 WT14     790      MECN     N3       NG1T1   -0.460000       14.0070           0
     37296 WT14     791      MECN     C1       CG331   -0.170000       12.0110           0
     37297 WT14     791      MECN     H11      HGA3     0.090000        1.0080           0
     37298 WT14     791      MECN     H12      HGA3     0.090000        1.0080           0
     37299 WT14     791      MECN     H13      HGA3     0.090000        1.0080           0
     37300 WT14     791      MECN     C2       CG1N1    0.360000       12.0110           0
     37301 WT14     791      MECN     N3       NG1T1   -0.460000       14.0070           0
     37302 WT14     792      MECN     C1       CG331   -0.170000       12.0110           0
     37303 WT14     792      MECN     H11      HGA3     0.090000        1.0080           0
     37304 WT14     792      MECN     H12      HGA3     0.090000        1.0080           0
     37305 WT14     792      MECN     H13      HGA3     0.090000        1.0080           0
     37306 WT14     792      MECN     C2       CG1N1    0.360000       12.0110           0
     37307 WT14     792      MECN     N3       NG1T1   -0.460000       14.0070           0
     37308 WT14     793      MECN     C1       CG331   -0.170000       12.0110           0
     37309 WT14     793      MECN     H11      HGA3     0.090000        1.0080           0
     37310 WT14     793      MECN     H12      HGA3     0.090000        1.0080           0
     37311 WT14     793      MECN     H13      HGA3     0.090000        1.0080           0
     37312 WT14     793      MECN     C2       CG1N1    0.360000       12.0110           0
     37313 WT14     793      MECN     N3       NG1T1   -0.460000       14.0070           0
     37314 WT14     795      MECN     C1       CG331   -0.170000       12.0110           0
     37315 WT14     795      MECN     H11      HGA3     0.090000        1.0080           0
     37316 WT14     795      MECN     H12      HGA3     0.090000        1.0080           0
     37317 WT14     795      MECN     H13      HGA3     0.090000        1.0080           0
     37318 WT14     795      MECN     C2       CG1N1    0.360000       12.0110           0
     37319 WT14     795      MECN     N3       NG1T1   -0.460000       14.0070           0
     37320 WT14     796      MECN     C1       CG331   -0.170000       12.0110           0
     37321 WT14     796      MECN     H11      HGA3     0.090000        1.0080           0
     37322 WT14     796      MECN     H12      HGA3     0.090000        1.0080           0
     37323 WT14     796      MECN     H13      HGA3     0.090000        1.0080           0
     37324 WT14     796      MECN     C2       CG1N1    0.360000       12.0110           0
     37325 WT14     796      MECN     N3       NG1T1   -0.460000       14.0070           0
     37326 WT14     797      MECN     C1       CG331   -0.170000       12.0110           0
     37327 WT14     797      MECN     H11      HGA3     0.090000        1.0080           0
     37328 WT14     797      MECN     H12      HGA3     0.090000        1.0080           0
     37329 WT14     797      MECN     H13      HGA3     0.090000        1.0080           0
     37330 WT14     797      MECN     C2       CG1N1    0.360000       12.0110           0
     37331 WT14     797      MECN     N3       NG1T1   -0.460000       14.0070           0
     37332 WT14     798      MECN     C1       CG331   -0.170000       12.0110           0
     37333 WT14     798      MECN     H11      HGA3     0.090000        1.0080           0
     37334 WT14     798      MECN     H12      HGA3     0.090000        1.0080           0
     37335 WT14     798      MECN     H13      HGA3     0.090000        1.0080           0
     37336 WT14     798      MECN     C2       CG1N1    0.360000       12.0110           0
     37337 WT14     798      MECN     N3       NG1T1   -0.460000       14.0070           0
     37338 WT14     799      MECN     C1       CG331   -0.170000       12.0110           0
     37339 WT14     799      MECN     H11      HGA3     0.090000        1.0080           0
     37340 WT14     799      MECN     H12      HGA3     0.090000        1.0080           0
     37341 WT14     799      MECN     H13      HGA3     0.090000        1.0080           0
     37342 WT14     799      MECN     C2       CG1N1    0.360000       12.0110           0
     37343 WT14     799      MECN     N3       NG1T1   -0.460000       14.0070           0
     37344 WT14     800      MECN     C1       CG331   -0.170000       12.0110           0
     37345 WT14     800      MECN     H11      HGA3     0.090000        1.0080           0
     37346 WT14     800      MECN     H12      HGA3     0.090000        1.0080           0
     37347 WT14     800      MECN     H13      HGA3     0.090000        1.0080           0
     37348 WT14     800      MECN     C2       CG1N1    0.360000       12.0110           0
     37349 WT14     800      MECN     N3       NG1T1   -0.460000       14.0070           0
     37350 WT14     802      MECN     C1       CG331   -0.170000       12.0110           0
     37351 WT14     802      MECN     H11      HGA3     0.090000        1.0080           0
     37352 WT14     802      MECN     H12      HGA3     0.090000        1.0080           0
     37353 WT14     802      MECN     H13      HGA3     0.090000        1.0080           0
     37354 WT14     802      MECN     C2       CG1N1    0.360000       12.0110           0
     37355 WT14     802      MECN     N3       NG1T1   -0.460000       14.0070           0
     37356 WT14     803      MECN     C1       CG331   -0.170000       12.0110           0
     37357 WT14     803      MECN     H11      HGA3     0.090000        1.0080           0
     37358 WT14     803      MECN     H12      HGA3     0.090000        1.0080           0
     37359 WT14     803      MECN     H13      HGA3     0.090000        1.0080           0
     37360 WT14     803      MECN     C2       CG1N1    0.360000       12.0110           0
     37361 WT14     803      MECN     N3       NG1T1   -0.460000       14.0070           0
     37362 WT14     805      MECN     C1       CG331   -0.170000       12.0110           0
     37363 WT14     805      MECN     H11      HGA3     0.090000        1.0080           0
     37364 WT14     805      MECN     H12      HGA3     0.090000        1.0080           0
     37365 WT14     805      MECN     H13      HGA3     0.090000        1.0080           0
     37366 WT14     805      MECN     C2       CG1N1    0.360000       12.0110           0
     37367 WT14     805      MECN     N3       NG1T1   -0.460000       14.0070           0
     37368 WT14     806      MECN     C1       CG331   -0.170000       12.0110           0
     37369 WT14     806      MECN     H11      HGA3     0.090000        1.0080           0
     37370 WT14     806      MECN     H12      HGA3     0.090000        1.0080           0
     37371 WT14     806      MECN     H13      HGA3     0.090000        1.0080           0
     37372 WT14     806      MECN     C2       CG1N1    0.360000       12.0110           0
     37373 WT14     806      MECN     N3       NG1T1   -0.460000       14.0070           0
     37374 WT14     807      MECN     C1       CG331   -0.170000       12.0110           0
     37375 WT14     807      MECN     H11      HGA3     0.090000        1.0080           0
     37376 WT14     807      MECN     H12      HGA3     0.090000        1.0080           0
     37377 WT14     807      MECN     H13      HGA3     0.090000        1.0080           0
     37378 WT14     807      MECN     C2       CG1N1    0.360000       12.0110           0
     37379 WT14     807      MECN     N3       NG1T1   -0.460000       14.0070           0
     37380 WT14     808      MECN     C1       CG331   -0.170000       12.0110           0
     37381 WT14     808      MECN     H11      HGA3     0.090000        1.0080           0
     37382 WT14     808      MECN     H12      HGA3     0.090000        1.0080           0
     37383 WT14     808      MECN     H13      HGA3     0.090000        1.0080           0
     37384 WT14     808      MECN     C2       CG1N1    0.360000       12.0110           0
     37385 WT14     808      MECN     N3       NG1T1   -0.460000       14.0070           0
     37386 WT14     810      MECN     C1       CG331   -0.170000       12.0110           0
     37387 WT14     810      MECN     H11      HGA3     0.090000        1.0080           0
     37388 WT14     810      MECN     H12      HGA3     0.090000        1.0080           0
     37389 WT14     810      MECN     H13      HGA3     0.090000        1.0080           0
     37390 WT14     810      MECN     C2       CG1N1    0.360000       12.0110           0
     37391 WT14     810      MECN     N3       NG1T1   -0.460000       14.0070           0
     37392 WT14     811      MECN     C1       CG331   -0.170000       12.0110           0
     37393 WT14     811      MECN     H11      HGA3     0.090000        1.0080           0
     37394 WT14     811      MECN     H12      HGA3     0.090000        1.0080           0
     37395 WT14     811      MECN     H13      HGA3     0.090000        1.0080           0
     37396 WT14     811      MECN     C2       CG1N1    0.360000       12.0110           0
     37397 WT14     811      MECN     N3       NG1T1   -0.460000       14.0070           0
     37398 WT14     813      MECN     C1       CG331   -0.170000       12.0110           0
     37399 WT14     813      MECN     H11      HGA3     0.090000        1.0080           0
     37400 WT14     813      MECN     H12      HGA3     0.090000        1.0080           0
     37401 WT14     813      MECN     H13      HGA3     0.090000        1.0080           0
     37402 WT14     813      MECN     C2       CG1N1    0.360000       12.0110           0
     37403 WT14     813      MECN     N3       NG1T1   -0.460000       14.0070           0
     37404 WT14     814      MECN     C1       CG331   -0.170000       12.0110           0
     37405 WT14     814      MECN     H11      HGA3     0.090000        1.0080           0
     37406 WT14     814      MECN     H12      HGA3     0.090000        1.0080           0
     37407 WT14     814      MECN     H13      HGA3     0.090000        1.0080           0
     37408 WT14     814      MECN     C2       CG1N1    0.360000       12.0110           0
     37409 WT14     814      MECN     N3       NG1T1   -0.460000       14.0070           0
     37410 WT14     816      MECN     C1       CG331   -0.170000       12.0110           0
     37411 WT14     816      MECN     H11      HGA3     0.090000        1.0080           0
     37412 WT14     816      MECN     H12      HGA3     0.090000        1.0080           0
     37413 WT14     816      MECN     H13      HGA3     0.090000        1.0080           0
     37414 WT14     816      MECN     C2       CG1N1    0.360000       12.0110           0
     37415 WT14     816      MECN     N3       NG1T1   -0.460000       14.0070           0
     37416 WT14     817      MECN     C1       CG331   -0.170000       12.0110           0
     37417 WT14     817      MECN     H11      HGA3     0.090000        1.0080           0
     37418 WT14     817      MECN     H12      HGA3     0.090000        1.0080           0
     37419 WT14     817      MECN     H13      HGA3     0.090000        1.0080           0
     37420 WT14     817      MECN     C2       CG1N1    0.360000       12.0110           0
     37421 WT14     817      MECN     N3       NG1T1   -0.460000       14.0070           0
     37422 WT14     819      MECN     C1       CG331   -0.170000       12.0110           0
     37423 WT14     819      MECN     H11      HGA3     0.090000        1.0080           0
     37424 WT14     819      MECN     H12      HGA3     0.090000        1.0080           0
     37425 WT14     819      MECN     H13      HGA3     0.090000        1.0080           0
     37426 WT14     819      MECN     C2       CG1N1    0.360000       12.0110           0
     37427 WT14     819      MECN     N3       NG1T1   -0.460000       14.0070           0
     37428 WT14     820      MECN     C1       CG331   -0.170000       12.0110           0
     37429 WT14     820      MECN     H11      HGA3     0.090000        1.0080           0
     37430 WT14     820      MECN     H12      HGA3     0.090000        1.0080           0
     37431 WT14     820      MECN     H13      HGA3     0.090000        1.0080           0
     37432 WT14     820      MECN     C2       CG1N1    0.360000       12.0110           0
     37433 WT14     820      MECN     N3       NG1T1   -0.460000       14.0070           0
     37434 WT14     821      MECN     C1       CG331   -0.170000       12.0110           0
     37435 WT14     821      MECN     H11      HGA3     0.090000        1.0080           0
     37436 WT14     821      MECN     H12      HGA3     0.090000        1.0080           0
     37437 WT14     821      MECN     H13      HGA3     0.090000        1.0080           0
     37438 WT14     821      MECN     C2       CG1N1    0.360000       12.0110           0
     37439 WT14     821      MECN     N3       NG1T1   -0.460000       14.0070           0
     37440 WT14     823      MECN     C1       CG331   -0.170000       12.0110           0
     37441 WT14     823      MECN     H11      HGA3     0.090000        1.0080           0
     37442 WT14     823      MECN     H12      HGA3     0.090000        1.0080           0
     37443 WT14     823      MECN     H13      HGA3     0.090000        1.0080           0
     37444 WT14     823      MECN     C2       CG1N1    0.360000       12.0110           0
     37445 WT14     823      MECN     N3       NG1T1   -0.460000       14.0070           0
     37446 WT14     824      MECN     C1       CG331   -0.170000       12.0110           0
     37447 WT14     824      MECN     H11      HGA3     0.090000        1.0080           0
     37448 WT14     824      MECN     H12      HGA3     0.090000        1.0080           0
     37449 WT14     824      MECN     H13      HGA3     0.090000        1.0080           0
     37450 WT14     824      MECN     C2       CG1N1    0.360000       12.0110           0
     37451 WT14     824      MECN     N3       NG1T1   -0.460000       14.0070           0
     37452 WT14     826      MECN     C1       CG331   -0.170000       12.0110           0
     37453 WT14     826      MECN     H11      HGA3     0.090000        1.0080           0
     37454 WT14     826      MECN     H12      HGA3     0.090000        1.0080           0
     37455 WT14     826      MECN     H13      HGA3     0.090000        1.0080           0
     37456 WT14     826      MECN     C2       CG1N1    0.360000       12.0110           0
     37457 WT14     826      MECN     N3       NG1T1   -0.460000       14.0070           0
     37458 WT14     827      MECN     C1       CG331   -0.170000       12.0110           0
     37459 WT14     827      MECN     H11      HGA3     0.090000        1.0080           0
     37460 WT14     827      MECN     H12      HGA3     0.090000        1.0080           0
     37461 WT14     827      MECN     H13      HGA3     0.090000        1.0080           0
     37462 WT14     827      MECN     C2       CG1N1    0.360000       12.0110           0
     37463 WT14     827      MECN     N3       NG1T1   -0.460000       14.0070           0
     37464 WT14     828      MECN     C1       CG331   -0.170000       12.0110           0
     37465 WT14     828      MECN     H11      HGA3     0.090000        1.0080           0
     37466 WT14     828      MECN     H12      HGA3     0.090000        1.0080           0
     37467 WT14     828      MECN     H13      HGA3     0.090000        1.0080           0
     37468 WT14     828      MECN     C2       CG1N1    0.360000       12.0110           0
     37469 WT14     828      MECN     N3       NG1T1   -0.460000       14.0070           0
     37470 WT14     829      MECN     C1       CG331   -0.170000       12.0110           0
     37471 WT14     829      MECN     H11      HGA3     0.090000        1.0080           0
     37472 WT14     829      MECN     H12      HGA3     0.090000        1.0080           0
     37473 WT14     829      MECN     H13      HGA3     0.090000        1.0080           0
     37474 WT14     829      MECN     C2       CG1N1    0.360000       12.0110           0
     37475 WT14     829      MECN     N3       NG1T1   -0.460000       14.0070           0
     37476 WT14     830      MECN     C1       CG331   -0.170000       12.0110           0
     37477 WT14     830      MECN     H11      HGA3     0.090000        1.0080           0
     37478 WT14     830      MECN     H12      HGA3     0.090000        1.0080           0
     37479 WT14     830      MECN     H13      HGA3     0.090000        1.0080           0
     37480 WT14     830      MECN     C2       CG1N1    0.360000       12.0110           0
     37481 WT14     830      MECN     N3       NG1T1   -0.460000       14.0070           0
     37482 WT14     831      MECN     C1       CG331   -0.170000       12.0110           0
     37483 WT14     831      MECN     H11      HGA3     0.090000        1.0080           0
     37484 WT14     831      MECN     H12      HGA3     0.090000        1.0080           0
     37485 WT14     831      MECN     H13      HGA3     0.090000        1.0080           0
     37486 WT14     831      MECN     C2       CG1N1    0.360000       12.0110           0
     37487 WT14     831      MECN     N3       NG1T1   -0.460000       14.0070           0
     37488 WT14     832      MECN     C1       CG331   -0.170000       12.0110           0
     37489 WT14     832      MECN     H11      HGA3     0.090000        1.0080           0
     37490 WT14     832      MECN     H12      HGA3     0.090000        1.0080           0
     37491 WT14     832      MECN     H13      HGA3     0.090000        1.0080           0
     37492 WT14     832      MECN     C2       CG1N1    0.360000       12.0110           0
     37493 WT14     832      MECN     N3       NG1T1   -0.460000       14.0070           0
     37494 WT14     833      MECN     C1       CG331   -0.170000       12.0110           0
     37495 WT14     833      MECN     H11      HGA3     0.090000        1.0080           0
     37496 WT14     833      MECN     H12      HGA3     0.090000        1.0080           0
     37497 WT14     833      MECN     H13      HGA3     0.090000        1.0080           0
     37498 WT14     833      MECN     C2       CG1N1    0.360000       12.0110           0
     37499 WT14     833      MECN     N3       NG1T1   -0.460000       14.0070           0
     37500 WT14     834      MECN     C1       CG331   -0.170000       12.0110           0
     37501 WT14     834      MECN     H11      HGA3     0.090000        1.0080           0
     37502 WT14     834      MECN     H12      HGA3     0.090000        1.0080           0
     37503 WT14     834      MECN     H13      HGA3     0.090000        1.0080           0
     37504 WT14     834      MECN     C2       CG1N1    0.360000       12.0110           0
     37505 WT14     834      MECN     N3       NG1T1   -0.460000       14.0070           0
     37506 WT14     836      MECN     C1       CG331   -0.170000       12.0110           0
     37507 WT14     836      MECN     H11      HGA3     0.090000        1.0080           0
     37508 WT14     836      MECN     H12      HGA3     0.090000        1.0080           0
     37509 WT14     836      MECN     H13      HGA3     0.090000        1.0080           0
     37510 WT14     836      MECN     C2       CG1N1    0.360000       12.0110           0
     37511 WT14     836      MECN     N3       NG1T1   -0.460000       14.0070           0
     37512 WT14     837      MECN     C1       CG331   -0.170000       12.0110           0
     37513 WT14     837      MECN     H11      HGA3     0.090000        1.0080           0
     37514 WT14     837      MECN     H12      HGA3     0.090000        1.0080           0
     37515 WT14     837      MECN     H13      HGA3     0.090000        1.0080           0
     37516 WT14     837      MECN     C2       CG1N1    0.360000       12.0110           0
     37517 WT14     837      MECN     N3       NG1T1   -0.460000       14.0070           0
     37518 WT14     838      MECN     C1       CG331   -0.170000       12.0110           0
     37519 WT14     838      MECN     H11      HGA3     0.090000        1.0080           0
     37520 WT14     838      MECN     H12      HGA3     0.090000        1.0080           0
     37521 WT14     838      MECN     H13      HGA3     0.090000        1.0080           0
     37522 WT14     838      MECN     C2       CG1N1    0.360000       12.0110           0
     37523 WT14     838      MECN     N3       NG1T1   -0.460000       14.0070           0
     37524 WT14     839      MECN     C1       CG331   -0.170000       12.0110           0
     37525 WT14     839      MECN     H11      HGA3     0.090000        1.0080           0
     37526 WT14     839      MECN     H12      HGA3     0.090000        1.0080           0
     37527 WT14     839      MECN     H13      HGA3     0.090000        1.0080           0
     37528 WT14     839      MECN     C2       CG1N1    0.360000       12.0110           0
     37529 WT14     839      MECN     N3       NG1T1   -0.460000       14.0070           0
     37530 WT14     840      MECN     C1       CG331   -0.170000       12.0110           0
     37531 WT14     840      MECN     H11      HGA3     0.090000        1.0080           0
     37532 WT14     840      MECN     H12      HGA3     0.090000        1.0080           0
     37533 WT14     840      MECN     H13      HGA3     0.090000        1.0080           0
     37534 WT14     840      MECN     C2       CG1N1    0.360000       12.0110           0
     37535 WT14     840      MECN     N3       NG1T1   -0.460000       14.0070           0
     37536 WT14     841      MECN     C1       CG331   -0.170000       12.0110           0
     37537 WT14     841      MECN     H11      HGA3     0.090000        1.0080           0
     37538 WT14     841      MECN     H12      HGA3     0.090000        1.0080           0
     37539 WT14     841      MECN     H13      HGA3     0.090000        1.0080           0
     37540 WT14     841      MECN     C2       CG1N1    0.360000       12.0110           0
     37541 WT14     841      MECN     N3       NG1T1   -0.460000       14.0070           0
     37542 WT14     842      MECN     C1       CG331   -0.170000       12.0110           0
     37543 WT14     842      MECN     H11      HGA3     0.090000        1.0080           0
     37544 WT14     842      MECN     H12      HGA3     0.090000        1.0080           0
     37545 WT14     842      MECN     H13      HGA3     0.090000        1.0080           0
     37546 WT14     842      MECN     C2       CG1N1    0.360000       12.0110           0
     37547 WT14     842      MECN     N3       NG1T1   -0.460000       14.0070           0
     37548 WT14     843      MECN     C1       CG331   -0.170000       12.0110           0
     37549 WT14     843      MECN     H11      HGA3     0.090000        1.0080           0
     37550 WT14     843      MECN     H12      HGA3     0.090000        1.0080           0
     37551 WT14     843      MECN     H13      HGA3     0.090000        1.0080           0
     37552 WT14     843      MECN     C2       CG1N1    0.360000       12.0110           0
     37553 WT14     843      MECN     N3       NG1T1   -0.460000       14.0070           0
     37554 WT14     844      MECN     C1       CG331   -0.170000       12.0110           0
     37555 WT14     844      MECN     H11      HGA3     0.090000        1.0080           0
     37556 WT14     844      MECN     H12      HGA3     0.090000        1.0080           0
     37557 WT14     844      MECN     H13      HGA3     0.090000        1.0080           0
     37558 WT14     844      MECN     C2       CG1N1    0.360000       12.0110           0
     37559 WT14     844      MECN     N3       NG1T1   -0.460000       14.0070           0
     37560 WT14     845      MECN     C1       CG331   -0.170000       12.0110           0
     37561 WT14     845      MECN     H11      HGA3     0.090000        1.0080           0
     37562 WT14     845      MECN     H12      HGA3     0.090000        1.0080           0
     37563 WT14     845      MECN     H13      HGA3     0.090000        1.0080           0
     37564 WT14     845      MECN     C2       CG1N1    0.360000       12.0110           0
     37565 WT14     845      MECN     N3       NG1T1   -0.460000       14.0070           0
     37566 WT14     846      MECN     C1       CG331   -0.170000       12.0110           0
     37567 WT14     846      MECN     H11      HGA3     0.090000        1.0080           0
     37568 WT14     846      MECN     H12      HGA3     0.090000        1.0080           0
     37569 WT14     846      MECN     H13      HGA3     0.090000        1.0080           0
     37570 WT14     846      MECN     C2       CG1N1    0.360000       12.0110           0
     37571 WT14     846      MECN     N3       NG1T1   -0.460000       14.0070           0
     37572 WT14     847      MECN     C1       CG331   -0.170000       12.0110           0
     37573 WT14     847      MECN     H11      HGA3     0.090000        1.0080           0
     37574 WT14     847      MECN     H12      HGA3     0.090000        1.0080           0
     37575 WT14     847      MECN     H13      HGA3     0.090000        1.0080           0
     37576 WT14     847      MECN     C2       CG1N1    0.360000       12.0110           0
     37577 WT14     847      MECN     N3       NG1T1   -0.460000       14.0070           0
     37578 WT14     849      MECN     C1       CG331   -0.170000       12.0110           0
     37579 WT14     849      MECN     H11      HGA3     0.090000        1.0080           0
     37580 WT14     849      MECN     H12      HGA3     0.090000        1.0080           0
     37581 WT14     849      MECN     H13      HGA3     0.090000        1.0080           0
     37582 WT14     849      MECN     C2       CG1N1    0.360000       12.0110           0
     37583 WT14     849      MECN     N3       NG1T1   -0.460000       14.0070           0
     37584 WT14     851      MECN     C1       CG331   -0.170000       12.0110           0
     37585 WT14     851      MECN     H11      HGA3     0.090000        1.0080           0
     37586 WT14     851      MECN     H12      HGA3     0.090000        1.0080           0
     37587 WT14     851      MECN     H13      HGA3     0.090000        1.0080           0
     37588 WT14     851      MECN     C2       CG1N1    0.360000       12.0110           0
     37589 WT14     851      MECN     N3       NG1T1   -0.460000       14.0070           0
     37590 WT14     852      MECN     C1       CG331   -0.170000       12.0110           0
     37591 WT14     852      MECN     H11      HGA3     0.090000        1.0080           0
     37592 WT14     852      MECN     H12      HGA3     0.090000        1.0080           0
     37593 WT14     852      MECN     H13      HGA3     0.090000        1.0080           0
     37594 WT14     852      MECN     C2       CG1N1    0.360000       12.0110           0
     37595 WT14     852      MECN     N3       NG1T1   -0.460000       14.0070           0
     37596 WT14     853      MECN     C1       CG331   -0.170000       12.0110           0
     37597 WT14     853      MECN     H11      HGA3     0.090000        1.0080           0
     37598 WT14     853      MECN     H12      HGA3     0.090000        1.0080           0
     37599 WT14     853      MECN     H13      HGA3     0.090000        1.0080           0
     37600 WT14     853      MECN     C2       CG1N1    0.360000       12.0110           0
     37601 WT14     853      MECN     N3       NG1T1   -0.460000       14.0070           0
     37602 WT14     854      MECN     C1       CG331   -0.170000       12.0110           0
     37603 WT14     854      MECN     H11      HGA3     0.090000        1.0080           0
     37604 WT14     854      MECN     H12      HGA3     0.090000        1.0080           0
     37605 WT14     854      MECN     H13      HGA3     0.090000        1.0080           0
     37606 WT14     854      MECN     C2       CG1N1    0.360000       12.0110           0
     37607 WT14     854      MECN     N3       NG1T1   -0.460000       14.0070           0
     37608 WT14     855      MECN     C1       CG331   -0.170000       12.0110           0
     37609 WT14     855      MECN     H11      HGA3     0.090000        1.0080           0
     37610 WT14     855      MECN     H12      HGA3     0.090000        1.0080           0
     37611 WT14     855      MECN     H13      HGA3     0.090000        1.0080           0
     37612 WT14     855      MECN     C2       CG1N1    0.360000       12.0110           0
     37613 WT14     855      MECN     N3       NG1T1   -0.460000       14.0070           0
     37614 WT14     857      MECN     C1       CG331   -0.170000       12.0110           0
     37615 WT14     857      MECN     H11      HGA3     0.090000        1.0080           0
     37616 WT14     857      MECN     H12      HGA3     0.090000        1.0080           0
     37617 WT14     857      MECN     H13      HGA3     0.090000        1.0080           0
     37618 WT14     857      MECN     C2       CG1N1    0.360000       12.0110           0
     37619 WT14     857      MECN     N3       NG1T1   -0.460000       14.0070           0
     37620 WT14     858      MECN     C1       CG331   -0.170000       12.0110           0
     37621 WT14     858      MECN     H11      HGA3     0.090000        1.0080           0
     37622 WT14     858      MECN     H12      HGA3     0.090000        1.0080           0
     37623 WT14     858      MECN     H13      HGA3     0.090000        1.0080           0
     37624 WT14     858      MECN     C2       CG1N1    0.360000       12.0110           0
     37625 WT14     858      MECN     N3       NG1T1   -0.460000       14.0070           0
     37626 WT14     859      MECN     C1       CG331   -0.170000       12.0110           0
     37627 WT14     859      MECN     H11      HGA3     0.090000        1.0080           0
     37628 WT14     859      MECN     H12      HGA3     0.090000        1.0080           0
     37629 WT14     859      MECN     H13      HGA3     0.090000        1.0080           0
     37630 WT14     859      MECN     C2       CG1N1    0.360000       12.0110           0
     37631 WT14     859      MECN     N3       NG1T1   -0.460000       14.0070           0
     37632 WT14     860      MECN     C1       CG331   -0.170000       12.0110           0
     37633 WT14     860      MECN     H11      HGA3     0.090000        1.0080           0
     37634 WT14     860      MECN     H12      HGA3     0.090000        1.0080           0
     37635 WT14     860      MECN     H13      HGA3     0.090000        1.0080           0
     37636 WT14     860      MECN     C2       CG1N1    0.360000       12.0110           0
     37637 WT14     860      MECN     N3       NG1T1   -0.460000       14.0070           0
     37638 WT14     861      MECN     C1       CG331   -0.170000       12.0110           0
     37639 WT14     861      MECN     H11      HGA3     0.090000        1.0080           0
     37640 WT14     861      MECN     H12      HGA3     0.090000        1.0080           0
     37641 WT14     861      MECN     H13      HGA3     0.090000        1.0080           0
     37642 WT14     861      MECN     C2       CG1N1    0.360000       12.0110           0
     37643 WT14     861      MECN     N3       NG1T1   -0.460000       14.0070           0
     37644 WT14     863      MECN     C1       CG331   -0.170000       12.0110           0
     37645 WT14     863      MECN     H11      HGA3     0.090000        1.0080           0
     37646 WT14     863      MECN     H12      HGA3     0.090000        1.0080           0
     37647 WT14     863      MECN     H13      HGA3     0.090000        1.0080           0
     37648 WT14     863      MECN     C2       CG1N1    0.360000       12.0110           0
     37649 WT14     863      MECN     N3       NG1T1   -0.460000       14.0070           0
     37650 WT14     864      MECN     C1       CG331   -0.170000       12.0110           0
     37651 WT14     864      MECN     H11      HGA3     0.090000        1.0080           0
     37652 WT14     864      MECN     H12      HGA3     0.090000        1.0080           0
     37653 WT14     864      MECN     H13      HGA3     0.090000        1.0080           0
     37654 WT14     864      MECN     C2       CG1N1    0.360000       12.0110           0
     37655 WT14     864      MECN     N3       NG1T1   -0.460000       14.0070           0
     37656 WT14     865      MECN     C1       CG331   -0.170000       12.0110           0
     37657 WT14     865      MECN     H11      HGA3     0.090000        1.0080           0
     37658 WT14     865      MECN     H12      HGA3     0.090000        1.0080           0
     37659 WT14     865      MECN     H13      HGA3     0.090000        1.0080           0
     37660 WT14     865      MECN     C2       CG1N1    0.360000       12.0110           0
     37661 WT14     865      MECN     N3       NG1T1   -0.460000       14.0070           0
     37662 WT14     866      MECN     C1       CG331   -0.170000       12.0110           0
     37663 WT14     866      MECN     H11      HGA3     0.090000        1.0080           0
     37664 WT14     866      MECN     H12      HGA3     0.090000        1.0080           0
     37665 WT14     866      MECN     H13      HGA3     0.090000        1.0080           0
     37666 WT14     866      MECN     C2       CG1N1    0.360000       12.0110           0
     37667 WT14     866      MECN     N3       NG1T1   -0.460000       14.0070           0
     37668 WT14     868      MECN     C1       CG331   -0.170000       12.0110           0
     37669 WT14     868      MECN     H11      HGA3     0.090000        1.0080           0
     37670 WT14     868      MECN     H12      HGA3     0.090000        1.0080           0
     37671 WT14     868      MECN     H13      HGA3     0.090000        1.0080           0
     37672 WT14     868      MECN     C2       CG1N1    0.360000       12.0110           0
     37673 WT14     868      MECN     N3       NG1T1   -0.460000       14.0070           0
     37674 WT14     869      MECN     C1       CG331   -0.170000       12.0110           0
     37675 WT14     869      MECN     H11      HGA3     0.090000        1.0080           0
     37676 WT14     869      MECN     H12      HGA3     0.090000        1.0080           0
     37677 WT14     869      MECN     H13      HGA3     0.090000        1.0080           0
     37678 WT14     869      MECN     C2       CG1N1    0.360000       12.0110           0
     37679 WT14     869      MECN     N3       NG1T1   -0.460000       14.0070           0
     37680 WT14     871      MECN     C1       CG331   -0.170000       12.0110           0
     37681 WT14     871      MECN     H11      HGA3     0.090000        1.0080           0
     37682 WT14     871      MECN     H12      HGA3     0.090000        1.0080           0
     37683 WT14     871      MECN     H13      HGA3     0.090000        1.0080           0
     37684 WT14     871      MECN     C2       CG1N1    0.360000       12.0110           0
     37685 WT14     871      MECN     N3       NG1T1   -0.460000       14.0070           0
     37686 WT14     872      MECN     C1       CG331   -0.170000       12.0110           0
     37687 WT14     872      MECN     H11      HGA3     0.090000        1.0080           0
     37688 WT14     872      MECN     H12      HGA3     0.090000        1.0080           0
     37689 WT14     872      MECN     H13      HGA3     0.090000        1.0080           0
     37690 WT14     872      MECN     C2       CG1N1    0.360000       12.0110           0
     37691 WT14     872      MECN     N3       NG1T1   -0.460000       14.0070           0
     37692 WT14     874      MECN     C1       CG331   -0.170000       12.0110           0
     37693 WT14     874      MECN     H11      HGA3     0.090000        1.0080           0
     37694 WT14     874      MECN     H12      HGA3     0.090000        1.0080           0
     37695 WT14     874      MECN     H13      HGA3     0.090000        1.0080           0
     37696 WT14     874      MECN     C2       CG1N1    0.360000       12.0110           0
     37697 WT14     874      MECN     N3       NG1T1   -0.460000       14.0070           0
     37698 WT14     875      MECN     C1       CG331   -0.170000       12.0110           0
     37699 WT14     875      MECN     H11      HGA3     0.090000        1.0080           0
     37700 WT14     875      MECN     H12      HGA3     0.090000        1.0080           0
     37701 WT14     875      MECN     H13      HGA3     0.090000        1.0080           0
     37702 WT14     875      MECN     C2       CG1N1    0.360000       12.0110           0
     37703 WT14     875      MECN     N3       NG1T1   -0.460000       14.0070           0
     37704 WT14     877      MECN     C1       CG331   -0.170000       12.0110           0
     37705 WT14     877      MECN     H11      HGA3     0.090000        1.0080           0
     37706 WT14     877      MECN     H12      HGA3     0.090000        1.0080           0
     37707 WT14     877      MECN     H13      HGA3     0.090000        1.0080           0
     37708 WT14     877      MECN     C2       CG1N1    0.360000       12.0110           0
     37709 WT14     877      MECN     N3       NG1T1   -0.460000       14.0070           0
     37710 WT14     879      MECN     C1       CG331   -0.170000       12.0110           0
     37711 WT14     879      MECN     H11      HGA3     0.090000        1.0080           0
     37712 WT14     879      MECN     H12      HGA3     0.090000        1.0080           0
     37713 WT14     879      MECN     H13      HGA3     0.090000        1.0080           0
     37714 WT14     879      MECN     C2       CG1N1    0.360000       12.0110           0
     37715 WT14     879      MECN     N3       NG1T1   -0.460000       14.0070           0
     37716 WT14     880      MECN     C1       CG331   -0.170000       12.0110           0
     37717 WT14     880      MECN     H11      HGA3     0.090000        1.0080           0
     37718 WT14     880      MECN     H12      HGA3     0.090000        1.0080           0
     37719 WT14     880      MECN     H13      HGA3     0.090000        1.0080           0
     37720 WT14     880      MECN     C2       CG1N1    0.360000       12.0110           0
     37721 WT14     880      MECN     N3       NG1T1   -0.460000       14.0070           0
     37722 WT14     881      MECN     C1       CG331   -0.170000       12.0110           0
     37723 WT14     881      MECN     H11      HGA3     0.090000        1.0080           0
     37724 WT14     881      MECN     H12      HGA3     0.090000        1.0080           0
     37725 WT14     881      MECN     H13      HGA3     0.090000        1.0080           0
     37726 WT14     881      MECN     C2       CG1N1    0.360000       12.0110           0
     37727 WT14     881      MECN     N3       NG1T1   -0.460000       14.0070           0
     37728 WT14     882      MECN     C1       CG331   -0.170000       12.0110           0
     37729 WT14     882      MECN     H11      HGA3     0.090000        1.0080           0
     37730 WT14     882      MECN     H12      HGA3     0.090000        1.0080           0
     37731 WT14     882      MECN     H13      HGA3     0.090000        1.0080           0
     37732 WT14     882      MECN     C2       CG1N1    0.360000       12.0110           0
     37733 WT14     882      MECN     N3       NG1T1   -0.460000       14.0070           0
     37734 WT14     883      MECN     C1       CG331   -0.170000       12.0110           0
     37735 WT14     883      MECN     H11      HGA3     0.090000        1.0080           0
     37736 WT14     883      MECN     H12      HGA3     0.090000        1.0080           0
     37737 WT14     883      MECN     H13      HGA3     0.090000        1.0080           0
     37738 WT14     883      MECN     C2       CG1N1    0.360000       12.0110           0
     37739 WT14     883      MECN     N3       NG1T1   -0.460000       14.0070           0
     37740 WT14     884      MECN     C1       CG331   -0.170000       12.0110           0
     37741 WT14     884      MECN     H11      HGA3     0.090000        1.0080           0
     37742 WT14     884      MECN     H12      HGA3     0.090000        1.0080           0
     37743 WT14     884      MECN     H13      HGA3     0.090000        1.0080           0
     37744 WT14     884      MECN     C2       CG1N1    0.360000       12.0110           0
     37745 WT14     884      MECN     N3       NG1T1   -0.460000       14.0070           0
     37746 WT14     885      MECN     C1       CG331   -0.170000       12.0110           0
     37747 WT14     885      MECN     H11      HGA3     0.090000        1.0080           0
     37748 WT14     885      MECN     H12      HGA3     0.090000        1.0080           0
     37749 WT14     885      MECN     H13      HGA3     0.090000        1.0080           0
     37750 WT14     885      MECN     C2       CG1N1    0.360000       12.0110           0
     37751 WT14     885      MECN     N3       NG1T1   -0.460000       14.0070           0
     37752 WT14     886      MECN     C1       CG331   -0.170000       12.0110           0
     37753 WT14     886      MECN     H11      HGA3     0.090000        1.0080           0
     37754 WT14     886      MECN     H12      HGA3     0.090000        1.0080           0
     37755 WT14     886      MECN     H13      HGA3     0.090000        1.0080           0
     37756 WT14     886      MECN     C2       CG1N1    0.360000       12.0110           0
     37757 WT14     886      MECN     N3       NG1T1   -0.460000       14.0070           0
     37758 WT14     887      MECN     C1       CG331   -0.170000       12.0110           0
     37759 WT14     887      MECN     H11      HGA3     0.090000        1.0080           0
     37760 WT14     887      MECN     H12      HGA3     0.090000        1.0080           0
     37761 WT14     887      MECN     H13      HGA3     0.090000        1.0080           0
     37762 WT14     887      MECN     C2       CG1N1    0.360000       12.0110           0
     37763 WT14     887      MECN     N3       NG1T1   -0.460000       14.0070           0
     37764 WT14     888      MECN     C1       CG331   -0.170000       12.0110           0
     37765 WT14     888      MECN     H11      HGA3     0.090000        1.0080           0
     37766 WT14     888      MECN     H12      HGA3     0.090000        1.0080           0
     37767 WT14     888      MECN     H13      HGA3     0.090000        1.0080           0
     37768 WT14     888      MECN     C2       CG1N1    0.360000       12.0110           0
     37769 WT14     888      MECN     N3       NG1T1   -0.460000       14.0070           0
     37770 WT14     889      MECN     C1       CG331   -0.170000       12.0110           0
     37771 WT14     889      MECN     H11      HGA3     0.090000        1.0080           0
     37772 WT14     889      MECN     H12      HGA3     0.090000        1.0080           0
     37773 WT14     889      MECN     H13      HGA3     0.090000        1.0080           0
     37774 WT14     889      MECN     C2       CG1N1    0.360000       12.0110           0
     37775 WT14     889      MECN     N3       NG1T1   -0.460000       14.0070           0
     37776 WT14     891      MECN     C1       CG331   -0.170000       12.0110           0
     37777 WT14     891      MECN     H11      HGA3     0.090000        1.0080           0
     37778 WT14     891      MECN     H12      HGA3     0.090000        1.0080           0
     37779 WT14     891      MECN     H13      HGA3     0.090000        1.0080           0
     37780 WT14     891      MECN     C2       CG1N1    0.360000       12.0110           0
     37781 WT14     891      MECN     N3       NG1T1   -0.460000       14.0070           0
     37782 WT14     892      MECN     C1       CG331   -0.170000       12.0110           0
     37783 WT14     892      MECN     H11      HGA3     0.090000        1.0080           0
     37784 WT14     892      MECN     H12      HGA3     0.090000        1.0080           0
     37785 WT14     892      MECN     H13      HGA3     0.090000        1.0080           0
     37786 WT14     892      MECN     C2       CG1N1    0.360000       12.0110           0
     37787 WT14     892      MECN     N3       NG1T1   -0.460000       14.0070           0
     37788 WT14     893      MECN     C1       CG331   -0.170000       12.0110           0
     37789 WT14     893      MECN     H11      HGA3     0.090000        1.0080           0
     37790 WT14     893      MECN     H12      HGA3     0.090000        1.0080           0
     37791 WT14     893      MECN     H13      HGA3     0.090000        1.0080           0
     37792 WT14     893      MECN     C2       CG1N1    0.360000       12.0110           0
     37793 WT14     893      MECN     N3       NG1T1   -0.460000       14.0070           0
     37794 WT14     894      MECN     C1       CG331   -0.170000       12.0110           0
     37795 WT14     894      MECN     H11      HGA3     0.090000        1.0080           0
     37796 WT14     894      MECN     H12      HGA3     0.090000        1.0080           0
     37797 WT14     894      MECN     H13      HGA3     0.090000        1.0080           0
     37798 WT14     894      MECN     C2       CG1N1    0.360000       12.0110           0
     37799 WT14     894      MECN     N3       NG1T1   -0.460000       14.0070           0
     37800 WT14     895      MECN     C1       CG331   -0.170000       12.0110           0
     37801 WT14     895      MECN     H11      HGA3     0.090000        1.0080           0
     37802 WT14     895      MECN     H12      HGA3     0.090000        1.0080           0
     37803 WT14     895      MECN     H13      HGA3     0.090000        1.0080           0
     37804 WT14     895      MECN     C2       CG1N1    0.360000       12.0110           0
     37805 WT14     895      MECN     N3       NG1T1   -0.460000       14.0070           0
     37806 WT14     896      MECN     C1       CG331   -0.170000       12.0110           0
     37807 WT14     896      MECN     H11      HGA3     0.090000        1.0080           0
     37808 WT14     896      MECN     H12      HGA3     0.090000        1.0080           0
     37809 WT14     896      MECN     H13      HGA3     0.090000        1.0080           0
     37810 WT14     896      MECN     C2       CG1N1    0.360000       12.0110           0
     37811 WT14     896      MECN     N3       NG1T1   -0.460000       14.0070           0
     37812 WT14     897      MECN     C1       CG331   -0.170000       12.0110           0
     37813 WT14     897      MECN     H11      HGA3     0.090000        1.0080           0
     37814 WT14     897      MECN     H12      HGA3     0.090000        1.0080           0
     37815 WT14     897      MECN     H13      HGA3     0.090000        1.0080           0
     37816 WT14     897      MECN     C2       CG1N1    0.360000       12.0110           0
     37817 WT14     897      MECN     N3       NG1T1   -0.460000       14.0070           0
     37818 WT14     898      MECN     C1       CG331   -0.170000       12.0110           0
     37819 WT14     898      MECN     H11      HGA3     0.090000        1.0080           0
     37820 WT14     898      MECN     H12      HGA3     0.090000        1.0080           0
     37821 WT14     898      MECN     H13      HGA3     0.090000        1.0080           0
     37822 WT14     898      MECN     C2       CG1N1    0.360000       12.0110           0
     37823 WT14     898      MECN     N3       NG1T1   -0.460000       14.0070           0
     37824 WT14     899      MECN     C1       CG331   -0.170000       12.0110           0
     37825 WT14     899      MECN     H11      HGA3     0.090000        1.0080           0
     37826 WT14     899      MECN     H12      HGA3     0.090000        1.0080           0
     37827 WT14     899      MECN     H13      HGA3     0.090000        1.0080           0
     37828 WT14     899      MECN     C2       CG1N1    0.360000       12.0110           0
     37829 WT14     899      MECN     N3       NG1T1   -0.460000       14.0070           0
     37830 WT14     900      MECN     C1       CG331   -0.170000       12.0110           0
     37831 WT14     900      MECN     H11      HGA3     0.090000        1.0080           0
     37832 WT14     900      MECN     H12      HGA3     0.090000        1.0080           0
     37833 WT14     900      MECN     H13      HGA3     0.090000        1.0080           0
     37834 WT14     900      MECN     C2       CG1N1    0.360000       12.0110           0
     37835 WT14     900      MECN     N3       NG1T1   -0.460000       14.0070           0
     37836 WT14     901      MECN     C1       CG331   -0.170000       12.0110           0
     37837 WT14     901      MECN     H11      HGA3     0.090000        1.0080           0
     37838 WT14     901      MECN     H12      HGA3     0.090000        1.0080           0
     37839 WT14     901      MECN     H13      HGA3     0.090000        1.0080           0
     37840 WT14     901      MECN     C2       CG1N1    0.360000       12.0110           0
     37841 WT14     901      MECN     N3       NG1T1   -0.460000       14.0070           0
     37842 WT14     903      MECN     C1       CG331   -0.170000       12.0110           0
     37843 WT14     903      MECN     H11      HGA3     0.090000        1.0080           0
     37844 WT14     903      MECN     H12      HGA3     0.090000        1.0080           0
     37845 WT14     903      MECN     H13      HGA3     0.090000        1.0080           0
     37846 WT14     903      MECN     C2       CG1N1    0.360000       12.0110           0
     37847 WT14     903      MECN     N3       NG1T1   -0.460000       14.0070           0
     37848 WT14     904      MECN     C1       CG331   -0.170000       12.0110           0
     37849 WT14     904      MECN     H11      HGA3     0.090000        1.0080           0
     37850 WT14     904      MECN     H12      HGA3     0.090000        1.0080           0
     37851 WT14     904      MECN     H13      HGA3     0.090000        1.0080           0
     37852 WT14     904      MECN     C2       CG1N1    0.360000       12.0110           0
     37853 WT14     904      MECN     N3       NG1T1   -0.460000       14.0070           0
     37854 WT14     905      MECN     C1       CG331   -0.170000       12.0110           0
     37855 WT14     905      MECN     H11      HGA3     0.090000        1.0080           0
     37856 WT14     905      MECN     H12      HGA3     0.090000        1.0080           0
     37857 WT14     905      MECN     H13      HGA3     0.090000        1.0080           0
     37858 WT14     905      MECN     C2       CG1N1    0.360000       12.0110           0
     37859 WT14     905      MECN     N3       NG1T1   -0.460000       14.0070           0
     37860 WT14     906      MECN     C1       CG331   -0.170000       12.0110           0
     37861 WT14     906      MECN     H11      HGA3     0.090000        1.0080           0
     37862 WT14     906      MECN     H12      HGA3     0.090000        1.0080           0
     37863 WT14     906      MECN     H13      HGA3     0.090000        1.0080           0
     37864 WT14     906      MECN     C2       CG1N1    0.360000       12.0110           0
     37865 WT14     906      MECN     N3       NG1T1   -0.460000       14.0070           0
     37866 WT14     907      MECN     C1       CG331   -0.170000       12.0110           0
     37867 WT14     907      MECN     H11      HGA3     0.090000        1.0080           0
     37868 WT14     907      MECN     H12      HGA3     0.090000        1.0080           0
     37869 WT14     907      MECN     H13      HGA3     0.090000        1.0080           0
     37870 WT14     907      MECN     C2       CG1N1    0.360000       12.0110           0
     37871 WT14     907      MECN     N3       NG1T1   -0.460000       14.0070           0
     37872 WT14     908      MECN     C1       CG331   -0.170000       12.0110           0
     37873 WT14     908      MECN     H11      HGA3     0.090000        1.0080           0
     37874 WT14     908      MECN     H12      HGA3     0.090000        1.0080           0
     37875 WT14     908      MECN     H13      HGA3     0.090000        1.0080           0
     37876 WT14     908      MECN     C2       CG1N1    0.360000       12.0110           0
     37877 WT14     908      MECN     N3       NG1T1   -0.460000       14.0070           0
     37878 WT14     910      MECN     C1       CG331   -0.170000       12.0110           0
     37879 WT14     910      MECN     H11      HGA3     0.090000        1.0080           0
     37880 WT14     910      MECN     H12      HGA3     0.090000        1.0080           0
     37881 WT14     910      MECN     H13      HGA3     0.090000        1.0080           0
     37882 WT14     910      MECN     C2       CG1N1    0.360000       12.0110           0
     37883 WT14     910      MECN     N3       NG1T1   -0.460000       14.0070           0
     37884 WT14     912      MECN     C1       CG331   -0.170000       12.0110           0
     37885 WT14     912      MECN     H11      HGA3     0.090000        1.0080           0
     37886 WT14     912      MECN     H12      HGA3     0.090000        1.0080           0
     37887 WT14     912      MECN     H13      HGA3     0.090000        1.0080           0
     37888 WT14     912      MECN     C2       CG1N1    0.360000       12.0110           0
     37889 WT14     912      MECN     N3       NG1T1   -0.460000       14.0070           0
     37890 WT14     914      MECN     C1       CG331   -0.170000       12.0110           0
     37891 WT14     914      MECN     H11      HGA3     0.090000        1.0080           0
     37892 WT14     914      MECN     H12      HGA3     0.090000        1.0080           0
     37893 WT14     914      MECN     H13      HGA3     0.090000        1.0080           0
     37894 WT14     914      MECN     C2       CG1N1    0.360000       12.0110           0
     37895 WT14     914      MECN     N3       NG1T1   -0.460000       14.0070           0
     37896 WT14     916      MECN     C1       CG331   -0.170000       12.0110           0
     37897 WT14     916      MECN     H11      HGA3     0.090000        1.0080           0
     37898 WT14     916      MECN     H12      HGA3     0.090000        1.0080           0
     37899 WT14     916      MECN     H13      HGA3     0.090000        1.0080           0
     37900 WT14     916      MECN     C2       CG1N1    0.360000       12.0110           0
     37901 WT14     916      MECN     N3       NG1T1   -0.460000       14.0070           0
     37902 WT14     918      MECN     C1       CG331   -0.170000       12.0110           0
     37903 WT14     918      MECN     H11      HGA3     0.090000        1.0080           0
     37904 WT14     918      MECN     H12      HGA3     0.090000        1.0080           0
     37905 WT14     918      MECN     H13      HGA3     0.090000        1.0080           0
     37906 WT14     918      MECN     C2       CG1N1    0.360000       12.0110           0
     37907 WT14     918      MECN     N3       NG1T1   -0.460000       14.0070           0
     37908 WT14     919      MECN     C1       CG331   -0.170000       12.0110           0
     37909 WT14     919      MECN     H11      HGA3     0.090000        1.0080           0
     37910 WT14     919      MECN     H12      HGA3     0.090000        1.0080           0
     37911 WT14     919      MECN     H13      HGA3     0.090000        1.0080           0
     37912 WT14     919      MECN     C2       CG1N1    0.360000       12.0110           0
     37913 WT14     919      MECN     N3       NG1T1   -0.460000       14.0070           0
     37914 WT14     921      MECN     C1       CG331   -0.170000       12.0110           0
     37915 WT14     921      MECN     H11      HGA3     0.090000        1.0080           0
     37916 WT14     921      MECN     H12      HGA3     0.090000        1.0080           0
     37917 WT14     921      MECN     H13      HGA3     0.090000        1.0080           0
     37918 WT14     921      MECN     C2       CG1N1    0.360000       12.0110           0
     37919 WT14     921      MECN     N3       NG1T1   -0.460000       14.0070           0
     37920 WT14     922      MECN     C1       CG331   -0.170000       12.0110           0
     37921 WT14     922      MECN     H11      HGA3     0.090000        1.0080           0
     37922 WT14     922      MECN     H12      HGA3     0.090000        1.0080           0
     37923 WT14     922      MECN     H13      HGA3     0.090000        1.0080           0
     37924 WT14     922      MECN     C2       CG1N1    0.360000       12.0110           0
     37925 WT14     922      MECN     N3       NG1T1   -0.460000       14.0070           0
     37926 WT14     924      MECN     C1       CG331   -0.170000       12.0110           0
     37927 WT14     924      MECN     H11      HGA3     0.090000        1.0080           0
     37928 WT14     924      MECN     H12      HGA3     0.090000        1.0080           0
     37929 WT14     924      MECN     H13      HGA3     0.090000        1.0080           0
     37930 WT14     924      MECN     C2       CG1N1    0.360000       12.0110           0
     37931 WT14     924      MECN     N3       NG1T1   -0.460000       14.0070           0
     37932 WT14     925      MECN     C1       CG331   -0.170000       12.0110           0
     37933 WT14     925      MECN     H11      HGA3     0.090000        1.0080           0
     37934 WT14     925      MECN     H12      HGA3     0.090000        1.0080           0
     37935 WT14     925      MECN     H13      HGA3     0.090000        1.0080           0
     37936 WT14     925      MECN     C2       CG1N1    0.360000       12.0110           0
     37937 WT14     925      MECN     N3       NG1T1   -0.460000       14.0070           0
     37938 WT14     926      MECN     C1       CG331   -0.170000       12.0110           0
     37939 WT14     926      MECN     H11      HGA3     0.090000        1.0080           0
     37940 WT14     926      MECN     H12      HGA3     0.090000        1.0080           0
     37941 WT14     926      MECN     H13      HGA3     0.090000        1.0080           0
     37942 WT14     926      MECN     C2       CG1N1    0.360000       12.0110           0
     37943 WT14     926      MECN     N3       NG1T1   -0.460000       14.0070           0
     37944 WT14     927      MECN     C1       CG331   -0.170000       12.0110           0
     37945 WT14     927      MECN     H11      HGA3     0.090000        1.0080           0
     37946 WT14     927      MECN     H12      HGA3     0.090000        1.0080           0
     37947 WT14     927      MECN     H13      HGA3     0.090000        1.0080           0
     37948 WT14     927      MECN     C2       CG1N1    0.360000       12.0110           0
     37949 WT14     927      MECN     N3       NG1T1   -0.460000       14.0070           0
     37950 WT14     928      MECN     C1       CG331   -0.170000       12.0110           0
     37951 WT14     928      MECN     H11      HGA3     0.090000        1.0080           0
     37952 WT14     928      MECN     H12      HGA3     0.090000        1.0080           0
     37953 WT14     928      MECN     H13      HGA3     0.090000        1.0080           0
     37954 WT14     928      MECN     C2       CG1N1    0.360000       12.0110           0
     37955 WT14     928      MECN     N3       NG1T1   -0.460000       14.0070           0
     37956 WT14     929      MECN     C1       CG331   -0.170000       12.0110           0
     37957 WT14     929      MECN     H11      HGA3     0.090000        1.0080           0
     37958 WT14     929      MECN     H12      HGA3     0.090000        1.0080           0
     37959 WT14     929      MECN     H13      HGA3     0.090000        1.0080           0
     37960 WT14     929      MECN     C2       CG1N1    0.360000       12.0110           0
     37961 WT14     929      MECN     N3       NG1T1   -0.460000       14.0070           0
     37962 WT14     930      MECN     C1       CG331   -0.170000       12.0110           0
     37963 WT14     930      MECN     H11      HGA3     0.090000        1.0080           0
     37964 WT14     930      MECN     H12      HGA3     0.090000        1.0080           0
     37965 WT14     930      MECN     H13      HGA3     0.090000        1.0080           0
     37966 WT14     930      MECN     C2       CG1N1    0.360000       12.0110           0
     37967 WT14     930      MECN     N3       NG1T1   -0.460000       14.0070           0
     37968 WT14     931      MECN     C1       CG331   -0.170000       12.0110           0
     37969 WT14     931      MECN     H11      HGA3     0.090000        1.0080           0
     37970 WT14     931      MECN     H12      HGA3     0.090000        1.0080           0
     37971 WT14     931      MECN     H13      HGA3     0.090000        1.0080           0
     37972 WT14     931      MECN     C2       CG1N1    0.360000       12.0110           0
     37973 WT14     931      MECN     N3       NG1T1   -0.460000       14.0070           0
     37974 WT14     933      MECN     C1       CG331   -0.170000       12.0110           0
     37975 WT14     933      MECN     H11      HGA3     0.090000        1.0080           0
     37976 WT14     933      MECN     H12      HGA3     0.090000        1.0080           0
     37977 WT14     933      MECN     H13      HGA3     0.090000        1.0080           0
     37978 WT14     933      MECN     C2       CG1N1    0.360000       12.0110           0
     37979 WT14     933      MECN     N3       NG1T1   -0.460000       14.0070           0
     37980 WT14     934      MECN     C1       CG331   -0.170000       12.0110           0
     37981 WT14     934      MECN     H11      HGA3     0.090000        1.0080           0
     37982 WT14     934      MECN     H12      HGA3     0.090000        1.0080           0
     37983 WT14     934      MECN     H13      HGA3     0.090000        1.0080           0
     37984 WT14     934      MECN     C2       CG1N1    0.360000       12.0110           0
     37985 WT14     934      MECN     N3       NG1T1   -0.460000       14.0070           0
     37986 WT14     935      MECN     C1       CG331   -0.170000       12.0110           0
     37987 WT14     935      MECN     H11      HGA3     0.090000        1.0080           0
     37988 WT14     935      MECN     H12      HGA3     0.090000        1.0080           0
     37989 WT14     935      MECN     H13      HGA3     0.090000        1.0080           0
     37990 WT14     935      MECN     C2       CG1N1    0.360000       12.0110           0
     37991 WT14     935      MECN     N3       NG1T1   -0.460000       14.0070           0
     37992 WT14     936      MECN     C1       CG331   -0.170000       12.0110           0
     37993 WT14     936      MECN     H11      HGA3     0.090000        1.0080           0
     37994 WT14     936      MECN     H12      HGA3     0.090000        1.0080           0
     37995 WT14     936      MECN     H13      HGA3     0.090000        1.0080           0
     37996 WT14     936      MECN     C2       CG1N1    0.360000       12.0110           0
     37997 WT14     936      MECN     N3       NG1T1   -0.460000       14.0070           0
     37998 WT14     937      MECN     C1       CG331   -0.170000       12.0110           0
     37999 WT14     937      MECN     H11      HGA3     0.090000        1.0080           0
     38000 WT14     937      MECN     H12      HGA3     0.090000        1.0080           0
     38001 WT14     937      MECN     H13      HGA3     0.090000        1.0080           0
     38002 WT14     937      MECN     C2       CG1N1    0.360000       12.0110           0
     38003 WT14     937      MECN     N3       NG1T1   -0.460000       14.0070           0
     38004 WT14     938      MECN     C1       CG331   -0.170000       12.0110           0
     38005 WT14     938      MECN     H11      HGA3     0.090000        1.0080           0
     38006 WT14     938      MECN     H12      HGA3     0.090000        1.0080           0
     38007 WT14     938      MECN     H13      HGA3     0.090000        1.0080           0
     38008 WT14     938      MECN     C2       CG1N1    0.360000       12.0110           0
     38009 WT14     938      MECN     N3       NG1T1   -0.460000       14.0070           0
     38010 WT14     939      MECN     C1       CG331   -0.170000       12.0110           0
     38011 WT14     939      MECN     H11      HGA3     0.090000        1.0080           0
     38012 WT14     939      MECN     H12      HGA3     0.090000        1.0080           0
     38013 WT14     939      MECN     H13      HGA3     0.090000        1.0080           0
     38014 WT14     939      MECN     C2       CG1N1    0.360000       12.0110           0
     38015 WT14     939      MECN     N3       NG1T1   -0.460000       14.0070           0
     38016 WT14     940      MECN     C1       CG331   -0.170000       12.0110           0
     38017 WT14     940      MECN     H11      HGA3     0.090000        1.0080           0
     38018 WT14     940      MECN     H12      HGA3     0.090000        1.0080           0
     38019 WT14     940      MECN     H13      HGA3     0.090000        1.0080           0
     38020 WT14     940      MECN     C2       CG1N1    0.360000       12.0110           0
     38021 WT14     940      MECN     N3       NG1T1   -0.460000       14.0070           0
     38022 WT14     941      MECN     C1       CG331   -0.170000       12.0110           0
     38023 WT14     941      MECN     H11      HGA3     0.090000        1.0080           0
     38024 WT14     941      MECN     H12      HGA3     0.090000        1.0080           0
     38025 WT14     941      MECN     H13      HGA3     0.090000        1.0080           0
     38026 WT14     941      MECN     C2       CG1N1    0.360000       12.0110           0
     38027 WT14     941      MECN     N3       NG1T1   -0.460000       14.0070           0
     38028 WT14     942      MECN     C1       CG331   -0.170000       12.0110           0
     38029 WT14     942      MECN     H11      HGA3     0.090000        1.0080           0
     38030 WT14     942      MECN     H12      HGA3     0.090000        1.0080           0
     38031 WT14     942      MECN     H13      HGA3     0.090000        1.0080           0
     38032 WT14     942      MECN     C2       CG1N1    0.360000       12.0110           0
     38033 WT14     942      MECN     N3       NG1T1   -0.460000       14.0070           0
     38034 WT14     944      MECN     C1       CG331   -0.170000       12.0110           0
     38035 WT14     944      MECN     H11      HGA3     0.090000        1.0080           0
     38036 WT14     944      MECN     H12      HGA3     0.090000        1.0080           0
     38037 WT14     944      MECN     H13      HGA3     0.090000        1.0080           0
     38038 WT14     944      MECN     C2       CG1N1    0.360000       12.0110           0
     38039 WT14     944      MECN     N3       NG1T1   -0.460000       14.0070           0
     38040 WT14     946      MECN     C1       CG331   -0.170000       12.0110           0
     38041 WT14     946      MECN     H11      HGA3     0.090000        1.0080           0
     38042 WT14     946      MECN     H12      HGA3     0.090000        1.0080           0
     38043 WT14     946      MECN     H13      HGA3     0.090000        1.0080           0
     38044 WT14     946      MECN     C2       CG1N1    0.360000       12.0110           0
     38045 WT14     946      MECN     N3       NG1T1   -0.460000       14.0070           0
     38046 WT14     947      MECN     C1       CG331   -0.170000       12.0110           0
     38047 WT14     947      MECN     H11      HGA3     0.090000        1.0080           0
     38048 WT14     947      MECN     H12      HGA3     0.090000        1.0080           0
     38049 WT14     947      MECN     H13      HGA3     0.090000        1.0080           0
     38050 WT14     947      MECN     C2       CG1N1    0.360000       12.0110           0
     38051 WT14     947      MECN     N3       NG1T1   -0.460000       14.0070           0
     38052 WT14     948      MECN     C1       CG331   -0.170000       12.0110           0
     38053 WT14     948      MECN     H11      HGA3     0.090000        1.0080           0
     38054 WT14     948      MECN     H12      HGA3     0.090000        1.0080           0
     38055 WT14     948      MECN     H13      HGA3     0.090000        1.0080           0
     38056 WT14     948      MECN     C2       CG1N1    0.360000       12.0110           0
     38057 WT14     948      MECN     N3       NG1T1   -0.460000       14.0070           0
     38058 WT14     949      MECN     C1       CG331   -0.170000       12.0110           0
     38059 WT14     949      MECN     H11      HGA3     0.090000        1.0080           0
     38060 WT14     949      MECN     H12      HGA3     0.090000        1.0080           0
     38061 WT14     949      MECN     H13      HGA3     0.090000        1.0080           0
     38062 WT14     949      MECN     C2       CG1N1    0.360000       12.0110           0
     38063 WT14     949      MECN     N3       NG1T1   -0.460000       14.0070           0
     38064 WT14     950      MECN     C1       CG331   -0.170000       12.0110           0
     38065 WT14     950      MECN     H11      HGA3     0.090000        1.0080           0
     38066 WT14     950      MECN     H12      HGA3     0.090000        1.0080           0
     38067 WT14     950      MECN     H13      HGA3     0.090000        1.0080           0
     38068 WT14     950      MECN     C2       CG1N1    0.360000       12.0110           0
     38069 WT14     950      MECN     N3       NG1T1   -0.460000       14.0070           0
     38070 WT14     951      MECN     C1       CG331   -0.170000       12.0110           0
     38071 WT14     951      MECN     H11      HGA3     0.090000        1.0080           0
     38072 WT14     951      MECN     H12      HGA3     0.090000        1.0080           0
     38073 WT14     951      MECN     H13      HGA3     0.090000        1.0080           0
     38074 WT14     951      MECN     C2       CG1N1    0.360000       12.0110           0
     38075 WT14     951      MECN     N3       NG1T1   -0.460000       14.0070           0
     38076 WT14     952      MECN     C1       CG331   -0.170000       12.0110           0
     38077 WT14     952      MECN     H11      HGA3     0.090000        1.0080           0
     38078 WT14     952      MECN     H12      HGA3     0.090000        1.0080           0
     38079 WT14     952      MECN     H13      HGA3     0.090000        1.0080           0
     38080 WT14     952      MECN     C2       CG1N1    0.360000       12.0110           0
     38081 WT14     952      MECN     N3       NG1T1   -0.460000       14.0070           0
     38082 WT14     953      MECN     C1       CG331   -0.170000       12.0110           0
     38083 WT14     953      MECN     H11      HGA3     0.090000        1.0080           0
     38084 WT14     953      MECN     H12      HGA3     0.090000        1.0080           0
     38085 WT14     953      MECN     H13      HGA3     0.090000        1.0080           0
     38086 WT14     953      MECN     C2       CG1N1    0.360000       12.0110           0
     38087 WT14     953      MECN     N3       NG1T1   -0.460000       14.0070           0
     38088 WT14     957      MECN     C1       CG331   -0.170000       12.0110           0
     38089 WT14     957      MECN     H11      HGA3     0.090000        1.0080           0
     38090 WT14     957      MECN     H12      HGA3     0.090000        1.0080           0
     38091 WT14     957      MECN     H13      HGA3     0.090000        1.0080           0
     38092 WT14     957      MECN     C2       CG1N1    0.360000       12.0110           0
     38093 WT14     957      MECN     N3       NG1T1   -0.460000       14.0070           0
     38094 WT14     958      MECN     C1       CG331   -0.170000       12.0110           0
     38095 WT14     958      MECN     H11      HGA3     0.090000        1.0080           0
     38096 WT14     958      MECN     H12      HGA3     0.090000        1.0080           0
     38097 WT14     958      MECN     H13      HGA3     0.090000        1.0080           0
     38098 WT14     958      MECN     C2       CG1N1    0.360000       12.0110           0
     38099 WT14     958      MECN     N3       NG1T1   -0.460000       14.0070           0
     38100 WT14     959      MECN     C1       CG331   -0.170000       12.0110           0
     38101 WT14     959      MECN     H11      HGA3     0.090000        1.0080           0
     38102 WT14     959      MECN     H12      HGA3     0.090000        1.0080           0
     38103 WT14     959      MECN     H13      HGA3     0.090000        1.0080           0
     38104 WT14     959      MECN     C2       CG1N1    0.360000       12.0110           0
     38105 WT14     959      MECN     N3       NG1T1   -0.460000       14.0070           0
     38106 WT14     960      MECN     C1       CG331   -0.170000       12.0110           0
     38107 WT14     960      MECN     H11      HGA3     0.090000        1.0080           0
     38108 WT14     960      MECN     H12      HGA3     0.090000        1.0080           0
     38109 WT14     960      MECN     H13      HGA3     0.090000        1.0080           0
     38110 WT14     960      MECN     C2       CG1N1    0.360000       12.0110           0
     38111 WT14     960      MECN     N3       NG1T1   -0.460000       14.0070           0
     38112 WT14     961      MECN     C1       CG331   -0.170000       12.0110           0
     38113 WT14     961      MECN     H11      HGA3     0.090000        1.0080           0
     38114 WT14     961      MECN     H12      HGA3     0.090000        1.0080           0
     38115 WT14     961      MECN     H13      HGA3     0.090000        1.0080           0
     38116 WT14     961      MECN     C2       CG1N1    0.360000       12.0110           0
     38117 WT14     961      MECN     N3       NG1T1   -0.460000       14.0070           0
     38118 WT14     962      MECN     C1       CG331   -0.170000       12.0110           0
     38119 WT14     962      MECN     H11      HGA3     0.090000        1.0080           0
     38120 WT14     962      MECN     H12      HGA3     0.090000        1.0080           0
     38121 WT14     962      MECN     H13      HGA3     0.090000        1.0080           0
     38122 WT14     962      MECN     C2       CG1N1    0.360000       12.0110           0
     38123 WT14     962      MECN     N3       NG1T1   -0.460000       14.0070           0
     38124 WT14     963      MECN     C1       CG331   -0.170000       12.0110           0
     38125 WT14     963      MECN     H11      HGA3     0.090000        1.0080           0
     38126 WT14     963      MECN     H12      HGA3     0.090000        1.0080           0
     38127 WT14     963      MECN     H13      HGA3     0.090000        1.0080           0
     38128 WT14     963      MECN     C2       CG1N1    0.360000       12.0110           0
     38129 WT14     963      MECN     N3       NG1T1   -0.460000       14.0070           0
     38130 WT14     964      MECN     C1       CG331   -0.170000       12.0110           0
     38131 WT14     964      MECN     H11      HGA3     0.090000        1.0080           0
     38132 WT14     964      MECN     H12      HGA3     0.090000        1.0080           0
     38133 WT14     964      MECN     H13      HGA3     0.090000        1.0080           0
     38134 WT14     964      MECN     C2       CG1N1    0.360000       12.0110           0
     38135 WT14     964      MECN     N3       NG1T1   -0.460000       14.0070           0
     38136 WT14     966      MECN     C1       CG331   -0.170000       12.0110           0
     38137 WT14     966      MECN     H11      HGA3     0.090000        1.0080           0
     38138 WT14     966      MECN     H12      HGA3     0.090000        1.0080           0
     38139 WT14     966      MECN     H13      HGA3     0.090000        1.0080           0
     38140 WT14     966      MECN     C2       CG1N1    0.360000       12.0110           0
     38141 WT14     966      MECN     N3       NG1T1   -0.460000       14.0070           0
     38142 WT14     967      MECN     C1       CG331   -0.170000       12.0110           0
     38143 WT14     967      MECN     H11      HGA3     0.090000        1.0080           0
     38144 WT14     967      MECN     H12      HGA3     0.090000        1.0080           0
     38145 WT14     967      MECN     H13      HGA3     0.090000        1.0080           0
     38146 WT14     967      MECN     C2       CG1N1    0.360000       12.0110           0
     38147 WT14     967      MECN     N3       NG1T1   -0.460000       14.0070           0
     38148 WT14     968      MECN     C1       CG331   -0.170000       12.0110           0
     38149 WT14     968      MECN     H11      HGA3     0.090000        1.0080           0
     38150 WT14     968      MECN     H12      HGA3     0.090000        1.0080           0
     38151 WT14     968      MECN     H13      HGA3     0.090000        1.0080           0
     38152 WT14     968      MECN     C2       CG1N1    0.360000       12.0110           0
     38153 WT14     968      MECN     N3       NG1T1   -0.460000       14.0070           0
     38154 WT14     969      MECN     C1       CG331   -0.170000       12.0110           0
     38155 WT14     969      MECN     H11      HGA3     0.090000        1.0080           0
     38156 WT14     969      MECN     H12      HGA3     0.090000        1.0080           0
     38157 WT14     969      MECN     H13      HGA3     0.090000        1.0080           0
     38158 WT14     969      MECN     C2       CG1N1    0.360000       12.0110           0
     38159 WT14     969      MECN     N3       NG1T1   -0.460000       14.0070           0
     38160 WT14     970      MECN     C1       CG331   -0.170000       12.0110           0
     38161 WT14     970      MECN     H11      HGA3     0.090000        1.0080           0
     38162 WT14     970      MECN     H12      HGA3     0.090000        1.0080           0
     38163 WT14     970      MECN     H13      HGA3     0.090000        1.0080           0
     38164 WT14     970      MECN     C2       CG1N1    0.360000       12.0110           0
     38165 WT14     970      MECN     N3       NG1T1   -0.460000       14.0070           0
     38166 WT14     971      MECN     C1       CG331   -0.170000       12.0110           0
     38167 WT14     971      MECN     H11      HGA3     0.090000        1.0080           0
     38168 WT14     971      MECN     H12      HGA3     0.090000        1.0080           0
     38169 WT14     971      MECN     H13      HGA3     0.090000        1.0080           0
     38170 WT14     971      MECN     C2       CG1N1    0.360000       12.0110           0
     38171 WT14     971      MECN     N3       NG1T1   -0.460000       14.0070           0
     38172 WT14     972      MECN     C1       CG331   -0.170000       12.0110           0
     38173 WT14     972      MECN     H11      HGA3     0.090000        1.0080           0
     38174 WT14     972      MECN     H12      HGA3     0.090000        1.0080           0
     38175 WT14     972      MECN     H13      HGA3     0.090000        1.0080           0
     38176 WT14     972      MECN     C2       CG1N1    0.360000       12.0110           0
     38177 WT14     972      MECN     N3       NG1T1   -0.460000       14.0070           0
     38178 WT14     973      MECN     C1       CG331   -0.170000       12.0110           0
     38179 WT14     973      MECN     H11      HGA3     0.090000        1.0080           0
     38180 WT14     973      MECN     H12      HGA3     0.090000        1.0080           0
     38181 WT14     973      MECN     H13      HGA3     0.090000        1.0080           0
     38182 WT14     973      MECN     C2       CG1N1    0.360000       12.0110           0
     38183 WT14     973      MECN     N3       NG1T1   -0.460000       14.0070           0
     38184 WT14     974      MECN     C1       CG331   -0.170000       12.0110           0
     38185 WT14     974      MECN     H11      HGA3     0.090000        1.0080           0
     38186 WT14     974      MECN     H12      HGA3     0.090000        1.0080           0
     38187 WT14     974      MECN     H13      HGA3     0.090000        1.0080           0
     38188 WT14     974      MECN     C2       CG1N1    0.360000       12.0110           0
     38189 WT14     974      MECN     N3       NG1T1   -0.460000       14.0070           0
     38190 WT14     975      MECN     C1       CG331   -0.170000       12.0110           0
     38191 WT14     975      MECN     H11      HGA3     0.090000        1.0080           0
     38192 WT14     975      MECN     H12      HGA3     0.090000        1.0080           0
     38193 WT14     975      MECN     H13      HGA3     0.090000        1.0080           0
     38194 WT14     975      MECN     C2       CG1N1    0.360000       12.0110           0
     38195 WT14     975      MECN     N3       NG1T1   -0.460000       14.0070           0
     38196 WT14     976      MECN     C1       CG331   -0.170000       12.0110           0
     38197 WT14     976      MECN     H11      HGA3     0.090000        1.0080           0
     38198 WT14     976      MECN     H12      HGA3     0.090000        1.0080           0
     38199 WT14     976      MECN     H13      HGA3     0.090000        1.0080           0
     38200 WT14     976      MECN     C2       CG1N1    0.360000       12.0110           0
     38201 WT14     976      MECN     N3       NG1T1   -0.460000       14.0070           0
     38202 WT14     977      MECN     C1       CG331   -0.170000       12.0110           0
     38203 WT14     977      MECN     H11      HGA3     0.090000        1.0080           0
     38204 WT14     977      MECN     H12      HGA3     0.090000        1.0080           0
     38205 WT14     977      MECN     H13      HGA3     0.090000        1.0080           0
     38206 WT14     977      MECN     C2       CG1N1    0.360000       12.0110           0
     38207 WT14     977      MECN     N3       NG1T1   -0.460000       14.0070           0
     38208 WT14     978      MECN     C1       CG331   -0.170000       12.0110           0
     38209 WT14     978      MECN     H11      HGA3     0.090000        1.0080           0
     38210 WT14     978      MECN     H12      HGA3     0.090000        1.0080           0
     38211 WT14     978      MECN     H13      HGA3     0.090000        1.0080           0
     38212 WT14     978      MECN     C2       CG1N1    0.360000       12.0110           0
     38213 WT14     978      MECN     N3       NG1T1   -0.460000       14.0070           0
     38214 WT14     979      MECN     C1       CG331   -0.170000       12.0110           0
     38215 WT14     979      MECN     H11      HGA3     0.090000        1.0080           0
     38216 WT14     979      MECN     H12      HGA3     0.090000        1.0080           0
     38217 WT14     979      MECN     H13      HGA3     0.090000        1.0080           0
     38218 WT14     979      MECN     C2       CG1N1    0.360000       12.0110           0
     38219 WT14     979      MECN     N3       NG1T1   -0.460000       14.0070           0
     38220 WT14     980      MECN     C1       CG331   -0.170000       12.0110           0
     38221 WT14     980      MECN     H11      HGA3     0.090000        1.0080           0
     38222 WT14     980      MECN     H12      HGA3     0.090000        1.0080           0
     38223 WT14     980      MECN     H13      HGA3     0.090000        1.0080           0
     38224 WT14     980      MECN     C2       CG1N1    0.360000       12.0110           0
     38225 WT14     980      MECN     N3       NG1T1   -0.460000       14.0070           0
     38226 WT14     981      MECN     C1       CG331   -0.170000       12.0110           0
     38227 WT14     981      MECN     H11      HGA3     0.090000        1.0080           0
     38228 WT14     981      MECN     H12      HGA3     0.090000        1.0080           0
     38229 WT14     981      MECN     H13      HGA3     0.090000        1.0080           0
     38230 WT14     981      MECN     C2       CG1N1    0.360000       12.0110           0
     38231 WT14     981      MECN     N3       NG1T1   -0.460000       14.0070           0
     38232 WT14     982      MECN     C1       CG331   -0.170000       12.0110           0
     38233 WT14     982      MECN     H11      HGA3     0.090000        1.0080           0
     38234 WT14     982      MECN     H12      HGA3     0.090000        1.0080           0
     38235 WT14     982      MECN     H13      HGA3     0.090000        1.0080           0
     38236 WT14     982      MECN     C2       CG1N1    0.360000       12.0110           0
     38237 WT14     982      MECN     N3       NG1T1   -0.460000       14.0070           0
     38238 WT14     983      MECN     C1       CG331   -0.170000       12.0110           0
     38239 WT14     983      MECN     H11      HGA3     0.090000        1.0080           0
     38240 WT14     983      MECN     H12      HGA3     0.090000        1.0080           0
     38241 WT14     983      MECN     H13      HGA3     0.090000        1.0080           0
     38242 WT14     983      MECN     C2       CG1N1    0.360000       12.0110           0
     38243 WT14     983      MECN     N3       NG1T1   -0.460000       14.0070           0
     38244 WT14     985      MECN     C1       CG331   -0.170000       12.0110           0
     38245 WT14     985      MECN     H11      HGA3     0.090000        1.0080           0
     38246 WT14     985      MECN     H12      HGA3     0.090000        1.0080           0
     38247 WT14     985      MECN     H13      HGA3     0.090000        1.0080           0
     38248 WT14     985      MECN     C2       CG1N1    0.360000       12.0110           0
     38249 WT14     985      MECN     N3       NG1T1   -0.460000       14.0070           0
     38250 WT14     986      MECN     C1       CG331   -0.170000       12.0110           0
     38251 WT14     986      MECN     H11      HGA3     0.090000        1.0080           0
     38252 WT14     986      MECN     H12      HGA3     0.090000        1.0080           0
     38253 WT14     986      MECN     H13      HGA3     0.090000        1.0080           0
     38254 WT14     986      MECN     C2       CG1N1    0.360000       12.0110           0
     38255 WT14     986      MECN     N3       NG1T1   -0.460000       14.0070           0
     38256 WT14     987      MECN     C1       CG331   -0.170000       12.0110           0
     38257 WT14     987      MECN     H11      HGA3     0.090000        1.0080           0
     38258 WT14     987      MECN     H12      HGA3     0.090000        1.0080           0
     38259 WT14     987      MECN     H13      HGA3     0.090000        1.0080           0
     38260 WT14     987      MECN     C2       CG1N1    0.360000       12.0110           0
     38261 WT14     987      MECN     N3       NG1T1   -0.460000       14.0070           0
     38262 WT14     989      MECN     C1       CG331   -0.170000       12.0110           0
     38263 WT14     989      MECN     H11      HGA3     0.090000        1.0080           0
     38264 WT14     989      MECN     H12      HGA3     0.090000        1.0080           0
     38265 WT14     989      MECN     H13      HGA3     0.090000        1.0080           0
     38266 WT14     989      MECN     C2       CG1N1    0.360000       12.0110           0
     38267 WT14     989      MECN     N3       NG1T1   -0.460000       14.0070           0
     38268 WT14     990      MECN     C1       CG331   -0.170000       12.0110           0
     38269 WT14     990      MECN     H11      HGA3     0.090000        1.0080           0
     38270 WT14     990      MECN     H12      HGA3     0.090000        1.0080           0
     38271 WT14     990      MECN     H13      HGA3     0.090000        1.0080           0
     38272 WT14     990      MECN     C2       CG1N1    0.360000       12.0110           0
     38273 WT14     990      MECN     N3       NG1T1   -0.460000       14.0070           0
     38274 WT14     991      MECN     C1       CG331   -0.170000       12.0110           0
     38275 WT14     991      MECN     H11      HGA3     0.090000        1.0080           0
     38276 WT14     991      MECN     H12      HGA3     0.090000        1.0080           0
     38277 WT14     991      MECN     H13      HGA3     0.090000        1.0080           0
     38278 WT14     991      MECN     C2       CG1N1    0.360000       12.0110           0
     38279 WT14     991      MECN     N3       NG1T1   -0.460000       14.0070           0
     38280 WT14     992      MECN     C1       CG331   -0.170000       12.0110           0
     38281 WT14     992      MECN     H11      HGA3     0.090000        1.0080           0
     38282 WT14     992      MECN     H12      HGA3     0.090000        1.0080           0
     38283 WT14     992      MECN     H13      HGA3     0.090000        1.0080           0
     38284 WT14     992      MECN     C2       CG1N1    0.360000       12.0110           0
     38285 WT14     992      MECN     N3       NG1T1   -0.460000       14.0070           0
     38286 WT14     993      MECN     C1       CG331   -0.170000       12.0110           0
     38287 WT14     993      MECN     H11      HGA3     0.090000        1.0080           0
     38288 WT14     993      MECN     H12      HGA3     0.090000        1.0080           0
     38289 WT14     993      MECN     H13      HGA3     0.090000        1.0080           0
     38290 WT14     993      MECN     C2       CG1N1    0.360000       12.0110           0
     38291 WT14     993      MECN     N3       NG1T1   -0.460000       14.0070           0
     38292 WT14     994      MECN     C1       CG331   -0.170000       12.0110           0
     38293 WT14     994      MECN     H11      HGA3     0.090000        1.0080           0
     38294 WT14     994      MECN     H12      HGA3     0.090000        1.0080           0
     38295 WT14     994      MECN     H13      HGA3     0.090000        1.0080           0
     38296 WT14     994      MECN     C2       CG1N1    0.360000       12.0110           0
     38297 WT14     994      MECN     N3       NG1T1   -0.460000       14.0070           0
     38298 WT14     995      MECN     C1       CG331   -0.170000       12.0110           0
     38299 WT14     995      MECN     H11      HGA3     0.090000        1.0080           0
     38300 WT14     995      MECN     H12      HGA3     0.090000        1.0080           0
     38301 WT14     995      MECN     H13      HGA3     0.090000        1.0080           0
     38302 WT14     995      MECN     C2       CG1N1    0.360000       12.0110           0
     38303 WT14     995      MECN     N3       NG1T1   -0.460000       14.0070           0
     38304 WT14     997      MECN     C1       CG331   -0.170000       12.0110           0
     38305 WT14     997      MECN     H11      HGA3     0.090000        1.0080           0
     38306 WT14     997      MECN     H12      HGA3     0.090000        1.0080           0
     38307 WT14     997      MECN     H13      HGA3     0.090000        1.0080           0
     38308 WT14     997      MECN     C2       CG1N1    0.360000       12.0110           0
     38309 WT14     997      MECN     N3       NG1T1   -0.460000       14.0070           0
     38310 WT14     998      MECN     C1       CG331   -0.170000       12.0110           0
     38311 WT14     998      MECN     H11      HGA3     0.090000        1.0080           0
     38312 WT14     998      MECN     H12      HGA3     0.090000        1.0080           0
     38313 WT14     998      MECN     H13      HGA3     0.090000        1.0080           0
     38314 WT14     998      MECN     C2       CG1N1    0.360000       12.0110           0
     38315 WT14     998      MECN     N3       NG1T1   -0.460000       14.0070           0
     38316 WT14     999      MECN     C1       CG331   -0.170000       12.0110           0
     38317 WT14     999      MECN     H11      HGA3     0.090000        1.0080           0
     38318 WT14     999      MECN     H12      HGA3     0.090000        1.0080           0
     38319 WT14     999      MECN     H13      HGA3     0.090000        1.0080           0
     38320 WT14     999      MECN     C2       CG1N1    0.360000       12.0110           0
     38321 WT14     999      MECN     N3       NG1T1   -0.460000       14.0070           0
     38322 WT14     1000     MECN     C1       CG331   -0.170000       12.0110           0
     38323 WT14     1000     MECN     H11      HGA3     0.090000        1.0080           0
     38324 WT14     1000     MECN     H12      HGA3     0.090000        1.0080           0
     38325 WT14     1000     MECN     H13      HGA3     0.090000        1.0080           0
     38326 WT14     1000     MECN     C2       CG1N1    0.360000       12.0110           0
     38327 WT14     1000     MECN     N3       NG1T1   -0.460000       14.0070           0
     38328 WT14     1001     MECN     C1       CG331   -0.170000       12.0110           0
     38329 WT14     1001     MECN     H11      HGA3     0.090000        1.0080           0
     38330 WT14     1001     MECN     H12      HGA3     0.090000        1.0080           0
     38331 WT14     1001     MECN     H13      HGA3     0.090000        1.0080           0
     38332 WT14     1001     MECN     C2       CG1N1    0.360000       12.0110           0
     38333 WT14     1001     MECN     N3       NG1T1   -0.460000       14.0070           0
     38334 WT14     1002     MECN     C1       CG331   -0.170000       12.0110           0
     38335 WT14     1002     MECN     H11      HGA3     0.090000        1.0080           0
     38336 WT14     1002     MECN     H12      HGA3     0.090000        1.0080           0
     38337 WT14     1002     MECN     H13      HGA3     0.090000        1.0080           0
     38338 WT14     1002     MECN     C2       CG1N1    0.360000       12.0110           0
     38339 WT14     1002     MECN     N3       NG1T1   -0.460000       14.0070           0
     38340 WT14     1003     MECN     C1       CG331   -0.170000       12.0110           0
     38341 WT14     1003     MECN     H11      HGA3     0.090000        1.0080           0
     38342 WT14     1003     MECN     H12      HGA3     0.090000        1.0080           0
     38343 WT14     1003     MECN     H13      HGA3     0.090000        1.0080           0
     38344 WT14     1003     MECN     C2       CG1N1    0.360000       12.0110           0
     38345 WT14     1003     MECN     N3       NG1T1   -0.460000       14.0070           0
     38346 WT14     1004     MECN     C1       CG331   -0.170000       12.0110           0
     38347 WT14     1004     MECN     H11      HGA3     0.090000        1.0080           0
     38348 WT14     1004     MECN     H12      HGA3     0.090000        1.0080           0
     38349 WT14     1004     MECN     H13      HGA3     0.090000        1.0080           0
     38350 WT14     1004     MECN     C2       CG1N1    0.360000       12.0110           0
     38351 WT14     1004     MECN     N3       NG1T1   -0.460000       14.0070           0
     38352 WT14     1005     MECN     C1       CG331   -0.170000       12.0110           0
     38353 WT14     1005     MECN     H11      HGA3     0.090000        1.0080           0
     38354 WT14     1005     MECN     H12      HGA3     0.090000        1.0080           0
     38355 WT14     1005     MECN     H13      HGA3     0.090000        1.0080           0
     38356 WT14     1005     MECN     C2       CG1N1    0.360000       12.0110           0
     38357 WT14     1005     MECN     N3       NG1T1   -0.460000       14.0070           0
     38358 WT14     1007     MECN     C1       CG331   -0.170000       12.0110           0
     38359 WT14     1007     MECN     H11      HGA3     0.090000        1.0080           0
     38360 WT14     1007     MECN     H12      HGA3     0.090000        1.0080           0
     38361 WT14     1007     MECN     H13      HGA3     0.090000        1.0080           0
     38362 WT14     1007     MECN     C2       CG1N1    0.360000       12.0110           0
     38363 WT14     1007     MECN     N3       NG1T1   -0.460000       14.0070           0
     38364 WT14     1008     MECN     C1       CG331   -0.170000       12.0110           0
     38365 WT14     1008     MECN     H11      HGA3     0.090000        1.0080           0
     38366 WT14     1008     MECN     H12      HGA3     0.090000        1.0080           0
     38367 WT14     1008     MECN     H13      HGA3     0.090000        1.0080           0
     38368 WT14     1008     MECN     C2       CG1N1    0.360000       12.0110           0
     38369 WT14     1008     MECN     N3       NG1T1   -0.460000       14.0070           0
     38370 WT14     1010     MECN     C1       CG331   -0.170000       12.0110           0
     38371 WT14     1010     MECN     H11      HGA3     0.090000        1.0080           0
     38372 WT14     1010     MECN     H12      HGA3     0.090000        1.0080           0
     38373 WT14     1010     MECN     H13      HGA3     0.090000        1.0080           0
     38374 WT14     1010     MECN     C2       CG1N1    0.360000       12.0110           0
     38375 WT14     1010     MECN     N3       NG1T1   -0.460000       14.0070           0
     38376 WT14     1012     MECN     C1       CG331   -0.170000       12.0110           0
     38377 WT14     1012     MECN     H11      HGA3     0.090000        1.0080           0
     38378 WT14     1012     MECN     H12      HGA3     0.090000        1.0080           0
     38379 WT14     1012     MECN     H13      HGA3     0.090000        1.0080           0
     38380 WT14     1012     MECN     C2       CG1N1    0.360000       12.0110           0
     38381 WT14     1012     MECN     N3       NG1T1   -0.460000       14.0070           0
     38382 WT14     1015     MECN     C1       CG331   -0.170000       12.0110           0
     38383 WT14     1015     MECN     H11      HGA3     0.090000        1.0080           0
     38384 WT14     1015     MECN     H12      HGA3     0.090000        1.0080           0
     38385 WT14     1015     MECN     H13      HGA3     0.090000        1.0080           0
     38386 WT14     1015     MECN     C2       CG1N1    0.360000       12.0110           0
     38387 WT14     1015     MECN     N3       NG1T1   -0.460000       14.0070           0
     38388 WT14     1016     MECN     C1       CG331   -0.170000       12.0110           0
     38389 WT14     1016     MECN     H11      HGA3     0.090000        1.0080           0
     38390 WT14     1016     MECN     H12      HGA3     0.090000        1.0080           0
     38391 WT14     1016     MECN     H13      HGA3     0.090000        1.0080           0
     38392 WT14     1016     MECN     C2       CG1N1    0.360000       12.0110           0
     38393 WT14     1016     MECN     N3       NG1T1   -0.460000       14.0070           0
     38394 WT14     1018     MECN     C1       CG331   -0.170000       12.0110           0
     38395 WT14     1018     MECN     H11      HGA3     0.090000        1.0080           0
     38396 WT14     1018     MECN     H12      HGA3     0.090000        1.0080           0
     38397 WT14     1018     MECN     H13      HGA3     0.090000        1.0080           0
     38398 WT14     1018     MECN     C2       CG1N1    0.360000       12.0110           0
     38399 WT14     1018     MECN     N3       NG1T1   -0.460000       14.0070           0
     38400 WT14     1019     MECN     C1       CG331   -0.170000       12.0110           0
     38401 WT14     1019     MECN     H11      HGA3     0.090000        1.0080           0
     38402 WT14     1019     MECN     H12      HGA3     0.090000        1.0080           0
     38403 WT14     1019     MECN     H13      HGA3     0.090000        1.0080           0
     38404 WT14     1019     MECN     C2       CG1N1    0.360000       12.0110           0
     38405 WT14     1019     MECN     N3       NG1T1   -0.460000       14.0070           0
     38406 WT14     1020     MECN     C1       CG331   -0.170000       12.0110           0
     38407 WT14     1020     MECN     H11      HGA3     0.090000        1.0080           0
     38408 WT14     1020     MECN     H12      HGA3     0.090000        1.0080           0
     38409 WT14     1020     MECN     H13      HGA3     0.090000        1.0080           0
     38410 WT14     1020     MECN     C2       CG1N1    0.360000       12.0110           0
     38411 WT14     1020     MECN     N3       NG1T1   -0.460000       14.0070           0
     38412 WT14     1021     MECN     C1       CG331   -0.170000       12.0110           0
     38413 WT14     1021     MECN     H11      HGA3     0.090000        1.0080           0
     38414 WT14     1021     MECN     H12      HGA3     0.090000        1.0080           0
     38415 WT14     1021     MECN     H13      HGA3     0.090000        1.0080           0
     38416 WT14     1021     MECN     C2       CG1N1    0.360000       12.0110           0
     38417 WT14     1021     MECN     N3       NG1T1   -0.460000       14.0070           0
     38418 WT14     1022     MECN     C1       CG331   -0.170000       12.0110           0
     38419 WT14     1022     MECN     H11      HGA3     0.090000        1.0080           0
     38420 WT14     1022     MECN     H12      HGA3     0.090000        1.0080           0
     38421 WT14     1022     MECN     H13      HGA3     0.090000        1.0080           0
     38422 WT14     1022     MECN     C2       CG1N1    0.360000       12.0110           0
     38423 WT14     1022     MECN     N3       NG1T1   -0.460000       14.0070           0
     38424 WT14     1023     MECN     C1       CG331   -0.170000       12.0110           0
     38425 WT14     1023     MECN     H11      HGA3     0.090000        1.0080           0
     38426 WT14     1023     MECN     H12      HGA3     0.090000        1.0080           0
     38427 WT14     1023     MECN     H13      HGA3     0.090000        1.0080           0
     38428 WT14     1023     MECN     C2       CG1N1    0.360000       12.0110           0
     38429 WT14     1023     MECN     N3       NG1T1   -0.460000       14.0070           0
     38430 WT14     1024     MECN     C1       CG331   -0.170000       12.0110           0
     38431 WT14     1024     MECN     H11      HGA3     0.090000        1.0080           0
     38432 WT14     1024     MECN     H12      HGA3     0.090000        1.0080           0
     38433 WT14     1024     MECN     H13      HGA3     0.090000        1.0080           0
     38434 WT14     1024     MECN     C2       CG1N1    0.360000       12.0110           0
     38435 WT14     1024     MECN     N3       NG1T1   -0.460000       14.0070           0
     38436 WT14     1025     MECN     C1       CG331   -0.170000       12.0110           0
     38437 WT14     1025     MECN     H11      HGA3     0.090000        1.0080           0
     38438 WT14     1025     MECN     H12      HGA3     0.090000        1.0080           0
     38439 WT14     1025     MECN     H13      HGA3     0.090000        1.0080           0
     38440 WT14     1025     MECN     C2       CG1N1    0.360000       12.0110           0
     38441 WT14     1025     MECN     N3       NG1T1   -0.460000       14.0070           0
     38442 WT14     1026     MECN     C1       CG331   -0.170000       12.0110           0
     38443 WT14     1026     MECN     H11      HGA3     0.090000        1.0080           0
     38444 WT14     1026     MECN     H12      HGA3     0.090000        1.0080           0
     38445 WT14     1026     MECN     H13      HGA3     0.090000        1.0080           0
     38446 WT14     1026     MECN     C2       CG1N1    0.360000       12.0110           0
     38447 WT14     1026     MECN     N3       NG1T1   -0.460000       14.0070           0
     38448 WT14     1027     MECN     C1       CG331   -0.170000       12.0110           0
     38449 WT14     1027     MECN     H11      HGA3     0.090000        1.0080           0
     38450 WT14     1027     MECN     H12      HGA3     0.090000        1.0080           0
     38451 WT14     1027     MECN     H13      HGA3     0.090000        1.0080           0
     38452 WT14     1027     MECN     C2       CG1N1    0.360000       12.0110           0
     38453 WT14     1027     MECN     N3       NG1T1   -0.460000       14.0070           0
     38454 WT14     1028     MECN     C1       CG331   -0.170000       12.0110           0
     38455 WT14     1028     MECN     H11      HGA3     0.090000        1.0080           0
     38456 WT14     1028     MECN     H12      HGA3     0.090000        1.0080           0
     38457 WT14     1028     MECN     H13      HGA3     0.090000        1.0080           0
     38458 WT14     1028     MECN     C2       CG1N1    0.360000       12.0110           0
     38459 WT14     1028     MECN     N3       NG1T1   -0.460000       14.0070           0
     38460 WT14     1029     MECN     C1       CG331   -0.170000       12.0110           0
     38461 WT14     1029     MECN     H11      HGA3     0.090000        1.0080           0
     38462 WT14     1029     MECN     H12      HGA3     0.090000        1.0080           0
     38463 WT14     1029     MECN     H13      HGA3     0.090000        1.0080           0
     38464 WT14     1029     MECN     C2       CG1N1    0.360000       12.0110           0
     38465 WT14     1029     MECN     N3       NG1T1   -0.460000       14.0070           0
     38466 WT14     1030     MECN     C1       CG331   -0.170000       12.0110           0
     38467 WT14     1030     MECN     H11      HGA3     0.090000        1.0080           0
     38468 WT14     1030     MECN     H12      HGA3     0.090000        1.0080           0
     38469 WT14     1030     MECN     H13      HGA3     0.090000        1.0080           0
     38470 WT14     1030     MECN     C2       CG1N1    0.360000       12.0110           0
     38471 WT14     1030     MECN     N3       NG1T1   -0.460000       14.0070           0
     38472 WT14     1031     MECN     C1       CG331   -0.170000       12.0110           0
     38473 WT14     1031     MECN     H11      HGA3     0.090000        1.0080           0
     38474 WT14     1031     MECN     H12      HGA3     0.090000        1.0080           0
     38475 WT14     1031     MECN     H13      HGA3     0.090000        1.0080           0
     38476 WT14     1031     MECN     C2       CG1N1    0.360000       12.0110           0
     38477 WT14     1031     MECN     N3       NG1T1   -0.460000       14.0070           0
     38478 WT14     1032     MECN     C1       CG331   -0.170000       12.0110           0
     38479 WT14     1032     MECN     H11      HGA3     0.090000        1.0080           0
     38480 WT14     1032     MECN     H12      HGA3     0.090000        1.0080           0
     38481 WT14     1032     MECN     H13      HGA3     0.090000        1.0080           0
     38482 WT14     1032     MECN     C2       CG1N1    0.360000       12.0110           0
     38483 WT14     1032     MECN     N3       NG1T1   -0.460000       14.0070           0
     38484 WT14     1033     MECN     C1       CG331   -0.170000       12.0110           0
     38485 WT14     1033     MECN     H11      HGA3     0.090000        1.0080           0
     38486 WT14     1033     MECN     H12      HGA3     0.090000        1.0080           0
     38487 WT14     1033     MECN     H13      HGA3     0.090000        1.0080           0
     38488 WT14     1033     MECN     C2       CG1N1    0.360000       12.0110           0
     38489 WT14     1033     MECN     N3       NG1T1   -0.460000       14.0070           0
     38490 WT14     1034     MECN     C1       CG331   -0.170000       12.0110           0
     38491 WT14     1034     MECN     H11      HGA3     0.090000        1.0080           0
     38492 WT14     1034     MECN     H12      HGA3     0.090000        1.0080           0
     38493 WT14     1034     MECN     H13      HGA3     0.090000        1.0080           0
     38494 WT14     1034     MECN     C2       CG1N1    0.360000       12.0110           0
     38495 WT14     1034     MECN     N3       NG1T1   -0.460000       14.0070           0
     38496 WT14     1036     MECN     C1       CG331   -0.170000       12.0110           0
     38497 WT14     1036     MECN     H11      HGA3     0.090000        1.0080           0
     38498 WT14     1036     MECN     H12      HGA3     0.090000        1.0080           0
     38499 WT14     1036     MECN     H13      HGA3     0.090000        1.0080           0
     38500 WT14     1036     MECN     C2       CG1N1    0.360000       12.0110           0
     38501 WT14     1036     MECN     N3       NG1T1   -0.460000       14.0070           0
     38502 WT14     1037     MECN     C1       CG331   -0.170000       12.0110           0
     38503 WT14     1037     MECN     H11      HGA3     0.090000        1.0080           0
     38504 WT14     1037     MECN     H12      HGA3     0.090000        1.0080           0
     38505 WT14     1037     MECN     H13      HGA3     0.090000        1.0080           0
     38506 WT14     1037     MECN     C2       CG1N1    0.360000       12.0110           0
     38507 WT14     1037     MECN     N3       NG1T1   -0.460000       14.0070           0
     38508 WT14     1038     MECN     C1       CG331   -0.170000       12.0110           0
     38509 WT14     1038     MECN     H11      HGA3     0.090000        1.0080           0
     38510 WT14     1038     MECN     H12      HGA3     0.090000        1.0080           0
     38511 WT14     1038     MECN     H13      HGA3     0.090000        1.0080           0
     38512 WT14     1038     MECN     C2       CG1N1    0.360000       12.0110           0
     38513 WT14     1038     MECN     N3       NG1T1   -0.460000       14.0070           0
     38514 WT14     1039     MECN     C1       CG331   -0.170000       12.0110           0
     38515 WT14     1039     MECN     H11      HGA3     0.090000        1.0080           0
     38516 WT14     1039     MECN     H12      HGA3     0.090000        1.0080           0
     38517 WT14     1039     MECN     H13      HGA3     0.090000        1.0080           0
     38518 WT14     1039     MECN     C2       CG1N1    0.360000       12.0110           0
     38519 WT14     1039     MECN     N3       NG1T1   -0.460000       14.0070           0
     38520 WT14     1040     MECN     C1       CG331   -0.170000       12.0110           0
     38521 WT14     1040     MECN     H11      HGA3     0.090000        1.0080           0
     38522 WT14     1040     MECN     H12      HGA3     0.090000        1.0080           0
     38523 WT14     1040     MECN     H13      HGA3     0.090000        1.0080           0
     38524 WT14     1040     MECN     C2       CG1N1    0.360000       12.0110           0
     38525 WT14     1040     MECN     N3       NG1T1   -0.460000       14.0070           0
     38526 WT14     1041     MECN     C1       CG331   -0.170000       12.0110           0
     38527 WT14     1041     MECN     H11      HGA3     0.090000        1.0080           0
     38528 WT14     1041     MECN     H12      HGA3     0.090000        1.0080           0
     38529 WT14     1041     MECN     H13      HGA3     0.090000        1.0080           0
     38530 WT14     1041     MECN     C2       CG1N1    0.360000       12.0110           0
     38531 WT14     1041     MECN     N3       NG1T1   -0.460000       14.0070           0
     38532 WT14     1042     MECN     C1       CG331   -0.170000       12.0110           0
     38533 WT14     1042     MECN     H11      HGA3     0.090000        1.0080           0
     38534 WT14     1042     MECN     H12      HGA3     0.090000        1.0080           0
     38535 WT14     1042     MECN     H13      HGA3     0.090000        1.0080           0
     38536 WT14     1042     MECN     C2       CG1N1    0.360000       12.0110           0
     38537 WT14     1042     MECN     N3       NG1T1   -0.460000       14.0070           0
     38538 WT14     1043     MECN     C1       CG331   -0.170000       12.0110           0
     38539 WT14     1043     MECN     H11      HGA3     0.090000        1.0080           0
     38540 WT14     1043     MECN     H12      HGA3     0.090000        1.0080           0
     38541 WT14     1043     MECN     H13      HGA3     0.090000        1.0080           0
     38542 WT14     1043     MECN     C2       CG1N1    0.360000       12.0110           0
     38543 WT14     1043     MECN     N3       NG1T1   -0.460000       14.0070           0
     38544 WT14     1044     MECN     C1       CG331   -0.170000       12.0110           0
     38545 WT14     1044     MECN     H11      HGA3     0.090000        1.0080           0
     38546 WT14     1044     MECN     H12      HGA3     0.090000        1.0080           0
     38547 WT14     1044     MECN     H13      HGA3     0.090000        1.0080           0
     38548 WT14     1044     MECN     C2       CG1N1    0.360000       12.0110           0
     38549 WT14     1044     MECN     N3       NG1T1   -0.460000       14.0070           0
     38550 WT14     1045     MECN     C1       CG331   -0.170000       12.0110           0
     38551 WT14     1045     MECN     H11      HGA3     0.090000        1.0080           0
     38552 WT14     1045     MECN     H12      HGA3     0.090000        1.0080           0
     38553 WT14     1045     MECN     H13      HGA3     0.090000        1.0080           0
     38554 WT14     1045     MECN     C2       CG1N1    0.360000       12.0110           0
     38555 WT14     1045     MECN     N3       NG1T1   -0.460000       14.0070           0
     38556 WT14     1046     MECN     C1       CG331   -0.170000       12.0110           0
     38557 WT14     1046     MECN     H11      HGA3     0.090000        1.0080           0
     38558 WT14     1046     MECN     H12      HGA3     0.090000        1.0080           0
     38559 WT14     1046     MECN     H13      HGA3     0.090000        1.0080           0
     38560 WT14     1046     MECN     C2       CG1N1    0.360000       12.0110           0
     38561 WT14     1046     MECN     N3       NG1T1   -0.460000       14.0070           0
     38562 WT14     1047     MECN     C1       CG331   -0.170000       12.0110           0
     38563 WT14     1047     MECN     H11      HGA3     0.090000        1.0080           0
     38564 WT14     1047     MECN     H12      HGA3     0.090000        1.0080           0
     38565 WT14     1047     MECN     H13      HGA3     0.090000        1.0080           0
     38566 WT14     1047     MECN     C2       CG1N1    0.360000       12.0110           0
     38567 WT14     1047     MECN     N3       NG1T1   -0.460000       14.0070           0
     38568 WT14     1048     MECN     C1       CG331   -0.170000       12.0110           0
     38569 WT14     1048     MECN     H11      HGA3     0.090000        1.0080           0
     38570 WT14     1048     MECN     H12      HGA3     0.090000        1.0080           0
     38571 WT14     1048     MECN     H13      HGA3     0.090000        1.0080           0
     38572 WT14     1048     MECN     C2       CG1N1    0.360000       12.0110           0
     38573 WT14     1048     MECN     N3       NG1T1   -0.460000       14.0070           0
     38574 WT14     1049     MECN     C1       CG331   -0.170000       12.0110           0
     38575 WT14     1049     MECN     H11      HGA3     0.090000        1.0080           0
     38576 WT14     1049     MECN     H12      HGA3     0.090000        1.0080           0
     38577 WT14     1049     MECN     H13      HGA3     0.090000        1.0080           0
     38578 WT14     1049     MECN     C2       CG1N1    0.360000       12.0110           0
     38579 WT14     1049     MECN     N3       NG1T1   -0.460000       14.0070           0
     38580 WT14     1050     MECN     C1       CG331   -0.170000       12.0110           0
     38581 WT14     1050     MECN     H11      HGA3     0.090000        1.0080           0
     38582 WT14     1050     MECN     H12      HGA3     0.090000        1.0080           0
     38583 WT14     1050     MECN     H13      HGA3     0.090000        1.0080           0
     38584 WT14     1050     MECN     C2       CG1N1    0.360000       12.0110           0
     38585 WT14     1050     MECN     N3       NG1T1   -0.460000       14.0070           0
     38586 WT14     1051     MECN     C1       CG331   -0.170000       12.0110           0
     38587 WT14     1051     MECN     H11      HGA3     0.090000        1.0080           0
     38588 WT14     1051     MECN     H12      HGA3     0.090000        1.0080           0
     38589 WT14     1051     MECN     H13      HGA3     0.090000        1.0080           0
     38590 WT14     1051     MECN     C2       CG1N1    0.360000       12.0110           0
     38591 WT14     1051     MECN     N3       NG1T1   -0.460000       14.0070           0
     38592 WT14     1052     MECN     C1       CG331   -0.170000       12.0110           0
     38593 WT14     1052     MECN     H11      HGA3     0.090000        1.0080           0
     38594 WT14     1052     MECN     H12      HGA3     0.090000        1.0080           0
     38595 WT14     1052     MECN     H13      HGA3     0.090000        1.0080           0
     38596 WT14     1052     MECN     C2       CG1N1    0.360000       12.0110           0
     38597 WT14     1052     MECN     N3       NG1T1   -0.460000       14.0070           0
     38598 WT14     1053     MECN     C1       CG331   -0.170000       12.0110           0
     38599 WT14     1053     MECN     H11      HGA3     0.090000        1.0080           0
     38600 WT14     1053     MECN     H12      HGA3     0.090000        1.0080           0
     38601 WT14     1053     MECN     H13      HGA3     0.090000        1.0080           0
     38602 WT14     1053     MECN     C2       CG1N1    0.360000       12.0110           0
     38603 WT14     1053     MECN     N3       NG1T1   -0.460000       14.0070           0
     38604 WT14     1055     MECN     C1       CG331   -0.170000       12.0110           0
     38605 WT14     1055     MECN     H11      HGA3     0.090000        1.0080           0
     38606 WT14     1055     MECN     H12      HGA3     0.090000        1.0080           0
     38607 WT14     1055     MECN     H13      HGA3     0.090000        1.0080           0
     38608 WT14     1055     MECN     C2       CG1N1    0.360000       12.0110           0
     38609 WT14     1055     MECN     N3       NG1T1   -0.460000       14.0070           0
     38610 WT14     1056     MECN     C1       CG331   -0.170000       12.0110           0
     38611 WT14     1056     MECN     H11      HGA3     0.090000        1.0080           0
     38612 WT14     1056     MECN     H12      HGA3     0.090000        1.0080           0
     38613 WT14     1056     MECN     H13      HGA3     0.090000        1.0080           0
     38614 WT14     1056     MECN     C2       CG1N1    0.360000       12.0110           0
     38615 WT14     1056     MECN     N3       NG1T1   -0.460000       14.0070           0
     38616 WT14     1057     MECN     C1       CG331   -0.170000       12.0110           0
     38617 WT14     1057     MECN     H11      HGA3     0.090000        1.0080           0
     38618 WT14     1057     MECN     H12      HGA3     0.090000        1.0080           0
     38619 WT14     1057     MECN     H13      HGA3     0.090000        1.0080           0
     38620 WT14     1057     MECN     C2       CG1N1    0.360000       12.0110           0
     38621 WT14     1057     MECN     N3       NG1T1   -0.460000       14.0070           0
     38622 WT14     1058     MECN     C1       CG331   -0.170000       12.0110           0
     38623 WT14     1058     MECN     H11      HGA3     0.090000        1.0080           0
     38624 WT14     1058     MECN     H12      HGA3     0.090000        1.0080           0
     38625 WT14     1058     MECN     H13      HGA3     0.090000        1.0080           0
     38626 WT14     1058     MECN     C2       CG1N1    0.360000       12.0110           0
     38627 WT14     1058     MECN     N3       NG1T1   -0.460000       14.0070           0
     38628 WT14     1060     MECN     C1       CG331   -0.170000       12.0110           0
     38629 WT14     1060     MECN     H11      HGA3     0.090000        1.0080           0
     38630 WT14     1060     MECN     H12      HGA3     0.090000        1.0080           0
     38631 WT14     1060     MECN     H13      HGA3     0.090000        1.0080           0
     38632 WT14     1060     MECN     C2       CG1N1    0.360000       12.0110           0
     38633 WT14     1060     MECN     N3       NG1T1   -0.460000       14.0070           0
     38634 WT14     1062     MECN     C1       CG331   -0.170000       12.0110           0
     38635 WT14     1062     MECN     H11      HGA3     0.090000        1.0080           0
     38636 WT14     1062     MECN     H12      HGA3     0.090000        1.0080           0
     38637 WT14     1062     MECN     H13      HGA3     0.090000        1.0080           0
     38638 WT14     1062     MECN     C2       CG1N1    0.360000       12.0110           0
     38639 WT14     1062     MECN     N3       NG1T1   -0.460000       14.0070           0
     38640 WT14     1063     MECN     C1       CG331   -0.170000       12.0110           0
     38641 WT14     1063     MECN     H11      HGA3     0.090000        1.0080           0
     38642 WT14     1063     MECN     H12      HGA3     0.090000        1.0080           0
     38643 WT14     1063     MECN     H13      HGA3     0.090000        1.0080           0
     38644 WT14     1063     MECN     C2       CG1N1    0.360000       12.0110           0
     38645 WT14     1063     MECN     N3       NG1T1   -0.460000       14.0070           0
     38646 WT14     1064     MECN     C1       CG331   -0.170000       12.0110           0
     38647 WT14     1064     MECN     H11      HGA3     0.090000        1.0080           0
     38648 WT14     1064     MECN     H12      HGA3     0.090000        1.0080           0
     38649 WT14     1064     MECN     H13      HGA3     0.090000        1.0080           0
     38650 WT14     1064     MECN     C2       CG1N1    0.360000       12.0110           0
     38651 WT14     1064     MECN     N3       NG1T1   -0.460000       14.0070           0
     38652 WT14     1065     MECN     C1       CG331   -0.170000       12.0110           0
     38653 WT14     1065     MECN     H11      HGA3     0.090000        1.0080           0
     38654 WT14     1065     MECN     H12      HGA3     0.090000        1.0080           0
     38655 WT14     1065     MECN     H13      HGA3     0.090000        1.0080           0
     38656 WT14     1065     MECN     C2       CG1N1    0.360000       12.0110           0
     38657 WT14     1065     MECN     N3       NG1T1   -0.460000       14.0070           0
     38658 WT14     1066     MECN     C1       CG331   -0.170000       12.0110           0
     38659 WT14     1066     MECN     H11      HGA3     0.090000        1.0080           0
     38660 WT14     1066     MECN     H12      HGA3     0.090000        1.0080           0
     38661 WT14     1066     MECN     H13      HGA3     0.090000        1.0080           0
     38662 WT14     1066     MECN     C2       CG1N1    0.360000       12.0110           0
     38663 WT14     1066     MECN     N3       NG1T1   -0.460000       14.0070           0
     38664 WT14     1067     MECN     C1       CG331   -0.170000       12.0110           0
     38665 WT14     1067     MECN     H11      HGA3     0.090000        1.0080           0
     38666 WT14     1067     MECN     H12      HGA3     0.090000        1.0080           0
     38667 WT14     1067     MECN     H13      HGA3     0.090000        1.0080           0
     38668 WT14     1067     MECN     C2       CG1N1    0.360000       12.0110           0
     38669 WT14     1067     MECN     N3       NG1T1   -0.460000       14.0070           0
     38670 WT14     1068     MECN     C1       CG331   -0.170000       12.0110           0
     38671 WT14     1068     MECN     H11      HGA3     0.090000        1.0080           0
     38672 WT14     1068     MECN     H12      HGA3     0.090000        1.0080           0
     38673 WT14     1068     MECN     H13      HGA3     0.090000        1.0080           0
     38674 WT14     1068     MECN     C2       CG1N1    0.360000       12.0110           0
     38675 WT14     1068     MECN     N3       NG1T1   -0.460000       14.0070           0
     38676 WT14     1069     MECN     C1       CG331   -0.170000       12.0110           0
     38677 WT14     1069     MECN     H11      HGA3     0.090000        1.0080           0
     38678 WT14     1069     MECN     H12      HGA3     0.090000        1.0080           0
     38679 WT14     1069     MECN     H13      HGA3     0.090000        1.0080           0
     38680 WT14     1069     MECN     C2       CG1N1    0.360000       12.0110           0
     38681 WT14     1069     MECN     N3       NG1T1   -0.460000       14.0070           0
     38682 WT14     1070     MECN     C1       CG331   -0.170000       12.0110           0
     38683 WT14     1070     MECN     H11      HGA3     0.090000        1.0080           0
     38684 WT14     1070     MECN     H12      HGA3     0.090000        1.0080           0
     38685 WT14     1070     MECN     H13      HGA3     0.090000        1.0080           0
     38686 WT14     1070     MECN     C2       CG1N1    0.360000       12.0110           0
     38687 WT14     1070     MECN     N3       NG1T1   -0.460000       14.0070           0
     38688 WT14     1071     MECN     C1       CG331   -0.170000       12.0110           0
     38689 WT14     1071     MECN     H11      HGA3     0.090000        1.0080           0
     38690 WT14     1071     MECN     H12      HGA3     0.090000        1.0080           0
     38691 WT14     1071     MECN     H13      HGA3     0.090000        1.0080           0
     38692 WT14     1071     MECN     C2       CG1N1    0.360000       12.0110           0
     38693 WT14     1071     MECN     N3       NG1T1   -0.460000       14.0070           0
     38694 WT14     1072     MECN     C1       CG331   -0.170000       12.0110           0
     38695 WT14     1072     MECN     H11      HGA3     0.090000        1.0080           0
     38696 WT14     1072     MECN     H12      HGA3     0.090000        1.0080           0
     38697 WT14     1072     MECN     H13      HGA3     0.090000        1.0080           0
     38698 WT14     1072     MECN     C2       CG1N1    0.360000       12.0110           0
     38699 WT14     1072     MECN     N3       NG1T1   -0.460000       14.0070           0
     38700 WT14     1073     MECN     C1       CG331   -0.170000       12.0110           0
     38701 WT14     1073     MECN     H11      HGA3     0.090000        1.0080           0
     38702 WT14     1073     MECN     H12      HGA3     0.090000        1.0080           0
     38703 WT14     1073     MECN     H13      HGA3     0.090000        1.0080           0
     38704 WT14     1073     MECN     C2       CG1N1    0.360000       12.0110           0
     38705 WT14     1073     MECN     N3       NG1T1   -0.460000       14.0070           0
     38706 WT14     1074     MECN     C1       CG331   -0.170000       12.0110           0
     38707 WT14     1074     MECN     H11      HGA3     0.090000        1.0080           0
     38708 WT14     1074     MECN     H12      HGA3     0.090000        1.0080           0
     38709 WT14     1074     MECN     H13      HGA3     0.090000        1.0080           0
     38710 WT14     1074     MECN     C2       CG1N1    0.360000       12.0110           0
     38711 WT14     1074     MECN     N3       NG1T1   -0.460000       14.0070           0
     38712 WT14     1075     MECN     C1       CG331   -0.170000       12.0110           0
     38713 WT14     1075     MECN     H11      HGA3     0.090000        1.0080           0
     38714 WT14     1075     MECN     H12      HGA3     0.090000        1.0080           0
     38715 WT14     1075     MECN     H13      HGA3     0.090000        1.0080           0
     38716 WT14     1075     MECN     C2       CG1N1    0.360000       12.0110           0
     38717 WT14     1075     MECN     N3       NG1T1   -0.460000       14.0070           0
     38718 WT14     1076     MECN     C1       CG331   -0.170000       12.0110           0
     38719 WT14     1076     MECN     H11      HGA3     0.090000        1.0080           0
     38720 WT14     1076     MECN     H12      HGA3     0.090000        1.0080           0
     38721 WT14     1076     MECN     H13      HGA3     0.090000        1.0080           0
     38722 WT14     1076     MECN     C2       CG1N1    0.360000       12.0110           0
     38723 WT14     1076     MECN     N3       NG1T1   -0.460000       14.0070           0
     38724 WT14     1077     MECN     C1       CG331   -0.170000       12.0110           0
     38725 WT14     1077     MECN     H11      HGA3     0.090000        1.0080           0
     38726 WT14     1077     MECN     H12      HGA3     0.090000        1.0080           0
     38727 WT14     1077     MECN     H13      HGA3     0.090000        1.0080           0
     38728 WT14     1077     MECN     C2       CG1N1    0.360000       12.0110           0
     38729 WT14     1077     MECN     N3       NG1T1   -0.460000       14.0070           0
     38730 WT14     1078     MECN     C1       CG331   -0.170000       12.0110           0
     38731 WT14     1078     MECN     H11      HGA3     0.090000        1.0080           0
     38732 WT14     1078     MECN     H12      HGA3     0.090000        1.0080           0
     38733 WT14     1078     MECN     H13      HGA3     0.090000        1.0080           0
     38734 WT14     1078     MECN     C2       CG1N1    0.360000       12.0110           0
     38735 WT14     1078     MECN     N3       NG1T1   -0.460000       14.0070           0
     38736 WT14     1079     MECN     C1       CG331   -0.170000       12.0110           0
     38737 WT14     1079     MECN     H11      HGA3     0.090000        1.0080           0
     38738 WT14     1079     MECN     H12      HGA3     0.090000        1.0080           0
     38739 WT14     1079     MECN     H13      HGA3     0.090000        1.0080           0
     38740 WT14     1079     MECN     C2       CG1N1    0.360000       12.0110           0
     38741 WT14     1079     MECN     N3       NG1T1   -0.460000       14.0070           0
     38742 WT14     1080     MECN     C1       CG331   -0.170000       12.0110           0
     38743 WT14     1080     MECN     H11      HGA3     0.090000        1.0080           0
     38744 WT14     1080     MECN     H12      HGA3     0.090000        1.0080           0
     38745 WT14     1080     MECN     H13      HGA3     0.090000        1.0080           0
     38746 WT14     1080     MECN     C2       CG1N1    0.360000       12.0110           0
     38747 WT14     1080     MECN     N3       NG1T1   -0.460000       14.0070           0
     38748 WT14     1081     MECN     C1       CG331   -0.170000       12.0110           0
     38749 WT14     1081     MECN     H11      HGA3     0.090000        1.0080           0
     38750 WT14     1081     MECN     H12      HGA3     0.090000        1.0080           0
     38751 WT14     1081     MECN     H13      HGA3     0.090000        1.0080           0
     38752 WT14     1081     MECN     C2       CG1N1    0.360000       12.0110           0
     38753 WT14     1081     MECN     N3       NG1T1   -0.460000       14.0070           0
     38754 WT14     1082     MECN     C1       CG331   -0.170000       12.0110           0
     38755 WT14     1082     MECN     H11      HGA3     0.090000        1.0080           0
     38756 WT14     1082     MECN     H12      HGA3     0.090000        1.0080           0
     38757 WT14     1082     MECN     H13      HGA3     0.090000        1.0080           0
     38758 WT14     1082     MECN     C2       CG1N1    0.360000       12.0110           0
     38759 WT14     1082     MECN     N3       NG1T1   -0.460000       14.0070           0
     38760 WT14     1083     MECN     C1       CG331   -0.170000       12.0110           0
     38761 WT14     1083     MECN     H11      HGA3     0.090000        1.0080           0
     38762 WT14     1083     MECN     H12      HGA3     0.090000        1.0080           0
     38763 WT14     1083     MECN     H13      HGA3     0.090000        1.0080           0
     38764 WT14     1083     MECN     C2       CG1N1    0.360000       12.0110           0
     38765 WT14     1083     MECN     N3       NG1T1   -0.460000       14.0070           0
     38766 WT14     1084     MECN     C1       CG331   -0.170000       12.0110           0
     38767 WT14     1084     MECN     H11      HGA3     0.090000        1.0080           0
     38768 WT14     1084     MECN     H12      HGA3     0.090000        1.0080           0
     38769 WT14     1084     MECN     H13      HGA3     0.090000        1.0080           0
     38770 WT14     1084     MECN     C2       CG1N1    0.360000       12.0110           0
     38771 WT14     1084     MECN     N3       NG1T1   -0.460000       14.0070           0
     38772 WT14     1085     MECN     C1       CG331   -0.170000       12.0110           0
     38773 WT14     1085     MECN     H11      HGA3     0.090000        1.0080           0
     38774 WT14     1085     MECN     H12      HGA3     0.090000        1.0080           0
     38775 WT14     1085     MECN     H13      HGA3     0.090000        1.0080           0
     38776 WT14     1085     MECN     C2       CG1N1    0.360000       12.0110           0
     38777 WT14     1085     MECN     N3       NG1T1   -0.460000       14.0070           0
     38778 WT14     1086     MECN     C1       CG331   -0.170000       12.0110           0
     38779 WT14     1086     MECN     H11      HGA3     0.090000        1.0080           0
     38780 WT14     1086     MECN     H12      HGA3     0.090000        1.0080           0
     38781 WT14     1086     MECN     H13      HGA3     0.090000        1.0080           0
     38782 WT14     1086     MECN     C2       CG1N1    0.360000       12.0110           0
     38783 WT14     1086     MECN     N3       NG1T1   -0.460000       14.0070           0
     38784 WT14     1087     MECN     C1       CG331   -0.170000       12.0110           0
     38785 WT14     1087     MECN     H11      HGA3     0.090000        1.0080           0
     38786 WT14     1087     MECN     H12      HGA3     0.090000        1.0080           0
     38787 WT14     1087     MECN     H13      HGA3     0.090000        1.0080           0
     38788 WT14     1087     MECN     C2       CG1N1    0.360000       12.0110           0
     38789 WT14     1087     MECN     N3       NG1T1   -0.460000       14.0070           0
     38790 WT14     1088     MECN     C1       CG331   -0.170000       12.0110           0
     38791 WT14     1088     MECN     H11      HGA3     0.090000        1.0080           0
     38792 WT14     1088     MECN     H12      HGA3     0.090000        1.0080           0
     38793 WT14     1088     MECN     H13      HGA3     0.090000        1.0080           0
     38794 WT14     1088     MECN     C2       CG1N1    0.360000       12.0110           0
     38795 WT14     1088     MECN     N3       NG1T1   -0.460000       14.0070           0
     38796 WT14     1089     MECN     C1       CG331   -0.170000       12.0110           0
     38797 WT14     1089     MECN     H11      HGA3     0.090000        1.0080           0
     38798 WT14     1089     MECN     H12      HGA3     0.090000        1.0080           0
     38799 WT14     1089     MECN     H13      HGA3     0.090000        1.0080           0
     38800 WT14     1089     MECN     C2       CG1N1    0.360000       12.0110           0
     38801 WT14     1089     MECN     N3       NG1T1   -0.460000       14.0070           0
     38802 WT14     1090     MECN     C1       CG331   -0.170000       12.0110           0
     38803 WT14     1090     MECN     H11      HGA3     0.090000        1.0080           0
     38804 WT14     1090     MECN     H12      HGA3     0.090000        1.0080           0
     38805 WT14     1090     MECN     H13      HGA3     0.090000        1.0080           0
     38806 WT14     1090     MECN     C2       CG1N1    0.360000       12.0110           0
     38807 WT14     1090     MECN     N3       NG1T1   -0.460000       14.0070           0
     38808 WT14     1091     MECN     C1       CG331   -0.170000       12.0110           0
     38809 WT14     1091     MECN     H11      HGA3     0.090000        1.0080           0
     38810 WT14     1091     MECN     H12      HGA3     0.090000        1.0080           0
     38811 WT14     1091     MECN     H13      HGA3     0.090000        1.0080           0
     38812 WT14     1091     MECN     C2       CG1N1    0.360000       12.0110           0
     38813 WT14     1091     MECN     N3       NG1T1   -0.460000       14.0070           0
     38814 WT14     1092     MECN     C1       CG331   -0.170000       12.0110           0
     38815 WT14     1092     MECN     H11      HGA3     0.090000        1.0080           0
     38816 WT14     1092     MECN     H12      HGA3     0.090000        1.0080           0
     38817 WT14     1092     MECN     H13      HGA3     0.090000        1.0080           0
     38818 WT14     1092     MECN     C2       CG1N1    0.360000       12.0110           0
     38819 WT14     1092     MECN     N3       NG1T1   -0.460000       14.0070           0
     38820 WT14     1093     MECN     C1       CG331   -0.170000       12.0110           0
     38821 WT14     1093     MECN     H11      HGA3     0.090000        1.0080           0
     38822 WT14     1093     MECN     H12      HGA3     0.090000        1.0080           0
     38823 WT14     1093     MECN     H13      HGA3     0.090000        1.0080           0
     38824 WT14     1093     MECN     C2       CG1N1    0.360000       12.0110           0
     38825 WT14     1093     MECN     N3       NG1T1   -0.460000       14.0070           0
     38826 WT14     1094     MECN     C1       CG331   -0.170000       12.0110           0
     38827 WT14     1094     MECN     H11      HGA3     0.090000        1.0080           0
     38828 WT14     1094     MECN     H12      HGA3     0.090000        1.0080           0
     38829 WT14     1094     MECN     H13      HGA3     0.090000        1.0080           0
     38830 WT14     1094     MECN     C2       CG1N1    0.360000       12.0110           0
     38831 WT14     1094     MECN     N3       NG1T1   -0.460000       14.0070           0
     38832 WT14     1095     MECN     C1       CG331   -0.170000       12.0110           0
     38833 WT14     1095     MECN     H11      HGA3     0.090000        1.0080           0
     38834 WT14     1095     MECN     H12      HGA3     0.090000        1.0080           0
     38835 WT14     1095     MECN     H13      HGA3     0.090000        1.0080           0
     38836 WT14     1095     MECN     C2       CG1N1    0.360000       12.0110           0
     38837 WT14     1095     MECN     N3       NG1T1   -0.460000       14.0070           0
     38838 WT14     1096     MECN     C1       CG331   -0.170000       12.0110           0
     38839 WT14     1096     MECN     H11      HGA3     0.090000        1.0080           0
     38840 WT14     1096     MECN     H12      HGA3     0.090000        1.0080           0
     38841 WT14     1096     MECN     H13      HGA3     0.090000        1.0080           0
     38842 WT14     1096     MECN     C2       CG1N1    0.360000       12.0110           0
     38843 WT14     1096     MECN     N3       NG1T1   -0.460000       14.0070           0
     38844 WT14     1097     MECN     C1       CG331   -0.170000       12.0110           0
     38845 WT14     1097     MECN     H11      HGA3     0.090000        1.0080           0
     38846 WT14     1097     MECN     H12      HGA3     0.090000        1.0080           0
     38847 WT14     1097     MECN     H13      HGA3     0.090000        1.0080           0
     38848 WT14     1097     MECN     C2       CG1N1    0.360000       12.0110           0
     38849 WT14     1097     MECN     N3       NG1T1   -0.460000       14.0070           0
     38850 WT14     1098     MECN     C1       CG331   -0.170000       12.0110           0
     38851 WT14     1098     MECN     H11      HGA3     0.090000        1.0080           0
     38852 WT14     1098     MECN     H12      HGA3     0.090000        1.0080           0
     38853 WT14     1098     MECN     H13      HGA3     0.090000        1.0080           0
     38854 WT14     1098     MECN     C2       CG1N1    0.360000       12.0110           0
     38855 WT14     1098     MECN     N3       NG1T1   -0.460000       14.0070           0
     38856 WT14     1099     MECN     C1       CG331   -0.170000       12.0110           0
     38857 WT14     1099     MECN     H11      HGA3     0.090000        1.0080           0
     38858 WT14     1099     MECN     H12      HGA3     0.090000        1.0080           0
     38859 WT14     1099     MECN     H13      HGA3     0.090000        1.0080           0
     38860 WT14     1099     MECN     C2       CG1N1    0.360000       12.0110           0
     38861 WT14     1099     MECN     N3       NG1T1   -0.460000       14.0070           0
     38862 WT14     1100     MECN     C1       CG331   -0.170000       12.0110           0
     38863 WT14     1100     MECN     H11      HGA3     0.090000        1.0080           0
     38864 WT14     1100     MECN     H12      HGA3     0.090000        1.0080           0
     38865 WT14     1100     MECN     H13      HGA3     0.090000        1.0080           0
     38866 WT14     1100     MECN     C2       CG1N1    0.360000       12.0110           0
     38867 WT14     1100     MECN     N3       NG1T1   -0.460000       14.0070           0
     38868 WT14     1101     MECN     C1       CG331   -0.170000       12.0110           0
     38869 WT14     1101     MECN     H11      HGA3     0.090000        1.0080           0
     38870 WT14     1101     MECN     H12      HGA3     0.090000        1.0080           0
     38871 WT14     1101     MECN     H13      HGA3     0.090000        1.0080           0
     38872 WT14     1101     MECN     C2       CG1N1    0.360000       12.0110           0
     38873 WT14     1101     MECN     N3       NG1T1   -0.460000       14.0070           0
     38874 WT14     1102     MECN     C1       CG331   -0.170000       12.0110           0
     38875 WT14     1102     MECN     H11      HGA3     0.090000        1.0080           0
     38876 WT14     1102     MECN     H12      HGA3     0.090000        1.0080           0
     38877 WT14     1102     MECN     H13      HGA3     0.090000        1.0080           0
     38878 WT14     1102     MECN     C2       CG1N1    0.360000       12.0110           0
     38879 WT14     1102     MECN     N3       NG1T1   -0.460000       14.0070           0
     38880 WT14     1103     MECN     C1       CG331   -0.170000       12.0110           0
     38881 WT14     1103     MECN     H11      HGA3     0.090000        1.0080           0
     38882 WT14     1103     MECN     H12      HGA3     0.090000        1.0080           0
     38883 WT14     1103     MECN     H13      HGA3     0.090000        1.0080           0
     38884 WT14     1103     MECN     C2       CG1N1    0.360000       12.0110           0
     38885 WT14     1103     MECN     N3       NG1T1   -0.460000       14.0070           0
     38886 WT14     1104     MECN     C1       CG331   -0.170000       12.0110           0
     38887 WT14     1104     MECN     H11      HGA3     0.090000        1.0080           0
     38888 WT14     1104     MECN     H12      HGA3     0.090000        1.0080           0
     38889 WT14     1104     MECN     H13      HGA3     0.090000        1.0080           0
     38890 WT14     1104     MECN     C2       CG1N1    0.360000       12.0110           0
     38891 WT14     1104     MECN     N3       NG1T1   -0.460000       14.0070           0
     38892 WT14     1105     MECN     C1       CG331   -0.170000       12.0110           0
     38893 WT14     1105     MECN     H11      HGA3     0.090000        1.0080           0
     38894 WT14     1105     MECN     H12      HGA3     0.090000        1.0080           0
     38895 WT14     1105     MECN     H13      HGA3     0.090000        1.0080           0
     38896 WT14     1105     MECN     C2       CG1N1    0.360000       12.0110           0
     38897 WT14     1105     MECN     N3       NG1T1   -0.460000       14.0070           0
     38898 WT14     1106     MECN     C1       CG331   -0.170000       12.0110           0
     38899 WT14     1106     MECN     H11      HGA3     0.090000        1.0080           0
     38900 WT14     1106     MECN     H12      HGA3     0.090000        1.0080           0
     38901 WT14     1106     MECN     H13      HGA3     0.090000        1.0080           0
     38902 WT14     1106     MECN     C2       CG1N1    0.360000       12.0110           0
     38903 WT14     1106     MECN     N3       NG1T1   -0.460000       14.0070           0
     38904 WT14     1108     MECN     C1       CG331   -0.170000       12.0110           0
     38905 WT14     1108     MECN     H11      HGA3     0.090000        1.0080           0
     38906 WT14     1108     MECN     H12      HGA3     0.090000        1.0080           0
     38907 WT14     1108     MECN     H13      HGA3     0.090000        1.0080           0
     38908 WT14     1108     MECN     C2       CG1N1    0.360000       12.0110           0
     38909 WT14     1108     MECN     N3       NG1T1   -0.460000       14.0070           0
     38910 WT14     1109     MECN     C1       CG331   -0.170000       12.0110           0
     38911 WT14     1109     MECN     H11      HGA3     0.090000        1.0080           0
     38912 WT14     1109     MECN     H12      HGA3     0.090000        1.0080           0
     38913 WT14     1109     MECN     H13      HGA3     0.090000        1.0080           0
     38914 WT14     1109     MECN     C2       CG1N1    0.360000       12.0110           0
     38915 WT14     1109     MECN     N3       NG1T1   -0.460000       14.0070           0
     38916 WT14     1110     MECN     C1       CG331   -0.170000       12.0110           0
     38917 WT14     1110     MECN     H11      HGA3     0.090000        1.0080           0
     38918 WT14     1110     MECN     H12      HGA3     0.090000        1.0080           0
     38919 WT14     1110     MECN     H13      HGA3     0.090000        1.0080           0
     38920 WT14     1110     MECN     C2       CG1N1    0.360000       12.0110           0
     38921 WT14     1110     MECN     N3       NG1T1   -0.460000       14.0070           0
     38922 WT14     1111     MECN     C1       CG331   -0.170000       12.0110           0
     38923 WT14     1111     MECN     H11      HGA3     0.090000        1.0080           0
     38924 WT14     1111     MECN     H12      HGA3     0.090000        1.0080           0
     38925 WT14     1111     MECN     H13      HGA3     0.090000        1.0080           0
     38926 WT14     1111     MECN     C2       CG1N1    0.360000       12.0110           0
     38927 WT14     1111     MECN     N3       NG1T1   -0.460000       14.0070           0
     38928 WT14     1112     MECN     C1       CG331   -0.170000       12.0110           0
     38929 WT14     1112     MECN     H11      HGA3     0.090000        1.0080           0
     38930 WT14     1112     MECN     H12      HGA3     0.090000        1.0080           0
     38931 WT14     1112     MECN     H13      HGA3     0.090000        1.0080           0
     38932 WT14     1112     MECN     C2       CG1N1    0.360000       12.0110           0
     38933 WT14     1112     MECN     N3       NG1T1   -0.460000       14.0070           0
     38934 WT14     1114     MECN     C1       CG331   -0.170000       12.0110           0
     38935 WT14     1114     MECN     H11      HGA3     0.090000        1.0080           0
     38936 WT14     1114     MECN     H12      HGA3     0.090000        1.0080           0
     38937 WT14     1114     MECN     H13      HGA3     0.090000        1.0080           0
     38938 WT14     1114     MECN     C2       CG1N1    0.360000       12.0110           0
     38939 WT14     1114     MECN     N3       NG1T1   -0.460000       14.0070           0
     38940 WT14     1115     MECN     C1       CG331   -0.170000       12.0110           0
     38941 WT14     1115     MECN     H11      HGA3     0.090000        1.0080           0
     38942 WT14     1115     MECN     H12      HGA3     0.090000        1.0080           0
     38943 WT14     1115     MECN     H13      HGA3     0.090000        1.0080           0
     38944 WT14     1115     MECN     C2       CG1N1    0.360000       12.0110           0
     38945 WT14     1115     MECN     N3       NG1T1   -0.460000       14.0070           0
     38946 WT14     1116     MECN     C1       CG331   -0.170000       12.0110           0
     38947 WT14     1116     MECN     H11      HGA3     0.090000        1.0080           0
     38948 WT14     1116     MECN     H12      HGA3     0.090000        1.0080           0
     38949 WT14     1116     MECN     H13      HGA3     0.090000        1.0080           0
     38950 WT14     1116     MECN     C2       CG1N1    0.360000       12.0110           0
     38951 WT14     1116     MECN     N3       NG1T1   -0.460000       14.0070           0
     38952 WT14     1118     MECN     C1       CG331   -0.170000       12.0110           0
     38953 WT14     1118     MECN     H11      HGA3     0.090000        1.0080           0
     38954 WT14     1118     MECN     H12      HGA3     0.090000        1.0080           0
     38955 WT14     1118     MECN     H13      HGA3     0.090000        1.0080           0
     38956 WT14     1118     MECN     C2       CG1N1    0.360000       12.0110           0
     38957 WT14     1118     MECN     N3       NG1T1   -0.460000       14.0070           0
     38958 WT14     1119     MECN     C1       CG331   -0.170000       12.0110           0
     38959 WT14     1119     MECN     H11      HGA3     0.090000        1.0080           0
     38960 WT14     1119     MECN     H12      HGA3     0.090000        1.0080           0
     38961 WT14     1119     MECN     H13      HGA3     0.090000        1.0080           0
     38962 WT14     1119     MECN     C2       CG1N1    0.360000       12.0110           0
     38963 WT14     1119     MECN     N3       NG1T1   -0.460000       14.0070           0
     38964 WT14     1120     MECN     C1       CG331   -0.170000       12.0110           0
     38965 WT14     1120     MECN     H11      HGA3     0.090000        1.0080           0
     38966 WT14     1120     MECN     H12      HGA3     0.090000        1.0080           0
     38967 WT14     1120     MECN     H13      HGA3     0.090000        1.0080           0
     38968 WT14     1120     MECN     C2       CG1N1    0.360000       12.0110           0
     38969 WT14     1120     MECN     N3       NG1T1   -0.460000       14.0070           0
     38970 WT14     1123     MECN     C1       CG331   -0.170000       12.0110           0
     38971 WT14     1123     MECN     H11      HGA3     0.090000        1.0080           0
     38972 WT14     1123     MECN     H12      HGA3     0.090000        1.0080           0
     38973 WT14     1123     MECN     H13      HGA3     0.090000        1.0080           0
     38974 WT14     1123     MECN     C2       CG1N1    0.360000       12.0110           0
     38975 WT14     1123     MECN     N3       NG1T1   -0.460000       14.0070           0
     38976 WT14     1125     MECN     C1       CG331   -0.170000       12.0110           0
     38977 WT14     1125     MECN     H11      HGA3     0.090000        1.0080           0
     38978 WT14     1125     MECN     H12      HGA3     0.090000        1.0080           0
     38979 WT14     1125     MECN     H13      HGA3     0.090000        1.0080           0
     38980 WT14     1125     MECN     C2       CG1N1    0.360000       12.0110           0
     38981 WT14     1125     MECN     N3       NG1T1   -0.460000       14.0070           0
     38982 WT14     1127     MECN     C1       CG331   -0.170000       12.0110           0
     38983 WT14     1127     MECN     H11      HGA3     0.090000        1.0080           0
     38984 WT14     1127     MECN     H12      HGA3     0.090000        1.0080           0
     38985 WT14     1127     MECN     H13      HGA3     0.090000        1.0080           0
     38986 WT14     1127     MECN     C2       CG1N1    0.360000       12.0110           0
     38987 WT14     1127     MECN     N3       NG1T1   -0.460000       14.0070           0
     38988 WT14     1128     MECN     C1       CG331   -0.170000       12.0110           0
     38989 WT14     1128     MECN     H11      HGA3     0.090000        1.0080           0
     38990 WT14     1128     MECN     H12      HGA3     0.090000        1.0080           0
     38991 WT14     1128     MECN     H13      HGA3     0.090000        1.0080           0
     38992 WT14     1128     MECN     C2       CG1N1    0.360000       12.0110           0
     38993 WT14     1128     MECN     N3       NG1T1   -0.460000       14.0070           0
     38994 WT14     1129     MECN     C1       CG331   -0.170000       12.0110           0
     38995 WT14     1129     MECN     H11      HGA3     0.090000        1.0080           0
     38996 WT14     1129     MECN     H12      HGA3     0.090000        1.0080           0
     38997 WT14     1129     MECN     H13      HGA3     0.090000        1.0080           0
     38998 WT14     1129     MECN     C2       CG1N1    0.360000       12.0110           0
     38999 WT14     1129     MECN     N3       NG1T1   -0.460000       14.0070           0
     39000 WT14     1130     MECN     C1       CG331   -0.170000       12.0110           0
     39001 WT14     1130     MECN     H11      HGA3     0.090000        1.0080           0
     39002 WT14     1130     MECN     H12      HGA3     0.090000        1.0080           0
     39003 WT14     1130     MECN     H13      HGA3     0.090000        1.0080           0
     39004 WT14     1130     MECN     C2       CG1N1    0.360000       12.0110           0
     39005 WT14     1130     MECN     N3       NG1T1   -0.460000       14.0070           0
     39006 WT14     1132     MECN     C1       CG331   -0.170000       12.0110           0
     39007 WT14     1132     MECN     H11      HGA3     0.090000        1.0080           0
     39008 WT14     1132     MECN     H12      HGA3     0.090000        1.0080           0
     39009 WT14     1132     MECN     H13      HGA3     0.090000        1.0080           0
     39010 WT14     1132     MECN     C2       CG1N1    0.360000       12.0110           0
     39011 WT14     1132     MECN     N3       NG1T1   -0.460000       14.0070           0
     39012 WT14     1133     MECN     C1       CG331   -0.170000       12.0110           0
     39013 WT14     1133     MECN     H11      HGA3     0.090000        1.0080           0
     39014 WT14     1133     MECN     H12      HGA3     0.090000        1.0080           0
     39015 WT14     1133     MECN     H13      HGA3     0.090000        1.0080           0
     39016 WT14     1133     MECN     C2       CG1N1    0.360000       12.0110           0
     39017 WT14     1133     MECN     N3       NG1T1   -0.460000       14.0070           0
     39018 WT14     1134     MECN     C1       CG331   -0.170000       12.0110           0
     39019 WT14     1134     MECN     H11      HGA3     0.090000        1.0080           0
     39020 WT14     1134     MECN     H12      HGA3     0.090000        1.0080           0
     39021 WT14     1134     MECN     H13      HGA3     0.090000        1.0080           0
     39022 WT14     1134     MECN     C2       CG1N1    0.360000       12.0110           0
     39023 WT14     1134     MECN     N3       NG1T1   -0.460000       14.0070           0
     39024 WT14     1135     MECN     C1       CG331   -0.170000       12.0110           0
     39025 WT14     1135     MECN     H11      HGA3     0.090000        1.0080           0
     39026 WT14     1135     MECN     H12      HGA3     0.090000        1.0080           0
     39027 WT14     1135     MECN     H13      HGA3     0.090000        1.0080           0
     39028 WT14     1135     MECN     C2       CG1N1    0.360000       12.0110           0
     39029 WT14     1135     MECN     N3       NG1T1   -0.460000       14.0070           0
     39030 WT14     1137     MECN     C1       CG331   -0.170000       12.0110           0
     39031 WT14     1137     MECN     H11      HGA3     0.090000        1.0080           0
     39032 WT14     1137     MECN     H12      HGA3     0.090000        1.0080           0
     39033 WT14     1137     MECN     H13      HGA3     0.090000        1.0080           0
     39034 WT14     1137     MECN     C2       CG1N1    0.360000       12.0110           0
     39035 WT14     1137     MECN     N3       NG1T1   -0.460000       14.0070           0
     39036 WT14     1138     MECN     C1       CG331   -0.170000       12.0110           0
     39037 WT14     1138     MECN     H11      HGA3     0.090000        1.0080           0
     39038 WT14     1138     MECN     H12      HGA3     0.090000        1.0080           0
     39039 WT14     1138     MECN     H13      HGA3     0.090000        1.0080           0
     39040 WT14     1138     MECN     C2       CG1N1    0.360000       12.0110           0
     39041 WT14     1138     MECN     N3       NG1T1   -0.460000       14.0070           0
     39042 WT14     1139     MECN     C1       CG331   -0.170000       12.0110           0
     39043 WT14     1139     MECN     H11      HGA3     0.090000        1.0080           0
     39044 WT14     1139     MECN     H12      HGA3     0.090000        1.0080           0
     39045 WT14     1139     MECN     H13      HGA3     0.090000        1.0080           0
     39046 WT14     1139     MECN     C2       CG1N1    0.360000       12.0110           0
     39047 WT14     1139     MECN     N3       NG1T1   -0.460000       14.0070           0
     39048 WT14     1140     MECN     C1       CG331   -0.170000       12.0110           0
     39049 WT14     1140     MECN     H11      HGA3     0.090000        1.0080           0
     39050 WT14     1140     MECN     H12      HGA3     0.090000        1.0080           0
     39051 WT14     1140     MECN     H13      HGA3     0.090000        1.0080           0
     39052 WT14     1140     MECN     C2       CG1N1    0.360000       12.0110           0
     39053 WT14     1140     MECN     N3       NG1T1   -0.460000       14.0070           0
     39054 WT14     1141     MECN     C1       CG331   -0.170000       12.0110           0
     39055 WT14     1141     MECN     H11      HGA3     0.090000        1.0080           0
     39056 WT14     1141     MECN     H12      HGA3     0.090000        1.0080           0
     39057 WT14     1141     MECN     H13      HGA3     0.090000        1.0080           0
     39058 WT14     1141     MECN     C2       CG1N1    0.360000       12.0110           0
     39059 WT14     1141     MECN     N3       NG1T1   -0.460000       14.0070           0
     39060 WT14     1142     MECN     C1       CG331   -0.170000       12.0110           0
     39061 WT14     1142     MECN     H11      HGA3     0.090000        1.0080           0
     39062 WT14     1142     MECN     H12      HGA3     0.090000        1.0080           0
     39063 WT14     1142     MECN     H13      HGA3     0.090000        1.0080           0
     39064 WT14     1142     MECN     C2       CG1N1    0.360000       12.0110           0
     39065 WT14     1142     MECN     N3       NG1T1   -0.460000       14.0070           0
     39066 WT14     1143     MECN     C1       CG331   -0.170000       12.0110           0
     39067 WT14     1143     MECN     H11      HGA3     0.090000        1.0080           0
     39068 WT14     1143     MECN     H12      HGA3     0.090000        1.0080           0
     39069 WT14     1143     MECN     H13      HGA3     0.090000        1.0080           0
     39070 WT14     1143     MECN     C2       CG1N1    0.360000       12.0110           0
     39071 WT14     1143     MECN     N3       NG1T1   -0.460000       14.0070           0
     39072 WT14     1144     MECN     C1       CG331   -0.170000       12.0110           0
     39073 WT14     1144     MECN     H11      HGA3     0.090000        1.0080           0
     39074 WT14     1144     MECN     H12      HGA3     0.090000        1.0080           0
     39075 WT14     1144     MECN     H13      HGA3     0.090000        1.0080           0
     39076 WT14     1144     MECN     C2       CG1N1    0.360000       12.0110           0
     39077 WT14     1144     MECN     N3       NG1T1   -0.460000       14.0070           0
     39078 WT14     1145     MECN     C1       CG331   -0.170000       12.0110           0
     39079 WT14     1145     MECN     H11      HGA3     0.090000        1.0080           0
     39080 WT14     1145     MECN     H12      HGA3     0.090000        1.0080           0
     39081 WT14     1145     MECN     H13      HGA3     0.090000        1.0080           0
     39082 WT14     1145     MECN     C2       CG1N1    0.360000       12.0110           0
     39083 WT14     1145     MECN     N3       NG1T1   -0.460000       14.0070           0
     39084 WT14     1146     MECN     C1       CG331   -0.170000       12.0110           0
     39085 WT14     1146     MECN     H11      HGA3     0.090000        1.0080           0
     39086 WT14     1146     MECN     H12      HGA3     0.090000        1.0080           0
     39087 WT14     1146     MECN     H13      HGA3     0.090000        1.0080           0
     39088 WT14     1146     MECN     C2       CG1N1    0.360000       12.0110           0
     39089 WT14     1146     MECN     N3       NG1T1   -0.460000       14.0070           0
     39090 WT14     1147     MECN     C1       CG331   -0.170000       12.0110           0
     39091 WT14     1147     MECN     H11      HGA3     0.090000        1.0080           0
     39092 WT14     1147     MECN     H12      HGA3     0.090000        1.0080           0
     39093 WT14     1147     MECN     H13      HGA3     0.090000        1.0080           0
     39094 WT14     1147     MECN     C2       CG1N1    0.360000       12.0110           0
     39095 WT14     1147     MECN     N3       NG1T1   -0.460000       14.0070           0
     39096 WT14     1148     MECN     C1       CG331   -0.170000       12.0110           0
     39097 WT14     1148     MECN     H11      HGA3     0.090000        1.0080           0
     39098 WT14     1148     MECN     H12      HGA3     0.090000        1.0080           0
     39099 WT14     1148     MECN     H13      HGA3     0.090000        1.0080           0
     39100 WT14     1148     MECN     C2       CG1N1    0.360000       12.0110           0
     39101 WT14     1148     MECN     N3       NG1T1   -0.460000       14.0070           0
     39102 WT14     1149     MECN     C1       CG331   -0.170000       12.0110           0
     39103 WT14     1149     MECN     H11      HGA3     0.090000        1.0080           0
     39104 WT14     1149     MECN     H12      HGA3     0.090000        1.0080           0
     39105 WT14     1149     MECN     H13      HGA3     0.090000        1.0080           0
     39106 WT14     1149     MECN     C2       CG1N1    0.360000       12.0110           0
     39107 WT14     1149     MECN     N3       NG1T1   -0.460000       14.0070           0
     39108 WT14     1150     MECN     C1       CG331   -0.170000       12.0110           0
     39109 WT14     1150     MECN     H11      HGA3     0.090000        1.0080           0
     39110 WT14     1150     MECN     H12      HGA3     0.090000        1.0080           0
     39111 WT14     1150     MECN     H13      HGA3     0.090000        1.0080           0
     39112 WT14     1150     MECN     C2       CG1N1    0.360000       12.0110           0
     39113 WT14     1150     MECN     N3       NG1T1   -0.460000       14.0070           0
     39114 WT14     1151     MECN     C1       CG331   -0.170000       12.0110           0
     39115 WT14     1151     MECN     H11      HGA3     0.090000        1.0080           0
     39116 WT14     1151     MECN     H12      HGA3     0.090000        1.0080           0
     39117 WT14     1151     MECN     H13      HGA3     0.090000        1.0080           0
     39118 WT14     1151     MECN     C2       CG1N1    0.360000       12.0110           0
     39119 WT14     1151     MECN     N3       NG1T1   -0.460000       14.0070           0
     39120 WT14     1152     MECN     C1       CG331   -0.170000       12.0110           0
     39121 WT14     1152     MECN     H11      HGA3     0.090000        1.0080           0
     39122 WT14     1152     MECN     H12      HGA3     0.090000        1.0080           0
     39123 WT14     1152     MECN     H13      HGA3     0.090000        1.0080           0
     39124 WT14     1152     MECN     C2       CG1N1    0.360000       12.0110           0
     39125 WT14     1152     MECN     N3       NG1T1   -0.460000       14.0070           0
     39126 WT14     1153     MECN     C1       CG331   -0.170000       12.0110           0
     39127 WT14     1153     MECN     H11      HGA3     0.090000        1.0080           0
     39128 WT14     1153     MECN     H12      HGA3     0.090000        1.0080           0
     39129 WT14     1153     MECN     H13      HGA3     0.090000        1.0080           0
     39130 WT14     1153     MECN     C2       CG1N1    0.360000       12.0110           0
     39131 WT14     1153     MECN     N3       NG1T1   -0.460000       14.0070           0
     39132 WT14     1154     MECN     C1       CG331   -0.170000       12.0110           0
     39133 WT14     1154     MECN     H11      HGA3     0.090000        1.0080           0
     39134 WT14     1154     MECN     H12      HGA3     0.090000        1.0080           0
     39135 WT14     1154     MECN     H13      HGA3     0.090000        1.0080           0
     39136 WT14     1154     MECN     C2       CG1N1    0.360000       12.0110           0
     39137 WT14     1154     MECN     N3       NG1T1   -0.460000       14.0070           0
     39138 WT14     1156     MECN     C1       CG331   -0.170000       12.0110           0
     39139 WT14     1156     MECN     H11      HGA3     0.090000        1.0080           0
     39140 WT14     1156     MECN     H12      HGA3     0.090000        1.0080           0
     39141 WT14     1156     MECN     H13      HGA3     0.090000        1.0080           0
     39142 WT14     1156     MECN     C2       CG1N1    0.360000       12.0110           0
     39143 WT14     1156     MECN     N3       NG1T1   -0.460000       14.0070           0
     39144 WT14     1157     MECN     C1       CG331   -0.170000       12.0110           0
     39145 WT14     1157     MECN     H11      HGA3     0.090000        1.0080           0
     39146 WT14     1157     MECN     H12      HGA3     0.090000        1.0080           0
     39147 WT14     1157     MECN     H13      HGA3     0.090000        1.0080           0
     39148 WT14     1157     MECN     C2       CG1N1    0.360000       12.0110           0
     39149 WT14     1157     MECN     N3       NG1T1   -0.460000       14.0070           0
     39150 WT14     1159     MECN     C1       CG331   -0.170000       12.0110           0
     39151 WT14     1159     MECN     H11      HGA3     0.090000        1.0080           0
     39152 WT14     1159     MECN     H12      HGA3     0.090000        1.0080           0
     39153 WT14     1159     MECN     H13      HGA3     0.090000        1.0080           0
     39154 WT14     1159     MECN     C2       CG1N1    0.360000       12.0110           0
     39155 WT14     1159     MECN     N3       NG1T1   -0.460000       14.0070           0
     39156 WT14     1160     MECN     C1       CG331   -0.170000       12.0110           0
     39157 WT14     1160     MECN     H11      HGA3     0.090000        1.0080           0
     39158 WT14     1160     MECN     H12      HGA3     0.090000        1.0080           0
     39159 WT14     1160     MECN     H13      HGA3     0.090000        1.0080           0
     39160 WT14     1160     MECN     C2       CG1N1    0.360000       12.0110           0
     39161 WT14     1160     MECN     N3       NG1T1   -0.460000       14.0070           0
     39162 WT14     1161     MECN     C1       CG331   -0.170000       12.0110           0
     39163 WT14     1161     MECN     H11      HGA3     0.090000        1.0080           0
     39164 WT14     1161     MECN     H12      HGA3     0.090000        1.0080           0
     39165 WT14     1161     MECN     H13      HGA3     0.090000        1.0080           0
     39166 WT14     1161     MECN     C2       CG1N1    0.360000       12.0110           0
     39167 WT14     1161     MECN     N3       NG1T1   -0.460000       14.0070           0
     39168 WT14     1162     MECN     C1       CG331   -0.170000       12.0110           0
     39169 WT14     1162     MECN     H11      HGA3     0.090000        1.0080           0
     39170 WT14     1162     MECN     H12      HGA3     0.090000        1.0080           0
     39171 WT14     1162     MECN     H13      HGA3     0.090000        1.0080           0
     39172 WT14     1162     MECN     C2       CG1N1    0.360000       12.0110           0
     39173 WT14     1162     MECN     N3       NG1T1   -0.460000       14.0070           0
     39174 WT14     1164     MECN     C1       CG331   -0.170000       12.0110           0
     39175 WT14     1164     MECN     H11      HGA3     0.090000        1.0080           0
     39176 WT14     1164     MECN     H12      HGA3     0.090000        1.0080           0
     39177 WT14     1164     MECN     H13      HGA3     0.090000        1.0080           0
     39178 WT14     1164     MECN     C2       CG1N1    0.360000       12.0110           0
     39179 WT14     1164     MECN     N3       NG1T1   -0.460000       14.0070           0
     39180 WT14     1165     MECN     C1       CG331   -0.170000       12.0110           0
     39181 WT14     1165     MECN     H11      HGA3     0.090000        1.0080           0
     39182 WT14     1165     MECN     H12      HGA3     0.090000        1.0080           0
     39183 WT14     1165     MECN     H13      HGA3     0.090000        1.0080           0
     39184 WT14     1165     MECN     C2       CG1N1    0.360000       12.0110           0
     39185 WT14     1165     MECN     N3       NG1T1   -0.460000       14.0070           0
     39186 WT14     1166     MECN     C1       CG331   -0.170000       12.0110           0
     39187 WT14     1166     MECN     H11      HGA3     0.090000        1.0080           0
     39188 WT14     1166     MECN     H12      HGA3     0.090000        1.0080           0
     39189 WT14     1166     MECN     H13      HGA3     0.090000        1.0080           0
     39190 WT14     1166     MECN     C2       CG1N1    0.360000       12.0110           0
     39191 WT14     1166     MECN     N3       NG1T1   -0.460000       14.0070           0
     39192 WT14     1167     MECN     C1       CG331   -0.170000       12.0110           0
     39193 WT14     1167     MECN     H11      HGA3     0.090000        1.0080           0
     39194 WT14     1167     MECN     H12      HGA3     0.090000        1.0080           0
     39195 WT14     1167     MECN     H13      HGA3     0.090000        1.0080           0
     39196 WT14     1167     MECN     C2       CG1N1    0.360000       12.0110           0
     39197 WT14     1167     MECN     N3       NG1T1   -0.460000       14.0070           0
     39198 WT14     1168     MECN     C1       CG331   -0.170000       12.0110           0
     39199 WT14     1168     MECN     H11      HGA3     0.090000        1.0080           0
     39200 WT14     1168     MECN     H12      HGA3     0.090000        1.0080           0
     39201 WT14     1168     MECN     H13      HGA3     0.090000        1.0080           0
     39202 WT14     1168     MECN     C2       CG1N1    0.360000       12.0110           0
     39203 WT14     1168     MECN     N3       NG1T1   -0.460000       14.0070           0
     39204 WT14     1169     MECN     C1       CG331   -0.170000       12.0110           0
     39205 WT14     1169     MECN     H11      HGA3     0.090000        1.0080           0
     39206 WT14     1169     MECN     H12      HGA3     0.090000        1.0080           0
     39207 WT14     1169     MECN     H13      HGA3     0.090000        1.0080           0
     39208 WT14     1169     MECN     C2       CG1N1    0.360000       12.0110           0
     39209 WT14     1169     MECN     N3       NG1T1   -0.460000       14.0070           0
     39210 WT14     1170     MECN     C1       CG331   -0.170000       12.0110           0
     39211 WT14     1170     MECN     H11      HGA3     0.090000        1.0080           0
     39212 WT14     1170     MECN     H12      HGA3     0.090000        1.0080           0
     39213 WT14     1170     MECN     H13      HGA3     0.090000        1.0080           0
     39214 WT14     1170     MECN     C2       CG1N1    0.360000       12.0110           0
     39215 WT14     1170     MECN     N3       NG1T1   -0.460000       14.0070           0
     39216 WT14     1171     MECN     C1       CG331   -0.170000       12.0110           0
     39217 WT14     1171     MECN     H11      HGA3     0.090000        1.0080           0
     39218 WT14     1171     MECN     H12      HGA3     0.090000        1.0080           0
     39219 WT14     1171     MECN     H13      HGA3     0.090000        1.0080           0
     39220 WT14     1171     MECN     C2       CG1N1    0.360000       12.0110           0
     39221 WT14     1171     MECN     N3       NG1T1   -0.460000       14.0070           0
     39222 WT14     1172     MECN     C1       CG331   -0.170000       12.0110           0
     39223 WT14     1172     MECN     H11      HGA3     0.090000        1.0080           0
     39224 WT14     1172     MECN     H12      HGA3     0.090000        1.0080           0
     39225 WT14     1172     MECN     H13      HGA3     0.090000        1.0080           0
     39226 WT14     1172     MECN     C2       CG1N1    0.360000       12.0110           0
     39227 WT14     1172     MECN     N3       NG1T1   -0.460000       14.0070           0
     39228 WT14     1173     MECN     C1       CG331   -0.170000       12.0110           0
     39229 WT14     1173     MECN     H11      HGA3     0.090000        1.0080           0
     39230 WT14     1173     MECN     H12      HGA3     0.090000        1.0080           0
     39231 WT14     1173     MECN     H13      HGA3     0.090000        1.0080           0
     39232 WT14     1173     MECN     C2       CG1N1    0.360000       12.0110           0
     39233 WT14     1173     MECN     N3       NG1T1   -0.460000       14.0070           0
     39234 WT14     1174     MECN     C1       CG331   -0.170000       12.0110           0
     39235 WT14     1174     MECN     H11      HGA3     0.090000        1.0080           0
     39236 WT14     1174     MECN     H12      HGA3     0.090000        1.0080           0
     39237 WT14     1174     MECN     H13      HGA3     0.090000        1.0080           0
     39238 WT14     1174     MECN     C2       CG1N1    0.360000       12.0110           0
     39239 WT14     1174     MECN     N3       NG1T1   -0.460000       14.0070           0
     39240 WT14     1175     MECN     C1       CG331   -0.170000       12.0110           0
     39241 WT14     1175     MECN     H11      HGA3     0.090000        1.0080           0
     39242 WT14     1175     MECN     H12      HGA3     0.090000        1.0080           0
     39243 WT14     1175     MECN     H13      HGA3     0.090000        1.0080           0
     39244 WT14     1175     MECN     C2       CG1N1    0.360000       12.0110           0
     39245 WT14     1175     MECN     N3       NG1T1   -0.460000       14.0070           0
     39246 WT14     1176     MECN     C1       CG331   -0.170000       12.0110           0
     39247 WT14     1176     MECN     H11      HGA3     0.090000        1.0080           0
     39248 WT14     1176     MECN     H12      HGA3     0.090000        1.0080           0
     39249 WT14     1176     MECN     H13      HGA3     0.090000        1.0080           0
     39250 WT14     1176     MECN     C2       CG1N1    0.360000       12.0110           0
     39251 WT14     1176     MECN     N3       NG1T1   -0.460000       14.0070           0
     39252 WT14     1177     MECN     C1       CG331   -0.170000       12.0110           0
     39253 WT14     1177     MECN     H11      HGA3     0.090000        1.0080           0
     39254 WT14     1177     MECN     H12      HGA3     0.090000        1.0080           0
     39255 WT14     1177     MECN     H13      HGA3     0.090000        1.0080           0
     39256 WT14     1177     MECN     C2       CG1N1    0.360000       12.0110           0
     39257 WT14     1177     MECN     N3       NG1T1   -0.460000       14.0070           0
     39258 WT14     1178     MECN     C1       CG331   -0.170000       12.0110           0
     39259 WT14     1178     MECN     H11      HGA3     0.090000        1.0080           0
     39260 WT14     1178     MECN     H12      HGA3     0.090000        1.0080           0
     39261 WT14     1178     MECN     H13      HGA3     0.090000        1.0080           0
     39262 WT14     1178     MECN     C2       CG1N1    0.360000       12.0110           0
     39263 WT14     1178     MECN     N3       NG1T1   -0.460000       14.0070           0
     39264 WT14     1179     MECN     C1       CG331   -0.170000       12.0110           0
     39265 WT14     1179     MECN     H11      HGA3     0.090000        1.0080           0
     39266 WT14     1179     MECN     H12      HGA3     0.090000        1.0080           0
     39267 WT14     1179     MECN     H13      HGA3     0.090000        1.0080           0
     39268 WT14     1179     MECN     C2       CG1N1    0.360000       12.0110           0
     39269 WT14     1179     MECN     N3       NG1T1   -0.460000       14.0070           0
     39270 WT14     1180     MECN     C1       CG331   -0.170000       12.0110           0
     39271 WT14     1180     MECN     H11      HGA3     0.090000        1.0080           0
     39272 WT14     1180     MECN     H12      HGA3     0.090000        1.0080           0
     39273 WT14     1180     MECN     H13      HGA3     0.090000        1.0080           0
     39274 WT14     1180     MECN     C2       CG1N1    0.360000       12.0110           0
     39275 WT14     1180     MECN     N3       NG1T1   -0.460000       14.0070           0
     39276 WT14     1181     MECN     C1       CG331   -0.170000       12.0110           0
     39277 WT14     1181     MECN     H11      HGA3     0.090000        1.0080           0
     39278 WT14     1181     MECN     H12      HGA3     0.090000        1.0080           0
     39279 WT14     1181     MECN     H13      HGA3     0.090000        1.0080           0
     39280 WT14     1181     MECN     C2       CG1N1    0.360000       12.0110           0
     39281 WT14     1181     MECN     N3       NG1T1   -0.460000       14.0070           0
     39282 WT14     1182     MECN     C1       CG331   -0.170000       12.0110           0
     39283 WT14     1182     MECN     H11      HGA3     0.090000        1.0080           0
     39284 WT14     1182     MECN     H12      HGA3     0.090000        1.0080           0
     39285 WT14     1182     MECN     H13      HGA3     0.090000        1.0080           0
     39286 WT14     1182     MECN     C2       CG1N1    0.360000       12.0110           0
     39287 WT14     1182     MECN     N3       NG1T1   -0.460000       14.0070           0
     39288 WT14     1183     MECN     C1       CG331   -0.170000       12.0110           0
     39289 WT14     1183     MECN     H11      HGA3     0.090000        1.0080           0
     39290 WT14     1183     MECN     H12      HGA3     0.090000        1.0080           0
     39291 WT14     1183     MECN     H13      HGA3     0.090000        1.0080           0
     39292 WT14     1183     MECN     C2       CG1N1    0.360000       12.0110           0
     39293 WT14     1183     MECN     N3       NG1T1   -0.460000       14.0070           0
     39294 WT14     1185     MECN     C1       CG331   -0.170000       12.0110           0
     39295 WT14     1185     MECN     H11      HGA3     0.090000        1.0080           0
     39296 WT14     1185     MECN     H12      HGA3     0.090000        1.0080           0
     39297 WT14     1185     MECN     H13      HGA3     0.090000        1.0080           0
     39298 WT14     1185     MECN     C2       CG1N1    0.360000       12.0110           0
     39299 WT14     1185     MECN     N3       NG1T1   -0.460000       14.0070           0
     39300 WT14     1186     MECN     C1       CG331   -0.170000       12.0110           0
     39301 WT14     1186     MECN     H11      HGA3     0.090000        1.0080           0
     39302 WT14     1186     MECN     H12      HGA3     0.090000        1.0080           0
     39303 WT14     1186     MECN     H13      HGA3     0.090000        1.0080           0
     39304 WT14     1186     MECN     C2       CG1N1    0.360000       12.0110           0
     39305 WT14     1186     MECN     N3       NG1T1   -0.460000       14.0070           0
     39306 WT14     1187     MECN     C1       CG331   -0.170000       12.0110           0
     39307 WT14     1187     MECN     H11      HGA3     0.090000        1.0080           0
     39308 WT14     1187     MECN     H12      HGA3     0.090000        1.0080           0
     39309 WT14     1187     MECN     H13      HGA3     0.090000        1.0080           0
     39310 WT14     1187     MECN     C2       CG1N1    0.360000       12.0110           0
     39311 WT14     1187     MECN     N3       NG1T1   -0.460000       14.0070           0
     39312 WT14     1188     MECN     C1       CG331   -0.170000       12.0110           0
     39313 WT14     1188     MECN     H11      HGA3     0.090000        1.0080           0
     39314 WT14     1188     MECN     H12      HGA3     0.090000        1.0080           0
     39315 WT14     1188     MECN     H13      HGA3     0.090000        1.0080           0
     39316 WT14     1188     MECN     C2       CG1N1    0.360000       12.0110           0
     39317 WT14     1188     MECN     N3       NG1T1   -0.460000       14.0070           0
     39318 WT14     1189     MECN     C1       CG331   -0.170000       12.0110           0
     39319 WT14     1189     MECN     H11      HGA3     0.090000        1.0080           0
     39320 WT14     1189     MECN     H12      HGA3     0.090000        1.0080           0
     39321 WT14     1189     MECN     H13      HGA3     0.090000        1.0080           0
     39322 WT14     1189     MECN     C2       CG1N1    0.360000       12.0110           0
     39323 WT14     1189     MECN     N3       NG1T1   -0.460000       14.0070           0
     39324 WT14     1190     MECN     C1       CG331   -0.170000       12.0110           0
     39325 WT14     1190     MECN     H11      HGA3     0.090000        1.0080           0
     39326 WT14     1190     MECN     H12      HGA3     0.090000        1.0080           0
     39327 WT14     1190     MECN     H13      HGA3     0.090000        1.0080           0
     39328 WT14     1190     MECN     C2       CG1N1    0.360000       12.0110           0
     39329 WT14     1190     MECN     N3       NG1T1   -0.460000       14.0070           0
     39330 WT14     1191     MECN     C1       CG331   -0.170000       12.0110           0
     39331 WT14     1191     MECN     H11      HGA3     0.090000        1.0080           0
     39332 WT14     1191     MECN     H12      HGA3     0.090000        1.0080           0
     39333 WT14     1191     MECN     H13      HGA3     0.090000        1.0080           0
     39334 WT14     1191     MECN     C2       CG1N1    0.360000       12.0110           0
     39335 WT14     1191     MECN     N3       NG1T1   -0.460000       14.0070           0
     39336 WT14     1192     MECN     C1       CG331   -0.170000       12.0110           0
     39337 WT14     1192     MECN     H11      HGA3     0.090000        1.0080           0
     39338 WT14     1192     MECN     H12      HGA3     0.090000        1.0080           0
     39339 WT14     1192     MECN     H13      HGA3     0.090000        1.0080           0
     39340 WT14     1192     MECN     C2       CG1N1    0.360000       12.0110           0
     39341 WT14     1192     MECN     N3       NG1T1   -0.460000       14.0070           0
     39342 WT14     1194     MECN     C1       CG331   -0.170000       12.0110           0
     39343 WT14     1194     MECN     H11      HGA3     0.090000        1.0080           0
     39344 WT14     1194     MECN     H12      HGA3     0.090000        1.0080           0
     39345 WT14     1194     MECN     H13      HGA3     0.090000        1.0080           0
     39346 WT14     1194     MECN     C2       CG1N1    0.360000       12.0110           0
     39347 WT14     1194     MECN     N3       NG1T1   -0.460000       14.0070           0
     39348 WT14     1195     MECN     C1       CG331   -0.170000       12.0110           0
     39349 WT14     1195     MECN     H11      HGA3     0.090000        1.0080           0
     39350 WT14     1195     MECN     H12      HGA3     0.090000        1.0080           0
     39351 WT14     1195     MECN     H13      HGA3     0.090000        1.0080           0
     39352 WT14     1195     MECN     C2       CG1N1    0.360000       12.0110           0
     39353 WT14     1195     MECN     N3       NG1T1   -0.460000       14.0070           0
     39354 WT14     1196     MECN     C1       CG331   -0.170000       12.0110           0
     39355 WT14     1196     MECN     H11      HGA3     0.090000        1.0080           0
     39356 WT14     1196     MECN     H12      HGA3     0.090000        1.0080           0
     39357 WT14     1196     MECN     H13      HGA3     0.090000        1.0080           0
     39358 WT14     1196     MECN     C2       CG1N1    0.360000       12.0110           0
     39359 WT14     1196     MECN     N3       NG1T1   -0.460000       14.0070           0
     39360 WT14     1198     MECN     C1       CG331   -0.170000       12.0110           0
     39361 WT14     1198     MECN     H11      HGA3     0.090000        1.0080           0
     39362 WT14     1198     MECN     H12      HGA3     0.090000        1.0080           0
     39363 WT14     1198     MECN     H13      HGA3     0.090000        1.0080           0
     39364 WT14     1198     MECN     C2       CG1N1    0.360000       12.0110           0
     39365 WT14     1198     MECN     N3       NG1T1   -0.460000       14.0070           0
     39366 WT14     1199     MECN     C1       CG331   -0.170000       12.0110           0
     39367 WT14     1199     MECN     H11      HGA3     0.090000        1.0080           0
     39368 WT14     1199     MECN     H12      HGA3     0.090000        1.0080           0
     39369 WT14     1199     MECN     H13      HGA3     0.090000        1.0080           0
     39370 WT14     1199     MECN     C2       CG1N1    0.360000       12.0110           0
     39371 WT14     1199     MECN     N3       NG1T1   -0.460000       14.0070           0
     39372 WT14     1200     MECN     C1       CG331   -0.170000       12.0110           0
     39373 WT14     1200     MECN     H11      HGA3     0.090000        1.0080           0
     39374 WT14     1200     MECN     H12      HGA3     0.090000        1.0080           0
     39375 WT14     1200     MECN     H13      HGA3     0.090000        1.0080           0
     39376 WT14     1200     MECN     C2       CG1N1    0.360000       12.0110           0
     39377 WT14     1200     MECN     N3       NG1T1   -0.460000       14.0070           0
     39378 WT14     1201     MECN     C1       CG331   -0.170000       12.0110           0
     39379 WT14     1201     MECN     H11      HGA3     0.090000        1.0080           0
     39380 WT14     1201     MECN     H12      HGA3     0.090000        1.0080           0
     39381 WT14     1201     MECN     H13      HGA3     0.090000        1.0080           0
     39382 WT14     1201     MECN     C2       CG1N1    0.360000       12.0110           0
     39383 WT14     1201     MECN     N3       NG1T1   -0.460000       14.0070           0
     39384 WT14     1202     MECN     C1       CG331   -0.170000       12.0110           0
     39385 WT14     1202     MECN     H11      HGA3     0.090000        1.0080           0
     39386 WT14     1202     MECN     H12      HGA3     0.090000        1.0080           0
     39387 WT14     1202     MECN     H13      HGA3     0.090000        1.0080           0
     39388 WT14     1202     MECN     C2       CG1N1    0.360000       12.0110           0
     39389 WT14     1202     MECN     N3       NG1T1   -0.460000       14.0070           0
     39390 WT14     1203     MECN     C1       CG331   -0.170000       12.0110           0
     39391 WT14     1203     MECN     H11      HGA3     0.090000        1.0080           0
     39392 WT14     1203     MECN     H12      HGA3     0.090000        1.0080           0
     39393 WT14     1203     MECN     H13      HGA3     0.090000        1.0080           0
     39394 WT14     1203     MECN     C2       CG1N1    0.360000       12.0110           0
     39395 WT14     1203     MECN     N3       NG1T1   -0.460000       14.0070           0
     39396 WT14     1204     MECN     C1       CG331   -0.170000       12.0110           0
     39397 WT14     1204     MECN     H11      HGA3     0.090000        1.0080           0
     39398 WT14     1204     MECN     H12      HGA3     0.090000        1.0080           0
     39399 WT14     1204     MECN     H13      HGA3     0.090000        1.0080           0
     39400 WT14     1204     MECN     C2       CG1N1    0.360000       12.0110           0
     39401 WT14     1204     MECN     N3       NG1T1   -0.460000       14.0070           0
     39402 WT14     1206     MECN     C1       CG331   -0.170000       12.0110           0
     39403 WT14     1206     MECN     H11      HGA3     0.090000        1.0080           0
     39404 WT14     1206     MECN     H12      HGA3     0.090000        1.0080           0
     39405 WT14     1206     MECN     H13      HGA3     0.090000        1.0080           0
     39406 WT14     1206     MECN     C2       CG1N1    0.360000       12.0110           0
     39407 WT14     1206     MECN     N3       NG1T1   -0.460000       14.0070           0
     39408 WT14     1207     MECN     C1       CG331   -0.170000       12.0110           0
     39409 WT14     1207     MECN     H11      HGA3     0.090000        1.0080           0
     39410 WT14     1207     MECN     H12      HGA3     0.090000        1.0080           0
     39411 WT14     1207     MECN     H13      HGA3     0.090000        1.0080           0
     39412 WT14     1207     MECN     C2       CG1N1    0.360000       12.0110           0
     39413 WT14     1207     MECN     N3       NG1T1   -0.460000       14.0070           0
     39414 WT14     1208     MECN     C1       CG331   -0.170000       12.0110           0
     39415 WT14     1208     MECN     H11      HGA3     0.090000        1.0080           0
     39416 WT14     1208     MECN     H12      HGA3     0.090000        1.0080           0
     39417 WT14     1208     MECN     H13      HGA3     0.090000        1.0080           0
     39418 WT14     1208     MECN     C2       CG1N1    0.360000       12.0110           0
     39419 WT14     1208     MECN     N3       NG1T1   -0.460000       14.0070           0
     39420 WT14     1209     MECN     C1       CG331   -0.170000       12.0110           0
     39421 WT14     1209     MECN     H11      HGA3     0.090000        1.0080           0
     39422 WT14     1209     MECN     H12      HGA3     0.090000        1.0080           0
     39423 WT14     1209     MECN     H13      HGA3     0.090000        1.0080           0
     39424 WT14     1209     MECN     C2       CG1N1    0.360000       12.0110           0
     39425 WT14     1209     MECN     N3       NG1T1   -0.460000       14.0070           0
     39426 WT14     1212     MECN     C1       CG331   -0.170000       12.0110           0
     39427 WT14     1212     MECN     H11      HGA3     0.090000        1.0080           0
     39428 WT14     1212     MECN     H12      HGA3     0.090000        1.0080           0
     39429 WT14     1212     MECN     H13      HGA3     0.090000        1.0080           0
     39430 WT14     1212     MECN     C2       CG1N1    0.360000       12.0110           0
     39431 WT14     1212     MECN     N3       NG1T1   -0.460000       14.0070           0
     39432 WT14     1213     MECN     C1       CG331   -0.170000       12.0110           0
     39433 WT14     1213     MECN     H11      HGA3     0.090000        1.0080           0
     39434 WT14     1213     MECN     H12      HGA3     0.090000        1.0080           0
     39435 WT14     1213     MECN     H13      HGA3     0.090000        1.0080           0
     39436 WT14     1213     MECN     C2       CG1N1    0.360000       12.0110           0
     39437 WT14     1213     MECN     N3       NG1T1   -0.460000       14.0070           0
     39438 WT14     1214     MECN     C1       CG331   -0.170000       12.0110           0
     39439 WT14     1214     MECN     H11      HGA3     0.090000        1.0080           0
     39440 WT14     1214     MECN     H12      HGA3     0.090000        1.0080           0
     39441 WT14     1214     MECN     H13      HGA3     0.090000        1.0080           0
     39442 WT14     1214     MECN     C2       CG1N1    0.360000       12.0110           0
     39443 WT14     1214     MECN     N3       NG1T1   -0.460000       14.0070           0
     39444 WT14     1215     MECN     C1       CG331   -0.170000       12.0110           0
     39445 WT14     1215     MECN     H11      HGA3     0.090000        1.0080           0
     39446 WT14     1215     MECN     H12      HGA3     0.090000        1.0080           0
     39447 WT14     1215     MECN     H13      HGA3     0.090000        1.0080           0
     39448 WT14     1215     MECN     C2       CG1N1    0.360000       12.0110           0
     39449 WT14     1215     MECN     N3       NG1T1   -0.460000       14.0070           0
     39450 WT14     1216     MECN     C1       CG331   -0.170000       12.0110           0
     39451 WT14     1216     MECN     H11      HGA3     0.090000        1.0080           0
     39452 WT14     1216     MECN     H12      HGA3     0.090000        1.0080           0
     39453 WT14     1216     MECN     H13      HGA3     0.090000        1.0080           0
     39454 WT14     1216     MECN     C2       CG1N1    0.360000       12.0110           0
     39455 WT14     1216     MECN     N3       NG1T1   -0.460000       14.0070           0
     39456 WT14     1217     MECN     C1       CG331   -0.170000       12.0110           0
     39457 WT14     1217     MECN     H11      HGA3     0.090000        1.0080           0
     39458 WT14     1217     MECN     H12      HGA3     0.090000        1.0080           0
     39459 WT14     1217     MECN     H13      HGA3     0.090000        1.0080           0
     39460 WT14     1217     MECN     C2       CG1N1    0.360000       12.0110           0
     39461 WT14     1217     MECN     N3       NG1T1   -0.460000       14.0070           0
     39462 WT14     1218     MECN     C1       CG331   -0.170000       12.0110           0
     39463 WT14     1218     MECN     H11      HGA3     0.090000        1.0080           0
     39464 WT14     1218     MECN     H12      HGA3     0.090000        1.0080           0
     39465 WT14     1218     MECN     H13      HGA3     0.090000        1.0080           0
     39466 WT14     1218     MECN     C2       CG1N1    0.360000       12.0110           0
     39467 WT14     1218     MECN     N3       NG1T1   -0.460000       14.0070           0
     39468 WT14     1219     MECN     C1       CG331   -0.170000       12.0110           0
     39469 WT14     1219     MECN     H11      HGA3     0.090000        1.0080           0
     39470 WT14     1219     MECN     H12      HGA3     0.090000        1.0080           0
     39471 WT14     1219     MECN     H13      HGA3     0.090000        1.0080           0
     39472 WT14     1219     MECN     C2       CG1N1    0.360000       12.0110           0
     39473 WT14     1219     MECN     N3       NG1T1   -0.460000       14.0070           0
     39474 WT14     1220     MECN     C1       CG331   -0.170000       12.0110           0
     39475 WT14     1220     MECN     H11      HGA3     0.090000        1.0080           0
     39476 WT14     1220     MECN     H12      HGA3     0.090000        1.0080           0
     39477 WT14     1220     MECN     H13      HGA3     0.090000        1.0080           0
     39478 WT14     1220     MECN     C2       CG1N1    0.360000       12.0110           0
     39479 WT14     1220     MECN     N3       NG1T1   -0.460000       14.0070           0
     39480 WT14     1221     MECN     C1       CG331   -0.170000       12.0110           0
     39481 WT14     1221     MECN     H11      HGA3     0.090000        1.0080           0
     39482 WT14     1221     MECN     H12      HGA3     0.090000        1.0080           0
     39483 WT14     1221     MECN     H13      HGA3     0.090000        1.0080           0
     39484 WT14     1221     MECN     C2       CG1N1    0.360000       12.0110           0
     39485 WT14     1221     MECN     N3       NG1T1   -0.460000       14.0070           0
     39486 WT14     1222     MECN     C1       CG331   -0.170000       12.0110           0
     39487 WT14     1222     MECN     H11      HGA3     0.090000        1.0080           0
     39488 WT14     1222     MECN     H12      HGA3     0.090000        1.0080           0
     39489 WT14     1222     MECN     H13      HGA3     0.090000        1.0080           0
     39490 WT14     1222     MECN     C2       CG1N1    0.360000       12.0110           0
     39491 WT14     1222     MECN     N3       NG1T1   -0.460000       14.0070           0
     39492 WT14     1223     MECN     C1       CG331   -0.170000       12.0110           0
     39493 WT14     1223     MECN     H11      HGA3     0.090000        1.0080           0
     39494 WT14     1223     MECN     H12      HGA3     0.090000        1.0080           0
     39495 WT14     1223     MECN     H13      HGA3     0.090000        1.0080           0
     39496 WT14     1223     MECN     C2       CG1N1    0.360000       12.0110           0
     39497 WT14     1223     MECN     N3       NG1T1   -0.460000       14.0070           0
     39498 WT14     1224     MECN     C1       CG331   -0.170000       12.0110           0
     39499 WT14     1224     MECN     H11      HGA3     0.090000        1.0080           0
     39500 WT14     1224     MECN     H12      HGA3     0.090000        1.0080           0
     39501 WT14     1224     MECN     H13      HGA3     0.090000        1.0080           0
     39502 WT14     1224     MECN     C2       CG1N1    0.360000       12.0110           0
     39503 WT14     1224     MECN     N3       NG1T1   -0.460000       14.0070           0
     39504 WT14     1225     MECN     C1       CG331   -0.170000       12.0110           0
     39505 WT14     1225     MECN     H11      HGA3     0.090000        1.0080           0
     39506 WT14     1225     MECN     H12      HGA3     0.090000        1.0080           0
     39507 WT14     1225     MECN     H13      HGA3     0.090000        1.0080           0
     39508 WT14     1225     MECN     C2       CG1N1    0.360000       12.0110           0
     39509 WT14     1225     MECN     N3       NG1T1   -0.460000       14.0070           0
     39510 WT14     1227     MECN     C1       CG331   -0.170000       12.0110           0
     39511 WT14     1227     MECN     H11      HGA3     0.090000        1.0080           0
     39512 WT14     1227     MECN     H12      HGA3     0.090000        1.0080           0
     39513 WT14     1227     MECN     H13      HGA3     0.090000        1.0080           0
     39514 WT14     1227     MECN     C2       CG1N1    0.360000       12.0110           0
     39515 WT14     1227     MECN     N3       NG1T1   -0.460000       14.0070           0
     39516 WT14     1229     MECN     C1       CG331   -0.170000       12.0110           0
     39517 WT14     1229     MECN     H11      HGA3     0.090000        1.0080           0
     39518 WT14     1229     MECN     H12      HGA3     0.090000        1.0080           0
     39519 WT14     1229     MECN     H13      HGA3     0.090000        1.0080           0
     39520 WT14     1229     MECN     C2       CG1N1    0.360000       12.0110           0
     39521 WT14     1229     MECN     N3       NG1T1   -0.460000       14.0070           0
     39522 WT14     1230     MECN     C1       CG331   -0.170000       12.0110           0
     39523 WT14     1230     MECN     H11      HGA3     0.090000        1.0080           0
     39524 WT14     1230     MECN     H12      HGA3     0.090000        1.0080           0
     39525 WT14     1230     MECN     H13      HGA3     0.090000        1.0080           0
     39526 WT14     1230     MECN     C2       CG1N1    0.360000       12.0110           0
     39527 WT14     1230     MECN     N3       NG1T1   -0.460000       14.0070           0
     39528 WT14     1231     MECN     C1       CG331   -0.170000       12.0110           0
     39529 WT14     1231     MECN     H11      HGA3     0.090000        1.0080           0
     39530 WT14     1231     MECN     H12      HGA3     0.090000        1.0080           0
     39531 WT14     1231     MECN     H13      HGA3     0.090000        1.0080           0
     39532 WT14     1231     MECN     C2       CG1N1    0.360000       12.0110           0
     39533 WT14     1231     MECN     N3       NG1T1   -0.460000       14.0070           0
     39534 WT14     1232     MECN     C1       CG331   -0.170000       12.0110           0
     39535 WT14     1232     MECN     H11      HGA3     0.090000        1.0080           0
     39536 WT14     1232     MECN     H12      HGA3     0.090000        1.0080           0
     39537 WT14     1232     MECN     H13      HGA3     0.090000        1.0080           0
     39538 WT14     1232     MECN     C2       CG1N1    0.360000       12.0110           0
     39539 WT14     1232     MECN     N3       NG1T1   -0.460000       14.0070           0
     39540 WT14     1233     MECN     C1       CG331   -0.170000       12.0110           0
     39541 WT14     1233     MECN     H11      HGA3     0.090000        1.0080           0
     39542 WT14     1233     MECN     H12      HGA3     0.090000        1.0080           0
     39543 WT14     1233     MECN     H13      HGA3     0.090000        1.0080           0
     39544 WT14     1233     MECN     C2       CG1N1    0.360000       12.0110           0
     39545 WT14     1233     MECN     N3       NG1T1   -0.460000       14.0070           0
     39546 WT14     1235     MECN     C1       CG331   -0.170000       12.0110           0
     39547 WT14     1235     MECN     H11      HGA3     0.090000        1.0080           0
     39548 WT14     1235     MECN     H12      HGA3     0.090000        1.0080           0
     39549 WT14     1235     MECN     H13      HGA3     0.090000        1.0080           0
     39550 WT14     1235     MECN     C2       CG1N1    0.360000       12.0110           0
     39551 WT14     1235     MECN     N3       NG1T1   -0.460000       14.0070           0
     39552 WT14     1236     MECN     C1       CG331   -0.170000       12.0110           0
     39553 WT14     1236     MECN     H11      HGA3     0.090000        1.0080           0
     39554 WT14     1236     MECN     H12      HGA3     0.090000        1.0080           0
     39555 WT14     1236     MECN     H13      HGA3     0.090000        1.0080           0
     39556 WT14     1236     MECN     C2       CG1N1    0.360000       12.0110           0
     39557 WT14     1236     MECN     N3       NG1T1   -0.460000       14.0070           0
     39558 WT14     1237     MECN     C1       CG331   -0.170000       12.0110           0
     39559 WT14     1237     MECN     H11      HGA3     0.090000        1.0080           0
     39560 WT14     1237     MECN     H12      HGA3     0.090000        1.0080           0
     39561 WT14     1237     MECN     H13      HGA3     0.090000        1.0080           0
     39562 WT14     1237     MECN     C2       CG1N1    0.360000       12.0110           0
     39563 WT14     1237     MECN     N3       NG1T1   -0.460000       14.0070           0
     39564 WT14     1238     MECN     C1       CG331   -0.170000       12.0110           0
     39565 WT14     1238     MECN     H11      HGA3     0.090000        1.0080           0
     39566 WT14     1238     MECN     H12      HGA3     0.090000        1.0080           0
     39567 WT14     1238     MECN     H13      HGA3     0.090000        1.0080           0
     39568 WT14     1238     MECN     C2       CG1N1    0.360000       12.0110           0
     39569 WT14     1238     MECN     N3       NG1T1   -0.460000       14.0070           0
     39570 WT14     1239     MECN     C1       CG331   -0.170000       12.0110           0
     39571 WT14     1239     MECN     H11      HGA3     0.090000        1.0080           0
     39572 WT14     1239     MECN     H12      HGA3     0.090000        1.0080           0
     39573 WT14     1239     MECN     H13      HGA3     0.090000        1.0080           0
     39574 WT14     1239     MECN     C2       CG1N1    0.360000       12.0110           0
     39575 WT14     1239     MECN     N3       NG1T1   -0.460000       14.0070           0
     39576 WT14     1240     MECN     C1       CG331   -0.170000       12.0110           0
     39577 WT14     1240     MECN     H11      HGA3     0.090000        1.0080           0
     39578 WT14     1240     MECN     H12      HGA3     0.090000        1.0080           0
     39579 WT14     1240     MECN     H13      HGA3     0.090000        1.0080           0
     39580 WT14     1240     MECN     C2       CG1N1    0.360000       12.0110           0
     39581 WT14     1240     MECN     N3       NG1T1   -0.460000       14.0070           0
     39582 WT14     1241     MECN     C1       CG331   -0.170000       12.0110           0
     39583 WT14     1241     MECN     H11      HGA3     0.090000        1.0080           0
     39584 WT14     1241     MECN     H12      HGA3     0.090000        1.0080           0
     39585 WT14     1241     MECN     H13      HGA3     0.090000        1.0080           0
     39586 WT14     1241     MECN     C2       CG1N1    0.360000       12.0110           0
     39587 WT14     1241     MECN     N3       NG1T1   -0.460000       14.0070           0
     39588 WT14     1243     MECN     C1       CG331   -0.170000       12.0110           0
     39589 WT14     1243     MECN     H11      HGA3     0.090000        1.0080           0
     39590 WT14     1243     MECN     H12      HGA3     0.090000        1.0080           0
     39591 WT14     1243     MECN     H13      HGA3     0.090000        1.0080           0
     39592 WT14     1243     MECN     C2       CG1N1    0.360000       12.0110           0
     39593 WT14     1243     MECN     N3       NG1T1   -0.460000       14.0070           0
     39594 WT14     1244     MECN     C1       CG331   -0.170000       12.0110           0
     39595 WT14     1244     MECN     H11      HGA3     0.090000        1.0080           0
     39596 WT14     1244     MECN     H12      HGA3     0.090000        1.0080           0
     39597 WT14     1244     MECN     H13      HGA3     0.090000        1.0080           0
     39598 WT14     1244     MECN     C2       CG1N1    0.360000       12.0110           0
     39599 WT14     1244     MECN     N3       NG1T1   -0.460000       14.0070           0
     39600 WT14     1245     MECN     C1       CG331   -0.170000       12.0110           0
     39601 WT14     1245     MECN     H11      HGA3     0.090000        1.0080           0
     39602 WT14     1245     MECN     H12      HGA3     0.090000        1.0080           0
     39603 WT14     1245     MECN     H13      HGA3     0.090000        1.0080           0
     39604 WT14     1245     MECN     C2       CG1N1    0.360000       12.0110           0
     39605 WT14     1245     MECN     N3       NG1T1   -0.460000       14.0070           0
     39606 WT14     1246     MECN     C1       CG331   -0.170000       12.0110           0
     39607 WT14     1246     MECN     H11      HGA3     0.090000        1.0080           0
     39608 WT14     1246     MECN     H12      HGA3     0.090000        1.0080           0
     39609 WT14     1246     MECN     H13      HGA3     0.090000        1.0080           0
     39610 WT14     1246     MECN     C2       CG1N1    0.360000       12.0110           0
     39611 WT14     1246     MECN     N3       NG1T1   -0.460000       14.0070           0
     39612 WT14     1247     MECN     C1       CG331   -0.170000       12.0110           0
     39613 WT14     1247     MECN     H11      HGA3     0.090000        1.0080           0
     39614 WT14     1247     MECN     H12      HGA3     0.090000        1.0080           0
     39615 WT14     1247     MECN     H13      HGA3     0.090000        1.0080           0
     39616 WT14     1247     MECN     C2       CG1N1    0.360000       12.0110           0
     39617 WT14     1247     MECN     N3       NG1T1   -0.460000       14.0070           0
     39618 WT14     1248     MECN     C1       CG331   -0.170000       12.0110           0
     39619 WT14     1248     MECN     H11      HGA3     0.090000        1.0080           0
     39620 WT14     1248     MECN     H12      HGA3     0.090000        1.0080           0
     39621 WT14     1248     MECN     H13      HGA3     0.090000        1.0080           0
     39622 WT14     1248     MECN     C2       CG1N1    0.360000       12.0110           0
     39623 WT14     1248     MECN     N3       NG1T1   -0.460000       14.0070           0
     39624 WT14     1249     MECN     C1       CG331   -0.170000       12.0110           0
     39625 WT14     1249     MECN     H11      HGA3     0.090000        1.0080           0
     39626 WT14     1249     MECN     H12      HGA3     0.090000        1.0080           0
     39627 WT14     1249     MECN     H13      HGA3     0.090000        1.0080           0
     39628 WT14     1249     MECN     C2       CG1N1    0.360000       12.0110           0
     39629 WT14     1249     MECN     N3       NG1T1   -0.460000       14.0070           0
     39630 WT14     1250     MECN     C1       CG331   -0.170000       12.0110           0
     39631 WT14     1250     MECN     H11      HGA3     0.090000        1.0080           0
     39632 WT14     1250     MECN     H12      HGA3     0.090000        1.0080           0
     39633 WT14     1250     MECN     H13      HGA3     0.090000        1.0080           0
     39634 WT14     1250     MECN     C2       CG1N1    0.360000       12.0110           0
     39635 WT14     1250     MECN     N3       NG1T1   -0.460000       14.0070           0
     39636 WT14     1251     MECN     C1       CG331   -0.170000       12.0110           0
     39637 WT14     1251     MECN     H11      HGA3     0.090000        1.0080           0
     39638 WT14     1251     MECN     H12      HGA3     0.090000        1.0080           0
     39639 WT14     1251     MECN     H13      HGA3     0.090000        1.0080           0
     39640 WT14     1251     MECN     C2       CG1N1    0.360000       12.0110           0
     39641 WT14     1251     MECN     N3       NG1T1   -0.460000       14.0070           0
     39642 WT14     1252     MECN     C1       CG331   -0.170000       12.0110           0
     39643 WT14     1252     MECN     H11      HGA3     0.090000        1.0080           0
     39644 WT14     1252     MECN     H12      HGA3     0.090000        1.0080           0
     39645 WT14     1252     MECN     H13      HGA3     0.090000        1.0080           0
     39646 WT14     1252     MECN     C2       CG1N1    0.360000       12.0110           0
     39647 WT14     1252     MECN     N3       NG1T1   -0.460000       14.0070           0
     39648 WT14     1253     MECN     C1       CG331   -0.170000       12.0110           0
     39649 WT14     1253     MECN     H11      HGA3     0.090000        1.0080           0
     39650 WT14     1253     MECN     H12      HGA3     0.090000        1.0080           0
     39651 WT14     1253     MECN     H13      HGA3     0.090000        1.0080           0
     39652 WT14     1253     MECN     C2       CG1N1    0.360000       12.0110           0
     39653 WT14     1253     MECN     N3       NG1T1   -0.460000       14.0070           0
     39654 WT14     1254     MECN     C1       CG331   -0.170000       12.0110           0
     39655 WT14     1254     MECN     H11      HGA3     0.090000        1.0080           0
     39656 WT14     1254     MECN     H12      HGA3     0.090000        1.0080           0
     39657 WT14     1254     MECN     H13      HGA3     0.090000        1.0080           0
     39658 WT14     1254     MECN     C2       CG1N1    0.360000       12.0110           0
     39659 WT14     1254     MECN     N3       NG1T1   -0.460000       14.0070           0
     39660 WT14     1255     MECN     C1       CG331   -0.170000       12.0110           0
     39661 WT14     1255     MECN     H11      HGA3     0.090000        1.0080           0
     39662 WT14     1255     MECN     H12      HGA3     0.090000        1.0080           0
     39663 WT14     1255     MECN     H13      HGA3     0.090000        1.0080           0
     39664 WT14     1255     MECN     C2       CG1N1    0.360000       12.0110           0
     39665 WT14     1255     MECN     N3       NG1T1   -0.460000       14.0070           0
     39666 WT14     1256     MECN     C1       CG331   -0.170000       12.0110           0
     39667 WT14     1256     MECN     H11      HGA3     0.090000        1.0080           0
     39668 WT14     1256     MECN     H12      HGA3     0.090000        1.0080           0
     39669 WT14     1256     MECN     H13      HGA3     0.090000        1.0080           0
     39670 WT14     1256     MECN     C2       CG1N1    0.360000       12.0110           0
     39671 WT14     1256     MECN     N3       NG1T1   -0.460000       14.0070           0
     39672 WT14     1257     MECN     C1       CG331   -0.170000       12.0110           0
     39673 WT14     1257     MECN     H11      HGA3     0.090000        1.0080           0
     39674 WT14     1257     MECN     H12      HGA3     0.090000        1.0080           0
     39675 WT14     1257     MECN     H13      HGA3     0.090000        1.0080           0
     39676 WT14     1257     MECN     C2       CG1N1    0.360000       12.0110           0
     39677 WT14     1257     MECN     N3       NG1T1   -0.460000       14.0070           0
     39678 WT14     1258     MECN     C1       CG331   -0.170000       12.0110           0
     39679 WT14     1258     MECN     H11      HGA3     0.090000        1.0080           0
     39680 WT14     1258     MECN     H12      HGA3     0.090000        1.0080           0
     39681 WT14     1258     MECN     H13      HGA3     0.090000        1.0080           0
     39682 WT14     1258     MECN     C2       CG1N1    0.360000       12.0110           0
     39683 WT14     1258     MECN     N3       NG1T1   -0.460000       14.0070           0
     39684 WT14     1259     MECN     C1       CG331   -0.170000       12.0110           0
     39685 WT14     1259     MECN     H11      HGA3     0.090000        1.0080           0
     39686 WT14     1259     MECN     H12      HGA3     0.090000        1.0080           0
     39687 WT14     1259     MECN     H13      HGA3     0.090000        1.0080           0
     39688 WT14     1259     MECN     C2       CG1N1    0.360000       12.0110           0
     39689 WT14     1259     MECN     N3       NG1T1   -0.460000       14.0070           0
     39690 WT14     1260     MECN     C1       CG331   -0.170000       12.0110           0
     39691 WT14     1260     MECN     H11      HGA3     0.090000        1.0080           0
     39692 WT14     1260     MECN     H12      HGA3     0.090000        1.0080           0
     39693 WT14     1260     MECN     H13      HGA3     0.090000        1.0080           0
     39694 WT14     1260     MECN     C2       CG1N1    0.360000       12.0110           0
     39695 WT14     1260     MECN     N3       NG1T1   -0.460000       14.0070           0
     39696 WT14     1261     MECN     C1       CG331   -0.170000       12.0110           0
     39697 WT14     1261     MECN     H11      HGA3     0.090000        1.0080           0
     39698 WT14     1261     MECN     H12      HGA3     0.090000        1.0080           0
     39699 WT14     1261     MECN     H13      HGA3     0.090000        1.0080           0
     39700 WT14     1261     MECN     C2       CG1N1    0.360000       12.0110           0
     39701 WT14     1261     MECN     N3       NG1T1   -0.460000       14.0070           0
     39702 WT14     1262     MECN     C1       CG331   -0.170000       12.0110           0
     39703 WT14     1262     MECN     H11      HGA3     0.090000        1.0080           0
     39704 WT14     1262     MECN     H12      HGA3     0.090000        1.0080           0
     39705 WT14     1262     MECN     H13      HGA3     0.090000        1.0080           0
     39706 WT14     1262     MECN     C2       CG1N1    0.360000       12.0110           0
     39707 WT14     1262     MECN     N3       NG1T1   -0.460000       14.0070           0
     39708 WT14     1263     MECN     C1       CG331   -0.170000       12.0110           0
     39709 WT14     1263     MECN     H11      HGA3     0.090000        1.0080           0
     39710 WT14     1263     MECN     H12      HGA3     0.090000        1.0080           0
     39711 WT14     1263     MECN     H13      HGA3     0.090000        1.0080           0
     39712 WT14     1263     MECN     C2       CG1N1    0.360000       12.0110           0
     39713 WT14     1263     MECN     N3       NG1T1   -0.460000       14.0070           0
     39714 WT14     1266     MECN     C1       CG331   -0.170000       12.0110           0
     39715 WT14     1266     MECN     H11      HGA3     0.090000        1.0080           0
     39716 WT14     1266     MECN     H12      HGA3     0.090000        1.0080           0
     39717 WT14     1266     MECN     H13      HGA3     0.090000        1.0080           0
     39718 WT14     1266     MECN     C2       CG1N1    0.360000       12.0110           0
     39719 WT14     1266     MECN     N3       NG1T1   -0.460000       14.0070           0
     39720 WT14     1267     MECN     C1       CG331   -0.170000       12.0110           0
     39721 WT14     1267     MECN     H11      HGA3     0.090000        1.0080           0
     39722 WT14     1267     MECN     H12      HGA3     0.090000        1.0080           0
     39723 WT14     1267     MECN     H13      HGA3     0.090000        1.0080           0
     39724 WT14     1267     MECN     C2       CG1N1    0.360000       12.0110           0
     39725 WT14     1267     MECN     N3       NG1T1   -0.460000       14.0070           0
     39726 WT14     1268     MECN     C1       CG331   -0.170000       12.0110           0
     39727 WT14     1268     MECN     H11      HGA3     0.090000        1.0080           0
     39728 WT14     1268     MECN     H12      HGA3     0.090000        1.0080           0
     39729 WT14     1268     MECN     H13      HGA3     0.090000        1.0080           0
     39730 WT14     1268     MECN     C2       CG1N1    0.360000       12.0110           0
     39731 WT14     1268     MECN     N3       NG1T1   -0.460000       14.0070           0
     39732 WT14     1270     MECN     C1       CG331   -0.170000       12.0110           0
     39733 WT14     1270     MECN     H11      HGA3     0.090000        1.0080           0
     39734 WT14     1270     MECN     H12      HGA3     0.090000        1.0080           0
     39735 WT14     1270     MECN     H13      HGA3     0.090000        1.0080           0
     39736 WT14     1270     MECN     C2       CG1N1    0.360000       12.0110           0
     39737 WT14     1270     MECN     N3       NG1T1   -0.460000       14.0070           0
     39738 WT14     1271     MECN     C1       CG331   -0.170000       12.0110           0
     39739 WT14     1271     MECN     H11      HGA3     0.090000        1.0080           0
     39740 WT14     1271     MECN     H12      HGA3     0.090000        1.0080           0
     39741 WT14     1271     MECN     H13      HGA3     0.090000        1.0080           0
     39742 WT14     1271     MECN     C2       CG1N1    0.360000       12.0110           0
     39743 WT14     1271     MECN     N3       NG1T1   -0.460000       14.0070           0
     39744 WT14     1272     MECN     C1       CG331   -0.170000       12.0110           0
     39745 WT14     1272     MECN     H11      HGA3     0.090000        1.0080           0
     39746 WT14     1272     MECN     H12      HGA3     0.090000        1.0080           0
     39747 WT14     1272     MECN     H13      HGA3     0.090000        1.0080           0
     39748 WT14     1272     MECN     C2       CG1N1    0.360000       12.0110           0
     39749 WT14     1272     MECN     N3       NG1T1   -0.460000       14.0070           0
     39750 WT14     1273     MECN     C1       CG331   -0.170000       12.0110           0
     39751 WT14     1273     MECN     H11      HGA3     0.090000        1.0080           0
     39752 WT14     1273     MECN     H12      HGA3     0.090000        1.0080           0
     39753 WT14     1273     MECN     H13      HGA3     0.090000        1.0080           0
     39754 WT14     1273     MECN     C2       CG1N1    0.360000       12.0110           0
     39755 WT14     1273     MECN     N3       NG1T1   -0.460000       14.0070           0
     39756 WT14     1274     MECN     C1       CG331   -0.170000       12.0110           0
     39757 WT14     1274     MECN     H11      HGA3     0.090000        1.0080           0
     39758 WT14     1274     MECN     H12      HGA3     0.090000        1.0080           0
     39759 WT14     1274     MECN     H13      HGA3     0.090000        1.0080           0
     39760 WT14     1274     MECN     C2       CG1N1    0.360000       12.0110           0
     39761 WT14     1274     MECN     N3       NG1T1   -0.460000       14.0070           0
     39762 WT14     1275     MECN     C1       CG331   -0.170000       12.0110           0
     39763 WT14     1275     MECN     H11      HGA3     0.090000        1.0080           0
     39764 WT14     1275     MECN     H12      HGA3     0.090000        1.0080           0
     39765 WT14     1275     MECN     H13      HGA3     0.090000        1.0080           0
     39766 WT14     1275     MECN     C2       CG1N1    0.360000       12.0110           0
     39767 WT14     1275     MECN     N3       NG1T1   -0.460000       14.0070           0
     39768 WT14     1277     MECN     C1       CG331   -0.170000       12.0110           0
     39769 WT14     1277     MECN     H11      HGA3     0.090000        1.0080           0
     39770 WT14     1277     MECN     H12      HGA3     0.090000        1.0080           0
     39771 WT14     1277     MECN     H13      HGA3     0.090000        1.0080           0
     39772 WT14     1277     MECN     C2       CG1N1    0.360000       12.0110           0
     39773 WT14     1277     MECN     N3       NG1T1   -0.460000       14.0070           0
     39774 WT14     1278     MECN     C1       CG331   -0.170000       12.0110           0
     39775 WT14     1278     MECN     H11      HGA3     0.090000        1.0080           0
     39776 WT14     1278     MECN     H12      HGA3     0.090000        1.0080           0
     39777 WT14     1278     MECN     H13      HGA3     0.090000        1.0080           0
     39778 WT14     1278     MECN     C2       CG1N1    0.360000       12.0110           0
     39779 WT14     1278     MECN     N3       NG1T1   -0.460000       14.0070           0
     39780 WT14     1279     MECN     C1       CG331   -0.170000       12.0110           0
     39781 WT14     1279     MECN     H11      HGA3     0.090000        1.0080           0
     39782 WT14     1279     MECN     H12      HGA3     0.090000        1.0080           0
     39783 WT14     1279     MECN     H13      HGA3     0.090000        1.0080           0
     39784 WT14     1279     MECN     C2       CG1N1    0.360000       12.0110           0
     39785 WT14     1279     MECN     N3       NG1T1   -0.460000       14.0070           0
     39786 WT14     1280     MECN     C1       CG331   -0.170000       12.0110           0
     39787 WT14     1280     MECN     H11      HGA3     0.090000        1.0080           0
     39788 WT14     1280     MECN     H12      HGA3     0.090000        1.0080           0
     39789 WT14     1280     MECN     H13      HGA3     0.090000        1.0080           0
     39790 WT14     1280     MECN     C2       CG1N1    0.360000       12.0110           0
     39791 WT14     1280     MECN     N3       NG1T1   -0.460000       14.0070           0
     39792 WT14     1281     MECN     C1       CG331   -0.170000       12.0110           0
     39793 WT14     1281     MECN     H11      HGA3     0.090000        1.0080           0
     39794 WT14     1281     MECN     H12      HGA3     0.090000        1.0080           0
     39795 WT14     1281     MECN     H13      HGA3     0.090000        1.0080           0
     39796 WT14     1281     MECN     C2       CG1N1    0.360000       12.0110           0
     39797 WT14     1281     MECN     N3       NG1T1   -0.460000       14.0070           0
     39798 WT14     1282     MECN     C1       CG331   -0.170000       12.0110           0
     39799 WT14     1282     MECN     H11      HGA3     0.090000        1.0080           0
     39800 WT14     1282     MECN     H12      HGA3     0.090000        1.0080           0
     39801 WT14     1282     MECN     H13      HGA3     0.090000        1.0080           0
     39802 WT14     1282     MECN     C2       CG1N1    0.360000       12.0110           0
     39803 WT14     1282     MECN     N3       NG1T1   -0.460000       14.0070           0
     39804 WT14     1283     MECN     C1       CG331   -0.170000       12.0110           0
     39805 WT14     1283     MECN     H11      HGA3     0.090000        1.0080           0
     39806 WT14     1283     MECN     H12      HGA3     0.090000        1.0080           0
     39807 WT14     1283     MECN     H13      HGA3     0.090000        1.0080           0
     39808 WT14     1283     MECN     C2       CG1N1    0.360000       12.0110           0
     39809 WT14     1283     MECN     N3       NG1T1   -0.460000       14.0070           0
     39810 WT14     1284     MECN     C1       CG331   -0.170000       12.0110           0
     39811 WT14     1284     MECN     H11      HGA3     0.090000        1.0080           0
     39812 WT14     1284     MECN     H12      HGA3     0.090000        1.0080           0
     39813 WT14     1284     MECN     H13      HGA3     0.090000        1.0080           0
     39814 WT14     1284     MECN     C2       CG1N1    0.360000       12.0110           0
     39815 WT14     1284     MECN     N3       NG1T1   -0.460000       14.0070           0
     39816 WT14     1285     MECN     C1       CG331   -0.170000       12.0110           0
     39817 WT14     1285     MECN     H11      HGA3     0.090000        1.0080           0
     39818 WT14     1285     MECN     H12      HGA3     0.090000        1.0080           0
     39819 WT14     1285     MECN     H13      HGA3     0.090000        1.0080           0
     39820 WT14     1285     MECN     C2       CG1N1    0.360000       12.0110           0
     39821 WT14     1285     MECN     N3       NG1T1   -0.460000       14.0070           0
     39822 WT14     1286     MECN     C1       CG331   -0.170000       12.0110           0
     39823 WT14     1286     MECN     H11      HGA3     0.090000        1.0080           0
     39824 WT14     1286     MECN     H12      HGA3     0.090000        1.0080           0
     39825 WT14     1286     MECN     H13      HGA3     0.090000        1.0080           0
     39826 WT14     1286     MECN     C2       CG1N1    0.360000       12.0110           0
     39827 WT14     1286     MECN     N3       NG1T1   -0.460000       14.0070           0
     39828 WT14     1287     MECN     C1       CG331   -0.170000       12.0110           0
     39829 WT14     1287     MECN     H11      HGA3     0.090000        1.0080           0
     39830 WT14     1287     MECN     H12      HGA3     0.090000        1.0080           0
     39831 WT14     1287     MECN     H13      HGA3     0.090000        1.0080           0
     39832 WT14     1287     MECN     C2       CG1N1    0.360000       12.0110           0
     39833 WT14     1287     MECN     N3       NG1T1   -0.460000       14.0070           0
     39834 WT14     1289     MECN     C1       CG331   -0.170000       12.0110           0
     39835 WT14     1289     MECN     H11      HGA3     0.090000        1.0080           0
     39836 WT14     1289     MECN     H12      HGA3     0.090000        1.0080           0
     39837 WT14     1289     MECN     H13      HGA3     0.090000        1.0080           0
     39838 WT14     1289     MECN     C2       CG1N1    0.360000       12.0110           0
     39839 WT14     1289     MECN     N3       NG1T1   -0.460000       14.0070           0
     39840 WT14     1290     MECN     C1       CG331   -0.170000       12.0110           0
     39841 WT14     1290     MECN     H11      HGA3     0.090000        1.0080           0
     39842 WT14     1290     MECN     H12      HGA3     0.090000        1.0080           0
     39843 WT14     1290     MECN     H13      HGA3     0.090000        1.0080           0
     39844 WT14     1290     MECN     C2       CG1N1    0.360000       12.0110           0
     39845 WT14     1290     MECN     N3       NG1T1   -0.460000       14.0070           0
     39846 WT14     1292     MECN     C1       CG331   -0.170000       12.0110           0
     39847 WT14     1292     MECN     H11      HGA3     0.090000        1.0080           0
     39848 WT14     1292     MECN     H12      HGA3     0.090000        1.0080           0
     39849 WT14     1292     MECN     H13      HGA3     0.090000        1.0080           0
     39850 WT14     1292     MECN     C2       CG1N1    0.360000       12.0110           0
     39851 WT14     1292     MECN     N3       NG1T1   -0.460000       14.0070           0
     39852 WT14     1293     MECN     C1       CG331   -0.170000       12.0110           0
     39853 WT14     1293     MECN     H11      HGA3     0.090000        1.0080           0
     39854 WT14     1293     MECN     H12      HGA3     0.090000        1.0080           0
     39855 WT14     1293     MECN     H13      HGA3     0.090000        1.0080           0
     39856 WT14     1293     MECN     C2       CG1N1    0.360000       12.0110           0
     39857 WT14     1293     MECN     N3       NG1T1   -0.460000       14.0070           0
     39858 WT14     1294     MECN     C1       CG331   -0.170000       12.0110           0
     39859 WT14     1294     MECN     H11      HGA3     0.090000        1.0080           0
     39860 WT14     1294     MECN     H12      HGA3     0.090000        1.0080           0
     39861 WT14     1294     MECN     H13      HGA3     0.090000        1.0080           0
     39862 WT14     1294     MECN     C2       CG1N1    0.360000       12.0110           0
     39863 WT14     1294     MECN     N3       NG1T1   -0.460000       14.0070           0
     39864 WT14     1295     MECN     C1       CG331   -0.170000       12.0110           0
     39865 WT14     1295     MECN     H11      HGA3     0.090000        1.0080           0
     39866 WT14     1295     MECN     H12      HGA3     0.090000        1.0080           0
     39867 WT14     1295     MECN     H13      HGA3     0.090000        1.0080           0
     39868 WT14     1295     MECN     C2       CG1N1    0.360000       12.0110           0
     39869 WT14     1295     MECN     N3       NG1T1   -0.460000       14.0070           0
     39870 WT14     1297     MECN     C1       CG331   -0.170000       12.0110           0
     39871 WT14     1297     MECN     H11      HGA3     0.090000        1.0080           0
     39872 WT14     1297     MECN     H12      HGA3     0.090000        1.0080           0
     39873 WT14     1297     MECN     H13      HGA3     0.090000        1.0080           0
     39874 WT14     1297     MECN     C2       CG1N1    0.360000       12.0110           0
     39875 WT14     1297     MECN     N3       NG1T1   -0.460000       14.0070           0
     39876 WT14     1298     MECN     C1       CG331   -0.170000       12.0110           0
     39877 WT14     1298     MECN     H11      HGA3     0.090000        1.0080           0
     39878 WT14     1298     MECN     H12      HGA3     0.090000        1.0080           0
     39879 WT14     1298     MECN     H13      HGA3     0.090000        1.0080           0
     39880 WT14     1298     MECN     C2       CG1N1    0.360000       12.0110           0
     39881 WT14     1298     MECN     N3       NG1T1   -0.460000       14.0070           0
     39882 WT14     1299     MECN     C1       CG331   -0.170000       12.0110           0
     39883 WT14     1299     MECN     H11      HGA3     0.090000        1.0080           0
     39884 WT14     1299     MECN     H12      HGA3     0.090000        1.0080           0
     39885 WT14     1299     MECN     H13      HGA3     0.090000        1.0080           0
     39886 WT14     1299     MECN     C2       CG1N1    0.360000       12.0110           0
     39887 WT14     1299     MECN     N3       NG1T1   -0.460000       14.0070           0
     39888 WT14     1300     MECN     C1       CG331   -0.170000       12.0110           0
     39889 WT14     1300     MECN     H11      HGA3     0.090000        1.0080           0
     39890 WT14     1300     MECN     H12      HGA3     0.090000        1.0080           0
     39891 WT14     1300     MECN     H13      HGA3     0.090000        1.0080           0
     39892 WT14     1300     MECN     C2       CG1N1    0.360000       12.0110           0
     39893 WT14     1300     MECN     N3       NG1T1   -0.460000       14.0070           0
     39894 WT14     1301     MECN     C1       CG331   -0.170000       12.0110           0
     39895 WT14     1301     MECN     H11      HGA3     0.090000        1.0080           0
     39896 WT14     1301     MECN     H12      HGA3     0.090000        1.0080           0
     39897 WT14     1301     MECN     H13      HGA3     0.090000        1.0080           0
     39898 WT14     1301     MECN     C2       CG1N1    0.360000       12.0110           0
     39899 WT14     1301     MECN     N3       NG1T1   -0.460000       14.0070           0
     39900 WT14     1302     MECN     C1       CG331   -0.170000       12.0110           0
     39901 WT14     1302     MECN     H11      HGA3     0.090000        1.0080           0
     39902 WT14     1302     MECN     H12      HGA3     0.090000        1.0080           0
     39903 WT14     1302     MECN     H13      HGA3     0.090000        1.0080           0
     39904 WT14     1302     MECN     C2       CG1N1    0.360000       12.0110           0
     39905 WT14     1302     MECN     N3       NG1T1   -0.460000       14.0070           0
     39906 WT14     1303     MECN     C1       CG331   -0.170000       12.0110           0
     39907 WT14     1303     MECN     H11      HGA3     0.090000        1.0080           0
     39908 WT14     1303     MECN     H12      HGA3     0.090000        1.0080           0
     39909 WT14     1303     MECN     H13      HGA3     0.090000        1.0080           0
     39910 WT14     1303     MECN     C2       CG1N1    0.360000       12.0110           0
     39911 WT14     1303     MECN     N3       NG1T1   -0.460000       14.0070           0
     39912 WT14     1304     MECN     C1       CG331   -0.170000       12.0110           0
     39913 WT14     1304     MECN     H11      HGA3     0.090000        1.0080           0
     39914 WT14     1304     MECN     H12      HGA3     0.090000        1.0080           0
     39915 WT14     1304     MECN     H13      HGA3     0.090000        1.0080           0
     39916 WT14     1304     MECN     C2       CG1N1    0.360000       12.0110           0
     39917 WT14     1304     MECN     N3       NG1T1   -0.460000       14.0070           0
     39918 WT14     1305     MECN     C1       CG331   -0.170000       12.0110           0
     39919 WT14     1305     MECN     H11      HGA3     0.090000        1.0080           0
     39920 WT14     1305     MECN     H12      HGA3     0.090000        1.0080           0
     39921 WT14     1305     MECN     H13      HGA3     0.090000        1.0080           0
     39922 WT14     1305     MECN     C2       CG1N1    0.360000       12.0110           0
     39923 WT14     1305     MECN     N3       NG1T1   -0.460000       14.0070           0
     39924 WT14     1306     MECN     C1       CG331   -0.170000       12.0110           0
     39925 WT14     1306     MECN     H11      HGA3     0.090000        1.0080           0
     39926 WT14     1306     MECN     H12      HGA3     0.090000        1.0080           0
     39927 WT14     1306     MECN     H13      HGA3     0.090000        1.0080           0
     39928 WT14     1306     MECN     C2       CG1N1    0.360000       12.0110           0
     39929 WT14     1306     MECN     N3       NG1T1   -0.460000       14.0070           0
     39930 WT14     1307     MECN     C1       CG331   -0.170000       12.0110           0
     39931 WT14     1307     MECN     H11      HGA3     0.090000        1.0080           0
     39932 WT14     1307     MECN     H12      HGA3     0.090000        1.0080           0
     39933 WT14     1307     MECN     H13      HGA3     0.090000        1.0080           0
     39934 WT14     1307     MECN     C2       CG1N1    0.360000       12.0110           0
     39935 WT14     1307     MECN     N3       NG1T1   -0.460000       14.0070           0
     39936 WT14     1308     MECN     C1       CG331   -0.170000       12.0110           0
     39937 WT14     1308     MECN     H11      HGA3     0.090000        1.0080           0
     39938 WT14     1308     MECN     H12      HGA3     0.090000        1.0080           0
     39939 WT14     1308     MECN     H13      HGA3     0.090000        1.0080           0
     39940 WT14     1308     MECN     C2       CG1N1    0.360000       12.0110           0
     39941 WT14     1308     MECN     N3       NG1T1   -0.460000       14.0070           0
     39942 WT14     1309     MECN     C1       CG331   -0.170000       12.0110           0
     39943 WT14     1309     MECN     H11      HGA3     0.090000        1.0080           0
     39944 WT14     1309     MECN     H12      HGA3     0.090000        1.0080           0
     39945 WT14     1309     MECN     H13      HGA3     0.090000        1.0080           0
     39946 WT14     1309     MECN     C2       CG1N1    0.360000       12.0110           0
     39947 WT14     1309     MECN     N3       NG1T1   -0.460000       14.0070           0
     39948 WT14     1310     MECN     C1       CG331   -0.170000       12.0110           0
     39949 WT14     1310     MECN     H11      HGA3     0.090000        1.0080           0
     39950 WT14     1310     MECN     H12      HGA3     0.090000        1.0080           0
     39951 WT14     1310     MECN     H13      HGA3     0.090000        1.0080           0
     39952 WT14     1310     MECN     C2       CG1N1    0.360000       12.0110           0
     39953 WT14     1310     MECN     N3       NG1T1   -0.460000       14.0070           0
     39954 WT14     1311     MECN     C1       CG331   -0.170000       12.0110           0
     39955 WT14     1311     MECN     H11      HGA3     0.090000        1.0080           0
     39956 WT14     1311     MECN     H12      HGA3     0.090000        1.0080           0
     39957 WT14     1311     MECN     H13      HGA3     0.090000        1.0080           0
     39958 WT14     1311     MECN     C2       CG1N1    0.360000       12.0110           0
     39959 WT14     1311     MECN     N3       NG1T1   -0.460000       14.0070           0
     39960 WT14     1312     MECN     C1       CG331   -0.170000       12.0110           0
     39961 WT14     1312     MECN     H11      HGA3     0.090000        1.0080           0
     39962 WT14     1312     MECN     H12      HGA3     0.090000        1.0080           0
     39963 WT14     1312     MECN     H13      HGA3     0.090000        1.0080           0
     39964 WT14     1312     MECN     C2       CG1N1    0.360000       12.0110           0
     39965 WT14     1312     MECN     N3       NG1T1   -0.460000       14.0070           0
     39966 WT14     1313     MECN     C1       CG331   -0.170000       12.0110           0
     39967 WT14     1313     MECN     H11      HGA3     0.090000        1.0080           0
     39968 WT14     1313     MECN     H12      HGA3     0.090000        1.0080           0
     39969 WT14     1313     MECN     H13      HGA3     0.090000        1.0080           0
     39970 WT14     1313     MECN     C2       CG1N1    0.360000       12.0110           0
     39971 WT14     1313     MECN     N3       NG1T1   -0.460000       14.0070           0
     39972 WT14     1314     MECN     C1       CG331   -0.170000       12.0110           0
     39973 WT14     1314     MECN     H11      HGA3     0.090000        1.0080           0
     39974 WT14     1314     MECN     H12      HGA3     0.090000        1.0080           0
     39975 WT14     1314     MECN     H13      HGA3     0.090000        1.0080           0
     39976 WT14     1314     MECN     C2       CG1N1    0.360000       12.0110           0
     39977 WT14     1314     MECN     N3       NG1T1   -0.460000       14.0070           0
     39978 WT14     1315     MECN     C1       CG331   -0.170000       12.0110           0
     39979 WT14     1315     MECN     H11      HGA3     0.090000        1.0080           0
     39980 WT14     1315     MECN     H12      HGA3     0.090000        1.0080           0
     39981 WT14     1315     MECN     H13      HGA3     0.090000        1.0080           0
     39982 WT14     1315     MECN     C2       CG1N1    0.360000       12.0110           0
     39983 WT14     1315     MECN     N3       NG1T1   -0.460000       14.0070           0
     39984 WT14     1316     MECN     C1       CG331   -0.170000       12.0110           0
     39985 WT14     1316     MECN     H11      HGA3     0.090000        1.0080           0
     39986 WT14     1316     MECN     H12      HGA3     0.090000        1.0080           0
     39987 WT14     1316     MECN     H13      HGA3     0.090000        1.0080           0
     39988 WT14     1316     MECN     C2       CG1N1    0.360000       12.0110           0
     39989 WT14     1316     MECN     N3       NG1T1   -0.460000       14.0070           0
     39990 WT14     1317     MECN     C1       CG331   -0.170000       12.0110           0
     39991 WT14     1317     MECN     H11      HGA3     0.090000        1.0080           0
     39992 WT14     1317     MECN     H12      HGA3     0.090000        1.0080           0
     39993 WT14     1317     MECN     H13      HGA3     0.090000        1.0080           0
     39994 WT14     1317     MECN     C2       CG1N1    0.360000       12.0110           0
     39995 WT14     1317     MECN     N3       NG1T1   -0.460000       14.0070           0
     39996 WT14     1318     MECN     C1       CG331   -0.170000       12.0110           0
     39997 WT14     1318     MECN     H11      HGA3     0.090000        1.0080           0
     39998 WT14     1318     MECN     H12      HGA3     0.090000        1.0080           0
     39999 WT14     1318     MECN     H13      HGA3     0.090000        1.0080           0
     40000 WT14     1318     MECN     C2       CG1N1    0.360000       12.0110           0
     40001 WT14     1318     MECN     N3       NG1T1   -0.460000       14.0070           0
     40002 WT14     1319     MECN     C1       CG331   -0.170000       12.0110           0
     40003 WT14     1319     MECN     H11      HGA3     0.090000        1.0080           0
     40004 WT14     1319     MECN     H12      HGA3     0.090000        1.0080           0
     40005 WT14     1319     MECN     H13      HGA3     0.090000        1.0080           0
     40006 WT14     1319     MECN     C2       CG1N1    0.360000       12.0110           0
     40007 WT14     1319     MECN     N3       NG1T1   -0.460000       14.0070           0
     40008 WT14     1320     MECN     C1       CG331   -0.170000       12.0110           0
     40009 WT14     1320     MECN     H11      HGA3     0.090000        1.0080           0
     40010 WT14     1320     MECN     H12      HGA3     0.090000        1.0080           0
     40011 WT14     1320     MECN     H13      HGA3     0.090000        1.0080           0
     40012 WT14     1320     MECN     C2       CG1N1    0.360000       12.0110           0
     40013 WT14     1320     MECN     N3       NG1T1   -0.460000       14.0070           0
     40014 WT14     1323     MECN     C1       CG331   -0.170000       12.0110           0
     40015 WT14     1323     MECN     H11      HGA3     0.090000        1.0080           0
     40016 WT14     1323     MECN     H12      HGA3     0.090000        1.0080           0
     40017 WT14     1323     MECN     H13      HGA3     0.090000        1.0080           0
     40018 WT14     1323     MECN     C2       CG1N1    0.360000       12.0110           0
     40019 WT14     1323     MECN     N3       NG1T1   -0.460000       14.0070           0
     40020 WT14     1324     MECN     C1       CG331   -0.170000       12.0110           0
     40021 WT14     1324     MECN     H11      HGA3     0.090000        1.0080           0
     40022 WT14     1324     MECN     H12      HGA3     0.090000        1.0080           0
     40023 WT14     1324     MECN     H13      HGA3     0.090000        1.0080           0
     40024 WT14     1324     MECN     C2       CG1N1    0.360000       12.0110           0
     40025 WT14     1324     MECN     N3       NG1T1   -0.460000       14.0070           0
     40026 WT14     1325     MECN     C1       CG331   -0.170000       12.0110           0
     40027 WT14     1325     MECN     H11      HGA3     0.090000        1.0080           0
     40028 WT14     1325     MECN     H12      HGA3     0.090000        1.0080           0
     40029 WT14     1325     MECN     H13      HGA3     0.090000        1.0080           0
     40030 WT14     1325     MECN     C2       CG1N1    0.360000       12.0110           0
     40031 WT14     1325     MECN     N3       NG1T1   -0.460000       14.0070           0
     40032 WT14     1326     MECN     C1       CG331   -0.170000       12.0110           0
     40033 WT14     1326     MECN     H11      HGA3     0.090000        1.0080           0
     40034 WT14     1326     MECN     H12      HGA3     0.090000        1.0080           0
     40035 WT14     1326     MECN     H13      HGA3     0.090000        1.0080           0
     40036 WT14     1326     MECN     C2       CG1N1    0.360000       12.0110           0
     40037 WT14     1326     MECN     N3       NG1T1   -0.460000       14.0070           0
     40038 WT14     1329     MECN     C1       CG331   -0.170000       12.0110           0
     40039 WT14     1329     MECN     H11      HGA3     0.090000        1.0080           0
     40040 WT14     1329     MECN     H12      HGA3     0.090000        1.0080           0
     40041 WT14     1329     MECN     H13      HGA3     0.090000        1.0080           0
     40042 WT14     1329     MECN     C2       CG1N1    0.360000       12.0110           0
     40043 WT14     1329     MECN     N3       NG1T1   -0.460000       14.0070           0
     40044 WT14     1330     MECN     C1       CG331   -0.170000       12.0110           0
     40045 WT14     1330     MECN     H11      HGA3     0.090000        1.0080           0
     40046 WT14     1330     MECN     H12      HGA3     0.090000        1.0080           0
     40047 WT14     1330     MECN     H13      HGA3     0.090000        1.0080           0
     40048 WT14     1330     MECN     C2       CG1N1    0.360000       12.0110           0
     40049 WT14     1330     MECN     N3       NG1T1   -0.460000       14.0070           0
     40050 WT14     1331     MECN     C1       CG331   -0.170000       12.0110           0
     40051 WT14     1331     MECN     H11      HGA3     0.090000        1.0080           0
     40052 WT14     1331     MECN     H12      HGA3     0.090000        1.0080           0
     40053 WT14     1331     MECN     H13      HGA3     0.090000        1.0080           0
     40054 WT14     1331     MECN     C2       CG1N1    0.360000       12.0110           0
     40055 WT14     1331     MECN     N3       NG1T1   -0.460000       14.0070           0
     40056 WT15     2        MECN     C1       CG331   -0.170000       12.0110           0
     40057 WT15     2        MECN     H11      HGA3     0.090000        1.0080           0
     40058 WT15     2        MECN     H12      HGA3     0.090000        1.0080           0
     40059 WT15     2        MECN     H13      HGA3     0.090000        1.0080           0
     40060 WT15     2        MECN     C2       CG1N1    0.360000       12.0110           0
     40061 WT15     2        MECN     N3       NG1T1   -0.460000       14.0070           0
     40062 WT15     3        MECN     C1       CG331   -0.170000       12.0110           0
     40063 WT15     3        MECN     H11      HGA3     0.090000        1.0080           0
     40064 WT15     3        MECN     H12      HGA3     0.090000        1.0080           0
     40065 WT15     3        MECN     H13      HGA3     0.090000        1.0080           0
     40066 WT15     3        MECN     C2       CG1N1    0.360000       12.0110           0
     40067 WT15     3        MECN     N3       NG1T1   -0.460000       14.0070           0
     40068 WT15     5        MECN     C1       CG331   -0.170000       12.0110           0
     40069 WT15     5        MECN     H11      HGA3     0.090000        1.0080           0
     40070 WT15     5        MECN     H12      HGA3     0.090000        1.0080           0
     40071 WT15     5        MECN     H13      HGA3     0.090000        1.0080           0
     40072 WT15     5        MECN     C2       CG1N1    0.360000       12.0110           0
     40073 WT15     5        MECN     N3       NG1T1   -0.460000       14.0070           0
     40074 WT15     6        MECN     C1       CG331   -0.170000       12.0110           0
     40075 WT15     6        MECN     H11      HGA3     0.090000        1.0080           0
     40076 WT15     6        MECN     H12      HGA3     0.090000        1.0080           0
     40077 WT15     6        MECN     H13      HGA3     0.090000        1.0080           0
     40078 WT15     6        MECN     C2       CG1N1    0.360000       12.0110           0
     40079 WT15     6        MECN     N3       NG1T1   -0.460000       14.0070           0
     40080 WT15     8        MECN     C1       CG331   -0.170000       12.0110           0
     40081 WT15     8        MECN     H11      HGA3     0.090000        1.0080           0
     40082 WT15     8        MECN     H12      HGA3     0.090000        1.0080           0
     40083 WT15     8        MECN     H13      HGA3     0.090000        1.0080           0
     40084 WT15     8        MECN     C2       CG1N1    0.360000       12.0110           0
     40085 WT15     8        MECN     N3       NG1T1   -0.460000       14.0070           0
     40086 WT15     10       MECN     C1       CG331   -0.170000       12.0110           0
     40087 WT15     10       MECN     H11      HGA3     0.090000        1.0080           0
     40088 WT15     10       MECN     H12      HGA3     0.090000        1.0080           0
     40089 WT15     10       MECN     H13      HGA3     0.090000        1.0080           0
     40090 WT15     10       MECN     C2       CG1N1    0.360000       12.0110           0
     40091 WT15     10       MECN     N3       NG1T1   -0.460000       14.0070           0
     40092 WT15     11       MECN     C1       CG331   -0.170000       12.0110           0
     40093 WT15     11       MECN     H11      HGA3     0.090000        1.0080           0
     40094 WT15     11       MECN     H12      HGA3     0.090000        1.0080           0
     40095 WT15     11       MECN     H13      HGA3     0.090000        1.0080           0
     40096 WT15     11       MECN     C2       CG1N1    0.360000       12.0110           0
     40097 WT15     11       MECN     N3       NG1T1   -0.460000       14.0070           0
     40098 WT15     12       MECN     C1       CG331   -0.170000       12.0110           0
     40099 WT15     12       MECN     H11      HGA3     0.090000        1.0080           0
     40100 WT15     12       MECN     H12      HGA3     0.090000        1.0080           0
     40101 WT15     12       MECN     H13      HGA3     0.090000        1.0080           0
     40102 WT15     12       MECN     C2       CG1N1    0.360000       12.0110           0
     40103 WT15     12       MECN     N3       NG1T1   -0.460000       14.0070           0
     40104 WT15     13       MECN     C1       CG331   -0.170000       12.0110           0
     40105 WT15     13       MECN     H11      HGA3     0.090000        1.0080           0
     40106 WT15     13       MECN     H12      HGA3     0.090000        1.0080           0
     40107 WT15     13       MECN     H13      HGA3     0.090000        1.0080           0
     40108 WT15     13       MECN     C2       CG1N1    0.360000       12.0110           0
     40109 WT15     13       MECN     N3       NG1T1   -0.460000       14.0070           0
     40110 WT15     14       MECN     C1       CG331   -0.170000       12.0110           0
     40111 WT15     14       MECN     H11      HGA3     0.090000        1.0080           0
     40112 WT15     14       MECN     H12      HGA3     0.090000        1.0080           0
     40113 WT15     14       MECN     H13      HGA3     0.090000        1.0080           0
     40114 WT15     14       MECN     C2       CG1N1    0.360000       12.0110           0
     40115 WT15     14       MECN     N3       NG1T1   -0.460000       14.0070           0
     40116 WT15     15       MECN     C1       CG331   -0.170000       12.0110           0
     40117 WT15     15       MECN     H11      HGA3     0.090000        1.0080           0
     40118 WT15     15       MECN     H12      HGA3     0.090000        1.0080           0
     40119 WT15     15       MECN     H13      HGA3     0.090000        1.0080           0
     40120 WT15     15       MECN     C2       CG1N1    0.360000       12.0110           0
     40121 WT15     15       MECN     N3       NG1T1   -0.460000       14.0070           0
     40122 WT15     17       MECN     C1       CG331   -0.170000       12.0110           0
     40123 WT15     17       MECN     H11      HGA3     0.090000        1.0080           0
     40124 WT15     17       MECN     H12      HGA3     0.090000        1.0080           0
     40125 WT15     17       MECN     H13      HGA3     0.090000        1.0080           0
     40126 WT15     17       MECN     C2       CG1N1    0.360000       12.0110           0
     40127 WT15     17       MECN     N3       NG1T1   -0.460000       14.0070           0
     40128 WT15     18       MECN     C1       CG331   -0.170000       12.0110           0
     40129 WT15     18       MECN     H11      HGA3     0.090000        1.0080           0
     40130 WT15     18       MECN     H12      HGA3     0.090000        1.0080           0
     40131 WT15     18       MECN     H13      HGA3     0.090000        1.0080           0
     40132 WT15     18       MECN     C2       CG1N1    0.360000       12.0110           0
     40133 WT15     18       MECN     N3       NG1T1   -0.460000       14.0070           0
     40134 WT15     19       MECN     C1       CG331   -0.170000       12.0110           0
     40135 WT15     19       MECN     H11      HGA3     0.090000        1.0080           0
     40136 WT15     19       MECN     H12      HGA3     0.090000        1.0080           0
     40137 WT15     19       MECN     H13      HGA3     0.090000        1.0080           0
     40138 WT15     19       MECN     C2       CG1N1    0.360000       12.0110           0
     40139 WT15     19       MECN     N3       NG1T1   -0.460000       14.0070           0
     40140 WT15     20       MECN     C1       CG331   -0.170000       12.0110           0
     40141 WT15     20       MECN     H11      HGA3     0.090000        1.0080           0
     40142 WT15     20       MECN     H12      HGA3     0.090000        1.0080           0
     40143 WT15     20       MECN     H13      HGA3     0.090000        1.0080           0
     40144 WT15     20       MECN     C2       CG1N1    0.360000       12.0110           0
     40145 WT15     20       MECN     N3       NG1T1   -0.460000       14.0070           0
     40146 WT15     21       MECN     C1       CG331   -0.170000       12.0110           0
     40147 WT15     21       MECN     H11      HGA3     0.090000        1.0080           0
     40148 WT15     21       MECN     H12      HGA3     0.090000        1.0080           0
     40149 WT15     21       MECN     H13      HGA3     0.090000        1.0080           0
     40150 WT15     21       MECN     C2       CG1N1    0.360000       12.0110           0
     40151 WT15     21       MECN     N3       NG1T1   -0.460000       14.0070           0
     40152 WT15     22       MECN     C1       CG331   -0.170000       12.0110           0
     40153 WT15     22       MECN     H11      HGA3     0.090000        1.0080           0
     40154 WT15     22       MECN     H12      HGA3     0.090000        1.0080           0
     40155 WT15     22       MECN     H13      HGA3     0.090000        1.0080           0
     40156 WT15     22       MECN     C2       CG1N1    0.360000       12.0110           0
     40157 WT15     22       MECN     N3       NG1T1   -0.460000       14.0070           0
     40158 WT15     24       MECN     C1       CG331   -0.170000       12.0110           0
     40159 WT15     24       MECN     H11      HGA3     0.090000        1.0080           0
     40160 WT15     24       MECN     H12      HGA3     0.090000        1.0080           0
     40161 WT15     24       MECN     H13      HGA3     0.090000        1.0080           0
     40162 WT15     24       MECN     C2       CG1N1    0.360000       12.0110           0
     40163 WT15     24       MECN     N3       NG1T1   -0.460000       14.0070           0
     40164 WT15     25       MECN     C1       CG331   -0.170000       12.0110           0
     40165 WT15     25       MECN     H11      HGA3     0.090000        1.0080           0
     40166 WT15     25       MECN     H12      HGA3     0.090000        1.0080           0
     40167 WT15     25       MECN     H13      HGA3     0.090000        1.0080           0
     40168 WT15     25       MECN     C2       CG1N1    0.360000       12.0110           0
     40169 WT15     25       MECN     N3       NG1T1   -0.460000       14.0070           0
     40170 WT15     26       MECN     C1       CG331   -0.170000       12.0110           0
     40171 WT15     26       MECN     H11      HGA3     0.090000        1.0080           0
     40172 WT15     26       MECN     H12      HGA3     0.090000        1.0080           0
     40173 WT15     26       MECN     H13      HGA3     0.090000        1.0080           0
     40174 WT15     26       MECN     C2       CG1N1    0.360000       12.0110           0
     40175 WT15     26       MECN     N3       NG1T1   -0.460000       14.0070           0
     40176 WT15     27       MECN     C1       CG331   -0.170000       12.0110           0
     40177 WT15     27       MECN     H11      HGA3     0.090000        1.0080           0
     40178 WT15     27       MECN     H12      HGA3     0.090000        1.0080           0
     40179 WT15     27       MECN     H13      HGA3     0.090000        1.0080           0
     40180 WT15     27       MECN     C2       CG1N1    0.360000       12.0110           0
     40181 WT15     27       MECN     N3       NG1T1   -0.460000       14.0070           0
     40182 WT15     28       MECN     C1       CG331   -0.170000       12.0110           0
     40183 WT15     28       MECN     H11      HGA3     0.090000        1.0080           0
     40184 WT15     28       MECN     H12      HGA3     0.090000        1.0080           0
     40185 WT15     28       MECN     H13      HGA3     0.090000        1.0080           0
     40186 WT15     28       MECN     C2       CG1N1    0.360000       12.0110           0
     40187 WT15     28       MECN     N3       NG1T1   -0.460000       14.0070           0
     40188 WT15     29       MECN     C1       CG331   -0.170000       12.0110           0
     40189 WT15     29       MECN     H11      HGA3     0.090000        1.0080           0
     40190 WT15     29       MECN     H12      HGA3     0.090000        1.0080           0
     40191 WT15     29       MECN     H13      HGA3     0.090000        1.0080           0
     40192 WT15     29       MECN     C2       CG1N1    0.360000       12.0110           0
     40193 WT15     29       MECN     N3       NG1T1   -0.460000       14.0070           0
     40194 WT15     30       MECN     C1       CG331   -0.170000       12.0110           0
     40195 WT15     30       MECN     H11      HGA3     0.090000        1.0080           0
     40196 WT15     30       MECN     H12      HGA3     0.090000        1.0080           0
     40197 WT15     30       MECN     H13      HGA3     0.090000        1.0080           0
     40198 WT15     30       MECN     C2       CG1N1    0.360000       12.0110           0
     40199 WT15     30       MECN     N3       NG1T1   -0.460000       14.0070           0
     40200 WT15     32       MECN     C1       CG331   -0.170000       12.0110           0
     40201 WT15     32       MECN     H11      HGA3     0.090000        1.0080           0
     40202 WT15     32       MECN     H12      HGA3     0.090000        1.0080           0
     40203 WT15     32       MECN     H13      HGA3     0.090000        1.0080           0
     40204 WT15     32       MECN     C2       CG1N1    0.360000       12.0110           0
     40205 WT15     32       MECN     N3       NG1T1   -0.460000       14.0070           0
     40206 WT15     35       MECN     C1       CG331   -0.170000       12.0110           0
     40207 WT15     35       MECN     H11      HGA3     0.090000        1.0080           0
     40208 WT15     35       MECN     H12      HGA3     0.090000        1.0080           0
     40209 WT15     35       MECN     H13      HGA3     0.090000        1.0080           0
     40210 WT15     35       MECN     C2       CG1N1    0.360000       12.0110           0
     40211 WT15     35       MECN     N3       NG1T1   -0.460000       14.0070           0
     40212 WT15     38       MECN     C1       CG331   -0.170000       12.0110           0
     40213 WT15     38       MECN     H11      HGA3     0.090000        1.0080           0
     40214 WT15     38       MECN     H12      HGA3     0.090000        1.0080           0
     40215 WT15     38       MECN     H13      HGA3     0.090000        1.0080           0
     40216 WT15     38       MECN     C2       CG1N1    0.360000       12.0110           0
     40217 WT15     38       MECN     N3       NG1T1   -0.460000       14.0070           0
     40218 WT15     39       MECN     C1       CG331   -0.170000       12.0110           0
     40219 WT15     39       MECN     H11      HGA3     0.090000        1.0080           0
     40220 WT15     39       MECN     H12      HGA3     0.090000        1.0080           0
     40221 WT15     39       MECN     H13      HGA3     0.090000        1.0080           0
     40222 WT15     39       MECN     C2       CG1N1    0.360000       12.0110           0
     40223 WT15     39       MECN     N3       NG1T1   -0.460000       14.0070           0
     40224 WT15     40       MECN     C1       CG331   -0.170000       12.0110           0
     40225 WT15     40       MECN     H11      HGA3     0.090000        1.0080           0
     40226 WT15     40       MECN     H12      HGA3     0.090000        1.0080           0
     40227 WT15     40       MECN     H13      HGA3     0.090000        1.0080           0
     40228 WT15     40       MECN     C2       CG1N1    0.360000       12.0110           0
     40229 WT15     40       MECN     N3       NG1T1   -0.460000       14.0070           0
     40230 WT15     41       MECN     C1       CG331   -0.170000       12.0110           0
     40231 WT15     41       MECN     H11      HGA3     0.090000        1.0080           0
     40232 WT15     41       MECN     H12      HGA3     0.090000        1.0080           0
     40233 WT15     41       MECN     H13      HGA3     0.090000        1.0080           0
     40234 WT15     41       MECN     C2       CG1N1    0.360000       12.0110           0
     40235 WT15     41       MECN     N3       NG1T1   -0.460000       14.0070           0
     40236 WT15     44       MECN     C1       CG331   -0.170000       12.0110           0
     40237 WT15     44       MECN     H11      HGA3     0.090000        1.0080           0
     40238 WT15     44       MECN     H12      HGA3     0.090000        1.0080           0
     40239 WT15     44       MECN     H13      HGA3     0.090000        1.0080           0
     40240 WT15     44       MECN     C2       CG1N1    0.360000       12.0110           0
     40241 WT15     44       MECN     N3       NG1T1   -0.460000       14.0070           0
     40242 WT15     45       MECN     C1       CG331   -0.170000       12.0110           0
     40243 WT15     45       MECN     H11      HGA3     0.090000        1.0080           0
     40244 WT15     45       MECN     H12      HGA3     0.090000        1.0080           0
     40245 WT15     45       MECN     H13      HGA3     0.090000        1.0080           0
     40246 WT15     45       MECN     C2       CG1N1    0.360000       12.0110           0
     40247 WT15     45       MECN     N3       NG1T1   -0.460000       14.0070           0
     40248 WT15     47       MECN     C1       CG331   -0.170000       12.0110           0
     40249 WT15     47       MECN     H11      HGA3     0.090000        1.0080           0
     40250 WT15     47       MECN     H12      HGA3     0.090000        1.0080           0
     40251 WT15     47       MECN     H13      HGA3     0.090000        1.0080           0
     40252 WT15     47       MECN     C2       CG1N1    0.360000       12.0110           0
     40253 WT15     47       MECN     N3       NG1T1   -0.460000       14.0070           0
     40254 WT15     48       MECN     C1       CG331   -0.170000       12.0110           0
     40255 WT15     48       MECN     H11      HGA3     0.090000        1.0080           0
     40256 WT15     48       MECN     H12      HGA3     0.090000        1.0080           0
     40257 WT15     48       MECN     H13      HGA3     0.090000        1.0080           0
     40258 WT15     48       MECN     C2       CG1N1    0.360000       12.0110           0
     40259 WT15     48       MECN     N3       NG1T1   -0.460000       14.0070           0
     40260 WT15     49       MECN     C1       CG331   -0.170000       12.0110           0
     40261 WT15     49       MECN     H11      HGA3     0.090000        1.0080           0
     40262 WT15     49       MECN     H12      HGA3     0.090000        1.0080           0
     40263 WT15     49       MECN     H13      HGA3     0.090000        1.0080           0
     40264 WT15     49       MECN     C2       CG1N1    0.360000       12.0110           0
     40265 WT15     49       MECN     N3       NG1T1   -0.460000       14.0070           0
     40266 WT15     51       MECN     C1       CG331   -0.170000       12.0110           0
     40267 WT15     51       MECN     H11      HGA3     0.090000        1.0080           0
     40268 WT15     51       MECN     H12      HGA3     0.090000        1.0080           0
     40269 WT15     51       MECN     H13      HGA3     0.090000        1.0080           0
     40270 WT15     51       MECN     C2       CG1N1    0.360000       12.0110           0
     40271 WT15     51       MECN     N3       NG1T1   -0.460000       14.0070           0
     40272 WT15     53       MECN     C1       CG331   -0.170000       12.0110           0
     40273 WT15     53       MECN     H11      HGA3     0.090000        1.0080           0
     40274 WT15     53       MECN     H12      HGA3     0.090000        1.0080           0
     40275 WT15     53       MECN     H13      HGA3     0.090000        1.0080           0
     40276 WT15     53       MECN     C2       CG1N1    0.360000       12.0110           0
     40277 WT15     53       MECN     N3       NG1T1   -0.460000       14.0070           0
     40278 WT15     55       MECN     C1       CG331   -0.170000       12.0110           0
     40279 WT15     55       MECN     H11      HGA3     0.090000        1.0080           0
     40280 WT15     55       MECN     H12      HGA3     0.090000        1.0080           0
     40281 WT15     55       MECN     H13      HGA3     0.090000        1.0080           0
     40282 WT15     55       MECN     C2       CG1N1    0.360000       12.0110           0
     40283 WT15     55       MECN     N3       NG1T1   -0.460000       14.0070           0
     40284 WT15     61       MECN     C1       CG331   -0.170000       12.0110           0
     40285 WT15     61       MECN     H11      HGA3     0.090000        1.0080           0
     40286 WT15     61       MECN     H12      HGA3     0.090000        1.0080           0
     40287 WT15     61       MECN     H13      HGA3     0.090000        1.0080           0
     40288 WT15     61       MECN     C2       CG1N1    0.360000       12.0110           0
     40289 WT15     61       MECN     N3       NG1T1   -0.460000       14.0070           0
     40290 WT15     62       MECN     C1       CG331   -0.170000       12.0110           0
     40291 WT15     62       MECN     H11      HGA3     0.090000        1.0080           0
     40292 WT15     62       MECN     H12      HGA3     0.090000        1.0080           0
     40293 WT15     62       MECN     H13      HGA3     0.090000        1.0080           0
     40294 WT15     62       MECN     C2       CG1N1    0.360000       12.0110           0
     40295 WT15     62       MECN     N3       NG1T1   -0.460000       14.0070           0
     40296 WT15     64       MECN     C1       CG331   -0.170000       12.0110           0
     40297 WT15     64       MECN     H11      HGA3     0.090000        1.0080           0
     40298 WT15     64       MECN     H12      HGA3     0.090000        1.0080           0
     40299 WT15     64       MECN     H13      HGA3     0.090000        1.0080           0
     40300 WT15     64       MECN     C2       CG1N1    0.360000       12.0110           0
     40301 WT15     64       MECN     N3       NG1T1   -0.460000       14.0070           0
     40302 WT15     65       MECN     C1       CG331   -0.170000       12.0110           0
     40303 WT15     65       MECN     H11      HGA3     0.090000        1.0080           0
     40304 WT15     65       MECN     H12      HGA3     0.090000        1.0080           0
     40305 WT15     65       MECN     H13      HGA3     0.090000        1.0080           0
     40306 WT15     65       MECN     C2       CG1N1    0.360000       12.0110           0
     40307 WT15     65       MECN     N3       NG1T1   -0.460000       14.0070           0
     40308 WT15     66       MECN     C1       CG331   -0.170000       12.0110           0
     40309 WT15     66       MECN     H11      HGA3     0.090000        1.0080           0
     40310 WT15     66       MECN     H12      HGA3     0.090000        1.0080           0
     40311 WT15     66       MECN     H13      HGA3     0.090000        1.0080           0
     40312 WT15     66       MECN     C2       CG1N1    0.360000       12.0110           0
     40313 WT15     66       MECN     N3       NG1T1   -0.460000       14.0070           0
     40314 WT15     67       MECN     C1       CG331   -0.170000       12.0110           0
     40315 WT15     67       MECN     H11      HGA3     0.090000        1.0080           0
     40316 WT15     67       MECN     H12      HGA3     0.090000        1.0080           0
     40317 WT15     67       MECN     H13      HGA3     0.090000        1.0080           0
     40318 WT15     67       MECN     C2       CG1N1    0.360000       12.0110           0
     40319 WT15     67       MECN     N3       NG1T1   -0.460000       14.0070           0
     40320 WT15     69       MECN     C1       CG331   -0.170000       12.0110           0
     40321 WT15     69       MECN     H11      HGA3     0.090000        1.0080           0
     40322 WT15     69       MECN     H12      HGA3     0.090000        1.0080           0
     40323 WT15     69       MECN     H13      HGA3     0.090000        1.0080           0
     40324 WT15     69       MECN     C2       CG1N1    0.360000       12.0110           0
     40325 WT15     69       MECN     N3       NG1T1   -0.460000       14.0070           0
     40326 WT15     70       MECN     C1       CG331   -0.170000       12.0110           0
     40327 WT15     70       MECN     H11      HGA3     0.090000        1.0080           0
     40328 WT15     70       MECN     H12      HGA3     0.090000        1.0080           0
     40329 WT15     70       MECN     H13      HGA3     0.090000        1.0080           0
     40330 WT15     70       MECN     C2       CG1N1    0.360000       12.0110           0
     40331 WT15     70       MECN     N3       NG1T1   -0.460000       14.0070           0
     40332 WT15     73       MECN     C1       CG331   -0.170000       12.0110           0
     40333 WT15     73       MECN     H11      HGA3     0.090000        1.0080           0
     40334 WT15     73       MECN     H12      HGA3     0.090000        1.0080           0
     40335 WT15     73       MECN     H13      HGA3     0.090000        1.0080           0
     40336 WT15     73       MECN     C2       CG1N1    0.360000       12.0110           0
     40337 WT15     73       MECN     N3       NG1T1   -0.460000       14.0070           0
     40338 WT15     74       MECN     C1       CG331   -0.170000       12.0110           0
     40339 WT15     74       MECN     H11      HGA3     0.090000        1.0080           0
     40340 WT15     74       MECN     H12      HGA3     0.090000        1.0080           0
     40341 WT15     74       MECN     H13      HGA3     0.090000        1.0080           0
     40342 WT15     74       MECN     C2       CG1N1    0.360000       12.0110           0
     40343 WT15     74       MECN     N3       NG1T1   -0.460000       14.0070           0
     40344 WT15     77       MECN     C1       CG331   -0.170000       12.0110           0
     40345 WT15     77       MECN     H11      HGA3     0.090000        1.0080           0
     40346 WT15     77       MECN     H12      HGA3     0.090000        1.0080           0
     40347 WT15     77       MECN     H13      HGA3     0.090000        1.0080           0
     40348 WT15     77       MECN     C2       CG1N1    0.360000       12.0110           0
     40349 WT15     77       MECN     N3       NG1T1   -0.460000       14.0070           0
     40350 WT15     80       MECN     C1       CG331   -0.170000       12.0110           0
     40351 WT15     80       MECN     H11      HGA3     0.090000        1.0080           0
     40352 WT15     80       MECN     H12      HGA3     0.090000        1.0080           0
     40353 WT15     80       MECN     H13      HGA3     0.090000        1.0080           0
     40354 WT15     80       MECN     C2       CG1N1    0.360000       12.0110           0
     40355 WT15     80       MECN     N3       NG1T1   -0.460000       14.0070           0
     40356 WT15     82       MECN     C1       CG331   -0.170000       12.0110           0
     40357 WT15     82       MECN     H11      HGA3     0.090000        1.0080           0
     40358 WT15     82       MECN     H12      HGA3     0.090000        1.0080           0
     40359 WT15     82       MECN     H13      HGA3     0.090000        1.0080           0
     40360 WT15     82       MECN     C2       CG1N1    0.360000       12.0110           0
     40361 WT15     82       MECN     N3       NG1T1   -0.460000       14.0070           0
     40362 WT15     83       MECN     C1       CG331   -0.170000       12.0110           0
     40363 WT15     83       MECN     H11      HGA3     0.090000        1.0080           0
     40364 WT15     83       MECN     H12      HGA3     0.090000        1.0080           0
     40365 WT15     83       MECN     H13      HGA3     0.090000        1.0080           0
     40366 WT15     83       MECN     C2       CG1N1    0.360000       12.0110           0
     40367 WT15     83       MECN     N3       NG1T1   -0.460000       14.0070           0
     40368 WT15     85       MECN     C1       CG331   -0.170000       12.0110           0
     40369 WT15     85       MECN     H11      HGA3     0.090000        1.0080           0
     40370 WT15     85       MECN     H12      HGA3     0.090000        1.0080           0
     40371 WT15     85       MECN     H13      HGA3     0.090000        1.0080           0
     40372 WT15     85       MECN     C2       CG1N1    0.360000       12.0110           0
     40373 WT15     85       MECN     N3       NG1T1   -0.460000       14.0070           0
     40374 WT15     87       MECN     C1       CG331   -0.170000       12.0110           0
     40375 WT15     87       MECN     H11      HGA3     0.090000        1.0080           0
     40376 WT15     87       MECN     H12      HGA3     0.090000        1.0080           0
     40377 WT15     87       MECN     H13      HGA3     0.090000        1.0080           0
     40378 WT15     87       MECN     C2       CG1N1    0.360000       12.0110           0
     40379 WT15     87       MECN     N3       NG1T1   -0.460000       14.0070           0
     40380 WT15     88       MECN     C1       CG331   -0.170000       12.0110           0
     40381 WT15     88       MECN     H11      HGA3     0.090000        1.0080           0
     40382 WT15     88       MECN     H12      HGA3     0.090000        1.0080           0
     40383 WT15     88       MECN     H13      HGA3     0.090000        1.0080           0
     40384 WT15     88       MECN     C2       CG1N1    0.360000       12.0110           0
     40385 WT15     88       MECN     N3       NG1T1   -0.460000       14.0070           0
     40386 WT15     89       MECN     C1       CG331   -0.170000       12.0110           0
     40387 WT15     89       MECN     H11      HGA3     0.090000        1.0080           0
     40388 WT15     89       MECN     H12      HGA3     0.090000        1.0080           0
     40389 WT15     89       MECN     H13      HGA3     0.090000        1.0080           0
     40390 WT15     89       MECN     C2       CG1N1    0.360000       12.0110           0
     40391 WT15     89       MECN     N3       NG1T1   -0.460000       14.0070           0
     40392 WT15     93       MECN     C1       CG331   -0.170000       12.0110           0
     40393 WT15     93       MECN     H11      HGA3     0.090000        1.0080           0
     40394 WT15     93       MECN     H12      HGA3     0.090000        1.0080           0
     40395 WT15     93       MECN     H13      HGA3     0.090000        1.0080           0
     40396 WT15     93       MECN     C2       CG1N1    0.360000       12.0110           0
     40397 WT15     93       MECN     N3       NG1T1   -0.460000       14.0070           0
     40398 WT15     96       MECN     C1       CG331   -0.170000       12.0110           0
     40399 WT15     96       MECN     H11      HGA3     0.090000        1.0080           0
     40400 WT15     96       MECN     H12      HGA3     0.090000        1.0080           0
     40401 WT15     96       MECN     H13      HGA3     0.090000        1.0080           0
     40402 WT15     96       MECN     C2       CG1N1    0.360000       12.0110           0
     40403 WT15     96       MECN     N3       NG1T1   -0.460000       14.0070           0
     40404 WT15     97       MECN     C1       CG331   -0.170000       12.0110           0
     40405 WT15     97       MECN     H11      HGA3     0.090000        1.0080           0
     40406 WT15     97       MECN     H12      HGA3     0.090000        1.0080           0
     40407 WT15     97       MECN     H13      HGA3     0.090000        1.0080           0
     40408 WT15     97       MECN     C2       CG1N1    0.360000       12.0110           0
     40409 WT15     97       MECN     N3       NG1T1   -0.460000       14.0070           0
     40410 WT15     98       MECN     C1       CG331   -0.170000       12.0110           0
     40411 WT15     98       MECN     H11      HGA3     0.090000        1.0080           0
     40412 WT15     98       MECN     H12      HGA3     0.090000        1.0080           0
     40413 WT15     98       MECN     H13      HGA3     0.090000        1.0080           0
     40414 WT15     98       MECN     C2       CG1N1    0.360000       12.0110           0
     40415 WT15     98       MECN     N3       NG1T1   -0.460000       14.0070           0
     40416 WT15     99       MECN     C1       CG331   -0.170000       12.0110           0
     40417 WT15     99       MECN     H11      HGA3     0.090000        1.0080           0
     40418 WT15     99       MECN     H12      HGA3     0.090000        1.0080           0
     40419 WT15     99       MECN     H13      HGA3     0.090000        1.0080           0
     40420 WT15     99       MECN     C2       CG1N1    0.360000       12.0110           0
     40421 WT15     99       MECN     N3       NG1T1   -0.460000       14.0070           0
     40422 WT15     100      MECN     C1       CG331   -0.170000       12.0110           0
     40423 WT15     100      MECN     H11      HGA3     0.090000        1.0080           0
     40424 WT15     100      MECN     H12      HGA3     0.090000        1.0080           0
     40425 WT15     100      MECN     H13      HGA3     0.090000        1.0080           0
     40426 WT15     100      MECN     C2       CG1N1    0.360000       12.0110           0
     40427 WT15     100      MECN     N3       NG1T1   -0.460000       14.0070           0
     40428 WT15     102      MECN     C1       CG331   -0.170000       12.0110           0
     40429 WT15     102      MECN     H11      HGA3     0.090000        1.0080           0
     40430 WT15     102      MECN     H12      HGA3     0.090000        1.0080           0
     40431 WT15     102      MECN     H13      HGA3     0.090000        1.0080           0
     40432 WT15     102      MECN     C2       CG1N1    0.360000       12.0110           0
     40433 WT15     102      MECN     N3       NG1T1   -0.460000       14.0070           0
     40434 WT15     103      MECN     C1       CG331   -0.170000       12.0110           0
     40435 WT15     103      MECN     H11      HGA3     0.090000        1.0080           0
     40436 WT15     103      MECN     H12      HGA3     0.090000        1.0080           0
     40437 WT15     103      MECN     H13      HGA3     0.090000        1.0080           0
     40438 WT15     103      MECN     C2       CG1N1    0.360000       12.0110           0
     40439 WT15     103      MECN     N3       NG1T1   -0.460000       14.0070           0
     40440 WT15     104      MECN     C1       CG331   -0.170000       12.0110           0
     40441 WT15     104      MECN     H11      HGA3     0.090000        1.0080           0
     40442 WT15     104      MECN     H12      HGA3     0.090000        1.0080           0
     40443 WT15     104      MECN     H13      HGA3     0.090000        1.0080           0
     40444 WT15     104      MECN     C2       CG1N1    0.360000       12.0110           0
     40445 WT15     104      MECN     N3       NG1T1   -0.460000       14.0070           0
     40446 WT15     106      MECN     C1       CG331   -0.170000       12.0110           0
     40447 WT15     106      MECN     H11      HGA3     0.090000        1.0080           0
     40448 WT15     106      MECN     H12      HGA3     0.090000        1.0080           0
     40449 WT15     106      MECN     H13      HGA3     0.090000        1.0080           0
     40450 WT15     106      MECN     C2       CG1N1    0.360000       12.0110           0
     40451 WT15     106      MECN     N3       NG1T1   -0.460000       14.0070           0
     40452 WT15     107      MECN     C1       CG331   -0.170000       12.0110           0
     40453 WT15     107      MECN     H11      HGA3     0.090000        1.0080           0
     40454 WT15     107      MECN     H12      HGA3     0.090000        1.0080           0
     40455 WT15     107      MECN     H13      HGA3     0.090000        1.0080           0
     40456 WT15     107      MECN     C2       CG1N1    0.360000       12.0110           0
     40457 WT15     107      MECN     N3       NG1T1   -0.460000       14.0070           0
     40458 WT15     108      MECN     C1       CG331   -0.170000       12.0110           0
     40459 WT15     108      MECN     H11      HGA3     0.090000        1.0080           0
     40460 WT15     108      MECN     H12      HGA3     0.090000        1.0080           0
     40461 WT15     108      MECN     H13      HGA3     0.090000        1.0080           0
     40462 WT15     108      MECN     C2       CG1N1    0.360000       12.0110           0
     40463 WT15     108      MECN     N3       NG1T1   -0.460000       14.0070           0
     40464 WT15     109      MECN     C1       CG331   -0.170000       12.0110           0
     40465 WT15     109      MECN     H11      HGA3     0.090000        1.0080           0
     40466 WT15     109      MECN     H12      HGA3     0.090000        1.0080           0
     40467 WT15     109      MECN     H13      HGA3     0.090000        1.0080           0
     40468 WT15     109      MECN     C2       CG1N1    0.360000       12.0110           0
     40469 WT15     109      MECN     N3       NG1T1   -0.460000       14.0070           0
     40470 WT15     110      MECN     C1       CG331   -0.170000       12.0110           0
     40471 WT15     110      MECN     H11      HGA3     0.090000        1.0080           0
     40472 WT15     110      MECN     H12      HGA3     0.090000        1.0080           0
     40473 WT15     110      MECN     H13      HGA3     0.090000        1.0080           0
     40474 WT15     110      MECN     C2       CG1N1    0.360000       12.0110           0
     40475 WT15     110      MECN     N3       NG1T1   -0.460000       14.0070           0
     40476 WT15     112      MECN     C1       CG331   -0.170000       12.0110           0
     40477 WT15     112      MECN     H11      HGA3     0.090000        1.0080           0
     40478 WT15     112      MECN     H12      HGA3     0.090000        1.0080           0
     40479 WT15     112      MECN     H13      HGA3     0.090000        1.0080           0
     40480 WT15     112      MECN     C2       CG1N1    0.360000       12.0110           0
     40481 WT15     112      MECN     N3       NG1T1   -0.460000       14.0070           0
     40482 WT15     113      MECN     C1       CG331   -0.170000       12.0110           0
     40483 WT15     113      MECN     H11      HGA3     0.090000        1.0080           0
     40484 WT15     113      MECN     H12      HGA3     0.090000        1.0080           0
     40485 WT15     113      MECN     H13      HGA3     0.090000        1.0080           0
     40486 WT15     113      MECN     C2       CG1N1    0.360000       12.0110           0
     40487 WT15     113      MECN     N3       NG1T1   -0.460000       14.0070           0
     40488 WT15     114      MECN     C1       CG331   -0.170000       12.0110           0
     40489 WT15     114      MECN     H11      HGA3     0.090000        1.0080           0
     40490 WT15     114      MECN     H12      HGA3     0.090000        1.0080           0
     40491 WT15     114      MECN     H13      HGA3     0.090000        1.0080           0
     40492 WT15     114      MECN     C2       CG1N1    0.360000       12.0110           0
     40493 WT15     114      MECN     N3       NG1T1   -0.460000       14.0070           0
     40494 WT15     116      MECN     C1       CG331   -0.170000       12.0110           0
     40495 WT15     116      MECN     H11      HGA3     0.090000        1.0080           0
     40496 WT15     116      MECN     H12      HGA3     0.090000        1.0080           0
     40497 WT15     116      MECN     H13      HGA3     0.090000        1.0080           0
     40498 WT15     116      MECN     C2       CG1N1    0.360000       12.0110           0
     40499 WT15     116      MECN     N3       NG1T1   -0.460000       14.0070           0
     40500 WT15     117      MECN     C1       CG331   -0.170000       12.0110           0
     40501 WT15     117      MECN     H11      HGA3     0.090000        1.0080           0
     40502 WT15     117      MECN     H12      HGA3     0.090000        1.0080           0
     40503 WT15     117      MECN     H13      HGA3     0.090000        1.0080           0
     40504 WT15     117      MECN     C2       CG1N1    0.360000       12.0110           0
     40505 WT15     117      MECN     N3       NG1T1   -0.460000       14.0070           0
     40506 WT15     118      MECN     C1       CG331   -0.170000       12.0110           0
     40507 WT15     118      MECN     H11      HGA3     0.090000        1.0080           0
     40508 WT15     118      MECN     H12      HGA3     0.090000        1.0080           0
     40509 WT15     118      MECN     H13      HGA3     0.090000        1.0080           0
     40510 WT15     118      MECN     C2       CG1N1    0.360000       12.0110           0
     40511 WT15     118      MECN     N3       NG1T1   -0.460000       14.0070           0
     40512 WT15     119      MECN     C1       CG331   -0.170000       12.0110           0
     40513 WT15     119      MECN     H11      HGA3     0.090000        1.0080           0
     40514 WT15     119      MECN     H12      HGA3     0.090000        1.0080           0
     40515 WT15     119      MECN     H13      HGA3     0.090000        1.0080           0
     40516 WT15     119      MECN     C2       CG1N1    0.360000       12.0110           0
     40517 WT15     119      MECN     N3       NG1T1   -0.460000       14.0070           0
     40518 WT15     122      MECN     C1       CG331   -0.170000       12.0110           0
     40519 WT15     122      MECN     H11      HGA3     0.090000        1.0080           0
     40520 WT15     122      MECN     H12      HGA3     0.090000        1.0080           0
     40521 WT15     122      MECN     H13      HGA3     0.090000        1.0080           0
     40522 WT15     122      MECN     C2       CG1N1    0.360000       12.0110           0
     40523 WT15     122      MECN     N3       NG1T1   -0.460000       14.0070           0
     40524 WT15     123      MECN     C1       CG331   -0.170000       12.0110           0
     40525 WT15     123      MECN     H11      HGA3     0.090000        1.0080           0
     40526 WT15     123      MECN     H12      HGA3     0.090000        1.0080           0
     40527 WT15     123      MECN     H13      HGA3     0.090000        1.0080           0
     40528 WT15     123      MECN     C2       CG1N1    0.360000       12.0110           0
     40529 WT15     123      MECN     N3       NG1T1   -0.460000       14.0070           0
     40530 WT15     124      MECN     C1       CG331   -0.170000       12.0110           0
     40531 WT15     124      MECN     H11      HGA3     0.090000        1.0080           0
     40532 WT15     124      MECN     H12      HGA3     0.090000        1.0080           0
     40533 WT15     124      MECN     H13      HGA3     0.090000        1.0080           0
     40534 WT15     124      MECN     C2       CG1N1    0.360000       12.0110           0
     40535 WT15     124      MECN     N3       NG1T1   -0.460000       14.0070           0
     40536 WT15     125      MECN     C1       CG331   -0.170000       12.0110           0
     40537 WT15     125      MECN     H11      HGA3     0.090000        1.0080           0
     40538 WT15     125      MECN     H12      HGA3     0.090000        1.0080           0
     40539 WT15     125      MECN     H13      HGA3     0.090000        1.0080           0
     40540 WT15     125      MECN     C2       CG1N1    0.360000       12.0110           0
     40541 WT15     125      MECN     N3       NG1T1   -0.460000       14.0070           0
     40542 WT15     126      MECN     C1       CG331   -0.170000       12.0110           0
     40543 WT15     126      MECN     H11      HGA3     0.090000        1.0080           0
     40544 WT15     126      MECN     H12      HGA3     0.090000        1.0080           0
     40545 WT15     126      MECN     H13      HGA3     0.090000        1.0080           0
     40546 WT15     126      MECN     C2       CG1N1    0.360000       12.0110           0
     40547 WT15     126      MECN     N3       NG1T1   -0.460000       14.0070           0
     40548 WT15     127      MECN     C1       CG331   -0.170000       12.0110           0
     40549 WT15     127      MECN     H11      HGA3     0.090000        1.0080           0
     40550 WT15     127      MECN     H12      HGA3     0.090000        1.0080           0
     40551 WT15     127      MECN     H13      HGA3     0.090000        1.0080           0
     40552 WT15     127      MECN     C2       CG1N1    0.360000       12.0110           0
     40553 WT15     127      MECN     N3       NG1T1   -0.460000       14.0070           0
     40554 WT15     128      MECN     C1       CG331   -0.170000       12.0110           0
     40555 WT15     128      MECN     H11      HGA3     0.090000        1.0080           0
     40556 WT15     128      MECN     H12      HGA3     0.090000        1.0080           0
     40557 WT15     128      MECN     H13      HGA3     0.090000        1.0080           0
     40558 WT15     128      MECN     C2       CG1N1    0.360000       12.0110           0
     40559 WT15     128      MECN     N3       NG1T1   -0.460000       14.0070           0
     40560 WT15     130      MECN     C1       CG331   -0.170000       12.0110           0
     40561 WT15     130      MECN     H11      HGA3     0.090000        1.0080           0
     40562 WT15     130      MECN     H12      HGA3     0.090000        1.0080           0
     40563 WT15     130      MECN     H13      HGA3     0.090000        1.0080           0
     40564 WT15     130      MECN     C2       CG1N1    0.360000       12.0110           0
     40565 WT15     130      MECN     N3       NG1T1   -0.460000       14.0070           0
     40566 WT15     131      MECN     C1       CG331   -0.170000       12.0110           0
     40567 WT15     131      MECN     H11      HGA3     0.090000        1.0080           0
     40568 WT15     131      MECN     H12      HGA3     0.090000        1.0080           0
     40569 WT15     131      MECN     H13      HGA3     0.090000        1.0080           0
     40570 WT15     131      MECN     C2       CG1N1    0.360000       12.0110           0
     40571 WT15     131      MECN     N3       NG1T1   -0.460000       14.0070           0
     40572 WT15     132      MECN     C1       CG331   -0.170000       12.0110           0
     40573 WT15     132      MECN     H11      HGA3     0.090000        1.0080           0
     40574 WT15     132      MECN     H12      HGA3     0.090000        1.0080           0
     40575 WT15     132      MECN     H13      HGA3     0.090000        1.0080           0
     40576 WT15     132      MECN     C2       CG1N1    0.360000       12.0110           0
     40577 WT15     132      MECN     N3       NG1T1   -0.460000       14.0070           0
     40578 WT15     135      MECN     C1       CG331   -0.170000       12.0110           0
     40579 WT15     135      MECN     H11      HGA3     0.090000        1.0080           0
     40580 WT15     135      MECN     H12      HGA3     0.090000        1.0080           0
     40581 WT15     135      MECN     H13      HGA3     0.090000        1.0080           0
     40582 WT15     135      MECN     C2       CG1N1    0.360000       12.0110           0
     40583 WT15     135      MECN     N3       NG1T1   -0.460000       14.0070           0
     40584 WT15     136      MECN     C1       CG331   -0.170000       12.0110           0
     40585 WT15     136      MECN     H11      HGA3     0.090000        1.0080           0
     40586 WT15     136      MECN     H12      HGA3     0.090000        1.0080           0
     40587 WT15     136      MECN     H13      HGA3     0.090000        1.0080           0
     40588 WT15     136      MECN     C2       CG1N1    0.360000       12.0110           0
     40589 WT15     136      MECN     N3       NG1T1   -0.460000       14.0070           0
     40590 WT15     137      MECN     C1       CG331   -0.170000       12.0110           0
     40591 WT15     137      MECN     H11      HGA3     0.090000        1.0080           0
     40592 WT15     137      MECN     H12      HGA3     0.090000        1.0080           0
     40593 WT15     137      MECN     H13      HGA3     0.090000        1.0080           0
     40594 WT15     137      MECN     C2       CG1N1    0.360000       12.0110           0
     40595 WT15     137      MECN     N3       NG1T1   -0.460000       14.0070           0
     40596 WT15     139      MECN     C1       CG331   -0.170000       12.0110           0
     40597 WT15     139      MECN     H11      HGA3     0.090000        1.0080           0
     40598 WT15     139      MECN     H12      HGA3     0.090000        1.0080           0
     40599 WT15     139      MECN     H13      HGA3     0.090000        1.0080           0
     40600 WT15     139      MECN     C2       CG1N1    0.360000       12.0110           0
     40601 WT15     139      MECN     N3       NG1T1   -0.460000       14.0070           0
     40602 WT15     140      MECN     C1       CG331   -0.170000       12.0110           0
     40603 WT15     140      MECN     H11      HGA3     0.090000        1.0080           0
     40604 WT15     140      MECN     H12      HGA3     0.090000        1.0080           0
     40605 WT15     140      MECN     H13      HGA3     0.090000        1.0080           0
     40606 WT15     140      MECN     C2       CG1N1    0.360000       12.0110           0
     40607 WT15     140      MECN     N3       NG1T1   -0.460000       14.0070           0
     40608 WT15     141      MECN     C1       CG331   -0.170000       12.0110           0
     40609 WT15     141      MECN     H11      HGA3     0.090000        1.0080           0
     40610 WT15     141      MECN     H12      HGA3     0.090000        1.0080           0
     40611 WT15     141      MECN     H13      HGA3     0.090000        1.0080           0
     40612 WT15     141      MECN     C2       CG1N1    0.360000       12.0110           0
     40613 WT15     141      MECN     N3       NG1T1   -0.460000       14.0070           0
     40614 WT15     142      MECN     C1       CG331   -0.170000       12.0110           0
     40615 WT15     142      MECN     H11      HGA3     0.090000        1.0080           0
     40616 WT15     142      MECN     H12      HGA3     0.090000        1.0080           0
     40617 WT15     142      MECN     H13      HGA3     0.090000        1.0080           0
     40618 WT15     142      MECN     C2       CG1N1    0.360000       12.0110           0
     40619 WT15     142      MECN     N3       NG1T1   -0.460000       14.0070           0
     40620 WT15     143      MECN     C1       CG331   -0.170000       12.0110           0
     40621 WT15     143      MECN     H11      HGA3     0.090000        1.0080           0
     40622 WT15     143      MECN     H12      HGA3     0.090000        1.0080           0
     40623 WT15     143      MECN     H13      HGA3     0.090000        1.0080           0
     40624 WT15     143      MECN     C2       CG1N1    0.360000       12.0110           0
     40625 WT15     143      MECN     N3       NG1T1   -0.460000       14.0070           0
     40626 WT15     145      MECN     C1       CG331   -0.170000       12.0110           0
     40627 WT15     145      MECN     H11      HGA3     0.090000        1.0080           0
     40628 WT15     145      MECN     H12      HGA3     0.090000        1.0080           0
     40629 WT15     145      MECN     H13      HGA3     0.090000        1.0080           0
     40630 WT15     145      MECN     C2       CG1N1    0.360000       12.0110           0
     40631 WT15     145      MECN     N3       NG1T1   -0.460000       14.0070           0
     40632 WT15     150      MECN     C1       CG331   -0.170000       12.0110           0
     40633 WT15     150      MECN     H11      HGA3     0.090000        1.0080           0
     40634 WT15     150      MECN     H12      HGA3     0.090000        1.0080           0
     40635 WT15     150      MECN     H13      HGA3     0.090000        1.0080           0
     40636 WT15     150      MECN     C2       CG1N1    0.360000       12.0110           0
     40637 WT15     150      MECN     N3       NG1T1   -0.460000       14.0070           0
     40638 WT15     151      MECN     C1       CG331   -0.170000       12.0110           0
     40639 WT15     151      MECN     H11      HGA3     0.090000        1.0080           0
     40640 WT15     151      MECN     H12      HGA3     0.090000        1.0080           0
     40641 WT15     151      MECN     H13      HGA3     0.090000        1.0080           0
     40642 WT15     151      MECN     C2       CG1N1    0.360000       12.0110           0
     40643 WT15     151      MECN     N3       NG1T1   -0.460000       14.0070           0
     40644 WT15     152      MECN     C1       CG331   -0.170000       12.0110           0
     40645 WT15     152      MECN     H11      HGA3     0.090000        1.0080           0
     40646 WT15     152      MECN     H12      HGA3     0.090000        1.0080           0
     40647 WT15     152      MECN     H13      HGA3     0.090000        1.0080           0
     40648 WT15     152      MECN     C2       CG1N1    0.360000       12.0110           0
     40649 WT15     152      MECN     N3       NG1T1   -0.460000       14.0070           0
     40650 WT15     153      MECN     C1       CG331   -0.170000       12.0110           0
     40651 WT15     153      MECN     H11      HGA3     0.090000        1.0080           0
     40652 WT15     153      MECN     H12      HGA3     0.090000        1.0080           0
     40653 WT15     153      MECN     H13      HGA3     0.090000        1.0080           0
     40654 WT15     153      MECN     C2       CG1N1    0.360000       12.0110           0
     40655 WT15     153      MECN     N3       NG1T1   -0.460000       14.0070           0
     40656 WT15     154      MECN     C1       CG331   -0.170000       12.0110           0
     40657 WT15     154      MECN     H11      HGA3     0.090000        1.0080           0
     40658 WT15     154      MECN     H12      HGA3     0.090000        1.0080           0
     40659 WT15     154      MECN     H13      HGA3     0.090000        1.0080           0
     40660 WT15     154      MECN     C2       CG1N1    0.360000       12.0110           0
     40661 WT15     154      MECN     N3       NG1T1   -0.460000       14.0070           0
     40662 WT15     155      MECN     C1       CG331   -0.170000       12.0110           0
     40663 WT15     155      MECN     H11      HGA3     0.090000        1.0080           0
     40664 WT15     155      MECN     H12      HGA3     0.090000        1.0080           0
     40665 WT15     155      MECN     H13      HGA3     0.090000        1.0080           0
     40666 WT15     155      MECN     C2       CG1N1    0.360000       12.0110           0
     40667 WT15     155      MECN     N3       NG1T1   -0.460000       14.0070           0
     40668 WT15     156      MECN     C1       CG331   -0.170000       12.0110           0
     40669 WT15     156      MECN     H11      HGA3     0.090000        1.0080           0
     40670 WT15     156      MECN     H12      HGA3     0.090000        1.0080           0
     40671 WT15     156      MECN     H13      HGA3     0.090000        1.0080           0
     40672 WT15     156      MECN     C2       CG1N1    0.360000       12.0110           0
     40673 WT15     156      MECN     N3       NG1T1   -0.460000       14.0070           0
     40674 WT15     158      MECN     C1       CG331   -0.170000       12.0110           0
     40675 WT15     158      MECN     H11      HGA3     0.090000        1.0080           0
     40676 WT15     158      MECN     H12      HGA3     0.090000        1.0080           0
     40677 WT15     158      MECN     H13      HGA3     0.090000        1.0080           0
     40678 WT15     158      MECN     C2       CG1N1    0.360000       12.0110           0
     40679 WT15     158      MECN     N3       NG1T1   -0.460000       14.0070           0
     40680 WT15     160      MECN     C1       CG331   -0.170000       12.0110           0
     40681 WT15     160      MECN     H11      HGA3     0.090000        1.0080           0
     40682 WT15     160      MECN     H12      HGA3     0.090000        1.0080           0
     40683 WT15     160      MECN     H13      HGA3     0.090000        1.0080           0
     40684 WT15     160      MECN     C2       CG1N1    0.360000       12.0110           0
     40685 WT15     160      MECN     N3       NG1T1   -0.460000       14.0070           0
     40686 WT15     161      MECN     C1       CG331   -0.170000       12.0110           0
     40687 WT15     161      MECN     H11      HGA3     0.090000        1.0080           0
     40688 WT15     161      MECN     H12      HGA3     0.090000        1.0080           0
     40689 WT15     161      MECN     H13      HGA3     0.090000        1.0080           0
     40690 WT15     161      MECN     C2       CG1N1    0.360000       12.0110           0
     40691 WT15     161      MECN     N3       NG1T1   -0.460000       14.0070           0
     40692 WT15     163      MECN     C1       CG331   -0.170000       12.0110           0
     40693 WT15     163      MECN     H11      HGA3     0.090000        1.0080           0
     40694 WT15     163      MECN     H12      HGA3     0.090000        1.0080           0
     40695 WT15     163      MECN     H13      HGA3     0.090000        1.0080           0
     40696 WT15     163      MECN     C2       CG1N1    0.360000       12.0110           0
     40697 WT15     163      MECN     N3       NG1T1   -0.460000       14.0070           0
     40698 WT15     164      MECN     C1       CG331   -0.170000       12.0110           0
     40699 WT15     164      MECN     H11      HGA3     0.090000        1.0080           0
     40700 WT15     164      MECN     H12      HGA3     0.090000        1.0080           0
     40701 WT15     164      MECN     H13      HGA3     0.090000        1.0080           0
     40702 WT15     164      MECN     C2       CG1N1    0.360000       12.0110           0
     40703 WT15     164      MECN     N3       NG1T1   -0.460000       14.0070           0
     40704 WT15     165      MECN     C1       CG331   -0.170000       12.0110           0
     40705 WT15     165      MECN     H11      HGA3     0.090000        1.0080           0
     40706 WT15     165      MECN     H12      HGA3     0.090000        1.0080           0
     40707 WT15     165      MECN     H13      HGA3     0.090000        1.0080           0
     40708 WT15     165      MECN     C2       CG1N1    0.360000       12.0110           0
     40709 WT15     165      MECN     N3       NG1T1   -0.460000       14.0070           0
     40710 WT15     166      MECN     C1       CG331   -0.170000       12.0110           0
     40711 WT15     166      MECN     H11      HGA3     0.090000        1.0080           0
     40712 WT15     166      MECN     H12      HGA3     0.090000        1.0080           0
     40713 WT15     166      MECN     H13      HGA3     0.090000        1.0080           0
     40714 WT15     166      MECN     C2       CG1N1    0.360000       12.0110           0
     40715 WT15     166      MECN     N3       NG1T1   -0.460000       14.0070           0
     40716 WT15     167      MECN     C1       CG331   -0.170000       12.0110           0
     40717 WT15     167      MECN     H11      HGA3     0.090000        1.0080           0
     40718 WT15     167      MECN     H12      HGA3     0.090000        1.0080           0
     40719 WT15     167      MECN     H13      HGA3     0.090000        1.0080           0
     40720 WT15     167      MECN     C2       CG1N1    0.360000       12.0110           0
     40721 WT15     167      MECN     N3       NG1T1   -0.460000       14.0070           0
     40722 WT15     168      MECN     C1       CG331   -0.170000       12.0110           0
     40723 WT15     168      MECN     H11      HGA3     0.090000        1.0080           0
     40724 WT15     168      MECN     H12      HGA3     0.090000        1.0080           0
     40725 WT15     168      MECN     H13      HGA3     0.090000        1.0080           0
     40726 WT15     168      MECN     C2       CG1N1    0.360000       12.0110           0
     40727 WT15     168      MECN     N3       NG1T1   -0.460000       14.0070           0
     40728 WT15     169      MECN     C1       CG331   -0.170000       12.0110           0
     40729 WT15     169      MECN     H11      HGA3     0.090000        1.0080           0
     40730 WT15     169      MECN     H12      HGA3     0.090000        1.0080           0
     40731 WT15     169      MECN     H13      HGA3     0.090000        1.0080           0
     40732 WT15     169      MECN     C2       CG1N1    0.360000       12.0110           0
     40733 WT15     169      MECN     N3       NG1T1   -0.460000       14.0070           0
     40734 WT15     170      MECN     C1       CG331   -0.170000       12.0110           0
     40735 WT15     170      MECN     H11      HGA3     0.090000        1.0080           0
     40736 WT15     170      MECN     H12      HGA3     0.090000        1.0080           0
     40737 WT15     170      MECN     H13      HGA3     0.090000        1.0080           0
     40738 WT15     170      MECN     C2       CG1N1    0.360000       12.0110           0
     40739 WT15     170      MECN     N3       NG1T1   -0.460000       14.0070           0
     40740 WT15     172      MECN     C1       CG331   -0.170000       12.0110           0
     40741 WT15     172      MECN     H11      HGA3     0.090000        1.0080           0
     40742 WT15     172      MECN     H12      HGA3     0.090000        1.0080           0
     40743 WT15     172      MECN     H13      HGA3     0.090000        1.0080           0
     40744 WT15     172      MECN     C2       CG1N1    0.360000       12.0110           0
     40745 WT15     172      MECN     N3       NG1T1   -0.460000       14.0070           0
     40746 WT15     174      MECN     C1       CG331   -0.170000       12.0110           0
     40747 WT15     174      MECN     H11      HGA3     0.090000        1.0080           0
     40748 WT15     174      MECN     H12      HGA3     0.090000        1.0080           0
     40749 WT15     174      MECN     H13      HGA3     0.090000        1.0080           0
     40750 WT15     174      MECN     C2       CG1N1    0.360000       12.0110           0
     40751 WT15     174      MECN     N3       NG1T1   -0.460000       14.0070           0
     40752 WT15     175      MECN     C1       CG331   -0.170000       12.0110           0
     40753 WT15     175      MECN     H11      HGA3     0.090000        1.0080           0
     40754 WT15     175      MECN     H12      HGA3     0.090000        1.0080           0
     40755 WT15     175      MECN     H13      HGA3     0.090000        1.0080           0
     40756 WT15     175      MECN     C2       CG1N1    0.360000       12.0110           0
     40757 WT15     175      MECN     N3       NG1T1   -0.460000       14.0070           0
     40758 WT15     176      MECN     C1       CG331   -0.170000       12.0110           0
     40759 WT15     176      MECN     H11      HGA3     0.090000        1.0080           0
     40760 WT15     176      MECN     H12      HGA3     0.090000        1.0080           0
     40761 WT15     176      MECN     H13      HGA3     0.090000        1.0080           0
     40762 WT15     176      MECN     C2       CG1N1    0.360000       12.0110           0
     40763 WT15     176      MECN     N3       NG1T1   -0.460000       14.0070           0
     40764 WT15     177      MECN     C1       CG331   -0.170000       12.0110           0
     40765 WT15     177      MECN     H11      HGA3     0.090000        1.0080           0
     40766 WT15     177      MECN     H12      HGA3     0.090000        1.0080           0
     40767 WT15     177      MECN     H13      HGA3     0.090000        1.0080           0
     40768 WT15     177      MECN     C2       CG1N1    0.360000       12.0110           0
     40769 WT15     177      MECN     N3       NG1T1   -0.460000       14.0070           0
     40770 WT15     178      MECN     C1       CG331   -0.170000       12.0110           0
     40771 WT15     178      MECN     H11      HGA3     0.090000        1.0080           0
     40772 WT15     178      MECN     H12      HGA3     0.090000        1.0080           0
     40773 WT15     178      MECN     H13      HGA3     0.090000        1.0080           0
     40774 WT15     178      MECN     C2       CG1N1    0.360000       12.0110           0
     40775 WT15     178      MECN     N3       NG1T1   -0.460000       14.0070           0
     40776 WT15     180      MECN     C1       CG331   -0.170000       12.0110           0
     40777 WT15     180      MECN     H11      HGA3     0.090000        1.0080           0
     40778 WT15     180      MECN     H12      HGA3     0.090000        1.0080           0
     40779 WT15     180      MECN     H13      HGA3     0.090000        1.0080           0
     40780 WT15     180      MECN     C2       CG1N1    0.360000       12.0110           0
     40781 WT15     180      MECN     N3       NG1T1   -0.460000       14.0070           0
     40782 WT15     181      MECN     C1       CG331   -0.170000       12.0110           0
     40783 WT15     181      MECN     H11      HGA3     0.090000        1.0080           0
     40784 WT15     181      MECN     H12      HGA3     0.090000        1.0080           0
     40785 WT15     181      MECN     H13      HGA3     0.090000        1.0080           0
     40786 WT15     181      MECN     C2       CG1N1    0.360000       12.0110           0
     40787 WT15     181      MECN     N3       NG1T1   -0.460000       14.0070           0
     40788 WT15     182      MECN     C1       CG331   -0.170000       12.0110           0
     40789 WT15     182      MECN     H11      HGA3     0.090000        1.0080           0
     40790 WT15     182      MECN     H12      HGA3     0.090000        1.0080           0
     40791 WT15     182      MECN     H13      HGA3     0.090000        1.0080           0
     40792 WT15     182      MECN     C2       CG1N1    0.360000       12.0110           0
     40793 WT15     182      MECN     N3       NG1T1   -0.460000       14.0070           0
     40794 WT15     183      MECN     C1       CG331   -0.170000       12.0110           0
     40795 WT15     183      MECN     H11      HGA3     0.090000        1.0080           0
     40796 WT15     183      MECN     H12      HGA3     0.090000        1.0080           0
     40797 WT15     183      MECN     H13      HGA3     0.090000        1.0080           0
     40798 WT15     183      MECN     C2       CG1N1    0.360000       12.0110           0
     40799 WT15     183      MECN     N3       NG1T1   -0.460000       14.0070           0
     40800 WT15     184      MECN     C1       CG331   -0.170000       12.0110           0
     40801 WT15     184      MECN     H11      HGA3     0.090000        1.0080           0
     40802 WT15     184      MECN     H12      HGA3     0.090000        1.0080           0
     40803 WT15     184      MECN     H13      HGA3     0.090000        1.0080           0
     40804 WT15     184      MECN     C2       CG1N1    0.360000       12.0110           0
     40805 WT15     184      MECN     N3       NG1T1   -0.460000       14.0070           0
     40806 WT15     185      MECN     C1       CG331   -0.170000       12.0110           0
     40807 WT15     185      MECN     H11      HGA3     0.090000        1.0080           0
     40808 WT15     185      MECN     H12      HGA3     0.090000        1.0080           0
     40809 WT15     185      MECN     H13      HGA3     0.090000        1.0080           0
     40810 WT15     185      MECN     C2       CG1N1    0.360000       12.0110           0
     40811 WT15     185      MECN     N3       NG1T1   -0.460000       14.0070           0
     40812 WT15     186      MECN     C1       CG331   -0.170000       12.0110           0
     40813 WT15     186      MECN     H11      HGA3     0.090000        1.0080           0
     40814 WT15     186      MECN     H12      HGA3     0.090000        1.0080           0
     40815 WT15     186      MECN     H13      HGA3     0.090000        1.0080           0
     40816 WT15     186      MECN     C2       CG1N1    0.360000       12.0110           0
     40817 WT15     186      MECN     N3       NG1T1   -0.460000       14.0070           0
     40818 WT15     187      MECN     C1       CG331   -0.170000       12.0110           0
     40819 WT15     187      MECN     H11      HGA3     0.090000        1.0080           0
     40820 WT15     187      MECN     H12      HGA3     0.090000        1.0080           0
     40821 WT15     187      MECN     H13      HGA3     0.090000        1.0080           0
     40822 WT15     187      MECN     C2       CG1N1    0.360000       12.0110           0
     40823 WT15     187      MECN     N3       NG1T1   -0.460000       14.0070           0
     40824 WT15     188      MECN     C1       CG331   -0.170000       12.0110           0
     40825 WT15     188      MECN     H11      HGA3     0.090000        1.0080           0
     40826 WT15     188      MECN     H12      HGA3     0.090000        1.0080           0
     40827 WT15     188      MECN     H13      HGA3     0.090000        1.0080           0
     40828 WT15     188      MECN     C2       CG1N1    0.360000       12.0110           0
     40829 WT15     188      MECN     N3       NG1T1   -0.460000       14.0070           0
     40830 WT15     190      MECN     C1       CG331   -0.170000       12.0110           0
     40831 WT15     190      MECN     H11      HGA3     0.090000        1.0080           0
     40832 WT15     190      MECN     H12      HGA3     0.090000        1.0080           0
     40833 WT15     190      MECN     H13      HGA3     0.090000        1.0080           0
     40834 WT15     190      MECN     C2       CG1N1    0.360000       12.0110           0
     40835 WT15     190      MECN     N3       NG1T1   -0.460000       14.0070           0
     40836 WT15     192      MECN     C1       CG331   -0.170000       12.0110           0
     40837 WT15     192      MECN     H11      HGA3     0.090000        1.0080           0
     40838 WT15     192      MECN     H12      HGA3     0.090000        1.0080           0
     40839 WT15     192      MECN     H13      HGA3     0.090000        1.0080           0
     40840 WT15     192      MECN     C2       CG1N1    0.360000       12.0110           0
     40841 WT15     192      MECN     N3       NG1T1   -0.460000       14.0070           0
     40842 WT15     193      MECN     C1       CG331   -0.170000       12.0110           0
     40843 WT15     193      MECN     H11      HGA3     0.090000        1.0080           0
     40844 WT15     193      MECN     H12      HGA3     0.090000        1.0080           0
     40845 WT15     193      MECN     H13      HGA3     0.090000        1.0080           0
     40846 WT15     193      MECN     C2       CG1N1    0.360000       12.0110           0
     40847 WT15     193      MECN     N3       NG1T1   -0.460000       14.0070           0
     40848 WT15     195      MECN     C1       CG331   -0.170000       12.0110           0
     40849 WT15     195      MECN     H11      HGA3     0.090000        1.0080           0
     40850 WT15     195      MECN     H12      HGA3     0.090000        1.0080           0
     40851 WT15     195      MECN     H13      HGA3     0.090000        1.0080           0
     40852 WT15     195      MECN     C2       CG1N1    0.360000       12.0110           0
     40853 WT15     195      MECN     N3       NG1T1   -0.460000       14.0070           0
     40854 WT15     196      MECN     C1       CG331   -0.170000       12.0110           0
     40855 WT15     196      MECN     H11      HGA3     0.090000        1.0080           0
     40856 WT15     196      MECN     H12      HGA3     0.090000        1.0080           0
     40857 WT15     196      MECN     H13      HGA3     0.090000        1.0080           0
     40858 WT15     196      MECN     C2       CG1N1    0.360000       12.0110           0
     40859 WT15     196      MECN     N3       NG1T1   -0.460000       14.0070           0
     40860 WT15     198      MECN     C1       CG331   -0.170000       12.0110           0
     40861 WT15     198      MECN     H11      HGA3     0.090000        1.0080           0
     40862 WT15     198      MECN     H12      HGA3     0.090000        1.0080           0
     40863 WT15     198      MECN     H13      HGA3     0.090000        1.0080           0
     40864 WT15     198      MECN     C2       CG1N1    0.360000       12.0110           0
     40865 WT15     198      MECN     N3       NG1T1   -0.460000       14.0070           0
     40866 WT15     199      MECN     C1       CG331   -0.170000       12.0110           0
     40867 WT15     199      MECN     H11      HGA3     0.090000        1.0080           0
     40868 WT15     199      MECN     H12      HGA3     0.090000        1.0080           0
     40869 WT15     199      MECN     H13      HGA3     0.090000        1.0080           0
     40870 WT15     199      MECN     C2       CG1N1    0.360000       12.0110           0
     40871 WT15     199      MECN     N3       NG1T1   -0.460000       14.0070           0
     40872 WT15     201      MECN     C1       CG331   -0.170000       12.0110           0
     40873 WT15     201      MECN     H11      HGA3     0.090000        1.0080           0
     40874 WT15     201      MECN     H12      HGA3     0.090000        1.0080           0
     40875 WT15     201      MECN     H13      HGA3     0.090000        1.0080           0
     40876 WT15     201      MECN     C2       CG1N1    0.360000       12.0110           0
     40877 WT15     201      MECN     N3       NG1T1   -0.460000       14.0070           0
     40878 WT15     203      MECN     C1       CG331   -0.170000       12.0110           0
     40879 WT15     203      MECN     H11      HGA3     0.090000        1.0080           0
     40880 WT15     203      MECN     H12      HGA3     0.090000        1.0080           0
     40881 WT15     203      MECN     H13      HGA3     0.090000        1.0080           0
     40882 WT15     203      MECN     C2       CG1N1    0.360000       12.0110           0
     40883 WT15     203      MECN     N3       NG1T1   -0.460000       14.0070           0
     40884 WT15     205      MECN     C1       CG331   -0.170000       12.0110           0
     40885 WT15     205      MECN     H11      HGA3     0.090000        1.0080           0
     40886 WT15     205      MECN     H12      HGA3     0.090000        1.0080           0
     40887 WT15     205      MECN     H13      HGA3     0.090000        1.0080           0
     40888 WT15     205      MECN     C2       CG1N1    0.360000       12.0110           0
     40889 WT15     205      MECN     N3       NG1T1   -0.460000       14.0070           0
     40890 WT15     206      MECN     C1       CG331   -0.170000       12.0110           0
     40891 WT15     206      MECN     H11      HGA3     0.090000        1.0080           0
     40892 WT15     206      MECN     H12      HGA3     0.090000        1.0080           0
     40893 WT15     206      MECN     H13      HGA3     0.090000        1.0080           0
     40894 WT15     206      MECN     C2       CG1N1    0.360000       12.0110           0
     40895 WT15     206      MECN     N3       NG1T1   -0.460000       14.0070           0
     40896 WT15     210      MECN     C1       CG331   -0.170000       12.0110           0
     40897 WT15     210      MECN     H11      HGA3     0.090000        1.0080           0
     40898 WT15     210      MECN     H12      HGA3     0.090000        1.0080           0
     40899 WT15     210      MECN     H13      HGA3     0.090000        1.0080           0
     40900 WT15     210      MECN     C2       CG1N1    0.360000       12.0110           0
     40901 WT15     210      MECN     N3       NG1T1   -0.460000       14.0070           0
     40902 WT15     211      MECN     C1       CG331   -0.170000       12.0110           0
     40903 WT15     211      MECN     H11      HGA3     0.090000        1.0080           0
     40904 WT15     211      MECN     H12      HGA3     0.090000        1.0080           0
     40905 WT15     211      MECN     H13      HGA3     0.090000        1.0080           0
     40906 WT15     211      MECN     C2       CG1N1    0.360000       12.0110           0
     40907 WT15     211      MECN     N3       NG1T1   -0.460000       14.0070           0
     40908 WT15     212      MECN     C1       CG331   -0.170000       12.0110           0
     40909 WT15     212      MECN     H11      HGA3     0.090000        1.0080           0
     40910 WT15     212      MECN     H12      HGA3     0.090000        1.0080           0
     40911 WT15     212      MECN     H13      HGA3     0.090000        1.0080           0
     40912 WT15     212      MECN     C2       CG1N1    0.360000       12.0110           0
     40913 WT15     212      MECN     N3       NG1T1   -0.460000       14.0070           0
     40914 WT15     213      MECN     C1       CG331   -0.170000       12.0110           0
     40915 WT15     213      MECN     H11      HGA3     0.090000        1.0080           0
     40916 WT15     213      MECN     H12      HGA3     0.090000        1.0080           0
     40917 WT15     213      MECN     H13      HGA3     0.090000        1.0080           0
     40918 WT15     213      MECN     C2       CG1N1    0.360000       12.0110           0
     40919 WT15     213      MECN     N3       NG1T1   -0.460000       14.0070           0
     40920 WT15     214      MECN     C1       CG331   -0.170000       12.0110           0
     40921 WT15     214      MECN     H11      HGA3     0.090000        1.0080           0
     40922 WT15     214      MECN     H12      HGA3     0.090000        1.0080           0
     40923 WT15     214      MECN     H13      HGA3     0.090000        1.0080           0
     40924 WT15     214      MECN     C2       CG1N1    0.360000       12.0110           0
     40925 WT15     214      MECN     N3       NG1T1   -0.460000       14.0070           0
     40926 WT15     217      MECN     C1       CG331   -0.170000       12.0110           0
     40927 WT15     217      MECN     H11      HGA3     0.090000        1.0080           0
     40928 WT15     217      MECN     H12      HGA3     0.090000        1.0080           0
     40929 WT15     217      MECN     H13      HGA3     0.090000        1.0080           0
     40930 WT15     217      MECN     C2       CG1N1    0.360000       12.0110           0
     40931 WT15     217      MECN     N3       NG1T1   -0.460000       14.0070           0
     40932 WT15     218      MECN     C1       CG331   -0.170000       12.0110           0
     40933 WT15     218      MECN     H11      HGA3     0.090000        1.0080           0
     40934 WT15     218      MECN     H12      HGA3     0.090000        1.0080           0
     40935 WT15     218      MECN     H13      HGA3     0.090000        1.0080           0
     40936 WT15     218      MECN     C2       CG1N1    0.360000       12.0110           0
     40937 WT15     218      MECN     N3       NG1T1   -0.460000       14.0070           0
     40938 WT15     220      MECN     C1       CG331   -0.170000       12.0110           0
     40939 WT15     220      MECN     H11      HGA3     0.090000        1.0080           0
     40940 WT15     220      MECN     H12      HGA3     0.090000        1.0080           0
     40941 WT15     220      MECN     H13      HGA3     0.090000        1.0080           0
     40942 WT15     220      MECN     C2       CG1N1    0.360000       12.0110           0
     40943 WT15     220      MECN     N3       NG1T1   -0.460000       14.0070           0
     40944 WT15     222      MECN     C1       CG331   -0.170000       12.0110           0
     40945 WT15     222      MECN     H11      HGA3     0.090000        1.0080           0
     40946 WT15     222      MECN     H12      HGA3     0.090000        1.0080           0
     40947 WT15     222      MECN     H13      HGA3     0.090000        1.0080           0
     40948 WT15     222      MECN     C2       CG1N1    0.360000       12.0110           0
     40949 WT15     222      MECN     N3       NG1T1   -0.460000       14.0070           0
     40950 WT15     223      MECN     C1       CG331   -0.170000       12.0110           0
     40951 WT15     223      MECN     H11      HGA3     0.090000        1.0080           0
     40952 WT15     223      MECN     H12      HGA3     0.090000        1.0080           0
     40953 WT15     223      MECN     H13      HGA3     0.090000        1.0080           0
     40954 WT15     223      MECN     C2       CG1N1    0.360000       12.0110           0
     40955 WT15     223      MECN     N3       NG1T1   -0.460000       14.0070           0
     40956 WT15     224      MECN     C1       CG331   -0.170000       12.0110           0
     40957 WT15     224      MECN     H11      HGA3     0.090000        1.0080           0
     40958 WT15     224      MECN     H12      HGA3     0.090000        1.0080           0
     40959 WT15     224      MECN     H13      HGA3     0.090000        1.0080           0
     40960 WT15     224      MECN     C2       CG1N1    0.360000       12.0110           0
     40961 WT15     224      MECN     N3       NG1T1   -0.460000       14.0070           0
     40962 WT15     225      MECN     C1       CG331   -0.170000       12.0110           0
     40963 WT15     225      MECN     H11      HGA3     0.090000        1.0080           0
     40964 WT15     225      MECN     H12      HGA3     0.090000        1.0080           0
     40965 WT15     225      MECN     H13      HGA3     0.090000        1.0080           0
     40966 WT15     225      MECN     C2       CG1N1    0.360000       12.0110           0
     40967 WT15     225      MECN     N3       NG1T1   -0.460000       14.0070           0
     40968 WT15     226      MECN     C1       CG331   -0.170000       12.0110           0
     40969 WT15     226      MECN     H11      HGA3     0.090000        1.0080           0
     40970 WT15     226      MECN     H12      HGA3     0.090000        1.0080           0
     40971 WT15     226      MECN     H13      HGA3     0.090000        1.0080           0
     40972 WT15     226      MECN     C2       CG1N1    0.360000       12.0110           0
     40973 WT15     226      MECN     N3       NG1T1   -0.460000       14.0070           0
     40974 WT15     227      MECN     C1       CG331   -0.170000       12.0110           0
     40975 WT15     227      MECN     H11      HGA3     0.090000        1.0080           0
     40976 WT15     227      MECN     H12      HGA3     0.090000        1.0080           0
     40977 WT15     227      MECN     H13      HGA3     0.090000        1.0080           0
     40978 WT15     227      MECN     C2       CG1N1    0.360000       12.0110           0
     40979 WT15     227      MECN     N3       NG1T1   -0.460000       14.0070           0
     40980 WT15     228      MECN     C1       CG331   -0.170000       12.0110           0
     40981 WT15     228      MECN     H11      HGA3     0.090000        1.0080           0
     40982 WT15     228      MECN     H12      HGA3     0.090000        1.0080           0
     40983 WT15     228      MECN     H13      HGA3     0.090000        1.0080           0
     40984 WT15     228      MECN     C2       CG1N1    0.360000       12.0110           0
     40985 WT15     228      MECN     N3       NG1T1   -0.460000       14.0070           0
     40986 WT15     229      MECN     C1       CG331   -0.170000       12.0110           0
     40987 WT15     229      MECN     H11      HGA3     0.090000        1.0080           0
     40988 WT15     229      MECN     H12      HGA3     0.090000        1.0080           0
     40989 WT15     229      MECN     H13      HGA3     0.090000        1.0080           0
     40990 WT15     229      MECN     C2       CG1N1    0.360000       12.0110           0
     40991 WT15     229      MECN     N3       NG1T1   -0.460000       14.0070           0
     40992 WT15     231      MECN     C1       CG331   -0.170000       12.0110           0
     40993 WT15     231      MECN     H11      HGA3     0.090000        1.0080           0
     40994 WT15     231      MECN     H12      HGA3     0.090000        1.0080           0
     40995 WT15     231      MECN     H13      HGA3     0.090000        1.0080           0
     40996 WT15     231      MECN     C2       CG1N1    0.360000       12.0110           0
     40997 WT15     231      MECN     N3       NG1T1   -0.460000       14.0070           0
     40998 WT15     232      MECN     C1       CG331   -0.170000       12.0110           0
     40999 WT15     232      MECN     H11      HGA3     0.090000        1.0080           0
     41000 WT15     232      MECN     H12      HGA3     0.090000        1.0080           0
     41001 WT15     232      MECN     H13      HGA3     0.090000        1.0080           0
     41002 WT15     232      MECN     C2       CG1N1    0.360000       12.0110           0
     41003 WT15     232      MECN     N3       NG1T1   -0.460000       14.0070           0
     41004 WT15     233      MECN     C1       CG331   -0.170000       12.0110           0
     41005 WT15     233      MECN     H11      HGA3     0.090000        1.0080           0
     41006 WT15     233      MECN     H12      HGA3     0.090000        1.0080           0
     41007 WT15     233      MECN     H13      HGA3     0.090000        1.0080           0
     41008 WT15     233      MECN     C2       CG1N1    0.360000       12.0110           0
     41009 WT15     233      MECN     N3       NG1T1   -0.460000       14.0070           0
     41010 WT15     234      MECN     C1       CG331   -0.170000       12.0110           0
     41011 WT15     234      MECN     H11      HGA3     0.090000        1.0080           0
     41012 WT15     234      MECN     H12      HGA3     0.090000        1.0080           0
     41013 WT15     234      MECN     H13      HGA3     0.090000        1.0080           0
     41014 WT15     234      MECN     C2       CG1N1    0.360000       12.0110           0
     41015 WT15     234      MECN     N3       NG1T1   -0.460000       14.0070           0
     41016 WT15     235      MECN     C1       CG331   -0.170000       12.0110           0
     41017 WT15     235      MECN     H11      HGA3     0.090000        1.0080           0
     41018 WT15     235      MECN     H12      HGA3     0.090000        1.0080           0
     41019 WT15     235      MECN     H13      HGA3     0.090000        1.0080           0
     41020 WT15     235      MECN     C2       CG1N1    0.360000       12.0110           0
     41021 WT15     235      MECN     N3       NG1T1   -0.460000       14.0070           0
     41022 WT15     236      MECN     C1       CG331   -0.170000       12.0110           0
     41023 WT15     236      MECN     H11      HGA3     0.090000        1.0080           0
     41024 WT15     236      MECN     H12      HGA3     0.090000        1.0080           0
     41025 WT15     236      MECN     H13      HGA3     0.090000        1.0080           0
     41026 WT15     236      MECN     C2       CG1N1    0.360000       12.0110           0
     41027 WT15     236      MECN     N3       NG1T1   -0.460000       14.0070           0
     41028 WT15     237      MECN     C1       CG331   -0.170000       12.0110           0
     41029 WT15     237      MECN     H11      HGA3     0.090000        1.0080           0
     41030 WT15     237      MECN     H12      HGA3     0.090000        1.0080           0
     41031 WT15     237      MECN     H13      HGA3     0.090000        1.0080           0
     41032 WT15     237      MECN     C2       CG1N1    0.360000       12.0110           0
     41033 WT15     237      MECN     N3       NG1T1   -0.460000       14.0070           0
     41034 WT15     238      MECN     C1       CG331   -0.170000       12.0110           0
     41035 WT15     238      MECN     H11      HGA3     0.090000        1.0080           0
     41036 WT15     238      MECN     H12      HGA3     0.090000        1.0080           0
     41037 WT15     238      MECN     H13      HGA3     0.090000        1.0080           0
     41038 WT15     238      MECN     C2       CG1N1    0.360000       12.0110           0
     41039 WT15     238      MECN     N3       NG1T1   -0.460000       14.0070           0
     41040 WT15     239      MECN     C1       CG331   -0.170000       12.0110           0
     41041 WT15     239      MECN     H11      HGA3     0.090000        1.0080           0
     41042 WT15     239      MECN     H12      HGA3     0.090000        1.0080           0
     41043 WT15     239      MECN     H13      HGA3     0.090000        1.0080           0
     41044 WT15     239      MECN     C2       CG1N1    0.360000       12.0110           0
     41045 WT15     239      MECN     N3       NG1T1   -0.460000       14.0070           0
     41046 WT15     240      MECN     C1       CG331   -0.170000       12.0110           0
     41047 WT15     240      MECN     H11      HGA3     0.090000        1.0080           0
     41048 WT15     240      MECN     H12      HGA3     0.090000        1.0080           0
     41049 WT15     240      MECN     H13      HGA3     0.090000        1.0080           0
     41050 WT15     240      MECN     C2       CG1N1    0.360000       12.0110           0
     41051 WT15     240      MECN     N3       NG1T1   -0.460000       14.0070           0
     41052 WT15     243      MECN     C1       CG331   -0.170000       12.0110           0
     41053 WT15     243      MECN     H11      HGA3     0.090000        1.0080           0
     41054 WT15     243      MECN     H12      HGA3     0.090000        1.0080           0
     41055 WT15     243      MECN     H13      HGA3     0.090000        1.0080           0
     41056 WT15     243      MECN     C2       CG1N1    0.360000       12.0110           0
     41057 WT15     243      MECN     N3       NG1T1   -0.460000       14.0070           0
     41058 WT15     244      MECN     C1       CG331   -0.170000       12.0110           0
     41059 WT15     244      MECN     H11      HGA3     0.090000        1.0080           0
     41060 WT15     244      MECN     H12      HGA3     0.090000        1.0080           0
     41061 WT15     244      MECN     H13      HGA3     0.090000        1.0080           0
     41062 WT15     244      MECN     C2       CG1N1    0.360000       12.0110           0
     41063 WT15     244      MECN     N3       NG1T1   -0.460000       14.0070           0
     41064 WT15     246      MECN     C1       CG331   -0.170000       12.0110           0
     41065 WT15     246      MECN     H11      HGA3     0.090000        1.0080           0
     41066 WT15     246      MECN     H12      HGA3     0.090000        1.0080           0
     41067 WT15     246      MECN     H13      HGA3     0.090000        1.0080           0
     41068 WT15     246      MECN     C2       CG1N1    0.360000       12.0110           0
     41069 WT15     246      MECN     N3       NG1T1   -0.460000       14.0070           0
     41070 WT15     249      MECN     C1       CG331   -0.170000       12.0110           0
     41071 WT15     249      MECN     H11      HGA3     0.090000        1.0080           0
     41072 WT15     249      MECN     H12      HGA3     0.090000        1.0080           0
     41073 WT15     249      MECN     H13      HGA3     0.090000        1.0080           0
     41074 WT15     249      MECN     C2       CG1N1    0.360000       12.0110           0
     41075 WT15     249      MECN     N3       NG1T1   -0.460000       14.0070           0
     41076 WT15     250      MECN     C1       CG331   -0.170000       12.0110           0
     41077 WT15     250      MECN     H11      HGA3     0.090000        1.0080           0
     41078 WT15     250      MECN     H12      HGA3     0.090000        1.0080           0
     41079 WT15     250      MECN     H13      HGA3     0.090000        1.0080           0
     41080 WT15     250      MECN     C2       CG1N1    0.360000       12.0110           0
     41081 WT15     250      MECN     N3       NG1T1   -0.460000       14.0070           0
     41082 WT15     251      MECN     C1       CG331   -0.170000       12.0110           0
     41083 WT15     251      MECN     H11      HGA3     0.090000        1.0080           0
     41084 WT15     251      MECN     H12      HGA3     0.090000        1.0080           0
     41085 WT15     251      MECN     H13      HGA3     0.090000        1.0080           0
     41086 WT15     251      MECN     C2       CG1N1    0.360000       12.0110           0
     41087 WT15     251      MECN     N3       NG1T1   -0.460000       14.0070           0
     41088 WT15     252      MECN     C1       CG331   -0.170000       12.0110           0
     41089 WT15     252      MECN     H11      HGA3     0.090000        1.0080           0
     41090 WT15     252      MECN     H12      HGA3     0.090000        1.0080           0
     41091 WT15     252      MECN     H13      HGA3     0.090000        1.0080           0
     41092 WT15     252      MECN     C2       CG1N1    0.360000       12.0110           0
     41093 WT15     252      MECN     N3       NG1T1   -0.460000       14.0070           0
     41094 WT15     254      MECN     C1       CG331   -0.170000       12.0110           0
     41095 WT15     254      MECN     H11      HGA3     0.090000        1.0080           0
     41096 WT15     254      MECN     H12      HGA3     0.090000        1.0080           0
     41097 WT15     254      MECN     H13      HGA3     0.090000        1.0080           0
     41098 WT15     254      MECN     C2       CG1N1    0.360000       12.0110           0
     41099 WT15     254      MECN     N3       NG1T1   -0.460000       14.0070           0
     41100 WT15     255      MECN     C1       CG331   -0.170000       12.0110           0
     41101 WT15     255      MECN     H11      HGA3     0.090000        1.0080           0
     41102 WT15     255      MECN     H12      HGA3     0.090000        1.0080           0
     41103 WT15     255      MECN     H13      HGA3     0.090000        1.0080           0
     41104 WT15     255      MECN     C2       CG1N1    0.360000       12.0110           0
     41105 WT15     255      MECN     N3       NG1T1   -0.460000       14.0070           0
     41106 WT15     257      MECN     C1       CG331   -0.170000       12.0110           0
     41107 WT15     257      MECN     H11      HGA3     0.090000        1.0080           0
     41108 WT15     257      MECN     H12      HGA3     0.090000        1.0080           0
     41109 WT15     257      MECN     H13      HGA3     0.090000        1.0080           0
     41110 WT15     257      MECN     C2       CG1N1    0.360000       12.0110           0
     41111 WT15     257      MECN     N3       NG1T1   -0.460000       14.0070           0
     41112 WT15     258      MECN     C1       CG331   -0.170000       12.0110           0
     41113 WT15     258      MECN     H11      HGA3     0.090000        1.0080           0
     41114 WT15     258      MECN     H12      HGA3     0.090000        1.0080           0
     41115 WT15     258      MECN     H13      HGA3     0.090000        1.0080           0
     41116 WT15     258      MECN     C2       CG1N1    0.360000       12.0110           0
     41117 WT15     258      MECN     N3       NG1T1   -0.460000       14.0070           0
     41118 WT15     259      MECN     C1       CG331   -0.170000       12.0110           0
     41119 WT15     259      MECN     H11      HGA3     0.090000        1.0080           0
     41120 WT15     259      MECN     H12      HGA3     0.090000        1.0080           0
     41121 WT15     259      MECN     H13      HGA3     0.090000        1.0080           0
     41122 WT15     259      MECN     C2       CG1N1    0.360000       12.0110           0
     41123 WT15     259      MECN     N3       NG1T1   -0.460000       14.0070           0
     41124 WT15     261      MECN     C1       CG331   -0.170000       12.0110           0
     41125 WT15     261      MECN     H11      HGA3     0.090000        1.0080           0
     41126 WT15     261      MECN     H12      HGA3     0.090000        1.0080           0
     41127 WT15     261      MECN     H13      HGA3     0.090000        1.0080           0
     41128 WT15     261      MECN     C2       CG1N1    0.360000       12.0110           0
     41129 WT15     261      MECN     N3       NG1T1   -0.460000       14.0070           0
     41130 WT15     262      MECN     C1       CG331   -0.170000       12.0110           0
     41131 WT15     262      MECN     H11      HGA3     0.090000        1.0080           0
     41132 WT15     262      MECN     H12      HGA3     0.090000        1.0080           0
     41133 WT15     262      MECN     H13      HGA3     0.090000        1.0080           0
     41134 WT15     262      MECN     C2       CG1N1    0.360000       12.0110           0
     41135 WT15     262      MECN     N3       NG1T1   -0.460000       14.0070           0
     41136 WT15     263      MECN     C1       CG331   -0.170000       12.0110           0
     41137 WT15     263      MECN     H11      HGA3     0.090000        1.0080           0
     41138 WT15     263      MECN     H12      HGA3     0.090000        1.0080           0
     41139 WT15     263      MECN     H13      HGA3     0.090000        1.0080           0
     41140 WT15     263      MECN     C2       CG1N1    0.360000       12.0110           0
     41141 WT15     263      MECN     N3       NG1T1   -0.460000       14.0070           0
     41142 WT15     264      MECN     C1       CG331   -0.170000       12.0110           0
     41143 WT15     264      MECN     H11      HGA3     0.090000        1.0080           0
     41144 WT15     264      MECN     H12      HGA3     0.090000        1.0080           0
     41145 WT15     264      MECN     H13      HGA3     0.090000        1.0080           0
     41146 WT15     264      MECN     C2       CG1N1    0.360000       12.0110           0
     41147 WT15     264      MECN     N3       NG1T1   -0.460000       14.0070           0
     41148 WT15     265      MECN     C1       CG331   -0.170000       12.0110           0
     41149 WT15     265      MECN     H11      HGA3     0.090000        1.0080           0
     41150 WT15     265      MECN     H12      HGA3     0.090000        1.0080           0
     41151 WT15     265      MECN     H13      HGA3     0.090000        1.0080           0
     41152 WT15     265      MECN     C2       CG1N1    0.360000       12.0110           0
     41153 WT15     265      MECN     N3       NG1T1   -0.460000       14.0070           0
     41154 WT15     267      MECN     C1       CG331   -0.170000       12.0110           0
     41155 WT15     267      MECN     H11      HGA3     0.090000        1.0080           0
     41156 WT15     267      MECN     H12      HGA3     0.090000        1.0080           0
     41157 WT15     267      MECN     H13      HGA3     0.090000        1.0080           0
     41158 WT15     267      MECN     C2       CG1N1    0.360000       12.0110           0
     41159 WT15     267      MECN     N3       NG1T1   -0.460000       14.0070           0
     41160 WT15     268      MECN     C1       CG331   -0.170000       12.0110           0
     41161 WT15     268      MECN     H11      HGA3     0.090000        1.0080           0
     41162 WT15     268      MECN     H12      HGA3     0.090000        1.0080           0
     41163 WT15     268      MECN     H13      HGA3     0.090000        1.0080           0
     41164 WT15     268      MECN     C2       CG1N1    0.360000       12.0110           0
     41165 WT15     268      MECN     N3       NG1T1   -0.460000       14.0070           0
     41166 WT15     269      MECN     C1       CG331   -0.170000       12.0110           0
     41167 WT15     269      MECN     H11      HGA3     0.090000        1.0080           0
     41168 WT15     269      MECN     H12      HGA3     0.090000        1.0080           0
     41169 WT15     269      MECN     H13      HGA3     0.090000        1.0080           0
     41170 WT15     269      MECN     C2       CG1N1    0.360000       12.0110           0
     41171 WT15     269      MECN     N3       NG1T1   -0.460000       14.0070           0
     41172 WT15     275      MECN     C1       CG331   -0.170000       12.0110           0
     41173 WT15     275      MECN     H11      HGA3     0.090000        1.0080           0
     41174 WT15     275      MECN     H12      HGA3     0.090000        1.0080           0
     41175 WT15     275      MECN     H13      HGA3     0.090000        1.0080           0
     41176 WT15     275      MECN     C2       CG1N1    0.360000       12.0110           0
     41177 WT15     275      MECN     N3       NG1T1   -0.460000       14.0070           0
     41178 WT15     276      MECN     C1       CG331   -0.170000       12.0110           0
     41179 WT15     276      MECN     H11      HGA3     0.090000        1.0080           0
     41180 WT15     276      MECN     H12      HGA3     0.090000        1.0080           0
     41181 WT15     276      MECN     H13      HGA3     0.090000        1.0080           0
     41182 WT15     276      MECN     C2       CG1N1    0.360000       12.0110           0
     41183 WT15     276      MECN     N3       NG1T1   -0.460000       14.0070           0
     41184 WT15     277      MECN     C1       CG331   -0.170000       12.0110           0
     41185 WT15     277      MECN     H11      HGA3     0.090000        1.0080           0
     41186 WT15     277      MECN     H12      HGA3     0.090000        1.0080           0
     41187 WT15     277      MECN     H13      HGA3     0.090000        1.0080           0
     41188 WT15     277      MECN     C2       CG1N1    0.360000       12.0110           0
     41189 WT15     277      MECN     N3       NG1T1   -0.460000       14.0070           0
     41190 WT15     278      MECN     C1       CG331   -0.170000       12.0110           0
     41191 WT15     278      MECN     H11      HGA3     0.090000        1.0080           0
     41192 WT15     278      MECN     H12      HGA3     0.090000        1.0080           0
     41193 WT15     278      MECN     H13      HGA3     0.090000        1.0080           0
     41194 WT15     278      MECN     C2       CG1N1    0.360000       12.0110           0
     41195 WT15     278      MECN     N3       NG1T1   -0.460000       14.0070           0
     41196 WT15     279      MECN     C1       CG331   -0.170000       12.0110           0
     41197 WT15     279      MECN     H11      HGA3     0.090000        1.0080           0
     41198 WT15     279      MECN     H12      HGA3     0.090000        1.0080           0
     41199 WT15     279      MECN     H13      HGA3     0.090000        1.0080           0
     41200 WT15     279      MECN     C2       CG1N1    0.360000       12.0110           0
     41201 WT15     279      MECN     N3       NG1T1   -0.460000       14.0070           0
     41202 WT15     280      MECN     C1       CG331   -0.170000       12.0110           0
     41203 WT15     280      MECN     H11      HGA3     0.090000        1.0080           0
     41204 WT15     280      MECN     H12      HGA3     0.090000        1.0080           0
     41205 WT15     280      MECN     H13      HGA3     0.090000        1.0080           0
     41206 WT15     280      MECN     C2       CG1N1    0.360000       12.0110           0
     41207 WT15     280      MECN     N3       NG1T1   -0.460000       14.0070           0
     41208 WT15     281      MECN     C1       CG331   -0.170000       12.0110           0
     41209 WT15     281      MECN     H11      HGA3     0.090000        1.0080           0
     41210 WT15     281      MECN     H12      HGA3     0.090000        1.0080           0
     41211 WT15     281      MECN     H13      HGA3     0.090000        1.0080           0
     41212 WT15     281      MECN     C2       CG1N1    0.360000       12.0110           0
     41213 WT15     281      MECN     N3       NG1T1   -0.460000       14.0070           0
     41214 WT15     282      MECN     C1       CG331   -0.170000       12.0110           0
     41215 WT15     282      MECN     H11      HGA3     0.090000        1.0080           0
     41216 WT15     282      MECN     H12      HGA3     0.090000        1.0080           0
     41217 WT15     282      MECN     H13      HGA3     0.090000        1.0080           0
     41218 WT15     282      MECN     C2       CG1N1    0.360000       12.0110           0
     41219 WT15     282      MECN     N3       NG1T1   -0.460000       14.0070           0
     41220 WT15     283      MECN     C1       CG331   -0.170000       12.0110           0
     41221 WT15     283      MECN     H11      HGA3     0.090000        1.0080           0
     41222 WT15     283      MECN     H12      HGA3     0.090000        1.0080           0
     41223 WT15     283      MECN     H13      HGA3     0.090000        1.0080           0
     41224 WT15     283      MECN     C2       CG1N1    0.360000       12.0110           0
     41225 WT15     283      MECN     N3       NG1T1   -0.460000       14.0070           0
     41226 WT15     284      MECN     C1       CG331   -0.170000       12.0110           0
     41227 WT15     284      MECN     H11      HGA3     0.090000        1.0080           0
     41228 WT15     284      MECN     H12      HGA3     0.090000        1.0080           0
     41229 WT15     284      MECN     H13      HGA3     0.090000        1.0080           0
     41230 WT15     284      MECN     C2       CG1N1    0.360000       12.0110           0
     41231 WT15     284      MECN     N3       NG1T1   -0.460000       14.0070           0
     41232 WT15     285      MECN     C1       CG331   -0.170000       12.0110           0
     41233 WT15     285      MECN     H11      HGA3     0.090000        1.0080           0
     41234 WT15     285      MECN     H12      HGA3     0.090000        1.0080           0
     41235 WT15     285      MECN     H13      HGA3     0.090000        1.0080           0
     41236 WT15     285      MECN     C2       CG1N1    0.360000       12.0110           0
     41237 WT15     285      MECN     N3       NG1T1   -0.460000       14.0070           0
     41238 WT15     286      MECN     C1       CG331   -0.170000       12.0110           0
     41239 WT15     286      MECN     H11      HGA3     0.090000        1.0080           0
     41240 WT15     286      MECN     H12      HGA3     0.090000        1.0080           0
     41241 WT15     286      MECN     H13      HGA3     0.090000        1.0080           0
     41242 WT15     286      MECN     C2       CG1N1    0.360000       12.0110           0
     41243 WT15     286      MECN     N3       NG1T1   -0.460000       14.0070           0
     41244 WT15     288      MECN     C1       CG331   -0.170000       12.0110           0
     41245 WT15     288      MECN     H11      HGA3     0.090000        1.0080           0
     41246 WT15     288      MECN     H12      HGA3     0.090000        1.0080           0
     41247 WT15     288      MECN     H13      HGA3     0.090000        1.0080           0
     41248 WT15     288      MECN     C2       CG1N1    0.360000       12.0110           0
     41249 WT15     288      MECN     N3       NG1T1   -0.460000       14.0070           0
     41250 WT15     290      MECN     C1       CG331   -0.170000       12.0110           0
     41251 WT15     290      MECN     H11      HGA3     0.090000        1.0080           0
     41252 WT15     290      MECN     H12      HGA3     0.090000        1.0080           0
     41253 WT15     290      MECN     H13      HGA3     0.090000        1.0080           0
     41254 WT15     290      MECN     C2       CG1N1    0.360000       12.0110           0
     41255 WT15     290      MECN     N3       NG1T1   -0.460000       14.0070           0
     41256 WT15     291      MECN     C1       CG331   -0.170000       12.0110           0
     41257 WT15     291      MECN     H11      HGA3     0.090000        1.0080           0
     41258 WT15     291      MECN     H12      HGA3     0.090000        1.0080           0
     41259 WT15     291      MECN     H13      HGA3     0.090000        1.0080           0
     41260 WT15     291      MECN     C2       CG1N1    0.360000       12.0110           0
     41261 WT15     291      MECN     N3       NG1T1   -0.460000       14.0070           0
     41262 WT15     293      MECN     C1       CG331   -0.170000       12.0110           0
     41263 WT15     293      MECN     H11      HGA3     0.090000        1.0080           0
     41264 WT15     293      MECN     H12      HGA3     0.090000        1.0080           0
     41265 WT15     293      MECN     H13      HGA3     0.090000        1.0080           0
     41266 WT15     293      MECN     C2       CG1N1    0.360000       12.0110           0
     41267 WT15     293      MECN     N3       NG1T1   -0.460000       14.0070           0
     41268 WT15     294      MECN     C1       CG331   -0.170000       12.0110           0
     41269 WT15     294      MECN     H11      HGA3     0.090000        1.0080           0
     41270 WT15     294      MECN     H12      HGA3     0.090000        1.0080           0
     41271 WT15     294      MECN     H13      HGA3     0.090000        1.0080           0
     41272 WT15     294      MECN     C2       CG1N1    0.360000       12.0110           0
     41273 WT15     294      MECN     N3       NG1T1   -0.460000       14.0070           0
     41274 WT15     295      MECN     C1       CG331   -0.170000       12.0110           0
     41275 WT15     295      MECN     H11      HGA3     0.090000        1.0080           0
     41276 WT15     295      MECN     H12      HGA3     0.090000        1.0080           0
     41277 WT15     295      MECN     H13      HGA3     0.090000        1.0080           0
     41278 WT15     295      MECN     C2       CG1N1    0.360000       12.0110           0
     41279 WT15     295      MECN     N3       NG1T1   -0.460000       14.0070           0
     41280 WT15     296      MECN     C1       CG331   -0.170000       12.0110           0
     41281 WT15     296      MECN     H11      HGA3     0.090000        1.0080           0
     41282 WT15     296      MECN     H12      HGA3     0.090000        1.0080           0
     41283 WT15     296      MECN     H13      HGA3     0.090000        1.0080           0
     41284 WT15     296      MECN     C2       CG1N1    0.360000       12.0110           0
     41285 WT15     296      MECN     N3       NG1T1   -0.460000       14.0070           0
     41286 WT15     301      MECN     C1       CG331   -0.170000       12.0110           0
     41287 WT15     301      MECN     H11      HGA3     0.090000        1.0080           0
     41288 WT15     301      MECN     H12      HGA3     0.090000        1.0080           0
     41289 WT15     301      MECN     H13      HGA3     0.090000        1.0080           0
     41290 WT15     301      MECN     C2       CG1N1    0.360000       12.0110           0
     41291 WT15     301      MECN     N3       NG1T1   -0.460000       14.0070           0
     41292 WT15     302      MECN     C1       CG331   -0.170000       12.0110           0
     41293 WT15     302      MECN     H11      HGA3     0.090000        1.0080           0
     41294 WT15     302      MECN     H12      HGA3     0.090000        1.0080           0
     41295 WT15     302      MECN     H13      HGA3     0.090000        1.0080           0
     41296 WT15     302      MECN     C2       CG1N1    0.360000       12.0110           0
     41297 WT15     302      MECN     N3       NG1T1   -0.460000       14.0070           0
     41298 WT15     303      MECN     C1       CG331   -0.170000       12.0110           0
     41299 WT15     303      MECN     H11      HGA3     0.090000        1.0080           0
     41300 WT15     303      MECN     H12      HGA3     0.090000        1.0080           0
     41301 WT15     303      MECN     H13      HGA3     0.090000        1.0080           0
     41302 WT15     303      MECN     C2       CG1N1    0.360000       12.0110           0
     41303 WT15     303      MECN     N3       NG1T1   -0.460000       14.0070           0
     41304 WT15     304      MECN     C1       CG331   -0.170000       12.0110           0
     41305 WT15     304      MECN     H11      HGA3     0.090000        1.0080           0
     41306 WT15     304      MECN     H12      HGA3     0.090000        1.0080           0
     41307 WT15     304      MECN     H13      HGA3     0.090000        1.0080           0
     41308 WT15     304      MECN     C2       CG1N1    0.360000       12.0110           0
     41309 WT15     304      MECN     N3       NG1T1   -0.460000       14.0070           0
     41310 WT15     305      MECN     C1       CG331   -0.170000       12.0110           0
     41311 WT15     305      MECN     H11      HGA3     0.090000        1.0080           0
     41312 WT15     305      MECN     H12      HGA3     0.090000        1.0080           0
     41313 WT15     305      MECN     H13      HGA3     0.090000        1.0080           0
     41314 WT15     305      MECN     C2       CG1N1    0.360000       12.0110           0
     41315 WT15     305      MECN     N3       NG1T1   -0.460000       14.0070           0
     41316 WT15     307      MECN     C1       CG331   -0.170000       12.0110           0
     41317 WT15     307      MECN     H11      HGA3     0.090000        1.0080           0
     41318 WT15     307      MECN     H12      HGA3     0.090000        1.0080           0
     41319 WT15     307      MECN     H13      HGA3     0.090000        1.0080           0
     41320 WT15     307      MECN     C2       CG1N1    0.360000       12.0110           0
     41321 WT15     307      MECN     N3       NG1T1   -0.460000       14.0070           0
     41322 WT15     308      MECN     C1       CG331   -0.170000       12.0110           0
     41323 WT15     308      MECN     H11      HGA3     0.090000        1.0080           0
     41324 WT15     308      MECN     H12      HGA3     0.090000        1.0080           0
     41325 WT15     308      MECN     H13      HGA3     0.090000        1.0080           0
     41326 WT15     308      MECN     C2       CG1N1    0.360000       12.0110           0
     41327 WT15     308      MECN     N3       NG1T1   -0.460000       14.0070           0
     41328 WT15     309      MECN     C1       CG331   -0.170000       12.0110           0
     41329 WT15     309      MECN     H11      HGA3     0.090000        1.0080           0
     41330 WT15     309      MECN     H12      HGA3     0.090000        1.0080           0
     41331 WT15     309      MECN     H13      HGA3     0.090000        1.0080           0
     41332 WT15     309      MECN     C2       CG1N1    0.360000       12.0110           0
     41333 WT15     309      MECN     N3       NG1T1   -0.460000       14.0070           0
     41334 WT15     311      MECN     C1       CG331   -0.170000       12.0110           0
     41335 WT15     311      MECN     H11      HGA3     0.090000        1.0080           0
     41336 WT15     311      MECN     H12      HGA3     0.090000        1.0080           0
     41337 WT15     311      MECN     H13      HGA3     0.090000        1.0080           0
     41338 WT15     311      MECN     C2       CG1N1    0.360000       12.0110           0
     41339 WT15     311      MECN     N3       NG1T1   -0.460000       14.0070           0
     41340 WT15     314      MECN     C1       CG331   -0.170000       12.0110           0
     41341 WT15     314      MECN     H11      HGA3     0.090000        1.0080           0
     41342 WT15     314      MECN     H12      HGA3     0.090000        1.0080           0
     41343 WT15     314      MECN     H13      HGA3     0.090000        1.0080           0
     41344 WT15     314      MECN     C2       CG1N1    0.360000       12.0110           0
     41345 WT15     314      MECN     N3       NG1T1   -0.460000       14.0070           0
     41346 WT15     316      MECN     C1       CG331   -0.170000       12.0110           0
     41347 WT15     316      MECN     H11      HGA3     0.090000        1.0080           0
     41348 WT15     316      MECN     H12      HGA3     0.090000        1.0080           0
     41349 WT15     316      MECN     H13      HGA3     0.090000        1.0080           0
     41350 WT15     316      MECN     C2       CG1N1    0.360000       12.0110           0
     41351 WT15     316      MECN     N3       NG1T1   -0.460000       14.0070           0
     41352 WT15     318      MECN     C1       CG331   -0.170000       12.0110           0
     41353 WT15     318      MECN     H11      HGA3     0.090000        1.0080           0
     41354 WT15     318      MECN     H12      HGA3     0.090000        1.0080           0
     41355 WT15     318      MECN     H13      HGA3     0.090000        1.0080           0
     41356 WT15     318      MECN     C2       CG1N1    0.360000       12.0110           0
     41357 WT15     318      MECN     N3       NG1T1   -0.460000       14.0070           0
     41358 WT15     319      MECN     C1       CG331   -0.170000       12.0110           0
     41359 WT15     319      MECN     H11      HGA3     0.090000        1.0080           0
     41360 WT15     319      MECN     H12      HGA3     0.090000        1.0080           0
     41361 WT15     319      MECN     H13      HGA3     0.090000        1.0080           0
     41362 WT15     319      MECN     C2       CG1N1    0.360000       12.0110           0
     41363 WT15     319      MECN     N3       NG1T1   -0.460000       14.0070           0
     41364 WT15     320      MECN     C1       CG331   -0.170000       12.0110           0
     41365 WT15     320      MECN     H11      HGA3     0.090000        1.0080           0
     41366 WT15     320      MECN     H12      HGA3     0.090000        1.0080           0
     41367 WT15     320      MECN     H13      HGA3     0.090000        1.0080           0
     41368 WT15     320      MECN     C2       CG1N1    0.360000       12.0110           0
     41369 WT15     320      MECN     N3       NG1T1   -0.460000       14.0070           0
     41370 WT15     321      MECN     C1       CG331   -0.170000       12.0110           0
     41371 WT15     321      MECN     H11      HGA3     0.090000        1.0080           0
     41372 WT15     321      MECN     H12      HGA3     0.090000        1.0080           0
     41373 WT15     321      MECN     H13      HGA3     0.090000        1.0080           0
     41374 WT15     321      MECN     C2       CG1N1    0.360000       12.0110           0
     41375 WT15     321      MECN     N3       NG1T1   -0.460000       14.0070           0
     41376 WT15     323      MECN     C1       CG331   -0.170000       12.0110           0
     41377 WT15     323      MECN     H11      HGA3     0.090000        1.0080           0
     41378 WT15     323      MECN     H12      HGA3     0.090000        1.0080           0
     41379 WT15     323      MECN     H13      HGA3     0.090000        1.0080           0
     41380 WT15     323      MECN     C2       CG1N1    0.360000       12.0110           0
     41381 WT15     323      MECN     N3       NG1T1   -0.460000       14.0070           0
     41382 WT15     324      MECN     C1       CG331   -0.170000       12.0110           0
     41383 WT15     324      MECN     H11      HGA3     0.090000        1.0080           0
     41384 WT15     324      MECN     H12      HGA3     0.090000        1.0080           0
     41385 WT15     324      MECN     H13      HGA3     0.090000        1.0080           0
     41386 WT15     324      MECN     C2       CG1N1    0.360000       12.0110           0
     41387 WT15     324      MECN     N3       NG1T1   -0.460000       14.0070           0
     41388 WT15     326      MECN     C1       CG331   -0.170000       12.0110           0
     41389 WT15     326      MECN     H11      HGA3     0.090000        1.0080           0
     41390 WT15     326      MECN     H12      HGA3     0.090000        1.0080           0
     41391 WT15     326      MECN     H13      HGA3     0.090000        1.0080           0
     41392 WT15     326      MECN     C2       CG1N1    0.360000       12.0110           0
     41393 WT15     326      MECN     N3       NG1T1   -0.460000       14.0070           0
     41394 WT15     329      MECN     C1       CG331   -0.170000       12.0110           0
     41395 WT15     329      MECN     H11      HGA3     0.090000        1.0080           0
     41396 WT15     329      MECN     H12      HGA3     0.090000        1.0080           0
     41397 WT15     329      MECN     H13      HGA3     0.090000        1.0080           0
     41398 WT15     329      MECN     C2       CG1N1    0.360000       12.0110           0
     41399 WT15     329      MECN     N3       NG1T1   -0.460000       14.0070           0
     41400 WT15     330      MECN     C1       CG331   -0.170000       12.0110           0
     41401 WT15     330      MECN     H11      HGA3     0.090000        1.0080           0
     41402 WT15     330      MECN     H12      HGA3     0.090000        1.0080           0
     41403 WT15     330      MECN     H13      HGA3     0.090000        1.0080           0
     41404 WT15     330      MECN     C2       CG1N1    0.360000       12.0110           0
     41405 WT15     330      MECN     N3       NG1T1   -0.460000       14.0070           0
     41406 WT15     331      MECN     C1       CG331   -0.170000       12.0110           0
     41407 WT15     331      MECN     H11      HGA3     0.090000        1.0080           0
     41408 WT15     331      MECN     H12      HGA3     0.090000        1.0080           0
     41409 WT15     331      MECN     H13      HGA3     0.090000        1.0080           0
     41410 WT15     331      MECN     C2       CG1N1    0.360000       12.0110           0
     41411 WT15     331      MECN     N3       NG1T1   -0.460000       14.0070           0
     41412 WT15     334      MECN     C1       CG331   -0.170000       12.0110           0
     41413 WT15     334      MECN     H11      HGA3     0.090000        1.0080           0
     41414 WT15     334      MECN     H12      HGA3     0.090000        1.0080           0
     41415 WT15     334      MECN     H13      HGA3     0.090000        1.0080           0
     41416 WT15     334      MECN     C2       CG1N1    0.360000       12.0110           0
     41417 WT15     334      MECN     N3       NG1T1   -0.460000       14.0070           0
     41418 WT15     337      MECN     C1       CG331   -0.170000       12.0110           0
     41419 WT15     337      MECN     H11      HGA3     0.090000        1.0080           0
     41420 WT15     337      MECN     H12      HGA3     0.090000        1.0080           0
     41421 WT15     337      MECN     H13      HGA3     0.090000        1.0080           0
     41422 WT15     337      MECN     C2       CG1N1    0.360000       12.0110           0
     41423 WT15     337      MECN     N3       NG1T1   -0.460000       14.0070           0
     41424 WT15     341      MECN     C1       CG331   -0.170000       12.0110           0
     41425 WT15     341      MECN     H11      HGA3     0.090000        1.0080           0
     41426 WT15     341      MECN     H12      HGA3     0.090000        1.0080           0
     41427 WT15     341      MECN     H13      HGA3     0.090000        1.0080           0
     41428 WT15     341      MECN     C2       CG1N1    0.360000       12.0110           0
     41429 WT15     341      MECN     N3       NG1T1   -0.460000       14.0070           0
     41430 WT15     343      MECN     C1       CG331   -0.170000       12.0110           0
     41431 WT15     343      MECN     H11      HGA3     0.090000        1.0080           0
     41432 WT15     343      MECN     H12      HGA3     0.090000        1.0080           0
     41433 WT15     343      MECN     H13      HGA3     0.090000        1.0080           0
     41434 WT15     343      MECN     C2       CG1N1    0.360000       12.0110           0
     41435 WT15     343      MECN     N3       NG1T1   -0.460000       14.0070           0
     41436 WT15     345      MECN     C1       CG331   -0.170000       12.0110           0
     41437 WT15     345      MECN     H11      HGA3     0.090000        1.0080           0
     41438 WT15     345      MECN     H12      HGA3     0.090000        1.0080           0
     41439 WT15     345      MECN     H13      HGA3     0.090000        1.0080           0
     41440 WT15     345      MECN     C2       CG1N1    0.360000       12.0110           0
     41441 WT15     345      MECN     N3       NG1T1   -0.460000       14.0070           0
     41442 WT15     346      MECN     C1       CG331   -0.170000       12.0110           0
     41443 WT15     346      MECN     H11      HGA3     0.090000        1.0080           0
     41444 WT15     346      MECN     H12      HGA3     0.090000        1.0080           0
     41445 WT15     346      MECN     H13      HGA3     0.090000        1.0080           0
     41446 WT15     346      MECN     C2       CG1N1    0.360000       12.0110           0
     41447 WT15     346      MECN     N3       NG1T1   -0.460000       14.0070           0
     41448 WT15     347      MECN     C1       CG331   -0.170000       12.0110           0
     41449 WT15     347      MECN     H11      HGA3     0.090000        1.0080           0
     41450 WT15     347      MECN     H12      HGA3     0.090000        1.0080           0
     41451 WT15     347      MECN     H13      HGA3     0.090000        1.0080           0
     41452 WT15     347      MECN     C2       CG1N1    0.360000       12.0110           0
     41453 WT15     347      MECN     N3       NG1T1   -0.460000       14.0070           0
     41454 WT15     348      MECN     C1       CG331   -0.170000       12.0110           0
     41455 WT15     348      MECN     H11      HGA3     0.090000        1.0080           0
     41456 WT15     348      MECN     H12      HGA3     0.090000        1.0080           0
     41457 WT15     348      MECN     H13      HGA3     0.090000        1.0080           0
     41458 WT15     348      MECN     C2       CG1N1    0.360000       12.0110           0
     41459 WT15     348      MECN     N3       NG1T1   -0.460000       14.0070           0
     41460 WT15     350      MECN     C1       CG331   -0.170000       12.0110           0
     41461 WT15     350      MECN     H11      HGA3     0.090000        1.0080           0
     41462 WT15     350      MECN     H12      HGA3     0.090000        1.0080           0
     41463 WT15     350      MECN     H13      HGA3     0.090000        1.0080           0
     41464 WT15     350      MECN     C2       CG1N1    0.360000       12.0110           0
     41465 WT15     350      MECN     N3       NG1T1   -0.460000       14.0070           0
     41466 WT15     351      MECN     C1       CG331   -0.170000       12.0110           0
     41467 WT15     351      MECN     H11      HGA3     0.090000        1.0080           0
     41468 WT15     351      MECN     H12      HGA3     0.090000        1.0080           0
     41469 WT15     351      MECN     H13      HGA3     0.090000        1.0080           0
     41470 WT15     351      MECN     C2       CG1N1    0.360000       12.0110           0
     41471 WT15     351      MECN     N3       NG1T1   -0.460000       14.0070           0
     41472 WT15     352      MECN     C1       CG331   -0.170000       12.0110           0
     41473 WT15     352      MECN     H11      HGA3     0.090000        1.0080           0
     41474 WT15     352      MECN     H12      HGA3     0.090000        1.0080           0
     41475 WT15     352      MECN     H13      HGA3     0.090000        1.0080           0
     41476 WT15     352      MECN     C2       CG1N1    0.360000       12.0110           0
     41477 WT15     352      MECN     N3       NG1T1   -0.460000       14.0070           0
     41478 WT15     353      MECN     C1       CG331   -0.170000       12.0110           0
     41479 WT15     353      MECN     H11      HGA3     0.090000        1.0080           0
     41480 WT15     353      MECN     H12      HGA3     0.090000        1.0080           0
     41481 WT15     353      MECN     H13      HGA3     0.090000        1.0080           0
     41482 WT15     353      MECN     C2       CG1N1    0.360000       12.0110           0
     41483 WT15     353      MECN     N3       NG1T1   -0.460000       14.0070           0
     41484 WT15     354      MECN     C1       CG331   -0.170000       12.0110           0
     41485 WT15     354      MECN     H11      HGA3     0.090000        1.0080           0
     41486 WT15     354      MECN     H12      HGA3     0.090000        1.0080           0
     41487 WT15     354      MECN     H13      HGA3     0.090000        1.0080           0
     41488 WT15     354      MECN     C2       CG1N1    0.360000       12.0110           0
     41489 WT15     354      MECN     N3       NG1T1   -0.460000       14.0070           0
     41490 WT15     355      MECN     C1       CG331   -0.170000       12.0110           0
     41491 WT15     355      MECN     H11      HGA3     0.090000        1.0080           0
     41492 WT15     355      MECN     H12      HGA3     0.090000        1.0080           0
     41493 WT15     355      MECN     H13      HGA3     0.090000        1.0080           0
     41494 WT15     355      MECN     C2       CG1N1    0.360000       12.0110           0
     41495 WT15     355      MECN     N3       NG1T1   -0.460000       14.0070           0
     41496 WT15     356      MECN     C1       CG331   -0.170000       12.0110           0
     41497 WT15     356      MECN     H11      HGA3     0.090000        1.0080           0
     41498 WT15     356      MECN     H12      HGA3     0.090000        1.0080           0
     41499 WT15     356      MECN     H13      HGA3     0.090000        1.0080           0
     41500 WT15     356      MECN     C2       CG1N1    0.360000       12.0110           0
     41501 WT15     356      MECN     N3       NG1T1   -0.460000       14.0070           0
     41502 WT15     357      MECN     C1       CG331   -0.170000       12.0110           0
     41503 WT15     357      MECN     H11      HGA3     0.090000        1.0080           0
     41504 WT15     357      MECN     H12      HGA3     0.090000        1.0080           0
     41505 WT15     357      MECN     H13      HGA3     0.090000        1.0080           0
     41506 WT15     357      MECN     C2       CG1N1    0.360000       12.0110           0
     41507 WT15     357      MECN     N3       NG1T1   -0.460000       14.0070           0
     41508 WT15     358      MECN     C1       CG331   -0.170000       12.0110           0
     41509 WT15     358      MECN     H11      HGA3     0.090000        1.0080           0
     41510 WT15     358      MECN     H12      HGA3     0.090000        1.0080           0
     41511 WT15     358      MECN     H13      HGA3     0.090000        1.0080           0
     41512 WT15     358      MECN     C2       CG1N1    0.360000       12.0110           0
     41513 WT15     358      MECN     N3       NG1T1   -0.460000       14.0070           0
     41514 WT15     359      MECN     C1       CG331   -0.170000       12.0110           0
     41515 WT15     359      MECN     H11      HGA3     0.090000        1.0080           0
     41516 WT15     359      MECN     H12      HGA3     0.090000        1.0080           0
     41517 WT15     359      MECN     H13      HGA3     0.090000        1.0080           0
     41518 WT15     359      MECN     C2       CG1N1    0.360000       12.0110           0
     41519 WT15     359      MECN     N3       NG1T1   -0.460000       14.0070           0
     41520 WT15     361      MECN     C1       CG331   -0.170000       12.0110           0
     41521 WT15     361      MECN     H11      HGA3     0.090000        1.0080           0
     41522 WT15     361      MECN     H12      HGA3     0.090000        1.0080           0
     41523 WT15     361      MECN     H13      HGA3     0.090000        1.0080           0
     41524 WT15     361      MECN     C2       CG1N1    0.360000       12.0110           0
     41525 WT15     361      MECN     N3       NG1T1   -0.460000       14.0070           0
     41526 WT15     362      MECN     C1       CG331   -0.170000       12.0110           0
     41527 WT15     362      MECN     H11      HGA3     0.090000        1.0080           0
     41528 WT15     362      MECN     H12      HGA3     0.090000        1.0080           0
     41529 WT15     362      MECN     H13      HGA3     0.090000        1.0080           0
     41530 WT15     362      MECN     C2       CG1N1    0.360000       12.0110           0
     41531 WT15     362      MECN     N3       NG1T1   -0.460000       14.0070           0
     41532 WT15     363      MECN     C1       CG331   -0.170000       12.0110           0
     41533 WT15     363      MECN     H11      HGA3     0.090000        1.0080           0
     41534 WT15     363      MECN     H12      HGA3     0.090000        1.0080           0
     41535 WT15     363      MECN     H13      HGA3     0.090000        1.0080           0
     41536 WT15     363      MECN     C2       CG1N1    0.360000       12.0110           0
     41537 WT15     363      MECN     N3       NG1T1   -0.460000       14.0070           0
     41538 WT15     364      MECN     C1       CG331   -0.170000       12.0110           0
     41539 WT15     364      MECN     H11      HGA3     0.090000        1.0080           0
     41540 WT15     364      MECN     H12      HGA3     0.090000        1.0080           0
     41541 WT15     364      MECN     H13      HGA3     0.090000        1.0080           0
     41542 WT15     364      MECN     C2       CG1N1    0.360000       12.0110           0
     41543 WT15     364      MECN     N3       NG1T1   -0.460000       14.0070           0
     41544 WT15     365      MECN     C1       CG331   -0.170000       12.0110           0
     41545 WT15     365      MECN     H11      HGA3     0.090000        1.0080           0
     41546 WT15     365      MECN     H12      HGA3     0.090000        1.0080           0
     41547 WT15     365      MECN     H13      HGA3     0.090000        1.0080           0
     41548 WT15     365      MECN     C2       CG1N1    0.360000       12.0110           0
     41549 WT15     365      MECN     N3       NG1T1   -0.460000       14.0070           0
     41550 WT15     368      MECN     C1       CG331   -0.170000       12.0110           0
     41551 WT15     368      MECN     H11      HGA3     0.090000        1.0080           0
     41552 WT15     368      MECN     H12      HGA3     0.090000        1.0080           0
     41553 WT15     368      MECN     H13      HGA3     0.090000        1.0080           0
     41554 WT15     368      MECN     C2       CG1N1    0.360000       12.0110           0
     41555 WT15     368      MECN     N3       NG1T1   -0.460000       14.0070           0
     41556 WT15     369      MECN     C1       CG331   -0.170000       12.0110           0
     41557 WT15     369      MECN     H11      HGA3     0.090000        1.0080           0
     41558 WT15     369      MECN     H12      HGA3     0.090000        1.0080           0
     41559 WT15     369      MECN     H13      HGA3     0.090000        1.0080           0
     41560 WT15     369      MECN     C2       CG1N1    0.360000       12.0110           0
     41561 WT15     369      MECN     N3       NG1T1   -0.460000       14.0070           0
     41562 WT15     370      MECN     C1       CG331   -0.170000       12.0110           0
     41563 WT15     370      MECN     H11      HGA3     0.090000        1.0080           0
     41564 WT15     370      MECN     H12      HGA3     0.090000        1.0080           0
     41565 WT15     370      MECN     H13      HGA3     0.090000        1.0080           0
     41566 WT15     370      MECN     C2       CG1N1    0.360000       12.0110           0
     41567 WT15     370      MECN     N3       NG1T1   -0.460000       14.0070           0
     41568 WT15     371      MECN     C1       CG331   -0.170000       12.0110           0
     41569 WT15     371      MECN     H11      HGA3     0.090000        1.0080           0
     41570 WT15     371      MECN     H12      HGA3     0.090000        1.0080           0
     41571 WT15     371      MECN     H13      HGA3     0.090000        1.0080           0
     41572 WT15     371      MECN     C2       CG1N1    0.360000       12.0110           0
     41573 WT15     371      MECN     N3       NG1T1   -0.460000       14.0070           0
     41574 WT15     372      MECN     C1       CG331   -0.170000       12.0110           0
     41575 WT15     372      MECN     H11      HGA3     0.090000        1.0080           0
     41576 WT15     372      MECN     H12      HGA3     0.090000        1.0080           0
     41577 WT15     372      MECN     H13      HGA3     0.090000        1.0080           0
     41578 WT15     372      MECN     C2       CG1N1    0.360000       12.0110           0
     41579 WT15     372      MECN     N3       NG1T1   -0.460000       14.0070           0
     41580 WT15     373      MECN     C1       CG331   -0.170000       12.0110           0
     41581 WT15     373      MECN     H11      HGA3     0.090000        1.0080           0
     41582 WT15     373      MECN     H12      HGA3     0.090000        1.0080           0
     41583 WT15     373      MECN     H13      HGA3     0.090000        1.0080           0
     41584 WT15     373      MECN     C2       CG1N1    0.360000       12.0110           0
     41585 WT15     373      MECN     N3       NG1T1   -0.460000       14.0070           0
     41586 WT15     375      MECN     C1       CG331   -0.170000       12.0110           0
     41587 WT15     375      MECN     H11      HGA3     0.090000        1.0080           0
     41588 WT15     375      MECN     H12      HGA3     0.090000        1.0080           0
     41589 WT15     375      MECN     H13      HGA3     0.090000        1.0080           0
     41590 WT15     375      MECN     C2       CG1N1    0.360000       12.0110           0
     41591 WT15     375      MECN     N3       NG1T1   -0.460000       14.0070           0
     41592 WT15     376      MECN     C1       CG331   -0.170000       12.0110           0
     41593 WT15     376      MECN     H11      HGA3     0.090000        1.0080           0
     41594 WT15     376      MECN     H12      HGA3     0.090000        1.0080           0
     41595 WT15     376      MECN     H13      HGA3     0.090000        1.0080           0
     41596 WT15     376      MECN     C2       CG1N1    0.360000       12.0110           0
     41597 WT15     376      MECN     N3       NG1T1   -0.460000       14.0070           0
     41598 WT15     377      MECN     C1       CG331   -0.170000       12.0110           0
     41599 WT15     377      MECN     H11      HGA3     0.090000        1.0080           0
     41600 WT15     377      MECN     H12      HGA3     0.090000        1.0080           0
     41601 WT15     377      MECN     H13      HGA3     0.090000        1.0080           0
     41602 WT15     377      MECN     C2       CG1N1    0.360000       12.0110           0
     41603 WT15     377      MECN     N3       NG1T1   -0.460000       14.0070           0
     41604 WT15     379      MECN     C1       CG331   -0.170000       12.0110           0
     41605 WT15     379      MECN     H11      HGA3     0.090000        1.0080           0
     41606 WT15     379      MECN     H12      HGA3     0.090000        1.0080           0
     41607 WT15     379      MECN     H13      HGA3     0.090000        1.0080           0
     41608 WT15     379      MECN     C2       CG1N1    0.360000       12.0110           0
     41609 WT15     379      MECN     N3       NG1T1   -0.460000       14.0070           0
     41610 WT15     380      MECN     C1       CG331   -0.170000       12.0110           0
     41611 WT15     380      MECN     H11      HGA3     0.090000        1.0080           0
     41612 WT15     380      MECN     H12      HGA3     0.090000        1.0080           0
     41613 WT15     380      MECN     H13      HGA3     0.090000        1.0080           0
     41614 WT15     380      MECN     C2       CG1N1    0.360000       12.0110           0
     41615 WT15     380      MECN     N3       NG1T1   -0.460000       14.0070           0
     41616 WT15     382      MECN     C1       CG331   -0.170000       12.0110           0
     41617 WT15     382      MECN     H11      HGA3     0.090000        1.0080           0
     41618 WT15     382      MECN     H12      HGA3     0.090000        1.0080           0
     41619 WT15     382      MECN     H13      HGA3     0.090000        1.0080           0
     41620 WT15     382      MECN     C2       CG1N1    0.360000       12.0110           0
     41621 WT15     382      MECN     N3       NG1T1   -0.460000       14.0070           0
     41622 WT15     385      MECN     C1       CG331   -0.170000       12.0110           0
     41623 WT15     385      MECN     H11      HGA3     0.090000        1.0080           0
     41624 WT15     385      MECN     H12      HGA3     0.090000        1.0080           0
     41625 WT15     385      MECN     H13      HGA3     0.090000        1.0080           0
     41626 WT15     385      MECN     C2       CG1N1    0.360000       12.0110           0
     41627 WT15     385      MECN     N3       NG1T1   -0.460000       14.0070           0
     41628 WT15     387      MECN     C1       CG331   -0.170000       12.0110           0
     41629 WT15     387      MECN     H11      HGA3     0.090000        1.0080           0
     41630 WT15     387      MECN     H12      HGA3     0.090000        1.0080           0
     41631 WT15     387      MECN     H13      HGA3     0.090000        1.0080           0
     41632 WT15     387      MECN     C2       CG1N1    0.360000       12.0110           0
     41633 WT15     387      MECN     N3       NG1T1   -0.460000       14.0070           0
     41634 WT15     388      MECN     C1       CG331   -0.170000       12.0110           0
     41635 WT15     388      MECN     H11      HGA3     0.090000        1.0080           0
     41636 WT15     388      MECN     H12      HGA3     0.090000        1.0080           0
     41637 WT15     388      MECN     H13      HGA3     0.090000        1.0080           0
     41638 WT15     388      MECN     C2       CG1N1    0.360000       12.0110           0
     41639 WT15     388      MECN     N3       NG1T1   -0.460000       14.0070           0
     41640 WT15     389      MECN     C1       CG331   -0.170000       12.0110           0
     41641 WT15     389      MECN     H11      HGA3     0.090000        1.0080           0
     41642 WT15     389      MECN     H12      HGA3     0.090000        1.0080           0
     41643 WT15     389      MECN     H13      HGA3     0.090000        1.0080           0
     41644 WT15     389      MECN     C2       CG1N1    0.360000       12.0110           0
     41645 WT15     389      MECN     N3       NG1T1   -0.460000       14.0070           0
     41646 WT15     390      MECN     C1       CG331   -0.170000       12.0110           0
     41647 WT15     390      MECN     H11      HGA3     0.090000        1.0080           0
     41648 WT15     390      MECN     H12      HGA3     0.090000        1.0080           0
     41649 WT15     390      MECN     H13      HGA3     0.090000        1.0080           0
     41650 WT15     390      MECN     C2       CG1N1    0.360000       12.0110           0
     41651 WT15     390      MECN     N3       NG1T1   -0.460000       14.0070           0
     41652 WT15     391      MECN     C1       CG331   -0.170000       12.0110           0
     41653 WT15     391      MECN     H11      HGA3     0.090000        1.0080           0
     41654 WT15     391      MECN     H12      HGA3     0.090000        1.0080           0
     41655 WT15     391      MECN     H13      HGA3     0.090000        1.0080           0
     41656 WT15     391      MECN     C2       CG1N1    0.360000       12.0110           0
     41657 WT15     391      MECN     N3       NG1T1   -0.460000       14.0070           0
     41658 WT15     393      MECN     C1       CG331   -0.170000       12.0110           0
     41659 WT15     393      MECN     H11      HGA3     0.090000        1.0080           0
     41660 WT15     393      MECN     H12      HGA3     0.090000        1.0080           0
     41661 WT15     393      MECN     H13      HGA3     0.090000        1.0080           0
     41662 WT15     393      MECN     C2       CG1N1    0.360000       12.0110           0
     41663 WT15     393      MECN     N3       NG1T1   -0.460000       14.0070           0
     41664 WT15     394      MECN     C1       CG331   -0.170000       12.0110           0
     41665 WT15     394      MECN     H11      HGA3     0.090000        1.0080           0
     41666 WT15     394      MECN     H12      HGA3     0.090000        1.0080           0
     41667 WT15     394      MECN     H13      HGA3     0.090000        1.0080           0
     41668 WT15     394      MECN     C2       CG1N1    0.360000       12.0110           0
     41669 WT15     394      MECN     N3       NG1T1   -0.460000       14.0070           0
     41670 WT15     395      MECN     C1       CG331   -0.170000       12.0110           0
     41671 WT15     395      MECN     H11      HGA3     0.090000        1.0080           0
     41672 WT15     395      MECN     H12      HGA3     0.090000        1.0080           0
     41673 WT15     395      MECN     H13      HGA3     0.090000        1.0080           0
     41674 WT15     395      MECN     C2       CG1N1    0.360000       12.0110           0
     41675 WT15     395      MECN     N3       NG1T1   -0.460000       14.0070           0
     41676 WT15     396      MECN     C1       CG331   -0.170000       12.0110           0
     41677 WT15     396      MECN     H11      HGA3     0.090000        1.0080           0
     41678 WT15     396      MECN     H12      HGA3     0.090000        1.0080           0
     41679 WT15     396      MECN     H13      HGA3     0.090000        1.0080           0
     41680 WT15     396      MECN     C2       CG1N1    0.360000       12.0110           0
     41681 WT15     396      MECN     N3       NG1T1   -0.460000       14.0070           0
     41682 WT15     397      MECN     C1       CG331   -0.170000       12.0110           0
     41683 WT15     397      MECN     H11      HGA3     0.090000        1.0080           0
     41684 WT15     397      MECN     H12      HGA3     0.090000        1.0080           0
     41685 WT15     397      MECN     H13      HGA3     0.090000        1.0080           0
     41686 WT15     397      MECN     C2       CG1N1    0.360000       12.0110           0
     41687 WT15     397      MECN     N3       NG1T1   -0.460000       14.0070           0
     41688 WT15     398      MECN     C1       CG331   -0.170000       12.0110           0
     41689 WT15     398      MECN     H11      HGA3     0.090000        1.0080           0
     41690 WT15     398      MECN     H12      HGA3     0.090000        1.0080           0
     41691 WT15     398      MECN     H13      HGA3     0.090000        1.0080           0
     41692 WT15     398      MECN     C2       CG1N1    0.360000       12.0110           0
     41693 WT15     398      MECN     N3       NG1T1   -0.460000       14.0070           0
     41694 WT15     399      MECN     C1       CG331   -0.170000       12.0110           0
     41695 WT15     399      MECN     H11      HGA3     0.090000        1.0080           0
     41696 WT15     399      MECN     H12      HGA3     0.090000        1.0080           0
     41697 WT15     399      MECN     H13      HGA3     0.090000        1.0080           0
     41698 WT15     399      MECN     C2       CG1N1    0.360000       12.0110           0
     41699 WT15     399      MECN     N3       NG1T1   -0.460000       14.0070           0
     41700 WT15     401      MECN     C1       CG331   -0.170000       12.0110           0
     41701 WT15     401      MECN     H11      HGA3     0.090000        1.0080           0
     41702 WT15     401      MECN     H12      HGA3     0.090000        1.0080           0
     41703 WT15     401      MECN     H13      HGA3     0.090000        1.0080           0
     41704 WT15     401      MECN     C2       CG1N1    0.360000       12.0110           0
     41705 WT15     401      MECN     N3       NG1T1   -0.460000       14.0070           0
     41706 WT15     405      MECN     C1       CG331   -0.170000       12.0110           0
     41707 WT15     405      MECN     H11      HGA3     0.090000        1.0080           0
     41708 WT15     405      MECN     H12      HGA3     0.090000        1.0080           0
     41709 WT15     405      MECN     H13      HGA3     0.090000        1.0080           0
     41710 WT15     405      MECN     C2       CG1N1    0.360000       12.0110           0
     41711 WT15     405      MECN     N3       NG1T1   -0.460000       14.0070           0
     41712 WT15     406      MECN     C1       CG331   -0.170000       12.0110           0
     41713 WT15     406      MECN     H11      HGA3     0.090000        1.0080           0
     41714 WT15     406      MECN     H12      HGA3     0.090000        1.0080           0
     41715 WT15     406      MECN     H13      HGA3     0.090000        1.0080           0
     41716 WT15     406      MECN     C2       CG1N1    0.360000       12.0110           0
     41717 WT15     406      MECN     N3       NG1T1   -0.460000       14.0070           0
     41718 WT15     409      MECN     C1       CG331   -0.170000       12.0110           0
     41719 WT15     409      MECN     H11      HGA3     0.090000        1.0080           0
     41720 WT15     409      MECN     H12      HGA3     0.090000        1.0080           0
     41721 WT15     409      MECN     H13      HGA3     0.090000        1.0080           0
     41722 WT15     409      MECN     C2       CG1N1    0.360000       12.0110           0
     41723 WT15     409      MECN     N3       NG1T1   -0.460000       14.0070           0
     41724 WT15     410      MECN     C1       CG331   -0.170000       12.0110           0
     41725 WT15     410      MECN     H11      HGA3     0.090000        1.0080           0
     41726 WT15     410      MECN     H12      HGA3     0.090000        1.0080           0
     41727 WT15     410      MECN     H13      HGA3     0.090000        1.0080           0
     41728 WT15     410      MECN     C2       CG1N1    0.360000       12.0110           0
     41729 WT15     410      MECN     N3       NG1T1   -0.460000       14.0070           0
     41730 WT15     411      MECN     C1       CG331   -0.170000       12.0110           0
     41731 WT15     411      MECN     H11      HGA3     0.090000        1.0080           0
     41732 WT15     411      MECN     H12      HGA3     0.090000        1.0080           0
     41733 WT15     411      MECN     H13      HGA3     0.090000        1.0080           0
     41734 WT15     411      MECN     C2       CG1N1    0.360000       12.0110           0
     41735 WT15     411      MECN     N3       NG1T1   -0.460000       14.0070           0
     41736 WT15     413      MECN     C1       CG331   -0.170000       12.0110           0
     41737 WT15     413      MECN     H11      HGA3     0.090000        1.0080           0
     41738 WT15     413      MECN     H12      HGA3     0.090000        1.0080           0
     41739 WT15     413      MECN     H13      HGA3     0.090000        1.0080           0
     41740 WT15     413      MECN     C2       CG1N1    0.360000       12.0110           0
     41741 WT15     413      MECN     N3       NG1T1   -0.460000       14.0070           0
     41742 WT15     414      MECN     C1       CG331   -0.170000       12.0110           0
     41743 WT15     414      MECN     H11      HGA3     0.090000        1.0080           0
     41744 WT15     414      MECN     H12      HGA3     0.090000        1.0080           0
     41745 WT15     414      MECN     H13      HGA3     0.090000        1.0080           0
     41746 WT15     414      MECN     C2       CG1N1    0.360000       12.0110           0
     41747 WT15     414      MECN     N3       NG1T1   -0.460000       14.0070           0
     41748 WT15     415      MECN     C1       CG331   -0.170000       12.0110           0
     41749 WT15     415      MECN     H11      HGA3     0.090000        1.0080           0
     41750 WT15     415      MECN     H12      HGA3     0.090000        1.0080           0
     41751 WT15     415      MECN     H13      HGA3     0.090000        1.0080           0
     41752 WT15     415      MECN     C2       CG1N1    0.360000       12.0110           0
     41753 WT15     415      MECN     N3       NG1T1   -0.460000       14.0070           0
     41754 WT15     416      MECN     C1       CG331   -0.170000       12.0110           0
     41755 WT15     416      MECN     H11      HGA3     0.090000        1.0080           0
     41756 WT15     416      MECN     H12      HGA3     0.090000        1.0080           0
     41757 WT15     416      MECN     H13      HGA3     0.090000        1.0080           0
     41758 WT15     416      MECN     C2       CG1N1    0.360000       12.0110           0
     41759 WT15     416      MECN     N3       NG1T1   -0.460000       14.0070           0
     41760 WT15     417      MECN     C1       CG331   -0.170000       12.0110           0
     41761 WT15     417      MECN     H11      HGA3     0.090000        1.0080           0
     41762 WT15     417      MECN     H12      HGA3     0.090000        1.0080           0
     41763 WT15     417      MECN     H13      HGA3     0.090000        1.0080           0
     41764 WT15     417      MECN     C2       CG1N1    0.360000       12.0110           0
     41765 WT15     417      MECN     N3       NG1T1   -0.460000       14.0070           0
     41766 WT15     418      MECN     C1       CG331   -0.170000       12.0110           0
     41767 WT15     418      MECN     H11      HGA3     0.090000        1.0080           0
     41768 WT15     418      MECN     H12      HGA3     0.090000        1.0080           0
     41769 WT15     418      MECN     H13      HGA3     0.090000        1.0080           0
     41770 WT15     418      MECN     C2       CG1N1    0.360000       12.0110           0
     41771 WT15     418      MECN     N3       NG1T1   -0.460000       14.0070           0
     41772 WT15     420      MECN     C1       CG331   -0.170000       12.0110           0
     41773 WT15     420      MECN     H11      HGA3     0.090000        1.0080           0
     41774 WT15     420      MECN     H12      HGA3     0.090000        1.0080           0
     41775 WT15     420      MECN     H13      HGA3     0.090000        1.0080           0
     41776 WT15     420      MECN     C2       CG1N1    0.360000       12.0110           0
     41777 WT15     420      MECN     N3       NG1T1   -0.460000       14.0070           0
     41778 WT15     422      MECN     C1       CG331   -0.170000       12.0110           0
     41779 WT15     422      MECN     H11      HGA3     0.090000        1.0080           0
     41780 WT15     422      MECN     H12      HGA3     0.090000        1.0080           0
     41781 WT15     422      MECN     H13      HGA3     0.090000        1.0080           0
     41782 WT15     422      MECN     C2       CG1N1    0.360000       12.0110           0
     41783 WT15     422      MECN     N3       NG1T1   -0.460000       14.0070           0
     41784 WT15     424      MECN     C1       CG331   -0.170000       12.0110           0
     41785 WT15     424      MECN     H11      HGA3     0.090000        1.0080           0
     41786 WT15     424      MECN     H12      HGA3     0.090000        1.0080           0
     41787 WT15     424      MECN     H13      HGA3     0.090000        1.0080           0
     41788 WT15     424      MECN     C2       CG1N1    0.360000       12.0110           0
     41789 WT15     424      MECN     N3       NG1T1   -0.460000       14.0070           0
     41790 WT15     425      MECN     C1       CG331   -0.170000       12.0110           0
     41791 WT15     425      MECN     H11      HGA3     0.090000        1.0080           0
     41792 WT15     425      MECN     H12      HGA3     0.090000        1.0080           0
     41793 WT15     425      MECN     H13      HGA3     0.090000        1.0080           0
     41794 WT15     425      MECN     C2       CG1N1    0.360000       12.0110           0
     41795 WT15     425      MECN     N3       NG1T1   -0.460000       14.0070           0
     41796 WT15     426      MECN     C1       CG331   -0.170000       12.0110           0
     41797 WT15     426      MECN     H11      HGA3     0.090000        1.0080           0
     41798 WT15     426      MECN     H12      HGA3     0.090000        1.0080           0
     41799 WT15     426      MECN     H13      HGA3     0.090000        1.0080           0
     41800 WT15     426      MECN     C2       CG1N1    0.360000       12.0110           0
     41801 WT15     426      MECN     N3       NG1T1   -0.460000       14.0070           0
     41802 WT15     427      MECN     C1       CG331   -0.170000       12.0110           0
     41803 WT15     427      MECN     H11      HGA3     0.090000        1.0080           0
     41804 WT15     427      MECN     H12      HGA3     0.090000        1.0080           0
     41805 WT15     427      MECN     H13      HGA3     0.090000        1.0080           0
     41806 WT15     427      MECN     C2       CG1N1    0.360000       12.0110           0
     41807 WT15     427      MECN     N3       NG1T1   -0.460000       14.0070           0
     41808 WT15     428      MECN     C1       CG331   -0.170000       12.0110           0
     41809 WT15     428      MECN     H11      HGA3     0.090000        1.0080           0
     41810 WT15     428      MECN     H12      HGA3     0.090000        1.0080           0
     41811 WT15     428      MECN     H13      HGA3     0.090000        1.0080           0
     41812 WT15     428      MECN     C2       CG1N1    0.360000       12.0110           0
     41813 WT15     428      MECN     N3       NG1T1   -0.460000       14.0070           0
     41814 WT15     429      MECN     C1       CG331   -0.170000       12.0110           0
     41815 WT15     429      MECN     H11      HGA3     0.090000        1.0080           0
     41816 WT15     429      MECN     H12      HGA3     0.090000        1.0080           0
     41817 WT15     429      MECN     H13      HGA3     0.090000        1.0080           0
     41818 WT15     429      MECN     C2       CG1N1    0.360000       12.0110           0
     41819 WT15     429      MECN     N3       NG1T1   -0.460000       14.0070           0
     41820 WT15     430      MECN     C1       CG331   -0.170000       12.0110           0
     41821 WT15     430      MECN     H11      HGA3     0.090000        1.0080           0
     41822 WT15     430      MECN     H12      HGA3     0.090000        1.0080           0
     41823 WT15     430      MECN     H13      HGA3     0.090000        1.0080           0
     41824 WT15     430      MECN     C2       CG1N1    0.360000       12.0110           0
     41825 WT15     430      MECN     N3       NG1T1   -0.460000       14.0070           0
     41826 WT15     431      MECN     C1       CG331   -0.170000       12.0110           0
     41827 WT15     431      MECN     H11      HGA3     0.090000        1.0080           0
     41828 WT15     431      MECN     H12      HGA3     0.090000        1.0080           0
     41829 WT15     431      MECN     H13      HGA3     0.090000        1.0080           0
     41830 WT15     431      MECN     C2       CG1N1    0.360000       12.0110           0
     41831 WT15     431      MECN     N3       NG1T1   -0.460000       14.0070           0
     41832 WT15     433      MECN     C1       CG331   -0.170000       12.0110           0
     41833 WT15     433      MECN     H11      HGA3     0.090000        1.0080           0
     41834 WT15     433      MECN     H12      HGA3     0.090000        1.0080           0
     41835 WT15     433      MECN     H13      HGA3     0.090000        1.0080           0
     41836 WT15     433      MECN     C2       CG1N1    0.360000       12.0110           0
     41837 WT15     433      MECN     N3       NG1T1   -0.460000       14.0070           0
     41838 WT15     434      MECN     C1       CG331   -0.170000       12.0110           0
     41839 WT15     434      MECN     H11      HGA3     0.090000        1.0080           0
     41840 WT15     434      MECN     H12      HGA3     0.090000        1.0080           0
     41841 WT15     434      MECN     H13      HGA3     0.090000        1.0080           0
     41842 WT15     434      MECN     C2       CG1N1    0.360000       12.0110           0
     41843 WT15     434      MECN     N3       NG1T1   -0.460000       14.0070           0
     41844 WT15     435      MECN     C1       CG331   -0.170000       12.0110           0
     41845 WT15     435      MECN     H11      HGA3     0.090000        1.0080           0
     41846 WT15     435      MECN     H12      HGA3     0.090000        1.0080           0
     41847 WT15     435      MECN     H13      HGA3     0.090000        1.0080           0
     41848 WT15     435      MECN     C2       CG1N1    0.360000       12.0110           0
     41849 WT15     435      MECN     N3       NG1T1   -0.460000       14.0070           0
     41850 WT15     436      MECN     C1       CG331   -0.170000       12.0110           0
     41851 WT15     436      MECN     H11      HGA3     0.090000        1.0080           0
     41852 WT15     436      MECN     H12      HGA3     0.090000        1.0080           0
     41853 WT15     436      MECN     H13      HGA3     0.090000        1.0080           0
     41854 WT15     436      MECN     C2       CG1N1    0.360000       12.0110           0
     41855 WT15     436      MECN     N3       NG1T1   -0.460000       14.0070           0
     41856 WT15     439      MECN     C1       CG331   -0.170000       12.0110           0
     41857 WT15     439      MECN     H11      HGA3     0.090000        1.0080           0
     41858 WT15     439      MECN     H12      HGA3     0.090000        1.0080           0
     41859 WT15     439      MECN     H13      HGA3     0.090000        1.0080           0
     41860 WT15     439      MECN     C2       CG1N1    0.360000       12.0110           0
     41861 WT15     439      MECN     N3       NG1T1   -0.460000       14.0070           0
     41862 WT15     440      MECN     C1       CG331   -0.170000       12.0110           0
     41863 WT15     440      MECN     H11      HGA3     0.090000        1.0080           0
     41864 WT15     440      MECN     H12      HGA3     0.090000        1.0080           0
     41865 WT15     440      MECN     H13      HGA3     0.090000        1.0080           0
     41866 WT15     440      MECN     C2       CG1N1    0.360000       12.0110           0
     41867 WT15     440      MECN     N3       NG1T1   -0.460000       14.0070           0
     41868 WT15     441      MECN     C1       CG331   -0.170000       12.0110           0
     41869 WT15     441      MECN     H11      HGA3     0.090000        1.0080           0
     41870 WT15     441      MECN     H12      HGA3     0.090000        1.0080           0
     41871 WT15     441      MECN     H13      HGA3     0.090000        1.0080           0
     41872 WT15     441      MECN     C2       CG1N1    0.360000       12.0110           0
     41873 WT15     441      MECN     N3       NG1T1   -0.460000       14.0070           0
     41874 WT15     443      MECN     C1       CG331   -0.170000       12.0110           0
     41875 WT15     443      MECN     H11      HGA3     0.090000        1.0080           0
     41876 WT15     443      MECN     H12      HGA3     0.090000        1.0080           0
     41877 WT15     443      MECN     H13      HGA3     0.090000        1.0080           0
     41878 WT15     443      MECN     C2       CG1N1    0.360000       12.0110           0
     41879 WT15     443      MECN     N3       NG1T1   -0.460000       14.0070           0
     41880 WT15     444      MECN     C1       CG331   -0.170000       12.0110           0
     41881 WT15     444      MECN     H11      HGA3     0.090000        1.0080           0
     41882 WT15     444      MECN     H12      HGA3     0.090000        1.0080           0
     41883 WT15     444      MECN     H13      HGA3     0.090000        1.0080           0
     41884 WT15     444      MECN     C2       CG1N1    0.360000       12.0110           0
     41885 WT15     444      MECN     N3       NG1T1   -0.460000       14.0070           0
     41886 WT15     445      MECN     C1       CG331   -0.170000       12.0110           0
     41887 WT15     445      MECN     H11      HGA3     0.090000        1.0080           0
     41888 WT15     445      MECN     H12      HGA3     0.090000        1.0080           0
     41889 WT15     445      MECN     H13      HGA3     0.090000        1.0080           0
     41890 WT15     445      MECN     C2       CG1N1    0.360000       12.0110           0
     41891 WT15     445      MECN     N3       NG1T1   -0.460000       14.0070           0
     41892 WT15     447      MECN     C1       CG331   -0.170000       12.0110           0
     41893 WT15     447      MECN     H11      HGA3     0.090000        1.0080           0
     41894 WT15     447      MECN     H12      HGA3     0.090000        1.0080           0
     41895 WT15     447      MECN     H13      HGA3     0.090000        1.0080           0
     41896 WT15     447      MECN     C2       CG1N1    0.360000       12.0110           0
     41897 WT15     447      MECN     N3       NG1T1   -0.460000       14.0070           0
     41898 WT15     448      MECN     C1       CG331   -0.170000       12.0110           0
     41899 WT15     448      MECN     H11      HGA3     0.090000        1.0080           0
     41900 WT15     448      MECN     H12      HGA3     0.090000        1.0080           0
     41901 WT15     448      MECN     H13      HGA3     0.090000        1.0080           0
     41902 WT15     448      MECN     C2       CG1N1    0.360000       12.0110           0
     41903 WT15     448      MECN     N3       NG1T1   -0.460000       14.0070           0
     41904 WT15     449      MECN     C1       CG331   -0.170000       12.0110           0
     41905 WT15     449      MECN     H11      HGA3     0.090000        1.0080           0
     41906 WT15     449      MECN     H12      HGA3     0.090000        1.0080           0
     41907 WT15     449      MECN     H13      HGA3     0.090000        1.0080           0
     41908 WT15     449      MECN     C2       CG1N1    0.360000       12.0110           0
     41909 WT15     449      MECN     N3       NG1T1   -0.460000       14.0070           0
     41910 WT15     450      MECN     C1       CG331   -0.170000       12.0110           0
     41911 WT15     450      MECN     H11      HGA3     0.090000        1.0080           0
     41912 WT15     450      MECN     H12      HGA3     0.090000        1.0080           0
     41913 WT15     450      MECN     H13      HGA3     0.090000        1.0080           0
     41914 WT15     450      MECN     C2       CG1N1    0.360000       12.0110           0
     41915 WT15     450      MECN     N3       NG1T1   -0.460000       14.0070           0
     41916 WT15     451      MECN     C1       CG331   -0.170000       12.0110           0
     41917 WT15     451      MECN     H11      HGA3     0.090000        1.0080           0
     41918 WT15     451      MECN     H12      HGA3     0.090000        1.0080           0
     41919 WT15     451      MECN     H13      HGA3     0.090000        1.0080           0
     41920 WT15     451      MECN     C2       CG1N1    0.360000       12.0110           0
     41921 WT15     451      MECN     N3       NG1T1   -0.460000       14.0070           0
     41922 WT15     452      MECN     C1       CG331   -0.170000       12.0110           0
     41923 WT15     452      MECN     H11      HGA3     0.090000        1.0080           0
     41924 WT15     452      MECN     H12      HGA3     0.090000        1.0080           0
     41925 WT15     452      MECN     H13      HGA3     0.090000        1.0080           0
     41926 WT15     452      MECN     C2       CG1N1    0.360000       12.0110           0
     41927 WT15     452      MECN     N3       NG1T1   -0.460000       14.0070           0
     41928 WT15     454      MECN     C1       CG331   -0.170000       12.0110           0
     41929 WT15     454      MECN     H11      HGA3     0.090000        1.0080           0
     41930 WT15     454      MECN     H12      HGA3     0.090000        1.0080           0
     41931 WT15     454      MECN     H13      HGA3     0.090000        1.0080           0
     41932 WT15     454      MECN     C2       CG1N1    0.360000       12.0110           0
     41933 WT15     454      MECN     N3       NG1T1   -0.460000       14.0070           0
     41934 WT15     455      MECN     C1       CG331   -0.170000       12.0110           0
     41935 WT15     455      MECN     H11      HGA3     0.090000        1.0080           0
     41936 WT15     455      MECN     H12      HGA3     0.090000        1.0080           0
     41937 WT15     455      MECN     H13      HGA3     0.090000        1.0080           0
     41938 WT15     455      MECN     C2       CG1N1    0.360000       12.0110           0
     41939 WT15     455      MECN     N3       NG1T1   -0.460000       14.0070           0
     41940 WT15     456      MECN     C1       CG331   -0.170000       12.0110           0
     41941 WT15     456      MECN     H11      HGA3     0.090000        1.0080           0
     41942 WT15     456      MECN     H12      HGA3     0.090000        1.0080           0
     41943 WT15     456      MECN     H13      HGA3     0.090000        1.0080           0
     41944 WT15     456      MECN     C2       CG1N1    0.360000       12.0110           0
     41945 WT15     456      MECN     N3       NG1T1   -0.460000       14.0070           0
     41946 WT15     457      MECN     C1       CG331   -0.170000       12.0110           0
     41947 WT15     457      MECN     H11      HGA3     0.090000        1.0080           0
     41948 WT15     457      MECN     H12      HGA3     0.090000        1.0080           0
     41949 WT15     457      MECN     H13      HGA3     0.090000        1.0080           0
     41950 WT15     457      MECN     C2       CG1N1    0.360000       12.0110           0
     41951 WT15     457      MECN     N3       NG1T1   -0.460000       14.0070           0
     41952 WT15     459      MECN     C1       CG331   -0.170000       12.0110           0
     41953 WT15     459      MECN     H11      HGA3     0.090000        1.0080           0
     41954 WT15     459      MECN     H12      HGA3     0.090000        1.0080           0
     41955 WT15     459      MECN     H13      HGA3     0.090000        1.0080           0
     41956 WT15     459      MECN     C2       CG1N1    0.360000       12.0110           0
     41957 WT15     459      MECN     N3       NG1T1   -0.460000       14.0070           0
     41958 WT15     460      MECN     C1       CG331   -0.170000       12.0110           0
     41959 WT15     460      MECN     H11      HGA3     0.090000        1.0080           0
     41960 WT15     460      MECN     H12      HGA3     0.090000        1.0080           0
     41961 WT15     460      MECN     H13      HGA3     0.090000        1.0080           0
     41962 WT15     460      MECN     C2       CG1N1    0.360000       12.0110           0
     41963 WT15     460      MECN     N3       NG1T1   -0.460000       14.0070           0
     41964 WT15     461      MECN     C1       CG331   -0.170000       12.0110           0
     41965 WT15     461      MECN     H11      HGA3     0.090000        1.0080           0
     41966 WT15     461      MECN     H12      HGA3     0.090000        1.0080           0
     41967 WT15     461      MECN     H13      HGA3     0.090000        1.0080           0
     41968 WT15     461      MECN     C2       CG1N1    0.360000       12.0110           0
     41969 WT15     461      MECN     N3       NG1T1   -0.460000       14.0070           0
     41970 WT15     462      MECN     C1       CG331   -0.170000       12.0110           0
     41971 WT15     462      MECN     H11      HGA3     0.090000        1.0080           0
     41972 WT15     462      MECN     H12      HGA3     0.090000        1.0080           0
     41973 WT15     462      MECN     H13      HGA3     0.090000        1.0080           0
     41974 WT15     462      MECN     C2       CG1N1    0.360000       12.0110           0
     41975 WT15     462      MECN     N3       NG1T1   -0.460000       14.0070           0
     41976 WT15     463      MECN     C1       CG331   -0.170000       12.0110           0
     41977 WT15     463      MECN     H11      HGA3     0.090000        1.0080           0
     41978 WT15     463      MECN     H12      HGA3     0.090000        1.0080           0
     41979 WT15     463      MECN     H13      HGA3     0.090000        1.0080           0
     41980 WT15     463      MECN     C2       CG1N1    0.360000       12.0110           0
     41981 WT15     463      MECN     N3       NG1T1   -0.460000       14.0070           0
     41982 WT15     464      MECN     C1       CG331   -0.170000       12.0110           0
     41983 WT15     464      MECN     H11      HGA3     0.090000        1.0080           0
     41984 WT15     464      MECN     H12      HGA3     0.090000        1.0080           0
     41985 WT15     464      MECN     H13      HGA3     0.090000        1.0080           0
     41986 WT15     464      MECN     C2       CG1N1    0.360000       12.0110           0
     41987 WT15     464      MECN     N3       NG1T1   -0.460000       14.0070           0
     41988 WT15     466      MECN     C1       CG331   -0.170000       12.0110           0
     41989 WT15     466      MECN     H11      HGA3     0.090000        1.0080           0
     41990 WT15     466      MECN     H12      HGA3     0.090000        1.0080           0
     41991 WT15     466      MECN     H13      HGA3     0.090000        1.0080           0
     41992 WT15     466      MECN     C2       CG1N1    0.360000       12.0110           0
     41993 WT15     466      MECN     N3       NG1T1   -0.460000       14.0070           0
     41994 WT15     468      MECN     C1       CG331   -0.170000       12.0110           0
     41995 WT15     468      MECN     H11      HGA3     0.090000        1.0080           0
     41996 WT15     468      MECN     H12      HGA3     0.090000        1.0080           0
     41997 WT15     468      MECN     H13      HGA3     0.090000        1.0080           0
     41998 WT15     468      MECN     C2       CG1N1    0.360000       12.0110           0
     41999 WT15     468      MECN     N3       NG1T1   -0.460000       14.0070           0
     42000 WT15     470      MECN     C1       CG331   -0.170000       12.0110           0
     42001 WT15     470      MECN     H11      HGA3     0.090000        1.0080           0
     42002 WT15     470      MECN     H12      HGA3     0.090000        1.0080           0
     42003 WT15     470      MECN     H13      HGA3     0.090000        1.0080           0
     42004 WT15     470      MECN     C2       CG1N1    0.360000       12.0110           0
     42005 WT15     470      MECN     N3       NG1T1   -0.460000       14.0070           0
     42006 WT15     472      MECN     C1       CG331   -0.170000       12.0110           0
     42007 WT15     472      MECN     H11      HGA3     0.090000        1.0080           0
     42008 WT15     472      MECN     H12      HGA3     0.090000        1.0080           0
     42009 WT15     472      MECN     H13      HGA3     0.090000        1.0080           0
     42010 WT15     472      MECN     C2       CG1N1    0.360000       12.0110           0
     42011 WT15     472      MECN     N3       NG1T1   -0.460000       14.0070           0
     42012 WT15     473      MECN     C1       CG331   -0.170000       12.0110           0
     42013 WT15     473      MECN     H11      HGA3     0.090000        1.0080           0
     42014 WT15     473      MECN     H12      HGA3     0.090000        1.0080           0
     42015 WT15     473      MECN     H13      HGA3     0.090000        1.0080           0
     42016 WT15     473      MECN     C2       CG1N1    0.360000       12.0110           0
     42017 WT15     473      MECN     N3       NG1T1   -0.460000       14.0070           0
     42018 WT15     475      MECN     C1       CG331   -0.170000       12.0110           0
     42019 WT15     475      MECN     H11      HGA3     0.090000        1.0080           0
     42020 WT15     475      MECN     H12      HGA3     0.090000        1.0080           0
     42021 WT15     475      MECN     H13      HGA3     0.090000        1.0080           0
     42022 WT15     475      MECN     C2       CG1N1    0.360000       12.0110           0
     42023 WT15     475      MECN     N3       NG1T1   -0.460000       14.0070           0
     42024 WT15     476      MECN     C1       CG331   -0.170000       12.0110           0
     42025 WT15     476      MECN     H11      HGA3     0.090000        1.0080           0
     42026 WT15     476      MECN     H12      HGA3     0.090000        1.0080           0
     42027 WT15     476      MECN     H13      HGA3     0.090000        1.0080           0
     42028 WT15     476      MECN     C2       CG1N1    0.360000       12.0110           0
     42029 WT15     476      MECN     N3       NG1T1   -0.460000       14.0070           0
     42030 WT15     477      MECN     C1       CG331   -0.170000       12.0110           0
     42031 WT15     477      MECN     H11      HGA3     0.090000        1.0080           0
     42032 WT15     477      MECN     H12      HGA3     0.090000        1.0080           0
     42033 WT15     477      MECN     H13      HGA3     0.090000        1.0080           0
     42034 WT15     477      MECN     C2       CG1N1    0.360000       12.0110           0
     42035 WT15     477      MECN     N3       NG1T1   -0.460000       14.0070           0
     42036 WT15     479      MECN     C1       CG331   -0.170000       12.0110           0
     42037 WT15     479      MECN     H11      HGA3     0.090000        1.0080           0
     42038 WT15     479      MECN     H12      HGA3     0.090000        1.0080           0
     42039 WT15     479      MECN     H13      HGA3     0.090000        1.0080           0
     42040 WT15     479      MECN     C2       CG1N1    0.360000       12.0110           0
     42041 WT15     479      MECN     N3       NG1T1   -0.460000       14.0070           0
     42042 WT15     480      MECN     C1       CG331   -0.170000       12.0110           0
     42043 WT15     480      MECN     H11      HGA3     0.090000        1.0080           0
     42044 WT15     480      MECN     H12      HGA3     0.090000        1.0080           0
     42045 WT15     480      MECN     H13      HGA3     0.090000        1.0080           0
     42046 WT15     480      MECN     C2       CG1N1    0.360000       12.0110           0
     42047 WT15     480      MECN     N3       NG1T1   -0.460000       14.0070           0
     42048 WT15     482      MECN     C1       CG331   -0.170000       12.0110           0
     42049 WT15     482      MECN     H11      HGA3     0.090000        1.0080           0
     42050 WT15     482      MECN     H12      HGA3     0.090000        1.0080           0
     42051 WT15     482      MECN     H13      HGA3     0.090000        1.0080           0
     42052 WT15     482      MECN     C2       CG1N1    0.360000       12.0110           0
     42053 WT15     482      MECN     N3       NG1T1   -0.460000       14.0070           0
     42054 WT15     483      MECN     C1       CG331   -0.170000       12.0110           0
     42055 WT15     483      MECN     H11      HGA3     0.090000        1.0080           0
     42056 WT15     483      MECN     H12      HGA3     0.090000        1.0080           0
     42057 WT15     483      MECN     H13      HGA3     0.090000        1.0080           0
     42058 WT15     483      MECN     C2       CG1N1    0.360000       12.0110           0
     42059 WT15     483      MECN     N3       NG1T1   -0.460000       14.0070           0
     42060 WT15     484      MECN     C1       CG331   -0.170000       12.0110           0
     42061 WT15     484      MECN     H11      HGA3     0.090000        1.0080           0
     42062 WT15     484      MECN     H12      HGA3     0.090000        1.0080           0
     42063 WT15     484      MECN     H13      HGA3     0.090000        1.0080           0
     42064 WT15     484      MECN     C2       CG1N1    0.360000       12.0110           0
     42065 WT15     484      MECN     N3       NG1T1   -0.460000       14.0070           0
     42066 WT15     485      MECN     C1       CG331   -0.170000       12.0110           0
     42067 WT15     485      MECN     H11      HGA3     0.090000        1.0080           0
     42068 WT15     485      MECN     H12      HGA3     0.090000        1.0080           0
     42069 WT15     485      MECN     H13      HGA3     0.090000        1.0080           0
     42070 WT15     485      MECN     C2       CG1N1    0.360000       12.0110           0
     42071 WT15     485      MECN     N3       NG1T1   -0.460000       14.0070           0
     42072 WT15     486      MECN     C1       CG331   -0.170000       12.0110           0
     42073 WT15     486      MECN     H11      HGA3     0.090000        1.0080           0
     42074 WT15     486      MECN     H12      HGA3     0.090000        1.0080           0
     42075 WT15     486      MECN     H13      HGA3     0.090000        1.0080           0
     42076 WT15     486      MECN     C2       CG1N1    0.360000       12.0110           0
     42077 WT15     486      MECN     N3       NG1T1   -0.460000       14.0070           0
     42078 WT15     487      MECN     C1       CG331   -0.170000       12.0110           0
     42079 WT15     487      MECN     H11      HGA3     0.090000        1.0080           0
     42080 WT15     487      MECN     H12      HGA3     0.090000        1.0080           0
     42081 WT15     487      MECN     H13      HGA3     0.090000        1.0080           0
     42082 WT15     487      MECN     C2       CG1N1    0.360000       12.0110           0
     42083 WT15     487      MECN     N3       NG1T1   -0.460000       14.0070           0
     42084 WT15     488      MECN     C1       CG331   -0.170000       12.0110           0
     42085 WT15     488      MECN     H11      HGA3     0.090000        1.0080           0
     42086 WT15     488      MECN     H12      HGA3     0.090000        1.0080           0
     42087 WT15     488      MECN     H13      HGA3     0.090000        1.0080           0
     42088 WT15     488      MECN     C2       CG1N1    0.360000       12.0110           0
     42089 WT15     488      MECN     N3       NG1T1   -0.460000       14.0070           0
     42090 WT15     489      MECN     C1       CG331   -0.170000       12.0110           0
     42091 WT15     489      MECN     H11      HGA3     0.090000        1.0080           0
     42092 WT15     489      MECN     H12      HGA3     0.090000        1.0080           0
     42093 WT15     489      MECN     H13      HGA3     0.090000        1.0080           0
     42094 WT15     489      MECN     C2       CG1N1    0.360000       12.0110           0
     42095 WT15     489      MECN     N3       NG1T1   -0.460000       14.0070           0
     42096 WT15     490      MECN     C1       CG331   -0.170000       12.0110           0
     42097 WT15     490      MECN     H11      HGA3     0.090000        1.0080           0
     42098 WT15     490      MECN     H12      HGA3     0.090000        1.0080           0
     42099 WT15     490      MECN     H13      HGA3     0.090000        1.0080           0
     42100 WT15     490      MECN     C2       CG1N1    0.360000       12.0110           0
     42101 WT15     490      MECN     N3       NG1T1   -0.460000       14.0070           0
     42102 WT15     491      MECN     C1       CG331   -0.170000       12.0110           0
     42103 WT15     491      MECN     H11      HGA3     0.090000        1.0080           0
     42104 WT15     491      MECN     H12      HGA3     0.090000        1.0080           0
     42105 WT15     491      MECN     H13      HGA3     0.090000        1.0080           0
     42106 WT15     491      MECN     C2       CG1N1    0.360000       12.0110           0
     42107 WT15     491      MECN     N3       NG1T1   -0.460000       14.0070           0
     42108 WT15     493      MECN     C1       CG331   -0.170000       12.0110           0
     42109 WT15     493      MECN     H11      HGA3     0.090000        1.0080           0
     42110 WT15     493      MECN     H12      HGA3     0.090000        1.0080           0
     42111 WT15     493      MECN     H13      HGA3     0.090000        1.0080           0
     42112 WT15     493      MECN     C2       CG1N1    0.360000       12.0110           0
     42113 WT15     493      MECN     N3       NG1T1   -0.460000       14.0070           0
     42114 WT15     494      MECN     C1       CG331   -0.170000       12.0110           0
     42115 WT15     494      MECN     H11      HGA3     0.090000        1.0080           0
     42116 WT15     494      MECN     H12      HGA3     0.090000        1.0080           0
     42117 WT15     494      MECN     H13      HGA3     0.090000        1.0080           0
     42118 WT15     494      MECN     C2       CG1N1    0.360000       12.0110           0
     42119 WT15     494      MECN     N3       NG1T1   -0.460000       14.0070           0
     42120 WT15     496      MECN     C1       CG331   -0.170000       12.0110           0
     42121 WT15     496      MECN     H11      HGA3     0.090000        1.0080           0
     42122 WT15     496      MECN     H12      HGA3     0.090000        1.0080           0
     42123 WT15     496      MECN     H13      HGA3     0.090000        1.0080           0
     42124 WT15     496      MECN     C2       CG1N1    0.360000       12.0110           0
     42125 WT15     496      MECN     N3       NG1T1   -0.460000       14.0070           0
     42126 WT15     497      MECN     C1       CG331   -0.170000       12.0110           0
     42127 WT15     497      MECN     H11      HGA3     0.090000        1.0080           0
     42128 WT15     497      MECN     H12      HGA3     0.090000        1.0080           0
     42129 WT15     497      MECN     H13      HGA3     0.090000        1.0080           0
     42130 WT15     497      MECN     C2       CG1N1    0.360000       12.0110           0
     42131 WT15     497      MECN     N3       NG1T1   -0.460000       14.0070           0
     42132 WT15     498      MECN     C1       CG331   -0.170000       12.0110           0
     42133 WT15     498      MECN     H11      HGA3     0.090000        1.0080           0
     42134 WT15     498      MECN     H12      HGA3     0.090000        1.0080           0
     42135 WT15     498      MECN     H13      HGA3     0.090000        1.0080           0
     42136 WT15     498      MECN     C2       CG1N1    0.360000       12.0110           0
     42137 WT15     498      MECN     N3       NG1T1   -0.460000       14.0070           0
     42138 WT15     499      MECN     C1       CG331   -0.170000       12.0110           0
     42139 WT15     499      MECN     H11      HGA3     0.090000        1.0080           0
     42140 WT15     499      MECN     H12      HGA3     0.090000        1.0080           0
     42141 WT15     499      MECN     H13      HGA3     0.090000        1.0080           0
     42142 WT15     499      MECN     C2       CG1N1    0.360000       12.0110           0
     42143 WT15     499      MECN     N3       NG1T1   -0.460000       14.0070           0
     42144 WT15     500      MECN     C1       CG331   -0.170000       12.0110           0
     42145 WT15     500      MECN     H11      HGA3     0.090000        1.0080           0
     42146 WT15     500      MECN     H12      HGA3     0.090000        1.0080           0
     42147 WT15     500      MECN     H13      HGA3     0.090000        1.0080           0
     42148 WT15     500      MECN     C2       CG1N1    0.360000       12.0110           0
     42149 WT15     500      MECN     N3       NG1T1   -0.460000       14.0070           0
     42150 WT15     501      MECN     C1       CG331   -0.170000       12.0110           0
     42151 WT15     501      MECN     H11      HGA3     0.090000        1.0080           0
     42152 WT15     501      MECN     H12      HGA3     0.090000        1.0080           0
     42153 WT15     501      MECN     H13      HGA3     0.090000        1.0080           0
     42154 WT15     501      MECN     C2       CG1N1    0.360000       12.0110           0
     42155 WT15     501      MECN     N3       NG1T1   -0.460000       14.0070           0
     42156 WT15     502      MECN     C1       CG331   -0.170000       12.0110           0
     42157 WT15     502      MECN     H11      HGA3     0.090000        1.0080           0
     42158 WT15     502      MECN     H12      HGA3     0.090000        1.0080           0
     42159 WT15     502      MECN     H13      HGA3     0.090000        1.0080           0
     42160 WT15     502      MECN     C2       CG1N1    0.360000       12.0110           0
     42161 WT15     502      MECN     N3       NG1T1   -0.460000       14.0070           0
     42162 WT15     503      MECN     C1       CG331   -0.170000       12.0110           0
     42163 WT15     503      MECN     H11      HGA3     0.090000        1.0080           0
     42164 WT15     503      MECN     H12      HGA3     0.090000        1.0080           0
     42165 WT15     503      MECN     H13      HGA3     0.090000        1.0080           0
     42166 WT15     503      MECN     C2       CG1N1    0.360000       12.0110           0
     42167 WT15     503      MECN     N3       NG1T1   -0.460000       14.0070           0
     42168 WT15     504      MECN     C1       CG331   -0.170000       12.0110           0
     42169 WT15     504      MECN     H11      HGA3     0.090000        1.0080           0
     42170 WT15     504      MECN     H12      HGA3     0.090000        1.0080           0
     42171 WT15     504      MECN     H13      HGA3     0.090000        1.0080           0
     42172 WT15     504      MECN     C2       CG1N1    0.360000       12.0110           0
     42173 WT15     504      MECN     N3       NG1T1   -0.460000       14.0070           0
     42174 WT15     506      MECN     C1       CG331   -0.170000       12.0110           0
     42175 WT15     506      MECN     H11      HGA3     0.090000        1.0080           0
     42176 WT15     506      MECN     H12      HGA3     0.090000        1.0080           0
     42177 WT15     506      MECN     H13      HGA3     0.090000        1.0080           0
     42178 WT15     506      MECN     C2       CG1N1    0.360000       12.0110           0
     42179 WT15     506      MECN     N3       NG1T1   -0.460000       14.0070           0
     42180 WT15     507      MECN     C1       CG331   -0.170000       12.0110           0
     42181 WT15     507      MECN     H11      HGA3     0.090000        1.0080           0
     42182 WT15     507      MECN     H12      HGA3     0.090000        1.0080           0
     42183 WT15     507      MECN     H13      HGA3     0.090000        1.0080           0
     42184 WT15     507      MECN     C2       CG1N1    0.360000       12.0110           0
     42185 WT15     507      MECN     N3       NG1T1   -0.460000       14.0070           0
     42186 WT15     508      MECN     C1       CG331   -0.170000       12.0110           0
     42187 WT15     508      MECN     H11      HGA3     0.090000        1.0080           0
     42188 WT15     508      MECN     H12      HGA3     0.090000        1.0080           0
     42189 WT15     508      MECN     H13      HGA3     0.090000        1.0080           0
     42190 WT15     508      MECN     C2       CG1N1    0.360000       12.0110           0
     42191 WT15     508      MECN     N3       NG1T1   -0.460000       14.0070           0
     42192 WT15     509      MECN     C1       CG331   -0.170000       12.0110           0
     42193 WT15     509      MECN     H11      HGA3     0.090000        1.0080           0
     42194 WT15     509      MECN     H12      HGA3     0.090000        1.0080           0
     42195 WT15     509      MECN     H13      HGA3     0.090000        1.0080           0
     42196 WT15     509      MECN     C2       CG1N1    0.360000       12.0110           0
     42197 WT15     509      MECN     N3       NG1T1   -0.460000       14.0070           0
     42198 WT15     511      MECN     C1       CG331   -0.170000       12.0110           0
     42199 WT15     511      MECN     H11      HGA3     0.090000        1.0080           0
     42200 WT15     511      MECN     H12      HGA3     0.090000        1.0080           0
     42201 WT15     511      MECN     H13      HGA3     0.090000        1.0080           0
     42202 WT15     511      MECN     C2       CG1N1    0.360000       12.0110           0
     42203 WT15     511      MECN     N3       NG1T1   -0.460000       14.0070           0
     42204 WT15     512      MECN     C1       CG331   -0.170000       12.0110           0
     42205 WT15     512      MECN     H11      HGA3     0.090000        1.0080           0
     42206 WT15     512      MECN     H12      HGA3     0.090000        1.0080           0
     42207 WT15     512      MECN     H13      HGA3     0.090000        1.0080           0
     42208 WT15     512      MECN     C2       CG1N1    0.360000       12.0110           0
     42209 WT15     512      MECN     N3       NG1T1   -0.460000       14.0070           0
     42210 WT15     513      MECN     C1       CG331   -0.170000       12.0110           0
     42211 WT15     513      MECN     H11      HGA3     0.090000        1.0080           0
     42212 WT15     513      MECN     H12      HGA3     0.090000        1.0080           0
     42213 WT15     513      MECN     H13      HGA3     0.090000        1.0080           0
     42214 WT15     513      MECN     C2       CG1N1    0.360000       12.0110           0
     42215 WT15     513      MECN     N3       NG1T1   -0.460000       14.0070           0
     42216 WT15     514      MECN     C1       CG331   -0.170000       12.0110           0
     42217 WT15     514      MECN     H11      HGA3     0.090000        1.0080           0
     42218 WT15     514      MECN     H12      HGA3     0.090000        1.0080           0
     42219 WT15     514      MECN     H13      HGA3     0.090000        1.0080           0
     42220 WT15     514      MECN     C2       CG1N1    0.360000       12.0110           0
     42221 WT15     514      MECN     N3       NG1T1   -0.460000       14.0070           0
     42222 WT15     515      MECN     C1       CG331   -0.170000       12.0110           0
     42223 WT15     515      MECN     H11      HGA3     0.090000        1.0080           0
     42224 WT15     515      MECN     H12      HGA3     0.090000        1.0080           0
     42225 WT15     515      MECN     H13      HGA3     0.090000        1.0080           0
     42226 WT15     515      MECN     C2       CG1N1    0.360000       12.0110           0
     42227 WT15     515      MECN     N3       NG1T1   -0.460000       14.0070           0
     42228 WT15     518      MECN     C1       CG331   -0.170000       12.0110           0
     42229 WT15     518      MECN     H11      HGA3     0.090000        1.0080           0
     42230 WT15     518      MECN     H12      HGA3     0.090000        1.0080           0
     42231 WT15     518      MECN     H13      HGA3     0.090000        1.0080           0
     42232 WT15     518      MECN     C2       CG1N1    0.360000       12.0110           0
     42233 WT15     518      MECN     N3       NG1T1   -0.460000       14.0070           0
     42234 WT15     519      MECN     C1       CG331   -0.170000       12.0110           0
     42235 WT15     519      MECN     H11      HGA3     0.090000        1.0080           0
     42236 WT15     519      MECN     H12      HGA3     0.090000        1.0080           0
     42237 WT15     519      MECN     H13      HGA3     0.090000        1.0080           0
     42238 WT15     519      MECN     C2       CG1N1    0.360000       12.0110           0
     42239 WT15     519      MECN     N3       NG1T1   -0.460000       14.0070           0
     42240 WT15     521      MECN     C1       CG331   -0.170000       12.0110           0
     42241 WT15     521      MECN     H11      HGA3     0.090000        1.0080           0
     42242 WT15     521      MECN     H12      HGA3     0.090000        1.0080           0
     42243 WT15     521      MECN     H13      HGA3     0.090000        1.0080           0
     42244 WT15     521      MECN     C2       CG1N1    0.360000       12.0110           0
     42245 WT15     521      MECN     N3       NG1T1   -0.460000       14.0070           0
     42246 WT15     522      MECN     C1       CG331   -0.170000       12.0110           0
     42247 WT15     522      MECN     H11      HGA3     0.090000        1.0080           0
     42248 WT15     522      MECN     H12      HGA3     0.090000        1.0080           0
     42249 WT15     522      MECN     H13      HGA3     0.090000        1.0080           0
     42250 WT15     522      MECN     C2       CG1N1    0.360000       12.0110           0
     42251 WT15     522      MECN     N3       NG1T1   -0.460000       14.0070           0
     42252 WT15     523      MECN     C1       CG331   -0.170000       12.0110           0
     42253 WT15     523      MECN     H11      HGA3     0.090000        1.0080           0
     42254 WT15     523      MECN     H12      HGA3     0.090000        1.0080           0
     42255 WT15     523      MECN     H13      HGA3     0.090000        1.0080           0
     42256 WT15     523      MECN     C2       CG1N1    0.360000       12.0110           0
     42257 WT15     523      MECN     N3       NG1T1   -0.460000       14.0070           0
     42258 WT15     524      MECN     C1       CG331   -0.170000       12.0110           0
     42259 WT15     524      MECN     H11      HGA3     0.090000        1.0080           0
     42260 WT15     524      MECN     H12      HGA3     0.090000        1.0080           0
     42261 WT15     524      MECN     H13      HGA3     0.090000        1.0080           0
     42262 WT15     524      MECN     C2       CG1N1    0.360000       12.0110           0
     42263 WT15     524      MECN     N3       NG1T1   -0.460000       14.0070           0
     42264 WT15     526      MECN     C1       CG331   -0.170000       12.0110           0
     42265 WT15     526      MECN     H11      HGA3     0.090000        1.0080           0
     42266 WT15     526      MECN     H12      HGA3     0.090000        1.0080           0
     42267 WT15     526      MECN     H13      HGA3     0.090000        1.0080           0
     42268 WT15     526      MECN     C2       CG1N1    0.360000       12.0110           0
     42269 WT15     526      MECN     N3       NG1T1   -0.460000       14.0070           0
     42270 WT15     529      MECN     C1       CG331   -0.170000       12.0110           0
     42271 WT15     529      MECN     H11      HGA3     0.090000        1.0080           0
     42272 WT15     529      MECN     H12      HGA3     0.090000        1.0080           0
     42273 WT15     529      MECN     H13      HGA3     0.090000        1.0080           0
     42274 WT15     529      MECN     C2       CG1N1    0.360000       12.0110           0
     42275 WT15     529      MECN     N3       NG1T1   -0.460000       14.0070           0
     42276 WT15     530      MECN     C1       CG331   -0.170000       12.0110           0
     42277 WT15     530      MECN     H11      HGA3     0.090000        1.0080           0
     42278 WT15     530      MECN     H12      HGA3     0.090000        1.0080           0
     42279 WT15     530      MECN     H13      HGA3     0.090000        1.0080           0
     42280 WT15     530      MECN     C2       CG1N1    0.360000       12.0110           0
     42281 WT15     530      MECN     N3       NG1T1   -0.460000       14.0070           0
     42282 WT15     532      MECN     C1       CG331   -0.170000       12.0110           0
     42283 WT15     532      MECN     H11      HGA3     0.090000        1.0080           0
     42284 WT15     532      MECN     H12      HGA3     0.090000        1.0080           0
     42285 WT15     532      MECN     H13      HGA3     0.090000        1.0080           0
     42286 WT15     532      MECN     C2       CG1N1    0.360000       12.0110           0
     42287 WT15     532      MECN     N3       NG1T1   -0.460000       14.0070           0
     42288 WT15     533      MECN     C1       CG331   -0.170000       12.0110           0
     42289 WT15     533      MECN     H11      HGA3     0.090000        1.0080           0
     42290 WT15     533      MECN     H12      HGA3     0.090000        1.0080           0
     42291 WT15     533      MECN     H13      HGA3     0.090000        1.0080           0
     42292 WT15     533      MECN     C2       CG1N1    0.360000       12.0110           0
     42293 WT15     533      MECN     N3       NG1T1   -0.460000       14.0070           0
     42294 WT15     534      MECN     C1       CG331   -0.170000       12.0110           0
     42295 WT15     534      MECN     H11      HGA3     0.090000        1.0080           0
     42296 WT15     534      MECN     H12      HGA3     0.090000        1.0080           0
     42297 WT15     534      MECN     H13      HGA3     0.090000        1.0080           0
     42298 WT15     534      MECN     C2       CG1N1    0.360000       12.0110           0
     42299 WT15     534      MECN     N3       NG1T1   -0.460000       14.0070           0
     42300 WT15     536      MECN     C1       CG331   -0.170000       12.0110           0
     42301 WT15     536      MECN     H11      HGA3     0.090000        1.0080           0
     42302 WT15     536      MECN     H12      HGA3     0.090000        1.0080           0
     42303 WT15     536      MECN     H13      HGA3     0.090000        1.0080           0
     42304 WT15     536      MECN     C2       CG1N1    0.360000       12.0110           0
     42305 WT15     536      MECN     N3       NG1T1   -0.460000       14.0070           0
     42306 WT15     537      MECN     C1       CG331   -0.170000       12.0110           0
     42307 WT15     537      MECN     H11      HGA3     0.090000        1.0080           0
     42308 WT15     537      MECN     H12      HGA3     0.090000        1.0080           0
     42309 WT15     537      MECN     H13      HGA3     0.090000        1.0080           0
     42310 WT15     537      MECN     C2       CG1N1    0.360000       12.0110           0
     42311 WT15     537      MECN     N3       NG1T1   -0.460000       14.0070           0
     42312 WT15     538      MECN     C1       CG331   -0.170000       12.0110           0
     42313 WT15     538      MECN     H11      HGA3     0.090000        1.0080           0
     42314 WT15     538      MECN     H12      HGA3     0.090000        1.0080           0
     42315 WT15     538      MECN     H13      HGA3     0.090000        1.0080           0
     42316 WT15     538      MECN     C2       CG1N1    0.360000       12.0110           0
     42317 WT15     538      MECN     N3       NG1T1   -0.460000       14.0070           0
     42318 WT15     539      MECN     C1       CG331   -0.170000       12.0110           0
     42319 WT15     539      MECN     H11      HGA3     0.090000        1.0080           0
     42320 WT15     539      MECN     H12      HGA3     0.090000        1.0080           0
     42321 WT15     539      MECN     H13      HGA3     0.090000        1.0080           0
     42322 WT15     539      MECN     C2       CG1N1    0.360000       12.0110           0
     42323 WT15     539      MECN     N3       NG1T1   -0.460000       14.0070           0
     42324 WT15     540      MECN     C1       CG331   -0.170000       12.0110           0
     42325 WT15     540      MECN     H11      HGA3     0.090000        1.0080           0
     42326 WT15     540      MECN     H12      HGA3     0.090000        1.0080           0
     42327 WT15     540      MECN     H13      HGA3     0.090000        1.0080           0
     42328 WT15     540      MECN     C2       CG1N1    0.360000       12.0110           0
     42329 WT15     540      MECN     N3       NG1T1   -0.460000       14.0070           0
     42330 WT15     541      MECN     C1       CG331   -0.170000       12.0110           0
     42331 WT15     541      MECN     H11      HGA3     0.090000        1.0080           0
     42332 WT15     541      MECN     H12      HGA3     0.090000        1.0080           0
     42333 WT15     541      MECN     H13      HGA3     0.090000        1.0080           0
     42334 WT15     541      MECN     C2       CG1N1    0.360000       12.0110           0
     42335 WT15     541      MECN     N3       NG1T1   -0.460000       14.0070           0
     42336 WT15     542      MECN     C1       CG331   -0.170000       12.0110           0
     42337 WT15     542      MECN     H11      HGA3     0.090000        1.0080           0
     42338 WT15     542      MECN     H12      HGA3     0.090000        1.0080           0
     42339 WT15     542      MECN     H13      HGA3     0.090000        1.0080           0
     42340 WT15     542      MECN     C2       CG1N1    0.360000       12.0110           0
     42341 WT15     542      MECN     N3       NG1T1   -0.460000       14.0070           0
     42342 WT15     545      MECN     C1       CG331   -0.170000       12.0110           0
     42343 WT15     545      MECN     H11      HGA3     0.090000        1.0080           0
     42344 WT15     545      MECN     H12      HGA3     0.090000        1.0080           0
     42345 WT15     545      MECN     H13      HGA3     0.090000        1.0080           0
     42346 WT15     545      MECN     C2       CG1N1    0.360000       12.0110           0
     42347 WT15     545      MECN     N3       NG1T1   -0.460000       14.0070           0
     42348 WT15     546      MECN     C1       CG331   -0.170000       12.0110           0
     42349 WT15     546      MECN     H11      HGA3     0.090000        1.0080           0
     42350 WT15     546      MECN     H12      HGA3     0.090000        1.0080           0
     42351 WT15     546      MECN     H13      HGA3     0.090000        1.0080           0
     42352 WT15     546      MECN     C2       CG1N1    0.360000       12.0110           0
     42353 WT15     546      MECN     N3       NG1T1   -0.460000       14.0070           0
     42354 WT15     547      MECN     C1       CG331   -0.170000       12.0110           0
     42355 WT15     547      MECN     H11      HGA3     0.090000        1.0080           0
     42356 WT15     547      MECN     H12      HGA3     0.090000        1.0080           0
     42357 WT15     547      MECN     H13      HGA3     0.090000        1.0080           0
     42358 WT15     547      MECN     C2       CG1N1    0.360000       12.0110           0
     42359 WT15     547      MECN     N3       NG1T1   -0.460000       14.0070           0
     42360 WT15     549      MECN     C1       CG331   -0.170000       12.0110           0
     42361 WT15     549      MECN     H11      HGA3     0.090000        1.0080           0
     42362 WT15     549      MECN     H12      HGA3     0.090000        1.0080           0
     42363 WT15     549      MECN     H13      HGA3     0.090000        1.0080           0
     42364 WT15     549      MECN     C2       CG1N1    0.360000       12.0110           0
     42365 WT15     549      MECN     N3       NG1T1   -0.460000       14.0070           0
     42366 WT15     550      MECN     C1       CG331   -0.170000       12.0110           0
     42367 WT15     550      MECN     H11      HGA3     0.090000        1.0080           0
     42368 WT15     550      MECN     H12      HGA3     0.090000        1.0080           0
     42369 WT15     550      MECN     H13      HGA3     0.090000        1.0080           0
     42370 WT15     550      MECN     C2       CG1N1    0.360000       12.0110           0
     42371 WT15     550      MECN     N3       NG1T1   -0.460000       14.0070           0
     42372 WT15     551      MECN     C1       CG331   -0.170000       12.0110           0
     42373 WT15     551      MECN     H11      HGA3     0.090000        1.0080           0
     42374 WT15     551      MECN     H12      HGA3     0.090000        1.0080           0
     42375 WT15     551      MECN     H13      HGA3     0.090000        1.0080           0
     42376 WT15     551      MECN     C2       CG1N1    0.360000       12.0110           0
     42377 WT15     551      MECN     N3       NG1T1   -0.460000       14.0070           0
     42378 WT15     552      MECN     C1       CG331   -0.170000       12.0110           0
     42379 WT15     552      MECN     H11      HGA3     0.090000        1.0080           0
     42380 WT15     552      MECN     H12      HGA3     0.090000        1.0080           0
     42381 WT15     552      MECN     H13      HGA3     0.090000        1.0080           0
     42382 WT15     552      MECN     C2       CG1N1    0.360000       12.0110           0
     42383 WT15     552      MECN     N3       NG1T1   -0.460000       14.0070           0
     42384 WT15     555      MECN     C1       CG331   -0.170000       12.0110           0
     42385 WT15     555      MECN     H11      HGA3     0.090000        1.0080           0
     42386 WT15     555      MECN     H12      HGA3     0.090000        1.0080           0
     42387 WT15     555      MECN     H13      HGA3     0.090000        1.0080           0
     42388 WT15     555      MECN     C2       CG1N1    0.360000       12.0110           0
     42389 WT15     555      MECN     N3       NG1T1   -0.460000       14.0070           0
     42390 WT15     557      MECN     C1       CG331   -0.170000       12.0110           0
     42391 WT15     557      MECN     H11      HGA3     0.090000        1.0080           0
     42392 WT15     557      MECN     H12      HGA3     0.090000        1.0080           0
     42393 WT15     557      MECN     H13      HGA3     0.090000        1.0080           0
     42394 WT15     557      MECN     C2       CG1N1    0.360000       12.0110           0
     42395 WT15     557      MECN     N3       NG1T1   -0.460000       14.0070           0
     42396 WT15     559      MECN     C1       CG331   -0.170000       12.0110           0
     42397 WT15     559      MECN     H11      HGA3     0.090000        1.0080           0
     42398 WT15     559      MECN     H12      HGA3     0.090000        1.0080           0
     42399 WT15     559      MECN     H13      HGA3     0.090000        1.0080           0
     42400 WT15     559      MECN     C2       CG1N1    0.360000       12.0110           0
     42401 WT15     559      MECN     N3       NG1T1   -0.460000       14.0070           0
     42402 WT15     560      MECN     C1       CG331   -0.170000       12.0110           0
     42403 WT15     560      MECN     H11      HGA3     0.090000        1.0080           0
     42404 WT15     560      MECN     H12      HGA3     0.090000        1.0080           0
     42405 WT15     560      MECN     H13      HGA3     0.090000        1.0080           0
     42406 WT15     560      MECN     C2       CG1N1    0.360000       12.0110           0
     42407 WT15     560      MECN     N3       NG1T1   -0.460000       14.0070           0
     42408 WT15     561      MECN     C1       CG331   -0.170000       12.0110           0
     42409 WT15     561      MECN     H11      HGA3     0.090000        1.0080           0
     42410 WT15     561      MECN     H12      HGA3     0.090000        1.0080           0
     42411 WT15     561      MECN     H13      HGA3     0.090000        1.0080           0
     42412 WT15     561      MECN     C2       CG1N1    0.360000       12.0110           0
     42413 WT15     561      MECN     N3       NG1T1   -0.460000       14.0070           0
     42414 WT15     562      MECN     C1       CG331   -0.170000       12.0110           0
     42415 WT15     562      MECN     H11      HGA3     0.090000        1.0080           0
     42416 WT15     562      MECN     H12      HGA3     0.090000        1.0080           0
     42417 WT15     562      MECN     H13      HGA3     0.090000        1.0080           0
     42418 WT15     562      MECN     C2       CG1N1    0.360000       12.0110           0
     42419 WT15     562      MECN     N3       NG1T1   -0.460000       14.0070           0
     42420 WT15     563      MECN     C1       CG331   -0.170000       12.0110           0
     42421 WT15     563      MECN     H11      HGA3     0.090000        1.0080           0
     42422 WT15     563      MECN     H12      HGA3     0.090000        1.0080           0
     42423 WT15     563      MECN     H13      HGA3     0.090000        1.0080           0
     42424 WT15     563      MECN     C2       CG1N1    0.360000       12.0110           0
     42425 WT15     563      MECN     N3       NG1T1   -0.460000       14.0070           0
     42426 WT15     564      MECN     C1       CG331   -0.170000       12.0110           0
     42427 WT15     564      MECN     H11      HGA3     0.090000        1.0080           0
     42428 WT15     564      MECN     H12      HGA3     0.090000        1.0080           0
     42429 WT15     564      MECN     H13      HGA3     0.090000        1.0080           0
     42430 WT15     564      MECN     C2       CG1N1    0.360000       12.0110           0
     42431 WT15     564      MECN     N3       NG1T1   -0.460000       14.0070           0
     42432 WT15     565      MECN     C1       CG331   -0.170000       12.0110           0
     42433 WT15     565      MECN     H11      HGA3     0.090000        1.0080           0
     42434 WT15     565      MECN     H12      HGA3     0.090000        1.0080           0
     42435 WT15     565      MECN     H13      HGA3     0.090000        1.0080           0
     42436 WT15     565      MECN     C2       CG1N1    0.360000       12.0110           0
     42437 WT15     565      MECN     N3       NG1T1   -0.460000       14.0070           0
     42438 WT15     567      MECN     C1       CG331   -0.170000       12.0110           0
     42439 WT15     567      MECN     H11      HGA3     0.090000        1.0080           0
     42440 WT15     567      MECN     H12      HGA3     0.090000        1.0080           0
     42441 WT15     567      MECN     H13      HGA3     0.090000        1.0080           0
     42442 WT15     567      MECN     C2       CG1N1    0.360000       12.0110           0
     42443 WT15     567      MECN     N3       NG1T1   -0.460000       14.0070           0
     42444 WT15     568      MECN     C1       CG331   -0.170000       12.0110           0
     42445 WT15     568      MECN     H11      HGA3     0.090000        1.0080           0
     42446 WT15     568      MECN     H12      HGA3     0.090000        1.0080           0
     42447 WT15     568      MECN     H13      HGA3     0.090000        1.0080           0
     42448 WT15     568      MECN     C2       CG1N1    0.360000       12.0110           0
     42449 WT15     568      MECN     N3       NG1T1   -0.460000       14.0070           0
     42450 WT15     569      MECN     C1       CG331   -0.170000       12.0110           0
     42451 WT15     569      MECN     H11      HGA3     0.090000        1.0080           0
     42452 WT15     569      MECN     H12      HGA3     0.090000        1.0080           0
     42453 WT15     569      MECN     H13      HGA3     0.090000        1.0080           0
     42454 WT15     569      MECN     C2       CG1N1    0.360000       12.0110           0
     42455 WT15     569      MECN     N3       NG1T1   -0.460000       14.0070           0
     42456 WT15     570      MECN     C1       CG331   -0.170000       12.0110           0
     42457 WT15     570      MECN     H11      HGA3     0.090000        1.0080           0
     42458 WT15     570      MECN     H12      HGA3     0.090000        1.0080           0
     42459 WT15     570      MECN     H13      HGA3     0.090000        1.0080           0
     42460 WT15     570      MECN     C2       CG1N1    0.360000       12.0110           0
     42461 WT15     570      MECN     N3       NG1T1   -0.460000       14.0070           0
     42462 WT15     571      MECN     C1       CG331   -0.170000       12.0110           0
     42463 WT15     571      MECN     H11      HGA3     0.090000        1.0080           0
     42464 WT15     571      MECN     H12      HGA3     0.090000        1.0080           0
     42465 WT15     571      MECN     H13      HGA3     0.090000        1.0080           0
     42466 WT15     571      MECN     C2       CG1N1    0.360000       12.0110           0
     42467 WT15     571      MECN     N3       NG1T1   -0.460000       14.0070           0
     42468 WT15     572      MECN     C1       CG331   -0.170000       12.0110           0
     42469 WT15     572      MECN     H11      HGA3     0.090000        1.0080           0
     42470 WT15     572      MECN     H12      HGA3     0.090000        1.0080           0
     42471 WT15     572      MECN     H13      HGA3     0.090000        1.0080           0
     42472 WT15     572      MECN     C2       CG1N1    0.360000       12.0110           0
     42473 WT15     572      MECN     N3       NG1T1   -0.460000       14.0070           0
     42474 WT15     573      MECN     C1       CG331   -0.170000       12.0110           0
     42475 WT15     573      MECN     H11      HGA3     0.090000        1.0080           0
     42476 WT15     573      MECN     H12      HGA3     0.090000        1.0080           0
     42477 WT15     573      MECN     H13      HGA3     0.090000        1.0080           0
     42478 WT15     573      MECN     C2       CG1N1    0.360000       12.0110           0
     42479 WT15     573      MECN     N3       NG1T1   -0.460000       14.0070           0
     42480 WT15     574      MECN     C1       CG331   -0.170000       12.0110           0
     42481 WT15     574      MECN     H11      HGA3     0.090000        1.0080           0
     42482 WT15     574      MECN     H12      HGA3     0.090000        1.0080           0
     42483 WT15     574      MECN     H13      HGA3     0.090000        1.0080           0
     42484 WT15     574      MECN     C2       CG1N1    0.360000       12.0110           0
     42485 WT15     574      MECN     N3       NG1T1   -0.460000       14.0070           0
     42486 WT15     575      MECN     C1       CG331   -0.170000       12.0110           0
     42487 WT15     575      MECN     H11      HGA3     0.090000        1.0080           0
     42488 WT15     575      MECN     H12      HGA3     0.090000        1.0080           0
     42489 WT15     575      MECN     H13      HGA3     0.090000        1.0080           0
     42490 WT15     575      MECN     C2       CG1N1    0.360000       12.0110           0
     42491 WT15     575      MECN     N3       NG1T1   -0.460000       14.0070           0
     42492 WT15     576      MECN     C1       CG331   -0.170000       12.0110           0
     42493 WT15     576      MECN     H11      HGA3     0.090000        1.0080           0
     42494 WT15     576      MECN     H12      HGA3     0.090000        1.0080           0
     42495 WT15     576      MECN     H13      HGA3     0.090000        1.0080           0
     42496 WT15     576      MECN     C2       CG1N1    0.360000       12.0110           0
     42497 WT15     576      MECN     N3       NG1T1   -0.460000       14.0070           0
     42498 WT15     577      MECN     C1       CG331   -0.170000       12.0110           0
     42499 WT15     577      MECN     H11      HGA3     0.090000        1.0080           0
     42500 WT15     577      MECN     H12      HGA3     0.090000        1.0080           0
     42501 WT15     577      MECN     H13      HGA3     0.090000        1.0080           0
     42502 WT15     577      MECN     C2       CG1N1    0.360000       12.0110           0
     42503 WT15     577      MECN     N3       NG1T1   -0.460000       14.0070           0
     42504 WT15     578      MECN     C1       CG331   -0.170000       12.0110           0
     42505 WT15     578      MECN     H11      HGA3     0.090000        1.0080           0
     42506 WT15     578      MECN     H12      HGA3     0.090000        1.0080           0
     42507 WT15     578      MECN     H13      HGA3     0.090000        1.0080           0
     42508 WT15     578      MECN     C2       CG1N1    0.360000       12.0110           0
     42509 WT15     578      MECN     N3       NG1T1   -0.460000       14.0070           0
     42510 WT15     579      MECN     C1       CG331   -0.170000       12.0110           0
     42511 WT15     579      MECN     H11      HGA3     0.090000        1.0080           0
     42512 WT15     579      MECN     H12      HGA3     0.090000        1.0080           0
     42513 WT15     579      MECN     H13      HGA3     0.090000        1.0080           0
     42514 WT15     579      MECN     C2       CG1N1    0.360000       12.0110           0
     42515 WT15     579      MECN     N3       NG1T1   -0.460000       14.0070           0
     42516 WT15     580      MECN     C1       CG331   -0.170000       12.0110           0
     42517 WT15     580      MECN     H11      HGA3     0.090000        1.0080           0
     42518 WT15     580      MECN     H12      HGA3     0.090000        1.0080           0
     42519 WT15     580      MECN     H13      HGA3     0.090000        1.0080           0
     42520 WT15     580      MECN     C2       CG1N1    0.360000       12.0110           0
     42521 WT15     580      MECN     N3       NG1T1   -0.460000       14.0070           0
     42522 WT15     581      MECN     C1       CG331   -0.170000       12.0110           0
     42523 WT15     581      MECN     H11      HGA3     0.090000        1.0080           0
     42524 WT15     581      MECN     H12      HGA3     0.090000        1.0080           0
     42525 WT15     581      MECN     H13      HGA3     0.090000        1.0080           0
     42526 WT15     581      MECN     C2       CG1N1    0.360000       12.0110           0
     42527 WT15     581      MECN     N3       NG1T1   -0.460000       14.0070           0
     42528 WT15     582      MECN     C1       CG331   -0.170000       12.0110           0
     42529 WT15     582      MECN     H11      HGA3     0.090000        1.0080           0
     42530 WT15     582      MECN     H12      HGA3     0.090000        1.0080           0
     42531 WT15     582      MECN     H13      HGA3     0.090000        1.0080           0
     42532 WT15     582      MECN     C2       CG1N1    0.360000       12.0110           0
     42533 WT15     582      MECN     N3       NG1T1   -0.460000       14.0070           0
     42534 WT15     583      MECN     C1       CG331   -0.170000       12.0110           0
     42535 WT15     583      MECN     H11      HGA3     0.090000        1.0080           0
     42536 WT15     583      MECN     H12      HGA3     0.090000        1.0080           0
     42537 WT15     583      MECN     H13      HGA3     0.090000        1.0080           0
     42538 WT15     583      MECN     C2       CG1N1    0.360000       12.0110           0
     42539 WT15     583      MECN     N3       NG1T1   -0.460000       14.0070           0
     42540 WT15     584      MECN     C1       CG331   -0.170000       12.0110           0
     42541 WT15     584      MECN     H11      HGA3     0.090000        1.0080           0
     42542 WT15     584      MECN     H12      HGA3     0.090000        1.0080           0
     42543 WT15     584      MECN     H13      HGA3     0.090000        1.0080           0
     42544 WT15     584      MECN     C2       CG1N1    0.360000       12.0110           0
     42545 WT15     584      MECN     N3       NG1T1   -0.460000       14.0070           0
     42546 WT15     585      MECN     C1       CG331   -0.170000       12.0110           0
     42547 WT15     585      MECN     H11      HGA3     0.090000        1.0080           0
     42548 WT15     585      MECN     H12      HGA3     0.090000        1.0080           0
     42549 WT15     585      MECN     H13      HGA3     0.090000        1.0080           0
     42550 WT15     585      MECN     C2       CG1N1    0.360000       12.0110           0
     42551 WT15     585      MECN     N3       NG1T1   -0.460000       14.0070           0
     42552 WT15     587      MECN     C1       CG331   -0.170000       12.0110           0
     42553 WT15     587      MECN     H11      HGA3     0.090000        1.0080           0
     42554 WT15     587      MECN     H12      HGA3     0.090000        1.0080           0
     42555 WT15     587      MECN     H13      HGA3     0.090000        1.0080           0
     42556 WT15     587      MECN     C2       CG1N1    0.360000       12.0110           0
     42557 WT15     587      MECN     N3       NG1T1   -0.460000       14.0070           0
     42558 WT15     590      MECN     C1       CG331   -0.170000       12.0110           0
     42559 WT15     590      MECN     H11      HGA3     0.090000        1.0080           0
     42560 WT15     590      MECN     H12      HGA3     0.090000        1.0080           0
     42561 WT15     590      MECN     H13      HGA3     0.090000        1.0080           0
     42562 WT15     590      MECN     C2       CG1N1    0.360000       12.0110           0
     42563 WT15     590      MECN     N3       NG1T1   -0.460000       14.0070           0
     42564 WT15     591      MECN     C1       CG331   -0.170000       12.0110           0
     42565 WT15     591      MECN     H11      HGA3     0.090000        1.0080           0
     42566 WT15     591      MECN     H12      HGA3     0.090000        1.0080           0
     42567 WT15     591      MECN     H13      HGA3     0.090000        1.0080           0
     42568 WT15     591      MECN     C2       CG1N1    0.360000       12.0110           0
     42569 WT15     591      MECN     N3       NG1T1   -0.460000       14.0070           0
     42570 WT15     592      MECN     C1       CG331   -0.170000       12.0110           0
     42571 WT15     592      MECN     H11      HGA3     0.090000        1.0080           0
     42572 WT15     592      MECN     H12      HGA3     0.090000        1.0080           0
     42573 WT15     592      MECN     H13      HGA3     0.090000        1.0080           0
     42574 WT15     592      MECN     C2       CG1N1    0.360000       12.0110           0
     42575 WT15     592      MECN     N3       NG1T1   -0.460000       14.0070           0
     42576 WT15     593      MECN     C1       CG331   -0.170000       12.0110           0
     42577 WT15     593      MECN     H11      HGA3     0.090000        1.0080           0
     42578 WT15     593      MECN     H12      HGA3     0.090000        1.0080           0
     42579 WT15     593      MECN     H13      HGA3     0.090000        1.0080           0
     42580 WT15     593      MECN     C2       CG1N1    0.360000       12.0110           0
     42581 WT15     593      MECN     N3       NG1T1   -0.460000       14.0070           0
     42582 WT15     594      MECN     C1       CG331   -0.170000       12.0110           0
     42583 WT15     594      MECN     H11      HGA3     0.090000        1.0080           0
     42584 WT15     594      MECN     H12      HGA3     0.090000        1.0080           0
     42585 WT15     594      MECN     H13      HGA3     0.090000        1.0080           0
     42586 WT15     594      MECN     C2       CG1N1    0.360000       12.0110           0
     42587 WT15     594      MECN     N3       NG1T1   -0.460000       14.0070           0
     42588 WT15     595      MECN     C1       CG331   -0.170000       12.0110           0
     42589 WT15     595      MECN     H11      HGA3     0.090000        1.0080           0
     42590 WT15     595      MECN     H12      HGA3     0.090000        1.0080           0
     42591 WT15     595      MECN     H13      HGA3     0.090000        1.0080           0
     42592 WT15     595      MECN     C2       CG1N1    0.360000       12.0110           0
     42593 WT15     595      MECN     N3       NG1T1   -0.460000       14.0070           0
     42594 WT15     596      MECN     C1       CG331   -0.170000       12.0110           0
     42595 WT15     596      MECN     H11      HGA3     0.090000        1.0080           0
     42596 WT15     596      MECN     H12      HGA3     0.090000        1.0080           0
     42597 WT15     596      MECN     H13      HGA3     0.090000        1.0080           0
     42598 WT15     596      MECN     C2       CG1N1    0.360000       12.0110           0
     42599 WT15     596      MECN     N3       NG1T1   -0.460000       14.0070           0
     42600 WT15     597      MECN     C1       CG331   -0.170000       12.0110           0
     42601 WT15     597      MECN     H11      HGA3     0.090000        1.0080           0
     42602 WT15     597      MECN     H12      HGA3     0.090000        1.0080           0
     42603 WT15     597      MECN     H13      HGA3     0.090000        1.0080           0
     42604 WT15     597      MECN     C2       CG1N1    0.360000       12.0110           0
     42605 WT15     597      MECN     N3       NG1T1   -0.460000       14.0070           0
     42606 WT15     598      MECN     C1       CG331   -0.170000       12.0110           0
     42607 WT15     598      MECN     H11      HGA3     0.090000        1.0080           0
     42608 WT15     598      MECN     H12      HGA3     0.090000        1.0080           0
     42609 WT15     598      MECN     H13      HGA3     0.090000        1.0080           0
     42610 WT15     598      MECN     C2       CG1N1    0.360000       12.0110           0
     42611 WT15     598      MECN     N3       NG1T1   -0.460000       14.0070           0
     42612 WT15     600      MECN     C1       CG331   -0.170000       12.0110           0
     42613 WT15     600      MECN     H11      HGA3     0.090000        1.0080           0
     42614 WT15     600      MECN     H12      HGA3     0.090000        1.0080           0
     42615 WT15     600      MECN     H13      HGA3     0.090000        1.0080           0
     42616 WT15     600      MECN     C2       CG1N1    0.360000       12.0110           0
     42617 WT15     600      MECN     N3       NG1T1   -0.460000       14.0070           0
     42618 WT15     602      MECN     C1       CG331   -0.170000       12.0110           0
     42619 WT15     602      MECN     H11      HGA3     0.090000        1.0080           0
     42620 WT15     602      MECN     H12      HGA3     0.090000        1.0080           0
     42621 WT15     602      MECN     H13      HGA3     0.090000        1.0080           0
     42622 WT15     602      MECN     C2       CG1N1    0.360000       12.0110           0
     42623 WT15     602      MECN     N3       NG1T1   -0.460000       14.0070           0
     42624 WT15     603      MECN     C1       CG331   -0.170000       12.0110           0
     42625 WT15     603      MECN     H11      HGA3     0.090000        1.0080           0
     42626 WT15     603      MECN     H12      HGA3     0.090000        1.0080           0
     42627 WT15     603      MECN     H13      HGA3     0.090000        1.0080           0
     42628 WT15     603      MECN     C2       CG1N1    0.360000       12.0110           0
     42629 WT15     603      MECN     N3       NG1T1   -0.460000       14.0070           0
     42630 WT15     604      MECN     C1       CG331   -0.170000       12.0110           0
     42631 WT15     604      MECN     H11      HGA3     0.090000        1.0080           0
     42632 WT15     604      MECN     H12      HGA3     0.090000        1.0080           0
     42633 WT15     604      MECN     H13      HGA3     0.090000        1.0080           0
     42634 WT15     604      MECN     C2       CG1N1    0.360000       12.0110           0
     42635 WT15     604      MECN     N3       NG1T1   -0.460000       14.0070           0
     42636 WT15     605      MECN     C1       CG331   -0.170000       12.0110           0
     42637 WT15     605      MECN     H11      HGA3     0.090000        1.0080           0
     42638 WT15     605      MECN     H12      HGA3     0.090000        1.0080           0
     42639 WT15     605      MECN     H13      HGA3     0.090000        1.0080           0
     42640 WT15     605      MECN     C2       CG1N1    0.360000       12.0110           0
     42641 WT15     605      MECN     N3       NG1T1   -0.460000       14.0070           0
     42642 WT15     606      MECN     C1       CG331   -0.170000       12.0110           0
     42643 WT15     606      MECN     H11      HGA3     0.090000        1.0080           0
     42644 WT15     606      MECN     H12      HGA3     0.090000        1.0080           0
     42645 WT15     606      MECN     H13      HGA3     0.090000        1.0080           0
     42646 WT15     606      MECN     C2       CG1N1    0.360000       12.0110           0
     42647 WT15     606      MECN     N3       NG1T1   -0.460000       14.0070           0
     42648 WT15     607      MECN     C1       CG331   -0.170000       12.0110           0
     42649 WT15     607      MECN     H11      HGA3     0.090000        1.0080           0
     42650 WT15     607      MECN     H12      HGA3     0.090000        1.0080           0
     42651 WT15     607      MECN     H13      HGA3     0.090000        1.0080           0
     42652 WT15     607      MECN     C2       CG1N1    0.360000       12.0110           0
     42653 WT15     607      MECN     N3       NG1T1   -0.460000       14.0070           0
     42654 WT15     609      MECN     C1       CG331   -0.170000       12.0110           0
     42655 WT15     609      MECN     H11      HGA3     0.090000        1.0080           0
     42656 WT15     609      MECN     H12      HGA3     0.090000        1.0080           0
     42657 WT15     609      MECN     H13      HGA3     0.090000        1.0080           0
     42658 WT15     609      MECN     C2       CG1N1    0.360000       12.0110           0
     42659 WT15     609      MECN     N3       NG1T1   -0.460000       14.0070           0
     42660 WT15     610      MECN     C1       CG331   -0.170000       12.0110           0
     42661 WT15     610      MECN     H11      HGA3     0.090000        1.0080           0
     42662 WT15     610      MECN     H12      HGA3     0.090000        1.0080           0
     42663 WT15     610      MECN     H13      HGA3     0.090000        1.0080           0
     42664 WT15     610      MECN     C2       CG1N1    0.360000       12.0110           0
     42665 WT15     610      MECN     N3       NG1T1   -0.460000       14.0070           0
     42666 WT15     612      MECN     C1       CG331   -0.170000       12.0110           0
     42667 WT15     612      MECN     H11      HGA3     0.090000        1.0080           0
     42668 WT15     612      MECN     H12      HGA3     0.090000        1.0080           0
     42669 WT15     612      MECN     H13      HGA3     0.090000        1.0080           0
     42670 WT15     612      MECN     C2       CG1N1    0.360000       12.0110           0
     42671 WT15     612      MECN     N3       NG1T1   -0.460000       14.0070           0
     42672 WT15     613      MECN     C1       CG331   -0.170000       12.0110           0
     42673 WT15     613      MECN     H11      HGA3     0.090000        1.0080           0
     42674 WT15     613      MECN     H12      HGA3     0.090000        1.0080           0
     42675 WT15     613      MECN     H13      HGA3     0.090000        1.0080           0
     42676 WT15     613      MECN     C2       CG1N1    0.360000       12.0110           0
     42677 WT15     613      MECN     N3       NG1T1   -0.460000       14.0070           0
     42678 WT15     614      MECN     C1       CG331   -0.170000       12.0110           0
     42679 WT15     614      MECN     H11      HGA3     0.090000        1.0080           0
     42680 WT15     614      MECN     H12      HGA3     0.090000        1.0080           0
     42681 WT15     614      MECN     H13      HGA3     0.090000        1.0080           0
     42682 WT15     614      MECN     C2       CG1N1    0.360000       12.0110           0
     42683 WT15     614      MECN     N3       NG1T1   -0.460000       14.0070           0
     42684 WT15     616      MECN     C1       CG331   -0.170000       12.0110           0
     42685 WT15     616      MECN     H11      HGA3     0.090000        1.0080           0
     42686 WT15     616      MECN     H12      HGA3     0.090000        1.0080           0
     42687 WT15     616      MECN     H13      HGA3     0.090000        1.0080           0
     42688 WT15     616      MECN     C2       CG1N1    0.360000       12.0110           0
     42689 WT15     616      MECN     N3       NG1T1   -0.460000       14.0070           0
     42690 WT15     619      MECN     C1       CG331   -0.170000       12.0110           0
     42691 WT15     619      MECN     H11      HGA3     0.090000        1.0080           0
     42692 WT15     619      MECN     H12      HGA3     0.090000        1.0080           0
     42693 WT15     619      MECN     H13      HGA3     0.090000        1.0080           0
     42694 WT15     619      MECN     C2       CG1N1    0.360000       12.0110           0
     42695 WT15     619      MECN     N3       NG1T1   -0.460000       14.0070           0
     42696 WT15     621      MECN     C1       CG331   -0.170000       12.0110           0
     42697 WT15     621      MECN     H11      HGA3     0.090000        1.0080           0
     42698 WT15     621      MECN     H12      HGA3     0.090000        1.0080           0
     42699 WT15     621      MECN     H13      HGA3     0.090000        1.0080           0
     42700 WT15     621      MECN     C2       CG1N1    0.360000       12.0110           0
     42701 WT15     621      MECN     N3       NG1T1   -0.460000       14.0070           0
     42702 WT15     623      MECN     C1       CG331   -0.170000       12.0110           0
     42703 WT15     623      MECN     H11      HGA3     0.090000        1.0080           0
     42704 WT15     623      MECN     H12      HGA3     0.090000        1.0080           0
     42705 WT15     623      MECN     H13      HGA3     0.090000        1.0080           0
     42706 WT15     623      MECN     C2       CG1N1    0.360000       12.0110           0
     42707 WT15     623      MECN     N3       NG1T1   -0.460000       14.0070           0
     42708 WT15     624      MECN     C1       CG331   -0.170000       12.0110           0
     42709 WT15     624      MECN     H11      HGA3     0.090000        1.0080           0
     42710 WT15     624      MECN     H12      HGA3     0.090000        1.0080           0
     42711 WT15     624      MECN     H13      HGA3     0.090000        1.0080           0
     42712 WT15     624      MECN     C2       CG1N1    0.360000       12.0110           0
     42713 WT15     624      MECN     N3       NG1T1   -0.460000       14.0070           0
     42714 WT15     626      MECN     C1       CG331   -0.170000       12.0110           0
     42715 WT15     626      MECN     H11      HGA3     0.090000        1.0080           0
     42716 WT15     626      MECN     H12      HGA3     0.090000        1.0080           0
     42717 WT15     626      MECN     H13      HGA3     0.090000        1.0080           0
     42718 WT15     626      MECN     C2       CG1N1    0.360000       12.0110           0
     42719 WT15     626      MECN     N3       NG1T1   -0.460000       14.0070           0
     42720 WT15     628      MECN     C1       CG331   -0.170000       12.0110           0
     42721 WT15     628      MECN     H11      HGA3     0.090000        1.0080           0
     42722 WT15     628      MECN     H12      HGA3     0.090000        1.0080           0
     42723 WT15     628      MECN     H13      HGA3     0.090000        1.0080           0
     42724 WT15     628      MECN     C2       CG1N1    0.360000       12.0110           0
     42725 WT15     628      MECN     N3       NG1T1   -0.460000       14.0070           0
     42726 WT15     629      MECN     C1       CG331   -0.170000       12.0110           0
     42727 WT15     629      MECN     H11      HGA3     0.090000        1.0080           0
     42728 WT15     629      MECN     H12      HGA3     0.090000        1.0080           0
     42729 WT15     629      MECN     H13      HGA3     0.090000        1.0080           0
     42730 WT15     629      MECN     C2       CG1N1    0.360000       12.0110           0
     42731 WT15     629      MECN     N3       NG1T1   -0.460000       14.0070           0
     42732 WT15     630      MECN     C1       CG331   -0.170000       12.0110           0
     42733 WT15     630      MECN     H11      HGA3     0.090000        1.0080           0
     42734 WT15     630      MECN     H12      HGA3     0.090000        1.0080           0
     42735 WT15     630      MECN     H13      HGA3     0.090000        1.0080           0
     42736 WT15     630      MECN     C2       CG1N1    0.360000       12.0110           0
     42737 WT15     630      MECN     N3       NG1T1   -0.460000       14.0070           0
     42738 WT15     631      MECN     C1       CG331   -0.170000       12.0110           0
     42739 WT15     631      MECN     H11      HGA3     0.090000        1.0080           0
     42740 WT15     631      MECN     H12      HGA3     0.090000        1.0080           0
     42741 WT15     631      MECN     H13      HGA3     0.090000        1.0080           0
     42742 WT15     631      MECN     C2       CG1N1    0.360000       12.0110           0
     42743 WT15     631      MECN     N3       NG1T1   -0.460000       14.0070           0
     42744 WT15     632      MECN     C1       CG331   -0.170000       12.0110           0
     42745 WT15     632      MECN     H11      HGA3     0.090000        1.0080           0
     42746 WT15     632      MECN     H12      HGA3     0.090000        1.0080           0
     42747 WT15     632      MECN     H13      HGA3     0.090000        1.0080           0
     42748 WT15     632      MECN     C2       CG1N1    0.360000       12.0110           0
     42749 WT15     632      MECN     N3       NG1T1   -0.460000       14.0070           0
     42750 WT15     634      MECN     C1       CG331   -0.170000       12.0110           0
     42751 WT15     634      MECN     H11      HGA3     0.090000        1.0080           0
     42752 WT15     634      MECN     H12      HGA3     0.090000        1.0080           0
     42753 WT15     634      MECN     H13      HGA3     0.090000        1.0080           0
     42754 WT15     634      MECN     C2       CG1N1    0.360000       12.0110           0
     42755 WT15     634      MECN     N3       NG1T1   -0.460000       14.0070           0
     42756 WT15     635      MECN     C1       CG331   -0.170000       12.0110           0
     42757 WT15     635      MECN     H11      HGA3     0.090000        1.0080           0
     42758 WT15     635      MECN     H12      HGA3     0.090000        1.0080           0
     42759 WT15     635      MECN     H13      HGA3     0.090000        1.0080           0
     42760 WT15     635      MECN     C2       CG1N1    0.360000       12.0110           0
     42761 WT15     635      MECN     N3       NG1T1   -0.460000       14.0070           0
     42762 WT15     637      MECN     C1       CG331   -0.170000       12.0110           0
     42763 WT15     637      MECN     H11      HGA3     0.090000        1.0080           0
     42764 WT15     637      MECN     H12      HGA3     0.090000        1.0080           0
     42765 WT15     637      MECN     H13      HGA3     0.090000        1.0080           0
     42766 WT15     637      MECN     C2       CG1N1    0.360000       12.0110           0
     42767 WT15     637      MECN     N3       NG1T1   -0.460000       14.0070           0
     42768 WT15     638      MECN     C1       CG331   -0.170000       12.0110           0
     42769 WT15     638      MECN     H11      HGA3     0.090000        1.0080           0
     42770 WT15     638      MECN     H12      HGA3     0.090000        1.0080           0
     42771 WT15     638      MECN     H13      HGA3     0.090000        1.0080           0
     42772 WT15     638      MECN     C2       CG1N1    0.360000       12.0110           0
     42773 WT15     638      MECN     N3       NG1T1   -0.460000       14.0070           0
     42774 WT15     642      MECN     C1       CG331   -0.170000       12.0110           0
     42775 WT15     642      MECN     H11      HGA3     0.090000        1.0080           0
     42776 WT15     642      MECN     H12      HGA3     0.090000        1.0080           0
     42777 WT15     642      MECN     H13      HGA3     0.090000        1.0080           0
     42778 WT15     642      MECN     C2       CG1N1    0.360000       12.0110           0
     42779 WT15     642      MECN     N3       NG1T1   -0.460000       14.0070           0
     42780 WT15     643      MECN     C1       CG331   -0.170000       12.0110           0
     42781 WT15     643      MECN     H11      HGA3     0.090000        1.0080           0
     42782 WT15     643      MECN     H12      HGA3     0.090000        1.0080           0
     42783 WT15     643      MECN     H13      HGA3     0.090000        1.0080           0
     42784 WT15     643      MECN     C2       CG1N1    0.360000       12.0110           0
     42785 WT15     643      MECN     N3       NG1T1   -0.460000       14.0070           0
     42786 WT15     647      MECN     C1       CG331   -0.170000       12.0110           0
     42787 WT15     647      MECN     H11      HGA3     0.090000        1.0080           0
     42788 WT15     647      MECN     H12      HGA3     0.090000        1.0080           0
     42789 WT15     647      MECN     H13      HGA3     0.090000        1.0080           0
     42790 WT15     647      MECN     C2       CG1N1    0.360000       12.0110           0
     42791 WT15     647      MECN     N3       NG1T1   -0.460000       14.0070           0
     42792 WT15     650      MECN     C1       CG331   -0.170000       12.0110           0
     42793 WT15     650      MECN     H11      HGA3     0.090000        1.0080           0
     42794 WT15     650      MECN     H12      HGA3     0.090000        1.0080           0
     42795 WT15     650      MECN     H13      HGA3     0.090000        1.0080           0
     42796 WT15     650      MECN     C2       CG1N1    0.360000       12.0110           0
     42797 WT15     650      MECN     N3       NG1T1   -0.460000       14.0070           0
     42798 WT15     652      MECN     C1       CG331   -0.170000       12.0110           0
     42799 WT15     652      MECN     H11      HGA3     0.090000        1.0080           0
     42800 WT15     652      MECN     H12      HGA3     0.090000        1.0080           0
     42801 WT15     652      MECN     H13      HGA3     0.090000        1.0080           0
     42802 WT15     652      MECN     C2       CG1N1    0.360000       12.0110           0
     42803 WT15     652      MECN     N3       NG1T1   -0.460000       14.0070           0
     42804 WT15     653      MECN     C1       CG331   -0.170000       12.0110           0
     42805 WT15     653      MECN     H11      HGA3     0.090000        1.0080           0
     42806 WT15     653      MECN     H12      HGA3     0.090000        1.0080           0
     42807 WT15     653      MECN     H13      HGA3     0.090000        1.0080           0
     42808 WT15     653      MECN     C2       CG1N1    0.360000       12.0110           0
     42809 WT15     653      MECN     N3       NG1T1   -0.460000       14.0070           0
     42810 WT15     654      MECN     C1       CG331   -0.170000       12.0110           0
     42811 WT15     654      MECN     H11      HGA3     0.090000        1.0080           0
     42812 WT15     654      MECN     H12      HGA3     0.090000        1.0080           0
     42813 WT15     654      MECN     H13      HGA3     0.090000        1.0080           0
     42814 WT15     654      MECN     C2       CG1N1    0.360000       12.0110           0
     42815 WT15     654      MECN     N3       NG1T1   -0.460000       14.0070           0
     42816 WT15     658      MECN     C1       CG331   -0.170000       12.0110           0
     42817 WT15     658      MECN     H11      HGA3     0.090000        1.0080           0
     42818 WT15     658      MECN     H12      HGA3     0.090000        1.0080           0
     42819 WT15     658      MECN     H13      HGA3     0.090000        1.0080           0
     42820 WT15     658      MECN     C2       CG1N1    0.360000       12.0110           0
     42821 WT15     658      MECN     N3       NG1T1   -0.460000       14.0070           0
     42822 WT15     659      MECN     C1       CG331   -0.170000       12.0110           0
     42823 WT15     659      MECN     H11      HGA3     0.090000        1.0080           0
     42824 WT15     659      MECN     H12      HGA3     0.090000        1.0080           0
     42825 WT15     659      MECN     H13      HGA3     0.090000        1.0080           0
     42826 WT15     659      MECN     C2       CG1N1    0.360000       12.0110           0
     42827 WT15     659      MECN     N3       NG1T1   -0.460000       14.0070           0
     42828 WT15     660      MECN     C1       CG331   -0.170000       12.0110           0
     42829 WT15     660      MECN     H11      HGA3     0.090000        1.0080           0
     42830 WT15     660      MECN     H12      HGA3     0.090000        1.0080           0
     42831 WT15     660      MECN     H13      HGA3     0.090000        1.0080           0
     42832 WT15     660      MECN     C2       CG1N1    0.360000       12.0110           0
     42833 WT15     660      MECN     N3       NG1T1   -0.460000       14.0070           0
     42834 WT15     662      MECN     C1       CG331   -0.170000       12.0110           0
     42835 WT15     662      MECN     H11      HGA3     0.090000        1.0080           0
     42836 WT15     662      MECN     H12      HGA3     0.090000        1.0080           0
     42837 WT15     662      MECN     H13      HGA3     0.090000        1.0080           0
     42838 WT15     662      MECN     C2       CG1N1    0.360000       12.0110           0
     42839 WT15     662      MECN     N3       NG1T1   -0.460000       14.0070           0
     42840 WT15     663      MECN     C1       CG331   -0.170000       12.0110           0
     42841 WT15     663      MECN     H11      HGA3     0.090000        1.0080           0
     42842 WT15     663      MECN     H12      HGA3     0.090000        1.0080           0
     42843 WT15     663      MECN     H13      HGA3     0.090000        1.0080           0
     42844 WT15     663      MECN     C2       CG1N1    0.360000       12.0110           0
     42845 WT15     663      MECN     N3       NG1T1   -0.460000       14.0070           0
     42846 WT15     665      MECN     C1       CG331   -0.170000       12.0110           0
     42847 WT15     665      MECN     H11      HGA3     0.090000        1.0080           0
     42848 WT15     665      MECN     H12      HGA3     0.090000        1.0080           0
     42849 WT15     665      MECN     H13      HGA3     0.090000        1.0080           0
     42850 WT15     665      MECN     C2       CG1N1    0.360000       12.0110           0
     42851 WT15     665      MECN     N3       NG1T1   -0.460000       14.0070           0
     42852 WT15     668      MECN     C1       CG331   -0.170000       12.0110           0
     42853 WT15     668      MECN     H11      HGA3     0.090000        1.0080           0
     42854 WT15     668      MECN     H12      HGA3     0.090000        1.0080           0
     42855 WT15     668      MECN     H13      HGA3     0.090000        1.0080           0
     42856 WT15     668      MECN     C2       CG1N1    0.360000       12.0110           0
     42857 WT15     668      MECN     N3       NG1T1   -0.460000       14.0070           0
     42858 WT15     669      MECN     C1       CG331   -0.170000       12.0110           0
     42859 WT15     669      MECN     H11      HGA3     0.090000        1.0080           0
     42860 WT15     669      MECN     H12      HGA3     0.090000        1.0080           0
     42861 WT15     669      MECN     H13      HGA3     0.090000        1.0080           0
     42862 WT15     669      MECN     C2       CG1N1    0.360000       12.0110           0
     42863 WT15     669      MECN     N3       NG1T1   -0.460000       14.0070           0
     42864 WT15     671      MECN     C1       CG331   -0.170000       12.0110           0
     42865 WT15     671      MECN     H11      HGA3     0.090000        1.0080           0
     42866 WT15     671      MECN     H12      HGA3     0.090000        1.0080           0
     42867 WT15     671      MECN     H13      HGA3     0.090000        1.0080           0
     42868 WT15     671      MECN     C2       CG1N1    0.360000       12.0110           0
     42869 WT15     671      MECN     N3       NG1T1   -0.460000       14.0070           0
     42870 WT15     674      MECN     C1       CG331   -0.170000       12.0110           0
     42871 WT15     674      MECN     H11      HGA3     0.090000        1.0080           0
     42872 WT15     674      MECN     H12      HGA3     0.090000        1.0080           0
     42873 WT15     674      MECN     H13      HGA3     0.090000        1.0080           0
     42874 WT15     674      MECN     C2       CG1N1    0.360000       12.0110           0
     42875 WT15     674      MECN     N3       NG1T1   -0.460000       14.0070           0
     42876 WT15     675      MECN     C1       CG331   -0.170000       12.0110           0
     42877 WT15     675      MECN     H11      HGA3     0.090000        1.0080           0
     42878 WT15     675      MECN     H12      HGA3     0.090000        1.0080           0
     42879 WT15     675      MECN     H13      HGA3     0.090000        1.0080           0
     42880 WT15     675      MECN     C2       CG1N1    0.360000       12.0110           0
     42881 WT15     675      MECN     N3       NG1T1   -0.460000       14.0070           0
     42882 WT15     676      MECN     C1       CG331   -0.170000       12.0110           0
     42883 WT15     676      MECN     H11      HGA3     0.090000        1.0080           0
     42884 WT15     676      MECN     H12      HGA3     0.090000        1.0080           0
     42885 WT15     676      MECN     H13      HGA3     0.090000        1.0080           0
     42886 WT15     676      MECN     C2       CG1N1    0.360000       12.0110           0
     42887 WT15     676      MECN     N3       NG1T1   -0.460000       14.0070           0
     42888 WT15     677      MECN     C1       CG331   -0.170000       12.0110           0
     42889 WT15     677      MECN     H11      HGA3     0.090000        1.0080           0
     42890 WT15     677      MECN     H12      HGA3     0.090000        1.0080           0
     42891 WT15     677      MECN     H13      HGA3     0.090000        1.0080           0
     42892 WT15     677      MECN     C2       CG1N1    0.360000       12.0110           0
     42893 WT15     677      MECN     N3       NG1T1   -0.460000       14.0070           0
     42894 WT15     679      MECN     C1       CG331   -0.170000       12.0110           0
     42895 WT15     679      MECN     H11      HGA3     0.090000        1.0080           0
     42896 WT15     679      MECN     H12      HGA3     0.090000        1.0080           0
     42897 WT15     679      MECN     H13      HGA3     0.090000        1.0080           0
     42898 WT15     679      MECN     C2       CG1N1    0.360000       12.0110           0
     42899 WT15     679      MECN     N3       NG1T1   -0.460000       14.0070           0
     42900 WT15     680      MECN     C1       CG331   -0.170000       12.0110           0
     42901 WT15     680      MECN     H11      HGA3     0.090000        1.0080           0
     42902 WT15     680      MECN     H12      HGA3     0.090000        1.0080           0
     42903 WT15     680      MECN     H13      HGA3     0.090000        1.0080           0
     42904 WT15     680      MECN     C2       CG1N1    0.360000       12.0110           0
     42905 WT15     680      MECN     N3       NG1T1   -0.460000       14.0070           0
     42906 WT15     681      MECN     C1       CG331   -0.170000       12.0110           0
     42907 WT15     681      MECN     H11      HGA3     0.090000        1.0080           0
     42908 WT15     681      MECN     H12      HGA3     0.090000        1.0080           0
     42909 WT15     681      MECN     H13      HGA3     0.090000        1.0080           0
     42910 WT15     681      MECN     C2       CG1N1    0.360000       12.0110           0
     42911 WT15     681      MECN     N3       NG1T1   -0.460000       14.0070           0
     42912 WT15     682      MECN     C1       CG331   -0.170000       12.0110           0
     42913 WT15     682      MECN     H11      HGA3     0.090000        1.0080           0
     42914 WT15     682      MECN     H12      HGA3     0.090000        1.0080           0
     42915 WT15     682      MECN     H13      HGA3     0.090000        1.0080           0
     42916 WT15     682      MECN     C2       CG1N1    0.360000       12.0110           0
     42917 WT15     682      MECN     N3       NG1T1   -0.460000       14.0070           0
     42918 WT15     683      MECN     C1       CG331   -0.170000       12.0110           0
     42919 WT15     683      MECN     H11      HGA3     0.090000        1.0080           0
     42920 WT15     683      MECN     H12      HGA3     0.090000        1.0080           0
     42921 WT15     683      MECN     H13      HGA3     0.090000        1.0080           0
     42922 WT15     683      MECN     C2       CG1N1    0.360000       12.0110           0
     42923 WT15     683      MECN     N3       NG1T1   -0.460000       14.0070           0
     42924 WT15     684      MECN     C1       CG331   -0.170000       12.0110           0
     42925 WT15     684      MECN     H11      HGA3     0.090000        1.0080           0
     42926 WT15     684      MECN     H12      HGA3     0.090000        1.0080           0
     42927 WT15     684      MECN     H13      HGA3     0.090000        1.0080           0
     42928 WT15     684      MECN     C2       CG1N1    0.360000       12.0110           0
     42929 WT15     684      MECN     N3       NG1T1   -0.460000       14.0070           0
     42930 WT15     685      MECN     C1       CG331   -0.170000       12.0110           0
     42931 WT15     685      MECN     H11      HGA3     0.090000        1.0080           0
     42932 WT15     685      MECN     H12      HGA3     0.090000        1.0080           0
     42933 WT15     685      MECN     H13      HGA3     0.090000        1.0080           0
     42934 WT15     685      MECN     C2       CG1N1    0.360000       12.0110           0
     42935 WT15     685      MECN     N3       NG1T1   -0.460000       14.0070           0
     42936 WT15     686      MECN     C1       CG331   -0.170000       12.0110           0
     42937 WT15     686      MECN     H11      HGA3     0.090000        1.0080           0
     42938 WT15     686      MECN     H12      HGA3     0.090000        1.0080           0
     42939 WT15     686      MECN     H13      HGA3     0.090000        1.0080           0
     42940 WT15     686      MECN     C2       CG1N1    0.360000       12.0110           0
     42941 WT15     686      MECN     N3       NG1T1   -0.460000       14.0070           0
     42942 WT15     687      MECN     C1       CG331   -0.170000       12.0110           0
     42943 WT15     687      MECN     H11      HGA3     0.090000        1.0080           0
     42944 WT15     687      MECN     H12      HGA3     0.090000        1.0080           0
     42945 WT15     687      MECN     H13      HGA3     0.090000        1.0080           0
     42946 WT15     687      MECN     C2       CG1N1    0.360000       12.0110           0
     42947 WT15     687      MECN     N3       NG1T1   -0.460000       14.0070           0
     42948 WT15     688      MECN     C1       CG331   -0.170000       12.0110           0
     42949 WT15     688      MECN     H11      HGA3     0.090000        1.0080           0
     42950 WT15     688      MECN     H12      HGA3     0.090000        1.0080           0
     42951 WT15     688      MECN     H13      HGA3     0.090000        1.0080           0
     42952 WT15     688      MECN     C2       CG1N1    0.360000       12.0110           0
     42953 WT15     688      MECN     N3       NG1T1   -0.460000       14.0070           0
     42954 WT15     689      MECN     C1       CG331   -0.170000       12.0110           0
     42955 WT15     689      MECN     H11      HGA3     0.090000        1.0080           0
     42956 WT15     689      MECN     H12      HGA3     0.090000        1.0080           0
     42957 WT15     689      MECN     H13      HGA3     0.090000        1.0080           0
     42958 WT15     689      MECN     C2       CG1N1    0.360000       12.0110           0
     42959 WT15     689      MECN     N3       NG1T1   -0.460000       14.0070           0
     42960 WT15     690      MECN     C1       CG331   -0.170000       12.0110           0
     42961 WT15     690      MECN     H11      HGA3     0.090000        1.0080           0
     42962 WT15     690      MECN     H12      HGA3     0.090000        1.0080           0
     42963 WT15     690      MECN     H13      HGA3     0.090000        1.0080           0
     42964 WT15     690      MECN     C2       CG1N1    0.360000       12.0110           0
     42965 WT15     690      MECN     N3       NG1T1   -0.460000       14.0070           0
     42966 WT15     692      MECN     C1       CG331   -0.170000       12.0110           0
     42967 WT15     692      MECN     H11      HGA3     0.090000        1.0080           0
     42968 WT15     692      MECN     H12      HGA3     0.090000        1.0080           0
     42969 WT15     692      MECN     H13      HGA3     0.090000        1.0080           0
     42970 WT15     692      MECN     C2       CG1N1    0.360000       12.0110           0
     42971 WT15     692      MECN     N3       NG1T1   -0.460000       14.0070           0
     42972 WT15     693      MECN     C1       CG331   -0.170000       12.0110           0
     42973 WT15     693      MECN     H11      HGA3     0.090000        1.0080           0
     42974 WT15     693      MECN     H12      HGA3     0.090000        1.0080           0
     42975 WT15     693      MECN     H13      HGA3     0.090000        1.0080           0
     42976 WT15     693      MECN     C2       CG1N1    0.360000       12.0110           0
     42977 WT15     693      MECN     N3       NG1T1   -0.460000       14.0070           0
     42978 WT15     695      MECN     C1       CG331   -0.170000       12.0110           0
     42979 WT15     695      MECN     H11      HGA3     0.090000        1.0080           0
     42980 WT15     695      MECN     H12      HGA3     0.090000        1.0080           0
     42981 WT15     695      MECN     H13      HGA3     0.090000        1.0080           0
     42982 WT15     695      MECN     C2       CG1N1    0.360000       12.0110           0
     42983 WT15     695      MECN     N3       NG1T1   -0.460000       14.0070           0
     42984 WT15     696      MECN     C1       CG331   -0.170000       12.0110           0
     42985 WT15     696      MECN     H11      HGA3     0.090000        1.0080           0
     42986 WT15     696      MECN     H12      HGA3     0.090000        1.0080           0
     42987 WT15     696      MECN     H13      HGA3     0.090000        1.0080           0
     42988 WT15     696      MECN     C2       CG1N1    0.360000       12.0110           0
     42989 WT15     696      MECN     N3       NG1T1   -0.460000       14.0070           0
     42990 WT15     697      MECN     C1       CG331   -0.170000       12.0110           0
     42991 WT15     697      MECN     H11      HGA3     0.090000        1.0080           0
     42992 WT15     697      MECN     H12      HGA3     0.090000        1.0080           0
     42993 WT15     697      MECN     H13      HGA3     0.090000        1.0080           0
     42994 WT15     697      MECN     C2       CG1N1    0.360000       12.0110           0
     42995 WT15     697      MECN     N3       NG1T1   -0.460000       14.0070           0
     42996 WT15     700      MECN     C1       CG331   -0.170000       12.0110           0
     42997 WT15     700      MECN     H11      HGA3     0.090000        1.0080           0
     42998 WT15     700      MECN     H12      HGA3     0.090000        1.0080           0
     42999 WT15     700      MECN     H13      HGA3     0.090000        1.0080           0
     43000 WT15     700      MECN     C2       CG1N1    0.360000       12.0110           0
     43001 WT15     700      MECN     N3       NG1T1   -0.460000       14.0070           0
     43002 WT15     701      MECN     C1       CG331   -0.170000       12.0110           0
     43003 WT15     701      MECN     H11      HGA3     0.090000        1.0080           0
     43004 WT15     701      MECN     H12      HGA3     0.090000        1.0080           0
     43005 WT15     701      MECN     H13      HGA3     0.090000        1.0080           0
     43006 WT15     701      MECN     C2       CG1N1    0.360000       12.0110           0
     43007 WT15     701      MECN     N3       NG1T1   -0.460000       14.0070           0
     43008 WT15     702      MECN     C1       CG331   -0.170000       12.0110           0
     43009 WT15     702      MECN     H11      HGA3     0.090000        1.0080           0
     43010 WT15     702      MECN     H12      HGA3     0.090000        1.0080           0
     43011 WT15     702      MECN     H13      HGA3     0.090000        1.0080           0
     43012 WT15     702      MECN     C2       CG1N1    0.360000       12.0110           0
     43013 WT15     702      MECN     N3       NG1T1   -0.460000       14.0070           0
     43014 WT15     703      MECN     C1       CG331   -0.170000       12.0110           0
     43015 WT15     703      MECN     H11      HGA3     0.090000        1.0080           0
     43016 WT15     703      MECN     H12      HGA3     0.090000        1.0080           0
     43017 WT15     703      MECN     H13      HGA3     0.090000        1.0080           0
     43018 WT15     703      MECN     C2       CG1N1    0.360000       12.0110           0
     43019 WT15     703      MECN     N3       NG1T1   -0.460000       14.0070           0
     43020 WT15     705      MECN     C1       CG331   -0.170000       12.0110           0
     43021 WT15     705      MECN     H11      HGA3     0.090000        1.0080           0
     43022 WT15     705      MECN     H12      HGA3     0.090000        1.0080           0
     43023 WT15     705      MECN     H13      HGA3     0.090000        1.0080           0
     43024 WT15     705      MECN     C2       CG1N1    0.360000       12.0110           0
     43025 WT15     705      MECN     N3       NG1T1   -0.460000       14.0070           0
     43026 WT15     706      MECN     C1       CG331   -0.170000       12.0110           0
     43027 WT15     706      MECN     H11      HGA3     0.090000        1.0080           0
     43028 WT15     706      MECN     H12      HGA3     0.090000        1.0080           0
     43029 WT15     706      MECN     H13      HGA3     0.090000        1.0080           0
     43030 WT15     706      MECN     C2       CG1N1    0.360000       12.0110           0
     43031 WT15     706      MECN     N3       NG1T1   -0.460000       14.0070           0
     43032 WT15     707      MECN     C1       CG331   -0.170000       12.0110           0
     43033 WT15     707      MECN     H11      HGA3     0.090000        1.0080           0
     43034 WT15     707      MECN     H12      HGA3     0.090000        1.0080           0
     43035 WT15     707      MECN     H13      HGA3     0.090000        1.0080           0
     43036 WT15     707      MECN     C2       CG1N1    0.360000       12.0110           0
     43037 WT15     707      MECN     N3       NG1T1   -0.460000       14.0070           0
     43038 WT15     708      MECN     C1       CG331   -0.170000       12.0110           0
     43039 WT15     708      MECN     H11      HGA3     0.090000        1.0080           0
     43040 WT15     708      MECN     H12      HGA3     0.090000        1.0080           0
     43041 WT15     708      MECN     H13      HGA3     0.090000        1.0080           0
     43042 WT15     708      MECN     C2       CG1N1    0.360000       12.0110           0
     43043 WT15     708      MECN     N3       NG1T1   -0.460000       14.0070           0
     43044 WT15     709      MECN     C1       CG331   -0.170000       12.0110           0
     43045 WT15     709      MECN     H11      HGA3     0.090000        1.0080           0
     43046 WT15     709      MECN     H12      HGA3     0.090000        1.0080           0
     43047 WT15     709      MECN     H13      HGA3     0.090000        1.0080           0
     43048 WT15     709      MECN     C2       CG1N1    0.360000       12.0110           0
     43049 WT15     709      MECN     N3       NG1T1   -0.460000       14.0070           0
     43050 WT15     710      MECN     C1       CG331   -0.170000       12.0110           0
     43051 WT15     710      MECN     H11      HGA3     0.090000        1.0080           0
     43052 WT15     710      MECN     H12      HGA3     0.090000        1.0080           0
     43053 WT15     710      MECN     H13      HGA3     0.090000        1.0080           0
     43054 WT15     710      MECN     C2       CG1N1    0.360000       12.0110           0
     43055 WT15     710      MECN     N3       NG1T1   -0.460000       14.0070           0
     43056 WT15     711      MECN     C1       CG331   -0.170000       12.0110           0
     43057 WT15     711      MECN     H11      HGA3     0.090000        1.0080           0
     43058 WT15     711      MECN     H12      HGA3     0.090000        1.0080           0
     43059 WT15     711      MECN     H13      HGA3     0.090000        1.0080           0
     43060 WT15     711      MECN     C2       CG1N1    0.360000       12.0110           0
     43061 WT15     711      MECN     N3       NG1T1   -0.460000       14.0070           0
     43062 WT15     712      MECN     C1       CG331   -0.170000       12.0110           0
     43063 WT15     712      MECN     H11      HGA3     0.090000        1.0080           0
     43064 WT15     712      MECN     H12      HGA3     0.090000        1.0080           0
     43065 WT15     712      MECN     H13      HGA3     0.090000        1.0080           0
     43066 WT15     712      MECN     C2       CG1N1    0.360000       12.0110           0
     43067 WT15     712      MECN     N3       NG1T1   -0.460000       14.0070           0
     43068 WT15     713      MECN     C1       CG331   -0.170000       12.0110           0
     43069 WT15     713      MECN     H11      HGA3     0.090000        1.0080           0
     43070 WT15     713      MECN     H12      HGA3     0.090000        1.0080           0
     43071 WT15     713      MECN     H13      HGA3     0.090000        1.0080           0
     43072 WT15     713      MECN     C2       CG1N1    0.360000       12.0110           0
     43073 WT15     713      MECN     N3       NG1T1   -0.460000       14.0070           0
     43074 WT15     714      MECN     C1       CG331   -0.170000       12.0110           0
     43075 WT15     714      MECN     H11      HGA3     0.090000        1.0080           0
     43076 WT15     714      MECN     H12      HGA3     0.090000        1.0080           0
     43077 WT15     714      MECN     H13      HGA3     0.090000        1.0080           0
     43078 WT15     714      MECN     C2       CG1N1    0.360000       12.0110           0
     43079 WT15     714      MECN     N3       NG1T1   -0.460000       14.0070           0
     43080 WT15     715      MECN     C1       CG331   -0.170000       12.0110           0
     43081 WT15     715      MECN     H11      HGA3     0.090000        1.0080           0
     43082 WT15     715      MECN     H12      HGA3     0.090000        1.0080           0
     43083 WT15     715      MECN     H13      HGA3     0.090000        1.0080           0
     43084 WT15     715      MECN     C2       CG1N1    0.360000       12.0110           0
     43085 WT15     715      MECN     N3       NG1T1   -0.460000       14.0070           0
     43086 WT15     716      MECN     C1       CG331   -0.170000       12.0110           0
     43087 WT15     716      MECN     H11      HGA3     0.090000        1.0080           0
     43088 WT15     716      MECN     H12      HGA3     0.090000        1.0080           0
     43089 WT15     716      MECN     H13      HGA3     0.090000        1.0080           0
     43090 WT15     716      MECN     C2       CG1N1    0.360000       12.0110           0
     43091 WT15     716      MECN     N3       NG1T1   -0.460000       14.0070           0
     43092 WT15     717      MECN     C1       CG331   -0.170000       12.0110           0
     43093 WT15     717      MECN     H11      HGA3     0.090000        1.0080           0
     43094 WT15     717      MECN     H12      HGA3     0.090000        1.0080           0
     43095 WT15     717      MECN     H13      HGA3     0.090000        1.0080           0
     43096 WT15     717      MECN     C2       CG1N1    0.360000       12.0110           0
     43097 WT15     717      MECN     N3       NG1T1   -0.460000       14.0070           0
     43098 WT15     718      MECN     C1       CG331   -0.170000       12.0110           0
     43099 WT15     718      MECN     H11      HGA3     0.090000        1.0080           0
     43100 WT15     718      MECN     H12      HGA3     0.090000        1.0080           0
     43101 WT15     718      MECN     H13      HGA3     0.090000        1.0080           0
     43102 WT15     718      MECN     C2       CG1N1    0.360000       12.0110           0
     43103 WT15     718      MECN     N3       NG1T1   -0.460000       14.0070           0
     43104 WT15     719      MECN     C1       CG331   -0.170000       12.0110           0
     43105 WT15     719      MECN     H11      HGA3     0.090000        1.0080           0
     43106 WT15     719      MECN     H12      HGA3     0.090000        1.0080           0
     43107 WT15     719      MECN     H13      HGA3     0.090000        1.0080           0
     43108 WT15     719      MECN     C2       CG1N1    0.360000       12.0110           0
     43109 WT15     719      MECN     N3       NG1T1   -0.460000       14.0070           0
     43110 WT15     720      MECN     C1       CG331   -0.170000       12.0110           0
     43111 WT15     720      MECN     H11      HGA3     0.090000        1.0080           0
     43112 WT15     720      MECN     H12      HGA3     0.090000        1.0080           0
     43113 WT15     720      MECN     H13      HGA3     0.090000        1.0080           0
     43114 WT15     720      MECN     C2       CG1N1    0.360000       12.0110           0
     43115 WT15     720      MECN     N3       NG1T1   -0.460000       14.0070           0
     43116 WT15     725      MECN     C1       CG331   -0.170000       12.0110           0
     43117 WT15     725      MECN     H11      HGA3     0.090000        1.0080           0
     43118 WT15     725      MECN     H12      HGA3     0.090000        1.0080           0
     43119 WT15     725      MECN     H13      HGA3     0.090000        1.0080           0
     43120 WT15     725      MECN     C2       CG1N1    0.360000       12.0110           0
     43121 WT15     725      MECN     N3       NG1T1   -0.460000       14.0070           0
     43122 WT15     726      MECN     C1       CG331   -0.170000       12.0110           0
     43123 WT15     726      MECN     H11      HGA3     0.090000        1.0080           0
     43124 WT15     726      MECN     H12      HGA3     0.090000        1.0080           0
     43125 WT15     726      MECN     H13      HGA3     0.090000        1.0080           0
     43126 WT15     726      MECN     C2       CG1N1    0.360000       12.0110           0
     43127 WT15     726      MECN     N3       NG1T1   -0.460000       14.0070           0
     43128 WT15     728      MECN     C1       CG331   -0.170000       12.0110           0
     43129 WT15     728      MECN     H11      HGA3     0.090000        1.0080           0
     43130 WT15     728      MECN     H12      HGA3     0.090000        1.0080           0
     43131 WT15     728      MECN     H13      HGA3     0.090000        1.0080           0
     43132 WT15     728      MECN     C2       CG1N1    0.360000       12.0110           0
     43133 WT15     728      MECN     N3       NG1T1   -0.460000       14.0070           0
     43134 WT15     729      MECN     C1       CG331   -0.170000       12.0110           0
     43135 WT15     729      MECN     H11      HGA3     0.090000        1.0080           0
     43136 WT15     729      MECN     H12      HGA3     0.090000        1.0080           0
     43137 WT15     729      MECN     H13      HGA3     0.090000        1.0080           0
     43138 WT15     729      MECN     C2       CG1N1    0.360000       12.0110           0
     43139 WT15     729      MECN     N3       NG1T1   -0.460000       14.0070           0
     43140 WT15     730      MECN     C1       CG331   -0.170000       12.0110           0
     43141 WT15     730      MECN     H11      HGA3     0.090000        1.0080           0
     43142 WT15     730      MECN     H12      HGA3     0.090000        1.0080           0
     43143 WT15     730      MECN     H13      HGA3     0.090000        1.0080           0
     43144 WT15     730      MECN     C2       CG1N1    0.360000       12.0110           0
     43145 WT15     730      MECN     N3       NG1T1   -0.460000       14.0070           0
     43146 WT15     731      MECN     C1       CG331   -0.170000       12.0110           0
     43147 WT15     731      MECN     H11      HGA3     0.090000        1.0080           0
     43148 WT15     731      MECN     H12      HGA3     0.090000        1.0080           0
     43149 WT15     731      MECN     H13      HGA3     0.090000        1.0080           0
     43150 WT15     731      MECN     C2       CG1N1    0.360000       12.0110           0
     43151 WT15     731      MECN     N3       NG1T1   -0.460000       14.0070           0
     43152 WT15     732      MECN     C1       CG331   -0.170000       12.0110           0
     43153 WT15     732      MECN     H11      HGA3     0.090000        1.0080           0
     43154 WT15     732      MECN     H12      HGA3     0.090000        1.0080           0
     43155 WT15     732      MECN     H13      HGA3     0.090000        1.0080           0
     43156 WT15     732      MECN     C2       CG1N1    0.360000       12.0110           0
     43157 WT15     732      MECN     N3       NG1T1   -0.460000       14.0070           0
     43158 WT15     733      MECN     C1       CG331   -0.170000       12.0110           0
     43159 WT15     733      MECN     H11      HGA3     0.090000        1.0080           0
     43160 WT15     733      MECN     H12      HGA3     0.090000        1.0080           0
     43161 WT15     733      MECN     H13      HGA3     0.090000        1.0080           0
     43162 WT15     733      MECN     C2       CG1N1    0.360000       12.0110           0
     43163 WT15     733      MECN     N3       NG1T1   -0.460000       14.0070           0
     43164 WT15     734      MECN     C1       CG331   -0.170000       12.0110           0
     43165 WT15     734      MECN     H11      HGA3     0.090000        1.0080           0
     43166 WT15     734      MECN     H12      HGA3     0.090000        1.0080           0
     43167 WT15     734      MECN     H13      HGA3     0.090000        1.0080           0
     43168 WT15     734      MECN     C2       CG1N1    0.360000       12.0110           0
     43169 WT15     734      MECN     N3       NG1T1   -0.460000       14.0070           0
     43170 WT15     735      MECN     C1       CG331   -0.170000       12.0110           0
     43171 WT15     735      MECN     H11      HGA3     0.090000        1.0080           0
     43172 WT15     735      MECN     H12      HGA3     0.090000        1.0080           0
     43173 WT15     735      MECN     H13      HGA3     0.090000        1.0080           0
     43174 WT15     735      MECN     C2       CG1N1    0.360000       12.0110           0
     43175 WT15     735      MECN     N3       NG1T1   -0.460000       14.0070           0
     43176 WT15     736      MECN     C1       CG331   -0.170000       12.0110           0
     43177 WT15     736      MECN     H11      HGA3     0.090000        1.0080           0
     43178 WT15     736      MECN     H12      HGA3     0.090000        1.0080           0
     43179 WT15     736      MECN     H13      HGA3     0.090000        1.0080           0
     43180 WT15     736      MECN     C2       CG1N1    0.360000       12.0110           0
     43181 WT15     736      MECN     N3       NG1T1   -0.460000       14.0070           0
     43182 WT15     737      MECN     C1       CG331   -0.170000       12.0110           0
     43183 WT15     737      MECN     H11      HGA3     0.090000        1.0080           0
     43184 WT15     737      MECN     H12      HGA3     0.090000        1.0080           0
     43185 WT15     737      MECN     H13      HGA3     0.090000        1.0080           0
     43186 WT15     737      MECN     C2       CG1N1    0.360000       12.0110           0
     43187 WT15     737      MECN     N3       NG1T1   -0.460000       14.0070           0
     43188 WT15     738      MECN     C1       CG331   -0.170000       12.0110           0
     43189 WT15     738      MECN     H11      HGA3     0.090000        1.0080           0
     43190 WT15     738      MECN     H12      HGA3     0.090000        1.0080           0
     43191 WT15     738      MECN     H13      HGA3     0.090000        1.0080           0
     43192 WT15     738      MECN     C2       CG1N1    0.360000       12.0110           0
     43193 WT15     738      MECN     N3       NG1T1   -0.460000       14.0070           0
     43194 WT15     739      MECN     C1       CG331   -0.170000       12.0110           0
     43195 WT15     739      MECN     H11      HGA3     0.090000        1.0080           0
     43196 WT15     739      MECN     H12      HGA3     0.090000        1.0080           0
     43197 WT15     739      MECN     H13      HGA3     0.090000        1.0080           0
     43198 WT15     739      MECN     C2       CG1N1    0.360000       12.0110           0
     43199 WT15     739      MECN     N3       NG1T1   -0.460000       14.0070           0
     43200 WT15     740      MECN     C1       CG331   -0.170000       12.0110           0
     43201 WT15     740      MECN     H11      HGA3     0.090000        1.0080           0
     43202 WT15     740      MECN     H12      HGA3     0.090000        1.0080           0
     43203 WT15     740      MECN     H13      HGA3     0.090000        1.0080           0
     43204 WT15     740      MECN     C2       CG1N1    0.360000       12.0110           0
     43205 WT15     740      MECN     N3       NG1T1   -0.460000       14.0070           0
     43206 WT15     741      MECN     C1       CG331   -0.170000       12.0110           0
     43207 WT15     741      MECN     H11      HGA3     0.090000        1.0080           0
     43208 WT15     741      MECN     H12      HGA3     0.090000        1.0080           0
     43209 WT15     741      MECN     H13      HGA3     0.090000        1.0080           0
     43210 WT15     741      MECN     C2       CG1N1    0.360000       12.0110           0
     43211 WT15     741      MECN     N3       NG1T1   -0.460000       14.0070           0
     43212 WT15     742      MECN     C1       CG331   -0.170000       12.0110           0
     43213 WT15     742      MECN     H11      HGA3     0.090000        1.0080           0
     43214 WT15     742      MECN     H12      HGA3     0.090000        1.0080           0
     43215 WT15     742      MECN     H13      HGA3     0.090000        1.0080           0
     43216 WT15     742      MECN     C2       CG1N1    0.360000       12.0110           0
     43217 WT15     742      MECN     N3       NG1T1   -0.460000       14.0070           0
     43218 WT15     743      MECN     C1       CG331   -0.170000       12.0110           0
     43219 WT15     743      MECN     H11      HGA3     0.090000        1.0080           0
     43220 WT15     743      MECN     H12      HGA3     0.090000        1.0080           0
     43221 WT15     743      MECN     H13      HGA3     0.090000        1.0080           0
     43222 WT15     743      MECN     C2       CG1N1    0.360000       12.0110           0
     43223 WT15     743      MECN     N3       NG1T1   -0.460000       14.0070           0
     43224 WT15     744      MECN     C1       CG331   -0.170000       12.0110           0
     43225 WT15     744      MECN     H11      HGA3     0.090000        1.0080           0
     43226 WT15     744      MECN     H12      HGA3     0.090000        1.0080           0
     43227 WT15     744      MECN     H13      HGA3     0.090000        1.0080           0
     43228 WT15     744      MECN     C2       CG1N1    0.360000       12.0110           0
     43229 WT15     744      MECN     N3       NG1T1   -0.460000       14.0070           0
     43230 WT15     745      MECN     C1       CG331   -0.170000       12.0110           0
     43231 WT15     745      MECN     H11      HGA3     0.090000        1.0080           0
     43232 WT15     745      MECN     H12      HGA3     0.090000        1.0080           0
     43233 WT15     745      MECN     H13      HGA3     0.090000        1.0080           0
     43234 WT15     745      MECN     C2       CG1N1    0.360000       12.0110           0
     43235 WT15     745      MECN     N3       NG1T1   -0.460000       14.0070           0
     43236 WT15     746      MECN     C1       CG331   -0.170000       12.0110           0
     43237 WT15     746      MECN     H11      HGA3     0.090000        1.0080           0
     43238 WT15     746      MECN     H12      HGA3     0.090000        1.0080           0
     43239 WT15     746      MECN     H13      HGA3     0.090000        1.0080           0
     43240 WT15     746      MECN     C2       CG1N1    0.360000       12.0110           0
     43241 WT15     746      MECN     N3       NG1T1   -0.460000       14.0070           0
     43242 WT15     747      MECN     C1       CG331   -0.170000       12.0110           0
     43243 WT15     747      MECN     H11      HGA3     0.090000        1.0080           0
     43244 WT15     747      MECN     H12      HGA3     0.090000        1.0080           0
     43245 WT15     747      MECN     H13      HGA3     0.090000        1.0080           0
     43246 WT15     747      MECN     C2       CG1N1    0.360000       12.0110           0
     43247 WT15     747      MECN     N3       NG1T1   -0.460000       14.0070           0
     43248 WT15     749      MECN     C1       CG331   -0.170000       12.0110           0
     43249 WT15     749      MECN     H11      HGA3     0.090000        1.0080           0
     43250 WT15     749      MECN     H12      HGA3     0.090000        1.0080           0
     43251 WT15     749      MECN     H13      HGA3     0.090000        1.0080           0
     43252 WT15     749      MECN     C2       CG1N1    0.360000       12.0110           0
     43253 WT15     749      MECN     N3       NG1T1   -0.460000       14.0070           0
     43254 WT15     750      MECN     C1       CG331   -0.170000       12.0110           0
     43255 WT15     750      MECN     H11      HGA3     0.090000        1.0080           0
     43256 WT15     750      MECN     H12      HGA3     0.090000        1.0080           0
     43257 WT15     750      MECN     H13      HGA3     0.090000        1.0080           0
     43258 WT15     750      MECN     C2       CG1N1    0.360000       12.0110           0
     43259 WT15     750      MECN     N3       NG1T1   -0.460000       14.0070           0
     43260 WT15     751      MECN     C1       CG331   -0.170000       12.0110           0
     43261 WT15     751      MECN     H11      HGA3     0.090000        1.0080           0
     43262 WT15     751      MECN     H12      HGA3     0.090000        1.0080           0
     43263 WT15     751      MECN     H13      HGA3     0.090000        1.0080           0
     43264 WT15     751      MECN     C2       CG1N1    0.360000       12.0110           0
     43265 WT15     751      MECN     N3       NG1T1   -0.460000       14.0070           0
     43266 WT15     752      MECN     C1       CG331   -0.170000       12.0110           0
     43267 WT15     752      MECN     H11      HGA3     0.090000        1.0080           0
     43268 WT15     752      MECN     H12      HGA3     0.090000        1.0080           0
     43269 WT15     752      MECN     H13      HGA3     0.090000        1.0080           0
     43270 WT15     752      MECN     C2       CG1N1    0.360000       12.0110           0
     43271 WT15     752      MECN     N3       NG1T1   -0.460000       14.0070           0
     43272 WT15     754      MECN     C1       CG331   -0.170000       12.0110           0
     43273 WT15     754      MECN     H11      HGA3     0.090000        1.0080           0
     43274 WT15     754      MECN     H12      HGA3     0.090000        1.0080           0
     43275 WT15     754      MECN     H13      HGA3     0.090000        1.0080           0
     43276 WT15     754      MECN     C2       CG1N1    0.360000       12.0110           0
     43277 WT15     754      MECN     N3       NG1T1   -0.460000       14.0070           0
     43278 WT15     755      MECN     C1       CG331   -0.170000       12.0110           0
     43279 WT15     755      MECN     H11      HGA3     0.090000        1.0080           0
     43280 WT15     755      MECN     H12      HGA3     0.090000        1.0080           0
     43281 WT15     755      MECN     H13      HGA3     0.090000        1.0080           0
     43282 WT15     755      MECN     C2       CG1N1    0.360000       12.0110           0
     43283 WT15     755      MECN     N3       NG1T1   -0.460000       14.0070           0
     43284 WT15     756      MECN     C1       CG331   -0.170000       12.0110           0
     43285 WT15     756      MECN     H11      HGA3     0.090000        1.0080           0
     43286 WT15     756      MECN     H12      HGA3     0.090000        1.0080           0
     43287 WT15     756      MECN     H13      HGA3     0.090000        1.0080           0
     43288 WT15     756      MECN     C2       CG1N1    0.360000       12.0110           0
     43289 WT15     756      MECN     N3       NG1T1   -0.460000       14.0070           0
     43290 WT15     757      MECN     C1       CG331   -0.170000       12.0110           0
     43291 WT15     757      MECN     H11      HGA3     0.090000        1.0080           0
     43292 WT15     757      MECN     H12      HGA3     0.090000        1.0080           0
     43293 WT15     757      MECN     H13      HGA3     0.090000        1.0080           0
     43294 WT15     757      MECN     C2       CG1N1    0.360000       12.0110           0
     43295 WT15     757      MECN     N3       NG1T1   -0.460000       14.0070           0
     43296 WT15     758      MECN     C1       CG331   -0.170000       12.0110           0
     43297 WT15     758      MECN     H11      HGA3     0.090000        1.0080           0
     43298 WT15     758      MECN     H12      HGA3     0.090000        1.0080           0
     43299 WT15     758      MECN     H13      HGA3     0.090000        1.0080           0
     43300 WT15     758      MECN     C2       CG1N1    0.360000       12.0110           0
     43301 WT15     758      MECN     N3       NG1T1   -0.460000       14.0070           0
     43302 WT15     759      MECN     C1       CG331   -0.170000       12.0110           0
     43303 WT15     759      MECN     H11      HGA3     0.090000        1.0080           0
     43304 WT15     759      MECN     H12      HGA3     0.090000        1.0080           0
     43305 WT15     759      MECN     H13      HGA3     0.090000        1.0080           0
     43306 WT15     759      MECN     C2       CG1N1    0.360000       12.0110           0
     43307 WT15     759      MECN     N3       NG1T1   -0.460000       14.0070           0
     43308 WT15     760      MECN     C1       CG331   -0.170000       12.0110           0
     43309 WT15     760      MECN     H11      HGA3     0.090000        1.0080           0
     43310 WT15     760      MECN     H12      HGA3     0.090000        1.0080           0
     43311 WT15     760      MECN     H13      HGA3     0.090000        1.0080           0
     43312 WT15     760      MECN     C2       CG1N1    0.360000       12.0110           0
     43313 WT15     760      MECN     N3       NG1T1   -0.460000       14.0070           0
     43314 WT15     761      MECN     C1       CG331   -0.170000       12.0110           0
     43315 WT15     761      MECN     H11      HGA3     0.090000        1.0080           0
     43316 WT15     761      MECN     H12      HGA3     0.090000        1.0080           0
     43317 WT15     761      MECN     H13      HGA3     0.090000        1.0080           0
     43318 WT15     761      MECN     C2       CG1N1    0.360000       12.0110           0
     43319 WT15     761      MECN     N3       NG1T1   -0.460000       14.0070           0
     43320 WT15     762      MECN     C1       CG331   -0.170000       12.0110           0
     43321 WT15     762      MECN     H11      HGA3     0.090000        1.0080           0
     43322 WT15     762      MECN     H12      HGA3     0.090000        1.0080           0
     43323 WT15     762      MECN     H13      HGA3     0.090000        1.0080           0
     43324 WT15     762      MECN     C2       CG1N1    0.360000       12.0110           0
     43325 WT15     762      MECN     N3       NG1T1   -0.460000       14.0070           0
     43326 WT15     763      MECN     C1       CG331   -0.170000       12.0110           0
     43327 WT15     763      MECN     H11      HGA3     0.090000        1.0080           0
     43328 WT15     763      MECN     H12      HGA3     0.090000        1.0080           0
     43329 WT15     763      MECN     H13      HGA3     0.090000        1.0080           0
     43330 WT15     763      MECN     C2       CG1N1    0.360000       12.0110           0
     43331 WT15     763      MECN     N3       NG1T1   -0.460000       14.0070           0
     43332 WT15     764      MECN     C1       CG331   -0.170000       12.0110           0
     43333 WT15     764      MECN     H11      HGA3     0.090000        1.0080           0
     43334 WT15     764      MECN     H12      HGA3     0.090000        1.0080           0
     43335 WT15     764      MECN     H13      HGA3     0.090000        1.0080           0
     43336 WT15     764      MECN     C2       CG1N1    0.360000       12.0110           0
     43337 WT15     764      MECN     N3       NG1T1   -0.460000       14.0070           0
     43338 WT15     766      MECN     C1       CG331   -0.170000       12.0110           0
     43339 WT15     766      MECN     H11      HGA3     0.090000        1.0080           0
     43340 WT15     766      MECN     H12      HGA3     0.090000        1.0080           0
     43341 WT15     766      MECN     H13      HGA3     0.090000        1.0080           0
     43342 WT15     766      MECN     C2       CG1N1    0.360000       12.0110           0
     43343 WT15     766      MECN     N3       NG1T1   -0.460000       14.0070           0
     43344 WT15     769      MECN     C1       CG331   -0.170000       12.0110           0
     43345 WT15     769      MECN     H11      HGA3     0.090000        1.0080           0
     43346 WT15     769      MECN     H12      HGA3     0.090000        1.0080           0
     43347 WT15     769      MECN     H13      HGA3     0.090000        1.0080           0
     43348 WT15     769      MECN     C2       CG1N1    0.360000       12.0110           0
     43349 WT15     769      MECN     N3       NG1T1   -0.460000       14.0070           0
     43350 WT15     773      MECN     C1       CG331   -0.170000       12.0110           0
     43351 WT15     773      MECN     H11      HGA3     0.090000        1.0080           0
     43352 WT15     773      MECN     H12      HGA3     0.090000        1.0080           0
     43353 WT15     773      MECN     H13      HGA3     0.090000        1.0080           0
     43354 WT15     773      MECN     C2       CG1N1    0.360000       12.0110           0
     43355 WT15     773      MECN     N3       NG1T1   -0.460000       14.0070           0
     43356 WT15     775      MECN     C1       CG331   -0.170000       12.0110           0
     43357 WT15     775      MECN     H11      HGA3     0.090000        1.0080           0
     43358 WT15     775      MECN     H12      HGA3     0.090000        1.0080           0
     43359 WT15     775      MECN     H13      HGA3     0.090000        1.0080           0
     43360 WT15     775      MECN     C2       CG1N1    0.360000       12.0110           0
     43361 WT15     775      MECN     N3       NG1T1   -0.460000       14.0070           0
     43362 WT15     779      MECN     C1       CG331   -0.170000       12.0110           0
     43363 WT15     779      MECN     H11      HGA3     0.090000        1.0080           0
     43364 WT15     779      MECN     H12      HGA3     0.090000        1.0080           0
     43365 WT15     779      MECN     H13      HGA3     0.090000        1.0080           0
     43366 WT15     779      MECN     C2       CG1N1    0.360000       12.0110           0
     43367 WT15     779      MECN     N3       NG1T1   -0.460000       14.0070           0
     43368 WT15     780      MECN     C1       CG331   -0.170000       12.0110           0
     43369 WT15     780      MECN     H11      HGA3     0.090000        1.0080           0
     43370 WT15     780      MECN     H12      HGA3     0.090000        1.0080           0
     43371 WT15     780      MECN     H13      HGA3     0.090000        1.0080           0
     43372 WT15     780      MECN     C2       CG1N1    0.360000       12.0110           0
     43373 WT15     780      MECN     N3       NG1T1   -0.460000       14.0070           0
     43374 WT15     781      MECN     C1       CG331   -0.170000       12.0110           0
     43375 WT15     781      MECN     H11      HGA3     0.090000        1.0080           0
     43376 WT15     781      MECN     H12      HGA3     0.090000        1.0080           0
     43377 WT15     781      MECN     H13      HGA3     0.090000        1.0080           0
     43378 WT15     781      MECN     C2       CG1N1    0.360000       12.0110           0
     43379 WT15     781      MECN     N3       NG1T1   -0.460000       14.0070           0
     43380 WT15     782      MECN     C1       CG331   -0.170000       12.0110           0
     43381 WT15     782      MECN     H11      HGA3     0.090000        1.0080           0
     43382 WT15     782      MECN     H12      HGA3     0.090000        1.0080           0
     43383 WT15     782      MECN     H13      HGA3     0.090000        1.0080           0
     43384 WT15     782      MECN     C2       CG1N1    0.360000       12.0110           0
     43385 WT15     782      MECN     N3       NG1T1   -0.460000       14.0070           0
     43386 WT15     784      MECN     C1       CG331   -0.170000       12.0110           0
     43387 WT15     784      MECN     H11      HGA3     0.090000        1.0080           0
     43388 WT15     784      MECN     H12      HGA3     0.090000        1.0080           0
     43389 WT15     784      MECN     H13      HGA3     0.090000        1.0080           0
     43390 WT15     784      MECN     C2       CG1N1    0.360000       12.0110           0
     43391 WT15     784      MECN     N3       NG1T1   -0.460000       14.0070           0
     43392 WT15     785      MECN     C1       CG331   -0.170000       12.0110           0
     43393 WT15     785      MECN     H11      HGA3     0.090000        1.0080           0
     43394 WT15     785      MECN     H12      HGA3     0.090000        1.0080           0
     43395 WT15     785      MECN     H13      HGA3     0.090000        1.0080           0
     43396 WT15     785      MECN     C2       CG1N1    0.360000       12.0110           0
     43397 WT15     785      MECN     N3       NG1T1   -0.460000       14.0070           0
     43398 WT15     786      MECN     C1       CG331   -0.170000       12.0110           0
     43399 WT15     786      MECN     H11      HGA3     0.090000        1.0080           0
     43400 WT15     786      MECN     H12      HGA3     0.090000        1.0080           0
     43401 WT15     786      MECN     H13      HGA3     0.090000        1.0080           0
     43402 WT15     786      MECN     C2       CG1N1    0.360000       12.0110           0
     43403 WT15     786      MECN     N3       NG1T1   -0.460000       14.0070           0
     43404 WT15     787      MECN     C1       CG331   -0.170000       12.0110           0
     43405 WT15     787      MECN     H11      HGA3     0.090000        1.0080           0
     43406 WT15     787      MECN     H12      HGA3     0.090000        1.0080           0
     43407 WT15     787      MECN     H13      HGA3     0.090000        1.0080           0
     43408 WT15     787      MECN     C2       CG1N1    0.360000       12.0110           0
     43409 WT15     787      MECN     N3       NG1T1   -0.460000       14.0070           0
     43410 WT15     788      MECN     C1       CG331   -0.170000       12.0110           0
     43411 WT15     788      MECN     H11      HGA3     0.090000        1.0080           0
     43412 WT15     788      MECN     H12      HGA3     0.090000        1.0080           0
     43413 WT15     788      MECN     H13      HGA3     0.090000        1.0080           0
     43414 WT15     788      MECN     C2       CG1N1    0.360000       12.0110           0
     43415 WT15     788      MECN     N3       NG1T1   -0.460000       14.0070           0
     43416 WT15     789      MECN     C1       CG331   -0.170000       12.0110           0
     43417 WT15     789      MECN     H11      HGA3     0.090000        1.0080           0
     43418 WT15     789      MECN     H12      HGA3     0.090000        1.0080           0
     43419 WT15     789      MECN     H13      HGA3     0.090000        1.0080           0
     43420 WT15     789      MECN     C2       CG1N1    0.360000       12.0110           0
     43421 WT15     789      MECN     N3       NG1T1   -0.460000       14.0070           0
     43422 WT15     790      MECN     C1       CG331   -0.170000       12.0110           0
     43423 WT15     790      MECN     H11      HGA3     0.090000        1.0080           0
     43424 WT15     790      MECN     H12      HGA3     0.090000        1.0080           0
     43425 WT15     790      MECN     H13      HGA3     0.090000        1.0080           0
     43426 WT15     790      MECN     C2       CG1N1    0.360000       12.0110           0
     43427 WT15     790      MECN     N3       NG1T1   -0.460000       14.0070           0
     43428 WT15     792      MECN     C1       CG331   -0.170000       12.0110           0
     43429 WT15     792      MECN     H11      HGA3     0.090000        1.0080           0
     43430 WT15     792      MECN     H12      HGA3     0.090000        1.0080           0
     43431 WT15     792      MECN     H13      HGA3     0.090000        1.0080           0
     43432 WT15     792      MECN     C2       CG1N1    0.360000       12.0110           0
     43433 WT15     792      MECN     N3       NG1T1   -0.460000       14.0070           0
     43434 WT15     794      MECN     C1       CG331   -0.170000       12.0110           0
     43435 WT15     794      MECN     H11      HGA3     0.090000        1.0080           0
     43436 WT15     794      MECN     H12      HGA3     0.090000        1.0080           0
     43437 WT15     794      MECN     H13      HGA3     0.090000        1.0080           0
     43438 WT15     794      MECN     C2       CG1N1    0.360000       12.0110           0
     43439 WT15     794      MECN     N3       NG1T1   -0.460000       14.0070           0
     43440 WT15     795      MECN     C1       CG331   -0.170000       12.0110           0
     43441 WT15     795      MECN     H11      HGA3     0.090000        1.0080           0
     43442 WT15     795      MECN     H12      HGA3     0.090000        1.0080           0
     43443 WT15     795      MECN     H13      HGA3     0.090000        1.0080           0
     43444 WT15     795      MECN     C2       CG1N1    0.360000       12.0110           0
     43445 WT15     795      MECN     N3       NG1T1   -0.460000       14.0070           0
     43446 WT15     796      MECN     C1       CG331   -0.170000       12.0110           0
     43447 WT15     796      MECN     H11      HGA3     0.090000        1.0080           0
     43448 WT15     796      MECN     H12      HGA3     0.090000        1.0080           0
     43449 WT15     796      MECN     H13      HGA3     0.090000        1.0080           0
     43450 WT15     796      MECN     C2       CG1N1    0.360000       12.0110           0
     43451 WT15     796      MECN     N3       NG1T1   -0.460000       14.0070           0
     43452 WT15     798      MECN     C1       CG331   -0.170000       12.0110           0
     43453 WT15     798      MECN     H11      HGA3     0.090000        1.0080           0
     43454 WT15     798      MECN     H12      HGA3     0.090000        1.0080           0
     43455 WT15     798      MECN     H13      HGA3     0.090000        1.0080           0
     43456 WT15     798      MECN     C2       CG1N1    0.360000       12.0110           0
     43457 WT15     798      MECN     N3       NG1T1   -0.460000       14.0070           0
     43458 WT15     800      MECN     C1       CG331   -0.170000       12.0110           0
     43459 WT15     800      MECN     H11      HGA3     0.090000        1.0080           0
     43460 WT15     800      MECN     H12      HGA3     0.090000        1.0080           0
     43461 WT15     800      MECN     H13      HGA3     0.090000        1.0080           0
     43462 WT15     800      MECN     C2       CG1N1    0.360000       12.0110           0
     43463 WT15     800      MECN     N3       NG1T1   -0.460000       14.0070           0
     43464 WT15     801      MECN     C1       CG331   -0.170000       12.0110           0
     43465 WT15     801      MECN     H11      HGA3     0.090000        1.0080           0
     43466 WT15     801      MECN     H12      HGA3     0.090000        1.0080           0
     43467 WT15     801      MECN     H13      HGA3     0.090000        1.0080           0
     43468 WT15     801      MECN     C2       CG1N1    0.360000       12.0110           0
     43469 WT15     801      MECN     N3       NG1T1   -0.460000       14.0070           0
     43470 WT15     802      MECN     C1       CG331   -0.170000       12.0110           0
     43471 WT15     802      MECN     H11      HGA3     0.090000        1.0080           0
     43472 WT15     802      MECN     H12      HGA3     0.090000        1.0080           0
     43473 WT15     802      MECN     H13      HGA3     0.090000        1.0080           0
     43474 WT15     802      MECN     C2       CG1N1    0.360000       12.0110           0
     43475 WT15     802      MECN     N3       NG1T1   -0.460000       14.0070           0
     43476 WT15     803      MECN     C1       CG331   -0.170000       12.0110           0
     43477 WT15     803      MECN     H11      HGA3     0.090000        1.0080           0
     43478 WT15     803      MECN     H12      HGA3     0.090000        1.0080           0
     43479 WT15     803      MECN     H13      HGA3     0.090000        1.0080           0
     43480 WT15     803      MECN     C2       CG1N1    0.360000       12.0110           0
     43481 WT15     803      MECN     N3       NG1T1   -0.460000       14.0070           0
     43482 WT15     804      MECN     C1       CG331   -0.170000       12.0110           0
     43483 WT15     804      MECN     H11      HGA3     0.090000        1.0080           0
     43484 WT15     804      MECN     H12      HGA3     0.090000        1.0080           0
     43485 WT15     804      MECN     H13      HGA3     0.090000        1.0080           0
     43486 WT15     804      MECN     C2       CG1N1    0.360000       12.0110           0
     43487 WT15     804      MECN     N3       NG1T1   -0.460000       14.0070           0
     43488 WT15     805      MECN     C1       CG331   -0.170000       12.0110           0
     43489 WT15     805      MECN     H11      HGA3     0.090000        1.0080           0
     43490 WT15     805      MECN     H12      HGA3     0.090000        1.0080           0
     43491 WT15     805      MECN     H13      HGA3     0.090000        1.0080           0
     43492 WT15     805      MECN     C2       CG1N1    0.360000       12.0110           0
     43493 WT15     805      MECN     N3       NG1T1   -0.460000       14.0070           0
     43494 WT15     809      MECN     C1       CG331   -0.170000       12.0110           0
     43495 WT15     809      MECN     H11      HGA3     0.090000        1.0080           0
     43496 WT15     809      MECN     H12      HGA3     0.090000        1.0080           0
     43497 WT15     809      MECN     H13      HGA3     0.090000        1.0080           0
     43498 WT15     809      MECN     C2       CG1N1    0.360000       12.0110           0
     43499 WT15     809      MECN     N3       NG1T1   -0.460000       14.0070           0
     43500 WT15     810      MECN     C1       CG331   -0.170000       12.0110           0
     43501 WT15     810      MECN     H11      HGA3     0.090000        1.0080           0
     43502 WT15     810      MECN     H12      HGA3     0.090000        1.0080           0
     43503 WT15     810      MECN     H13      HGA3     0.090000        1.0080           0
     43504 WT15     810      MECN     C2       CG1N1    0.360000       12.0110           0
     43505 WT15     810      MECN     N3       NG1T1   -0.460000       14.0070           0
     43506 WT15     811      MECN     C1       CG331   -0.170000       12.0110           0
     43507 WT15     811      MECN     H11      HGA3     0.090000        1.0080           0
     43508 WT15     811      MECN     H12      HGA3     0.090000        1.0080           0
     43509 WT15     811      MECN     H13      HGA3     0.090000        1.0080           0
     43510 WT15     811      MECN     C2       CG1N1    0.360000       12.0110           0
     43511 WT15     811      MECN     N3       NG1T1   -0.460000       14.0070           0
     43512 WT15     812      MECN     C1       CG331   -0.170000       12.0110           0
     43513 WT15     812      MECN     H11      HGA3     0.090000        1.0080           0
     43514 WT15     812      MECN     H12      HGA3     0.090000        1.0080           0
     43515 WT15     812      MECN     H13      HGA3     0.090000        1.0080           0
     43516 WT15     812      MECN     C2       CG1N1    0.360000       12.0110           0
     43517 WT15     812      MECN     N3       NG1T1   -0.460000       14.0070           0
     43518 WT15     813      MECN     C1       CG331   -0.170000       12.0110           0
     43519 WT15     813      MECN     H11      HGA3     0.090000        1.0080           0
     43520 WT15     813      MECN     H12      HGA3     0.090000        1.0080           0
     43521 WT15     813      MECN     H13      HGA3     0.090000        1.0080           0
     43522 WT15     813      MECN     C2       CG1N1    0.360000       12.0110           0
     43523 WT15     813      MECN     N3       NG1T1   -0.460000       14.0070           0
     43524 WT15     814      MECN     C1       CG331   -0.170000       12.0110           0
     43525 WT15     814      MECN     H11      HGA3     0.090000        1.0080           0
     43526 WT15     814      MECN     H12      HGA3     0.090000        1.0080           0
     43527 WT15     814      MECN     H13      HGA3     0.090000        1.0080           0
     43528 WT15     814      MECN     C2       CG1N1    0.360000       12.0110           0
     43529 WT15     814      MECN     N3       NG1T1   -0.460000       14.0070           0
     43530 WT15     815      MECN     C1       CG331   -0.170000       12.0110           0
     43531 WT15     815      MECN     H11      HGA3     0.090000        1.0080           0
     43532 WT15     815      MECN     H12      HGA3     0.090000        1.0080           0
     43533 WT15     815      MECN     H13      HGA3     0.090000        1.0080           0
     43534 WT15     815      MECN     C2       CG1N1    0.360000       12.0110           0
     43535 WT15     815      MECN     N3       NG1T1   -0.460000       14.0070           0
     43536 WT15     816      MECN     C1       CG331   -0.170000       12.0110           0
     43537 WT15     816      MECN     H11      HGA3     0.090000        1.0080           0
     43538 WT15     816      MECN     H12      HGA3     0.090000        1.0080           0
     43539 WT15     816      MECN     H13      HGA3     0.090000        1.0080           0
     43540 WT15     816      MECN     C2       CG1N1    0.360000       12.0110           0
     43541 WT15     816      MECN     N3       NG1T1   -0.460000       14.0070           0
     43542 WT15     818      MECN     C1       CG331   -0.170000       12.0110           0
     43543 WT15     818      MECN     H11      HGA3     0.090000        1.0080           0
     43544 WT15     818      MECN     H12      HGA3     0.090000        1.0080           0
     43545 WT15     818      MECN     H13      HGA3     0.090000        1.0080           0
     43546 WT15     818      MECN     C2       CG1N1    0.360000       12.0110           0
     43547 WT15     818      MECN     N3       NG1T1   -0.460000       14.0070           0
     43548 WT15     819      MECN     C1       CG331   -0.170000       12.0110           0
     43549 WT15     819      MECN     H11      HGA3     0.090000        1.0080           0
     43550 WT15     819      MECN     H12      HGA3     0.090000        1.0080           0
     43551 WT15     819      MECN     H13      HGA3     0.090000        1.0080           0
     43552 WT15     819      MECN     C2       CG1N1    0.360000       12.0110           0
     43553 WT15     819      MECN     N3       NG1T1   -0.460000       14.0070           0
     43554 WT15     820      MECN     C1       CG331   -0.170000       12.0110           0
     43555 WT15     820      MECN     H11      HGA3     0.090000        1.0080           0
     43556 WT15     820      MECN     H12      HGA3     0.090000        1.0080           0
     43557 WT15     820      MECN     H13      HGA3     0.090000        1.0080           0
     43558 WT15     820      MECN     C2       CG1N1    0.360000       12.0110           0
     43559 WT15     820      MECN     N3       NG1T1   -0.460000       14.0070           0
     43560 WT15     822      MECN     C1       CG331   -0.170000       12.0110           0
     43561 WT15     822      MECN     H11      HGA3     0.090000        1.0080           0
     43562 WT15     822      MECN     H12      HGA3     0.090000        1.0080           0
     43563 WT15     822      MECN     H13      HGA3     0.090000        1.0080           0
     43564 WT15     822      MECN     C2       CG1N1    0.360000       12.0110           0
     43565 WT15     822      MECN     N3       NG1T1   -0.460000       14.0070           0
     43566 WT15     824      MECN     C1       CG331   -0.170000       12.0110           0
     43567 WT15     824      MECN     H11      HGA3     0.090000        1.0080           0
     43568 WT15     824      MECN     H12      HGA3     0.090000        1.0080           0
     43569 WT15     824      MECN     H13      HGA3     0.090000        1.0080           0
     43570 WT15     824      MECN     C2       CG1N1    0.360000       12.0110           0
     43571 WT15     824      MECN     N3       NG1T1   -0.460000       14.0070           0
     43572 WT15     825      MECN     C1       CG331   -0.170000       12.0110           0
     43573 WT15     825      MECN     H11      HGA3     0.090000        1.0080           0
     43574 WT15     825      MECN     H12      HGA3     0.090000        1.0080           0
     43575 WT15     825      MECN     H13      HGA3     0.090000        1.0080           0
     43576 WT15     825      MECN     C2       CG1N1    0.360000       12.0110           0
     43577 WT15     825      MECN     N3       NG1T1   -0.460000       14.0070           0
     43578 WT15     826      MECN     C1       CG331   -0.170000       12.0110           0
     43579 WT15     826      MECN     H11      HGA3     0.090000        1.0080           0
     43580 WT15     826      MECN     H12      HGA3     0.090000        1.0080           0
     43581 WT15     826      MECN     H13      HGA3     0.090000        1.0080           0
     43582 WT15     826      MECN     C2       CG1N1    0.360000       12.0110           0
     43583 WT15     826      MECN     N3       NG1T1   -0.460000       14.0070           0
     43584 WT15     829      MECN     C1       CG331   -0.170000       12.0110           0
     43585 WT15     829      MECN     H11      HGA3     0.090000        1.0080           0
     43586 WT15     829      MECN     H12      HGA3     0.090000        1.0080           0
     43587 WT15     829      MECN     H13      HGA3     0.090000        1.0080           0
     43588 WT15     829      MECN     C2       CG1N1    0.360000       12.0110           0
     43589 WT15     829      MECN     N3       NG1T1   -0.460000       14.0070           0
     43590 WT15     830      MECN     C1       CG331   -0.170000       12.0110           0
     43591 WT15     830      MECN     H11      HGA3     0.090000        1.0080           0
     43592 WT15     830      MECN     H12      HGA3     0.090000        1.0080           0
     43593 WT15     830      MECN     H13      HGA3     0.090000        1.0080           0
     43594 WT15     830      MECN     C2       CG1N1    0.360000       12.0110           0
     43595 WT15     830      MECN     N3       NG1T1   -0.460000       14.0070           0
     43596 WT15     831      MECN     C1       CG331   -0.170000       12.0110           0
     43597 WT15     831      MECN     H11      HGA3     0.090000        1.0080           0
     43598 WT15     831      MECN     H12      HGA3     0.090000        1.0080           0
     43599 WT15     831      MECN     H13      HGA3     0.090000        1.0080           0
     43600 WT15     831      MECN     C2       CG1N1    0.360000       12.0110           0
     43601 WT15     831      MECN     N3       NG1T1   -0.460000       14.0070           0
     43602 WT15     832      MECN     C1       CG331   -0.170000       12.0110           0
     43603 WT15     832      MECN     H11      HGA3     0.090000        1.0080           0
     43604 WT15     832      MECN     H12      HGA3     0.090000        1.0080           0
     43605 WT15     832      MECN     H13      HGA3     0.090000        1.0080           0
     43606 WT15     832      MECN     C2       CG1N1    0.360000       12.0110           0
     43607 WT15     832      MECN     N3       NG1T1   -0.460000       14.0070           0
     43608 WT15     835      MECN     C1       CG331   -0.170000       12.0110           0
     43609 WT15     835      MECN     H11      HGA3     0.090000        1.0080           0
     43610 WT15     835      MECN     H12      HGA3     0.090000        1.0080           0
     43611 WT15     835      MECN     H13      HGA3     0.090000        1.0080           0
     43612 WT15     835      MECN     C2       CG1N1    0.360000       12.0110           0
     43613 WT15     835      MECN     N3       NG1T1   -0.460000       14.0070           0
     43614 WT15     836      MECN     C1       CG331   -0.170000       12.0110           0
     43615 WT15     836      MECN     H11      HGA3     0.090000        1.0080           0
     43616 WT15     836      MECN     H12      HGA3     0.090000        1.0080           0
     43617 WT15     836      MECN     H13      HGA3     0.090000        1.0080           0
     43618 WT15     836      MECN     C2       CG1N1    0.360000       12.0110           0
     43619 WT15     836      MECN     N3       NG1T1   -0.460000       14.0070           0
     43620 WT15     837      MECN     C1       CG331   -0.170000       12.0110           0
     43621 WT15     837      MECN     H11      HGA3     0.090000        1.0080           0
     43622 WT15     837      MECN     H12      HGA3     0.090000        1.0080           0
     43623 WT15     837      MECN     H13      HGA3     0.090000        1.0080           0
     43624 WT15     837      MECN     C2       CG1N1    0.360000       12.0110           0
     43625 WT15     837      MECN     N3       NG1T1   -0.460000       14.0070           0
     43626 WT15     838      MECN     C1       CG331   -0.170000       12.0110           0
     43627 WT15     838      MECN     H11      HGA3     0.090000        1.0080           0
     43628 WT15     838      MECN     H12      HGA3     0.090000        1.0080           0
     43629 WT15     838      MECN     H13      HGA3     0.090000        1.0080           0
     43630 WT15     838      MECN     C2       CG1N1    0.360000       12.0110           0
     43631 WT15     838      MECN     N3       NG1T1   -0.460000       14.0070           0
     43632 WT15     839      MECN     C1       CG331   -0.170000       12.0110           0
     43633 WT15     839      MECN     H11      HGA3     0.090000        1.0080           0
     43634 WT15     839      MECN     H12      HGA3     0.090000        1.0080           0
     43635 WT15     839      MECN     H13      HGA3     0.090000        1.0080           0
     43636 WT15     839      MECN     C2       CG1N1    0.360000       12.0110           0
     43637 WT15     839      MECN     N3       NG1T1   -0.460000       14.0070           0
     43638 WT15     842      MECN     C1       CG331   -0.170000       12.0110           0
     43639 WT15     842      MECN     H11      HGA3     0.090000        1.0080           0
     43640 WT15     842      MECN     H12      HGA3     0.090000        1.0080           0
     43641 WT15     842      MECN     H13      HGA3     0.090000        1.0080           0
     43642 WT15     842      MECN     C2       CG1N1    0.360000       12.0110           0
     43643 WT15     842      MECN     N3       NG1T1   -0.460000       14.0070           0
     43644 WT15     843      MECN     C1       CG331   -0.170000       12.0110           0
     43645 WT15     843      MECN     H11      HGA3     0.090000        1.0080           0
     43646 WT15     843      MECN     H12      HGA3     0.090000        1.0080           0
     43647 WT15     843      MECN     H13      HGA3     0.090000        1.0080           0
     43648 WT15     843      MECN     C2       CG1N1    0.360000       12.0110           0
     43649 WT15     843      MECN     N3       NG1T1   -0.460000       14.0070           0
     43650 WT15     844      MECN     C1       CG331   -0.170000       12.0110           0
     43651 WT15     844      MECN     H11      HGA3     0.090000        1.0080           0
     43652 WT15     844      MECN     H12      HGA3     0.090000        1.0080           0
     43653 WT15     844      MECN     H13      HGA3     0.090000        1.0080           0
     43654 WT15     844      MECN     C2       CG1N1    0.360000       12.0110           0
     43655 WT15     844      MECN     N3       NG1T1   -0.460000       14.0070           0
     43656 WT15     845      MECN     C1       CG331   -0.170000       12.0110           0
     43657 WT15     845      MECN     H11      HGA3     0.090000        1.0080           0
     43658 WT15     845      MECN     H12      HGA3     0.090000        1.0080           0
     43659 WT15     845      MECN     H13      HGA3     0.090000        1.0080           0
     43660 WT15     845      MECN     C2       CG1N1    0.360000       12.0110           0
     43661 WT15     845      MECN     N3       NG1T1   -0.460000       14.0070           0
     43662 WT15     847      MECN     C1       CG331   -0.170000       12.0110           0
     43663 WT15     847      MECN     H11      HGA3     0.090000        1.0080           0
     43664 WT15     847      MECN     H12      HGA3     0.090000        1.0080           0
     43665 WT15     847      MECN     H13      HGA3     0.090000        1.0080           0
     43666 WT15     847      MECN     C2       CG1N1    0.360000       12.0110           0
     43667 WT15     847      MECN     N3       NG1T1   -0.460000       14.0070           0
     43668 WT15     848      MECN     C1       CG331   -0.170000       12.0110           0
     43669 WT15     848      MECN     H11      HGA3     0.090000        1.0080           0
     43670 WT15     848      MECN     H12      HGA3     0.090000        1.0080           0
     43671 WT15     848      MECN     H13      HGA3     0.090000        1.0080           0
     43672 WT15     848      MECN     C2       CG1N1    0.360000       12.0110           0
     43673 WT15     848      MECN     N3       NG1T1   -0.460000       14.0070           0
     43674 WT15     850      MECN     C1       CG331   -0.170000       12.0110           0
     43675 WT15     850      MECN     H11      HGA3     0.090000        1.0080           0
     43676 WT15     850      MECN     H12      HGA3     0.090000        1.0080           0
     43677 WT15     850      MECN     H13      HGA3     0.090000        1.0080           0
     43678 WT15     850      MECN     C2       CG1N1    0.360000       12.0110           0
     43679 WT15     850      MECN     N3       NG1T1   -0.460000       14.0070           0
     43680 WT15     851      MECN     C1       CG331   -0.170000       12.0110           0
     43681 WT15     851      MECN     H11      HGA3     0.090000        1.0080           0
     43682 WT15     851      MECN     H12      HGA3     0.090000        1.0080           0
     43683 WT15     851      MECN     H13      HGA3     0.090000        1.0080           0
     43684 WT15     851      MECN     C2       CG1N1    0.360000       12.0110           0
     43685 WT15     851      MECN     N3       NG1T1   -0.460000       14.0070           0
     43686 WT15     853      MECN     C1       CG331   -0.170000       12.0110           0
     43687 WT15     853      MECN     H11      HGA3     0.090000        1.0080           0
     43688 WT15     853      MECN     H12      HGA3     0.090000        1.0080           0
     43689 WT15     853      MECN     H13      HGA3     0.090000        1.0080           0
     43690 WT15     853      MECN     C2       CG1N1    0.360000       12.0110           0
     43691 WT15     853      MECN     N3       NG1T1   -0.460000       14.0070           0
     43692 WT15     854      MECN     C1       CG331   -0.170000       12.0110           0
     43693 WT15     854      MECN     H11      HGA3     0.090000        1.0080           0
     43694 WT15     854      MECN     H12      HGA3     0.090000        1.0080           0
     43695 WT15     854      MECN     H13      HGA3     0.090000        1.0080           0
     43696 WT15     854      MECN     C2       CG1N1    0.360000       12.0110           0
     43697 WT15     854      MECN     N3       NG1T1   -0.460000       14.0070           0
     43698 WT15     855      MECN     C1       CG331   -0.170000       12.0110           0
     43699 WT15     855      MECN     H11      HGA3     0.090000        1.0080           0
     43700 WT15     855      MECN     H12      HGA3     0.090000        1.0080           0
     43701 WT15     855      MECN     H13      HGA3     0.090000        1.0080           0
     43702 WT15     855      MECN     C2       CG1N1    0.360000       12.0110           0
     43703 WT15     855      MECN     N3       NG1T1   -0.460000       14.0070           0
     43704 WT15     856      MECN     C1       CG331   -0.170000       12.0110           0
     43705 WT15     856      MECN     H11      HGA3     0.090000        1.0080           0
     43706 WT15     856      MECN     H12      HGA3     0.090000        1.0080           0
     43707 WT15     856      MECN     H13      HGA3     0.090000        1.0080           0
     43708 WT15     856      MECN     C2       CG1N1    0.360000       12.0110           0
     43709 WT15     856      MECN     N3       NG1T1   -0.460000       14.0070           0
     43710 WT15     857      MECN     C1       CG331   -0.170000       12.0110           0
     43711 WT15     857      MECN     H11      HGA3     0.090000        1.0080           0
     43712 WT15     857      MECN     H12      HGA3     0.090000        1.0080           0
     43713 WT15     857      MECN     H13      HGA3     0.090000        1.0080           0
     43714 WT15     857      MECN     C2       CG1N1    0.360000       12.0110           0
     43715 WT15     857      MECN     N3       NG1T1   -0.460000       14.0070           0
     43716 WT15     858      MECN     C1       CG331   -0.170000       12.0110           0
     43717 WT15     858      MECN     H11      HGA3     0.090000        1.0080           0
     43718 WT15     858      MECN     H12      HGA3     0.090000        1.0080           0
     43719 WT15     858      MECN     H13      HGA3     0.090000        1.0080           0
     43720 WT15     858      MECN     C2       CG1N1    0.360000       12.0110           0
     43721 WT15     858      MECN     N3       NG1T1   -0.460000       14.0070           0
     43722 WT15     859      MECN     C1       CG331   -0.170000       12.0110           0
     43723 WT15     859      MECN     H11      HGA3     0.090000        1.0080           0
     43724 WT15     859      MECN     H12      HGA3     0.090000        1.0080           0
     43725 WT15     859      MECN     H13      HGA3     0.090000        1.0080           0
     43726 WT15     859      MECN     C2       CG1N1    0.360000       12.0110           0
     43727 WT15     859      MECN     N3       NG1T1   -0.460000       14.0070           0
     43728 WT15     861      MECN     C1       CG331   -0.170000       12.0110           0
     43729 WT15     861      MECN     H11      HGA3     0.090000        1.0080           0
     43730 WT15     861      MECN     H12      HGA3     0.090000        1.0080           0
     43731 WT15     861      MECN     H13      HGA3     0.090000        1.0080           0
     43732 WT15     861      MECN     C2       CG1N1    0.360000       12.0110           0
     43733 WT15     861      MECN     N3       NG1T1   -0.460000       14.0070           0
     43734 WT15     862      MECN     C1       CG331   -0.170000       12.0110           0
     43735 WT15     862      MECN     H11      HGA3     0.090000        1.0080           0
     43736 WT15     862      MECN     H12      HGA3     0.090000        1.0080           0
     43737 WT15     862      MECN     H13      HGA3     0.090000        1.0080           0
     43738 WT15     862      MECN     C2       CG1N1    0.360000       12.0110           0
     43739 WT15     862      MECN     N3       NG1T1   -0.460000       14.0070           0
     43740 WT15     865      MECN     C1       CG331   -0.170000       12.0110           0
     43741 WT15     865      MECN     H11      HGA3     0.090000        1.0080           0
     43742 WT15     865      MECN     H12      HGA3     0.090000        1.0080           0
     43743 WT15     865      MECN     H13      HGA3     0.090000        1.0080           0
     43744 WT15     865      MECN     C2       CG1N1    0.360000       12.0110           0
     43745 WT15     865      MECN     N3       NG1T1   -0.460000       14.0070           0
     43746 WT15     866      MECN     C1       CG331   -0.170000       12.0110           0
     43747 WT15     866      MECN     H11      HGA3     0.090000        1.0080           0
     43748 WT15     866      MECN     H12      HGA3     0.090000        1.0080           0
     43749 WT15     866      MECN     H13      HGA3     0.090000        1.0080           0
     43750 WT15     866      MECN     C2       CG1N1    0.360000       12.0110           0
     43751 WT15     866      MECN     N3       NG1T1   -0.460000       14.0070           0
     43752 WT15     867      MECN     C1       CG331   -0.170000       12.0110           0
     43753 WT15     867      MECN     H11      HGA3     0.090000        1.0080           0
     43754 WT15     867      MECN     H12      HGA3     0.090000        1.0080           0
     43755 WT15     867      MECN     H13      HGA3     0.090000        1.0080           0
     43756 WT15     867      MECN     C2       CG1N1    0.360000       12.0110           0
     43757 WT15     867      MECN     N3       NG1T1   -0.460000       14.0070           0
     43758 WT15     868      MECN     C1       CG331   -0.170000       12.0110           0
     43759 WT15     868      MECN     H11      HGA3     0.090000        1.0080           0
     43760 WT15     868      MECN     H12      HGA3     0.090000        1.0080           0
     43761 WT15     868      MECN     H13      HGA3     0.090000        1.0080           0
     43762 WT15     868      MECN     C2       CG1N1    0.360000       12.0110           0
     43763 WT15     868      MECN     N3       NG1T1   -0.460000       14.0070           0
     43764 WT15     869      MECN     C1       CG331   -0.170000       12.0110           0
     43765 WT15     869      MECN     H11      HGA3     0.090000        1.0080           0
     43766 WT15     869      MECN     H12      HGA3     0.090000        1.0080           0
     43767 WT15     869      MECN     H13      HGA3     0.090000        1.0080           0
     43768 WT15     869      MECN     C2       CG1N1    0.360000       12.0110           0
     43769 WT15     869      MECN     N3       NG1T1   -0.460000       14.0070           0
     43770 WT15     870      MECN     C1       CG331   -0.170000       12.0110           0
     43771 WT15     870      MECN     H11      HGA3     0.090000        1.0080           0
     43772 WT15     870      MECN     H12      HGA3     0.090000        1.0080           0
     43773 WT15     870      MECN     H13      HGA3     0.090000        1.0080           0
     43774 WT15     870      MECN     C2       CG1N1    0.360000       12.0110           0
     43775 WT15     870      MECN     N3       NG1T1   -0.460000       14.0070           0
     43776 WT15     871      MECN     C1       CG331   -0.170000       12.0110           0
     43777 WT15     871      MECN     H11      HGA3     0.090000        1.0080           0
     43778 WT15     871      MECN     H12      HGA3     0.090000        1.0080           0
     43779 WT15     871      MECN     H13      HGA3     0.090000        1.0080           0
     43780 WT15     871      MECN     C2       CG1N1    0.360000       12.0110           0
     43781 WT15     871      MECN     N3       NG1T1   -0.460000       14.0070           0
     43782 WT15     872      MECN     C1       CG331   -0.170000       12.0110           0
     43783 WT15     872      MECN     H11      HGA3     0.090000        1.0080           0
     43784 WT15     872      MECN     H12      HGA3     0.090000        1.0080           0
     43785 WT15     872      MECN     H13      HGA3     0.090000        1.0080           0
     43786 WT15     872      MECN     C2       CG1N1    0.360000       12.0110           0
     43787 WT15     872      MECN     N3       NG1T1   -0.460000       14.0070           0
     43788 WT15     873      MECN     C1       CG331   -0.170000       12.0110           0
     43789 WT15     873      MECN     H11      HGA3     0.090000        1.0080           0
     43790 WT15     873      MECN     H12      HGA3     0.090000        1.0080           0
     43791 WT15     873      MECN     H13      HGA3     0.090000        1.0080           0
     43792 WT15     873      MECN     C2       CG1N1    0.360000       12.0110           0
     43793 WT15     873      MECN     N3       NG1T1   -0.460000       14.0070           0
     43794 WT15     874      MECN     C1       CG331   -0.170000       12.0110           0
     43795 WT15     874      MECN     H11      HGA3     0.090000        1.0080           0
     43796 WT15     874      MECN     H12      HGA3     0.090000        1.0080           0
     43797 WT15     874      MECN     H13      HGA3     0.090000        1.0080           0
     43798 WT15     874      MECN     C2       CG1N1    0.360000       12.0110           0
     43799 WT15     874      MECN     N3       NG1T1   -0.460000       14.0070           0
     43800 WT15     876      MECN     C1       CG331   -0.170000       12.0110           0
     43801 WT15     876      MECN     H11      HGA3     0.090000        1.0080           0
     43802 WT15     876      MECN     H12      HGA3     0.090000        1.0080           0
     43803 WT15     876      MECN     H13      HGA3     0.090000        1.0080           0
     43804 WT15     876      MECN     C2       CG1N1    0.360000       12.0110           0
     43805 WT15     876      MECN     N3       NG1T1   -0.460000       14.0070           0
     43806 WT15     877      MECN     C1       CG331   -0.170000       12.0110           0
     43807 WT15     877      MECN     H11      HGA3     0.090000        1.0080           0
     43808 WT15     877      MECN     H12      HGA3     0.090000        1.0080           0
     43809 WT15     877      MECN     H13      HGA3     0.090000        1.0080           0
     43810 WT15     877      MECN     C2       CG1N1    0.360000       12.0110           0
     43811 WT15     877      MECN     N3       NG1T1   -0.460000       14.0070           0
     43812 WT15     878      MECN     C1       CG331   -0.170000       12.0110           0
     43813 WT15     878      MECN     H11      HGA3     0.090000        1.0080           0
     43814 WT15     878      MECN     H12      HGA3     0.090000        1.0080           0
     43815 WT15     878      MECN     H13      HGA3     0.090000        1.0080           0
     43816 WT15     878      MECN     C2       CG1N1    0.360000       12.0110           0
     43817 WT15     878      MECN     N3       NG1T1   -0.460000       14.0070           0
     43818 WT15     879      MECN     C1       CG331   -0.170000       12.0110           0
     43819 WT15     879      MECN     H11      HGA3     0.090000        1.0080           0
     43820 WT15     879      MECN     H12      HGA3     0.090000        1.0080           0
     43821 WT15     879      MECN     H13      HGA3     0.090000        1.0080           0
     43822 WT15     879      MECN     C2       CG1N1    0.360000       12.0110           0
     43823 WT15     879      MECN     N3       NG1T1   -0.460000       14.0070           0
     43824 WT15     880      MECN     C1       CG331   -0.170000       12.0110           0
     43825 WT15     880      MECN     H11      HGA3     0.090000        1.0080           0
     43826 WT15     880      MECN     H12      HGA3     0.090000        1.0080           0
     43827 WT15     880      MECN     H13      HGA3     0.090000        1.0080           0
     43828 WT15     880      MECN     C2       CG1N1    0.360000       12.0110           0
     43829 WT15     880      MECN     N3       NG1T1   -0.460000       14.0070           0
     43830 WT15     881      MECN     C1       CG331   -0.170000       12.0110           0
     43831 WT15     881      MECN     H11      HGA3     0.090000        1.0080           0
     43832 WT15     881      MECN     H12      HGA3     0.090000        1.0080           0
     43833 WT15     881      MECN     H13      HGA3     0.090000        1.0080           0
     43834 WT15     881      MECN     C2       CG1N1    0.360000       12.0110           0
     43835 WT15     881      MECN     N3       NG1T1   -0.460000       14.0070           0
     43836 WT15     882      MECN     C1       CG331   -0.170000       12.0110           0
     43837 WT15     882      MECN     H11      HGA3     0.090000        1.0080           0
     43838 WT15     882      MECN     H12      HGA3     0.090000        1.0080           0
     43839 WT15     882      MECN     H13      HGA3     0.090000        1.0080           0
     43840 WT15     882      MECN     C2       CG1N1    0.360000       12.0110           0
     43841 WT15     882      MECN     N3       NG1T1   -0.460000       14.0070           0
     43842 WT15     883      MECN     C1       CG331   -0.170000       12.0110           0
     43843 WT15     883      MECN     H11      HGA3     0.090000        1.0080           0
     43844 WT15     883      MECN     H12      HGA3     0.090000        1.0080           0
     43845 WT15     883      MECN     H13      HGA3     0.090000        1.0080           0
     43846 WT15     883      MECN     C2       CG1N1    0.360000       12.0110           0
     43847 WT15     883      MECN     N3       NG1T1   -0.460000       14.0070           0
     43848 WT15     884      MECN     C1       CG331   -0.170000       12.0110           0
     43849 WT15     884      MECN     H11      HGA3     0.090000        1.0080           0
     43850 WT15     884      MECN     H12      HGA3     0.090000        1.0080           0
     43851 WT15     884      MECN     H13      HGA3     0.090000        1.0080           0
     43852 WT15     884      MECN     C2       CG1N1    0.360000       12.0110           0
     43853 WT15     884      MECN     N3       NG1T1   -0.460000       14.0070           0
     43854 WT15     885      MECN     C1       CG331   -0.170000       12.0110           0
     43855 WT15     885      MECN     H11      HGA3     0.090000        1.0080           0
     43856 WT15     885      MECN     H12      HGA3     0.090000        1.0080           0
     43857 WT15     885      MECN     H13      HGA3     0.090000        1.0080           0
     43858 WT15     885      MECN     C2       CG1N1    0.360000       12.0110           0
     43859 WT15     885      MECN     N3       NG1T1   -0.460000       14.0070           0
     43860 WT15     886      MECN     C1       CG331   -0.170000       12.0110           0
     43861 WT15     886      MECN     H11      HGA3     0.090000        1.0080           0
     43862 WT15     886      MECN     H12      HGA3     0.090000        1.0080           0
     43863 WT15     886      MECN     H13      HGA3     0.090000        1.0080           0
     43864 WT15     886      MECN     C2       CG1N1    0.360000       12.0110           0
     43865 WT15     886      MECN     N3       NG1T1   -0.460000       14.0070           0
     43866 WT15     887      MECN     C1       CG331   -0.170000       12.0110           0
     43867 WT15     887      MECN     H11      HGA3     0.090000        1.0080           0
     43868 WT15     887      MECN     H12      HGA3     0.090000        1.0080           0
     43869 WT15     887      MECN     H13      HGA3     0.090000        1.0080           0
     43870 WT15     887      MECN     C2       CG1N1    0.360000       12.0110           0
     43871 WT15     887      MECN     N3       NG1T1   -0.460000       14.0070           0
     43872 WT15     889      MECN     C1       CG331   -0.170000       12.0110           0
     43873 WT15     889      MECN     H11      HGA3     0.090000        1.0080           0
     43874 WT15     889      MECN     H12      HGA3     0.090000        1.0080           0
     43875 WT15     889      MECN     H13      HGA3     0.090000        1.0080           0
     43876 WT15     889      MECN     C2       CG1N1    0.360000       12.0110           0
     43877 WT15     889      MECN     N3       NG1T1   -0.460000       14.0070           0
     43878 WT15     890      MECN     C1       CG331   -0.170000       12.0110           0
     43879 WT15     890      MECN     H11      HGA3     0.090000        1.0080           0
     43880 WT15     890      MECN     H12      HGA3     0.090000        1.0080           0
     43881 WT15     890      MECN     H13      HGA3     0.090000        1.0080           0
     43882 WT15     890      MECN     C2       CG1N1    0.360000       12.0110           0
     43883 WT15     890      MECN     N3       NG1T1   -0.460000       14.0070           0
     43884 WT15     893      MECN     C1       CG331   -0.170000       12.0110           0
     43885 WT15     893      MECN     H11      HGA3     0.090000        1.0080           0
     43886 WT15     893      MECN     H12      HGA3     0.090000        1.0080           0
     43887 WT15     893      MECN     H13      HGA3     0.090000        1.0080           0
     43888 WT15     893      MECN     C2       CG1N1    0.360000       12.0110           0
     43889 WT15     893      MECN     N3       NG1T1   -0.460000       14.0070           0
     43890 WT15     894      MECN     C1       CG331   -0.170000       12.0110           0
     43891 WT15     894      MECN     H11      HGA3     0.090000        1.0080           0
     43892 WT15     894      MECN     H12      HGA3     0.090000        1.0080           0
     43893 WT15     894      MECN     H13      HGA3     0.090000        1.0080           0
     43894 WT15     894      MECN     C2       CG1N1    0.360000       12.0110           0
     43895 WT15     894      MECN     N3       NG1T1   -0.460000       14.0070           0
     43896 WT15     896      MECN     C1       CG331   -0.170000       12.0110           0
     43897 WT15     896      MECN     H11      HGA3     0.090000        1.0080           0
     43898 WT15     896      MECN     H12      HGA3     0.090000        1.0080           0
     43899 WT15     896      MECN     H13      HGA3     0.090000        1.0080           0
     43900 WT15     896      MECN     C2       CG1N1    0.360000       12.0110           0
     43901 WT15     896      MECN     N3       NG1T1   -0.460000       14.0070           0
     43902 WT15     900      MECN     C1       CG331   -0.170000       12.0110           0
     43903 WT15     900      MECN     H11      HGA3     0.090000        1.0080           0
     43904 WT15     900      MECN     H12      HGA3     0.090000        1.0080           0
     43905 WT15     900      MECN     H13      HGA3     0.090000        1.0080           0
     43906 WT15     900      MECN     C2       CG1N1    0.360000       12.0110           0
     43907 WT15     900      MECN     N3       NG1T1   -0.460000       14.0070           0
     43908 WT15     901      MECN     C1       CG331   -0.170000       12.0110           0
     43909 WT15     901      MECN     H11      HGA3     0.090000        1.0080           0
     43910 WT15     901      MECN     H12      HGA3     0.090000        1.0080           0
     43911 WT15     901      MECN     H13      HGA3     0.090000        1.0080           0
     43912 WT15     901      MECN     C2       CG1N1    0.360000       12.0110           0
     43913 WT15     901      MECN     N3       NG1T1   -0.460000       14.0070           0
     43914 WT15     902      MECN     C1       CG331   -0.170000       12.0110           0
     43915 WT15     902      MECN     H11      HGA3     0.090000        1.0080           0
     43916 WT15     902      MECN     H12      HGA3     0.090000        1.0080           0
     43917 WT15     902      MECN     H13      HGA3     0.090000        1.0080           0
     43918 WT15     902      MECN     C2       CG1N1    0.360000       12.0110           0
     43919 WT15     902      MECN     N3       NG1T1   -0.460000       14.0070           0
     43920 WT15     903      MECN     C1       CG331   -0.170000       12.0110           0
     43921 WT15     903      MECN     H11      HGA3     0.090000        1.0080           0
     43922 WT15     903      MECN     H12      HGA3     0.090000        1.0080           0
     43923 WT15     903      MECN     H13      HGA3     0.090000        1.0080           0
     43924 WT15     903      MECN     C2       CG1N1    0.360000       12.0110           0
     43925 WT15     903      MECN     N3       NG1T1   -0.460000       14.0070           0
     43926 WT15     904      MECN     C1       CG331   -0.170000       12.0110           0
     43927 WT15     904      MECN     H11      HGA3     0.090000        1.0080           0
     43928 WT15     904      MECN     H12      HGA3     0.090000        1.0080           0
     43929 WT15     904      MECN     H13      HGA3     0.090000        1.0080           0
     43930 WT15     904      MECN     C2       CG1N1    0.360000       12.0110           0
     43931 WT15     904      MECN     N3       NG1T1   -0.460000       14.0070           0
     43932 WT15     906      MECN     C1       CG331   -0.170000       12.0110           0
     43933 WT15     906      MECN     H11      HGA3     0.090000        1.0080           0
     43934 WT15     906      MECN     H12      HGA3     0.090000        1.0080           0
     43935 WT15     906      MECN     H13      HGA3     0.090000        1.0080           0
     43936 WT15     906      MECN     C2       CG1N1    0.360000       12.0110           0
     43937 WT15     906      MECN     N3       NG1T1   -0.460000       14.0070           0
     43938 WT15     907      MECN     C1       CG331   -0.170000       12.0110           0
     43939 WT15     907      MECN     H11      HGA3     0.090000        1.0080           0
     43940 WT15     907      MECN     H12      HGA3     0.090000        1.0080           0
     43941 WT15     907      MECN     H13      HGA3     0.090000        1.0080           0
     43942 WT15     907      MECN     C2       CG1N1    0.360000       12.0110           0
     43943 WT15     907      MECN     N3       NG1T1   -0.460000       14.0070           0
     43944 WT15     909      MECN     C1       CG331   -0.170000       12.0110           0
     43945 WT15     909      MECN     H11      HGA3     0.090000        1.0080           0
     43946 WT15     909      MECN     H12      HGA3     0.090000        1.0080           0
     43947 WT15     909      MECN     H13      HGA3     0.090000        1.0080           0
     43948 WT15     909      MECN     C2       CG1N1    0.360000       12.0110           0
     43949 WT15     909      MECN     N3       NG1T1   -0.460000       14.0070           0
     43950 WT15     911      MECN     C1       CG331   -0.170000       12.0110           0
     43951 WT15     911      MECN     H11      HGA3     0.090000        1.0080           0
     43952 WT15     911      MECN     H12      HGA3     0.090000        1.0080           0
     43953 WT15     911      MECN     H13      HGA3     0.090000        1.0080           0
     43954 WT15     911      MECN     C2       CG1N1    0.360000       12.0110           0
     43955 WT15     911      MECN     N3       NG1T1   -0.460000       14.0070           0
     43956 WT15     912      MECN     C1       CG331   -0.170000       12.0110           0
     43957 WT15     912      MECN     H11      HGA3     0.090000        1.0080           0
     43958 WT15     912      MECN     H12      HGA3     0.090000        1.0080           0
     43959 WT15     912      MECN     H13      HGA3     0.090000        1.0080           0
     43960 WT15     912      MECN     C2       CG1N1    0.360000       12.0110           0
     43961 WT15     912      MECN     N3       NG1T1   -0.460000       14.0070           0
     43962 WT15     913      MECN     C1       CG331   -0.170000       12.0110           0
     43963 WT15     913      MECN     H11      HGA3     0.090000        1.0080           0
     43964 WT15     913      MECN     H12      HGA3     0.090000        1.0080           0
     43965 WT15     913      MECN     H13      HGA3     0.090000        1.0080           0
     43966 WT15     913      MECN     C2       CG1N1    0.360000       12.0110           0
     43967 WT15     913      MECN     N3       NG1T1   -0.460000       14.0070           0
     43968 WT15     921      MECN     C1       CG331   -0.170000       12.0110           0
     43969 WT15     921      MECN     H11      HGA3     0.090000        1.0080           0
     43970 WT15     921      MECN     H12      HGA3     0.090000        1.0080           0
     43971 WT15     921      MECN     H13      HGA3     0.090000        1.0080           0
     43972 WT15     921      MECN     C2       CG1N1    0.360000       12.0110           0
     43973 WT15     921      MECN     N3       NG1T1   -0.460000       14.0070           0
     43974 WT15     923      MECN     C1       CG331   -0.170000       12.0110           0
     43975 WT15     923      MECN     H11      HGA3     0.090000        1.0080           0
     43976 WT15     923      MECN     H12      HGA3     0.090000        1.0080           0
     43977 WT15     923      MECN     H13      HGA3     0.090000        1.0080           0
     43978 WT15     923      MECN     C2       CG1N1    0.360000       12.0110           0
     43979 WT15     923      MECN     N3       NG1T1   -0.460000       14.0070           0
     43980 WT15     925      MECN     C1       CG331   -0.170000       12.0110           0
     43981 WT15     925      MECN     H11      HGA3     0.090000        1.0080           0
     43982 WT15     925      MECN     H12      HGA3     0.090000        1.0080           0
     43983 WT15     925      MECN     H13      HGA3     0.090000        1.0080           0
     43984 WT15     925      MECN     C2       CG1N1    0.360000       12.0110           0
     43985 WT15     925      MECN     N3       NG1T1   -0.460000       14.0070           0
     43986 WT15     927      MECN     C1       CG331   -0.170000       12.0110           0
     43987 WT15     927      MECN     H11      HGA3     0.090000        1.0080           0
     43988 WT15     927      MECN     H12      HGA3     0.090000        1.0080           0
     43989 WT15     927      MECN     H13      HGA3     0.090000        1.0080           0
     43990 WT15     927      MECN     C2       CG1N1    0.360000       12.0110           0
     43991 WT15     927      MECN     N3       NG1T1   -0.460000       14.0070           0
     43992 WT15     928      MECN     C1       CG331   -0.170000       12.0110           0
     43993 WT15     928      MECN     H11      HGA3     0.090000        1.0080           0
     43994 WT15     928      MECN     H12      HGA3     0.090000        1.0080           0
     43995 WT15     928      MECN     H13      HGA3     0.090000        1.0080           0
     43996 WT15     928      MECN     C2       CG1N1    0.360000       12.0110           0
     43997 WT15     928      MECN     N3       NG1T1   -0.460000       14.0070           0
     43998 WT15     929      MECN     C1       CG331   -0.170000       12.0110           0
     43999 WT15     929      MECN     H11      HGA3     0.090000        1.0080           0
     44000 WT15     929      MECN     H12      HGA3     0.090000        1.0080           0
     44001 WT15     929      MECN     H13      HGA3     0.090000        1.0080           0
     44002 WT15     929      MECN     C2       CG1N1    0.360000       12.0110           0
     44003 WT15     929      MECN     N3       NG1T1   -0.460000       14.0070           0
     44004 WT15     930      MECN     C1       CG331   -0.170000       12.0110           0
     44005 WT15     930      MECN     H11      HGA3     0.090000        1.0080           0
     44006 WT15     930      MECN     H12      HGA3     0.090000        1.0080           0
     44007 WT15     930      MECN     H13      HGA3     0.090000        1.0080           0
     44008 WT15     930      MECN     C2       CG1N1    0.360000       12.0110           0
     44009 WT15     930      MECN     N3       NG1T1   -0.460000       14.0070           0
     44010 WT15     931      MECN     C1       CG331   -0.170000       12.0110           0
     44011 WT15     931      MECN     H11      HGA3     0.090000        1.0080           0
     44012 WT15     931      MECN     H12      HGA3     0.090000        1.0080           0
     44013 WT15     931      MECN     H13      HGA3     0.090000        1.0080           0
     44014 WT15     931      MECN     C2       CG1N1    0.360000       12.0110           0
     44015 WT15     931      MECN     N3       NG1T1   -0.460000       14.0070           0
     44016 WT15     932      MECN     C1       CG331   -0.170000       12.0110           0
     44017 WT15     932      MECN     H11      HGA3     0.090000        1.0080           0
     44018 WT15     932      MECN     H12      HGA3     0.090000        1.0080           0
     44019 WT15     932      MECN     H13      HGA3     0.090000        1.0080           0
     44020 WT15     932      MECN     C2       CG1N1    0.360000       12.0110           0
     44021 WT15     932      MECN     N3       NG1T1   -0.460000       14.0070           0
     44022 WT15     934      MECN     C1       CG331   -0.170000       12.0110           0
     44023 WT15     934      MECN     H11      HGA3     0.090000        1.0080           0
     44024 WT15     934      MECN     H12      HGA3     0.090000        1.0080           0
     44025 WT15     934      MECN     H13      HGA3     0.090000        1.0080           0
     44026 WT15     934      MECN     C2       CG1N1    0.360000       12.0110           0
     44027 WT15     934      MECN     N3       NG1T1   -0.460000       14.0070           0
     44028 WT15     936      MECN     C1       CG331   -0.170000       12.0110           0
     44029 WT15     936      MECN     H11      HGA3     0.090000        1.0080           0
     44030 WT15     936      MECN     H12      HGA3     0.090000        1.0080           0
     44031 WT15     936      MECN     H13      HGA3     0.090000        1.0080           0
     44032 WT15     936      MECN     C2       CG1N1    0.360000       12.0110           0
     44033 WT15     936      MECN     N3       NG1T1   -0.460000       14.0070           0
     44034 WT15     937      MECN     C1       CG331   -0.170000       12.0110           0
     44035 WT15     937      MECN     H11      HGA3     0.090000        1.0080           0
     44036 WT15     937      MECN     H12      HGA3     0.090000        1.0080           0
     44037 WT15     937      MECN     H13      HGA3     0.090000        1.0080           0
     44038 WT15     937      MECN     C2       CG1N1    0.360000       12.0110           0
     44039 WT15     937      MECN     N3       NG1T1   -0.460000       14.0070           0
     44040 WT15     938      MECN     C1       CG331   -0.170000       12.0110           0
     44041 WT15     938      MECN     H11      HGA3     0.090000        1.0080           0
     44042 WT15     938      MECN     H12      HGA3     0.090000        1.0080           0
     44043 WT15     938      MECN     H13      HGA3     0.090000        1.0080           0
     44044 WT15     938      MECN     C2       CG1N1    0.360000       12.0110           0
     44045 WT15     938      MECN     N3       NG1T1   -0.460000       14.0070           0
     44046 WT15     940      MECN     C1       CG331   -0.170000       12.0110           0
     44047 WT15     940      MECN     H11      HGA3     0.090000        1.0080           0
     44048 WT15     940      MECN     H12      HGA3     0.090000        1.0080           0
     44049 WT15     940      MECN     H13      HGA3     0.090000        1.0080           0
     44050 WT15     940      MECN     C2       CG1N1    0.360000       12.0110           0
     44051 WT15     940      MECN     N3       NG1T1   -0.460000       14.0070           0
     44052 WT15     942      MECN     C1       CG331   -0.170000       12.0110           0
     44053 WT15     942      MECN     H11      HGA3     0.090000        1.0080           0
     44054 WT15     942      MECN     H12      HGA3     0.090000        1.0080           0
     44055 WT15     942      MECN     H13      HGA3     0.090000        1.0080           0
     44056 WT15     942      MECN     C2       CG1N1    0.360000       12.0110           0
     44057 WT15     942      MECN     N3       NG1T1   -0.460000       14.0070           0
     44058 WT15     943      MECN     C1       CG331   -0.170000       12.0110           0
     44059 WT15     943      MECN     H11      HGA3     0.090000        1.0080           0
     44060 WT15     943      MECN     H12      HGA3     0.090000        1.0080           0
     44061 WT15     943      MECN     H13      HGA3     0.090000        1.0080           0
     44062 WT15     943      MECN     C2       CG1N1    0.360000       12.0110           0
     44063 WT15     943      MECN     N3       NG1T1   -0.460000       14.0070           0
     44064 WT15     944      MECN     C1       CG331   -0.170000       12.0110           0
     44065 WT15     944      MECN     H11      HGA3     0.090000        1.0080           0
     44066 WT15     944      MECN     H12      HGA3     0.090000        1.0080           0
     44067 WT15     944      MECN     H13      HGA3     0.090000        1.0080           0
     44068 WT15     944      MECN     C2       CG1N1    0.360000       12.0110           0
     44069 WT15     944      MECN     N3       NG1T1   -0.460000       14.0070           0
     44070 WT15     945      MECN     C1       CG331   -0.170000       12.0110           0
     44071 WT15     945      MECN     H11      HGA3     0.090000        1.0080           0
     44072 WT15     945      MECN     H12      HGA3     0.090000        1.0080           0
     44073 WT15     945      MECN     H13      HGA3     0.090000        1.0080           0
     44074 WT15     945      MECN     C2       CG1N1    0.360000       12.0110           0
     44075 WT15     945      MECN     N3       NG1T1   -0.460000       14.0070           0
     44076 WT15     946      MECN     C1       CG331   -0.170000       12.0110           0
     44077 WT15     946      MECN     H11      HGA3     0.090000        1.0080           0
     44078 WT15     946      MECN     H12      HGA3     0.090000        1.0080           0
     44079 WT15     946      MECN     H13      HGA3     0.090000        1.0080           0
     44080 WT15     946      MECN     C2       CG1N1    0.360000       12.0110           0
     44081 WT15     946      MECN     N3       NG1T1   -0.460000       14.0070           0
     44082 WT15     947      MECN     C1       CG331   -0.170000       12.0110           0
     44083 WT15     947      MECN     H11      HGA3     0.090000        1.0080           0
     44084 WT15     947      MECN     H12      HGA3     0.090000        1.0080           0
     44085 WT15     947      MECN     H13      HGA3     0.090000        1.0080           0
     44086 WT15     947      MECN     C2       CG1N1    0.360000       12.0110           0
     44087 WT15     947      MECN     N3       NG1T1   -0.460000       14.0070           0
     44088 WT15     948      MECN     C1       CG331   -0.170000       12.0110           0
     44089 WT15     948      MECN     H11      HGA3     0.090000        1.0080           0
     44090 WT15     948      MECN     H12      HGA3     0.090000        1.0080           0
     44091 WT15     948      MECN     H13      HGA3     0.090000        1.0080           0
     44092 WT15     948      MECN     C2       CG1N1    0.360000       12.0110           0
     44093 WT15     948      MECN     N3       NG1T1   -0.460000       14.0070           0
     44094 WT15     949      MECN     C1       CG331   -0.170000       12.0110           0
     44095 WT15     949      MECN     H11      HGA3     0.090000        1.0080           0
     44096 WT15     949      MECN     H12      HGA3     0.090000        1.0080           0
     44097 WT15     949      MECN     H13      HGA3     0.090000        1.0080           0
     44098 WT15     949      MECN     C2       CG1N1    0.360000       12.0110           0
     44099 WT15     949      MECN     N3       NG1T1   -0.460000       14.0070           0
     44100 WT15     950      MECN     C1       CG331   -0.170000       12.0110           0
     44101 WT15     950      MECN     H11      HGA3     0.090000        1.0080           0
     44102 WT15     950      MECN     H12      HGA3     0.090000        1.0080           0
     44103 WT15     950      MECN     H13      HGA3     0.090000        1.0080           0
     44104 WT15     950      MECN     C2       CG1N1    0.360000       12.0110           0
     44105 WT15     950      MECN     N3       NG1T1   -0.460000       14.0070           0
     44106 WT15     952      MECN     C1       CG331   -0.170000       12.0110           0
     44107 WT15     952      MECN     H11      HGA3     0.090000        1.0080           0
     44108 WT15     952      MECN     H12      HGA3     0.090000        1.0080           0
     44109 WT15     952      MECN     H13      HGA3     0.090000        1.0080           0
     44110 WT15     952      MECN     C2       CG1N1    0.360000       12.0110           0
     44111 WT15     952      MECN     N3       NG1T1   -0.460000       14.0070           0
     44112 WT15     953      MECN     C1       CG331   -0.170000       12.0110           0
     44113 WT15     953      MECN     H11      HGA3     0.090000        1.0080           0
     44114 WT15     953      MECN     H12      HGA3     0.090000        1.0080           0
     44115 WT15     953      MECN     H13      HGA3     0.090000        1.0080           0
     44116 WT15     953      MECN     C2       CG1N1    0.360000       12.0110           0
     44117 WT15     953      MECN     N3       NG1T1   -0.460000       14.0070           0
     44118 WT15     954      MECN     C1       CG331   -0.170000       12.0110           0
     44119 WT15     954      MECN     H11      HGA3     0.090000        1.0080           0
     44120 WT15     954      MECN     H12      HGA3     0.090000        1.0080           0
     44121 WT15     954      MECN     H13      HGA3     0.090000        1.0080           0
     44122 WT15     954      MECN     C2       CG1N1    0.360000       12.0110           0
     44123 WT15     954      MECN     N3       NG1T1   -0.460000       14.0070           0
     44124 WT15     955      MECN     C1       CG331   -0.170000       12.0110           0
     44125 WT15     955      MECN     H11      HGA3     0.090000        1.0080           0
     44126 WT15     955      MECN     H12      HGA3     0.090000        1.0080           0
     44127 WT15     955      MECN     H13      HGA3     0.090000        1.0080           0
     44128 WT15     955      MECN     C2       CG1N1    0.360000       12.0110           0
     44129 WT15     955      MECN     N3       NG1T1   -0.460000       14.0070           0
     44130 WT15     957      MECN     C1       CG331   -0.170000       12.0110           0
     44131 WT15     957      MECN     H11      HGA3     0.090000        1.0080           0
     44132 WT15     957      MECN     H12      HGA3     0.090000        1.0080           0
     44133 WT15     957      MECN     H13      HGA3     0.090000        1.0080           0
     44134 WT15     957      MECN     C2       CG1N1    0.360000       12.0110           0
     44135 WT15     957      MECN     N3       NG1T1   -0.460000       14.0070           0
     44136 WT15     958      MECN     C1       CG331   -0.170000       12.0110           0
     44137 WT15     958      MECN     H11      HGA3     0.090000        1.0080           0
     44138 WT15     958      MECN     H12      HGA3     0.090000        1.0080           0
     44139 WT15     958      MECN     H13      HGA3     0.090000        1.0080           0
     44140 WT15     958      MECN     C2       CG1N1    0.360000       12.0110           0
     44141 WT15     958      MECN     N3       NG1T1   -0.460000       14.0070           0
     44142 WT15     959      MECN     C1       CG331   -0.170000       12.0110           0
     44143 WT15     959      MECN     H11      HGA3     0.090000        1.0080           0
     44144 WT15     959      MECN     H12      HGA3     0.090000        1.0080           0
     44145 WT15     959      MECN     H13      HGA3     0.090000        1.0080           0
     44146 WT15     959      MECN     C2       CG1N1    0.360000       12.0110           0
     44147 WT15     959      MECN     N3       NG1T1   -0.460000       14.0070           0
     44148 WT15     960      MECN     C1       CG331   -0.170000       12.0110           0
     44149 WT15     960      MECN     H11      HGA3     0.090000        1.0080           0
     44150 WT15     960      MECN     H12      HGA3     0.090000        1.0080           0
     44151 WT15     960      MECN     H13      HGA3     0.090000        1.0080           0
     44152 WT15     960      MECN     C2       CG1N1    0.360000       12.0110           0
     44153 WT15     960      MECN     N3       NG1T1   -0.460000       14.0070           0
     44154 WT15     962      MECN     C1       CG331   -0.170000       12.0110           0
     44155 WT15     962      MECN     H11      HGA3     0.090000        1.0080           0
     44156 WT15     962      MECN     H12      HGA3     0.090000        1.0080           0
     44157 WT15     962      MECN     H13      HGA3     0.090000        1.0080           0
     44158 WT15     962      MECN     C2       CG1N1    0.360000       12.0110           0
     44159 WT15     962      MECN     N3       NG1T1   -0.460000       14.0070           0
     44160 WT15     963      MECN     C1       CG331   -0.170000       12.0110           0
     44161 WT15     963      MECN     H11      HGA3     0.090000        1.0080           0
     44162 WT15     963      MECN     H12      HGA3     0.090000        1.0080           0
     44163 WT15     963      MECN     H13      HGA3     0.090000        1.0080           0
     44164 WT15     963      MECN     C2       CG1N1    0.360000       12.0110           0
     44165 WT15     963      MECN     N3       NG1T1   -0.460000       14.0070           0
     44166 WT15     964      MECN     C1       CG331   -0.170000       12.0110           0
     44167 WT15     964      MECN     H11      HGA3     0.090000        1.0080           0
     44168 WT15     964      MECN     H12      HGA3     0.090000        1.0080           0
     44169 WT15     964      MECN     H13      HGA3     0.090000        1.0080           0
     44170 WT15     964      MECN     C2       CG1N1    0.360000       12.0110           0
     44171 WT15     964      MECN     N3       NG1T1   -0.460000       14.0070           0
     44172 WT15     965      MECN     C1       CG331   -0.170000       12.0110           0
     44173 WT15     965      MECN     H11      HGA3     0.090000        1.0080           0
     44174 WT15     965      MECN     H12      HGA3     0.090000        1.0080           0
     44175 WT15     965      MECN     H13      HGA3     0.090000        1.0080           0
     44176 WT15     965      MECN     C2       CG1N1    0.360000       12.0110           0
     44177 WT15     965      MECN     N3       NG1T1   -0.460000       14.0070           0
     44178 WT15     966      MECN     C1       CG331   -0.170000       12.0110           0
     44179 WT15     966      MECN     H11      HGA3     0.090000        1.0080           0
     44180 WT15     966      MECN     H12      HGA3     0.090000        1.0080           0
     44181 WT15     966      MECN     H13      HGA3     0.090000        1.0080           0
     44182 WT15     966      MECN     C2       CG1N1    0.360000       12.0110           0
     44183 WT15     966      MECN     N3       NG1T1   -0.460000       14.0070           0
     44184 WT15     967      MECN     C1       CG331   -0.170000       12.0110           0
     44185 WT15     967      MECN     H11      HGA3     0.090000        1.0080           0
     44186 WT15     967      MECN     H12      HGA3     0.090000        1.0080           0
     44187 WT15     967      MECN     H13      HGA3     0.090000        1.0080           0
     44188 WT15     967      MECN     C2       CG1N1    0.360000       12.0110           0
     44189 WT15     967      MECN     N3       NG1T1   -0.460000       14.0070           0
     44190 WT15     969      MECN     C1       CG331   -0.170000       12.0110           0
     44191 WT15     969      MECN     H11      HGA3     0.090000        1.0080           0
     44192 WT15     969      MECN     H12      HGA3     0.090000        1.0080           0
     44193 WT15     969      MECN     H13      HGA3     0.090000        1.0080           0
     44194 WT15     969      MECN     C2       CG1N1    0.360000       12.0110           0
     44195 WT15     969      MECN     N3       NG1T1   -0.460000       14.0070           0
     44196 WT15     970      MECN     C1       CG331   -0.170000       12.0110           0
     44197 WT15     970      MECN     H11      HGA3     0.090000        1.0080           0
     44198 WT15     970      MECN     H12      HGA3     0.090000        1.0080           0
     44199 WT15     970      MECN     H13      HGA3     0.090000        1.0080           0
     44200 WT15     970      MECN     C2       CG1N1    0.360000       12.0110           0
     44201 WT15     970      MECN     N3       NG1T1   -0.460000       14.0070           0
     44202 WT15     971      MECN     C1       CG331   -0.170000       12.0110           0
     44203 WT15     971      MECN     H11      HGA3     0.090000        1.0080           0
     44204 WT15     971      MECN     H12      HGA3     0.090000        1.0080           0
     44205 WT15     971      MECN     H13      HGA3     0.090000        1.0080           0
     44206 WT15     971      MECN     C2       CG1N1    0.360000       12.0110           0
     44207 WT15     971      MECN     N3       NG1T1   -0.460000       14.0070           0
     44208 WT15     972      MECN     C1       CG331   -0.170000       12.0110           0
     44209 WT15     972      MECN     H11      HGA3     0.090000        1.0080           0
     44210 WT15     972      MECN     H12      HGA3     0.090000        1.0080           0
     44211 WT15     972      MECN     H13      HGA3     0.090000        1.0080           0
     44212 WT15     972      MECN     C2       CG1N1    0.360000       12.0110           0
     44213 WT15     972      MECN     N3       NG1T1   -0.460000       14.0070           0
     44214 WT15     973      MECN     C1       CG331   -0.170000       12.0110           0
     44215 WT15     973      MECN     H11      HGA3     0.090000        1.0080           0
     44216 WT15     973      MECN     H12      HGA3     0.090000        1.0080           0
     44217 WT15     973      MECN     H13      HGA3     0.090000        1.0080           0
     44218 WT15     973      MECN     C2       CG1N1    0.360000       12.0110           0
     44219 WT15     973      MECN     N3       NG1T1   -0.460000       14.0070           0
     44220 WT15     974      MECN     C1       CG331   -0.170000       12.0110           0
     44221 WT15     974      MECN     H11      HGA3     0.090000        1.0080           0
     44222 WT15     974      MECN     H12      HGA3     0.090000        1.0080           0
     44223 WT15     974      MECN     H13      HGA3     0.090000        1.0080           0
     44224 WT15     974      MECN     C2       CG1N1    0.360000       12.0110           0
     44225 WT15     974      MECN     N3       NG1T1   -0.460000       14.0070           0
     44226 WT15     975      MECN     C1       CG331   -0.170000       12.0110           0
     44227 WT15     975      MECN     H11      HGA3     0.090000        1.0080           0
     44228 WT15     975      MECN     H12      HGA3     0.090000        1.0080           0
     44229 WT15     975      MECN     H13      HGA3     0.090000        1.0080           0
     44230 WT15     975      MECN     C2       CG1N1    0.360000       12.0110           0
     44231 WT15     975      MECN     N3       NG1T1   -0.460000       14.0070           0
     44232 WT15     976      MECN     C1       CG331   -0.170000       12.0110           0
     44233 WT15     976      MECN     H11      HGA3     0.090000        1.0080           0
     44234 WT15     976      MECN     H12      HGA3     0.090000        1.0080           0
     44235 WT15     976      MECN     H13      HGA3     0.090000        1.0080           0
     44236 WT15     976      MECN     C2       CG1N1    0.360000       12.0110           0
     44237 WT15     976      MECN     N3       NG1T1   -0.460000       14.0070           0
     44238 WT15     979      MECN     C1       CG331   -0.170000       12.0110           0
     44239 WT15     979      MECN     H11      HGA3     0.090000        1.0080           0
     44240 WT15     979      MECN     H12      HGA3     0.090000        1.0080           0
     44241 WT15     979      MECN     H13      HGA3     0.090000        1.0080           0
     44242 WT15     979      MECN     C2       CG1N1    0.360000       12.0110           0
     44243 WT15     979      MECN     N3       NG1T1   -0.460000       14.0070           0
     44244 WT15     980      MECN     C1       CG331   -0.170000       12.0110           0
     44245 WT15     980      MECN     H11      HGA3     0.090000        1.0080           0
     44246 WT15     980      MECN     H12      HGA3     0.090000        1.0080           0
     44247 WT15     980      MECN     H13      HGA3     0.090000        1.0080           0
     44248 WT15     980      MECN     C2       CG1N1    0.360000       12.0110           0
     44249 WT15     980      MECN     N3       NG1T1   -0.460000       14.0070           0
     44250 WT15     981      MECN     C1       CG331   -0.170000       12.0110           0
     44251 WT15     981      MECN     H11      HGA3     0.090000        1.0080           0
     44252 WT15     981      MECN     H12      HGA3     0.090000        1.0080           0
     44253 WT15     981      MECN     H13      HGA3     0.090000        1.0080           0
     44254 WT15     981      MECN     C2       CG1N1    0.360000       12.0110           0
     44255 WT15     981      MECN     N3       NG1T1   -0.460000       14.0070           0
     44256 WT15     984      MECN     C1       CG331   -0.170000       12.0110           0
     44257 WT15     984      MECN     H11      HGA3     0.090000        1.0080           0
     44258 WT15     984      MECN     H12      HGA3     0.090000        1.0080           0
     44259 WT15     984      MECN     H13      HGA3     0.090000        1.0080           0
     44260 WT15     984      MECN     C2       CG1N1    0.360000       12.0110           0
     44261 WT15     984      MECN     N3       NG1T1   -0.460000       14.0070           0
     44262 WT15     988      MECN     C1       CG331   -0.170000       12.0110           0
     44263 WT15     988      MECN     H11      HGA3     0.090000        1.0080           0
     44264 WT15     988      MECN     H12      HGA3     0.090000        1.0080           0
     44265 WT15     988      MECN     H13      HGA3     0.090000        1.0080           0
     44266 WT15     988      MECN     C2       CG1N1    0.360000       12.0110           0
     44267 WT15     988      MECN     N3       NG1T1   -0.460000       14.0070           0
     44268 WT15     993      MECN     C1       CG331   -0.170000       12.0110           0
     44269 WT15     993      MECN     H11      HGA3     0.090000        1.0080           0
     44270 WT15     993      MECN     H12      HGA3     0.090000        1.0080           0
     44271 WT15     993      MECN     H13      HGA3     0.090000        1.0080           0
     44272 WT15     993      MECN     C2       CG1N1    0.360000       12.0110           0
     44273 WT15     993      MECN     N3       NG1T1   -0.460000       14.0070           0
     44274 WT15     995      MECN     C1       CG331   -0.170000       12.0110           0
     44275 WT15     995      MECN     H11      HGA3     0.090000        1.0080           0
     44276 WT15     995      MECN     H12      HGA3     0.090000        1.0080           0
     44277 WT15     995      MECN     H13      HGA3     0.090000        1.0080           0
     44278 WT15     995      MECN     C2       CG1N1    0.360000       12.0110           0
     44279 WT15     995      MECN     N3       NG1T1   -0.460000       14.0070           0
     44280 WT15     996      MECN     C1       CG331   -0.170000       12.0110           0
     44281 WT15     996      MECN     H11      HGA3     0.090000        1.0080           0
     44282 WT15     996      MECN     H12      HGA3     0.090000        1.0080           0
     44283 WT15     996      MECN     H13      HGA3     0.090000        1.0080           0
     44284 WT15     996      MECN     C2       CG1N1    0.360000       12.0110           0
     44285 WT15     996      MECN     N3       NG1T1   -0.460000       14.0070           0
     44286 WT15     997      MECN     C1       CG331   -0.170000       12.0110           0
     44287 WT15     997      MECN     H11      HGA3     0.090000        1.0080           0
     44288 WT15     997      MECN     H12      HGA3     0.090000        1.0080           0
     44289 WT15     997      MECN     H13      HGA3     0.090000        1.0080           0
     44290 WT15     997      MECN     C2       CG1N1    0.360000       12.0110           0
     44291 WT15     997      MECN     N3       NG1T1   -0.460000       14.0070           0
     44292 WT15     998      MECN     C1       CG331   -0.170000       12.0110           0
     44293 WT15     998      MECN     H11      HGA3     0.090000        1.0080           0
     44294 WT15     998      MECN     H12      HGA3     0.090000        1.0080           0
     44295 WT15     998      MECN     H13      HGA3     0.090000        1.0080           0
     44296 WT15     998      MECN     C2       CG1N1    0.360000       12.0110           0
     44297 WT15     998      MECN     N3       NG1T1   -0.460000       14.0070           0
     44298 WT15     999      MECN     C1       CG331   -0.170000       12.0110           0
     44299 WT15     999      MECN     H11      HGA3     0.090000        1.0080           0
     44300 WT15     999      MECN     H12      HGA3     0.090000        1.0080           0
     44301 WT15     999      MECN     H13      HGA3     0.090000        1.0080           0
     44302 WT15     999      MECN     C2       CG1N1    0.360000       12.0110           0
     44303 WT15     999      MECN     N3       NG1T1   -0.460000       14.0070           0
     44304 WT15     1000     MECN     C1       CG331   -0.170000       12.0110           0
     44305 WT15     1000     MECN     H11      HGA3     0.090000        1.0080           0
     44306 WT15     1000     MECN     H12      HGA3     0.090000        1.0080           0
     44307 WT15     1000     MECN     H13      HGA3     0.090000        1.0080           0
     44308 WT15     1000     MECN     C2       CG1N1    0.360000       12.0110           0
     44309 WT15     1000     MECN     N3       NG1T1   -0.460000       14.0070           0
     44310 WT15     1001     MECN     C1       CG331   -0.170000       12.0110           0
     44311 WT15     1001     MECN     H11      HGA3     0.090000        1.0080           0
     44312 WT15     1001     MECN     H12      HGA3     0.090000        1.0080           0
     44313 WT15     1001     MECN     H13      HGA3     0.090000        1.0080           0
     44314 WT15     1001     MECN     C2       CG1N1    0.360000       12.0110           0
     44315 WT15     1001     MECN     N3       NG1T1   -0.460000       14.0070           0
     44316 WT15     1002     MECN     C1       CG331   -0.170000       12.0110           0
     44317 WT15     1002     MECN     H11      HGA3     0.090000        1.0080           0
     44318 WT15     1002     MECN     H12      HGA3     0.090000        1.0080           0
     44319 WT15     1002     MECN     H13      HGA3     0.090000        1.0080           0
     44320 WT15     1002     MECN     C2       CG1N1    0.360000       12.0110           0
     44321 WT15     1002     MECN     N3       NG1T1   -0.460000       14.0070           0
     44322 WT15     1003     MECN     C1       CG331   -0.170000       12.0110           0
     44323 WT15     1003     MECN     H11      HGA3     0.090000        1.0080           0
     44324 WT15     1003     MECN     H12      HGA3     0.090000        1.0080           0
     44325 WT15     1003     MECN     H13      HGA3     0.090000        1.0080           0
     44326 WT15     1003     MECN     C2       CG1N1    0.360000       12.0110           0
     44327 WT15     1003     MECN     N3       NG1T1   -0.460000       14.0070           0
     44328 WT15     1004     MECN     C1       CG331   -0.170000       12.0110           0
     44329 WT15     1004     MECN     H11      HGA3     0.090000        1.0080           0
     44330 WT15     1004     MECN     H12      HGA3     0.090000        1.0080           0
     44331 WT15     1004     MECN     H13      HGA3     0.090000        1.0080           0
     44332 WT15     1004     MECN     C2       CG1N1    0.360000       12.0110           0
     44333 WT15     1004     MECN     N3       NG1T1   -0.460000       14.0070           0
     44334 WT15     1005     MECN     C1       CG331   -0.170000       12.0110           0
     44335 WT15     1005     MECN     H11      HGA3     0.090000        1.0080           0
     44336 WT15     1005     MECN     H12      HGA3     0.090000        1.0080           0
     44337 WT15     1005     MECN     H13      HGA3     0.090000        1.0080           0
     44338 WT15     1005     MECN     C2       CG1N1    0.360000       12.0110           0
     44339 WT15     1005     MECN     N3       NG1T1   -0.460000       14.0070           0
     44340 WT15     1006     MECN     C1       CG331   -0.170000       12.0110           0
     44341 WT15     1006     MECN     H11      HGA3     0.090000        1.0080           0
     44342 WT15     1006     MECN     H12      HGA3     0.090000        1.0080           0
     44343 WT15     1006     MECN     H13      HGA3     0.090000        1.0080           0
     44344 WT15     1006     MECN     C2       CG1N1    0.360000       12.0110           0
     44345 WT15     1006     MECN     N3       NG1T1   -0.460000       14.0070           0
     44346 WT15     1007     MECN     C1       CG331   -0.170000       12.0110           0
     44347 WT15     1007     MECN     H11      HGA3     0.090000        1.0080           0
     44348 WT15     1007     MECN     H12      HGA3     0.090000        1.0080           0
     44349 WT15     1007     MECN     H13      HGA3     0.090000        1.0080           0
     44350 WT15     1007     MECN     C2       CG1N1    0.360000       12.0110           0
     44351 WT15     1007     MECN     N3       NG1T1   -0.460000       14.0070           0
     44352 WT15     1011     MECN     C1       CG331   -0.170000       12.0110           0
     44353 WT15     1011     MECN     H11      HGA3     0.090000        1.0080           0
     44354 WT15     1011     MECN     H12      HGA3     0.090000        1.0080           0
     44355 WT15     1011     MECN     H13      HGA3     0.090000        1.0080           0
     44356 WT15     1011     MECN     C2       CG1N1    0.360000       12.0110           0
     44357 WT15     1011     MECN     N3       NG1T1   -0.460000       14.0070           0
     44358 WT15     1013     MECN     C1       CG331   -0.170000       12.0110           0
     44359 WT15     1013     MECN     H11      HGA3     0.090000        1.0080           0
     44360 WT15     1013     MECN     H12      HGA3     0.090000        1.0080           0
     44361 WT15     1013     MECN     H13      HGA3     0.090000        1.0080           0
     44362 WT15     1013     MECN     C2       CG1N1    0.360000       12.0110           0
     44363 WT15     1013     MECN     N3       NG1T1   -0.460000       14.0070           0
     44364 WT15     1014     MECN     C1       CG331   -0.170000       12.0110           0
     44365 WT15     1014     MECN     H11      HGA3     0.090000        1.0080           0
     44366 WT15     1014     MECN     H12      HGA3     0.090000        1.0080           0
     44367 WT15     1014     MECN     H13      HGA3     0.090000        1.0080           0
     44368 WT15     1014     MECN     C2       CG1N1    0.360000       12.0110           0
     44369 WT15     1014     MECN     N3       NG1T1   -0.460000       14.0070           0
     44370 WT15     1015     MECN     C1       CG331   -0.170000       12.0110           0
     44371 WT15     1015     MECN     H11      HGA3     0.090000        1.0080           0
     44372 WT15     1015     MECN     H12      HGA3     0.090000        1.0080           0
     44373 WT15     1015     MECN     H13      HGA3     0.090000        1.0080           0
     44374 WT15     1015     MECN     C2       CG1N1    0.360000       12.0110           0
     44375 WT15     1015     MECN     N3       NG1T1   -0.460000       14.0070           0
     44376 WT15     1016     MECN     C1       CG331   -0.170000       12.0110           0
     44377 WT15     1016     MECN     H11      HGA3     0.090000        1.0080           0
     44378 WT15     1016     MECN     H12      HGA3     0.090000        1.0080           0
     44379 WT15     1016     MECN     H13      HGA3     0.090000        1.0080           0
     44380 WT15     1016     MECN     C2       CG1N1    0.360000       12.0110           0
     44381 WT15     1016     MECN     N3       NG1T1   -0.460000       14.0070           0
     44382 WT15     1017     MECN     C1       CG331   -0.170000       12.0110           0
     44383 WT15     1017     MECN     H11      HGA3     0.090000        1.0080           0
     44384 WT15     1017     MECN     H12      HGA3     0.090000        1.0080           0
     44385 WT15     1017     MECN     H13      HGA3     0.090000        1.0080           0
     44386 WT15     1017     MECN     C2       CG1N1    0.360000       12.0110           0
     44387 WT15     1017     MECN     N3       NG1T1   -0.460000       14.0070           0
     44388 WT15     1018     MECN     C1       CG331   -0.170000       12.0110           0
     44389 WT15     1018     MECN     H11      HGA3     0.090000        1.0080           0
     44390 WT15     1018     MECN     H12      HGA3     0.090000        1.0080           0
     44391 WT15     1018     MECN     H13      HGA3     0.090000        1.0080           0
     44392 WT15     1018     MECN     C2       CG1N1    0.360000       12.0110           0
     44393 WT15     1018     MECN     N3       NG1T1   -0.460000       14.0070           0
     44394 WT15     1022     MECN     C1       CG331   -0.170000       12.0110           0
     44395 WT15     1022     MECN     H11      HGA3     0.090000        1.0080           0
     44396 WT15     1022     MECN     H12      HGA3     0.090000        1.0080           0
     44397 WT15     1022     MECN     H13      HGA3     0.090000        1.0080           0
     44398 WT15     1022     MECN     C2       CG1N1    0.360000       12.0110           0
     44399 WT15     1022     MECN     N3       NG1T1   -0.460000       14.0070           0
     44400 WT15     1024     MECN     C1       CG331   -0.170000       12.0110           0
     44401 WT15     1024     MECN     H11      HGA3     0.090000        1.0080           0
     44402 WT15     1024     MECN     H12      HGA3     0.090000        1.0080           0
     44403 WT15     1024     MECN     H13      HGA3     0.090000        1.0080           0
     44404 WT15     1024     MECN     C2       CG1N1    0.360000       12.0110           0
     44405 WT15     1024     MECN     N3       NG1T1   -0.460000       14.0070           0
     44406 WT15     1025     MECN     C1       CG331   -0.170000       12.0110           0
     44407 WT15     1025     MECN     H11      HGA3     0.090000        1.0080           0
     44408 WT15     1025     MECN     H12      HGA3     0.090000        1.0080           0
     44409 WT15     1025     MECN     H13      HGA3     0.090000        1.0080           0
     44410 WT15     1025     MECN     C2       CG1N1    0.360000       12.0110           0
     44411 WT15     1025     MECN     N3       NG1T1   -0.460000       14.0070           0
     44412 WT15     1026     MECN     C1       CG331   -0.170000       12.0110           0
     44413 WT15     1026     MECN     H11      HGA3     0.090000        1.0080           0
     44414 WT15     1026     MECN     H12      HGA3     0.090000        1.0080           0
     44415 WT15     1026     MECN     H13      HGA3     0.090000        1.0080           0
     44416 WT15     1026     MECN     C2       CG1N1    0.360000       12.0110           0
     44417 WT15     1026     MECN     N3       NG1T1   -0.460000       14.0070           0
     44418 WT15     1027     MECN     C1       CG331   -0.170000       12.0110           0
     44419 WT15     1027     MECN     H11      HGA3     0.090000        1.0080           0
     44420 WT15     1027     MECN     H12      HGA3     0.090000        1.0080           0
     44421 WT15     1027     MECN     H13      HGA3     0.090000        1.0080           0
     44422 WT15     1027     MECN     C2       CG1N1    0.360000       12.0110           0
     44423 WT15     1027     MECN     N3       NG1T1   -0.460000       14.0070           0
     44424 WT15     1028     MECN     C1       CG331   -0.170000       12.0110           0
     44425 WT15     1028     MECN     H11      HGA3     0.090000        1.0080           0
     44426 WT15     1028     MECN     H12      HGA3     0.090000        1.0080           0
     44427 WT15     1028     MECN     H13      HGA3     0.090000        1.0080           0
     44428 WT15     1028     MECN     C2       CG1N1    0.360000       12.0110           0
     44429 WT15     1028     MECN     N3       NG1T1   -0.460000       14.0070           0
     44430 WT15     1031     MECN     C1       CG331   -0.170000       12.0110           0
     44431 WT15     1031     MECN     H11      HGA3     0.090000        1.0080           0
     44432 WT15     1031     MECN     H12      HGA3     0.090000        1.0080           0
     44433 WT15     1031     MECN     H13      HGA3     0.090000        1.0080           0
     44434 WT15     1031     MECN     C2       CG1N1    0.360000       12.0110           0
     44435 WT15     1031     MECN     N3       NG1T1   -0.460000       14.0070           0
     44436 WT15     1032     MECN     C1       CG331   -0.170000       12.0110           0
     44437 WT15     1032     MECN     H11      HGA3     0.090000        1.0080           0
     44438 WT15     1032     MECN     H12      HGA3     0.090000        1.0080           0
     44439 WT15     1032     MECN     H13      HGA3     0.090000        1.0080           0
     44440 WT15     1032     MECN     C2       CG1N1    0.360000       12.0110           0
     44441 WT15     1032     MECN     N3       NG1T1   -0.460000       14.0070           0
     44442 WT15     1035     MECN     C1       CG331   -0.170000       12.0110           0
     44443 WT15     1035     MECN     H11      HGA3     0.090000        1.0080           0
     44444 WT15     1035     MECN     H12      HGA3     0.090000        1.0080           0
     44445 WT15     1035     MECN     H13      HGA3     0.090000        1.0080           0
     44446 WT15     1035     MECN     C2       CG1N1    0.360000       12.0110           0
     44447 WT15     1035     MECN     N3       NG1T1   -0.460000       14.0070           0
     44448 WT15     1036     MECN     C1       CG331   -0.170000       12.0110           0
     44449 WT15     1036     MECN     H11      HGA3     0.090000        1.0080           0
     44450 WT15     1036     MECN     H12      HGA3     0.090000        1.0080           0
     44451 WT15     1036     MECN     H13      HGA3     0.090000        1.0080           0
     44452 WT15     1036     MECN     C2       CG1N1    0.360000       12.0110           0
     44453 WT15     1036     MECN     N3       NG1T1   -0.460000       14.0070           0
     44454 WT15     1037     MECN     C1       CG331   -0.170000       12.0110           0
     44455 WT15     1037     MECN     H11      HGA3     0.090000        1.0080           0
     44456 WT15     1037     MECN     H12      HGA3     0.090000        1.0080           0
     44457 WT15     1037     MECN     H13      HGA3     0.090000        1.0080           0
     44458 WT15     1037     MECN     C2       CG1N1    0.360000       12.0110           0
     44459 WT15     1037     MECN     N3       NG1T1   -0.460000       14.0070           0
     44460 WT15     1038     MECN     C1       CG331   -0.170000       12.0110           0
     44461 WT15     1038     MECN     H11      HGA3     0.090000        1.0080           0
     44462 WT15     1038     MECN     H12      HGA3     0.090000        1.0080           0
     44463 WT15     1038     MECN     H13      HGA3     0.090000        1.0080           0
     44464 WT15     1038     MECN     C2       CG1N1    0.360000       12.0110           0
     44465 WT15     1038     MECN     N3       NG1T1   -0.460000       14.0070           0
     44466 WT15     1041     MECN     C1       CG331   -0.170000       12.0110           0
     44467 WT15     1041     MECN     H11      HGA3     0.090000        1.0080           0
     44468 WT15     1041     MECN     H12      HGA3     0.090000        1.0080           0
     44469 WT15     1041     MECN     H13      HGA3     0.090000        1.0080           0
     44470 WT15     1041     MECN     C2       CG1N1    0.360000       12.0110           0
     44471 WT15     1041     MECN     N3       NG1T1   -0.460000       14.0070           0
     44472 WT15     1042     MECN     C1       CG331   -0.170000       12.0110           0
     44473 WT15     1042     MECN     H11      HGA3     0.090000        1.0080           0
     44474 WT15     1042     MECN     H12      HGA3     0.090000        1.0080           0
     44475 WT15     1042     MECN     H13      HGA3     0.090000        1.0080           0
     44476 WT15     1042     MECN     C2       CG1N1    0.360000       12.0110           0
     44477 WT15     1042     MECN     N3       NG1T1   -0.460000       14.0070           0
     44478 WT15     1044     MECN     C1       CG331   -0.170000       12.0110           0
     44479 WT15     1044     MECN     H11      HGA3     0.090000        1.0080           0
     44480 WT15     1044     MECN     H12      HGA3     0.090000        1.0080           0
     44481 WT15     1044     MECN     H13      HGA3     0.090000        1.0080           0
     44482 WT15     1044     MECN     C2       CG1N1    0.360000       12.0110           0
     44483 WT15     1044     MECN     N3       NG1T1   -0.460000       14.0070           0
     44484 WT15     1045     MECN     C1       CG331   -0.170000       12.0110           0
     44485 WT15     1045     MECN     H11      HGA3     0.090000        1.0080           0
     44486 WT15     1045     MECN     H12      HGA3     0.090000        1.0080           0
     44487 WT15     1045     MECN     H13      HGA3     0.090000        1.0080           0
     44488 WT15     1045     MECN     C2       CG1N1    0.360000       12.0110           0
     44489 WT15     1045     MECN     N3       NG1T1   -0.460000       14.0070           0
     44490 WT15     1046     MECN     C1       CG331   -0.170000       12.0110           0
     44491 WT15     1046     MECN     H11      HGA3     0.090000        1.0080           0
     44492 WT15     1046     MECN     H12      HGA3     0.090000        1.0080           0
     44493 WT15     1046     MECN     H13      HGA3     0.090000        1.0080           0
     44494 WT15     1046     MECN     C2       CG1N1    0.360000       12.0110           0
     44495 WT15     1046     MECN     N3       NG1T1   -0.460000       14.0070           0
     44496 WT15     1047     MECN     C1       CG331   -0.170000       12.0110           0
     44497 WT15     1047     MECN     H11      HGA3     0.090000        1.0080           0
     44498 WT15     1047     MECN     H12      HGA3     0.090000        1.0080           0
     44499 WT15     1047     MECN     H13      HGA3     0.090000        1.0080           0
     44500 WT15     1047     MECN     C2       CG1N1    0.360000       12.0110           0
     44501 WT15     1047     MECN     N3       NG1T1   -0.460000       14.0070           0
     44502 WT15     1049     MECN     C1       CG331   -0.170000       12.0110           0
     44503 WT15     1049     MECN     H11      HGA3     0.090000        1.0080           0
     44504 WT15     1049     MECN     H12      HGA3     0.090000        1.0080           0
     44505 WT15     1049     MECN     H13      HGA3     0.090000        1.0080           0
     44506 WT15     1049     MECN     C2       CG1N1    0.360000       12.0110           0
     44507 WT15     1049     MECN     N3       NG1T1   -0.460000       14.0070           0
     44508 WT15     1054     MECN     C1       CG331   -0.170000       12.0110           0
     44509 WT15     1054     MECN     H11      HGA3     0.090000        1.0080           0
     44510 WT15     1054     MECN     H12      HGA3     0.090000        1.0080           0
     44511 WT15     1054     MECN     H13      HGA3     0.090000        1.0080           0
     44512 WT15     1054     MECN     C2       CG1N1    0.360000       12.0110           0
     44513 WT15     1054     MECN     N3       NG1T1   -0.460000       14.0070           0
     44514 WT15     1056     MECN     C1       CG331   -0.170000       12.0110           0
     44515 WT15     1056     MECN     H11      HGA3     0.090000        1.0080           0
     44516 WT15     1056     MECN     H12      HGA3     0.090000        1.0080           0
     44517 WT15     1056     MECN     H13      HGA3     0.090000        1.0080           0
     44518 WT15     1056     MECN     C2       CG1N1    0.360000       12.0110           0
     44519 WT15     1056     MECN     N3       NG1T1   -0.460000       14.0070           0
     44520 WT15     1059     MECN     C1       CG331   -0.170000       12.0110           0
     44521 WT15     1059     MECN     H11      HGA3     0.090000        1.0080           0
     44522 WT15     1059     MECN     H12      HGA3     0.090000        1.0080           0
     44523 WT15     1059     MECN     H13      HGA3     0.090000        1.0080           0
     44524 WT15     1059     MECN     C2       CG1N1    0.360000       12.0110           0
     44525 WT15     1059     MECN     N3       NG1T1   -0.460000       14.0070           0
     44526 WT15     1060     MECN     C1       CG331   -0.170000       12.0110           0
     44527 WT15     1060     MECN     H11      HGA3     0.090000        1.0080           0
     44528 WT15     1060     MECN     H12      HGA3     0.090000        1.0080           0
     44529 WT15     1060     MECN     H13      HGA3     0.090000        1.0080           0
     44530 WT15     1060     MECN     C2       CG1N1    0.360000       12.0110           0
     44531 WT15     1060     MECN     N3       NG1T1   -0.460000       14.0070           0
     44532 WT15     1061     MECN     C1       CG331   -0.170000       12.0110           0
     44533 WT15     1061     MECN     H11      HGA3     0.090000        1.0080           0
     44534 WT15     1061     MECN     H12      HGA3     0.090000        1.0080           0
     44535 WT15     1061     MECN     H13      HGA3     0.090000        1.0080           0
     44536 WT15     1061     MECN     C2       CG1N1    0.360000       12.0110           0
     44537 WT15     1061     MECN     N3       NG1T1   -0.460000       14.0070           0
     44538 WT15     1064     MECN     C1       CG331   -0.170000       12.0110           0
     44539 WT15     1064     MECN     H11      HGA3     0.090000        1.0080           0
     44540 WT15     1064     MECN     H12      HGA3     0.090000        1.0080           0
     44541 WT15     1064     MECN     H13      HGA3     0.090000        1.0080           0
     44542 WT15     1064     MECN     C2       CG1N1    0.360000       12.0110           0
     44543 WT15     1064     MECN     N3       NG1T1   -0.460000       14.0070           0
     44544 WT15     1065     MECN     C1       CG331   -0.170000       12.0110           0
     44545 WT15     1065     MECN     H11      HGA3     0.090000        1.0080           0
     44546 WT15     1065     MECN     H12      HGA3     0.090000        1.0080           0
     44547 WT15     1065     MECN     H13      HGA3     0.090000        1.0080           0
     44548 WT15     1065     MECN     C2       CG1N1    0.360000       12.0110           0
     44549 WT15     1065     MECN     N3       NG1T1   -0.460000       14.0070           0
     44550 WT15     1066     MECN     C1       CG331   -0.170000       12.0110           0
     44551 WT15     1066     MECN     H11      HGA3     0.090000        1.0080           0
     44552 WT15     1066     MECN     H12      HGA3     0.090000        1.0080           0
     44553 WT15     1066     MECN     H13      HGA3     0.090000        1.0080           0
     44554 WT15     1066     MECN     C2       CG1N1    0.360000       12.0110           0
     44555 WT15     1066     MECN     N3       NG1T1   -0.460000       14.0070           0
     44556 WT15     1067     MECN     C1       CG331   -0.170000       12.0110           0
     44557 WT15     1067     MECN     H11      HGA3     0.090000        1.0080           0
     44558 WT15     1067     MECN     H12      HGA3     0.090000        1.0080           0
     44559 WT15     1067     MECN     H13      HGA3     0.090000        1.0080           0
     44560 WT15     1067     MECN     C2       CG1N1    0.360000       12.0110           0
     44561 WT15     1067     MECN     N3       NG1T1   -0.460000       14.0070           0
     44562 WT15     1068     MECN     C1       CG331   -0.170000       12.0110           0
     44563 WT15     1068     MECN     H11      HGA3     0.090000        1.0080           0
     44564 WT15     1068     MECN     H12      HGA3     0.090000        1.0080           0
     44565 WT15     1068     MECN     H13      HGA3     0.090000        1.0080           0
     44566 WT15     1068     MECN     C2       CG1N1    0.360000       12.0110           0
     44567 WT15     1068     MECN     N3       NG1T1   -0.460000       14.0070           0
     44568 WT15     1069     MECN     C1       CG331   -0.170000       12.0110           0
     44569 WT15     1069     MECN     H11      HGA3     0.090000        1.0080           0
     44570 WT15     1069     MECN     H12      HGA3     0.090000        1.0080           0
     44571 WT15     1069     MECN     H13      HGA3     0.090000        1.0080           0
     44572 WT15     1069     MECN     C2       CG1N1    0.360000       12.0110           0
     44573 WT15     1069     MECN     N3       NG1T1   -0.460000       14.0070           0
     44574 WT15     1070     MECN     C1       CG331   -0.170000       12.0110           0
     44575 WT15     1070     MECN     H11      HGA3     0.090000        1.0080           0
     44576 WT15     1070     MECN     H12      HGA3     0.090000        1.0080           0
     44577 WT15     1070     MECN     H13      HGA3     0.090000        1.0080           0
     44578 WT15     1070     MECN     C2       CG1N1    0.360000       12.0110           0
     44579 WT15     1070     MECN     N3       NG1T1   -0.460000       14.0070           0
     44580 WT15     1073     MECN     C1       CG331   -0.170000       12.0110           0
     44581 WT15     1073     MECN     H11      HGA3     0.090000        1.0080           0
     44582 WT15     1073     MECN     H12      HGA3     0.090000        1.0080           0
     44583 WT15     1073     MECN     H13      HGA3     0.090000        1.0080           0
     44584 WT15     1073     MECN     C2       CG1N1    0.360000       12.0110           0
     44585 WT15     1073     MECN     N3       NG1T1   -0.460000       14.0070           0
     44586 WT15     1074     MECN     C1       CG331   -0.170000       12.0110           0
     44587 WT15     1074     MECN     H11      HGA3     0.090000        1.0080           0
     44588 WT15     1074     MECN     H12      HGA3     0.090000        1.0080           0
     44589 WT15     1074     MECN     H13      HGA3     0.090000        1.0080           0
     44590 WT15     1074     MECN     C2       CG1N1    0.360000       12.0110           0
     44591 WT15     1074     MECN     N3       NG1T1   -0.460000       14.0070           0
     44592 WT15     1076     MECN     C1       CG331   -0.170000       12.0110           0
     44593 WT15     1076     MECN     H11      HGA3     0.090000        1.0080           0
     44594 WT15     1076     MECN     H12      HGA3     0.090000        1.0080           0
     44595 WT15     1076     MECN     H13      HGA3     0.090000        1.0080           0
     44596 WT15     1076     MECN     C2       CG1N1    0.360000       12.0110           0
     44597 WT15     1076     MECN     N3       NG1T1   -0.460000       14.0070           0
     44598 WT15     1077     MECN     C1       CG331   -0.170000       12.0110           0
     44599 WT15     1077     MECN     H11      HGA3     0.090000        1.0080           0
     44600 WT15     1077     MECN     H12      HGA3     0.090000        1.0080           0
     44601 WT15     1077     MECN     H13      HGA3     0.090000        1.0080           0
     44602 WT15     1077     MECN     C2       CG1N1    0.360000       12.0110           0
     44603 WT15     1077     MECN     N3       NG1T1   -0.460000       14.0070           0
     44604 WT15     1078     MECN     C1       CG331   -0.170000       12.0110           0
     44605 WT15     1078     MECN     H11      HGA3     0.090000        1.0080           0
     44606 WT15     1078     MECN     H12      HGA3     0.090000        1.0080           0
     44607 WT15     1078     MECN     H13      HGA3     0.090000        1.0080           0
     44608 WT15     1078     MECN     C2       CG1N1    0.360000       12.0110           0
     44609 WT15     1078     MECN     N3       NG1T1   -0.460000       14.0070           0
     44610 WT15     1079     MECN     C1       CG331   -0.170000       12.0110           0
     44611 WT15     1079     MECN     H11      HGA3     0.090000        1.0080           0
     44612 WT15     1079     MECN     H12      HGA3     0.090000        1.0080           0
     44613 WT15     1079     MECN     H13      HGA3     0.090000        1.0080           0
     44614 WT15     1079     MECN     C2       CG1N1    0.360000       12.0110           0
     44615 WT15     1079     MECN     N3       NG1T1   -0.460000       14.0070           0
     44616 WT15     1082     MECN     C1       CG331   -0.170000       12.0110           0
     44617 WT15     1082     MECN     H11      HGA3     0.090000        1.0080           0
     44618 WT15     1082     MECN     H12      HGA3     0.090000        1.0080           0
     44619 WT15     1082     MECN     H13      HGA3     0.090000        1.0080           0
     44620 WT15     1082     MECN     C2       CG1N1    0.360000       12.0110           0
     44621 WT15     1082     MECN     N3       NG1T1   -0.460000       14.0070           0
     44622 WT15     1083     MECN     C1       CG331   -0.170000       12.0110           0
     44623 WT15     1083     MECN     H11      HGA3     0.090000        1.0080           0
     44624 WT15     1083     MECN     H12      HGA3     0.090000        1.0080           0
     44625 WT15     1083     MECN     H13      HGA3     0.090000        1.0080           0
     44626 WT15     1083     MECN     C2       CG1N1    0.360000       12.0110           0
     44627 WT15     1083     MECN     N3       NG1T1   -0.460000       14.0070           0
     44628 WT15     1086     MECN     C1       CG331   -0.170000       12.0110           0
     44629 WT15     1086     MECN     H11      HGA3     0.090000        1.0080           0
     44630 WT15     1086     MECN     H12      HGA3     0.090000        1.0080           0
     44631 WT15     1086     MECN     H13      HGA3     0.090000        1.0080           0
     44632 WT15     1086     MECN     C2       CG1N1    0.360000       12.0110           0
     44633 WT15     1086     MECN     N3       NG1T1   -0.460000       14.0070           0
     44634 WT15     1088     MECN     C1       CG331   -0.170000       12.0110           0
     44635 WT15     1088     MECN     H11      HGA3     0.090000        1.0080           0
     44636 WT15     1088     MECN     H12      HGA3     0.090000        1.0080           0
     44637 WT15     1088     MECN     H13      HGA3     0.090000        1.0080           0
     44638 WT15     1088     MECN     C2       CG1N1    0.360000       12.0110           0
     44639 WT15     1088     MECN     N3       NG1T1   -0.460000       14.0070           0
     44640 WT15     1089     MECN     C1       CG331   -0.170000       12.0110           0
     44641 WT15     1089     MECN     H11      HGA3     0.090000        1.0080           0
     44642 WT15     1089     MECN     H12      HGA3     0.090000        1.0080           0
     44643 WT15     1089     MECN     H13      HGA3     0.090000        1.0080           0
     44644 WT15     1089     MECN     C2       CG1N1    0.360000       12.0110           0
     44645 WT15     1089     MECN     N3       NG1T1   -0.460000       14.0070           0
     44646 WT15     1090     MECN     C1       CG331   -0.170000       12.0110           0
     44647 WT15     1090     MECN     H11      HGA3     0.090000        1.0080           0
     44648 WT15     1090     MECN     H12      HGA3     0.090000        1.0080           0
     44649 WT15     1090     MECN     H13      HGA3     0.090000        1.0080           0
     44650 WT15     1090     MECN     C2       CG1N1    0.360000       12.0110           0
     44651 WT15     1090     MECN     N3       NG1T1   -0.460000       14.0070           0
     44652 WT15     1092     MECN     C1       CG331   -0.170000       12.0110           0
     44653 WT15     1092     MECN     H11      HGA3     0.090000        1.0080           0
     44654 WT15     1092     MECN     H12      HGA3     0.090000        1.0080           0
     44655 WT15     1092     MECN     H13      HGA3     0.090000        1.0080           0
     44656 WT15     1092     MECN     C2       CG1N1    0.360000       12.0110           0
     44657 WT15     1092     MECN     N3       NG1T1   -0.460000       14.0070           0
     44658 WT15     1096     MECN     C1       CG331   -0.170000       12.0110           0
     44659 WT15     1096     MECN     H11      HGA3     0.090000        1.0080           0
     44660 WT15     1096     MECN     H12      HGA3     0.090000        1.0080           0
     44661 WT15     1096     MECN     H13      HGA3     0.090000        1.0080           0
     44662 WT15     1096     MECN     C2       CG1N1    0.360000       12.0110           0
     44663 WT15     1096     MECN     N3       NG1T1   -0.460000       14.0070           0
     44664 WT15     1097     MECN     C1       CG331   -0.170000       12.0110           0
     44665 WT15     1097     MECN     H11      HGA3     0.090000        1.0080           0
     44666 WT15     1097     MECN     H12      HGA3     0.090000        1.0080           0
     44667 WT15     1097     MECN     H13      HGA3     0.090000        1.0080           0
     44668 WT15     1097     MECN     C2       CG1N1    0.360000       12.0110           0
     44669 WT15     1097     MECN     N3       NG1T1   -0.460000       14.0070           0
     44670 WT15     1099     MECN     C1       CG331   -0.170000       12.0110           0
     44671 WT15     1099     MECN     H11      HGA3     0.090000        1.0080           0
     44672 WT15     1099     MECN     H12      HGA3     0.090000        1.0080           0
     44673 WT15     1099     MECN     H13      HGA3     0.090000        1.0080           0
     44674 WT15     1099     MECN     C2       CG1N1    0.360000       12.0110           0
     44675 WT15     1099     MECN     N3       NG1T1   -0.460000       14.0070           0
     44676 WT15     1100     MECN     C1       CG331   -0.170000       12.0110           0
     44677 WT15     1100     MECN     H11      HGA3     0.090000        1.0080           0
     44678 WT15     1100     MECN     H12      HGA3     0.090000        1.0080           0
     44679 WT15     1100     MECN     H13      HGA3     0.090000        1.0080           0
     44680 WT15     1100     MECN     C2       CG1N1    0.360000       12.0110           0
     44681 WT15     1100     MECN     N3       NG1T1   -0.460000       14.0070           0
     44682 WT15     1101     MECN     C1       CG331   -0.170000       12.0110           0
     44683 WT15     1101     MECN     H11      HGA3     0.090000        1.0080           0
     44684 WT15     1101     MECN     H12      HGA3     0.090000        1.0080           0
     44685 WT15     1101     MECN     H13      HGA3     0.090000        1.0080           0
     44686 WT15     1101     MECN     C2       CG1N1    0.360000       12.0110           0
     44687 WT15     1101     MECN     N3       NG1T1   -0.460000       14.0070           0
     44688 WT15     1102     MECN     C1       CG331   -0.170000       12.0110           0
     44689 WT15     1102     MECN     H11      HGA3     0.090000        1.0080           0
     44690 WT15     1102     MECN     H12      HGA3     0.090000        1.0080           0
     44691 WT15     1102     MECN     H13      HGA3     0.090000        1.0080           0
     44692 WT15     1102     MECN     C2       CG1N1    0.360000       12.0110           0
     44693 WT15     1102     MECN     N3       NG1T1   -0.460000       14.0070           0
     44694 WT15     1103     MECN     C1       CG331   -0.170000       12.0110           0
     44695 WT15     1103     MECN     H11      HGA3     0.090000        1.0080           0
     44696 WT15     1103     MECN     H12      HGA3     0.090000        1.0080           0
     44697 WT15     1103     MECN     H13      HGA3     0.090000        1.0080           0
     44698 WT15     1103     MECN     C2       CG1N1    0.360000       12.0110           0
     44699 WT15     1103     MECN     N3       NG1T1   -0.460000       14.0070           0
     44700 WT15     1104     MECN     C1       CG331   -0.170000       12.0110           0
     44701 WT15     1104     MECN     H11      HGA3     0.090000        1.0080           0
     44702 WT15     1104     MECN     H12      HGA3     0.090000        1.0080           0
     44703 WT15     1104     MECN     H13      HGA3     0.090000        1.0080           0
     44704 WT15     1104     MECN     C2       CG1N1    0.360000       12.0110           0
     44705 WT15     1104     MECN     N3       NG1T1   -0.460000       14.0070           0
     44706 WT15     1105     MECN     C1       CG331   -0.170000       12.0110           0
     44707 WT15     1105     MECN     H11      HGA3     0.090000        1.0080           0
     44708 WT15     1105     MECN     H12      HGA3     0.090000        1.0080           0
     44709 WT15     1105     MECN     H13      HGA3     0.090000        1.0080           0
     44710 WT15     1105     MECN     C2       CG1N1    0.360000       12.0110           0
     44711 WT15     1105     MECN     N3       NG1T1   -0.460000       14.0070           0
     44712 WT15     1107     MECN     C1       CG331   -0.170000       12.0110           0
     44713 WT15     1107     MECN     H11      HGA3     0.090000        1.0080           0
     44714 WT15     1107     MECN     H12      HGA3     0.090000        1.0080           0
     44715 WT15     1107     MECN     H13      HGA3     0.090000        1.0080           0
     44716 WT15     1107     MECN     C2       CG1N1    0.360000       12.0110           0
     44717 WT15     1107     MECN     N3       NG1T1   -0.460000       14.0070           0
     44718 WT15     1108     MECN     C1       CG331   -0.170000       12.0110           0
     44719 WT15     1108     MECN     H11      HGA3     0.090000        1.0080           0
     44720 WT15     1108     MECN     H12      HGA3     0.090000        1.0080           0
     44721 WT15     1108     MECN     H13      HGA3     0.090000        1.0080           0
     44722 WT15     1108     MECN     C2       CG1N1    0.360000       12.0110           0
     44723 WT15     1108     MECN     N3       NG1T1   -0.460000       14.0070           0
     44724 WT15     1110     MECN     C1       CG331   -0.170000       12.0110           0
     44725 WT15     1110     MECN     H11      HGA3     0.090000        1.0080           0
     44726 WT15     1110     MECN     H12      HGA3     0.090000        1.0080           0
     44727 WT15     1110     MECN     H13      HGA3     0.090000        1.0080           0
     44728 WT15     1110     MECN     C2       CG1N1    0.360000       12.0110           0
     44729 WT15     1110     MECN     N3       NG1T1   -0.460000       14.0070           0
     44730 WT15     1111     MECN     C1       CG331   -0.170000       12.0110           0
     44731 WT15     1111     MECN     H11      HGA3     0.090000        1.0080           0
     44732 WT15     1111     MECN     H12      HGA3     0.090000        1.0080           0
     44733 WT15     1111     MECN     H13      HGA3     0.090000        1.0080           0
     44734 WT15     1111     MECN     C2       CG1N1    0.360000       12.0110           0
     44735 WT15     1111     MECN     N3       NG1T1   -0.460000       14.0070           0
     44736 WT15     1112     MECN     C1       CG331   -0.170000       12.0110           0
     44737 WT15     1112     MECN     H11      HGA3     0.090000        1.0080           0
     44738 WT15     1112     MECN     H12      HGA3     0.090000        1.0080           0
     44739 WT15     1112     MECN     H13      HGA3     0.090000        1.0080           0
     44740 WT15     1112     MECN     C2       CG1N1    0.360000       12.0110           0
     44741 WT15     1112     MECN     N3       NG1T1   -0.460000       14.0070           0
     44742 WT15     1113     MECN     C1       CG331   -0.170000       12.0110           0
     44743 WT15     1113     MECN     H11      HGA3     0.090000        1.0080           0
     44744 WT15     1113     MECN     H12      HGA3     0.090000        1.0080           0
     44745 WT15     1113     MECN     H13      HGA3     0.090000        1.0080           0
     44746 WT15     1113     MECN     C2       CG1N1    0.360000       12.0110           0
     44747 WT15     1113     MECN     N3       NG1T1   -0.460000       14.0070           0
     44748 WT15     1114     MECN     C1       CG331   -0.170000       12.0110           0
     44749 WT15     1114     MECN     H11      HGA3     0.090000        1.0080           0
     44750 WT15     1114     MECN     H12      HGA3     0.090000        1.0080           0
     44751 WT15     1114     MECN     H13      HGA3     0.090000        1.0080           0
     44752 WT15     1114     MECN     C2       CG1N1    0.360000       12.0110           0
     44753 WT15     1114     MECN     N3       NG1T1   -0.460000       14.0070           0
     44754 WT15     1116     MECN     C1       CG331   -0.170000       12.0110           0
     44755 WT15     1116     MECN     H11      HGA3     0.090000        1.0080           0
     44756 WT15     1116     MECN     H12      HGA3     0.090000        1.0080           0
     44757 WT15     1116     MECN     H13      HGA3     0.090000        1.0080           0
     44758 WT15     1116     MECN     C2       CG1N1    0.360000       12.0110           0
     44759 WT15     1116     MECN     N3       NG1T1   -0.460000       14.0070           0
     44760 WT15     1117     MECN     C1       CG331   -0.170000       12.0110           0
     44761 WT15     1117     MECN     H11      HGA3     0.090000        1.0080           0
     44762 WT15     1117     MECN     H12      HGA3     0.090000        1.0080           0
     44763 WT15     1117     MECN     H13      HGA3     0.090000        1.0080           0
     44764 WT15     1117     MECN     C2       CG1N1    0.360000       12.0110           0
     44765 WT15     1117     MECN     N3       NG1T1   -0.460000       14.0070           0
     44766 WT15     1118     MECN     C1       CG331   -0.170000       12.0110           0
     44767 WT15     1118     MECN     H11      HGA3     0.090000        1.0080           0
     44768 WT15     1118     MECN     H12      HGA3     0.090000        1.0080           0
     44769 WT15     1118     MECN     H13      HGA3     0.090000        1.0080           0
     44770 WT15     1118     MECN     C2       CG1N1    0.360000       12.0110           0
     44771 WT15     1118     MECN     N3       NG1T1   -0.460000       14.0070           0
     44772 WT15     1119     MECN     C1       CG331   -0.170000       12.0110           0
     44773 WT15     1119     MECN     H11      HGA3     0.090000        1.0080           0
     44774 WT15     1119     MECN     H12      HGA3     0.090000        1.0080           0
     44775 WT15     1119     MECN     H13      HGA3     0.090000        1.0080           0
     44776 WT15     1119     MECN     C2       CG1N1    0.360000       12.0110           0
     44777 WT15     1119     MECN     N3       NG1T1   -0.460000       14.0070           0
     44778 WT15     1121     MECN     C1       CG331   -0.170000       12.0110           0
     44779 WT15     1121     MECN     H11      HGA3     0.090000        1.0080           0
     44780 WT15     1121     MECN     H12      HGA3     0.090000        1.0080           0
     44781 WT15     1121     MECN     H13      HGA3     0.090000        1.0080           0
     44782 WT15     1121     MECN     C2       CG1N1    0.360000       12.0110           0
     44783 WT15     1121     MECN     N3       NG1T1   -0.460000       14.0070           0
     44784 WT15     1122     MECN     C1       CG331   -0.170000       12.0110           0
     44785 WT15     1122     MECN     H11      HGA3     0.090000        1.0080           0
     44786 WT15     1122     MECN     H12      HGA3     0.090000        1.0080           0
     44787 WT15     1122     MECN     H13      HGA3     0.090000        1.0080           0
     44788 WT15     1122     MECN     C2       CG1N1    0.360000       12.0110           0
     44789 WT15     1122     MECN     N3       NG1T1   -0.460000       14.0070           0
     44790 WT15     1123     MECN     C1       CG331   -0.170000       12.0110           0
     44791 WT15     1123     MECN     H11      HGA3     0.090000        1.0080           0
     44792 WT15     1123     MECN     H12      HGA3     0.090000        1.0080           0
     44793 WT15     1123     MECN     H13      HGA3     0.090000        1.0080           0
     44794 WT15     1123     MECN     C2       CG1N1    0.360000       12.0110           0
     44795 WT15     1123     MECN     N3       NG1T1   -0.460000       14.0070           0
     44796 WT15     1124     MECN     C1       CG331   -0.170000       12.0110           0
     44797 WT15     1124     MECN     H11      HGA3     0.090000        1.0080           0
     44798 WT15     1124     MECN     H12      HGA3     0.090000        1.0080           0
     44799 WT15     1124     MECN     H13      HGA3     0.090000        1.0080           0
     44800 WT15     1124     MECN     C2       CG1N1    0.360000       12.0110           0
     44801 WT15     1124     MECN     N3       NG1T1   -0.460000       14.0070           0
     44802 WT15     1126     MECN     C1       CG331   -0.170000       12.0110           0
     44803 WT15     1126     MECN     H11      HGA3     0.090000        1.0080           0
     44804 WT15     1126     MECN     H12      HGA3     0.090000        1.0080           0
     44805 WT15     1126     MECN     H13      HGA3     0.090000        1.0080           0
     44806 WT15     1126     MECN     C2       CG1N1    0.360000       12.0110           0
     44807 WT15     1126     MECN     N3       NG1T1   -0.460000       14.0070           0
     44808 WT15     1127     MECN     C1       CG331   -0.170000       12.0110           0
     44809 WT15     1127     MECN     H11      HGA3     0.090000        1.0080           0
     44810 WT15     1127     MECN     H12      HGA3     0.090000        1.0080           0
     44811 WT15     1127     MECN     H13      HGA3     0.090000        1.0080           0
     44812 WT15     1127     MECN     C2       CG1N1    0.360000       12.0110           0
     44813 WT15     1127     MECN     N3       NG1T1   -0.460000       14.0070           0
     44814 WT15     1128     MECN     C1       CG331   -0.170000       12.0110           0
     44815 WT15     1128     MECN     H11      HGA3     0.090000        1.0080           0
     44816 WT15     1128     MECN     H12      HGA3     0.090000        1.0080           0
     44817 WT15     1128     MECN     H13      HGA3     0.090000        1.0080           0
     44818 WT15     1128     MECN     C2       CG1N1    0.360000       12.0110           0
     44819 WT15     1128     MECN     N3       NG1T1   -0.460000       14.0070           0
     44820 WT15     1129     MECN     C1       CG331   -0.170000       12.0110           0
     44821 WT15     1129     MECN     H11      HGA3     0.090000        1.0080           0
     44822 WT15     1129     MECN     H12      HGA3     0.090000        1.0080           0
     44823 WT15     1129     MECN     H13      HGA3     0.090000        1.0080           0
     44824 WT15     1129     MECN     C2       CG1N1    0.360000       12.0110           0
     44825 WT15     1129     MECN     N3       NG1T1   -0.460000       14.0070           0
     44826 WT15     1131     MECN     C1       CG331   -0.170000       12.0110           0
     44827 WT15     1131     MECN     H11      HGA3     0.090000        1.0080           0
     44828 WT15     1131     MECN     H12      HGA3     0.090000        1.0080           0
     44829 WT15     1131     MECN     H13      HGA3     0.090000        1.0080           0
     44830 WT15     1131     MECN     C2       CG1N1    0.360000       12.0110           0
     44831 WT15     1131     MECN     N3       NG1T1   -0.460000       14.0070           0
     44832 WT15     1132     MECN     C1       CG331   -0.170000       12.0110           0
     44833 WT15     1132     MECN     H11      HGA3     0.090000        1.0080           0
     44834 WT15     1132     MECN     H12      HGA3     0.090000        1.0080           0
     44835 WT15     1132     MECN     H13      HGA3     0.090000        1.0080           0
     44836 WT15     1132     MECN     C2       CG1N1    0.360000       12.0110           0
     44837 WT15     1132     MECN     N3       NG1T1   -0.460000       14.0070           0
     44838 WT15     1133     MECN     C1       CG331   -0.170000       12.0110           0
     44839 WT15     1133     MECN     H11      HGA3     0.090000        1.0080           0
     44840 WT15     1133     MECN     H12      HGA3     0.090000        1.0080           0
     44841 WT15     1133     MECN     H13      HGA3     0.090000        1.0080           0
     44842 WT15     1133     MECN     C2       CG1N1    0.360000       12.0110           0
     44843 WT15     1133     MECN     N3       NG1T1   -0.460000       14.0070           0
     44844 WT15     1134     MECN     C1       CG331   -0.170000       12.0110           0
     44845 WT15     1134     MECN     H11      HGA3     0.090000        1.0080           0
     44846 WT15     1134     MECN     H12      HGA3     0.090000        1.0080           0
     44847 WT15     1134     MECN     H13      HGA3     0.090000        1.0080           0
     44848 WT15     1134     MECN     C2       CG1N1    0.360000       12.0110           0
     44849 WT15     1134     MECN     N3       NG1T1   -0.460000       14.0070           0
     44850 WT15     1135     MECN     C1       CG331   -0.170000       12.0110           0
     44851 WT15     1135     MECN     H11      HGA3     0.090000        1.0080           0
     44852 WT15     1135     MECN     H12      HGA3     0.090000        1.0080           0
     44853 WT15     1135     MECN     H13      HGA3     0.090000        1.0080           0
     44854 WT15     1135     MECN     C2       CG1N1    0.360000       12.0110           0
     44855 WT15     1135     MECN     N3       NG1T1   -0.460000       14.0070           0
     44856 WT15     1136     MECN     C1       CG331   -0.170000       12.0110           0
     44857 WT15     1136     MECN     H11      HGA3     0.090000        1.0080           0
     44858 WT15     1136     MECN     H12      HGA3     0.090000        1.0080           0
     44859 WT15     1136     MECN     H13      HGA3     0.090000        1.0080           0
     44860 WT15     1136     MECN     C2       CG1N1    0.360000       12.0110           0
     44861 WT15     1136     MECN     N3       NG1T1   -0.460000       14.0070           0
     44862 WT15     1138     MECN     C1       CG331   -0.170000       12.0110           0
     44863 WT15     1138     MECN     H11      HGA3     0.090000        1.0080           0
     44864 WT15     1138     MECN     H12      HGA3     0.090000        1.0080           0
     44865 WT15     1138     MECN     H13      HGA3     0.090000        1.0080           0
     44866 WT15     1138     MECN     C2       CG1N1    0.360000       12.0110           0
     44867 WT15     1138     MECN     N3       NG1T1   -0.460000       14.0070           0
     44868 WT15     1139     MECN     C1       CG331   -0.170000       12.0110           0
     44869 WT15     1139     MECN     H11      HGA3     0.090000        1.0080           0
     44870 WT15     1139     MECN     H12      HGA3     0.090000        1.0080           0
     44871 WT15     1139     MECN     H13      HGA3     0.090000        1.0080           0
     44872 WT15     1139     MECN     C2       CG1N1    0.360000       12.0110           0
     44873 WT15     1139     MECN     N3       NG1T1   -0.460000       14.0070           0
     44874 WT15     1140     MECN     C1       CG331   -0.170000       12.0110           0
     44875 WT15     1140     MECN     H11      HGA3     0.090000        1.0080           0
     44876 WT15     1140     MECN     H12      HGA3     0.090000        1.0080           0
     44877 WT15     1140     MECN     H13      HGA3     0.090000        1.0080           0
     44878 WT15     1140     MECN     C2       CG1N1    0.360000       12.0110           0
     44879 WT15     1140     MECN     N3       NG1T1   -0.460000       14.0070           0
     44880 WT15     1141     MECN     C1       CG331   -0.170000       12.0110           0
     44881 WT15     1141     MECN     H11      HGA3     0.090000        1.0080           0
     44882 WT15     1141     MECN     H12      HGA3     0.090000        1.0080           0
     44883 WT15     1141     MECN     H13      HGA3     0.090000        1.0080           0
     44884 WT15     1141     MECN     C2       CG1N1    0.360000       12.0110           0
     44885 WT15     1141     MECN     N3       NG1T1   -0.460000       14.0070           0
     44886 WT15     1142     MECN     C1       CG331   -0.170000       12.0110           0
     44887 WT15     1142     MECN     H11      HGA3     0.090000        1.0080           0
     44888 WT15     1142     MECN     H12      HGA3     0.090000        1.0080           0
     44889 WT15     1142     MECN     H13      HGA3     0.090000        1.0080           0
     44890 WT15     1142     MECN     C2       CG1N1    0.360000       12.0110           0
     44891 WT15     1142     MECN     N3       NG1T1   -0.460000       14.0070           0
     44892 WT15     1144     MECN     C1       CG331   -0.170000       12.0110           0
     44893 WT15     1144     MECN     H11      HGA3     0.090000        1.0080           0
     44894 WT15     1144     MECN     H12      HGA3     0.090000        1.0080           0
     44895 WT15     1144     MECN     H13      HGA3     0.090000        1.0080           0
     44896 WT15     1144     MECN     C2       CG1N1    0.360000       12.0110           0
     44897 WT15     1144     MECN     N3       NG1T1   -0.460000       14.0070           0
     44898 WT15     1145     MECN     C1       CG331   -0.170000       12.0110           0
     44899 WT15     1145     MECN     H11      HGA3     0.090000        1.0080           0
     44900 WT15     1145     MECN     H12      HGA3     0.090000        1.0080           0
     44901 WT15     1145     MECN     H13      HGA3     0.090000        1.0080           0
     44902 WT15     1145     MECN     C2       CG1N1    0.360000       12.0110           0
     44903 WT15     1145     MECN     N3       NG1T1   -0.460000       14.0070           0
     44904 WT15     1147     MECN     C1       CG331   -0.170000       12.0110           0
     44905 WT15     1147     MECN     H11      HGA3     0.090000        1.0080           0
     44906 WT15     1147     MECN     H12      HGA3     0.090000        1.0080           0
     44907 WT15     1147     MECN     H13      HGA3     0.090000        1.0080           0
     44908 WT15     1147     MECN     C2       CG1N1    0.360000       12.0110           0
     44909 WT15     1147     MECN     N3       NG1T1   -0.460000       14.0070           0
     44910 WT15     1149     MECN     C1       CG331   -0.170000       12.0110           0
     44911 WT15     1149     MECN     H11      HGA3     0.090000        1.0080           0
     44912 WT15     1149     MECN     H12      HGA3     0.090000        1.0080           0
     44913 WT15     1149     MECN     H13      HGA3     0.090000        1.0080           0
     44914 WT15     1149     MECN     C2       CG1N1    0.360000       12.0110           0
     44915 WT15     1149     MECN     N3       NG1T1   -0.460000       14.0070           0
     44916 WT15     1150     MECN     C1       CG331   -0.170000       12.0110           0
     44917 WT15     1150     MECN     H11      HGA3     0.090000        1.0080           0
     44918 WT15     1150     MECN     H12      HGA3     0.090000        1.0080           0
     44919 WT15     1150     MECN     H13      HGA3     0.090000        1.0080           0
     44920 WT15     1150     MECN     C2       CG1N1    0.360000       12.0110           0
     44921 WT15     1150     MECN     N3       NG1T1   -0.460000       14.0070           0
     44922 WT15     1151     MECN     C1       CG331   -0.170000       12.0110           0
     44923 WT15     1151     MECN     H11      HGA3     0.090000        1.0080           0
     44924 WT15     1151     MECN     H12      HGA3     0.090000        1.0080           0
     44925 WT15     1151     MECN     H13      HGA3     0.090000        1.0080           0
     44926 WT15     1151     MECN     C2       CG1N1    0.360000       12.0110           0
     44927 WT15     1151     MECN     N3       NG1T1   -0.460000       14.0070           0
     44928 WT15     1152     MECN     C1       CG331   -0.170000       12.0110           0
     44929 WT15     1152     MECN     H11      HGA3     0.090000        1.0080           0
     44930 WT15     1152     MECN     H12      HGA3     0.090000        1.0080           0
     44931 WT15     1152     MECN     H13      HGA3     0.090000        1.0080           0
     44932 WT15     1152     MECN     C2       CG1N1    0.360000       12.0110           0
     44933 WT15     1152     MECN     N3       NG1T1   -0.460000       14.0070           0
     44934 WT15     1153     MECN     C1       CG331   -0.170000       12.0110           0
     44935 WT15     1153     MECN     H11      HGA3     0.090000        1.0080           0
     44936 WT15     1153     MECN     H12      HGA3     0.090000        1.0080           0
     44937 WT15     1153     MECN     H13      HGA3     0.090000        1.0080           0
     44938 WT15     1153     MECN     C2       CG1N1    0.360000       12.0110           0
     44939 WT15     1153     MECN     N3       NG1T1   -0.460000       14.0070           0
     44940 WT15     1154     MECN     C1       CG331   -0.170000       12.0110           0
     44941 WT15     1154     MECN     H11      HGA3     0.090000        1.0080           0
     44942 WT15     1154     MECN     H12      HGA3     0.090000        1.0080           0
     44943 WT15     1154     MECN     H13      HGA3     0.090000        1.0080           0
     44944 WT15     1154     MECN     C2       CG1N1    0.360000       12.0110           0
     44945 WT15     1154     MECN     N3       NG1T1   -0.460000       14.0070           0
     44946 WT15     1155     MECN     C1       CG331   -0.170000       12.0110           0
     44947 WT15     1155     MECN     H11      HGA3     0.090000        1.0080           0
     44948 WT15     1155     MECN     H12      HGA3     0.090000        1.0080           0
     44949 WT15     1155     MECN     H13      HGA3     0.090000        1.0080           0
     44950 WT15     1155     MECN     C2       CG1N1    0.360000       12.0110           0
     44951 WT15     1155     MECN     N3       NG1T1   -0.460000       14.0070           0
     44952 WT15     1156     MECN     C1       CG331   -0.170000       12.0110           0
     44953 WT15     1156     MECN     H11      HGA3     0.090000        1.0080           0
     44954 WT15     1156     MECN     H12      HGA3     0.090000        1.0080           0
     44955 WT15     1156     MECN     H13      HGA3     0.090000        1.0080           0
     44956 WT15     1156     MECN     C2       CG1N1    0.360000       12.0110           0
     44957 WT15     1156     MECN     N3       NG1T1   -0.460000       14.0070           0
     44958 WT15     1157     MECN     C1       CG331   -0.170000       12.0110           0
     44959 WT15     1157     MECN     H11      HGA3     0.090000        1.0080           0
     44960 WT15     1157     MECN     H12      HGA3     0.090000        1.0080           0
     44961 WT15     1157     MECN     H13      HGA3     0.090000        1.0080           0
     44962 WT15     1157     MECN     C2       CG1N1    0.360000       12.0110           0
     44963 WT15     1157     MECN     N3       NG1T1   -0.460000       14.0070           0
     44964 WT15     1158     MECN     C1       CG331   -0.170000       12.0110           0
     44965 WT15     1158     MECN     H11      HGA3     0.090000        1.0080           0
     44966 WT15     1158     MECN     H12      HGA3     0.090000        1.0080           0
     44967 WT15     1158     MECN     H13      HGA3     0.090000        1.0080           0
     44968 WT15     1158     MECN     C2       CG1N1    0.360000       12.0110           0
     44969 WT15     1158     MECN     N3       NG1T1   -0.460000       14.0070           0
     44970 WT15     1159     MECN     C1       CG331   -0.170000       12.0110           0
     44971 WT15     1159     MECN     H11      HGA3     0.090000        1.0080           0
     44972 WT15     1159     MECN     H12      HGA3     0.090000        1.0080           0
     44973 WT15     1159     MECN     H13      HGA3     0.090000        1.0080           0
     44974 WT15     1159     MECN     C2       CG1N1    0.360000       12.0110           0
     44975 WT15     1159     MECN     N3       NG1T1   -0.460000       14.0070           0
     44976 WT15     1160     MECN     C1       CG331   -0.170000       12.0110           0
     44977 WT15     1160     MECN     H11      HGA3     0.090000        1.0080           0
     44978 WT15     1160     MECN     H12      HGA3     0.090000        1.0080           0
     44979 WT15     1160     MECN     H13      HGA3     0.090000        1.0080           0
     44980 WT15     1160     MECN     C2       CG1N1    0.360000       12.0110           0
     44981 WT15     1160     MECN     N3       NG1T1   -0.460000       14.0070           0
     44982 WT15     1162     MECN     C1       CG331   -0.170000       12.0110           0
     44983 WT15     1162     MECN     H11      HGA3     0.090000        1.0080           0
     44984 WT15     1162     MECN     H12      HGA3     0.090000        1.0080           0
     44985 WT15     1162     MECN     H13      HGA3     0.090000        1.0080           0
     44986 WT15     1162     MECN     C2       CG1N1    0.360000       12.0110           0
     44987 WT15     1162     MECN     N3       NG1T1   -0.460000       14.0070           0
     44988 WT15     1163     MECN     C1       CG331   -0.170000       12.0110           0
     44989 WT15     1163     MECN     H11      HGA3     0.090000        1.0080           0
     44990 WT15     1163     MECN     H12      HGA3     0.090000        1.0080           0
     44991 WT15     1163     MECN     H13      HGA3     0.090000        1.0080           0
     44992 WT15     1163     MECN     C2       CG1N1    0.360000       12.0110           0
     44993 WT15     1163     MECN     N3       NG1T1   -0.460000       14.0070           0
     44994 WT15     1164     MECN     C1       CG331   -0.170000       12.0110           0
     44995 WT15     1164     MECN     H11      HGA3     0.090000        1.0080           0
     44996 WT15     1164     MECN     H12      HGA3     0.090000        1.0080           0
     44997 WT15     1164     MECN     H13      HGA3     0.090000        1.0080           0
     44998 WT15     1164     MECN     C2       CG1N1    0.360000       12.0110           0
     44999 WT15     1164     MECN     N3       NG1T1   -0.460000       14.0070           0
     45000 WT15     1165     MECN     C1       CG331   -0.170000       12.0110           0
     45001 WT15     1165     MECN     H11      HGA3     0.090000        1.0080           0
     45002 WT15     1165     MECN     H12      HGA3     0.090000        1.0080           0
     45003 WT15     1165     MECN     H13      HGA3     0.090000        1.0080           0
     45004 WT15     1165     MECN     C2       CG1N1    0.360000       12.0110           0
     45005 WT15     1165     MECN     N3       NG1T1   -0.460000       14.0070           0
     45006 WT15     1166     MECN     C1       CG331   -0.170000       12.0110           0
     45007 WT15     1166     MECN     H11      HGA3     0.090000        1.0080           0
     45008 WT15     1166     MECN     H12      HGA3     0.090000        1.0080           0
     45009 WT15     1166     MECN     H13      HGA3     0.090000        1.0080           0
     45010 WT15     1166     MECN     C2       CG1N1    0.360000       12.0110           0
     45011 WT15     1166     MECN     N3       NG1T1   -0.460000       14.0070           0
     45012 WT15     1168     MECN     C1       CG331   -0.170000       12.0110           0
     45013 WT15     1168     MECN     H11      HGA3     0.090000        1.0080           0
     45014 WT15     1168     MECN     H12      HGA3     0.090000        1.0080           0
     45015 WT15     1168     MECN     H13      HGA3     0.090000        1.0080           0
     45016 WT15     1168     MECN     C2       CG1N1    0.360000       12.0110           0
     45017 WT15     1168     MECN     N3       NG1T1   -0.460000       14.0070           0
     45018 WT15     1169     MECN     C1       CG331   -0.170000       12.0110           0
     45019 WT15     1169     MECN     H11      HGA3     0.090000        1.0080           0
     45020 WT15     1169     MECN     H12      HGA3     0.090000        1.0080           0
     45021 WT15     1169     MECN     H13      HGA3     0.090000        1.0080           0
     45022 WT15     1169     MECN     C2       CG1N1    0.360000       12.0110           0
     45023 WT15     1169     MECN     N3       NG1T1   -0.460000       14.0070           0
     45024 WT15     1170     MECN     C1       CG331   -0.170000       12.0110           0
     45025 WT15     1170     MECN     H11      HGA3     0.090000        1.0080           0
     45026 WT15     1170     MECN     H12      HGA3     0.090000        1.0080           0
     45027 WT15     1170     MECN     H13      HGA3     0.090000        1.0080           0
     45028 WT15     1170     MECN     C2       CG1N1    0.360000       12.0110           0
     45029 WT15     1170     MECN     N3       NG1T1   -0.460000       14.0070           0
     45030 WT15     1171     MECN     C1       CG331   -0.170000       12.0110           0
     45031 WT15     1171     MECN     H11      HGA3     0.090000        1.0080           0
     45032 WT15     1171     MECN     H12      HGA3     0.090000        1.0080           0
     45033 WT15     1171     MECN     H13      HGA3     0.090000        1.0080           0
     45034 WT15     1171     MECN     C2       CG1N1    0.360000       12.0110           0
     45035 WT15     1171     MECN     N3       NG1T1   -0.460000       14.0070           0
     45036 WT15     1172     MECN     C1       CG331   -0.170000       12.0110           0
     45037 WT15     1172     MECN     H11      HGA3     0.090000        1.0080           0
     45038 WT15     1172     MECN     H12      HGA3     0.090000        1.0080           0
     45039 WT15     1172     MECN     H13      HGA3     0.090000        1.0080           0
     45040 WT15     1172     MECN     C2       CG1N1    0.360000       12.0110           0
     45041 WT15     1172     MECN     N3       NG1T1   -0.460000       14.0070           0
     45042 WT15     1173     MECN     C1       CG331   -0.170000       12.0110           0
     45043 WT15     1173     MECN     H11      HGA3     0.090000        1.0080           0
     45044 WT15     1173     MECN     H12      HGA3     0.090000        1.0080           0
     45045 WT15     1173     MECN     H13      HGA3     0.090000        1.0080           0
     45046 WT15     1173     MECN     C2       CG1N1    0.360000       12.0110           0
     45047 WT15     1173     MECN     N3       NG1T1   -0.460000       14.0070           0
     45048 WT15     1175     MECN     C1       CG331   -0.170000       12.0110           0
     45049 WT15     1175     MECN     H11      HGA3     0.090000        1.0080           0
     45050 WT15     1175     MECN     H12      HGA3     0.090000        1.0080           0
     45051 WT15     1175     MECN     H13      HGA3     0.090000        1.0080           0
     45052 WT15     1175     MECN     C2       CG1N1    0.360000       12.0110           0
     45053 WT15     1175     MECN     N3       NG1T1   -0.460000       14.0070           0
     45054 WT15     1176     MECN     C1       CG331   -0.170000       12.0110           0
     45055 WT15     1176     MECN     H11      HGA3     0.090000        1.0080           0
     45056 WT15     1176     MECN     H12      HGA3     0.090000        1.0080           0
     45057 WT15     1176     MECN     H13      HGA3     0.090000        1.0080           0
     45058 WT15     1176     MECN     C2       CG1N1    0.360000       12.0110           0
     45059 WT15     1176     MECN     N3       NG1T1   -0.460000       14.0070           0
     45060 WT15     1177     MECN     C1       CG331   -0.170000       12.0110           0
     45061 WT15     1177     MECN     H11      HGA3     0.090000        1.0080           0
     45062 WT15     1177     MECN     H12      HGA3     0.090000        1.0080           0
     45063 WT15     1177     MECN     H13      HGA3     0.090000        1.0080           0
     45064 WT15     1177     MECN     C2       CG1N1    0.360000       12.0110           0
     45065 WT15     1177     MECN     N3       NG1T1   -0.460000       14.0070           0
     45066 WT15     1179     MECN     C1       CG331   -0.170000       12.0110           0
     45067 WT15     1179     MECN     H11      HGA3     0.090000        1.0080           0
     45068 WT15     1179     MECN     H12      HGA3     0.090000        1.0080           0
     45069 WT15     1179     MECN     H13      HGA3     0.090000        1.0080           0
     45070 WT15     1179     MECN     C2       CG1N1    0.360000       12.0110           0
     45071 WT15     1179     MECN     N3       NG1T1   -0.460000       14.0070           0
     45072 WT15     1180     MECN     C1       CG331   -0.170000       12.0110           0
     45073 WT15     1180     MECN     H11      HGA3     0.090000        1.0080           0
     45074 WT15     1180     MECN     H12      HGA3     0.090000        1.0080           0
     45075 WT15     1180     MECN     H13      HGA3     0.090000        1.0080           0
     45076 WT15     1180     MECN     C2       CG1N1    0.360000       12.0110           0
     45077 WT15     1180     MECN     N3       NG1T1   -0.460000       14.0070           0
     45078 WT15     1182     MECN     C1       CG331   -0.170000       12.0110           0
     45079 WT15     1182     MECN     H11      HGA3     0.090000        1.0080           0
     45080 WT15     1182     MECN     H12      HGA3     0.090000        1.0080           0
     45081 WT15     1182     MECN     H13      HGA3     0.090000        1.0080           0
     45082 WT15     1182     MECN     C2       CG1N1    0.360000       12.0110           0
     45083 WT15     1182     MECN     N3       NG1T1   -0.460000       14.0070           0
     45084 WT15     1183     MECN     C1       CG331   -0.170000       12.0110           0
     45085 WT15     1183     MECN     H11      HGA3     0.090000        1.0080           0
     45086 WT15     1183     MECN     H12      HGA3     0.090000        1.0080           0
     45087 WT15     1183     MECN     H13      HGA3     0.090000        1.0080           0
     45088 WT15     1183     MECN     C2       CG1N1    0.360000       12.0110           0
     45089 WT15     1183     MECN     N3       NG1T1   -0.460000       14.0070           0
     45090 WT15     1185     MECN     C1       CG331   -0.170000       12.0110           0
     45091 WT15     1185     MECN     H11      HGA3     0.090000        1.0080           0
     45092 WT15     1185     MECN     H12      HGA3     0.090000        1.0080           0
     45093 WT15     1185     MECN     H13      HGA3     0.090000        1.0080           0
     45094 WT15     1185     MECN     C2       CG1N1    0.360000       12.0110           0
     45095 WT15     1185     MECN     N3       NG1T1   -0.460000       14.0070           0
     45096 WT15     1186     MECN     C1       CG331   -0.170000       12.0110           0
     45097 WT15     1186     MECN     H11      HGA3     0.090000        1.0080           0
     45098 WT15     1186     MECN     H12      HGA3     0.090000        1.0080           0
     45099 WT15     1186     MECN     H13      HGA3     0.090000        1.0080           0
     45100 WT15     1186     MECN     C2       CG1N1    0.360000       12.0110           0
     45101 WT15     1186     MECN     N3       NG1T1   -0.460000       14.0070           0
     45102 WT15     1187     MECN     C1       CG331   -0.170000       12.0110           0
     45103 WT15     1187     MECN     H11      HGA3     0.090000        1.0080           0
     45104 WT15     1187     MECN     H12      HGA3     0.090000        1.0080           0
     45105 WT15     1187     MECN     H13      HGA3     0.090000        1.0080           0
     45106 WT15     1187     MECN     C2       CG1N1    0.360000       12.0110           0
     45107 WT15     1187     MECN     N3       NG1T1   -0.460000       14.0070           0
     45108 WT15     1189     MECN     C1       CG331   -0.170000       12.0110           0
     45109 WT15     1189     MECN     H11      HGA3     0.090000        1.0080           0
     45110 WT15     1189     MECN     H12      HGA3     0.090000        1.0080           0
     45111 WT15     1189     MECN     H13      HGA3     0.090000        1.0080           0
     45112 WT15     1189     MECN     C2       CG1N1    0.360000       12.0110           0
     45113 WT15     1189     MECN     N3       NG1T1   -0.460000       14.0070           0
     45114 WT15     1190     MECN     C1       CG331   -0.170000       12.0110           0
     45115 WT15     1190     MECN     H11      HGA3     0.090000        1.0080           0
     45116 WT15     1190     MECN     H12      HGA3     0.090000        1.0080           0
     45117 WT15     1190     MECN     H13      HGA3     0.090000        1.0080           0
     45118 WT15     1190     MECN     C2       CG1N1    0.360000       12.0110           0
     45119 WT15     1190     MECN     N3       NG1T1   -0.460000       14.0070           0
     45120 WT15     1192     MECN     C1       CG331   -0.170000       12.0110           0
     45121 WT15     1192     MECN     H11      HGA3     0.090000        1.0080           0
     45122 WT15     1192     MECN     H12      HGA3     0.090000        1.0080           0
     45123 WT15     1192     MECN     H13      HGA3     0.090000        1.0080           0
     45124 WT15     1192     MECN     C2       CG1N1    0.360000       12.0110           0
     45125 WT15     1192     MECN     N3       NG1T1   -0.460000       14.0070           0
     45126 WT15     1193     MECN     C1       CG331   -0.170000       12.0110           0
     45127 WT15     1193     MECN     H11      HGA3     0.090000        1.0080           0
     45128 WT15     1193     MECN     H12      HGA3     0.090000        1.0080           0
     45129 WT15     1193     MECN     H13      HGA3     0.090000        1.0080           0
     45130 WT15     1193     MECN     C2       CG1N1    0.360000       12.0110           0
     45131 WT15     1193     MECN     N3       NG1T1   -0.460000       14.0070           0
     45132 WT15     1194     MECN     C1       CG331   -0.170000       12.0110           0
     45133 WT15     1194     MECN     H11      HGA3     0.090000        1.0080           0
     45134 WT15     1194     MECN     H12      HGA3     0.090000        1.0080           0
     45135 WT15     1194     MECN     H13      HGA3     0.090000        1.0080           0
     45136 WT15     1194     MECN     C2       CG1N1    0.360000       12.0110           0
     45137 WT15     1194     MECN     N3       NG1T1   -0.460000       14.0070           0
     45138 WT15     1196     MECN     C1       CG331   -0.170000       12.0110           0
     45139 WT15     1196     MECN     H11      HGA3     0.090000        1.0080           0
     45140 WT15     1196     MECN     H12      HGA3     0.090000        1.0080           0
     45141 WT15     1196     MECN     H13      HGA3     0.090000        1.0080           0
     45142 WT15     1196     MECN     C2       CG1N1    0.360000       12.0110           0
     45143 WT15     1196     MECN     N3       NG1T1   -0.460000       14.0070           0
     45144 WT15     1197     MECN     C1       CG331   -0.170000       12.0110           0
     45145 WT15     1197     MECN     H11      HGA3     0.090000        1.0080           0
     45146 WT15     1197     MECN     H12      HGA3     0.090000        1.0080           0
     45147 WT15     1197     MECN     H13      HGA3     0.090000        1.0080           0
     45148 WT15     1197     MECN     C2       CG1N1    0.360000       12.0110           0
     45149 WT15     1197     MECN     N3       NG1T1   -0.460000       14.0070           0
     45150 WT15     1198     MECN     C1       CG331   -0.170000       12.0110           0
     45151 WT15     1198     MECN     H11      HGA3     0.090000        1.0080           0
     45152 WT15     1198     MECN     H12      HGA3     0.090000        1.0080           0
     45153 WT15     1198     MECN     H13      HGA3     0.090000        1.0080           0
     45154 WT15     1198     MECN     C2       CG1N1    0.360000       12.0110           0
     45155 WT15     1198     MECN     N3       NG1T1   -0.460000       14.0070           0
     45156 WT15     1201     MECN     C1       CG331   -0.170000       12.0110           0
     45157 WT15     1201     MECN     H11      HGA3     0.090000        1.0080           0
     45158 WT15     1201     MECN     H12      HGA3     0.090000        1.0080           0
     45159 WT15     1201     MECN     H13      HGA3     0.090000        1.0080           0
     45160 WT15     1201     MECN     C2       CG1N1    0.360000       12.0110           0
     45161 WT15     1201     MECN     N3       NG1T1   -0.460000       14.0070           0
     45162 WT15     1202     MECN     C1       CG331   -0.170000       12.0110           0
     45163 WT15     1202     MECN     H11      HGA3     0.090000        1.0080           0
     45164 WT15     1202     MECN     H12      HGA3     0.090000        1.0080           0
     45165 WT15     1202     MECN     H13      HGA3     0.090000        1.0080           0
     45166 WT15     1202     MECN     C2       CG1N1    0.360000       12.0110           0
     45167 WT15     1202     MECN     N3       NG1T1   -0.460000       14.0070           0
     45168 WT15     1203     MECN     C1       CG331   -0.170000       12.0110           0
     45169 WT15     1203     MECN     H11      HGA3     0.090000        1.0080           0
     45170 WT15     1203     MECN     H12      HGA3     0.090000        1.0080           0
     45171 WT15     1203     MECN     H13      HGA3     0.090000        1.0080           0
     45172 WT15     1203     MECN     C2       CG1N1    0.360000       12.0110           0
     45173 WT15     1203     MECN     N3       NG1T1   -0.460000       14.0070           0
     45174 WT15     1204     MECN     C1       CG331   -0.170000       12.0110           0
     45175 WT15     1204     MECN     H11      HGA3     0.090000        1.0080           0
     45176 WT15     1204     MECN     H12      HGA3     0.090000        1.0080           0
     45177 WT15     1204     MECN     H13      HGA3     0.090000        1.0080           0
     45178 WT15     1204     MECN     C2       CG1N1    0.360000       12.0110           0
     45179 WT15     1204     MECN     N3       NG1T1   -0.460000       14.0070           0
     45180 WT15     1205     MECN     C1       CG331   -0.170000       12.0110           0
     45181 WT15     1205     MECN     H11      HGA3     0.090000        1.0080           0
     45182 WT15     1205     MECN     H12      HGA3     0.090000        1.0080           0
     45183 WT15     1205     MECN     H13      HGA3     0.090000        1.0080           0
     45184 WT15     1205     MECN     C2       CG1N1    0.360000       12.0110           0
     45185 WT15     1205     MECN     N3       NG1T1   -0.460000       14.0070           0
     45186 WT15     1206     MECN     C1       CG331   -0.170000       12.0110           0
     45187 WT15     1206     MECN     H11      HGA3     0.090000        1.0080           0
     45188 WT15     1206     MECN     H12      HGA3     0.090000        1.0080           0
     45189 WT15     1206     MECN     H13      HGA3     0.090000        1.0080           0
     45190 WT15     1206     MECN     C2       CG1N1    0.360000       12.0110           0
     45191 WT15     1206     MECN     N3       NG1T1   -0.460000       14.0070           0
     45192 WT15     1207     MECN     C1       CG331   -0.170000       12.0110           0
     45193 WT15     1207     MECN     H11      HGA3     0.090000        1.0080           0
     45194 WT15     1207     MECN     H12      HGA3     0.090000        1.0080           0
     45195 WT15     1207     MECN     H13      HGA3     0.090000        1.0080           0
     45196 WT15     1207     MECN     C2       CG1N1    0.360000       12.0110           0
     45197 WT15     1207     MECN     N3       NG1T1   -0.460000       14.0070           0
     45198 WT15     1208     MECN     C1       CG331   -0.170000       12.0110           0
     45199 WT15     1208     MECN     H11      HGA3     0.090000        1.0080           0
     45200 WT15     1208     MECN     H12      HGA3     0.090000        1.0080           0
     45201 WT15     1208     MECN     H13      HGA3     0.090000        1.0080           0
     45202 WT15     1208     MECN     C2       CG1N1    0.360000       12.0110           0
     45203 WT15     1208     MECN     N3       NG1T1   -0.460000       14.0070           0
     45204 WT15     1209     MECN     C1       CG331   -0.170000       12.0110           0
     45205 WT15     1209     MECN     H11      HGA3     0.090000        1.0080           0
     45206 WT15     1209     MECN     H12      HGA3     0.090000        1.0080           0
     45207 WT15     1209     MECN     H13      HGA3     0.090000        1.0080           0
     45208 WT15     1209     MECN     C2       CG1N1    0.360000       12.0110           0
     45209 WT15     1209     MECN     N3       NG1T1   -0.460000       14.0070           0
     45210 WT15     1210     MECN     C1       CG331   -0.170000       12.0110           0
     45211 WT15     1210     MECN     H11      HGA3     0.090000        1.0080           0
     45212 WT15     1210     MECN     H12      HGA3     0.090000        1.0080           0
     45213 WT15     1210     MECN     H13      HGA3     0.090000        1.0080           0
     45214 WT15     1210     MECN     C2       CG1N1    0.360000       12.0110           0
     45215 WT15     1210     MECN     N3       NG1T1   -0.460000       14.0070           0
     45216 WT15     1211     MECN     C1       CG331   -0.170000       12.0110           0
     45217 WT15     1211     MECN     H11      HGA3     0.090000        1.0080           0
     45218 WT15     1211     MECN     H12      HGA3     0.090000        1.0080           0
     45219 WT15     1211     MECN     H13      HGA3     0.090000        1.0080           0
     45220 WT15     1211     MECN     C2       CG1N1    0.360000       12.0110           0
     45221 WT15     1211     MECN     N3       NG1T1   -0.460000       14.0070           0
     45222 WT15     1212     MECN     C1       CG331   -0.170000       12.0110           0
     45223 WT15     1212     MECN     H11      HGA3     0.090000        1.0080           0
     45224 WT15     1212     MECN     H12      HGA3     0.090000        1.0080           0
     45225 WT15     1212     MECN     H13      HGA3     0.090000        1.0080           0
     45226 WT15     1212     MECN     C2       CG1N1    0.360000       12.0110           0
     45227 WT15     1212     MECN     N3       NG1T1   -0.460000       14.0070           0
     45228 WT15     1213     MECN     C1       CG331   -0.170000       12.0110           0
     45229 WT15     1213     MECN     H11      HGA3     0.090000        1.0080           0
     45230 WT15     1213     MECN     H12      HGA3     0.090000        1.0080           0
     45231 WT15     1213     MECN     H13      HGA3     0.090000        1.0080           0
     45232 WT15     1213     MECN     C2       CG1N1    0.360000       12.0110           0
     45233 WT15     1213     MECN     N3       NG1T1   -0.460000       14.0070           0
     45234 WT15     1214     MECN     C1       CG331   -0.170000       12.0110           0
     45235 WT15     1214     MECN     H11      HGA3     0.090000        1.0080           0
     45236 WT15     1214     MECN     H12      HGA3     0.090000        1.0080           0
     45237 WT15     1214     MECN     H13      HGA3     0.090000        1.0080           0
     45238 WT15     1214     MECN     C2       CG1N1    0.360000       12.0110           0
     45239 WT15     1214     MECN     N3       NG1T1   -0.460000       14.0070           0
     45240 WT15     1215     MECN     C1       CG331   -0.170000       12.0110           0
     45241 WT15     1215     MECN     H11      HGA3     0.090000        1.0080           0
     45242 WT15     1215     MECN     H12      HGA3     0.090000        1.0080           0
     45243 WT15     1215     MECN     H13      HGA3     0.090000        1.0080           0
     45244 WT15     1215     MECN     C2       CG1N1    0.360000       12.0110           0
     45245 WT15     1215     MECN     N3       NG1T1   -0.460000       14.0070           0
     45246 WT15     1216     MECN     C1       CG331   -0.170000       12.0110           0
     45247 WT15     1216     MECN     H11      HGA3     0.090000        1.0080           0
     45248 WT15     1216     MECN     H12      HGA3     0.090000        1.0080           0
     45249 WT15     1216     MECN     H13      HGA3     0.090000        1.0080           0
     45250 WT15     1216     MECN     C2       CG1N1    0.360000       12.0110           0
     45251 WT15     1216     MECN     N3       NG1T1   -0.460000       14.0070           0
     45252 WT15     1217     MECN     C1       CG331   -0.170000       12.0110           0
     45253 WT15     1217     MECN     H11      HGA3     0.090000        1.0080           0
     45254 WT15     1217     MECN     H12      HGA3     0.090000        1.0080           0
     45255 WT15     1217     MECN     H13      HGA3     0.090000        1.0080           0
     45256 WT15     1217     MECN     C2       CG1N1    0.360000       12.0110           0
     45257 WT15     1217     MECN     N3       NG1T1   -0.460000       14.0070           0
     45258 WT15     1219     MECN     C1       CG331   -0.170000       12.0110           0
     45259 WT15     1219     MECN     H11      HGA3     0.090000        1.0080           0
     45260 WT15     1219     MECN     H12      HGA3     0.090000        1.0080           0
     45261 WT15     1219     MECN     H13      HGA3     0.090000        1.0080           0
     45262 WT15     1219     MECN     C2       CG1N1    0.360000       12.0110           0
     45263 WT15     1219     MECN     N3       NG1T1   -0.460000       14.0070           0
     45264 WT15     1220     MECN     C1       CG331   -0.170000       12.0110           0
     45265 WT15     1220     MECN     H11      HGA3     0.090000        1.0080           0
     45266 WT15     1220     MECN     H12      HGA3     0.090000        1.0080           0
     45267 WT15     1220     MECN     H13      HGA3     0.090000        1.0080           0
     45268 WT15     1220     MECN     C2       CG1N1    0.360000       12.0110           0
     45269 WT15     1220     MECN     N3       NG1T1   -0.460000       14.0070           0
     45270 WT15     1221     MECN     C1       CG331   -0.170000       12.0110           0
     45271 WT15     1221     MECN     H11      HGA3     0.090000        1.0080           0
     45272 WT15     1221     MECN     H12      HGA3     0.090000        1.0080           0
     45273 WT15     1221     MECN     H13      HGA3     0.090000        1.0080           0
     45274 WT15     1221     MECN     C2       CG1N1    0.360000       12.0110           0
     45275 WT15     1221     MECN     N3       NG1T1   -0.460000       14.0070           0
     45276 WT15     1222     MECN     C1       CG331   -0.170000       12.0110           0
     45277 WT15     1222     MECN     H11      HGA3     0.090000        1.0080           0
     45278 WT15     1222     MECN     H12      HGA3     0.090000        1.0080           0
     45279 WT15     1222     MECN     H13      HGA3     0.090000        1.0080           0
     45280 WT15     1222     MECN     C2       CG1N1    0.360000       12.0110           0
     45281 WT15     1222     MECN     N3       NG1T1   -0.460000       14.0070           0
     45282 WT15     1224     MECN     C1       CG331   -0.170000       12.0110           0
     45283 WT15     1224     MECN     H11      HGA3     0.090000        1.0080           0
     45284 WT15     1224     MECN     H12      HGA3     0.090000        1.0080           0
     45285 WT15     1224     MECN     H13      HGA3     0.090000        1.0080           0
     45286 WT15     1224     MECN     C2       CG1N1    0.360000       12.0110           0
     45287 WT15     1224     MECN     N3       NG1T1   -0.460000       14.0070           0
     45288 WT15     1225     MECN     C1       CG331   -0.170000       12.0110           0
     45289 WT15     1225     MECN     H11      HGA3     0.090000        1.0080           0
     45290 WT15     1225     MECN     H12      HGA3     0.090000        1.0080           0
     45291 WT15     1225     MECN     H13      HGA3     0.090000        1.0080           0
     45292 WT15     1225     MECN     C2       CG1N1    0.360000       12.0110           0
     45293 WT15     1225     MECN     N3       NG1T1   -0.460000       14.0070           0
     45294 WT15     1226     MECN     C1       CG331   -0.170000       12.0110           0
     45295 WT15     1226     MECN     H11      HGA3     0.090000        1.0080           0
     45296 WT15     1226     MECN     H12      HGA3     0.090000        1.0080           0
     45297 WT15     1226     MECN     H13      HGA3     0.090000        1.0080           0
     45298 WT15     1226     MECN     C2       CG1N1    0.360000       12.0110           0
     45299 WT15     1226     MECN     N3       NG1T1   -0.460000       14.0070           0
     45300 WT15     1227     MECN     C1       CG331   -0.170000       12.0110           0
     45301 WT15     1227     MECN     H11      HGA3     0.090000        1.0080           0
     45302 WT15     1227     MECN     H12      HGA3     0.090000        1.0080           0
     45303 WT15     1227     MECN     H13      HGA3     0.090000        1.0080           0
     45304 WT15     1227     MECN     C2       CG1N1    0.360000       12.0110           0
     45305 WT15     1227     MECN     N3       NG1T1   -0.460000       14.0070           0
     45306 WT15     1228     MECN     C1       CG331   -0.170000       12.0110           0
     45307 WT15     1228     MECN     H11      HGA3     0.090000        1.0080           0
     45308 WT15     1228     MECN     H12      HGA3     0.090000        1.0080           0
     45309 WT15     1228     MECN     H13      HGA3     0.090000        1.0080           0
     45310 WT15     1228     MECN     C2       CG1N1    0.360000       12.0110           0
     45311 WT15     1228     MECN     N3       NG1T1   -0.460000       14.0070           0
     45312 WT15     1231     MECN     C1       CG331   -0.170000       12.0110           0
     45313 WT15     1231     MECN     H11      HGA3     0.090000        1.0080           0
     45314 WT15     1231     MECN     H12      HGA3     0.090000        1.0080           0
     45315 WT15     1231     MECN     H13      HGA3     0.090000        1.0080           0
     45316 WT15     1231     MECN     C2       CG1N1    0.360000       12.0110           0
     45317 WT15     1231     MECN     N3       NG1T1   -0.460000       14.0070           0
     45318 WT15     1232     MECN     C1       CG331   -0.170000       12.0110           0
     45319 WT15     1232     MECN     H11      HGA3     0.090000        1.0080           0
     45320 WT15     1232     MECN     H12      HGA3     0.090000        1.0080           0
     45321 WT15     1232     MECN     H13      HGA3     0.090000        1.0080           0
     45322 WT15     1232     MECN     C2       CG1N1    0.360000       12.0110           0
     45323 WT15     1232     MECN     N3       NG1T1   -0.460000       14.0070           0
     45324 WT15     1233     MECN     C1       CG331   -0.170000       12.0110           0
     45325 WT15     1233     MECN     H11      HGA3     0.090000        1.0080           0
     45326 WT15     1233     MECN     H12      HGA3     0.090000        1.0080           0
     45327 WT15     1233     MECN     H13      HGA3     0.090000        1.0080           0
     45328 WT15     1233     MECN     C2       CG1N1    0.360000       12.0110           0
     45329 WT15     1233     MECN     N3       NG1T1   -0.460000       14.0070           0
     45330 WT15     1234     MECN     C1       CG331   -0.170000       12.0110           0
     45331 WT15     1234     MECN     H11      HGA3     0.090000        1.0080           0
     45332 WT15     1234     MECN     H12      HGA3     0.090000        1.0080           0
     45333 WT15     1234     MECN     H13      HGA3     0.090000        1.0080           0
     45334 WT15     1234     MECN     C2       CG1N1    0.360000       12.0110           0
     45335 WT15     1234     MECN     N3       NG1T1   -0.460000       14.0070           0
     45336 WT15     1235     MECN     C1       CG331   -0.170000       12.0110           0
     45337 WT15     1235     MECN     H11      HGA3     0.090000        1.0080           0
     45338 WT15     1235     MECN     H12      HGA3     0.090000        1.0080           0
     45339 WT15     1235     MECN     H13      HGA3     0.090000        1.0080           0
     45340 WT15     1235     MECN     C2       CG1N1    0.360000       12.0110           0
     45341 WT15     1235     MECN     N3       NG1T1   -0.460000       14.0070           0
     45342 WT15     1236     MECN     C1       CG331   -0.170000       12.0110           0
     45343 WT15     1236     MECN     H11      HGA3     0.090000        1.0080           0
     45344 WT15     1236     MECN     H12      HGA3     0.090000        1.0080           0
     45345 WT15     1236     MECN     H13      HGA3     0.090000        1.0080           0
     45346 WT15     1236     MECN     C2       CG1N1    0.360000       12.0110           0
     45347 WT15     1236     MECN     N3       NG1T1   -0.460000       14.0070           0
     45348 WT15     1237     MECN     C1       CG331   -0.170000       12.0110           0
     45349 WT15     1237     MECN     H11      HGA3     0.090000        1.0080           0
     45350 WT15     1237     MECN     H12      HGA3     0.090000        1.0080           0
     45351 WT15     1237     MECN     H13      HGA3     0.090000        1.0080           0
     45352 WT15     1237     MECN     C2       CG1N1    0.360000       12.0110           0
     45353 WT15     1237     MECN     N3       NG1T1   -0.460000       14.0070           0
     45354 WT15     1238     MECN     C1       CG331   -0.170000       12.0110           0
     45355 WT15     1238     MECN     H11      HGA3     0.090000        1.0080           0
     45356 WT15     1238     MECN     H12      HGA3     0.090000        1.0080           0
     45357 WT15     1238     MECN     H13      HGA3     0.090000        1.0080           0
     45358 WT15     1238     MECN     C2       CG1N1    0.360000       12.0110           0
     45359 WT15     1238     MECN     N3       NG1T1   -0.460000       14.0070           0
     45360 WT15     1240     MECN     C1       CG331   -0.170000       12.0110           0
     45361 WT15     1240     MECN     H11      HGA3     0.090000        1.0080           0
     45362 WT15     1240     MECN     H12      HGA3     0.090000        1.0080           0
     45363 WT15     1240     MECN     H13      HGA3     0.090000        1.0080           0
     45364 WT15     1240     MECN     C2       CG1N1    0.360000       12.0110           0
     45365 WT15     1240     MECN     N3       NG1T1   -0.460000       14.0070           0
     45366 WT15     1241     MECN     C1       CG331   -0.170000       12.0110           0
     45367 WT15     1241     MECN     H11      HGA3     0.090000        1.0080           0
     45368 WT15     1241     MECN     H12      HGA3     0.090000        1.0080           0
     45369 WT15     1241     MECN     H13      HGA3     0.090000        1.0080           0
     45370 WT15     1241     MECN     C2       CG1N1    0.360000       12.0110           0
     45371 WT15     1241     MECN     N3       NG1T1   -0.460000       14.0070           0
     45372 WT15     1242     MECN     C1       CG331   -0.170000       12.0110           0
     45373 WT15     1242     MECN     H11      HGA3     0.090000        1.0080           0
     45374 WT15     1242     MECN     H12      HGA3     0.090000        1.0080           0
     45375 WT15     1242     MECN     H13      HGA3     0.090000        1.0080           0
     45376 WT15     1242     MECN     C2       CG1N1    0.360000       12.0110           0
     45377 WT15     1242     MECN     N3       NG1T1   -0.460000       14.0070           0
     45378 WT15     1243     MECN     C1       CG331   -0.170000       12.0110           0
     45379 WT15     1243     MECN     H11      HGA3     0.090000        1.0080           0
     45380 WT15     1243     MECN     H12      HGA3     0.090000        1.0080           0
     45381 WT15     1243     MECN     H13      HGA3     0.090000        1.0080           0
     45382 WT15     1243     MECN     C2       CG1N1    0.360000       12.0110           0
     45383 WT15     1243     MECN     N3       NG1T1   -0.460000       14.0070           0
     45384 WT15     1244     MECN     C1       CG331   -0.170000       12.0110           0
     45385 WT15     1244     MECN     H11      HGA3     0.090000        1.0080           0
     45386 WT15     1244     MECN     H12      HGA3     0.090000        1.0080           0
     45387 WT15     1244     MECN     H13      HGA3     0.090000        1.0080           0
     45388 WT15     1244     MECN     C2       CG1N1    0.360000       12.0110           0
     45389 WT15     1244     MECN     N3       NG1T1   -0.460000       14.0070           0
     45390 WT15     1245     MECN     C1       CG331   -0.170000       12.0110           0
     45391 WT15     1245     MECN     H11      HGA3     0.090000        1.0080           0
     45392 WT15     1245     MECN     H12      HGA3     0.090000        1.0080           0
     45393 WT15     1245     MECN     H13      HGA3     0.090000        1.0080           0
     45394 WT15     1245     MECN     C2       CG1N1    0.360000       12.0110           0
     45395 WT15     1245     MECN     N3       NG1T1   -0.460000       14.0070           0
     45396 WT15     1246     MECN     C1       CG331   -0.170000       12.0110           0
     45397 WT15     1246     MECN     H11      HGA3     0.090000        1.0080           0
     45398 WT15     1246     MECN     H12      HGA3     0.090000        1.0080           0
     45399 WT15     1246     MECN     H13      HGA3     0.090000        1.0080           0
     45400 WT15     1246     MECN     C2       CG1N1    0.360000       12.0110           0
     45401 WT15     1246     MECN     N3       NG1T1   -0.460000       14.0070           0
     45402 WT15     1247     MECN     C1       CG331   -0.170000       12.0110           0
     45403 WT15     1247     MECN     H11      HGA3     0.090000        1.0080           0
     45404 WT15     1247     MECN     H12      HGA3     0.090000        1.0080           0
     45405 WT15     1247     MECN     H13      HGA3     0.090000        1.0080           0
     45406 WT15     1247     MECN     C2       CG1N1    0.360000       12.0110           0
     45407 WT15     1247     MECN     N3       NG1T1   -0.460000       14.0070           0
     45408 WT15     1248     MECN     C1       CG331   -0.170000       12.0110           0
     45409 WT15     1248     MECN     H11      HGA3     0.090000        1.0080           0
     45410 WT15     1248     MECN     H12      HGA3     0.090000        1.0080           0
     45411 WT15     1248     MECN     H13      HGA3     0.090000        1.0080           0
     45412 WT15     1248     MECN     C2       CG1N1    0.360000       12.0110           0
     45413 WT15     1248     MECN     N3       NG1T1   -0.460000       14.0070           0
     45414 WT15     1250     MECN     C1       CG331   -0.170000       12.0110           0
     45415 WT15     1250     MECN     H11      HGA3     0.090000        1.0080           0
     45416 WT15     1250     MECN     H12      HGA3     0.090000        1.0080           0
     45417 WT15     1250     MECN     H13      HGA3     0.090000        1.0080           0
     45418 WT15     1250     MECN     C2       CG1N1    0.360000       12.0110           0
     45419 WT15     1250     MECN     N3       NG1T1   -0.460000       14.0070           0
     45420 WT15     1251     MECN     C1       CG331   -0.170000       12.0110           0
     45421 WT15     1251     MECN     H11      HGA3     0.090000        1.0080           0
     45422 WT15     1251     MECN     H12      HGA3     0.090000        1.0080           0
     45423 WT15     1251     MECN     H13      HGA3     0.090000        1.0080           0
     45424 WT15     1251     MECN     C2       CG1N1    0.360000       12.0110           0
     45425 WT15     1251     MECN     N3       NG1T1   -0.460000       14.0070           0
     45426 WT15     1252     MECN     C1       CG331   -0.170000       12.0110           0
     45427 WT15     1252     MECN     H11      HGA3     0.090000        1.0080           0
     45428 WT15     1252     MECN     H12      HGA3     0.090000        1.0080           0
     45429 WT15     1252     MECN     H13      HGA3     0.090000        1.0080           0
     45430 WT15     1252     MECN     C2       CG1N1    0.360000       12.0110           0
     45431 WT15     1252     MECN     N3       NG1T1   -0.460000       14.0070           0
     45432 WT15     1254     MECN     C1       CG331   -0.170000       12.0110           0
     45433 WT15     1254     MECN     H11      HGA3     0.090000        1.0080           0
     45434 WT15     1254     MECN     H12      HGA3     0.090000        1.0080           0
     45435 WT15     1254     MECN     H13      HGA3     0.090000        1.0080           0
     45436 WT15     1254     MECN     C2       CG1N1    0.360000       12.0110           0
     45437 WT15     1254     MECN     N3       NG1T1   -0.460000       14.0070           0
     45438 WT15     1255     MECN     C1       CG331   -0.170000       12.0110           0
     45439 WT15     1255     MECN     H11      HGA3     0.090000        1.0080           0
     45440 WT15     1255     MECN     H12      HGA3     0.090000        1.0080           0
     45441 WT15     1255     MECN     H13      HGA3     0.090000        1.0080           0
     45442 WT15     1255     MECN     C2       CG1N1    0.360000       12.0110           0
     45443 WT15     1255     MECN     N3       NG1T1   -0.460000       14.0070           0
     45444 WT15     1256     MECN     C1       CG331   -0.170000       12.0110           0
     45445 WT15     1256     MECN     H11      HGA3     0.090000        1.0080           0
     45446 WT15     1256     MECN     H12      HGA3     0.090000        1.0080           0
     45447 WT15     1256     MECN     H13      HGA3     0.090000        1.0080           0
     45448 WT15     1256     MECN     C2       CG1N1    0.360000       12.0110           0
     45449 WT15     1256     MECN     N3       NG1T1   -0.460000       14.0070           0
     45450 WT15     1258     MECN     C1       CG331   -0.170000       12.0110           0
     45451 WT15     1258     MECN     H11      HGA3     0.090000        1.0080           0
     45452 WT15     1258     MECN     H12      HGA3     0.090000        1.0080           0
     45453 WT15     1258     MECN     H13      HGA3     0.090000        1.0080           0
     45454 WT15     1258     MECN     C2       CG1N1    0.360000       12.0110           0
     45455 WT15     1258     MECN     N3       NG1T1   -0.460000       14.0070           0
     45456 WT15     1259     MECN     C1       CG331   -0.170000       12.0110           0
     45457 WT15     1259     MECN     H11      HGA3     0.090000        1.0080           0
     45458 WT15     1259     MECN     H12      HGA3     0.090000        1.0080           0
     45459 WT15     1259     MECN     H13      HGA3     0.090000        1.0080           0
     45460 WT15     1259     MECN     C2       CG1N1    0.360000       12.0110           0
     45461 WT15     1259     MECN     N3       NG1T1   -0.460000       14.0070           0
     45462 WT15     1260     MECN     C1       CG331   -0.170000       12.0110           0
     45463 WT15     1260     MECN     H11      HGA3     0.090000        1.0080           0
     45464 WT15     1260     MECN     H12      HGA3     0.090000        1.0080           0
     45465 WT15     1260     MECN     H13      HGA3     0.090000        1.0080           0
     45466 WT15     1260     MECN     C2       CG1N1    0.360000       12.0110           0
     45467 WT15     1260     MECN     N3       NG1T1   -0.460000       14.0070           0
     45468 WT15     1262     MECN     C1       CG331   -0.170000       12.0110           0
     45469 WT15     1262     MECN     H11      HGA3     0.090000        1.0080           0
     45470 WT15     1262     MECN     H12      HGA3     0.090000        1.0080           0
     45471 WT15     1262     MECN     H13      HGA3     0.090000        1.0080           0
     45472 WT15     1262     MECN     C2       CG1N1    0.360000       12.0110           0
     45473 WT15     1262     MECN     N3       NG1T1   -0.460000       14.0070           0
     45474 WT15     1263     MECN     C1       CG331   -0.170000       12.0110           0
     45475 WT15     1263     MECN     H11      HGA3     0.090000        1.0080           0
     45476 WT15     1263     MECN     H12      HGA3     0.090000        1.0080           0
     45477 WT15     1263     MECN     H13      HGA3     0.090000        1.0080           0
     45478 WT15     1263     MECN     C2       CG1N1    0.360000       12.0110           0
     45479 WT15     1263     MECN     N3       NG1T1   -0.460000       14.0070           0
     45480 WT15     1264     MECN     C1       CG331   -0.170000       12.0110           0
     45481 WT15     1264     MECN     H11      HGA3     0.090000        1.0080           0
     45482 WT15     1264     MECN     H12      HGA3     0.090000        1.0080           0
     45483 WT15     1264     MECN     H13      HGA3     0.090000        1.0080           0
     45484 WT15     1264     MECN     C2       CG1N1    0.360000       12.0110           0
     45485 WT15     1264     MECN     N3       NG1T1   -0.460000       14.0070           0
     45486 WT15     1265     MECN     C1       CG331   -0.170000       12.0110           0
     45487 WT15     1265     MECN     H11      HGA3     0.090000        1.0080           0
     45488 WT15     1265     MECN     H12      HGA3     0.090000        1.0080           0
     45489 WT15     1265     MECN     H13      HGA3     0.090000        1.0080           0
     45490 WT15     1265     MECN     C2       CG1N1    0.360000       12.0110           0
     45491 WT15     1265     MECN     N3       NG1T1   -0.460000       14.0070           0
     45492 WT15     1266     MECN     C1       CG331   -0.170000       12.0110           0
     45493 WT15     1266     MECN     H11      HGA3     0.090000        1.0080           0
     45494 WT15     1266     MECN     H12      HGA3     0.090000        1.0080           0
     45495 WT15     1266     MECN     H13      HGA3     0.090000        1.0080           0
     45496 WT15     1266     MECN     C2       CG1N1    0.360000       12.0110           0
     45497 WT15     1266     MECN     N3       NG1T1   -0.460000       14.0070           0
     45498 WT15     1268     MECN     C1       CG331   -0.170000       12.0110           0
     45499 WT15     1268     MECN     H11      HGA3     0.090000        1.0080           0
     45500 WT15     1268     MECN     H12      HGA3     0.090000        1.0080           0
     45501 WT15     1268     MECN     H13      HGA3     0.090000        1.0080           0
     45502 WT15     1268     MECN     C2       CG1N1    0.360000       12.0110           0
     45503 WT15     1268     MECN     N3       NG1T1   -0.460000       14.0070           0
     45504 WT15     1269     MECN     C1       CG331   -0.170000       12.0110           0
     45505 WT15     1269     MECN     H11      HGA3     0.090000        1.0080           0
     45506 WT15     1269     MECN     H12      HGA3     0.090000        1.0080           0
     45507 WT15     1269     MECN     H13      HGA3     0.090000        1.0080           0
     45508 WT15     1269     MECN     C2       CG1N1    0.360000       12.0110           0
     45509 WT15     1269     MECN     N3       NG1T1   -0.460000       14.0070           0
     45510 WT15     1272     MECN     C1       CG331   -0.170000       12.0110           0
     45511 WT15     1272     MECN     H11      HGA3     0.090000        1.0080           0
     45512 WT15     1272     MECN     H12      HGA3     0.090000        1.0080           0
     45513 WT15     1272     MECN     H13      HGA3     0.090000        1.0080           0
     45514 WT15     1272     MECN     C2       CG1N1    0.360000       12.0110           0
     45515 WT15     1272     MECN     N3       NG1T1   -0.460000       14.0070           0
     45516 WT15     1275     MECN     C1       CG331   -0.170000       12.0110           0
     45517 WT15     1275     MECN     H11      HGA3     0.090000        1.0080           0
     45518 WT15     1275     MECN     H12      HGA3     0.090000        1.0080           0
     45519 WT15     1275     MECN     H13      HGA3     0.090000        1.0080           0
     45520 WT15     1275     MECN     C2       CG1N1    0.360000       12.0110           0
     45521 WT15     1275     MECN     N3       NG1T1   -0.460000       14.0070           0
     45522 WT15     1277     MECN     C1       CG331   -0.170000       12.0110           0
     45523 WT15     1277     MECN     H11      HGA3     0.090000        1.0080           0
     45524 WT15     1277     MECN     H12      HGA3     0.090000        1.0080           0
     45525 WT15     1277     MECN     H13      HGA3     0.090000        1.0080           0
     45526 WT15     1277     MECN     C2       CG1N1    0.360000       12.0110           0
     45527 WT15     1277     MECN     N3       NG1T1   -0.460000       14.0070           0
     45528 WT15     1278     MECN     C1       CG331   -0.170000       12.0110           0
     45529 WT15     1278     MECN     H11      HGA3     0.090000        1.0080           0
     45530 WT15     1278     MECN     H12      HGA3     0.090000        1.0080           0
     45531 WT15     1278     MECN     H13      HGA3     0.090000        1.0080           0
     45532 WT15     1278     MECN     C2       CG1N1    0.360000       12.0110           0
     45533 WT15     1278     MECN     N3       NG1T1   -0.460000       14.0070           0
     45534 WT15     1279     MECN     C1       CG331   -0.170000       12.0110           0
     45535 WT15     1279     MECN     H11      HGA3     0.090000        1.0080           0
     45536 WT15     1279     MECN     H12      HGA3     0.090000        1.0080           0
     45537 WT15     1279     MECN     H13      HGA3     0.090000        1.0080           0
     45538 WT15     1279     MECN     C2       CG1N1    0.360000       12.0110           0
     45539 WT15     1279     MECN     N3       NG1T1   -0.460000       14.0070           0
     45540 WT15     1280     MECN     C1       CG331   -0.170000       12.0110           0
     45541 WT15     1280     MECN     H11      HGA3     0.090000        1.0080           0
     45542 WT15     1280     MECN     H12      HGA3     0.090000        1.0080           0
     45543 WT15     1280     MECN     H13      HGA3     0.090000        1.0080           0
     45544 WT15     1280     MECN     C2       CG1N1    0.360000       12.0110           0
     45545 WT15     1280     MECN     N3       NG1T1   -0.460000       14.0070           0
     45546 WT15     1282     MECN     C1       CG331   -0.170000       12.0110           0
     45547 WT15     1282     MECN     H11      HGA3     0.090000        1.0080           0
     45548 WT15     1282     MECN     H12      HGA3     0.090000        1.0080           0
     45549 WT15     1282     MECN     H13      HGA3     0.090000        1.0080           0
     45550 WT15     1282     MECN     C2       CG1N1    0.360000       12.0110           0
     45551 WT15     1282     MECN     N3       NG1T1   -0.460000       14.0070           0
     45552 WT15     1283     MECN     C1       CG331   -0.170000       12.0110           0
     45553 WT15     1283     MECN     H11      HGA3     0.090000        1.0080           0
     45554 WT15     1283     MECN     H12      HGA3     0.090000        1.0080           0
     45555 WT15     1283     MECN     H13      HGA3     0.090000        1.0080           0
     45556 WT15     1283     MECN     C2       CG1N1    0.360000       12.0110           0
     45557 WT15     1283     MECN     N3       NG1T1   -0.460000       14.0070           0
     45558 WT15     1285     MECN     C1       CG331   -0.170000       12.0110           0
     45559 WT15     1285     MECN     H11      HGA3     0.090000        1.0080           0
     45560 WT15     1285     MECN     H12      HGA3     0.090000        1.0080           0
     45561 WT15     1285     MECN     H13      HGA3     0.090000        1.0080           0
     45562 WT15     1285     MECN     C2       CG1N1    0.360000       12.0110           0
     45563 WT15     1285     MECN     N3       NG1T1   -0.460000       14.0070           0
     45564 WT15     1286     MECN     C1       CG331   -0.170000       12.0110           0
     45565 WT15     1286     MECN     H11      HGA3     0.090000        1.0080           0
     45566 WT15     1286     MECN     H12      HGA3     0.090000        1.0080           0
     45567 WT15     1286     MECN     H13      HGA3     0.090000        1.0080           0
     45568 WT15     1286     MECN     C2       CG1N1    0.360000       12.0110           0
     45569 WT15     1286     MECN     N3       NG1T1   -0.460000       14.0070           0
     45570 WT15     1288     MECN     C1       CG331   -0.170000       12.0110           0
     45571 WT15     1288     MECN     H11      HGA3     0.090000        1.0080           0
     45572 WT15     1288     MECN     H12      HGA3     0.090000        1.0080           0
     45573 WT15     1288     MECN     H13      HGA3     0.090000        1.0080           0
     45574 WT15     1288     MECN     C2       CG1N1    0.360000       12.0110           0
     45575 WT15     1288     MECN     N3       NG1T1   -0.460000       14.0070           0
     45576 WT15     1290     MECN     C1       CG331   -0.170000       12.0110           0
     45577 WT15     1290     MECN     H11      HGA3     0.090000        1.0080           0
     45578 WT15     1290     MECN     H12      HGA3     0.090000        1.0080           0
     45579 WT15     1290     MECN     H13      HGA3     0.090000        1.0080           0
     45580 WT15     1290     MECN     C2       CG1N1    0.360000       12.0110           0
     45581 WT15     1290     MECN     N3       NG1T1   -0.460000       14.0070           0
     45582 WT15     1291     MECN     C1       CG331   -0.170000       12.0110           0
     45583 WT15     1291     MECN     H11      HGA3     0.090000        1.0080           0
     45584 WT15     1291     MECN     H12      HGA3     0.090000        1.0080           0
     45585 WT15     1291     MECN     H13      HGA3     0.090000        1.0080           0
     45586 WT15     1291     MECN     C2       CG1N1    0.360000       12.0110           0
     45587 WT15     1291     MECN     N3       NG1T1   -0.460000       14.0070           0
     45588 WT15     1296     MECN     C1       CG331   -0.170000       12.0110           0
     45589 WT15     1296     MECN     H11      HGA3     0.090000        1.0080           0
     45590 WT15     1296     MECN     H12      HGA3     0.090000        1.0080           0
     45591 WT15     1296     MECN     H13      HGA3     0.090000        1.0080           0
     45592 WT15     1296     MECN     C2       CG1N1    0.360000       12.0110           0
     45593 WT15     1296     MECN     N3       NG1T1   -0.460000       14.0070           0
     45594 WT15     1297     MECN     C1       CG331   -0.170000       12.0110           0
     45595 WT15     1297     MECN     H11      HGA3     0.090000        1.0080           0
     45596 WT15     1297     MECN     H12      HGA3     0.090000        1.0080           0
     45597 WT15     1297     MECN     H13      HGA3     0.090000        1.0080           0
     45598 WT15     1297     MECN     C2       CG1N1    0.360000       12.0110           0
     45599 WT15     1297     MECN     N3       NG1T1   -0.460000       14.0070           0
     45600 WT15     1299     MECN     C1       CG331   -0.170000       12.0110           0
     45601 WT15     1299     MECN     H11      HGA3     0.090000        1.0080           0
     45602 WT15     1299     MECN     H12      HGA3     0.090000        1.0080           0
     45603 WT15     1299     MECN     H13      HGA3     0.090000        1.0080           0
     45604 WT15     1299     MECN     C2       CG1N1    0.360000       12.0110           0
     45605 WT15     1299     MECN     N3       NG1T1   -0.460000       14.0070           0
     45606 WT15     1301     MECN     C1       CG331   -0.170000       12.0110           0
     45607 WT15     1301     MECN     H11      HGA3     0.090000        1.0080           0
     45608 WT15     1301     MECN     H12      HGA3     0.090000        1.0080           0
     45609 WT15     1301     MECN     H13      HGA3     0.090000        1.0080           0
     45610 WT15     1301     MECN     C2       CG1N1    0.360000       12.0110           0
     45611 WT15     1301     MECN     N3       NG1T1   -0.460000       14.0070           0
     45612 WT15     1302     MECN     C1       CG331   -0.170000       12.0110           0
     45613 WT15     1302     MECN     H11      HGA3     0.090000        1.0080           0
     45614 WT15     1302     MECN     H12      HGA3     0.090000        1.0080           0
     45615 WT15     1302     MECN     H13      HGA3     0.090000        1.0080           0
     45616 WT15     1302     MECN     C2       CG1N1    0.360000       12.0110           0
     45617 WT15     1302     MECN     N3       NG1T1   -0.460000       14.0070           0
     45618 WT15     1305     MECN     C1       CG331   -0.170000       12.0110           0
     45619 WT15     1305     MECN     H11      HGA3     0.090000        1.0080           0
     45620 WT15     1305     MECN     H12      HGA3     0.090000        1.0080           0
     45621 WT15     1305     MECN     H13      HGA3     0.090000        1.0080           0
     45622 WT15     1305     MECN     C2       CG1N1    0.360000       12.0110           0
     45623 WT15     1305     MECN     N3       NG1T1   -0.460000       14.0070           0
     45624 WT15     1308     MECN     C1       CG331   -0.170000       12.0110           0
     45625 WT15     1308     MECN     H11      HGA3     0.090000        1.0080           0
     45626 WT15     1308     MECN     H12      HGA3     0.090000        1.0080           0
     45627 WT15     1308     MECN     H13      HGA3     0.090000        1.0080           0
     45628 WT15     1308     MECN     C2       CG1N1    0.360000       12.0110           0
     45629 WT15     1308     MECN     N3       NG1T1   -0.460000       14.0070           0
     45630 WT15     1309     MECN     C1       CG331   -0.170000       12.0110           0
     45631 WT15     1309     MECN     H11      HGA3     0.090000        1.0080           0
     45632 WT15     1309     MECN     H12      HGA3     0.090000        1.0080           0
     45633 WT15     1309     MECN     H13      HGA3     0.090000        1.0080           0
     45634 WT15     1309     MECN     C2       CG1N1    0.360000       12.0110           0
     45635 WT15     1309     MECN     N3       NG1T1   -0.460000       14.0070           0
     45636 WT15     1311     MECN     C1       CG331   -0.170000       12.0110           0
     45637 WT15     1311     MECN     H11      HGA3     0.090000        1.0080           0
     45638 WT15     1311     MECN     H12      HGA3     0.090000        1.0080           0
     45639 WT15     1311     MECN     H13      HGA3     0.090000        1.0080           0
     45640 WT15     1311     MECN     C2       CG1N1    0.360000       12.0110           0
     45641 WT15     1311     MECN     N3       NG1T1   -0.460000       14.0070           0
     45642 WT15     1313     MECN     C1       CG331   -0.170000       12.0110           0
     45643 WT15     1313     MECN     H11      HGA3     0.090000        1.0080           0
     45644 WT15     1313     MECN     H12      HGA3     0.090000        1.0080           0
     45645 WT15     1313     MECN     H13      HGA3     0.090000        1.0080           0
     45646 WT15     1313     MECN     C2       CG1N1    0.360000       12.0110           0
     45647 WT15     1313     MECN     N3       NG1T1   -0.460000       14.0070           0
     45648 WT15     1314     MECN     C1       CG331   -0.170000       12.0110           0
     45649 WT15     1314     MECN     H11      HGA3     0.090000        1.0080           0
     45650 WT15     1314     MECN     H12      HGA3     0.090000        1.0080           0
     45651 WT15     1314     MECN     H13      HGA3     0.090000        1.0080           0
     45652 WT15     1314     MECN     C2       CG1N1    0.360000       12.0110           0
     45653 WT15     1314     MECN     N3       NG1T1   -0.460000       14.0070           0
     45654 WT15     1316     MECN     C1       CG331   -0.170000       12.0110           0
     45655 WT15     1316     MECN     H11      HGA3     0.090000        1.0080           0
     45656 WT15     1316     MECN     H12      HGA3     0.090000        1.0080           0
     45657 WT15     1316     MECN     H13      HGA3     0.090000        1.0080           0
     45658 WT15     1316     MECN     C2       CG1N1    0.360000       12.0110           0
     45659 WT15     1316     MECN     N3       NG1T1   -0.460000       14.0070           0
     45660 WT15     1318     MECN     C1       CG331   -0.170000       12.0110           0
     45661 WT15     1318     MECN     H11      HGA3     0.090000        1.0080           0
     45662 WT15     1318     MECN     H12      HGA3     0.090000        1.0080           0
     45663 WT15     1318     MECN     H13      HGA3     0.090000        1.0080           0
     45664 WT15     1318     MECN     C2       CG1N1    0.360000       12.0110           0
     45665 WT15     1318     MECN     N3       NG1T1   -0.460000       14.0070           0
     45666 WT15     1319     MECN     C1       CG331   -0.170000       12.0110           0
     45667 WT15     1319     MECN     H11      HGA3     0.090000        1.0080           0
     45668 WT15     1319     MECN     H12      HGA3     0.090000        1.0080           0
     45669 WT15     1319     MECN     H13      HGA3     0.090000        1.0080           0
     45670 WT15     1319     MECN     C2       CG1N1    0.360000       12.0110           0
     45671 WT15     1319     MECN     N3       NG1T1   -0.460000       14.0070           0
     45672 WT15     1320     MECN     C1       CG331   -0.170000       12.0110           0
     45673 WT15     1320     MECN     H11      HGA3     0.090000        1.0080           0
     45674 WT15     1320     MECN     H12      HGA3     0.090000        1.0080           0
     45675 WT15     1320     MECN     H13      HGA3     0.090000        1.0080           0
     45676 WT15     1320     MECN     C2       CG1N1    0.360000       12.0110           0
     45677 WT15     1320     MECN     N3       NG1T1   -0.460000       14.0070           0
     45678 WT15     1321     MECN     C1       CG331   -0.170000       12.0110           0
     45679 WT15     1321     MECN     H11      HGA3     0.090000        1.0080           0
     45680 WT15     1321     MECN     H12      HGA3     0.090000        1.0080           0
     45681 WT15     1321     MECN     H13      HGA3     0.090000        1.0080           0
     45682 WT15     1321     MECN     C2       CG1N1    0.360000       12.0110           0
     45683 WT15     1321     MECN     N3       NG1T1   -0.460000       14.0070           0
     45684 WT15     1322     MECN     C1       CG331   -0.170000       12.0110           0
     45685 WT15     1322     MECN     H11      HGA3     0.090000        1.0080           0
     45686 WT15     1322     MECN     H12      HGA3     0.090000        1.0080           0
     45687 WT15     1322     MECN     H13      HGA3     0.090000        1.0080           0
     45688 WT15     1322     MECN     C2       CG1N1    0.360000       12.0110           0
     45689 WT15     1322     MECN     N3       NG1T1   -0.460000       14.0070           0
     45690 WT15     1323     MECN     C1       CG331   -0.170000       12.0110           0
     45691 WT15     1323     MECN     H11      HGA3     0.090000        1.0080           0
     45692 WT15     1323     MECN     H12      HGA3     0.090000        1.0080           0
     45693 WT15     1323     MECN     H13      HGA3     0.090000        1.0080           0
     45694 WT15     1323     MECN     C2       CG1N1    0.360000       12.0110           0
     45695 WT15     1323     MECN     N3       NG1T1   -0.460000       14.0070           0
     45696 WT15     1324     MECN     C1       CG331   -0.170000       12.0110           0
     45697 WT15     1324     MECN     H11      HGA3     0.090000        1.0080           0
     45698 WT15     1324     MECN     H12      HGA3     0.090000        1.0080           0
     45699 WT15     1324     MECN     H13      HGA3     0.090000        1.0080           0
     45700 WT15     1324     MECN     C2       CG1N1    0.360000       12.0110           0
     45701 WT15     1324     MECN     N3       NG1T1   -0.460000       14.0070           0
     45702 WT15     1327     MECN     C1       CG331   -0.170000       12.0110           0
     45703 WT15     1327     MECN     H11      HGA3     0.090000        1.0080           0
     45704 WT15     1327     MECN     H12      HGA3     0.090000        1.0080           0
     45705 WT15     1327     MECN     H13      HGA3     0.090000        1.0080           0
     45706 WT15     1327     MECN     C2       CG1N1    0.360000       12.0110           0
     45707 WT15     1327     MECN     N3       NG1T1   -0.460000       14.0070           0
     45708 WT15     1328     MECN     C1       CG331   -0.170000       12.0110           0
     45709 WT15     1328     MECN     H11      HGA3     0.090000        1.0080           0
     45710 WT15     1328     MECN     H12      HGA3     0.090000        1.0080           0
     45711 WT15     1328     MECN     H13      HGA3     0.090000        1.0080           0
     45712 WT15     1328     MECN     C2       CG1N1    0.360000       12.0110           0
     45713 WT15     1328     MECN     N3       NG1T1   -0.460000       14.0070           0
     45714 WT15     1329     MECN     C1       CG331   -0.170000       12.0110           0
     45715 WT15     1329     MECN     H11      HGA3     0.090000        1.0080           0
     45716 WT15     1329     MECN     H12      HGA3     0.090000        1.0080           0
     45717 WT15     1329     MECN     H13      HGA3     0.090000        1.0080           0
     45718 WT15     1329     MECN     C2       CG1N1    0.360000       12.0110           0
     45719 WT15     1329     MECN     N3       NG1T1   -0.460000       14.0070           0
     45720 WT15     1330     MECN     C1       CG331   -0.170000       12.0110           0
     45721 WT15     1330     MECN     H11      HGA3     0.090000        1.0080           0
     45722 WT15     1330     MECN     H12      HGA3     0.090000        1.0080           0
     45723 WT15     1330     MECN     H13      HGA3     0.090000        1.0080           0
     45724 WT15     1330     MECN     C2       CG1N1    0.360000       12.0110           0
     45725 WT15     1330     MECN     N3       NG1T1   -0.460000       14.0070           0
     45726 WT15     1331     MECN     C1       CG331   -0.170000       12.0110           0
     45727 WT15     1331     MECN     H11      HGA3     0.090000        1.0080           0
     45728 WT15     1331     MECN     H12      HGA3     0.090000        1.0080           0
     45729 WT15     1331     MECN     H13      HGA3     0.090000        1.0080           0
     45730 WT15     1331     MECN     C2       CG1N1    0.360000       12.0110           0
     45731 WT15     1331     MECN     N3       NG1T1   -0.460000       14.0070           0
     45732 WT16     1        MECN     C1       CG331   -0.170000       12.0110           0
     45733 WT16     1        MECN     H11      HGA3     0.090000        1.0080           0
     45734 WT16     1        MECN     H12      HGA3     0.090000        1.0080           0
     45735 WT16     1        MECN     H13      HGA3     0.090000        1.0080           0
     45736 WT16     1        MECN     C2       CG1N1    0.360000       12.0110           0
     45737 WT16     1        MECN     N3       NG1T1   -0.460000       14.0070           0
     45738 WT16     4        MECN     C1       CG331   -0.170000       12.0110           0
     45739 WT16     4        MECN     H11      HGA3     0.090000        1.0080           0
     45740 WT16     4        MECN     H12      HGA3     0.090000        1.0080           0
     45741 WT16     4        MECN     H13      HGA3     0.090000        1.0080           0
     45742 WT16     4        MECN     C2       CG1N1    0.360000       12.0110           0
     45743 WT16     4        MECN     N3       NG1T1   -0.460000       14.0070           0
     45744 WT16     8        MECN     C1       CG331   -0.170000       12.0110           0
     45745 WT16     8        MECN     H11      HGA3     0.090000        1.0080           0
     45746 WT16     8        MECN     H12      HGA3     0.090000        1.0080           0
     45747 WT16     8        MECN     H13      HGA3     0.090000        1.0080           0
     45748 WT16     8        MECN     C2       CG1N1    0.360000       12.0110           0
     45749 WT16     8        MECN     N3       NG1T1   -0.460000       14.0070           0
     45750 WT16     9        MECN     C1       CG331   -0.170000       12.0110           0
     45751 WT16     9        MECN     H11      HGA3     0.090000        1.0080           0
     45752 WT16     9        MECN     H12      HGA3     0.090000        1.0080           0
     45753 WT16     9        MECN     H13      HGA3     0.090000        1.0080           0
     45754 WT16     9        MECN     C2       CG1N1    0.360000       12.0110           0
     45755 WT16     9        MECN     N3       NG1T1   -0.460000       14.0070           0
     45756 WT16     17       MECN     C1       CG331   -0.170000       12.0110           0
     45757 WT16     17       MECN     H11      HGA3     0.090000        1.0080           0
     45758 WT16     17       MECN     H12      HGA3     0.090000        1.0080           0
     45759 WT16     17       MECN     H13      HGA3     0.090000        1.0080           0
     45760 WT16     17       MECN     C2       CG1N1    0.360000       12.0110           0
     45761 WT16     17       MECN     N3       NG1T1   -0.460000       14.0070           0
     45762 WT16     25       MECN     C1       CG331   -0.170000       12.0110           0
     45763 WT16     25       MECN     H11      HGA3     0.090000        1.0080           0
     45764 WT16     25       MECN     H12      HGA3     0.090000        1.0080           0
     45765 WT16     25       MECN     H13      HGA3     0.090000        1.0080           0
     45766 WT16     25       MECN     C2       CG1N1    0.360000       12.0110           0
     45767 WT16     25       MECN     N3       NG1T1   -0.460000       14.0070           0
     45768 WT16     31       MECN     C1       CG331   -0.170000       12.0110           0
     45769 WT16     31       MECN     H11      HGA3     0.090000        1.0080           0
     45770 WT16     31       MECN     H12      HGA3     0.090000        1.0080           0
     45771 WT16     31       MECN     H13      HGA3     0.090000        1.0080           0
     45772 WT16     31       MECN     C2       CG1N1    0.360000       12.0110           0
     45773 WT16     31       MECN     N3       NG1T1   -0.460000       14.0070           0
     45774 WT16     34       MECN     C1       CG331   -0.170000       12.0110           0
     45775 WT16     34       MECN     H11      HGA3     0.090000        1.0080           0
     45776 WT16     34       MECN     H12      HGA3     0.090000        1.0080           0
     45777 WT16     34       MECN     H13      HGA3     0.090000        1.0080           0
     45778 WT16     34       MECN     C2       CG1N1    0.360000       12.0110           0
     45779 WT16     34       MECN     N3       NG1T1   -0.460000       14.0070           0
     45780 WT16     36       MECN     C1       CG331   -0.170000       12.0110           0
     45781 WT16     36       MECN     H11      HGA3     0.090000        1.0080           0
     45782 WT16     36       MECN     H12      HGA3     0.090000        1.0080           0
     45783 WT16     36       MECN     H13      HGA3     0.090000        1.0080           0
     45784 WT16     36       MECN     C2       CG1N1    0.360000       12.0110           0
     45785 WT16     36       MECN     N3       NG1T1   -0.460000       14.0070           0
     45786 WT16     37       MECN     C1       CG331   -0.170000       12.0110           0
     45787 WT16     37       MECN     H11      HGA3     0.090000        1.0080           0
     45788 WT16     37       MECN     H12      HGA3     0.090000        1.0080           0
     45789 WT16     37       MECN     H13      HGA3     0.090000        1.0080           0
     45790 WT16     37       MECN     C2       CG1N1    0.360000       12.0110           0
     45791 WT16     37       MECN     N3       NG1T1   -0.460000       14.0070           0
     45792 WT16     38       MECN     C1       CG331   -0.170000       12.0110           0
     45793 WT16     38       MECN     H11      HGA3     0.090000        1.0080           0
     45794 WT16     38       MECN     H12      HGA3     0.090000        1.0080           0
     45795 WT16     38       MECN     H13      HGA3     0.090000        1.0080           0
     45796 WT16     38       MECN     C2       CG1N1    0.360000       12.0110           0
     45797 WT16     38       MECN     N3       NG1T1   -0.460000       14.0070           0
     45798 WT16     39       MECN     C1       CG331   -0.170000       12.0110           0
     45799 WT16     39       MECN     H11      HGA3     0.090000        1.0080           0
     45800 WT16     39       MECN     H12      HGA3     0.090000        1.0080           0
     45801 WT16     39       MECN     H13      HGA3     0.090000        1.0080           0
     45802 WT16     39       MECN     C2       CG1N1    0.360000       12.0110           0
     45803 WT16     39       MECN     N3       NG1T1   -0.460000       14.0070           0
     45804 WT16     42       MECN     C1       CG331   -0.170000       12.0110           0
     45805 WT16     42       MECN     H11      HGA3     0.090000        1.0080           0
     45806 WT16     42       MECN     H12      HGA3     0.090000        1.0080           0
     45807 WT16     42       MECN     H13      HGA3     0.090000        1.0080           0
     45808 WT16     42       MECN     C2       CG1N1    0.360000       12.0110           0
     45809 WT16     42       MECN     N3       NG1T1   -0.460000       14.0070           0
     45810 WT16     43       MECN     C1       CG331   -0.170000       12.0110           0
     45811 WT16     43       MECN     H11      HGA3     0.090000        1.0080           0
     45812 WT16     43       MECN     H12      HGA3     0.090000        1.0080           0
     45813 WT16     43       MECN     H13      HGA3     0.090000        1.0080           0
     45814 WT16     43       MECN     C2       CG1N1    0.360000       12.0110           0
     45815 WT16     43       MECN     N3       NG1T1   -0.460000       14.0070           0
     45816 WT16     46       MECN     C1       CG331   -0.170000       12.0110           0
     45817 WT16     46       MECN     H11      HGA3     0.090000        1.0080           0
     45818 WT16     46       MECN     H12      HGA3     0.090000        1.0080           0
     45819 WT16     46       MECN     H13      HGA3     0.090000        1.0080           0
     45820 WT16     46       MECN     C2       CG1N1    0.360000       12.0110           0
     45821 WT16     46       MECN     N3       NG1T1   -0.460000       14.0070           0
     45822 WT16     57       MECN     C1       CG331   -0.170000       12.0110           0
     45823 WT16     57       MECN     H11      HGA3     0.090000        1.0080           0
     45824 WT16     57       MECN     H12      HGA3     0.090000        1.0080           0
     45825 WT16     57       MECN     H13      HGA3     0.090000        1.0080           0
     45826 WT16     57       MECN     C2       CG1N1    0.360000       12.0110           0
     45827 WT16     57       MECN     N3       NG1T1   -0.460000       14.0070           0
     45828 WT16     59       MECN     C1       CG331   -0.170000       12.0110           0
     45829 WT16     59       MECN     H11      HGA3     0.090000        1.0080           0
     45830 WT16     59       MECN     H12      HGA3     0.090000        1.0080           0
     45831 WT16     59       MECN     H13      HGA3     0.090000        1.0080           0
     45832 WT16     59       MECN     C2       CG1N1    0.360000       12.0110           0
     45833 WT16     59       MECN     N3       NG1T1   -0.460000       14.0070           0
     45834 WT16     60       MECN     C1       CG331   -0.170000       12.0110           0
     45835 WT16     60       MECN     H11      HGA3     0.090000        1.0080           0
     45836 WT16     60       MECN     H12      HGA3     0.090000        1.0080           0
     45837 WT16     60       MECN     H13      HGA3     0.090000        1.0080           0
     45838 WT16     60       MECN     C2       CG1N1    0.360000       12.0110           0
     45839 WT16     60       MECN     N3       NG1T1   -0.460000       14.0070           0
     45840 WT16     62       MECN     C1       CG331   -0.170000       12.0110           0
     45841 WT16     62       MECN     H11      HGA3     0.090000        1.0080           0
     45842 WT16     62       MECN     H12      HGA3     0.090000        1.0080           0
     45843 WT16     62       MECN     H13      HGA3     0.090000        1.0080           0
     45844 WT16     62       MECN     C2       CG1N1    0.360000       12.0110           0
     45845 WT16     62       MECN     N3       NG1T1   -0.460000       14.0070           0
     45846 WT16     63       MECN     C1       CG331   -0.170000       12.0110           0
     45847 WT16     63       MECN     H11      HGA3     0.090000        1.0080           0
     45848 WT16     63       MECN     H12      HGA3     0.090000        1.0080           0
     45849 WT16     63       MECN     H13      HGA3     0.090000        1.0080           0
     45850 WT16     63       MECN     C2       CG1N1    0.360000       12.0110           0
     45851 WT16     63       MECN     N3       NG1T1   -0.460000       14.0070           0
     45852 WT16     71       MECN     C1       CG331   -0.170000       12.0110           0
     45853 WT16     71       MECN     H11      HGA3     0.090000        1.0080           0
     45854 WT16     71       MECN     H12      HGA3     0.090000        1.0080           0
     45855 WT16     71       MECN     H13      HGA3     0.090000        1.0080           0
     45856 WT16     71       MECN     C2       CG1N1    0.360000       12.0110           0
     45857 WT16     71       MECN     N3       NG1T1   -0.460000       14.0070           0
     45858 WT16     72       MECN     C1       CG331   -0.170000       12.0110           0
     45859 WT16     72       MECN     H11      HGA3     0.090000        1.0080           0
     45860 WT16     72       MECN     H12      HGA3     0.090000        1.0080           0
     45861 WT16     72       MECN     H13      HGA3     0.090000        1.0080           0
     45862 WT16     72       MECN     C2       CG1N1    0.360000       12.0110           0
     45863 WT16     72       MECN     N3       NG1T1   -0.460000       14.0070           0
     45864 WT16     73       MECN     C1       CG331   -0.170000       12.0110           0
     45865 WT16     73       MECN     H11      HGA3     0.090000        1.0080           0
     45866 WT16     73       MECN     H12      HGA3     0.090000        1.0080           0
     45867 WT16     73       MECN     H13      HGA3     0.090000        1.0080           0
     45868 WT16     73       MECN     C2       CG1N1    0.360000       12.0110           0
     45869 WT16     73       MECN     N3       NG1T1   -0.460000       14.0070           0
     45870 WT16     75       MECN     C1       CG331   -0.170000       12.0110           0
     45871 WT16     75       MECN     H11      HGA3     0.090000        1.0080           0
     45872 WT16     75       MECN     H12      HGA3     0.090000        1.0080           0
     45873 WT16     75       MECN     H13      HGA3     0.090000        1.0080           0
     45874 WT16     75       MECN     C2       CG1N1    0.360000       12.0110           0
     45875 WT16     75       MECN     N3       NG1T1   -0.460000       14.0070           0
     45876 WT16     78       MECN     C1       CG331   -0.170000       12.0110           0
     45877 WT16     78       MECN     H11      HGA3     0.090000        1.0080           0
     45878 WT16     78       MECN     H12      HGA3     0.090000        1.0080           0
     45879 WT16     78       MECN     H13      HGA3     0.090000        1.0080           0
     45880 WT16     78       MECN     C2       CG1N1    0.360000       12.0110           0
     45881 WT16     78       MECN     N3       NG1T1   -0.460000       14.0070           0
     45882 WT16     80       MECN     C1       CG331   -0.170000       12.0110           0
     45883 WT16     80       MECN     H11      HGA3     0.090000        1.0080           0
     45884 WT16     80       MECN     H12      HGA3     0.090000        1.0080           0
     45885 WT16     80       MECN     H13      HGA3     0.090000        1.0080           0
     45886 WT16     80       MECN     C2       CG1N1    0.360000       12.0110           0
     45887 WT16     80       MECN     N3       NG1T1   -0.460000       14.0070           0
     45888 WT16     81       MECN     C1       CG331   -0.170000       12.0110           0
     45889 WT16     81       MECN     H11      HGA3     0.090000        1.0080           0
     45890 WT16     81       MECN     H12      HGA3     0.090000        1.0080           0
     45891 WT16     81       MECN     H13      HGA3     0.090000        1.0080           0
     45892 WT16     81       MECN     C2       CG1N1    0.360000       12.0110           0
     45893 WT16     81       MECN     N3       NG1T1   -0.460000       14.0070           0
     45894 WT16     83       MECN     C1       CG331   -0.170000       12.0110           0
     45895 WT16     83       MECN     H11      HGA3     0.090000        1.0080           0
     45896 WT16     83       MECN     H12      HGA3     0.090000        1.0080           0
     45897 WT16     83       MECN     H13      HGA3     0.090000        1.0080           0
     45898 WT16     83       MECN     C2       CG1N1    0.360000       12.0110           0
     45899 WT16     83       MECN     N3       NG1T1   -0.460000       14.0070           0
     45900 WT16     86       MECN     C1       CG331   -0.170000       12.0110           0
     45901 WT16     86       MECN     H11      HGA3     0.090000        1.0080           0
     45902 WT16     86       MECN     H12      HGA3     0.090000        1.0080           0
     45903 WT16     86       MECN     H13      HGA3     0.090000        1.0080           0
     45904 WT16     86       MECN     C2       CG1N1    0.360000       12.0110           0
     45905 WT16     86       MECN     N3       NG1T1   -0.460000       14.0070           0
     45906 WT16     90       MECN     C1       CG331   -0.170000       12.0110           0
     45907 WT16     90       MECN     H11      HGA3     0.090000        1.0080           0
     45908 WT16     90       MECN     H12      HGA3     0.090000        1.0080           0
     45909 WT16     90       MECN     H13      HGA3     0.090000        1.0080           0
     45910 WT16     90       MECN     C2       CG1N1    0.360000       12.0110           0
     45911 WT16     90       MECN     N3       NG1T1   -0.460000       14.0070           0
     45912 WT16     91       MECN     C1       CG331   -0.170000       12.0110           0
     45913 WT16     91       MECN     H11      HGA3     0.090000        1.0080           0
     45914 WT16     91       MECN     H12      HGA3     0.090000        1.0080           0
     45915 WT16     91       MECN     H13      HGA3     0.090000        1.0080           0
     45916 WT16     91       MECN     C2       CG1N1    0.360000       12.0110           0
     45917 WT16     91       MECN     N3       NG1T1   -0.460000       14.0070           0
     45918 WT16     94       MECN     C1       CG331   -0.170000       12.0110           0
     45919 WT16     94       MECN     H11      HGA3     0.090000        1.0080           0
     45920 WT16     94       MECN     H12      HGA3     0.090000        1.0080           0
     45921 WT16     94       MECN     H13      HGA3     0.090000        1.0080           0
     45922 WT16     94       MECN     C2       CG1N1    0.360000       12.0110           0
     45923 WT16     94       MECN     N3       NG1T1   -0.460000       14.0070           0
     45924 WT16     95       MECN     C1       CG331   -0.170000       12.0110           0
     45925 WT16     95       MECN     H11      HGA3     0.090000        1.0080           0
     45926 WT16     95       MECN     H12      HGA3     0.090000        1.0080           0
     45927 WT16     95       MECN     H13      HGA3     0.090000        1.0080           0
     45928 WT16     95       MECN     C2       CG1N1    0.360000       12.0110           0
     45929 WT16     95       MECN     N3       NG1T1   -0.460000       14.0070           0
     45930 WT16     100      MECN     C1       CG331   -0.170000       12.0110           0
     45931 WT16     100      MECN     H11      HGA3     0.090000        1.0080           0
     45932 WT16     100      MECN     H12      HGA3     0.090000        1.0080           0
     45933 WT16     100      MECN     H13      HGA3     0.090000        1.0080           0
     45934 WT16     100      MECN     C2       CG1N1    0.360000       12.0110           0
     45935 WT16     100      MECN     N3       NG1T1   -0.460000       14.0070           0
     45936 WT16     101      MECN     C1       CG331   -0.170000       12.0110           0
     45937 WT16     101      MECN     H11      HGA3     0.090000        1.0080           0
     45938 WT16     101      MECN     H12      HGA3     0.090000        1.0080           0
     45939 WT16     101      MECN     H13      HGA3     0.090000        1.0080           0
     45940 WT16     101      MECN     C2       CG1N1    0.360000       12.0110           0
     45941 WT16     101      MECN     N3       NG1T1   -0.460000       14.0070           0
     45942 WT16     102      MECN     C1       CG331   -0.170000       12.0110           0
     45943 WT16     102      MECN     H11      HGA3     0.090000        1.0080           0
     45944 WT16     102      MECN     H12      HGA3     0.090000        1.0080           0
     45945 WT16     102      MECN     H13      HGA3     0.090000        1.0080           0
     45946 WT16     102      MECN     C2       CG1N1    0.360000       12.0110           0
     45947 WT16     102      MECN     N3       NG1T1   -0.460000       14.0070           0
     45948 WT16     104      MECN     C1       CG331   -0.170000       12.0110           0
     45949 WT16     104      MECN     H11      HGA3     0.090000        1.0080           0
     45950 WT16     104      MECN     H12      HGA3     0.090000        1.0080           0
     45951 WT16     104      MECN     H13      HGA3     0.090000        1.0080           0
     45952 WT16     104      MECN     C2       CG1N1    0.360000       12.0110           0
     45953 WT16     104      MECN     N3       NG1T1   -0.460000       14.0070           0
     45954 WT16     108      MECN     C1       CG331   -0.170000       12.0110           0
     45955 WT16     108      MECN     H11      HGA3     0.090000        1.0080           0
     45956 WT16     108      MECN     H12      HGA3     0.090000        1.0080           0
     45957 WT16     108      MECN     H13      HGA3     0.090000        1.0080           0
     45958 WT16     108      MECN     C2       CG1N1    0.360000       12.0110           0
     45959 WT16     108      MECN     N3       NG1T1   -0.460000       14.0070           0
     45960 WT16     117      MECN     C1       CG331   -0.170000       12.0110           0
     45961 WT16     117      MECN     H11      HGA3     0.090000        1.0080           0
     45962 WT16     117      MECN     H12      HGA3     0.090000        1.0080           0
     45963 WT16     117      MECN     H13      HGA3     0.090000        1.0080           0
     45964 WT16     117      MECN     C2       CG1N1    0.360000       12.0110           0
     45965 WT16     117      MECN     N3       NG1T1   -0.460000       14.0070           0
     45966 WT16     120      MECN     C1       CG331   -0.170000       12.0110           0
     45967 WT16     120      MECN     H11      HGA3     0.090000        1.0080           0
     45968 WT16     120      MECN     H12      HGA3     0.090000        1.0080           0
     45969 WT16     120      MECN     H13      HGA3     0.090000        1.0080           0
     45970 WT16     120      MECN     C2       CG1N1    0.360000       12.0110           0
     45971 WT16     120      MECN     N3       NG1T1   -0.460000       14.0070           0
     45972 WT16     126      MECN     C1       CG331   -0.170000       12.0110           0
     45973 WT16     126      MECN     H11      HGA3     0.090000        1.0080           0
     45974 WT16     126      MECN     H12      HGA3     0.090000        1.0080           0
     45975 WT16     126      MECN     H13      HGA3     0.090000        1.0080           0
     45976 WT16     126      MECN     C2       CG1N1    0.360000       12.0110           0
     45977 WT16     126      MECN     N3       NG1T1   -0.460000       14.0070           0
     45978 WT16     133      MECN     C1       CG331   -0.170000       12.0110           0
     45979 WT16     133      MECN     H11      HGA3     0.090000        1.0080           0
     45980 WT16     133      MECN     H12      HGA3     0.090000        1.0080           0
     45981 WT16     133      MECN     H13      HGA3     0.090000        1.0080           0
     45982 WT16     133      MECN     C2       CG1N1    0.360000       12.0110           0
     45983 WT16     133      MECN     N3       NG1T1   -0.460000       14.0070           0
     45984 WT16     134      MECN     C1       CG331   -0.170000       12.0110           0
     45985 WT16     134      MECN     H11      HGA3     0.090000        1.0080           0
     45986 WT16     134      MECN     H12      HGA3     0.090000        1.0080           0
     45987 WT16     134      MECN     H13      HGA3     0.090000        1.0080           0
     45988 WT16     134      MECN     C2       CG1N1    0.360000       12.0110           0
     45989 WT16     134      MECN     N3       NG1T1   -0.460000       14.0070           0
     45990 WT16     138      MECN     C1       CG331   -0.170000       12.0110           0
     45991 WT16     138      MECN     H11      HGA3     0.090000        1.0080           0
     45992 WT16     138      MECN     H12      HGA3     0.090000        1.0080           0
     45993 WT16     138      MECN     H13      HGA3     0.090000        1.0080           0
     45994 WT16     138      MECN     C2       CG1N1    0.360000       12.0110           0
     45995 WT16     138      MECN     N3       NG1T1   -0.460000       14.0070           0
     45996 WT16     141      MECN     C1       CG331   -0.170000       12.0110           0
     45997 WT16     141      MECN     H11      HGA3     0.090000        1.0080           0
     45998 WT16     141      MECN     H12      HGA3     0.090000        1.0080           0
     45999 WT16     141      MECN     H13      HGA3     0.090000        1.0080           0
     46000 WT16     141      MECN     C2       CG1N1    0.360000       12.0110           0
     46001 WT16     141      MECN     N3       NG1T1   -0.460000       14.0070           0
     46002 WT16     144      MECN     C1       CG331   -0.170000       12.0110           0
     46003 WT16     144      MECN     H11      HGA3     0.090000        1.0080           0
     46004 WT16     144      MECN     H12      HGA3     0.090000        1.0080           0
     46005 WT16     144      MECN     H13      HGA3     0.090000        1.0080           0
     46006 WT16     144      MECN     C2       CG1N1    0.360000       12.0110           0
     46007 WT16     144      MECN     N3       NG1T1   -0.460000       14.0070           0
     46008 WT16     146      MECN     C1       CG331   -0.170000       12.0110           0
     46009 WT16     146      MECN     H11      HGA3     0.090000        1.0080           0
     46010 WT16     146      MECN     H12      HGA3     0.090000        1.0080           0
     46011 WT16     146      MECN     H13      HGA3     0.090000        1.0080           0
     46012 WT16     146      MECN     C2       CG1N1    0.360000       12.0110           0
     46013 WT16     146      MECN     N3       NG1T1   -0.460000       14.0070           0
     46014 WT16     147      MECN     C1       CG331   -0.170000       12.0110           0
     46015 WT16     147      MECN     H11      HGA3     0.090000        1.0080           0
     46016 WT16     147      MECN     H12      HGA3     0.090000        1.0080           0
     46017 WT16     147      MECN     H13      HGA3     0.090000        1.0080           0
     46018 WT16     147      MECN     C2       CG1N1    0.360000       12.0110           0
     46019 WT16     147      MECN     N3       NG1T1   -0.460000       14.0070           0
     46020 WT16     148      MECN     C1       CG331   -0.170000       12.0110           0
     46021 WT16     148      MECN     H11      HGA3     0.090000        1.0080           0
     46022 WT16     148      MECN     H12      HGA3     0.090000        1.0080           0
     46023 WT16     148      MECN     H13      HGA3     0.090000        1.0080           0
     46024 WT16     148      MECN     C2       CG1N1    0.360000       12.0110           0
     46025 WT16     148      MECN     N3       NG1T1   -0.460000       14.0070           0
     46026 WT16     149      MECN     C1       CG331   -0.170000       12.0110           0
     46027 WT16     149      MECN     H11      HGA3     0.090000        1.0080           0
     46028 WT16     149      MECN     H12      HGA3     0.090000        1.0080           0
     46029 WT16     149      MECN     H13      HGA3     0.090000        1.0080           0
     46030 WT16     149      MECN     C2       CG1N1    0.360000       12.0110           0
     46031 WT16     149      MECN     N3       NG1T1   -0.460000       14.0070           0
     46032 WT16     158      MECN     C1       CG331   -0.170000       12.0110           0
     46033 WT16     158      MECN     H11      HGA3     0.090000        1.0080           0
     46034 WT16     158      MECN     H12      HGA3     0.090000        1.0080           0
     46035 WT16     158      MECN     H13      HGA3     0.090000        1.0080           0
     46036 WT16     158      MECN     C2       CG1N1    0.360000       12.0110           0
     46037 WT16     158      MECN     N3       NG1T1   -0.460000       14.0070           0
     46038 WT16     161      MECN     C1       CG331   -0.170000       12.0110           0
     46039 WT16     161      MECN     H11      HGA3     0.090000        1.0080           0
     46040 WT16     161      MECN     H12      HGA3     0.090000        1.0080           0
     46041 WT16     161      MECN     H13      HGA3     0.090000        1.0080           0
     46042 WT16     161      MECN     C2       CG1N1    0.360000       12.0110           0
     46043 WT16     161      MECN     N3       NG1T1   -0.460000       14.0070           0
     46044 WT16     162      MECN     C1       CG331   -0.170000       12.0110           0
     46045 WT16     162      MECN     H11      HGA3     0.090000        1.0080           0
     46046 WT16     162      MECN     H12      HGA3     0.090000        1.0080           0
     46047 WT16     162      MECN     H13      HGA3     0.090000        1.0080           0
     46048 WT16     162      MECN     C2       CG1N1    0.360000       12.0110           0
     46049 WT16     162      MECN     N3       NG1T1   -0.460000       14.0070           0
     46050 WT16     176      MECN     C1       CG331   -0.170000       12.0110           0
     46051 WT16     176      MECN     H11      HGA3     0.090000        1.0080           0
     46052 WT16     176      MECN     H12      HGA3     0.090000        1.0080           0
     46053 WT16     176      MECN     H13      HGA3     0.090000        1.0080           0
     46054 WT16     176      MECN     C2       CG1N1    0.360000       12.0110           0
     46055 WT16     176      MECN     N3       NG1T1   -0.460000       14.0070           0
     46056 WT16     177      MECN     C1       CG331   -0.170000       12.0110           0
     46057 WT16     177      MECN     H11      HGA3     0.090000        1.0080           0
     46058 WT16     177      MECN     H12      HGA3     0.090000        1.0080           0
     46059 WT16     177      MECN     H13      HGA3     0.090000        1.0080           0
     46060 WT16     177      MECN     C2       CG1N1    0.360000       12.0110           0
     46061 WT16     177      MECN     N3       NG1T1   -0.460000       14.0070           0
     46062 WT16     179      MECN     C1       CG331   -0.170000       12.0110           0
     46063 WT16     179      MECN     H11      HGA3     0.090000        1.0080           0
     46064 WT16     179      MECN     H12      HGA3     0.090000        1.0080           0
     46065 WT16     179      MECN     H13      HGA3     0.090000        1.0080           0
     46066 WT16     179      MECN     C2       CG1N1    0.360000       12.0110           0
     46067 WT16     179      MECN     N3       NG1T1   -0.460000       14.0070           0
     46068 WT16     182      MECN     C1       CG331   -0.170000       12.0110           0
     46069 WT16     182      MECN     H11      HGA3     0.090000        1.0080           0
     46070 WT16     182      MECN     H12      HGA3     0.090000        1.0080           0
     46071 WT16     182      MECN     H13      HGA3     0.090000        1.0080           0
     46072 WT16     182      MECN     C2       CG1N1    0.360000       12.0110           0
     46073 WT16     182      MECN     N3       NG1T1   -0.460000       14.0070           0
     46074 WT16     183      MECN     C1       CG331   -0.170000       12.0110           0
     46075 WT16     183      MECN     H11      HGA3     0.090000        1.0080           0
     46076 WT16     183      MECN     H12      HGA3     0.090000        1.0080           0
     46077 WT16     183      MECN     H13      HGA3     0.090000        1.0080           0
     46078 WT16     183      MECN     C2       CG1N1    0.360000       12.0110           0
     46079 WT16     183      MECN     N3       NG1T1   -0.460000       14.0070           0
     46080 WT16     189      MECN     C1       CG331   -0.170000       12.0110           0
     46081 WT16     189      MECN     H11      HGA3     0.090000        1.0080           0
     46082 WT16     189      MECN     H12      HGA3     0.090000        1.0080           0
     46083 WT16     189      MECN     H13      HGA3     0.090000        1.0080           0
     46084 WT16     189      MECN     C2       CG1N1    0.360000       12.0110           0
     46085 WT16     189      MECN     N3       NG1T1   -0.460000       14.0070           0
     46086 WT16     193      MECN     C1       CG331   -0.170000       12.0110           0
     46087 WT16     193      MECN     H11      HGA3     0.090000        1.0080           0
     46088 WT16     193      MECN     H12      HGA3     0.090000        1.0080           0
     46089 WT16     193      MECN     H13      HGA3     0.090000        1.0080           0
     46090 WT16     193      MECN     C2       CG1N1    0.360000       12.0110           0
     46091 WT16     193      MECN     N3       NG1T1   -0.460000       14.0070           0
     46092 WT16     194      MECN     C1       CG331   -0.170000       12.0110           0
     46093 WT16     194      MECN     H11      HGA3     0.090000        1.0080           0
     46094 WT16     194      MECN     H12      HGA3     0.090000        1.0080           0
     46095 WT16     194      MECN     H13      HGA3     0.090000        1.0080           0
     46096 WT16     194      MECN     C2       CG1N1    0.360000       12.0110           0
     46097 WT16     194      MECN     N3       NG1T1   -0.460000       14.0070           0
     46098 WT16     195      MECN     C1       CG331   -0.170000       12.0110           0
     46099 WT16     195      MECN     H11      HGA3     0.090000        1.0080           0
     46100 WT16     195      MECN     H12      HGA3     0.090000        1.0080           0
     46101 WT16     195      MECN     H13      HGA3     0.090000        1.0080           0
     46102 WT16     195      MECN     C2       CG1N1    0.360000       12.0110           0
     46103 WT16     195      MECN     N3       NG1T1   -0.460000       14.0070           0
     46104 WT16     198      MECN     C1       CG331   -0.170000       12.0110           0
     46105 WT16     198      MECN     H11      HGA3     0.090000        1.0080           0
     46106 WT16     198      MECN     H12      HGA3     0.090000        1.0080           0
     46107 WT16     198      MECN     H13      HGA3     0.090000        1.0080           0
     46108 WT16     198      MECN     C2       CG1N1    0.360000       12.0110           0
     46109 WT16     198      MECN     N3       NG1T1   -0.460000       14.0070           0
     46110 WT16     202      MECN     C1       CG331   -0.170000       12.0110           0
     46111 WT16     202      MECN     H11      HGA3     0.090000        1.0080           0
     46112 WT16     202      MECN     H12      HGA3     0.090000        1.0080           0
     46113 WT16     202      MECN     H13      HGA3     0.090000        1.0080           0
     46114 WT16     202      MECN     C2       CG1N1    0.360000       12.0110           0
     46115 WT16     202      MECN     N3       NG1T1   -0.460000       14.0070           0
     46116 WT16     204      MECN     C1       CG331   -0.170000       12.0110           0
     46117 WT16     204      MECN     H11      HGA3     0.090000        1.0080           0
     46118 WT16     204      MECN     H12      HGA3     0.090000        1.0080           0
     46119 WT16     204      MECN     H13      HGA3     0.090000        1.0080           0
     46120 WT16     204      MECN     C2       CG1N1    0.360000       12.0110           0
     46121 WT16     204      MECN     N3       NG1T1   -0.460000       14.0070           0
     46122 WT16     207      MECN     C1       CG331   -0.170000       12.0110           0
     46123 WT16     207      MECN     H11      HGA3     0.090000        1.0080           0
     46124 WT16     207      MECN     H12      HGA3     0.090000        1.0080           0
     46125 WT16     207      MECN     H13      HGA3     0.090000        1.0080           0
     46126 WT16     207      MECN     C2       CG1N1    0.360000       12.0110           0
     46127 WT16     207      MECN     N3       NG1T1   -0.460000       14.0070           0
     46128 WT16     208      MECN     C1       CG331   -0.170000       12.0110           0
     46129 WT16     208      MECN     H11      HGA3     0.090000        1.0080           0
     46130 WT16     208      MECN     H12      HGA3     0.090000        1.0080           0
     46131 WT16     208      MECN     H13      HGA3     0.090000        1.0080           0
     46132 WT16     208      MECN     C2       CG1N1    0.360000       12.0110           0
     46133 WT16     208      MECN     N3       NG1T1   -0.460000       14.0070           0
     46134 WT16     209      MECN     C1       CG331   -0.170000       12.0110           0
     46135 WT16     209      MECN     H11      HGA3     0.090000        1.0080           0
     46136 WT16     209      MECN     H12      HGA3     0.090000        1.0080           0
     46137 WT16     209      MECN     H13      HGA3     0.090000        1.0080           0
     46138 WT16     209      MECN     C2       CG1N1    0.360000       12.0110           0
     46139 WT16     209      MECN     N3       NG1T1   -0.460000       14.0070           0
     46140 WT16     210      MECN     C1       CG331   -0.170000       12.0110           0
     46141 WT16     210      MECN     H11      HGA3     0.090000        1.0080           0
     46142 WT16     210      MECN     H12      HGA3     0.090000        1.0080           0
     46143 WT16     210      MECN     H13      HGA3     0.090000        1.0080           0
     46144 WT16     210      MECN     C2       CG1N1    0.360000       12.0110           0
     46145 WT16     210      MECN     N3       NG1T1   -0.460000       14.0070           0
     46146 WT16     211      MECN     C1       CG331   -0.170000       12.0110           0
     46147 WT16     211      MECN     H11      HGA3     0.090000        1.0080           0
     46148 WT16     211      MECN     H12      HGA3     0.090000        1.0080           0
     46149 WT16     211      MECN     H13      HGA3     0.090000        1.0080           0
     46150 WT16     211      MECN     C2       CG1N1    0.360000       12.0110           0
     46151 WT16     211      MECN     N3       NG1T1   -0.460000       14.0070           0
     46152 WT16     213      MECN     C1       CG331   -0.170000       12.0110           0
     46153 WT16     213      MECN     H11      HGA3     0.090000        1.0080           0
     46154 WT16     213      MECN     H12      HGA3     0.090000        1.0080           0
     46155 WT16     213      MECN     H13      HGA3     0.090000        1.0080           0
     46156 WT16     213      MECN     C2       CG1N1    0.360000       12.0110           0
     46157 WT16     213      MECN     N3       NG1T1   -0.460000       14.0070           0
     46158 WT16     215      MECN     C1       CG331   -0.170000       12.0110           0
     46159 WT16     215      MECN     H11      HGA3     0.090000        1.0080           0
     46160 WT16     215      MECN     H12      HGA3     0.090000        1.0080           0
     46161 WT16     215      MECN     H13      HGA3     0.090000        1.0080           0
     46162 WT16     215      MECN     C2       CG1N1    0.360000       12.0110           0
     46163 WT16     215      MECN     N3       NG1T1   -0.460000       14.0070           0
     46164 WT16     219      MECN     C1       CG331   -0.170000       12.0110           0
     46165 WT16     219      MECN     H11      HGA3     0.090000        1.0080           0
     46166 WT16     219      MECN     H12      HGA3     0.090000        1.0080           0
     46167 WT16     219      MECN     H13      HGA3     0.090000        1.0080           0
     46168 WT16     219      MECN     C2       CG1N1    0.360000       12.0110           0
     46169 WT16     219      MECN     N3       NG1T1   -0.460000       14.0070           0
     46170 WT16     221      MECN     C1       CG331   -0.170000       12.0110           0
     46171 WT16     221      MECN     H11      HGA3     0.090000        1.0080           0
     46172 WT16     221      MECN     H12      HGA3     0.090000        1.0080           0
     46173 WT16     221      MECN     H13      HGA3     0.090000        1.0080           0
     46174 WT16     221      MECN     C2       CG1N1    0.360000       12.0110           0
     46175 WT16     221      MECN     N3       NG1T1   -0.460000       14.0070           0
     46176 WT16     225      MECN     C1       CG331   -0.170000       12.0110           0
     46177 WT16     225      MECN     H11      HGA3     0.090000        1.0080           0
     46178 WT16     225      MECN     H12      HGA3     0.090000        1.0080           0
     46179 WT16     225      MECN     H13      HGA3     0.090000        1.0080           0
     46180 WT16     225      MECN     C2       CG1N1    0.360000       12.0110           0
     46181 WT16     225      MECN     N3       NG1T1   -0.460000       14.0070           0
     46182 WT16     228      MECN     C1       CG331   -0.170000       12.0110           0
     46183 WT16     228      MECN     H11      HGA3     0.090000        1.0080           0
     46184 WT16     228      MECN     H12      HGA3     0.090000        1.0080           0
     46185 WT16     228      MECN     H13      HGA3     0.090000        1.0080           0
     46186 WT16     228      MECN     C2       CG1N1    0.360000       12.0110           0
     46187 WT16     228      MECN     N3       NG1T1   -0.460000       14.0070           0
     46188 WT16     230      MECN     C1       CG331   -0.170000       12.0110           0
     46189 WT16     230      MECN     H11      HGA3     0.090000        1.0080           0
     46190 WT16     230      MECN     H12      HGA3     0.090000        1.0080           0
     46191 WT16     230      MECN     H13      HGA3     0.090000        1.0080           0
     46192 WT16     230      MECN     C2       CG1N1    0.360000       12.0110           0
     46193 WT16     230      MECN     N3       NG1T1   -0.460000       14.0070           0
     46194 WT16     233      MECN     C1       CG331   -0.170000       12.0110           0
     46195 WT16     233      MECN     H11      HGA3     0.090000        1.0080           0
     46196 WT16     233      MECN     H12      HGA3     0.090000        1.0080           0
     46197 WT16     233      MECN     H13      HGA3     0.090000        1.0080           0
     46198 WT16     233      MECN     C2       CG1N1    0.360000       12.0110           0
     46199 WT16     233      MECN     N3       NG1T1   -0.460000       14.0070           0
     46200 WT16     241      MECN     C1       CG331   -0.170000       12.0110           0
     46201 WT16     241      MECN     H11      HGA3     0.090000        1.0080           0
     46202 WT16     241      MECN     H12      HGA3     0.090000        1.0080           0
     46203 WT16     241      MECN     H13      HGA3     0.090000        1.0080           0
     46204 WT16     241      MECN     C2       CG1N1    0.360000       12.0110           0
     46205 WT16     241      MECN     N3       NG1T1   -0.460000       14.0070           0
     46206 WT16     245      MECN     C1       CG331   -0.170000       12.0110           0
     46207 WT16     245      MECN     H11      HGA3     0.090000        1.0080           0
     46208 WT16     245      MECN     H12      HGA3     0.090000        1.0080           0
     46209 WT16     245      MECN     H13      HGA3     0.090000        1.0080           0
     46210 WT16     245      MECN     C2       CG1N1    0.360000       12.0110           0
     46211 WT16     245      MECN     N3       NG1T1   -0.460000       14.0070           0
     46212 WT16     246      MECN     C1       CG331   -0.170000       12.0110           0
     46213 WT16     246      MECN     H11      HGA3     0.090000        1.0080           0
     46214 WT16     246      MECN     H12      HGA3     0.090000        1.0080           0
     46215 WT16     246      MECN     H13      HGA3     0.090000        1.0080           0
     46216 WT16     246      MECN     C2       CG1N1    0.360000       12.0110           0
     46217 WT16     246      MECN     N3       NG1T1   -0.460000       14.0070           0
     46218 WT16     247      MECN     C1       CG331   -0.170000       12.0110           0
     46219 WT16     247      MECN     H11      HGA3     0.090000        1.0080           0
     46220 WT16     247      MECN     H12      HGA3     0.090000        1.0080           0
     46221 WT16     247      MECN     H13      HGA3     0.090000        1.0080           0
     46222 WT16     247      MECN     C2       CG1N1    0.360000       12.0110           0
     46223 WT16     247      MECN     N3       NG1T1   -0.460000       14.0070           0
     46224 WT16     251      MECN     C1       CG331   -0.170000       12.0110           0
     46225 WT16     251      MECN     H11      HGA3     0.090000        1.0080           0
     46226 WT16     251      MECN     H12      HGA3     0.090000        1.0080           0
     46227 WT16     251      MECN     H13      HGA3     0.090000        1.0080           0
     46228 WT16     251      MECN     C2       CG1N1    0.360000       12.0110           0
     46229 WT16     251      MECN     N3       NG1T1   -0.460000       14.0070           0
     46230 WT16     253      MECN     C1       CG331   -0.170000       12.0110           0
     46231 WT16     253      MECN     H11      HGA3     0.090000        1.0080           0
     46232 WT16     253      MECN     H12      HGA3     0.090000        1.0080           0
     46233 WT16     253      MECN     H13      HGA3     0.090000        1.0080           0
     46234 WT16     253      MECN     C2       CG1N1    0.360000       12.0110           0
     46235 WT16     253      MECN     N3       NG1T1   -0.460000       14.0070           0
     46236 WT16     256      MECN     C1       CG331   -0.170000       12.0110           0
     46237 WT16     256      MECN     H11      HGA3     0.090000        1.0080           0
     46238 WT16     256      MECN     H12      HGA3     0.090000        1.0080           0
     46239 WT16     256      MECN     H13      HGA3     0.090000        1.0080           0
     46240 WT16     256      MECN     C2       CG1N1    0.360000       12.0110           0
     46241 WT16     256      MECN     N3       NG1T1   -0.460000       14.0070           0
     46242 WT16     257      MECN     C1       CG331   -0.170000       12.0110           0
     46243 WT16     257      MECN     H11      HGA3     0.090000        1.0080           0
     46244 WT16     257      MECN     H12      HGA3     0.090000        1.0080           0
     46245 WT16     257      MECN     H13      HGA3     0.090000        1.0080           0
     46246 WT16     257      MECN     C2       CG1N1    0.360000       12.0110           0
     46247 WT16     257      MECN     N3       NG1T1   -0.460000       14.0070           0
     46248 WT16     259      MECN     C1       CG331   -0.170000       12.0110           0
     46249 WT16     259      MECN     H11      HGA3     0.090000        1.0080           0
     46250 WT16     259      MECN     H12      HGA3     0.090000        1.0080           0
     46251 WT16     259      MECN     H13      HGA3     0.090000        1.0080           0
     46252 WT16     259      MECN     C2       CG1N1    0.360000       12.0110           0
     46253 WT16     259      MECN     N3       NG1T1   -0.460000       14.0070           0
     46254 WT16     260      MECN     C1       CG331   -0.170000       12.0110           0
     46255 WT16     260      MECN     H11      HGA3     0.090000        1.0080           0
     46256 WT16     260      MECN     H12      HGA3     0.090000        1.0080           0
     46257 WT16     260      MECN     H13      HGA3     0.090000        1.0080           0
     46258 WT16     260      MECN     C2       CG1N1    0.360000       12.0110           0
     46259 WT16     260      MECN     N3       NG1T1   -0.460000       14.0070           0
     46260 WT16     262      MECN     C1       CG331   -0.170000       12.0110           0
     46261 WT16     262      MECN     H11      HGA3     0.090000        1.0080           0
     46262 WT16     262      MECN     H12      HGA3     0.090000        1.0080           0
     46263 WT16     262      MECN     H13      HGA3     0.090000        1.0080           0
     46264 WT16     262      MECN     C2       CG1N1    0.360000       12.0110           0
     46265 WT16     262      MECN     N3       NG1T1   -0.460000       14.0070           0
     46266 WT16     265      MECN     C1       CG331   -0.170000       12.0110           0
     46267 WT16     265      MECN     H11      HGA3     0.090000        1.0080           0
     46268 WT16     265      MECN     H12      HGA3     0.090000        1.0080           0
     46269 WT16     265      MECN     H13      HGA3     0.090000        1.0080           0
     46270 WT16     265      MECN     C2       CG1N1    0.360000       12.0110           0
     46271 WT16     265      MECN     N3       NG1T1   -0.460000       14.0070           0
     46272 WT16     266      MECN     C1       CG331   -0.170000       12.0110           0
     46273 WT16     266      MECN     H11      HGA3     0.090000        1.0080           0
     46274 WT16     266      MECN     H12      HGA3     0.090000        1.0080           0
     46275 WT16     266      MECN     H13      HGA3     0.090000        1.0080           0
     46276 WT16     266      MECN     C2       CG1N1    0.360000       12.0110           0
     46277 WT16     266      MECN     N3       NG1T1   -0.460000       14.0070           0
     46278 WT16     271      MECN     C1       CG331   -0.170000       12.0110           0
     46279 WT16     271      MECN     H11      HGA3     0.090000        1.0080           0
     46280 WT16     271      MECN     H12      HGA3     0.090000        1.0080           0
     46281 WT16     271      MECN     H13      HGA3     0.090000        1.0080           0
     46282 WT16     271      MECN     C2       CG1N1    0.360000       12.0110           0
     46283 WT16     271      MECN     N3       NG1T1   -0.460000       14.0070           0
     46284 WT16     273      MECN     C1       CG331   -0.170000       12.0110           0
     46285 WT16     273      MECN     H11      HGA3     0.090000        1.0080           0
     46286 WT16     273      MECN     H12      HGA3     0.090000        1.0080           0
     46287 WT16     273      MECN     H13      HGA3     0.090000        1.0080           0
     46288 WT16     273      MECN     C2       CG1N1    0.360000       12.0110           0
     46289 WT16     273      MECN     N3       NG1T1   -0.460000       14.0070           0
     46290 WT16     275      MECN     C1       CG331   -0.170000       12.0110           0
     46291 WT16     275      MECN     H11      HGA3     0.090000        1.0080           0
     46292 WT16     275      MECN     H12      HGA3     0.090000        1.0080           0
     46293 WT16     275      MECN     H13      HGA3     0.090000        1.0080           0
     46294 WT16     275      MECN     C2       CG1N1    0.360000       12.0110           0
     46295 WT16     275      MECN     N3       NG1T1   -0.460000       14.0070           0
     46296 WT16     282      MECN     C1       CG331   -0.170000       12.0110           0
     46297 WT16     282      MECN     H11      HGA3     0.090000        1.0080           0
     46298 WT16     282      MECN     H12      HGA3     0.090000        1.0080           0
     46299 WT16     282      MECN     H13      HGA3     0.090000        1.0080           0
     46300 WT16     282      MECN     C2       CG1N1    0.360000       12.0110           0
     46301 WT16     282      MECN     N3       NG1T1   -0.460000       14.0070           0
     46302 WT16     285      MECN     C1       CG331   -0.170000       12.0110           0
     46303 WT16     285      MECN     H11      HGA3     0.090000        1.0080           0
     46304 WT16     285      MECN     H12      HGA3     0.090000        1.0080           0
     46305 WT16     285      MECN     H13      HGA3     0.090000        1.0080           0
     46306 WT16     285      MECN     C2       CG1N1    0.360000       12.0110           0
     46307 WT16     285      MECN     N3       NG1T1   -0.460000       14.0070           0
     46308 WT16     289      MECN     C1       CG331   -0.170000       12.0110           0
     46309 WT16     289      MECN     H11      HGA3     0.090000        1.0080           0
     46310 WT16     289      MECN     H12      HGA3     0.090000        1.0080           0
     46311 WT16     289      MECN     H13      HGA3     0.090000        1.0080           0
     46312 WT16     289      MECN     C2       CG1N1    0.360000       12.0110           0
     46313 WT16     289      MECN     N3       NG1T1   -0.460000       14.0070           0
     46314 WT16     290      MECN     C1       CG331   -0.170000       12.0110           0
     46315 WT16     290      MECN     H11      HGA3     0.090000        1.0080           0
     46316 WT16     290      MECN     H12      HGA3     0.090000        1.0080           0
     46317 WT16     290      MECN     H13      HGA3     0.090000        1.0080           0
     46318 WT16     290      MECN     C2       CG1N1    0.360000       12.0110           0
     46319 WT16     290      MECN     N3       NG1T1   -0.460000       14.0070           0
     46320 WT16     295      MECN     C1       CG331   -0.170000       12.0110           0
     46321 WT16     295      MECN     H11      HGA3     0.090000        1.0080           0
     46322 WT16     295      MECN     H12      HGA3     0.090000        1.0080           0
     46323 WT16     295      MECN     H13      HGA3     0.090000        1.0080           0
     46324 WT16     295      MECN     C2       CG1N1    0.360000       12.0110           0
     46325 WT16     295      MECN     N3       NG1T1   -0.460000       14.0070           0
     46326 WT16     297      MECN     C1       CG331   -0.170000       12.0110           0
     46327 WT16     297      MECN     H11      HGA3     0.090000        1.0080           0
     46328 WT16     297      MECN     H12      HGA3     0.090000        1.0080           0
     46329 WT16     297      MECN     H13      HGA3     0.090000        1.0080           0
     46330 WT16     297      MECN     C2       CG1N1    0.360000       12.0110           0
     46331 WT16     297      MECN     N3       NG1T1   -0.460000       14.0070           0
     46332 WT16     299      MECN     C1       CG331   -0.170000       12.0110           0
     46333 WT16     299      MECN     H11      HGA3     0.090000        1.0080           0
     46334 WT16     299      MECN     H12      HGA3     0.090000        1.0080           0
     46335 WT16     299      MECN     H13      HGA3     0.090000        1.0080           0
     46336 WT16     299      MECN     C2       CG1N1    0.360000       12.0110           0
     46337 WT16     299      MECN     N3       NG1T1   -0.460000       14.0070           0
     46338 WT16     300      MECN     C1       CG331   -0.170000       12.0110           0
     46339 WT16     300      MECN     H11      HGA3     0.090000        1.0080           0
     46340 WT16     300      MECN     H12      HGA3     0.090000        1.0080           0
     46341 WT16     300      MECN     H13      HGA3     0.090000        1.0080           0
     46342 WT16     300      MECN     C2       CG1N1    0.360000       12.0110           0
     46343 WT16     300      MECN     N3       NG1T1   -0.460000       14.0070           0
     46344 WT16     301      MECN     C1       CG331   -0.170000       12.0110           0
     46345 WT16     301      MECN     H11      HGA3     0.090000        1.0080           0
     46346 WT16     301      MECN     H12      HGA3     0.090000        1.0080           0
     46347 WT16     301      MECN     H13      HGA3     0.090000        1.0080           0
     46348 WT16     301      MECN     C2       CG1N1    0.360000       12.0110           0
     46349 WT16     301      MECN     N3       NG1T1   -0.460000       14.0070           0
     46350 WT16     302      MECN     C1       CG331   -0.170000       12.0110           0
     46351 WT16     302      MECN     H11      HGA3     0.090000        1.0080           0
     46352 WT16     302      MECN     H12      HGA3     0.090000        1.0080           0
     46353 WT16     302      MECN     H13      HGA3     0.090000        1.0080           0
     46354 WT16     302      MECN     C2       CG1N1    0.360000       12.0110           0
     46355 WT16     302      MECN     N3       NG1T1   -0.460000       14.0070           0
     46356 WT16     303      MECN     C1       CG331   -0.170000       12.0110           0
     46357 WT16     303      MECN     H11      HGA3     0.090000        1.0080           0
     46358 WT16     303      MECN     H12      HGA3     0.090000        1.0080           0
     46359 WT16     303      MECN     H13      HGA3     0.090000        1.0080           0
     46360 WT16     303      MECN     C2       CG1N1    0.360000       12.0110           0
     46361 WT16     303      MECN     N3       NG1T1   -0.460000       14.0070           0
     46362 WT16     304      MECN     C1       CG331   -0.170000       12.0110           0
     46363 WT16     304      MECN     H11      HGA3     0.090000        1.0080           0
     46364 WT16     304      MECN     H12      HGA3     0.090000        1.0080           0
     46365 WT16     304      MECN     H13      HGA3     0.090000        1.0080           0
     46366 WT16     304      MECN     C2       CG1N1    0.360000       12.0110           0
     46367 WT16     304      MECN     N3       NG1T1   -0.460000       14.0070           0
     46368 WT16     308      MECN     C1       CG331   -0.170000       12.0110           0
     46369 WT16     308      MECN     H11      HGA3     0.090000        1.0080           0
     46370 WT16     308      MECN     H12      HGA3     0.090000        1.0080           0
     46371 WT16     308      MECN     H13      HGA3     0.090000        1.0080           0
     46372 WT16     308      MECN     C2       CG1N1    0.360000       12.0110           0
     46373 WT16     308      MECN     N3       NG1T1   -0.460000       14.0070           0
     46374 WT16     311      MECN     C1       CG331   -0.170000       12.0110           0
     46375 WT16     311      MECN     H11      HGA3     0.090000        1.0080           0
     46376 WT16     311      MECN     H12      HGA3     0.090000        1.0080           0
     46377 WT16     311      MECN     H13      HGA3     0.090000        1.0080           0
     46378 WT16     311      MECN     C2       CG1N1    0.360000       12.0110           0
     46379 WT16     311      MECN     N3       NG1T1   -0.460000       14.0070           0
     46380 WT16     312      MECN     C1       CG331   -0.170000       12.0110           0
     46381 WT16     312      MECN     H11      HGA3     0.090000        1.0080           0
     46382 WT16     312      MECN     H12      HGA3     0.090000        1.0080           0
     46383 WT16     312      MECN     H13      HGA3     0.090000        1.0080           0
     46384 WT16     312      MECN     C2       CG1N1    0.360000       12.0110           0
     46385 WT16     312      MECN     N3       NG1T1   -0.460000       14.0070           0
     46386 WT16     313      MECN     C1       CG331   -0.170000       12.0110           0
     46387 WT16     313      MECN     H11      HGA3     0.090000        1.0080           0
     46388 WT16     313      MECN     H12      HGA3     0.090000        1.0080           0
     46389 WT16     313      MECN     H13      HGA3     0.090000        1.0080           0
     46390 WT16     313      MECN     C2       CG1N1    0.360000       12.0110           0
     46391 WT16     313      MECN     N3       NG1T1   -0.460000       14.0070           0
     46392 WT16     315      MECN     C1       CG331   -0.170000       12.0110           0
     46393 WT16     315      MECN     H11      HGA3     0.090000        1.0080           0
     46394 WT16     315      MECN     H12      HGA3     0.090000        1.0080           0
     46395 WT16     315      MECN     H13      HGA3     0.090000        1.0080           0
     46396 WT16     315      MECN     C2       CG1N1    0.360000       12.0110           0
     46397 WT16     315      MECN     N3       NG1T1   -0.460000       14.0070           0
     46398 WT16     323      MECN     C1       CG331   -0.170000       12.0110           0
     46399 WT16     323      MECN     H11      HGA3     0.090000        1.0080           0
     46400 WT16     323      MECN     H12      HGA3     0.090000        1.0080           0
     46401 WT16     323      MECN     H13      HGA3     0.090000        1.0080           0
     46402 WT16     323      MECN     C2       CG1N1    0.360000       12.0110           0
     46403 WT16     323      MECN     N3       NG1T1   -0.460000       14.0070           0
     46404 WT16     325      MECN     C1       CG331   -0.170000       12.0110           0
     46405 WT16     325      MECN     H11      HGA3     0.090000        1.0080           0
     46406 WT16     325      MECN     H12      HGA3     0.090000        1.0080           0
     46407 WT16     325      MECN     H13      HGA3     0.090000        1.0080           0
     46408 WT16     325      MECN     C2       CG1N1    0.360000       12.0110           0
     46409 WT16     325      MECN     N3       NG1T1   -0.460000       14.0070           0
     46410 WT16     326      MECN     C1       CG331   -0.170000       12.0110           0
     46411 WT16     326      MECN     H11      HGA3     0.090000        1.0080           0
     46412 WT16     326      MECN     H12      HGA3     0.090000        1.0080           0
     46413 WT16     326      MECN     H13      HGA3     0.090000        1.0080           0
     46414 WT16     326      MECN     C2       CG1N1    0.360000       12.0110           0
     46415 WT16     326      MECN     N3       NG1T1   -0.460000       14.0070           0
     46416 WT16     332      MECN     C1       CG331   -0.170000       12.0110           0
     46417 WT16     332      MECN     H11      HGA3     0.090000        1.0080           0
     46418 WT16     332      MECN     H12      HGA3     0.090000        1.0080           0
     46419 WT16     332      MECN     H13      HGA3     0.090000        1.0080           0
     46420 WT16     332      MECN     C2       CG1N1    0.360000       12.0110           0
     46421 WT16     332      MECN     N3       NG1T1   -0.460000       14.0070           0
     46422 WT16     335      MECN     C1       CG331   -0.170000       12.0110           0
     46423 WT16     335      MECN     H11      HGA3     0.090000        1.0080           0
     46424 WT16     335      MECN     H12      HGA3     0.090000        1.0080           0
     46425 WT16     335      MECN     H13      HGA3     0.090000        1.0080           0
     46426 WT16     335      MECN     C2       CG1N1    0.360000       12.0110           0
     46427 WT16     335      MECN     N3       NG1T1   -0.460000       14.0070           0
     46428 WT16     339      MECN     C1       CG331   -0.170000       12.0110           0
     46429 WT16     339      MECN     H11      HGA3     0.090000        1.0080           0
     46430 WT16     339      MECN     H12      HGA3     0.090000        1.0080           0
     46431 WT16     339      MECN     H13      HGA3     0.090000        1.0080           0
     46432 WT16     339      MECN     C2       CG1N1    0.360000       12.0110           0
     46433 WT16     339      MECN     N3       NG1T1   -0.460000       14.0070           0
     46434 WT16     343      MECN     C1       CG331   -0.170000       12.0110           0
     46435 WT16     343      MECN     H11      HGA3     0.090000        1.0080           0
     46436 WT16     343      MECN     H12      HGA3     0.090000        1.0080           0
     46437 WT16     343      MECN     H13      HGA3     0.090000        1.0080           0
     46438 WT16     343      MECN     C2       CG1N1    0.360000       12.0110           0
     46439 WT16     343      MECN     N3       NG1T1   -0.460000       14.0070           0
     46440 WT16     344      MECN     C1       CG331   -0.170000       12.0110           0
     46441 WT16     344      MECN     H11      HGA3     0.090000        1.0080           0
     46442 WT16     344      MECN     H12      HGA3     0.090000        1.0080           0
     46443 WT16     344      MECN     H13      HGA3     0.090000        1.0080           0
     46444 WT16     344      MECN     C2       CG1N1    0.360000       12.0110           0
     46445 WT16     344      MECN     N3       NG1T1   -0.460000       14.0070           0
     46446 WT16     346      MECN     C1       CG331   -0.170000       12.0110           0
     46447 WT16     346      MECN     H11      HGA3     0.090000        1.0080           0
     46448 WT16     346      MECN     H12      HGA3     0.090000        1.0080           0
     46449 WT16     346      MECN     H13      HGA3     0.090000        1.0080           0
     46450 WT16     346      MECN     C2       CG1N1    0.360000       12.0110           0
     46451 WT16     346      MECN     N3       NG1T1   -0.460000       14.0070           0
     46452 WT16     348      MECN     C1       CG331   -0.170000       12.0110           0
     46453 WT16     348      MECN     H11      HGA3     0.090000        1.0080           0
     46454 WT16     348      MECN     H12      HGA3     0.090000        1.0080           0
     46455 WT16     348      MECN     H13      HGA3     0.090000        1.0080           0
     46456 WT16     348      MECN     C2       CG1N1    0.360000       12.0110           0
     46457 WT16     348      MECN     N3       NG1T1   -0.460000       14.0070           0
     46458 WT16     356      MECN     C1       CG331   -0.170000       12.0110           0
     46459 WT16     356      MECN     H11      HGA3     0.090000        1.0080           0
     46460 WT16     356      MECN     H12      HGA3     0.090000        1.0080           0
     46461 WT16     356      MECN     H13      HGA3     0.090000        1.0080           0
     46462 WT16     356      MECN     C2       CG1N1    0.360000       12.0110           0
     46463 WT16     356      MECN     N3       NG1T1   -0.460000       14.0070           0
     46464 WT16     360      MECN     C1       CG331   -0.170000       12.0110           0
     46465 WT16     360      MECN     H11      HGA3     0.090000        1.0080           0
     46466 WT16     360      MECN     H12      HGA3     0.090000        1.0080           0
     46467 WT16     360      MECN     H13      HGA3     0.090000        1.0080           0
     46468 WT16     360      MECN     C2       CG1N1    0.360000       12.0110           0
     46469 WT16     360      MECN     N3       NG1T1   -0.460000       14.0070           0
     46470 WT16     366      MECN     C1       CG331   -0.170000       12.0110           0
     46471 WT16     366      MECN     H11      HGA3     0.090000        1.0080           0
     46472 WT16     366      MECN     H12      HGA3     0.090000        1.0080           0
     46473 WT16     366      MECN     H13      HGA3     0.090000        1.0080           0
     46474 WT16     366      MECN     C2       CG1N1    0.360000       12.0110           0
     46475 WT16     366      MECN     N3       NG1T1   -0.460000       14.0070           0
     46476 WT16     371      MECN     C1       CG331   -0.170000       12.0110           0
     46477 WT16     371      MECN     H11      HGA3     0.090000        1.0080           0
     46478 WT16     371      MECN     H12      HGA3     0.090000        1.0080           0
     46479 WT16     371      MECN     H13      HGA3     0.090000        1.0080           0
     46480 WT16     371      MECN     C2       CG1N1    0.360000       12.0110           0
     46481 WT16     371      MECN     N3       NG1T1   -0.460000       14.0070           0
     46482 WT16     374      MECN     C1       CG331   -0.170000       12.0110           0
     46483 WT16     374      MECN     H11      HGA3     0.090000        1.0080           0
     46484 WT16     374      MECN     H12      HGA3     0.090000        1.0080           0
     46485 WT16     374      MECN     H13      HGA3     0.090000        1.0080           0
     46486 WT16     374      MECN     C2       CG1N1    0.360000       12.0110           0
     46487 WT16     374      MECN     N3       NG1T1   -0.460000       14.0070           0
     46488 WT16     376      MECN     C1       CG331   -0.170000       12.0110           0
     46489 WT16     376      MECN     H11      HGA3     0.090000        1.0080           0
     46490 WT16     376      MECN     H12      HGA3     0.090000        1.0080           0
     46491 WT16     376      MECN     H13      HGA3     0.090000        1.0080           0
     46492 WT16     376      MECN     C2       CG1N1    0.360000       12.0110           0
     46493 WT16     376      MECN     N3       NG1T1   -0.460000       14.0070           0
     46494 WT16     378      MECN     C1       CG331   -0.170000       12.0110           0
     46495 WT16     378      MECN     H11      HGA3     0.090000        1.0080           0
     46496 WT16     378      MECN     H12      HGA3     0.090000        1.0080           0
     46497 WT16     378      MECN     H13      HGA3     0.090000        1.0080           0
     46498 WT16     378      MECN     C2       CG1N1    0.360000       12.0110           0
     46499 WT16     378      MECN     N3       NG1T1   -0.460000       14.0070           0
     46500 WT16     381      MECN     C1       CG331   -0.170000       12.0110           0
     46501 WT16     381      MECN     H11      HGA3     0.090000        1.0080           0
     46502 WT16     381      MECN     H12      HGA3     0.090000        1.0080           0
     46503 WT16     381      MECN     H13      HGA3     0.090000        1.0080           0
     46504 WT16     381      MECN     C2       CG1N1    0.360000       12.0110           0
     46505 WT16     381      MECN     N3       NG1T1   -0.460000       14.0070           0
     46506 WT16     383      MECN     C1       CG331   -0.170000       12.0110           0
     46507 WT16     383      MECN     H11      HGA3     0.090000        1.0080           0
     46508 WT16     383      MECN     H12      HGA3     0.090000        1.0080           0
     46509 WT16     383      MECN     H13      HGA3     0.090000        1.0080           0
     46510 WT16     383      MECN     C2       CG1N1    0.360000       12.0110           0
     46511 WT16     383      MECN     N3       NG1T1   -0.460000       14.0070           0
     46512 WT16     384      MECN     C1       CG331   -0.170000       12.0110           0
     46513 WT16     384      MECN     H11      HGA3     0.090000        1.0080           0
     46514 WT16     384      MECN     H12      HGA3     0.090000        1.0080           0
     46515 WT16     384      MECN     H13      HGA3     0.090000        1.0080           0
     46516 WT16     384      MECN     C2       CG1N1    0.360000       12.0110           0
     46517 WT16     384      MECN     N3       NG1T1   -0.460000       14.0070           0
     46518 WT16     386      MECN     C1       CG331   -0.170000       12.0110           0
     46519 WT16     386      MECN     H11      HGA3     0.090000        1.0080           0
     46520 WT16     386      MECN     H12      HGA3     0.090000        1.0080           0
     46521 WT16     386      MECN     H13      HGA3     0.090000        1.0080           0
     46522 WT16     386      MECN     C2       CG1N1    0.360000       12.0110           0
     46523 WT16     386      MECN     N3       NG1T1   -0.460000       14.0070           0
     46524 WT16     391      MECN     C1       CG331   -0.170000       12.0110           0
     46525 WT16     391      MECN     H11      HGA3     0.090000        1.0080           0
     46526 WT16     391      MECN     H12      HGA3     0.090000        1.0080           0
     46527 WT16     391      MECN     H13      HGA3     0.090000        1.0080           0
     46528 WT16     391      MECN     C2       CG1N1    0.360000       12.0110           0
     46529 WT16     391      MECN     N3       NG1T1   -0.460000       14.0070           0
     46530 WT16     392      MECN     C1       CG331   -0.170000       12.0110           0
     46531 WT16     392      MECN     H11      HGA3     0.090000        1.0080           0
     46532 WT16     392      MECN     H12      HGA3     0.090000        1.0080           0
     46533 WT16     392      MECN     H13      HGA3     0.090000        1.0080           0
     46534 WT16     392      MECN     C2       CG1N1    0.360000       12.0110           0
     46535 WT16     392      MECN     N3       NG1T1   -0.460000       14.0070           0
     46536 WT16     395      MECN     C1       CG331   -0.170000       12.0110           0
     46537 WT16     395      MECN     H11      HGA3     0.090000        1.0080           0
     46538 WT16     395      MECN     H12      HGA3     0.090000        1.0080           0
     46539 WT16     395      MECN     H13      HGA3     0.090000        1.0080           0
     46540 WT16     395      MECN     C2       CG1N1    0.360000       12.0110           0
     46541 WT16     395      MECN     N3       NG1T1   -0.460000       14.0070           0
     46542 WT16     400      MECN     C1       CG331   -0.170000       12.0110           0
     46543 WT16     400      MECN     H11      HGA3     0.090000        1.0080           0
     46544 WT16     400      MECN     H12      HGA3     0.090000        1.0080           0
     46545 WT16     400      MECN     H13      HGA3     0.090000        1.0080           0
     46546 WT16     400      MECN     C2       CG1N1    0.360000       12.0110           0
     46547 WT16     400      MECN     N3       NG1T1   -0.460000       14.0070           0
     46548 WT16     402      MECN     C1       CG331   -0.170000       12.0110           0
     46549 WT16     402      MECN     H11      HGA3     0.090000        1.0080           0
     46550 WT16     402      MECN     H12      HGA3     0.090000        1.0080           0
     46551 WT16     402      MECN     H13      HGA3     0.090000        1.0080           0
     46552 WT16     402      MECN     C2       CG1N1    0.360000       12.0110           0
     46553 WT16     402      MECN     N3       NG1T1   -0.460000       14.0070           0
     46554 WT16     404      MECN     C1       CG331   -0.170000       12.0110           0
     46555 WT16     404      MECN     H11      HGA3     0.090000        1.0080           0
     46556 WT16     404      MECN     H12      HGA3     0.090000        1.0080           0
     46557 WT16     404      MECN     H13      HGA3     0.090000        1.0080           0
     46558 WT16     404      MECN     C2       CG1N1    0.360000       12.0110           0
     46559 WT16     404      MECN     N3       NG1T1   -0.460000       14.0070           0
     46560 WT16     407      MECN     C1       CG331   -0.170000       12.0110           0
     46561 WT16     407      MECN     H11      HGA3     0.090000        1.0080           0
     46562 WT16     407      MECN     H12      HGA3     0.090000        1.0080           0
     46563 WT16     407      MECN     H13      HGA3     0.090000        1.0080           0
     46564 WT16     407      MECN     C2       CG1N1    0.360000       12.0110           0
     46565 WT16     407      MECN     N3       NG1T1   -0.460000       14.0070           0
     46566 WT16     412      MECN     C1       CG331   -0.170000       12.0110           0
     46567 WT16     412      MECN     H11      HGA3     0.090000        1.0080           0
     46568 WT16     412      MECN     H12      HGA3     0.090000        1.0080           0
     46569 WT16     412      MECN     H13      HGA3     0.090000        1.0080           0
     46570 WT16     412      MECN     C2       CG1N1    0.360000       12.0110           0
     46571 WT16     412      MECN     N3       NG1T1   -0.460000       14.0070           0
     46572 WT16     414      MECN     C1       CG331   -0.170000       12.0110           0
     46573 WT16     414      MECN     H11      HGA3     0.090000        1.0080           0
     46574 WT16     414      MECN     H12      HGA3     0.090000        1.0080           0
     46575 WT16     414      MECN     H13      HGA3     0.090000        1.0080           0
     46576 WT16     414      MECN     C2       CG1N1    0.360000       12.0110           0
     46577 WT16     414      MECN     N3       NG1T1   -0.460000       14.0070           0
     46578 WT16     415      MECN     C1       CG331   -0.170000       12.0110           0
     46579 WT16     415      MECN     H11      HGA3     0.090000        1.0080           0
     46580 WT16     415      MECN     H12      HGA3     0.090000        1.0080           0
     46581 WT16     415      MECN     H13      HGA3     0.090000        1.0080           0
     46582 WT16     415      MECN     C2       CG1N1    0.360000       12.0110           0
     46583 WT16     415      MECN     N3       NG1T1   -0.460000       14.0070           0
     46584 WT16     416      MECN     C1       CG331   -0.170000       12.0110           0
     46585 WT16     416      MECN     H11      HGA3     0.090000        1.0080           0
     46586 WT16     416      MECN     H12      HGA3     0.090000        1.0080           0
     46587 WT16     416      MECN     H13      HGA3     0.090000        1.0080           0
     46588 WT16     416      MECN     C2       CG1N1    0.360000       12.0110           0
     46589 WT16     416      MECN     N3       NG1T1   -0.460000       14.0070           0
     46590 WT16     421      MECN     C1       CG331   -0.170000       12.0110           0
     46591 WT16     421      MECN     H11      HGA3     0.090000        1.0080           0
     46592 WT16     421      MECN     H12      HGA3     0.090000        1.0080           0
     46593 WT16     421      MECN     H13      HGA3     0.090000        1.0080           0
     46594 WT16     421      MECN     C2       CG1N1    0.360000       12.0110           0
     46595 WT16     421      MECN     N3       NG1T1   -0.460000       14.0070           0
     46596 WT16     423      MECN     C1       CG331   -0.170000       12.0110           0
     46597 WT16     423      MECN     H11      HGA3     0.090000        1.0080           0
     46598 WT16     423      MECN     H12      HGA3     0.090000        1.0080           0
     46599 WT16     423      MECN     H13      HGA3     0.090000        1.0080           0
     46600 WT16     423      MECN     C2       CG1N1    0.360000       12.0110           0
     46601 WT16     423      MECN     N3       NG1T1   -0.460000       14.0070           0
     46602 WT16     430      MECN     C1       CG331   -0.170000       12.0110           0
     46603 WT16     430      MECN     H11      HGA3     0.090000        1.0080           0
     46604 WT16     430      MECN     H12      HGA3     0.090000        1.0080           0
     46605 WT16     430      MECN     H13      HGA3     0.090000        1.0080           0
     46606 WT16     430      MECN     C2       CG1N1    0.360000       12.0110           0
     46607 WT16     430      MECN     N3       NG1T1   -0.460000       14.0070           0
     46608 WT16     432      MECN     C1       CG331   -0.170000       12.0110           0
     46609 WT16     432      MECN     H11      HGA3     0.090000        1.0080           0
     46610 WT16     432      MECN     H12      HGA3     0.090000        1.0080           0
     46611 WT16     432      MECN     H13      HGA3     0.090000        1.0080           0
     46612 WT16     432      MECN     C2       CG1N1    0.360000       12.0110           0
     46613 WT16     432      MECN     N3       NG1T1   -0.460000       14.0070           0
     46614 WT16     433      MECN     C1       CG331   -0.170000       12.0110           0
     46615 WT16     433      MECN     H11      HGA3     0.090000        1.0080           0
     46616 WT16     433      MECN     H12      HGA3     0.090000        1.0080           0
     46617 WT16     433      MECN     H13      HGA3     0.090000        1.0080           0
     46618 WT16     433      MECN     C2       CG1N1    0.360000       12.0110           0
     46619 WT16     433      MECN     N3       NG1T1   -0.460000       14.0070           0
     46620 WT16     437      MECN     C1       CG331   -0.170000       12.0110           0
     46621 WT16     437      MECN     H11      HGA3     0.090000        1.0080           0
     46622 WT16     437      MECN     H12      HGA3     0.090000        1.0080           0
     46623 WT16     437      MECN     H13      HGA3     0.090000        1.0080           0
     46624 WT16     437      MECN     C2       CG1N1    0.360000       12.0110           0
     46625 WT16     437      MECN     N3       NG1T1   -0.460000       14.0070           0
     46626 WT16     438      MECN     C1       CG331   -0.170000       12.0110           0
     46627 WT16     438      MECN     H11      HGA3     0.090000        1.0080           0
     46628 WT16     438      MECN     H12      HGA3     0.090000        1.0080           0
     46629 WT16     438      MECN     H13      HGA3     0.090000        1.0080           0
     46630 WT16     438      MECN     C2       CG1N1    0.360000       12.0110           0
     46631 WT16     438      MECN     N3       NG1T1   -0.460000       14.0070           0
     46632 WT16     439      MECN     C1       CG331   -0.170000       12.0110           0
     46633 WT16     439      MECN     H11      HGA3     0.090000        1.0080           0
     46634 WT16     439      MECN     H12      HGA3     0.090000        1.0080           0
     46635 WT16     439      MECN     H13      HGA3     0.090000        1.0080           0
     46636 WT16     439      MECN     C2       CG1N1    0.360000       12.0110           0
     46637 WT16     439      MECN     N3       NG1T1   -0.460000       14.0070           0
     46638 WT16     442      MECN     C1       CG331   -0.170000       12.0110           0
     46639 WT16     442      MECN     H11      HGA3     0.090000        1.0080           0
     46640 WT16     442      MECN     H12      HGA3     0.090000        1.0080           0
     46641 WT16     442      MECN     H13      HGA3     0.090000        1.0080           0
     46642 WT16     442      MECN     C2       CG1N1    0.360000       12.0110           0
     46643 WT16     442      MECN     N3       NG1T1   -0.460000       14.0070           0
     46644 WT16     443      MECN     C1       CG331   -0.170000       12.0110           0
     46645 WT16     443      MECN     H11      HGA3     0.090000        1.0080           0
     46646 WT16     443      MECN     H12      HGA3     0.090000        1.0080           0
     46647 WT16     443      MECN     H13      HGA3     0.090000        1.0080           0
     46648 WT16     443      MECN     C2       CG1N1    0.360000       12.0110           0
     46649 WT16     443      MECN     N3       NG1T1   -0.460000       14.0070           0
     46650 WT16     444      MECN     C1       CG331   -0.170000       12.0110           0
     46651 WT16     444      MECN     H11      HGA3     0.090000        1.0080           0
     46652 WT16     444      MECN     H12      HGA3     0.090000        1.0080           0
     46653 WT16     444      MECN     H13      HGA3     0.090000        1.0080           0
     46654 WT16     444      MECN     C2       CG1N1    0.360000       12.0110           0
     46655 WT16     444      MECN     N3       NG1T1   -0.460000       14.0070           0
     46656 WT16     446      MECN     C1       CG331   -0.170000       12.0110           0
     46657 WT16     446      MECN     H11      HGA3     0.090000        1.0080           0
     46658 WT16     446      MECN     H12      HGA3     0.090000        1.0080           0
     46659 WT16     446      MECN     H13      HGA3     0.090000        1.0080           0
     46660 WT16     446      MECN     C2       CG1N1    0.360000       12.0110           0
     46661 WT16     446      MECN     N3       NG1T1   -0.460000       14.0070           0
     46662 WT16     449      MECN     C1       CG331   -0.170000       12.0110           0
     46663 WT16     449      MECN     H11      HGA3     0.090000        1.0080           0
     46664 WT16     449      MECN     H12      HGA3     0.090000        1.0080           0
     46665 WT16     449      MECN     H13      HGA3     0.090000        1.0080           0
     46666 WT16     449      MECN     C2       CG1N1    0.360000       12.0110           0
     46667 WT16     449      MECN     N3       NG1T1   -0.460000       14.0070           0
     46668 WT16     451      MECN     C1       CG331   -0.170000       12.0110           0
     46669 WT16     451      MECN     H11      HGA3     0.090000        1.0080           0
     46670 WT16     451      MECN     H12      HGA3     0.090000        1.0080           0
     46671 WT16     451      MECN     H13      HGA3     0.090000        1.0080           0
     46672 WT16     451      MECN     C2       CG1N1    0.360000       12.0110           0
     46673 WT16     451      MECN     N3       NG1T1   -0.460000       14.0070           0
     46674 WT16     452      MECN     C1       CG331   -0.170000       12.0110           0
     46675 WT16     452      MECN     H11      HGA3     0.090000        1.0080           0
     46676 WT16     452      MECN     H12      HGA3     0.090000        1.0080           0
     46677 WT16     452      MECN     H13      HGA3     0.090000        1.0080           0
     46678 WT16     452      MECN     C2       CG1N1    0.360000       12.0110           0
     46679 WT16     452      MECN     N3       NG1T1   -0.460000       14.0070           0
     46680 WT16     453      MECN     C1       CG331   -0.170000       12.0110           0
     46681 WT16     453      MECN     H11      HGA3     0.090000        1.0080           0
     46682 WT16     453      MECN     H12      HGA3     0.090000        1.0080           0
     46683 WT16     453      MECN     H13      HGA3     0.090000        1.0080           0
     46684 WT16     453      MECN     C2       CG1N1    0.360000       12.0110           0
     46685 WT16     453      MECN     N3       NG1T1   -0.460000       14.0070           0
     46686 WT16     456      MECN     C1       CG331   -0.170000       12.0110           0
     46687 WT16     456      MECN     H11      HGA3     0.090000        1.0080           0
     46688 WT16     456      MECN     H12      HGA3     0.090000        1.0080           0
     46689 WT16     456      MECN     H13      HGA3     0.090000        1.0080           0
     46690 WT16     456      MECN     C2       CG1N1    0.360000       12.0110           0
     46691 WT16     456      MECN     N3       NG1T1   -0.460000       14.0070           0
     46692 WT16     464      MECN     C1       CG331   -0.170000       12.0110           0
     46693 WT16     464      MECN     H11      HGA3     0.090000        1.0080           0
     46694 WT16     464      MECN     H12      HGA3     0.090000        1.0080           0
     46695 WT16     464      MECN     H13      HGA3     0.090000        1.0080           0
     46696 WT16     464      MECN     C2       CG1N1    0.360000       12.0110           0
     46697 WT16     464      MECN     N3       NG1T1   -0.460000       14.0070           0
     46698 WT16     465      MECN     C1       CG331   -0.170000       12.0110           0
     46699 WT16     465      MECN     H11      HGA3     0.090000        1.0080           0
     46700 WT16     465      MECN     H12      HGA3     0.090000        1.0080           0
     46701 WT16     465      MECN     H13      HGA3     0.090000        1.0080           0
     46702 WT16     465      MECN     C2       CG1N1    0.360000       12.0110           0
     46703 WT16     465      MECN     N3       NG1T1   -0.460000       14.0070           0
     46704 WT16     469      MECN     C1       CG331   -0.170000       12.0110           0
     46705 WT16     469      MECN     H11      HGA3     0.090000        1.0080           0
     46706 WT16     469      MECN     H12      HGA3     0.090000        1.0080           0
     46707 WT16     469      MECN     H13      HGA3     0.090000        1.0080           0
     46708 WT16     469      MECN     C2       CG1N1    0.360000       12.0110           0
     46709 WT16     469      MECN     N3       NG1T1   -0.460000       14.0070           0
     46710 WT16     472      MECN     C1       CG331   -0.170000       12.0110           0
     46711 WT16     472      MECN     H11      HGA3     0.090000        1.0080           0
     46712 WT16     472      MECN     H12      HGA3     0.090000        1.0080           0
     46713 WT16     472      MECN     H13      HGA3     0.090000        1.0080           0
     46714 WT16     472      MECN     C2       CG1N1    0.360000       12.0110           0
     46715 WT16     472      MECN     N3       NG1T1   -0.460000       14.0070           0
     46716 WT16     474      MECN     C1       CG331   -0.170000       12.0110           0
     46717 WT16     474      MECN     H11      HGA3     0.090000        1.0080           0
     46718 WT16     474      MECN     H12      HGA3     0.090000        1.0080           0
     46719 WT16     474      MECN     H13      HGA3     0.090000        1.0080           0
     46720 WT16     474      MECN     C2       CG1N1    0.360000       12.0110           0
     46721 WT16     474      MECN     N3       NG1T1   -0.460000       14.0070           0
     46722 WT16     478      MECN     C1       CG331   -0.170000       12.0110           0
     46723 WT16     478      MECN     H11      HGA3     0.090000        1.0080           0
     46724 WT16     478      MECN     H12      HGA3     0.090000        1.0080           0
     46725 WT16     478      MECN     H13      HGA3     0.090000        1.0080           0
     46726 WT16     478      MECN     C2       CG1N1    0.360000       12.0110           0
     46727 WT16     478      MECN     N3       NG1T1   -0.460000       14.0070           0
     46728 WT16     479      MECN     C1       CG331   -0.170000       12.0110           0
     46729 WT16     479      MECN     H11      HGA3     0.090000        1.0080           0
     46730 WT16     479      MECN     H12      HGA3     0.090000        1.0080           0
     46731 WT16     479      MECN     H13      HGA3     0.090000        1.0080           0
     46732 WT16     479      MECN     C2       CG1N1    0.360000       12.0110           0
     46733 WT16     479      MECN     N3       NG1T1   -0.460000       14.0070           0
     46734 WT16     480      MECN     C1       CG331   -0.170000       12.0110           0
     46735 WT16     480      MECN     H11      HGA3     0.090000        1.0080           0
     46736 WT16     480      MECN     H12      HGA3     0.090000        1.0080           0
     46737 WT16     480      MECN     H13      HGA3     0.090000        1.0080           0
     46738 WT16     480      MECN     C2       CG1N1    0.360000       12.0110           0
     46739 WT16     480      MECN     N3       NG1T1   -0.460000       14.0070           0
     46740 WT16     481      MECN     C1       CG331   -0.170000       12.0110           0
     46741 WT16     481      MECN     H11      HGA3     0.090000        1.0080           0
     46742 WT16     481      MECN     H12      HGA3     0.090000        1.0080           0
     46743 WT16     481      MECN     H13      HGA3     0.090000        1.0080           0
     46744 WT16     481      MECN     C2       CG1N1    0.360000       12.0110           0
     46745 WT16     481      MECN     N3       NG1T1   -0.460000       14.0070           0
     46746 WT16     484      MECN     C1       CG331   -0.170000       12.0110           0
     46747 WT16     484      MECN     H11      HGA3     0.090000        1.0080           0
     46748 WT16     484      MECN     H12      HGA3     0.090000        1.0080           0
     46749 WT16     484      MECN     H13      HGA3     0.090000        1.0080           0
     46750 WT16     484      MECN     C2       CG1N1    0.360000       12.0110           0
     46751 WT16     484      MECN     N3       NG1T1   -0.460000       14.0070           0
     46752 WT16     497      MECN     C1       CG331   -0.170000       12.0110           0
     46753 WT16     497      MECN     H11      HGA3     0.090000        1.0080           0
     46754 WT16     497      MECN     H12      HGA3     0.090000        1.0080           0
     46755 WT16     497      MECN     H13      HGA3     0.090000        1.0080           0
     46756 WT16     497      MECN     C2       CG1N1    0.360000       12.0110           0
     46757 WT16     497      MECN     N3       NG1T1   -0.460000       14.0070           0
     46758 WT16     505      MECN     C1       CG331   -0.170000       12.0110           0
     46759 WT16     505      MECN     H11      HGA3     0.090000        1.0080           0
     46760 WT16     505      MECN     H12      HGA3     0.090000        1.0080           0
     46761 WT16     505      MECN     H13      HGA3     0.090000        1.0080           0
     46762 WT16     505      MECN     C2       CG1N1    0.360000       12.0110           0
     46763 WT16     505      MECN     N3       NG1T1   -0.460000       14.0070           0
     46764 WT16     508      MECN     C1       CG331   -0.170000       12.0110           0
     46765 WT16     508      MECN     H11      HGA3     0.090000        1.0080           0
     46766 WT16     508      MECN     H12      HGA3     0.090000        1.0080           0
     46767 WT16     508      MECN     H13      HGA3     0.090000        1.0080           0
     46768 WT16     508      MECN     C2       CG1N1    0.360000       12.0110           0
     46769 WT16     508      MECN     N3       NG1T1   -0.460000       14.0070           0
     46770 WT16     510      MECN     C1       CG331   -0.170000       12.0110           0
     46771 WT16     510      MECN     H11      HGA3     0.090000        1.0080           0
     46772 WT16     510      MECN     H12      HGA3     0.090000        1.0080           0
     46773 WT16     510      MECN     H13      HGA3     0.090000        1.0080           0
     46774 WT16     510      MECN     C2       CG1N1    0.360000       12.0110           0
     46775 WT16     510      MECN     N3       NG1T1   -0.460000       14.0070           0
     46776 WT16     511      MECN     C1       CG331   -0.170000       12.0110           0
     46777 WT16     511      MECN     H11      HGA3     0.090000        1.0080           0
     46778 WT16     511      MECN     H12      HGA3     0.090000        1.0080           0
     46779 WT16     511      MECN     H13      HGA3     0.090000        1.0080           0
     46780 WT16     511      MECN     C2       CG1N1    0.360000       12.0110           0
     46781 WT16     511      MECN     N3       NG1T1   -0.460000       14.0070           0
     46782 WT16     512      MECN     C1       CG331   -0.170000       12.0110           0
     46783 WT16     512      MECN     H11      HGA3     0.090000        1.0080           0
     46784 WT16     512      MECN     H12      HGA3     0.090000        1.0080           0
     46785 WT16     512      MECN     H13      HGA3     0.090000        1.0080           0
     46786 WT16     512      MECN     C2       CG1N1    0.360000       12.0110           0
     46787 WT16     512      MECN     N3       NG1T1   -0.460000       14.0070           0
     46788 WT16     517      MECN     C1       CG331   -0.170000       12.0110           0
     46789 WT16     517      MECN     H11      HGA3     0.090000        1.0080           0
     46790 WT16     517      MECN     H12      HGA3     0.090000        1.0080           0
     46791 WT16     517      MECN     H13      HGA3     0.090000        1.0080           0
     46792 WT16     517      MECN     C2       CG1N1    0.360000       12.0110           0
     46793 WT16     517      MECN     N3       NG1T1   -0.460000       14.0070           0
     46794 WT16     518      MECN     C1       CG331   -0.170000       12.0110           0
     46795 WT16     518      MECN     H11      HGA3     0.090000        1.0080           0
     46796 WT16     518      MECN     H12      HGA3     0.090000        1.0080           0
     46797 WT16     518      MECN     H13      HGA3     0.090000        1.0080           0
     46798 WT16     518      MECN     C2       CG1N1    0.360000       12.0110           0
     46799 WT16     518      MECN     N3       NG1T1   -0.460000       14.0070           0
     46800 WT16     525      MECN     C1       CG331   -0.170000       12.0110           0
     46801 WT16     525      MECN     H11      HGA3     0.090000        1.0080           0
     46802 WT16     525      MECN     H12      HGA3     0.090000        1.0080           0
     46803 WT16     525      MECN     H13      HGA3     0.090000        1.0080           0
     46804 WT16     525      MECN     C2       CG1N1    0.360000       12.0110           0
     46805 WT16     525      MECN     N3       NG1T1   -0.460000       14.0070           0
     46806 WT16     526      MECN     C1       CG331   -0.170000       12.0110           0
     46807 WT16     526      MECN     H11      HGA3     0.090000        1.0080           0
     46808 WT16     526      MECN     H12      HGA3     0.090000        1.0080           0
     46809 WT16     526      MECN     H13      HGA3     0.090000        1.0080           0
     46810 WT16     526      MECN     C2       CG1N1    0.360000       12.0110           0
     46811 WT16     526      MECN     N3       NG1T1   -0.460000       14.0070           0
     46812 WT16     527      MECN     C1       CG331   -0.170000       12.0110           0
     46813 WT16     527      MECN     H11      HGA3     0.090000        1.0080           0
     46814 WT16     527      MECN     H12      HGA3     0.090000        1.0080           0
     46815 WT16     527      MECN     H13      HGA3     0.090000        1.0080           0
     46816 WT16     527      MECN     C2       CG1N1    0.360000       12.0110           0
     46817 WT16     527      MECN     N3       NG1T1   -0.460000       14.0070           0
     46818 WT16     528      MECN     C1       CG331   -0.170000       12.0110           0
     46819 WT16     528      MECN     H11      HGA3     0.090000        1.0080           0
     46820 WT16     528      MECN     H12      HGA3     0.090000        1.0080           0
     46821 WT16     528      MECN     H13      HGA3     0.090000        1.0080           0
     46822 WT16     528      MECN     C2       CG1N1    0.360000       12.0110           0
     46823 WT16     528      MECN     N3       NG1T1   -0.460000       14.0070           0
     46824 WT16     535      MECN     C1       CG331   -0.170000       12.0110           0
     46825 WT16     535      MECN     H11      HGA3     0.090000        1.0080           0
     46826 WT16     535      MECN     H12      HGA3     0.090000        1.0080           0
     46827 WT16     535      MECN     H13      HGA3     0.090000        1.0080           0
     46828 WT16     535      MECN     C2       CG1N1    0.360000       12.0110           0
     46829 WT16     535      MECN     N3       NG1T1   -0.460000       14.0070           0
     46830 WT16     541      MECN     C1       CG331   -0.170000       12.0110           0
     46831 WT16     541      MECN     H11      HGA3     0.090000        1.0080           0
     46832 WT16     541      MECN     H12      HGA3     0.090000        1.0080           0
     46833 WT16     541      MECN     H13      HGA3     0.090000        1.0080           0
     46834 WT16     541      MECN     C2       CG1N1    0.360000       12.0110           0
     46835 WT16     541      MECN     N3       NG1T1   -0.460000       14.0070           0
     46836 WT16     542      MECN     C1       CG331   -0.170000       12.0110           0
     46837 WT16     542      MECN     H11      HGA3     0.090000        1.0080           0
     46838 WT16     542      MECN     H12      HGA3     0.090000        1.0080           0
     46839 WT16     542      MECN     H13      HGA3     0.090000        1.0080           0
     46840 WT16     542      MECN     C2       CG1N1    0.360000       12.0110           0
     46841 WT16     542      MECN     N3       NG1T1   -0.460000       14.0070           0
     46842 WT16     544      MECN     C1       CG331   -0.170000       12.0110           0
     46843 WT16     544      MECN     H11      HGA3     0.090000        1.0080           0
     46844 WT16     544      MECN     H12      HGA3     0.090000        1.0080           0
     46845 WT16     544      MECN     H13      HGA3     0.090000        1.0080           0
     46846 WT16     544      MECN     C2       CG1N1    0.360000       12.0110           0
     46847 WT16     544      MECN     N3       NG1T1   -0.460000       14.0070           0
     46848 WT16     546      MECN     C1       CG331   -0.170000       12.0110           0
     46849 WT16     546      MECN     H11      HGA3     0.090000        1.0080           0
     46850 WT16     546      MECN     H12      HGA3     0.090000        1.0080           0
     46851 WT16     546      MECN     H13      HGA3     0.090000        1.0080           0
     46852 WT16     546      MECN     C2       CG1N1    0.360000       12.0110           0
     46853 WT16     546      MECN     N3       NG1T1   -0.460000       14.0070           0
     46854 WT16     554      MECN     C1       CG331   -0.170000       12.0110           0
     46855 WT16     554      MECN     H11      HGA3     0.090000        1.0080           0
     46856 WT16     554      MECN     H12      HGA3     0.090000        1.0080           0
     46857 WT16     554      MECN     H13      HGA3     0.090000        1.0080           0
     46858 WT16     554      MECN     C2       CG1N1    0.360000       12.0110           0
     46859 WT16     554      MECN     N3       NG1T1   -0.460000       14.0070           0
     46860 WT16     556      MECN     C1       CG331   -0.170000       12.0110           0
     46861 WT16     556      MECN     H11      HGA3     0.090000        1.0080           0
     46862 WT16     556      MECN     H12      HGA3     0.090000        1.0080           0
     46863 WT16     556      MECN     H13      HGA3     0.090000        1.0080           0
     46864 WT16     556      MECN     C2       CG1N1    0.360000       12.0110           0
     46865 WT16     556      MECN     N3       NG1T1   -0.460000       14.0070           0
     46866 WT16     558      MECN     C1       CG331   -0.170000       12.0110           0
     46867 WT16     558      MECN     H11      HGA3     0.090000        1.0080           0
     46868 WT16     558      MECN     H12      HGA3     0.090000        1.0080           0
     46869 WT16     558      MECN     H13      HGA3     0.090000        1.0080           0
     46870 WT16     558      MECN     C2       CG1N1    0.360000       12.0110           0
     46871 WT16     558      MECN     N3       NG1T1   -0.460000       14.0070           0
     46872 WT16     559      MECN     C1       CG331   -0.170000       12.0110           0
     46873 WT16     559      MECN     H11      HGA3     0.090000        1.0080           0
     46874 WT16     559      MECN     H12      HGA3     0.090000        1.0080           0
     46875 WT16     559      MECN     H13      HGA3     0.090000        1.0080           0
     46876 WT16     559      MECN     C2       CG1N1    0.360000       12.0110           0
     46877 WT16     559      MECN     N3       NG1T1   -0.460000       14.0070           0
     46878 WT16     562      MECN     C1       CG331   -0.170000       12.0110           0
     46879 WT16     562      MECN     H11      HGA3     0.090000        1.0080           0
     46880 WT16     562      MECN     H12      HGA3     0.090000        1.0080           0
     46881 WT16     562      MECN     H13      HGA3     0.090000        1.0080           0
     46882 WT16     562      MECN     C2       CG1N1    0.360000       12.0110           0
     46883 WT16     562      MECN     N3       NG1T1   -0.460000       14.0070           0
     46884 WT16     566      MECN     C1       CG331   -0.170000       12.0110           0
     46885 WT16     566      MECN     H11      HGA3     0.090000        1.0080           0
     46886 WT16     566      MECN     H12      HGA3     0.090000        1.0080           0
     46887 WT16     566      MECN     H13      HGA3     0.090000        1.0080           0
     46888 WT16     566      MECN     C2       CG1N1    0.360000       12.0110           0
     46889 WT16     566      MECN     N3       NG1T1   -0.460000       14.0070           0
     46890 WT16     569      MECN     C1       CG331   -0.170000       12.0110           0
     46891 WT16     569      MECN     H11      HGA3     0.090000        1.0080           0
     46892 WT16     569      MECN     H12      HGA3     0.090000        1.0080           0
     46893 WT16     569      MECN     H13      HGA3     0.090000        1.0080           0
     46894 WT16     569      MECN     C2       CG1N1    0.360000       12.0110           0
     46895 WT16     569      MECN     N3       NG1T1   -0.460000       14.0070           0
     46896 WT16     584      MECN     C1       CG331   -0.170000       12.0110           0
     46897 WT16     584      MECN     H11      HGA3     0.090000        1.0080           0
     46898 WT16     584      MECN     H12      HGA3     0.090000        1.0080           0
     46899 WT16     584      MECN     H13      HGA3     0.090000        1.0080           0
     46900 WT16     584      MECN     C2       CG1N1    0.360000       12.0110           0
     46901 WT16     584      MECN     N3       NG1T1   -0.460000       14.0070           0
     46902 WT16     585      MECN     C1       CG331   -0.170000       12.0110           0
     46903 WT16     585      MECN     H11      HGA3     0.090000        1.0080           0
     46904 WT16     585      MECN     H12      HGA3     0.090000        1.0080           0
     46905 WT16     585      MECN     H13      HGA3     0.090000        1.0080           0
     46906 WT16     585      MECN     C2       CG1N1    0.360000       12.0110           0
     46907 WT16     585      MECN     N3       NG1T1   -0.460000       14.0070           0
     46908 WT16     588      MECN     C1       CG331   -0.170000       12.0110           0
     46909 WT16     588      MECN     H11      HGA3     0.090000        1.0080           0
     46910 WT16     588      MECN     H12      HGA3     0.090000        1.0080           0
     46911 WT16     588      MECN     H13      HGA3     0.090000        1.0080           0
     46912 WT16     588      MECN     C2       CG1N1    0.360000       12.0110           0
     46913 WT16     588      MECN     N3       NG1T1   -0.460000       14.0070           0
     46914 WT16     595      MECN     C1       CG331   -0.170000       12.0110           0
     46915 WT16     595      MECN     H11      HGA3     0.090000        1.0080           0
     46916 WT16     595      MECN     H12      HGA3     0.090000        1.0080           0
     46917 WT16     595      MECN     H13      HGA3     0.090000        1.0080           0
     46918 WT16     595      MECN     C2       CG1N1    0.360000       12.0110           0
     46919 WT16     595      MECN     N3       NG1T1   -0.460000       14.0070           0
     46920 WT16     599      MECN     C1       CG331   -0.170000       12.0110           0
     46921 WT16     599      MECN     H11      HGA3     0.090000        1.0080           0
     46922 WT16     599      MECN     H12      HGA3     0.090000        1.0080           0
     46923 WT16     599      MECN     H13      HGA3     0.090000        1.0080           0
     46924 WT16     599      MECN     C2       CG1N1    0.360000       12.0110           0
     46925 WT16     599      MECN     N3       NG1T1   -0.460000       14.0070           0
     46926 WT16     601      MECN     C1       CG331   -0.170000       12.0110           0
     46927 WT16     601      MECN     H11      HGA3     0.090000        1.0080           0
     46928 WT16     601      MECN     H12      HGA3     0.090000        1.0080           0
     46929 WT16     601      MECN     H13      HGA3     0.090000        1.0080           0
     46930 WT16     601      MECN     C2       CG1N1    0.360000       12.0110           0
     46931 WT16     601      MECN     N3       NG1T1   -0.460000       14.0070           0
     46932 WT16     602      MECN     C1       CG331   -0.170000       12.0110           0
     46933 WT16     602      MECN     H11      HGA3     0.090000        1.0080           0
     46934 WT16     602      MECN     H12      HGA3     0.090000        1.0080           0
     46935 WT16     602      MECN     H13      HGA3     0.090000        1.0080           0
     46936 WT16     602      MECN     C2       CG1N1    0.360000       12.0110           0
     46937 WT16     602      MECN     N3       NG1T1   -0.460000       14.0070           0
     46938 WT16     605      MECN     C1       CG331   -0.170000       12.0110           0
     46939 WT16     605      MECN     H11      HGA3     0.090000        1.0080           0
     46940 WT16     605      MECN     H12      HGA3     0.090000        1.0080           0
     46941 WT16     605      MECN     H13      HGA3     0.090000        1.0080           0
     46942 WT16     605      MECN     C2       CG1N1    0.360000       12.0110           0
     46943 WT16     605      MECN     N3       NG1T1   -0.460000       14.0070           0
     46944 WT16     608      MECN     C1       CG331   -0.170000       12.0110           0
     46945 WT16     608      MECN     H11      HGA3     0.090000        1.0080           0
     46946 WT16     608      MECN     H12      HGA3     0.090000        1.0080           0
     46947 WT16     608      MECN     H13      HGA3     0.090000        1.0080           0
     46948 WT16     608      MECN     C2       CG1N1    0.360000       12.0110           0
     46949 WT16     608      MECN     N3       NG1T1   -0.460000       14.0070           0
     46950 WT16     611      MECN     C1       CG331   -0.170000       12.0110           0
     46951 WT16     611      MECN     H11      HGA3     0.090000        1.0080           0
     46952 WT16     611      MECN     H12      HGA3     0.090000        1.0080           0
     46953 WT16     611      MECN     H13      HGA3     0.090000        1.0080           0
     46954 WT16     611      MECN     C2       CG1N1    0.360000       12.0110           0
     46955 WT16     611      MECN     N3       NG1T1   -0.460000       14.0070           0
     46956 WT16     615      MECN     C1       CG331   -0.170000       12.0110           0
     46957 WT16     615      MECN     H11      HGA3     0.090000        1.0080           0
     46958 WT16     615      MECN     H12      HGA3     0.090000        1.0080           0
     46959 WT16     615      MECN     H13      HGA3     0.090000        1.0080           0
     46960 WT16     615      MECN     C2       CG1N1    0.360000       12.0110           0
     46961 WT16     615      MECN     N3       NG1T1   -0.460000       14.0070           0
     46962 WT16     617      MECN     C1       CG331   -0.170000       12.0110           0
     46963 WT16     617      MECN     H11      HGA3     0.090000        1.0080           0
     46964 WT16     617      MECN     H12      HGA3     0.090000        1.0080           0
     46965 WT16     617      MECN     H13      HGA3     0.090000        1.0080           0
     46966 WT16     617      MECN     C2       CG1N1    0.360000       12.0110           0
     46967 WT16     617      MECN     N3       NG1T1   -0.460000       14.0070           0
     46968 WT16     618      MECN     C1       CG331   -0.170000       12.0110           0
     46969 WT16     618      MECN     H11      HGA3     0.090000        1.0080           0
     46970 WT16     618      MECN     H12      HGA3     0.090000        1.0080           0
     46971 WT16     618      MECN     H13      HGA3     0.090000        1.0080           0
     46972 WT16     618      MECN     C2       CG1N1    0.360000       12.0110           0
     46973 WT16     618      MECN     N3       NG1T1   -0.460000       14.0070           0
     46974 WT16     619      MECN     C1       CG331   -0.170000       12.0110           0
     46975 WT16     619      MECN     H11      HGA3     0.090000        1.0080           0
     46976 WT16     619      MECN     H12      HGA3     0.090000        1.0080           0
     46977 WT16     619      MECN     H13      HGA3     0.090000        1.0080           0
     46978 WT16     619      MECN     C2       CG1N1    0.360000       12.0110           0
     46979 WT16     619      MECN     N3       NG1T1   -0.460000       14.0070           0
     46980 WT16     621      MECN     C1       CG331   -0.170000       12.0110           0
     46981 WT16     621      MECN     H11      HGA3     0.090000        1.0080           0
     46982 WT16     621      MECN     H12      HGA3     0.090000        1.0080           0
     46983 WT16     621      MECN     H13      HGA3     0.090000        1.0080           0
     46984 WT16     621      MECN     C2       CG1N1    0.360000       12.0110           0
     46985 WT16     621      MECN     N3       NG1T1   -0.460000       14.0070           0
     46986 WT16     622      MECN     C1       CG331   -0.170000       12.0110           0
     46987 WT16     622      MECN     H11      HGA3     0.090000        1.0080           0
     46988 WT16     622      MECN     H12      HGA3     0.090000        1.0080           0
     46989 WT16     622      MECN     H13      HGA3     0.090000        1.0080           0
     46990 WT16     622      MECN     C2       CG1N1    0.360000       12.0110           0
     46991 WT16     622      MECN     N3       NG1T1   -0.460000       14.0070           0
     46992 WT16     623      MECN     C1       CG331   -0.170000       12.0110           0
     46993 WT16     623      MECN     H11      HGA3     0.090000        1.0080           0
     46994 WT16     623      MECN     H12      HGA3     0.090000        1.0080           0
     46995 WT16     623      MECN     H13      HGA3     0.090000        1.0080           0
     46996 WT16     623      MECN     C2       CG1N1    0.360000       12.0110           0
     46997 WT16     623      MECN     N3       NG1T1   -0.460000       14.0070           0
     46998 WT16     625      MECN     C1       CG331   -0.170000       12.0110           0
     46999 WT16     625      MECN     H11      HGA3     0.090000        1.0080           0
     47000 WT16     625      MECN     H12      HGA3     0.090000        1.0080           0
     47001 WT16     625      MECN     H13      HGA3     0.090000        1.0080           0
     47002 WT16     625      MECN     C2       CG1N1    0.360000       12.0110           0
     47003 WT16     625      MECN     N3       NG1T1   -0.460000       14.0070           0
     47004 WT16     633      MECN     C1       CG331   -0.170000       12.0110           0
     47005 WT16     633      MECN     H11      HGA3     0.090000        1.0080           0
     47006 WT16     633      MECN     H12      HGA3     0.090000        1.0080           0
     47007 WT16     633      MECN     H13      HGA3     0.090000        1.0080           0
     47008 WT16     633      MECN     C2       CG1N1    0.360000       12.0110           0
     47009 WT16     633      MECN     N3       NG1T1   -0.460000       14.0070           0
     47010 WT16     634      MECN     C1       CG331   -0.170000       12.0110           0
     47011 WT16     634      MECN     H11      HGA3     0.090000        1.0080           0
     47012 WT16     634      MECN     H12      HGA3     0.090000        1.0080           0
     47013 WT16     634      MECN     H13      HGA3     0.090000        1.0080           0
     47014 WT16     634      MECN     C2       CG1N1    0.360000       12.0110           0
     47015 WT16     634      MECN     N3       NG1T1   -0.460000       14.0070           0
     47016 WT16     640      MECN     C1       CG331   -0.170000       12.0110           0
     47017 WT16     640      MECN     H11      HGA3     0.090000        1.0080           0
     47018 WT16     640      MECN     H12      HGA3     0.090000        1.0080           0
     47019 WT16     640      MECN     H13      HGA3     0.090000        1.0080           0
     47020 WT16     640      MECN     C2       CG1N1    0.360000       12.0110           0
     47021 WT16     640      MECN     N3       NG1T1   -0.460000       14.0070           0
     47022 WT16     641      MECN     C1       CG331   -0.170000       12.0110           0
     47023 WT16     641      MECN     H11      HGA3     0.090000        1.0080           0
     47024 WT16     641      MECN     H12      HGA3     0.090000        1.0080           0
     47025 WT16     641      MECN     H13      HGA3     0.090000        1.0080           0
     47026 WT16     641      MECN     C2       CG1N1    0.360000       12.0110           0
     47027 WT16     641      MECN     N3       NG1T1   -0.460000       14.0070           0
     47028 WT16     644      MECN     C1       CG331   -0.170000       12.0110           0
     47029 WT16     644      MECN     H11      HGA3     0.090000        1.0080           0
     47030 WT16     644      MECN     H12      HGA3     0.090000        1.0080           0
     47031 WT16     644      MECN     H13      HGA3     0.090000        1.0080           0
     47032 WT16     644      MECN     C2       CG1N1    0.360000       12.0110           0
     47033 WT16     644      MECN     N3       NG1T1   -0.460000       14.0070           0
     47034 WT16     645      MECN     C1       CG331   -0.170000       12.0110           0
     47035 WT16     645      MECN     H11      HGA3     0.090000        1.0080           0
     47036 WT16     645      MECN     H12      HGA3     0.090000        1.0080           0
     47037 WT16     645      MECN     H13      HGA3     0.090000        1.0080           0
     47038 WT16     645      MECN     C2       CG1N1    0.360000       12.0110           0
     47039 WT16     645      MECN     N3       NG1T1   -0.460000       14.0070           0
     47040 WT16     646      MECN     C1       CG331   -0.170000       12.0110           0
     47041 WT16     646      MECN     H11      HGA3     0.090000        1.0080           0
     47042 WT16     646      MECN     H12      HGA3     0.090000        1.0080           0
     47043 WT16     646      MECN     H13      HGA3     0.090000        1.0080           0
     47044 WT16     646      MECN     C2       CG1N1    0.360000       12.0110           0
     47045 WT16     646      MECN     N3       NG1T1   -0.460000       14.0070           0
     47046 WT16     648      MECN     C1       CG331   -0.170000       12.0110           0
     47047 WT16     648      MECN     H11      HGA3     0.090000        1.0080           0
     47048 WT16     648      MECN     H12      HGA3     0.090000        1.0080           0
     47049 WT16     648      MECN     H13      HGA3     0.090000        1.0080           0
     47050 WT16     648      MECN     C2       CG1N1    0.360000       12.0110           0
     47051 WT16     648      MECN     N3       NG1T1   -0.460000       14.0070           0
     47052 WT16     649      MECN     C1       CG331   -0.170000       12.0110           0
     47053 WT16     649      MECN     H11      HGA3     0.090000        1.0080           0
     47054 WT16     649      MECN     H12      HGA3     0.090000        1.0080           0
     47055 WT16     649      MECN     H13      HGA3     0.090000        1.0080           0
     47056 WT16     649      MECN     C2       CG1N1    0.360000       12.0110           0
     47057 WT16     649      MECN     N3       NG1T1   -0.460000       14.0070           0
     47058 WT16     655      MECN     C1       CG331   -0.170000       12.0110           0
     47059 WT16     655      MECN     H11      HGA3     0.090000        1.0080           0
     47060 WT16     655      MECN     H12      HGA3     0.090000        1.0080           0
     47061 WT16     655      MECN     H13      HGA3     0.090000        1.0080           0
     47062 WT16     655      MECN     C2       CG1N1    0.360000       12.0110           0
     47063 WT16     655      MECN     N3       NG1T1   -0.460000       14.0070           0
     47064 WT16     656      MECN     C1       CG331   -0.170000       12.0110           0
     47065 WT16     656      MECN     H11      HGA3     0.090000        1.0080           0
     47066 WT16     656      MECN     H12      HGA3     0.090000        1.0080           0
     47067 WT16     656      MECN     H13      HGA3     0.090000        1.0080           0
     47068 WT16     656      MECN     C2       CG1N1    0.360000       12.0110           0
     47069 WT16     656      MECN     N3       NG1T1   -0.460000       14.0070           0
     47070 WT16     657      MECN     C1       CG331   -0.170000       12.0110           0
     47071 WT16     657      MECN     H11      HGA3     0.090000        1.0080           0
     47072 WT16     657      MECN     H12      HGA3     0.090000        1.0080           0
     47073 WT16     657      MECN     H13      HGA3     0.090000        1.0080           0
     47074 WT16     657      MECN     C2       CG1N1    0.360000       12.0110           0
     47075 WT16     657      MECN     N3       NG1T1   -0.460000       14.0070           0
     47076 WT16     664      MECN     C1       CG331   -0.170000       12.0110           0
     47077 WT16     664      MECN     H11      HGA3     0.090000        1.0080           0
     47078 WT16     664      MECN     H12      HGA3     0.090000        1.0080           0
     47079 WT16     664      MECN     H13      HGA3     0.090000        1.0080           0
     47080 WT16     664      MECN     C2       CG1N1    0.360000       12.0110           0
     47081 WT16     664      MECN     N3       NG1T1   -0.460000       14.0070           0
     47082 WT16     665      MECN     C1       CG331   -0.170000       12.0110           0
     47083 WT16     665      MECN     H11      HGA3     0.090000        1.0080           0
     47084 WT16     665      MECN     H12      HGA3     0.090000        1.0080           0
     47085 WT16     665      MECN     H13      HGA3     0.090000        1.0080           0
     47086 WT16     665      MECN     C2       CG1N1    0.360000       12.0110           0
     47087 WT16     665      MECN     N3       NG1T1   -0.460000       14.0070           0
     47088 WT16     666      MECN     C1       CG331   -0.170000       12.0110           0
     47089 WT16     666      MECN     H11      HGA3     0.090000        1.0080           0
     47090 WT16     666      MECN     H12      HGA3     0.090000        1.0080           0
     47091 WT16     666      MECN     H13      HGA3     0.090000        1.0080           0
     47092 WT16     666      MECN     C2       CG1N1    0.360000       12.0110           0
     47093 WT16     666      MECN     N3       NG1T1   -0.460000       14.0070           0
     47094 WT16     667      MECN     C1       CG331   -0.170000       12.0110           0
     47095 WT16     667      MECN     H11      HGA3     0.090000        1.0080           0
     47096 WT16     667      MECN     H12      HGA3     0.090000        1.0080           0
     47097 WT16     667      MECN     H13      HGA3     0.090000        1.0080           0
     47098 WT16     667      MECN     C2       CG1N1    0.360000       12.0110           0
     47099 WT16     667      MECN     N3       NG1T1   -0.460000       14.0070           0
     47100 WT16     672      MECN     C1       CG331   -0.170000       12.0110           0
     47101 WT16     672      MECN     H11      HGA3     0.090000        1.0080           0
     47102 WT16     672      MECN     H12      HGA3     0.090000        1.0080           0
     47103 WT16     672      MECN     H13      HGA3     0.090000        1.0080           0
     47104 WT16     672      MECN     C2       CG1N1    0.360000       12.0110           0
     47105 WT16     672      MECN     N3       NG1T1   -0.460000       14.0070           0
     47106 WT16     674      MECN     C1       CG331   -0.170000       12.0110           0
     47107 WT16     674      MECN     H11      HGA3     0.090000        1.0080           0
     47108 WT16     674      MECN     H12      HGA3     0.090000        1.0080           0
     47109 WT16     674      MECN     H13      HGA3     0.090000        1.0080           0
     47110 WT16     674      MECN     C2       CG1N1    0.360000       12.0110           0
     47111 WT16     674      MECN     N3       NG1T1   -0.460000       14.0070           0
     47112 WT16     678      MECN     C1       CG331   -0.170000       12.0110           0
     47113 WT16     678      MECN     H11      HGA3     0.090000        1.0080           0
     47114 WT16     678      MECN     H12      HGA3     0.090000        1.0080           0
     47115 WT16     678      MECN     H13      HGA3     0.090000        1.0080           0
     47116 WT16     678      MECN     C2       CG1N1    0.360000       12.0110           0
     47117 WT16     678      MECN     N3       NG1T1   -0.460000       14.0070           0
     47118 WT16     680      MECN     C1       CG331   -0.170000       12.0110           0
     47119 WT16     680      MECN     H11      HGA3     0.090000        1.0080           0
     47120 WT16     680      MECN     H12      HGA3     0.090000        1.0080           0
     47121 WT16     680      MECN     H13      HGA3     0.090000        1.0080           0
     47122 WT16     680      MECN     C2       CG1N1    0.360000       12.0110           0
     47123 WT16     680      MECN     N3       NG1T1   -0.460000       14.0070           0
     47124 WT16     681      MECN     C1       CG331   -0.170000       12.0110           0
     47125 WT16     681      MECN     H11      HGA3     0.090000        1.0080           0
     47126 WT16     681      MECN     H12      HGA3     0.090000        1.0080           0
     47127 WT16     681      MECN     H13      HGA3     0.090000        1.0080           0
     47128 WT16     681      MECN     C2       CG1N1    0.360000       12.0110           0
     47129 WT16     681      MECN     N3       NG1T1   -0.460000       14.0070           0
     47130 WT16     682      MECN     C1       CG331   -0.170000       12.0110           0
     47131 WT16     682      MECN     H11      HGA3     0.090000        1.0080           0
     47132 WT16     682      MECN     H12      HGA3     0.090000        1.0080           0
     47133 WT16     682      MECN     H13      HGA3     0.090000        1.0080           0
     47134 WT16     682      MECN     C2       CG1N1    0.360000       12.0110           0
     47135 WT16     682      MECN     N3       NG1T1   -0.460000       14.0070           0
     47136 WT16     691      MECN     C1       CG331   -0.170000       12.0110           0
     47137 WT16     691      MECN     H11      HGA3     0.090000        1.0080           0
     47138 WT16     691      MECN     H12      HGA3     0.090000        1.0080           0
     47139 WT16     691      MECN     H13      HGA3     0.090000        1.0080           0
     47140 WT16     691      MECN     C2       CG1N1    0.360000       12.0110           0
     47141 WT16     691      MECN     N3       NG1T1   -0.460000       14.0070           0
     47142 WT16     694      MECN     C1       CG331   -0.170000       12.0110           0
     47143 WT16     694      MECN     H11      HGA3     0.090000        1.0080           0
     47144 WT16     694      MECN     H12      HGA3     0.090000        1.0080           0
     47145 WT16     694      MECN     H13      HGA3     0.090000        1.0080           0
     47146 WT16     694      MECN     C2       CG1N1    0.360000       12.0110           0
     47147 WT16     694      MECN     N3       NG1T1   -0.460000       14.0070           0
     47148 WT16     696      MECN     C1       CG331   -0.170000       12.0110           0
     47149 WT16     696      MECN     H11      HGA3     0.090000        1.0080           0
     47150 WT16     696      MECN     H12      HGA3     0.090000        1.0080           0
     47151 WT16     696      MECN     H13      HGA3     0.090000        1.0080           0
     47152 WT16     696      MECN     C2       CG1N1    0.360000       12.0110           0
     47153 WT16     696      MECN     N3       NG1T1   -0.460000       14.0070           0
     47154 WT16     698      MECN     C1       CG331   -0.170000       12.0110           0
     47155 WT16     698      MECN     H11      HGA3     0.090000        1.0080           0
     47156 WT16     698      MECN     H12      HGA3     0.090000        1.0080           0
     47157 WT16     698      MECN     H13      HGA3     0.090000        1.0080           0
     47158 WT16     698      MECN     C2       CG1N1    0.360000       12.0110           0
     47159 WT16     698      MECN     N3       NG1T1   -0.460000       14.0070           0
     47160 WT16     709      MECN     C1       CG331   -0.170000       12.0110           0
     47161 WT16     709      MECN     H11      HGA3     0.090000        1.0080           0
     47162 WT16     709      MECN     H12      HGA3     0.090000        1.0080           0
     47163 WT16     709      MECN     H13      HGA3     0.090000        1.0080           0
     47164 WT16     709      MECN     C2       CG1N1    0.360000       12.0110           0
     47165 WT16     709      MECN     N3       NG1T1   -0.460000       14.0070           0
     47166 WT16     710      MECN     C1       CG331   -0.170000       12.0110           0
     47167 WT16     710      MECN     H11      HGA3     0.090000        1.0080           0
     47168 WT16     710      MECN     H12      HGA3     0.090000        1.0080           0
     47169 WT16     710      MECN     H13      HGA3     0.090000        1.0080           0
     47170 WT16     710      MECN     C2       CG1N1    0.360000       12.0110           0
     47171 WT16     710      MECN     N3       NG1T1   -0.460000       14.0070           0
     47172 WT16     711      MECN     C1       CG331   -0.170000       12.0110           0
     47173 WT16     711      MECN     H11      HGA3     0.090000        1.0080           0
     47174 WT16     711      MECN     H12      HGA3     0.090000        1.0080           0
     47175 WT16     711      MECN     H13      HGA3     0.090000        1.0080           0
     47176 WT16     711      MECN     C2       CG1N1    0.360000       12.0110           0
     47177 WT16     711      MECN     N3       NG1T1   -0.460000       14.0070           0
     47178 WT16     714      MECN     C1       CG331   -0.170000       12.0110           0
     47179 WT16     714      MECN     H11      HGA3     0.090000        1.0080           0
     47180 WT16     714      MECN     H12      HGA3     0.090000        1.0080           0
     47181 WT16     714      MECN     H13      HGA3     0.090000        1.0080           0
     47182 WT16     714      MECN     C2       CG1N1    0.360000       12.0110           0
     47183 WT16     714      MECN     N3       NG1T1   -0.460000       14.0070           0
     47184 WT16     717      MECN     C1       CG331   -0.170000       12.0110           0
     47185 WT16     717      MECN     H11      HGA3     0.090000        1.0080           0
     47186 WT16     717      MECN     H12      HGA3     0.090000        1.0080           0
     47187 WT16     717      MECN     H13      HGA3     0.090000        1.0080           0
     47188 WT16     717      MECN     C2       CG1N1    0.360000       12.0110           0
     47189 WT16     717      MECN     N3       NG1T1   -0.460000       14.0070           0
     47190 WT16     721      MECN     C1       CG331   -0.170000       12.0110           0
     47191 WT16     721      MECN     H11      HGA3     0.090000        1.0080           0
     47192 WT16     721      MECN     H12      HGA3     0.090000        1.0080           0
     47193 WT16     721      MECN     H13      HGA3     0.090000        1.0080           0
     47194 WT16     721      MECN     C2       CG1N1    0.360000       12.0110           0
     47195 WT16     721      MECN     N3       NG1T1   -0.460000       14.0070           0
     47196 WT16     723      MECN     C1       CG331   -0.170000       12.0110           0
     47197 WT16     723      MECN     H11      HGA3     0.090000        1.0080           0
     47198 WT16     723      MECN     H12      HGA3     0.090000        1.0080           0
     47199 WT16     723      MECN     H13      HGA3     0.090000        1.0080           0
     47200 WT16     723      MECN     C2       CG1N1    0.360000       12.0110           0
     47201 WT16     723      MECN     N3       NG1T1   -0.460000       14.0070           0
     47202 WT16     724      MECN     C1       CG331   -0.170000       12.0110           0
     47203 WT16     724      MECN     H11      HGA3     0.090000        1.0080           0
     47204 WT16     724      MECN     H12      HGA3     0.090000        1.0080           0
     47205 WT16     724      MECN     H13      HGA3     0.090000        1.0080           0
     47206 WT16     724      MECN     C2       CG1N1    0.360000       12.0110           0
     47207 WT16     724      MECN     N3       NG1T1   -0.460000       14.0070           0
     47208 WT16     725      MECN     C1       CG331   -0.170000       12.0110           0
     47209 WT16     725      MECN     H11      HGA3     0.090000        1.0080           0
     47210 WT16     725      MECN     H12      HGA3     0.090000        1.0080           0
     47211 WT16     725      MECN     H13      HGA3     0.090000        1.0080           0
     47212 WT16     725      MECN     C2       CG1N1    0.360000       12.0110           0
     47213 WT16     725      MECN     N3       NG1T1   -0.460000       14.0070           0
     47214 WT16     727      MECN     C1       CG331   -0.170000       12.0110           0
     47215 WT16     727      MECN     H11      HGA3     0.090000        1.0080           0
     47216 WT16     727      MECN     H12      HGA3     0.090000        1.0080           0
     47217 WT16     727      MECN     H13      HGA3     0.090000        1.0080           0
     47218 WT16     727      MECN     C2       CG1N1    0.360000       12.0110           0
     47219 WT16     727      MECN     N3       NG1T1   -0.460000       14.0070           0
     47220 WT16     735      MECN     C1       CG331   -0.170000       12.0110           0
     47221 WT16     735      MECN     H11      HGA3     0.090000        1.0080           0
     47222 WT16     735      MECN     H12      HGA3     0.090000        1.0080           0
     47223 WT16     735      MECN     H13      HGA3     0.090000        1.0080           0
     47224 WT16     735      MECN     C2       CG1N1    0.360000       12.0110           0
     47225 WT16     735      MECN     N3       NG1T1   -0.460000       14.0070           0
     47226 WT16     748      MECN     C1       CG331   -0.170000       12.0110           0
     47227 WT16     748      MECN     H11      HGA3     0.090000        1.0080           0
     47228 WT16     748      MECN     H12      HGA3     0.090000        1.0080           0
     47229 WT16     748      MECN     H13      HGA3     0.090000        1.0080           0
     47230 WT16     748      MECN     C2       CG1N1    0.360000       12.0110           0
     47231 WT16     748      MECN     N3       NG1T1   -0.460000       14.0070           0
     47232 WT16     751      MECN     C1       CG331   -0.170000       12.0110           0
     47233 WT16     751      MECN     H11      HGA3     0.090000        1.0080           0
     47234 WT16     751      MECN     H12      HGA3     0.090000        1.0080           0
     47235 WT16     751      MECN     H13      HGA3     0.090000        1.0080           0
     47236 WT16     751      MECN     C2       CG1N1    0.360000       12.0110           0
     47237 WT16     751      MECN     N3       NG1T1   -0.460000       14.0070           0
     47238 WT16     760      MECN     C1       CG331   -0.170000       12.0110           0
     47239 WT16     760      MECN     H11      HGA3     0.090000        1.0080           0
     47240 WT16     760      MECN     H12      HGA3     0.090000        1.0080           0
     47241 WT16     760      MECN     H13      HGA3     0.090000        1.0080           0
     47242 WT16     760      MECN     C2       CG1N1    0.360000       12.0110           0
     47243 WT16     760      MECN     N3       NG1T1   -0.460000       14.0070           0
     47244 WT16     763      MECN     C1       CG331   -0.170000       12.0110           0
     47245 WT16     763      MECN     H11      HGA3     0.090000        1.0080           0
     47246 WT16     763      MECN     H12      HGA3     0.090000        1.0080           0
     47247 WT16     763      MECN     H13      HGA3     0.090000        1.0080           0
     47248 WT16     763      MECN     C2       CG1N1    0.360000       12.0110           0
     47249 WT16     763      MECN     N3       NG1T1   -0.460000       14.0070           0
     47250 WT16     766      MECN     C1       CG331   -0.170000       12.0110           0
     47251 WT16     766      MECN     H11      HGA3     0.090000        1.0080           0
     47252 WT16     766      MECN     H12      HGA3     0.090000        1.0080           0
     47253 WT16     766      MECN     H13      HGA3     0.090000        1.0080           0
     47254 WT16     766      MECN     C2       CG1N1    0.360000       12.0110           0
     47255 WT16     766      MECN     N3       NG1T1   -0.460000       14.0070           0
     47256 WT16     767      MECN     C1       CG331   -0.170000       12.0110           0
     47257 WT16     767      MECN     H11      HGA3     0.090000        1.0080           0
     47258 WT16     767      MECN     H12      HGA3     0.090000        1.0080           0
     47259 WT16     767      MECN     H13      HGA3     0.090000        1.0080           0
     47260 WT16     767      MECN     C2       CG1N1    0.360000       12.0110           0
     47261 WT16     767      MECN     N3       NG1T1   -0.460000       14.0070           0
     47262 WT16     768      MECN     C1       CG331   -0.170000       12.0110           0
     47263 WT16     768      MECN     H11      HGA3     0.090000        1.0080           0
     47264 WT16     768      MECN     H12      HGA3     0.090000        1.0080           0
     47265 WT16     768      MECN     H13      HGA3     0.090000        1.0080           0
     47266 WT16     768      MECN     C2       CG1N1    0.360000       12.0110           0
     47267 WT16     768      MECN     N3       NG1T1   -0.460000       14.0070           0
     47268 WT16     769      MECN     C1       CG331   -0.170000       12.0110           0
     47269 WT16     769      MECN     H11      HGA3     0.090000        1.0080           0
     47270 WT16     769      MECN     H12      HGA3     0.090000        1.0080           0
     47271 WT16     769      MECN     H13      HGA3     0.090000        1.0080           0
     47272 WT16     769      MECN     C2       CG1N1    0.360000       12.0110           0
     47273 WT16     769      MECN     N3       NG1T1   -0.460000       14.0070           0
     47274 WT16     771      MECN     C1       CG331   -0.170000       12.0110           0
     47275 WT16     771      MECN     H11      HGA3     0.090000        1.0080           0
     47276 WT16     771      MECN     H12      HGA3     0.090000        1.0080           0
     47277 WT16     771      MECN     H13      HGA3     0.090000        1.0080           0
     47278 WT16     771      MECN     C2       CG1N1    0.360000       12.0110           0
     47279 WT16     771      MECN     N3       NG1T1   -0.460000       14.0070           0
     47280 WT16     772      MECN     C1       CG331   -0.170000       12.0110           0
     47281 WT16     772      MECN     H11      HGA3     0.090000        1.0080           0
     47282 WT16     772      MECN     H12      HGA3     0.090000        1.0080           0
     47283 WT16     772      MECN     H13      HGA3     0.090000        1.0080           0
     47284 WT16     772      MECN     C2       CG1N1    0.360000       12.0110           0
     47285 WT16     772      MECN     N3       NG1T1   -0.460000       14.0070           0
     47286 WT16     773      MECN     C1       CG331   -0.170000       12.0110           0
     47287 WT16     773      MECN     H11      HGA3     0.090000        1.0080           0
     47288 WT16     773      MECN     H12      HGA3     0.090000        1.0080           0
     47289 WT16     773      MECN     H13      HGA3     0.090000        1.0080           0
     47290 WT16     773      MECN     C2       CG1N1    0.360000       12.0110           0
     47291 WT16     773      MECN     N3       NG1T1   -0.460000       14.0070           0
     47292 WT16     774      MECN     C1       CG331   -0.170000       12.0110           0
     47293 WT16     774      MECN     H11      HGA3     0.090000        1.0080           0
     47294 WT16     774      MECN     H12      HGA3     0.090000        1.0080           0
     47295 WT16     774      MECN     H13      HGA3     0.090000        1.0080           0
     47296 WT16     774      MECN     C2       CG1N1    0.360000       12.0110           0
     47297 WT16     774      MECN     N3       NG1T1   -0.460000       14.0070           0
     47298 WT16     775      MECN     C1       CG331   -0.170000       12.0110           0
     47299 WT16     775      MECN     H11      HGA3     0.090000        1.0080           0
     47300 WT16     775      MECN     H12      HGA3     0.090000        1.0080           0
     47301 WT16     775      MECN     H13      HGA3     0.090000        1.0080           0
     47302 WT16     775      MECN     C2       CG1N1    0.360000       12.0110           0
     47303 WT16     775      MECN     N3       NG1T1   -0.460000       14.0070           0
     47304 WT16     776      MECN     C1       CG331   -0.170000       12.0110           0
     47305 WT16     776      MECN     H11      HGA3     0.090000        1.0080           0
     47306 WT16     776      MECN     H12      HGA3     0.090000        1.0080           0
     47307 WT16     776      MECN     H13      HGA3     0.090000        1.0080           0
     47308 WT16     776      MECN     C2       CG1N1    0.360000       12.0110           0
     47309 WT16     776      MECN     N3       NG1T1   -0.460000       14.0070           0
     47310 WT16     786      MECN     C1       CG331   -0.170000       12.0110           0
     47311 WT16     786      MECN     H11      HGA3     0.090000        1.0080           0
     47312 WT16     786      MECN     H12      HGA3     0.090000        1.0080           0
     47313 WT16     786      MECN     H13      HGA3     0.090000        1.0080           0
     47314 WT16     786      MECN     C2       CG1N1    0.360000       12.0110           0
     47315 WT16     786      MECN     N3       NG1T1   -0.460000       14.0070           0
     47316 WT16     788      MECN     C1       CG331   -0.170000       12.0110           0
     47317 WT16     788      MECN     H11      HGA3     0.090000        1.0080           0
     47318 WT16     788      MECN     H12      HGA3     0.090000        1.0080           0
     47319 WT16     788      MECN     H13      HGA3     0.090000        1.0080           0
     47320 WT16     788      MECN     C2       CG1N1    0.360000       12.0110           0
     47321 WT16     788      MECN     N3       NG1T1   -0.460000       14.0070           0
     47322 WT16     793      MECN     C1       CG331   -0.170000       12.0110           0
     47323 WT16     793      MECN     H11      HGA3     0.090000        1.0080           0
     47324 WT16     793      MECN     H12      HGA3     0.090000        1.0080           0
     47325 WT16     793      MECN     H13      HGA3     0.090000        1.0080           0
     47326 WT16     793      MECN     C2       CG1N1    0.360000       12.0110           0
     47327 WT16     793      MECN     N3       NG1T1   -0.460000       14.0070           0
     47328 WT16     794      MECN     C1       CG331   -0.170000       12.0110           0
     47329 WT16     794      MECN     H11      HGA3     0.090000        1.0080           0
     47330 WT16     794      MECN     H12      HGA3     0.090000        1.0080           0
     47331 WT16     794      MECN     H13      HGA3     0.090000        1.0080           0
     47332 WT16     794      MECN     C2       CG1N1    0.360000       12.0110           0
     47333 WT16     794      MECN     N3       NG1T1   -0.460000       14.0070           0
     47334 WT16     797      MECN     C1       CG331   -0.170000       12.0110           0
     47335 WT16     797      MECN     H11      HGA3     0.090000        1.0080           0
     47336 WT16     797      MECN     H12      HGA3     0.090000        1.0080           0
     47337 WT16     797      MECN     H13      HGA3     0.090000        1.0080           0
     47338 WT16     797      MECN     C2       CG1N1    0.360000       12.0110           0
     47339 WT16     797      MECN     N3       NG1T1   -0.460000       14.0070           0
     47340 WT16     806      MECN     C1       CG331   -0.170000       12.0110           0
     47341 WT16     806      MECN     H11      HGA3     0.090000        1.0080           0
     47342 WT16     806      MECN     H12      HGA3     0.090000        1.0080           0
     47343 WT16     806      MECN     H13      HGA3     0.090000        1.0080           0
     47344 WT16     806      MECN     C2       CG1N1    0.360000       12.0110           0
     47345 WT16     806      MECN     N3       NG1T1   -0.460000       14.0070           0
     47346 WT16     807      MECN     C1       CG331   -0.170000       12.0110           0
     47347 WT16     807      MECN     H11      HGA3     0.090000        1.0080           0
     47348 WT16     807      MECN     H12      HGA3     0.090000        1.0080           0
     47349 WT16     807      MECN     H13      HGA3     0.090000        1.0080           0
     47350 WT16     807      MECN     C2       CG1N1    0.360000       12.0110           0
     47351 WT16     807      MECN     N3       NG1T1   -0.460000       14.0070           0
     47352 WT16     808      MECN     C1       CG331   -0.170000       12.0110           0
     47353 WT16     808      MECN     H11      HGA3     0.090000        1.0080           0
     47354 WT16     808      MECN     H12      HGA3     0.090000        1.0080           0
     47355 WT16     808      MECN     H13      HGA3     0.090000        1.0080           0
     47356 WT16     808      MECN     C2       CG1N1    0.360000       12.0110           0
     47357 WT16     808      MECN     N3       NG1T1   -0.460000       14.0070           0
     47358 WT16     809      MECN     C1       CG331   -0.170000       12.0110           0
     47359 WT16     809      MECN     H11      HGA3     0.090000        1.0080           0
     47360 WT16     809      MECN     H12      HGA3     0.090000        1.0080           0
     47361 WT16     809      MECN     H13      HGA3     0.090000        1.0080           0
     47362 WT16     809      MECN     C2       CG1N1    0.360000       12.0110           0
     47363 WT16     809      MECN     N3       NG1T1   -0.460000       14.0070           0
     47364 WT16     815      MECN     C1       CG331   -0.170000       12.0110           0
     47365 WT16     815      MECN     H11      HGA3     0.090000        1.0080           0
     47366 WT16     815      MECN     H12      HGA3     0.090000        1.0080           0
     47367 WT16     815      MECN     H13      HGA3     0.090000        1.0080           0
     47368 WT16     815      MECN     C2       CG1N1    0.360000       12.0110           0
     47369 WT16     815      MECN     N3       NG1T1   -0.460000       14.0070           0
     47370 WT16     821      MECN     C1       CG331   -0.170000       12.0110           0
     47371 WT16     821      MECN     H11      HGA3     0.090000        1.0080           0
     47372 WT16     821      MECN     H12      HGA3     0.090000        1.0080           0
     47373 WT16     821      MECN     H13      HGA3     0.090000        1.0080           0
     47374 WT16     821      MECN     C2       CG1N1    0.360000       12.0110           0
     47375 WT16     821      MECN     N3       NG1T1   -0.460000       14.0070           0
     47376 WT16     823      MECN     C1       CG331   -0.170000       12.0110           0
     47377 WT16     823      MECN     H11      HGA3     0.090000        1.0080           0
     47378 WT16     823      MECN     H12      HGA3     0.090000        1.0080           0
     47379 WT16     823      MECN     H13      HGA3     0.090000        1.0080           0
     47380 WT16     823      MECN     C2       CG1N1    0.360000       12.0110           0
     47381 WT16     823      MECN     N3       NG1T1   -0.460000       14.0070           0
     47382 WT16     827      MECN     C1       CG331   -0.170000       12.0110           0
     47383 WT16     827      MECN     H11      HGA3     0.090000        1.0080           0
     47384 WT16     827      MECN     H12      HGA3     0.090000        1.0080           0
     47385 WT16     827      MECN     H13      HGA3     0.090000        1.0080           0
     47386 WT16     827      MECN     C2       CG1N1    0.360000       12.0110           0
     47387 WT16     827      MECN     N3       NG1T1   -0.460000       14.0070           0
     47388 WT16     828      MECN     C1       CG331   -0.170000       12.0110           0
     47389 WT16     828      MECN     H11      HGA3     0.090000        1.0080           0
     47390 WT16     828      MECN     H12      HGA3     0.090000        1.0080           0
     47391 WT16     828      MECN     H13      HGA3     0.090000        1.0080           0
     47392 WT16     828      MECN     C2       CG1N1    0.360000       12.0110           0
     47393 WT16     828      MECN     N3       NG1T1   -0.460000       14.0070           0
     47394 WT16     832      MECN     C1       CG331   -0.170000       12.0110           0
     47395 WT16     832      MECN     H11      HGA3     0.090000        1.0080           0
     47396 WT16     832      MECN     H12      HGA3     0.090000        1.0080           0
     47397 WT16     832      MECN     H13      HGA3     0.090000        1.0080           0
     47398 WT16     832      MECN     C2       CG1N1    0.360000       12.0110           0
     47399 WT16     832      MECN     N3       NG1T1   -0.460000       14.0070           0
     47400 WT16     839      MECN     C1       CG331   -0.170000       12.0110           0
     47401 WT16     839      MECN     H11      HGA3     0.090000        1.0080           0
     47402 WT16     839      MECN     H12      HGA3     0.090000        1.0080           0
     47403 WT16     839      MECN     H13      HGA3     0.090000        1.0080           0
     47404 WT16     839      MECN     C2       CG1N1    0.360000       12.0110           0
     47405 WT16     839      MECN     N3       NG1T1   -0.460000       14.0070           0
     47406 WT16     840      MECN     C1       CG331   -0.170000       12.0110           0
     47407 WT16     840      MECN     H11      HGA3     0.090000        1.0080           0
     47408 WT16     840      MECN     H12      HGA3     0.090000        1.0080           0
     47409 WT16     840      MECN     H13      HGA3     0.090000        1.0080           0
     47410 WT16     840      MECN     C2       CG1N1    0.360000       12.0110           0
     47411 WT16     840      MECN     N3       NG1T1   -0.460000       14.0070           0
     47412 WT16     841      MECN     C1       CG331   -0.170000       12.0110           0
     47413 WT16     841      MECN     H11      HGA3     0.090000        1.0080           0
     47414 WT16     841      MECN     H12      HGA3     0.090000        1.0080           0
     47415 WT16     841      MECN     H13      HGA3     0.090000        1.0080           0
     47416 WT16     841      MECN     C2       CG1N1    0.360000       12.0110           0
     47417 WT16     841      MECN     N3       NG1T1   -0.460000       14.0070           0
     47418 WT16     846      MECN     C1       CG331   -0.170000       12.0110           0
     47419 WT16     846      MECN     H11      HGA3     0.090000        1.0080           0
     47420 WT16     846      MECN     H12      HGA3     0.090000        1.0080           0
     47421 WT16     846      MECN     H13      HGA3     0.090000        1.0080           0
     47422 WT16     846      MECN     C2       CG1N1    0.360000       12.0110           0
     47423 WT16     846      MECN     N3       NG1T1   -0.460000       14.0070           0
     47424 WT16     848      MECN     C1       CG331   -0.170000       12.0110           0
     47425 WT16     848      MECN     H11      HGA3     0.090000        1.0080           0
     47426 WT16     848      MECN     H12      HGA3     0.090000        1.0080           0
     47427 WT16     848      MECN     H13      HGA3     0.090000        1.0080           0
     47428 WT16     848      MECN     C2       CG1N1    0.360000       12.0110           0
     47429 WT16     848      MECN     N3       NG1T1   -0.460000       14.0070           0
     47430 WT16     849      MECN     C1       CG331   -0.170000       12.0110           0
     47431 WT16     849      MECN     H11      HGA3     0.090000        1.0080           0
     47432 WT16     849      MECN     H12      HGA3     0.090000        1.0080           0
     47433 WT16     849      MECN     H13      HGA3     0.090000        1.0080           0
     47434 WT16     849      MECN     C2       CG1N1    0.360000       12.0110           0
     47435 WT16     849      MECN     N3       NG1T1   -0.460000       14.0070           0
     47436 WT16     856      MECN     C1       CG331   -0.170000       12.0110           0
     47437 WT16     856      MECN     H11      HGA3     0.090000        1.0080           0
     47438 WT16     856      MECN     H12      HGA3     0.090000        1.0080           0
     47439 WT16     856      MECN     H13      HGA3     0.090000        1.0080           0
     47440 WT16     856      MECN     C2       CG1N1    0.360000       12.0110           0
     47441 WT16     856      MECN     N3       NG1T1   -0.460000       14.0070           0
     47442 WT16     862      MECN     C1       CG331   -0.170000       12.0110           0
     47443 WT16     862      MECN     H11      HGA3     0.090000        1.0080           0
     47444 WT16     862      MECN     H12      HGA3     0.090000        1.0080           0
     47445 WT16     862      MECN     H13      HGA3     0.090000        1.0080           0
     47446 WT16     862      MECN     C2       CG1N1    0.360000       12.0110           0
     47447 WT16     862      MECN     N3       NG1T1   -0.460000       14.0070           0
     47448 WT16     863      MECN     C1       CG331   -0.170000       12.0110           0
     47449 WT16     863      MECN     H11      HGA3     0.090000        1.0080           0
     47450 WT16     863      MECN     H12      HGA3     0.090000        1.0080           0
     47451 WT16     863      MECN     H13      HGA3     0.090000        1.0080           0
     47452 WT16     863      MECN     C2       CG1N1    0.360000       12.0110           0
     47453 WT16     863      MECN     N3       NG1T1   -0.460000       14.0070           0
     47454 WT16     873      MECN     C1       CG331   -0.170000       12.0110           0
     47455 WT16     873      MECN     H11      HGA3     0.090000        1.0080           0
     47456 WT16     873      MECN     H12      HGA3     0.090000        1.0080           0
     47457 WT16     873      MECN     H13      HGA3     0.090000        1.0080           0
     47458 WT16     873      MECN     C2       CG1N1    0.360000       12.0110           0
     47459 WT16     873      MECN     N3       NG1T1   -0.460000       14.0070           0
     47460 WT16     875      MECN     C1       CG331   -0.170000       12.0110           0
     47461 WT16     875      MECN     H11      HGA3     0.090000        1.0080           0
     47462 WT16     875      MECN     H12      HGA3     0.090000        1.0080           0
     47463 WT16     875      MECN     H13      HGA3     0.090000        1.0080           0
     47464 WT16     875      MECN     C2       CG1N1    0.360000       12.0110           0
     47465 WT16     875      MECN     N3       NG1T1   -0.460000       14.0070           0
     47466 WT16     876      MECN     C1       CG331   -0.170000       12.0110           0
     47467 WT16     876      MECN     H11      HGA3     0.090000        1.0080           0
     47468 WT16     876      MECN     H12      HGA3     0.090000        1.0080           0
     47469 WT16     876      MECN     H13      HGA3     0.090000        1.0080           0
     47470 WT16     876      MECN     C2       CG1N1    0.360000       12.0110           0
     47471 WT16     876      MECN     N3       NG1T1   -0.460000       14.0070           0
     47472 WT16     878      MECN     C1       CG331   -0.170000       12.0110           0
     47473 WT16     878      MECN     H11      HGA3     0.090000        1.0080           0
     47474 WT16     878      MECN     H12      HGA3     0.090000        1.0080           0
     47475 WT16     878      MECN     H13      HGA3     0.090000        1.0080           0
     47476 WT16     878      MECN     C2       CG1N1    0.360000       12.0110           0
     47477 WT16     878      MECN     N3       NG1T1   -0.460000       14.0070           0
     47478 WT16     888      MECN     C1       CG331   -0.170000       12.0110           0
     47479 WT16     888      MECN     H11      HGA3     0.090000        1.0080           0
     47480 WT16     888      MECN     H12      HGA3     0.090000        1.0080           0
     47481 WT16     888      MECN     H13      HGA3     0.090000        1.0080           0
     47482 WT16     888      MECN     C2       CG1N1    0.360000       12.0110           0
     47483 WT16     888      MECN     N3       NG1T1   -0.460000       14.0070           0
     47484 WT16     892      MECN     C1       CG331   -0.170000       12.0110           0
     47485 WT16     892      MECN     H11      HGA3     0.090000        1.0080           0
     47486 WT16     892      MECN     H12      HGA3     0.090000        1.0080           0
     47487 WT16     892      MECN     H13      HGA3     0.090000        1.0080           0
     47488 WT16     892      MECN     C2       CG1N1    0.360000       12.0110           0
     47489 WT16     892      MECN     N3       NG1T1   -0.460000       14.0070           0
     47490 WT16     895      MECN     C1       CG331   -0.170000       12.0110           0
     47491 WT16     895      MECN     H11      HGA3     0.090000        1.0080           0
     47492 WT16     895      MECN     H12      HGA3     0.090000        1.0080           0
     47493 WT16     895      MECN     H13      HGA3     0.090000        1.0080           0
     47494 WT16     895      MECN     C2       CG1N1    0.360000       12.0110           0
     47495 WT16     895      MECN     N3       NG1T1   -0.460000       14.0070           0
     47496 WT16     898      MECN     C1       CG331   -0.170000       12.0110           0
     47497 WT16     898      MECN     H11      HGA3     0.090000        1.0080           0
     47498 WT16     898      MECN     H12      HGA3     0.090000        1.0080           0
     47499 WT16     898      MECN     H13      HGA3     0.090000        1.0080           0
     47500 WT16     898      MECN     C2       CG1N1    0.360000       12.0110           0
     47501 WT16     898      MECN     N3       NG1T1   -0.460000       14.0070           0
     47502 WT16     902      MECN     C1       CG331   -0.170000       12.0110           0
     47503 WT16     902      MECN     H11      HGA3     0.090000        1.0080           0
     47504 WT16     902      MECN     H12      HGA3     0.090000        1.0080           0
     47505 WT16     902      MECN     H13      HGA3     0.090000        1.0080           0
     47506 WT16     902      MECN     C2       CG1N1    0.360000       12.0110           0
     47507 WT16     902      MECN     N3       NG1T1   -0.460000       14.0070           0
     47508 WT16     905      MECN     C1       CG331   -0.170000       12.0110           0
     47509 WT16     905      MECN     H11      HGA3     0.090000        1.0080           0
     47510 WT16     905      MECN     H12      HGA3     0.090000        1.0080           0
     47511 WT16     905      MECN     H13      HGA3     0.090000        1.0080           0
     47512 WT16     905      MECN     C2       CG1N1    0.360000       12.0110           0
     47513 WT16     905      MECN     N3       NG1T1   -0.460000       14.0070           0
     47514 WT16     908      MECN     C1       CG331   -0.170000       12.0110           0
     47515 WT16     908      MECN     H11      HGA3     0.090000        1.0080           0
     47516 WT16     908      MECN     H12      HGA3     0.090000        1.0080           0
     47517 WT16     908      MECN     H13      HGA3     0.090000        1.0080           0
     47518 WT16     908      MECN     C2       CG1N1    0.360000       12.0110           0
     47519 WT16     908      MECN     N3       NG1T1   -0.460000       14.0070           0
     47520 WT16     909      MECN     C1       CG331   -0.170000       12.0110           0
     47521 WT16     909      MECN     H11      HGA3     0.090000        1.0080           0
     47522 WT16     909      MECN     H12      HGA3     0.090000        1.0080           0
     47523 WT16     909      MECN     H13      HGA3     0.090000        1.0080           0
     47524 WT16     909      MECN     C2       CG1N1    0.360000       12.0110           0
     47525 WT16     909      MECN     N3       NG1T1   -0.460000       14.0070           0
     47526 WT16     910      MECN     C1       CG331   -0.170000       12.0110           0
     47527 WT16     910      MECN     H11      HGA3     0.090000        1.0080           0
     47528 WT16     910      MECN     H12      HGA3     0.090000        1.0080           0
     47529 WT16     910      MECN     H13      HGA3     0.090000        1.0080           0
     47530 WT16     910      MECN     C2       CG1N1    0.360000       12.0110           0
     47531 WT16     910      MECN     N3       NG1T1   -0.460000       14.0070           0
     47532 WT16     911      MECN     C1       CG331   -0.170000       12.0110           0
     47533 WT16     911      MECN     H11      HGA3     0.090000        1.0080           0
     47534 WT16     911      MECN     H12      HGA3     0.090000        1.0080           0
     47535 WT16     911      MECN     H13      HGA3     0.090000        1.0080           0
     47536 WT16     911      MECN     C2       CG1N1    0.360000       12.0110           0
     47537 WT16     911      MECN     N3       NG1T1   -0.460000       14.0070           0
     47538 WT16     913      MECN     C1       CG331   -0.170000       12.0110           0
     47539 WT16     913      MECN     H11      HGA3     0.090000        1.0080           0
     47540 WT16     913      MECN     H12      HGA3     0.090000        1.0080           0
     47541 WT16     913      MECN     H13      HGA3     0.090000        1.0080           0
     47542 WT16     913      MECN     C2       CG1N1    0.360000       12.0110           0
     47543 WT16     913      MECN     N3       NG1T1   -0.460000       14.0070           0
     47544 WT16     914      MECN     C1       CG331   -0.170000       12.0110           0
     47545 WT16     914      MECN     H11      HGA3     0.090000        1.0080           0
     47546 WT16     914      MECN     H12      HGA3     0.090000        1.0080           0
     47547 WT16     914      MECN     H13      HGA3     0.090000        1.0080           0
     47548 WT16     914      MECN     C2       CG1N1    0.360000       12.0110           0
     47549 WT16     914      MECN     N3       NG1T1   -0.460000       14.0070           0
     47550 WT16     915      MECN     C1       CG331   -0.170000       12.0110           0
     47551 WT16     915      MECN     H11      HGA3     0.090000        1.0080           0
     47552 WT16     915      MECN     H12      HGA3     0.090000        1.0080           0
     47553 WT16     915      MECN     H13      HGA3     0.090000        1.0080           0
     47554 WT16     915      MECN     C2       CG1N1    0.360000       12.0110           0
     47555 WT16     915      MECN     N3       NG1T1   -0.460000       14.0070           0
     47556 WT16     916      MECN     C1       CG331   -0.170000       12.0110           0
     47557 WT16     916      MECN     H11      HGA3     0.090000        1.0080           0
     47558 WT16     916      MECN     H12      HGA3     0.090000        1.0080           0
     47559 WT16     916      MECN     H13      HGA3     0.090000        1.0080           0
     47560 WT16     916      MECN     C2       CG1N1    0.360000       12.0110           0
     47561 WT16     916      MECN     N3       NG1T1   -0.460000       14.0070           0
     47562 WT16     917      MECN     C1       CG331   -0.170000       12.0110           0
     47563 WT16     917      MECN     H11      HGA3     0.090000        1.0080           0
     47564 WT16     917      MECN     H12      HGA3     0.090000        1.0080           0
     47565 WT16     917      MECN     H13      HGA3     0.090000        1.0080           0
     47566 WT16     917      MECN     C2       CG1N1    0.360000       12.0110           0
     47567 WT16     917      MECN     N3       NG1T1   -0.460000       14.0070           0
     47568 WT16     918      MECN     C1       CG331   -0.170000       12.0110           0
     47569 WT16     918      MECN     H11      HGA3     0.090000        1.0080           0
     47570 WT16     918      MECN     H12      HGA3     0.090000        1.0080           0
     47571 WT16     918      MECN     H13      HGA3     0.090000        1.0080           0
     47572 WT16     918      MECN     C2       CG1N1    0.360000       12.0110           0
     47573 WT16     918      MECN     N3       NG1T1   -0.460000       14.0070           0
     47574 WT16     919      MECN     C1       CG331   -0.170000       12.0110           0
     47575 WT16     919      MECN     H11      HGA3     0.090000        1.0080           0
     47576 WT16     919      MECN     H12      HGA3     0.090000        1.0080           0
     47577 WT16     919      MECN     H13      HGA3     0.090000        1.0080           0
     47578 WT16     919      MECN     C2       CG1N1    0.360000       12.0110           0
     47579 WT16     919      MECN     N3       NG1T1   -0.460000       14.0070           0
     47580 WT16     922      MECN     C1       CG331   -0.170000       12.0110           0
     47581 WT16     922      MECN     H11      HGA3     0.090000        1.0080           0
     47582 WT16     922      MECN     H12      HGA3     0.090000        1.0080           0
     47583 WT16     922      MECN     H13      HGA3     0.090000        1.0080           0
     47584 WT16     922      MECN     C2       CG1N1    0.360000       12.0110           0
     47585 WT16     922      MECN     N3       NG1T1   -0.460000       14.0070           0
     47586 WT16     923      MECN     C1       CG331   -0.170000       12.0110           0
     47587 WT16     923      MECN     H11      HGA3     0.090000        1.0080           0
     47588 WT16     923      MECN     H12      HGA3     0.090000        1.0080           0
     47589 WT16     923      MECN     H13      HGA3     0.090000        1.0080           0
     47590 WT16     923      MECN     C2       CG1N1    0.360000       12.0110           0
     47591 WT16     923      MECN     N3       NG1T1   -0.460000       14.0070           0
     47592 WT16     924      MECN     C1       CG331   -0.170000       12.0110           0
     47593 WT16     924      MECN     H11      HGA3     0.090000        1.0080           0
     47594 WT16     924      MECN     H12      HGA3     0.090000        1.0080           0
     47595 WT16     924      MECN     H13      HGA3     0.090000        1.0080           0
     47596 WT16     924      MECN     C2       CG1N1    0.360000       12.0110           0
     47597 WT16     924      MECN     N3       NG1T1   -0.460000       14.0070           0
     47598 WT16     928      MECN     C1       CG331   -0.170000       12.0110           0
     47599 WT16     928      MECN     H11      HGA3     0.090000        1.0080           0
     47600 WT16     928      MECN     H12      HGA3     0.090000        1.0080           0
     47601 WT16     928      MECN     H13      HGA3     0.090000        1.0080           0
     47602 WT16     928      MECN     C2       CG1N1    0.360000       12.0110           0
     47603 WT16     928      MECN     N3       NG1T1   -0.460000       14.0070           0
     47604 WT16     935      MECN     C1       CG331   -0.170000       12.0110           0
     47605 WT16     935      MECN     H11      HGA3     0.090000        1.0080           0
     47606 WT16     935      MECN     H12      HGA3     0.090000        1.0080           0
     47607 WT16     935      MECN     H13      HGA3     0.090000        1.0080           0
     47608 WT16     935      MECN     C2       CG1N1    0.360000       12.0110           0
     47609 WT16     935      MECN     N3       NG1T1   -0.460000       14.0070           0
     47610 WT16     938      MECN     C1       CG331   -0.170000       12.0110           0
     47611 WT16     938      MECN     H11      HGA3     0.090000        1.0080           0
     47612 WT16     938      MECN     H12      HGA3     0.090000        1.0080           0
     47613 WT16     938      MECN     H13      HGA3     0.090000        1.0080           0
     47614 WT16     938      MECN     C2       CG1N1    0.360000       12.0110           0
     47615 WT16     938      MECN     N3       NG1T1   -0.460000       14.0070           0
     47616 WT16     941      MECN     C1       CG331   -0.170000       12.0110           0
     47617 WT16     941      MECN     H11      HGA3     0.090000        1.0080           0
     47618 WT16     941      MECN     H12      HGA3     0.090000        1.0080           0
     47619 WT16     941      MECN     H13      HGA3     0.090000        1.0080           0
     47620 WT16     941      MECN     C2       CG1N1    0.360000       12.0110           0
     47621 WT16     941      MECN     N3       NG1T1   -0.460000       14.0070           0
     47622 WT16     943      MECN     C1       CG331   -0.170000       12.0110           0
     47623 WT16     943      MECN     H11      HGA3     0.090000        1.0080           0
     47624 WT16     943      MECN     H12      HGA3     0.090000        1.0080           0
     47625 WT16     943      MECN     H13      HGA3     0.090000        1.0080           0
     47626 WT16     943      MECN     C2       CG1N1    0.360000       12.0110           0
     47627 WT16     943      MECN     N3       NG1T1   -0.460000       14.0070           0
     47628 WT16     945      MECN     C1       CG331   -0.170000       12.0110           0
     47629 WT16     945      MECN     H11      HGA3     0.090000        1.0080           0
     47630 WT16     945      MECN     H12      HGA3     0.090000        1.0080           0
     47631 WT16     945      MECN     H13      HGA3     0.090000        1.0080           0
     47632 WT16     945      MECN     C2       CG1N1    0.360000       12.0110           0
     47633 WT16     945      MECN     N3       NG1T1   -0.460000       14.0070           0
     47634 WT16     949      MECN     C1       CG331   -0.170000       12.0110           0
     47635 WT16     949      MECN     H11      HGA3     0.090000        1.0080           0
     47636 WT16     949      MECN     H12      HGA3     0.090000        1.0080           0
     47637 WT16     949      MECN     H13      HGA3     0.090000        1.0080           0
     47638 WT16     949      MECN     C2       CG1N1    0.360000       12.0110           0
     47639 WT16     949      MECN     N3       NG1T1   -0.460000       14.0070           0
     47640 WT16     951      MECN     C1       CG331   -0.170000       12.0110           0
     47641 WT16     951      MECN     H11      HGA3     0.090000        1.0080           0
     47642 WT16     951      MECN     H12      HGA3     0.090000        1.0080           0
     47643 WT16     951      MECN     H13      HGA3     0.090000        1.0080           0
     47644 WT16     951      MECN     C2       CG1N1    0.360000       12.0110           0
     47645 WT16     951      MECN     N3       NG1T1   -0.460000       14.0070           0
     47646 WT16     955      MECN     C1       CG331   -0.170000       12.0110           0
     47647 WT16     955      MECN     H11      HGA3     0.090000        1.0080           0
     47648 WT16     955      MECN     H12      HGA3     0.090000        1.0080           0
     47649 WT16     955      MECN     H13      HGA3     0.090000        1.0080           0
     47650 WT16     955      MECN     C2       CG1N1    0.360000       12.0110           0
     47651 WT16     955      MECN     N3       NG1T1   -0.460000       14.0070           0
     47652 WT16     956      MECN     C1       CG331   -0.170000       12.0110           0
     47653 WT16     956      MECN     H11      HGA3     0.090000        1.0080           0
     47654 WT16     956      MECN     H12      HGA3     0.090000        1.0080           0
     47655 WT16     956      MECN     H13      HGA3     0.090000        1.0080           0
     47656 WT16     956      MECN     C2       CG1N1    0.360000       12.0110           0
     47657 WT16     956      MECN     N3       NG1T1   -0.460000       14.0070           0
     47658 WT16     957      MECN     C1       CG331   -0.170000       12.0110           0
     47659 WT16     957      MECN     H11      HGA3     0.090000        1.0080           0
     47660 WT16     957      MECN     H12      HGA3     0.090000        1.0080           0
     47661 WT16     957      MECN     H13      HGA3     0.090000        1.0080           0
     47662 WT16     957      MECN     C2       CG1N1    0.360000       12.0110           0
     47663 WT16     957      MECN     N3       NG1T1   -0.460000       14.0070           0
     47664 WT16     961      MECN     C1       CG331   -0.170000       12.0110           0
     47665 WT16     961      MECN     H11      HGA3     0.090000        1.0080           0
     47666 WT16     961      MECN     H12      HGA3     0.090000        1.0080           0
     47667 WT16     961      MECN     H13      HGA3     0.090000        1.0080           0
     47668 WT16     961      MECN     C2       CG1N1    0.360000       12.0110           0
     47669 WT16     961      MECN     N3       NG1T1   -0.460000       14.0070           0
     47670 WT16     965      MECN     C1       CG331   -0.170000       12.0110           0
     47671 WT16     965      MECN     H11      HGA3     0.090000        1.0080           0
     47672 WT16     965      MECN     H12      HGA3     0.090000        1.0080           0
     47673 WT16     965      MECN     H13      HGA3     0.090000        1.0080           0
     47674 WT16     965      MECN     C2       CG1N1    0.360000       12.0110           0
     47675 WT16     965      MECN     N3       NG1T1   -0.460000       14.0070           0
     47676 WT16     966      MECN     C1       CG331   -0.170000       12.0110           0
     47677 WT16     966      MECN     H11      HGA3     0.090000        1.0080           0
     47678 WT16     966      MECN     H12      HGA3     0.090000        1.0080           0
     47679 WT16     966      MECN     H13      HGA3     0.090000        1.0080           0
     47680 WT16     966      MECN     C2       CG1N1    0.360000       12.0110           0
     47681 WT16     966      MECN     N3       NG1T1   -0.460000       14.0070           0
     47682 WT16     968      MECN     C1       CG331   -0.170000       12.0110           0
     47683 WT16     968      MECN     H11      HGA3     0.090000        1.0080           0
     47684 WT16     968      MECN     H12      HGA3     0.090000        1.0080           0
     47685 WT16     968      MECN     H13      HGA3     0.090000        1.0080           0
     47686 WT16     968      MECN     C2       CG1N1    0.360000       12.0110           0
     47687 WT16     968      MECN     N3       NG1T1   -0.460000       14.0070           0
     47688 WT16     978      MECN     C1       CG331   -0.170000       12.0110           0
     47689 WT16     978      MECN     H11      HGA3     0.090000        1.0080           0
     47690 WT16     978      MECN     H12      HGA3     0.090000        1.0080           0
     47691 WT16     978      MECN     H13      HGA3     0.090000        1.0080           0
     47692 WT16     978      MECN     C2       CG1N1    0.360000       12.0110           0
     47693 WT16     978      MECN     N3       NG1T1   -0.460000       14.0070           0
     47694 WT16     982      MECN     C1       CG331   -0.170000       12.0110           0
     47695 WT16     982      MECN     H11      HGA3     0.090000        1.0080           0
     47696 WT16     982      MECN     H12      HGA3     0.090000        1.0080           0
     47697 WT16     982      MECN     H13      HGA3     0.090000        1.0080           0
     47698 WT16     982      MECN     C2       CG1N1    0.360000       12.0110           0
     47699 WT16     982      MECN     N3       NG1T1   -0.460000       14.0070           0
     47700 WT16     984      MECN     C1       CG331   -0.170000       12.0110           0
     47701 WT16     984      MECN     H11      HGA3     0.090000        1.0080           0
     47702 WT16     984      MECN     H12      HGA3     0.090000        1.0080           0
     47703 WT16     984      MECN     H13      HGA3     0.090000        1.0080           0
     47704 WT16     984      MECN     C2       CG1N1    0.360000       12.0110           0
     47705 WT16     984      MECN     N3       NG1T1   -0.460000       14.0070           0
     47706 WT16     987      MECN     C1       CG331   -0.170000       12.0110           0
     47707 WT16     987      MECN     H11      HGA3     0.090000        1.0080           0
     47708 WT16     987      MECN     H12      HGA3     0.090000        1.0080           0
     47709 WT16     987      MECN     H13      HGA3     0.090000        1.0080           0
     47710 WT16     987      MECN     C2       CG1N1    0.360000       12.0110           0
     47711 WT16     987      MECN     N3       NG1T1   -0.460000       14.0070           0
     47712 WT16     988      MECN     C1       CG331   -0.170000       12.0110           0
     47713 WT16     988      MECN     H11      HGA3     0.090000        1.0080           0
     47714 WT16     988      MECN     H12      HGA3     0.090000        1.0080           0
     47715 WT16     988      MECN     H13      HGA3     0.090000        1.0080           0
     47716 WT16     988      MECN     C2       CG1N1    0.360000       12.0110           0
     47717 WT16     988      MECN     N3       NG1T1   -0.460000       14.0070           0
     47718 WT16     989      MECN     C1       CG331   -0.170000       12.0110           0
     47719 WT16     989      MECN     H11      HGA3     0.090000        1.0080           0
     47720 WT16     989      MECN     H12      HGA3     0.090000        1.0080           0
     47721 WT16     989      MECN     H13      HGA3     0.090000        1.0080           0
     47722 WT16     989      MECN     C2       CG1N1    0.360000       12.0110           0
     47723 WT16     989      MECN     N3       NG1T1   -0.460000       14.0070           0
     47724 WT16     990      MECN     C1       CG331   -0.170000       12.0110           0
     47725 WT16     990      MECN     H11      HGA3     0.090000        1.0080           0
     47726 WT16     990      MECN     H12      HGA3     0.090000        1.0080           0
     47727 WT16     990      MECN     H13      HGA3     0.090000        1.0080           0
     47728 WT16     990      MECN     C2       CG1N1    0.360000       12.0110           0
     47729 WT16     990      MECN     N3       NG1T1   -0.460000       14.0070           0
     47730 WT16     991      MECN     C1       CG331   -0.170000       12.0110           0
     47731 WT16     991      MECN     H11      HGA3     0.090000        1.0080           0
     47732 WT16     991      MECN     H12      HGA3     0.090000        1.0080           0
     47733 WT16     991      MECN     H13      HGA3     0.090000        1.0080           0
     47734 WT16     991      MECN     C2       CG1N1    0.360000       12.0110           0
     47735 WT16     991      MECN     N3       NG1T1   -0.460000       14.0070           0
     47736 WT16     993      MECN     C1       CG331   -0.170000       12.0110           0
     47737 WT16     993      MECN     H11      HGA3     0.090000        1.0080           0
     47738 WT16     993      MECN     H12      HGA3     0.090000        1.0080           0
     47739 WT16     993      MECN     H13      HGA3     0.090000        1.0080           0
     47740 WT16     993      MECN     C2       CG1N1    0.360000       12.0110           0
     47741 WT16     993      MECN     N3       NG1T1   -0.460000       14.0070           0
     47742 WT16     994      MECN     C1       CG331   -0.170000       12.0110           0
     47743 WT16     994      MECN     H11      HGA3     0.090000        1.0080           0
     47744 WT16     994      MECN     H12      HGA3     0.090000        1.0080           0
     47745 WT16     994      MECN     H13      HGA3     0.090000        1.0080           0
     47746 WT16     994      MECN     C2       CG1N1    0.360000       12.0110           0
     47747 WT16     994      MECN     N3       NG1T1   -0.460000       14.0070           0
     47748 WT16     999      MECN     C1       CG331   -0.170000       12.0110           0
     47749 WT16     999      MECN     H11      HGA3     0.090000        1.0080           0
     47750 WT16     999      MECN     H12      HGA3     0.090000        1.0080           0
     47751 WT16     999      MECN     H13      HGA3     0.090000        1.0080           0
     47752 WT16     999      MECN     C2       CG1N1    0.360000       12.0110           0
     47753 WT16     999      MECN     N3       NG1T1   -0.460000       14.0070           0
     47754 WT16     1004     MECN     C1       CG331   -0.170000       12.0110           0
     47755 WT16     1004     MECN     H11      HGA3     0.090000        1.0080           0
     47756 WT16     1004     MECN     H12      HGA3     0.090000        1.0080           0
     47757 WT16     1004     MECN     H13      HGA3     0.090000        1.0080           0
     47758 WT16     1004     MECN     C2       CG1N1    0.360000       12.0110           0
     47759 WT16     1004     MECN     N3       NG1T1   -0.460000       14.0070           0
     47760 WT16     1008     MECN     C1       CG331   -0.170000       12.0110           0
     47761 WT16     1008     MECN     H11      HGA3     0.090000        1.0080           0
     47762 WT16     1008     MECN     H12      HGA3     0.090000        1.0080           0
     47763 WT16     1008     MECN     H13      HGA3     0.090000        1.0080           0
     47764 WT16     1008     MECN     C2       CG1N1    0.360000       12.0110           0
     47765 WT16     1008     MECN     N3       NG1T1   -0.460000       14.0070           0
     47766 WT16     1009     MECN     C1       CG331   -0.170000       12.0110           0
     47767 WT16     1009     MECN     H11      HGA3     0.090000        1.0080           0
     47768 WT16     1009     MECN     H12      HGA3     0.090000        1.0080           0
     47769 WT16     1009     MECN     H13      HGA3     0.090000        1.0080           0
     47770 WT16     1009     MECN     C2       CG1N1    0.360000       12.0110           0
     47771 WT16     1009     MECN     N3       NG1T1   -0.460000       14.0070           0
     47772 WT16     1010     MECN     C1       CG331   -0.170000       12.0110           0
     47773 WT16     1010     MECN     H11      HGA3     0.090000        1.0080           0
     47774 WT16     1010     MECN     H12      HGA3     0.090000        1.0080           0
     47775 WT16     1010     MECN     H13      HGA3     0.090000        1.0080           0
     47776 WT16     1010     MECN     C2       CG1N1    0.360000       12.0110           0
     47777 WT16     1010     MECN     N3       NG1T1   -0.460000       14.0070           0
     47778 WT16     1011     MECN     C1       CG331   -0.170000       12.0110           0
     47779 WT16     1011     MECN     H11      HGA3     0.090000        1.0080           0
     47780 WT16     1011     MECN     H12      HGA3     0.090000        1.0080           0
     47781 WT16     1011     MECN     H13      HGA3     0.090000        1.0080           0
     47782 WT16     1011     MECN     C2       CG1N1    0.360000       12.0110           0
     47783 WT16     1011     MECN     N3       NG1T1   -0.460000       14.0070           0
     47784 WT16     1012     MECN     C1       CG331   -0.170000       12.0110           0
     47785 WT16     1012     MECN     H11      HGA3     0.090000        1.0080           0
     47786 WT16     1012     MECN     H12      HGA3     0.090000        1.0080           0
     47787 WT16     1012     MECN     H13      HGA3     0.090000        1.0080           0
     47788 WT16     1012     MECN     C2       CG1N1    0.360000       12.0110           0
     47789 WT16     1012     MECN     N3       NG1T1   -0.460000       14.0070           0
     47790 WT16     1014     MECN     C1       CG331   -0.170000       12.0110           0
     47791 WT16     1014     MECN     H11      HGA3     0.090000        1.0080           0
     47792 WT16     1014     MECN     H12      HGA3     0.090000        1.0080           0
     47793 WT16     1014     MECN     H13      HGA3     0.090000        1.0080           0
     47794 WT16     1014     MECN     C2       CG1N1    0.360000       12.0110           0
     47795 WT16     1014     MECN     N3       NG1T1   -0.460000       14.0070           0
     47796 WT16     1015     MECN     C1       CG331   -0.170000       12.0110           0
     47797 WT16     1015     MECN     H11      HGA3     0.090000        1.0080           0
     47798 WT16     1015     MECN     H12      HGA3     0.090000        1.0080           0
     47799 WT16     1015     MECN     H13      HGA3     0.090000        1.0080           0
     47800 WT16     1015     MECN     C2       CG1N1    0.360000       12.0110           0
     47801 WT16     1015     MECN     N3       NG1T1   -0.460000       14.0070           0
     47802 WT16     1019     MECN     C1       CG331   -0.170000       12.0110           0
     47803 WT16     1019     MECN     H11      HGA3     0.090000        1.0080           0
     47804 WT16     1019     MECN     H12      HGA3     0.090000        1.0080           0
     47805 WT16     1019     MECN     H13      HGA3     0.090000        1.0080           0
     47806 WT16     1019     MECN     C2       CG1N1    0.360000       12.0110           0
     47807 WT16     1019     MECN     N3       NG1T1   -0.460000       14.0070           0
     47808 WT16     1020     MECN     C1       CG331   -0.170000       12.0110           0
     47809 WT16     1020     MECN     H11      HGA3     0.090000        1.0080           0
     47810 WT16     1020     MECN     H12      HGA3     0.090000        1.0080           0
     47811 WT16     1020     MECN     H13      HGA3     0.090000        1.0080           0
     47812 WT16     1020     MECN     C2       CG1N1    0.360000       12.0110           0
     47813 WT16     1020     MECN     N3       NG1T1   -0.460000       14.0070           0
     47814 WT16     1023     MECN     C1       CG331   -0.170000       12.0110           0
     47815 WT16     1023     MECN     H11      HGA3     0.090000        1.0080           0
     47816 WT16     1023     MECN     H12      HGA3     0.090000        1.0080           0
     47817 WT16     1023     MECN     H13      HGA3     0.090000        1.0080           0
     47818 WT16     1023     MECN     C2       CG1N1    0.360000       12.0110           0
     47819 WT16     1023     MECN     N3       NG1T1   -0.460000       14.0070           0
     47820 WT16     1030     MECN     C1       CG331   -0.170000       12.0110           0
     47821 WT16     1030     MECN     H11      HGA3     0.090000        1.0080           0
     47822 WT16     1030     MECN     H12      HGA3     0.090000        1.0080           0
     47823 WT16     1030     MECN     H13      HGA3     0.090000        1.0080           0
     47824 WT16     1030     MECN     C2       CG1N1    0.360000       12.0110           0
     47825 WT16     1030     MECN     N3       NG1T1   -0.460000       14.0070           0
     47826 WT16     1033     MECN     C1       CG331   -0.170000       12.0110           0
     47827 WT16     1033     MECN     H11      HGA3     0.090000        1.0080           0
     47828 WT16     1033     MECN     H12      HGA3     0.090000        1.0080           0
     47829 WT16     1033     MECN     H13      HGA3     0.090000        1.0080           0
     47830 WT16     1033     MECN     C2       CG1N1    0.360000       12.0110           0
     47831 WT16     1033     MECN     N3       NG1T1   -0.460000       14.0070           0
     47832 WT16     1034     MECN     C1       CG331   -0.170000       12.0110           0
     47833 WT16     1034     MECN     H11      HGA3     0.090000        1.0080           0
     47834 WT16     1034     MECN     H12      HGA3     0.090000        1.0080           0
     47835 WT16     1034     MECN     H13      HGA3     0.090000        1.0080           0
     47836 WT16     1034     MECN     C2       CG1N1    0.360000       12.0110           0
     47837 WT16     1034     MECN     N3       NG1T1   -0.460000       14.0070           0
     47838 WT16     1035     MECN     C1       CG331   -0.170000       12.0110           0
     47839 WT16     1035     MECN     H11      HGA3     0.090000        1.0080           0
     47840 WT16     1035     MECN     H12      HGA3     0.090000        1.0080           0
     47841 WT16     1035     MECN     H13      HGA3     0.090000        1.0080           0
     47842 WT16     1035     MECN     C2       CG1N1    0.360000       12.0110           0
     47843 WT16     1035     MECN     N3       NG1T1   -0.460000       14.0070           0
     47844 WT16     1036     MECN     C1       CG331   -0.170000       12.0110           0
     47845 WT16     1036     MECN     H11      HGA3     0.090000        1.0080           0
     47846 WT16     1036     MECN     H12      HGA3     0.090000        1.0080           0
     47847 WT16     1036     MECN     H13      HGA3     0.090000        1.0080           0
     47848 WT16     1036     MECN     C2       CG1N1    0.360000       12.0110           0
     47849 WT16     1036     MECN     N3       NG1T1   -0.460000       14.0070           0
     47850 WT16     1039     MECN     C1       CG331   -0.170000       12.0110           0
     47851 WT16     1039     MECN     H11      HGA3     0.090000        1.0080           0
     47852 WT16     1039     MECN     H12      HGA3     0.090000        1.0080           0
     47853 WT16     1039     MECN     H13      HGA3     0.090000        1.0080           0
     47854 WT16     1039     MECN     C2       CG1N1    0.360000       12.0110           0
     47855 WT16     1039     MECN     N3       NG1T1   -0.460000       14.0070           0
     47856 WT16     1043     MECN     C1       CG331   -0.170000       12.0110           0
     47857 WT16     1043     MECN     H11      HGA3     0.090000        1.0080           0
     47858 WT16     1043     MECN     H12      HGA3     0.090000        1.0080           0
     47859 WT16     1043     MECN     H13      HGA3     0.090000        1.0080           0
     47860 WT16     1043     MECN     C2       CG1N1    0.360000       12.0110           0
     47861 WT16     1043     MECN     N3       NG1T1   -0.460000       14.0070           0
     47862 WT16     1044     MECN     C1       CG331   -0.170000       12.0110           0
     47863 WT16     1044     MECN     H11      HGA3     0.090000        1.0080           0
     47864 WT16     1044     MECN     H12      HGA3     0.090000        1.0080           0
     47865 WT16     1044     MECN     H13      HGA3     0.090000        1.0080           0
     47866 WT16     1044     MECN     C2       CG1N1    0.360000       12.0110           0
     47867 WT16     1044     MECN     N3       NG1T1   -0.460000       14.0070           0
     47868 WT16     1048     MECN     C1       CG331   -0.170000       12.0110           0
     47869 WT16     1048     MECN     H11      HGA3     0.090000        1.0080           0
     47870 WT16     1048     MECN     H12      HGA3     0.090000        1.0080           0
     47871 WT16     1048     MECN     H13      HGA3     0.090000        1.0080           0
     47872 WT16     1048     MECN     C2       CG1N1    0.360000       12.0110           0
     47873 WT16     1048     MECN     N3       NG1T1   -0.460000       14.0070           0
     47874 WT16     1051     MECN     C1       CG331   -0.170000       12.0110           0
     47875 WT16     1051     MECN     H11      HGA3     0.090000        1.0080           0
     47876 WT16     1051     MECN     H12      HGA3     0.090000        1.0080           0
     47877 WT16     1051     MECN     H13      HGA3     0.090000        1.0080           0
     47878 WT16     1051     MECN     C2       CG1N1    0.360000       12.0110           0
     47879 WT16     1051     MECN     N3       NG1T1   -0.460000       14.0070           0
     47880 WT16     1053     MECN     C1       CG331   -0.170000       12.0110           0
     47881 WT16     1053     MECN     H11      HGA3     0.090000        1.0080           0
     47882 WT16     1053     MECN     H12      HGA3     0.090000        1.0080           0
     47883 WT16     1053     MECN     H13      HGA3     0.090000        1.0080           0
     47884 WT16     1053     MECN     C2       CG1N1    0.360000       12.0110           0
     47885 WT16     1053     MECN     N3       NG1T1   -0.460000       14.0070           0
     47886 WT16     1055     MECN     C1       CG331   -0.170000       12.0110           0
     47887 WT16     1055     MECN     H11      HGA3     0.090000        1.0080           0
     47888 WT16     1055     MECN     H12      HGA3     0.090000        1.0080           0
     47889 WT16     1055     MECN     H13      HGA3     0.090000        1.0080           0
     47890 WT16     1055     MECN     C2       CG1N1    0.360000       12.0110           0
     47891 WT16     1055     MECN     N3       NG1T1   -0.460000       14.0070           0
     47892 WT16     1057     MECN     C1       CG331   -0.170000       12.0110           0
     47893 WT16     1057     MECN     H11      HGA3     0.090000        1.0080           0
     47894 WT16     1057     MECN     H12      HGA3     0.090000        1.0080           0
     47895 WT16     1057     MECN     H13      HGA3     0.090000        1.0080           0
     47896 WT16     1057     MECN     C2       CG1N1    0.360000       12.0110           0
     47897 WT16     1057     MECN     N3       NG1T1   -0.460000       14.0070           0
     47898 WT16     1058     MECN     C1       CG331   -0.170000       12.0110           0
     47899 WT16     1058     MECN     H11      HGA3     0.090000        1.0080           0
     47900 WT16     1058     MECN     H12      HGA3     0.090000        1.0080           0
     47901 WT16     1058     MECN     H13      HGA3     0.090000        1.0080           0
     47902 WT16     1058     MECN     C2       CG1N1    0.360000       12.0110           0
     47903 WT16     1058     MECN     N3       NG1T1   -0.460000       14.0070           0
     47904 WT16     1059     MECN     C1       CG331   -0.170000       12.0110           0
     47905 WT16     1059     MECN     H11      HGA3     0.090000        1.0080           0
     47906 WT16     1059     MECN     H12      HGA3     0.090000        1.0080           0
     47907 WT16     1059     MECN     H13      HGA3     0.090000        1.0080           0
     47908 WT16     1059     MECN     C2       CG1N1    0.360000       12.0110           0
     47909 WT16     1059     MECN     N3       NG1T1   -0.460000       14.0070           0
     47910 WT16     1062     MECN     C1       CG331   -0.170000       12.0110           0
     47911 WT16     1062     MECN     H11      HGA3     0.090000        1.0080           0
     47912 WT16     1062     MECN     H12      HGA3     0.090000        1.0080           0
     47913 WT16     1062     MECN     H13      HGA3     0.090000        1.0080           0
     47914 WT16     1062     MECN     C2       CG1N1    0.360000       12.0110           0
     47915 WT16     1062     MECN     N3       NG1T1   -0.460000       14.0070           0
     47916 WT16     1063     MECN     C1       CG331   -0.170000       12.0110           0
     47917 WT16     1063     MECN     H11      HGA3     0.090000        1.0080           0
     47918 WT16     1063     MECN     H12      HGA3     0.090000        1.0080           0
     47919 WT16     1063     MECN     H13      HGA3     0.090000        1.0080           0
     47920 WT16     1063     MECN     C2       CG1N1    0.360000       12.0110           0
     47921 WT16     1063     MECN     N3       NG1T1   -0.460000       14.0070           0
     47922 WT16     1068     MECN     C1       CG331   -0.170000       12.0110           0
     47923 WT16     1068     MECN     H11      HGA3     0.090000        1.0080           0
     47924 WT16     1068     MECN     H12      HGA3     0.090000        1.0080           0
     47925 WT16     1068     MECN     H13      HGA3     0.090000        1.0080           0
     47926 WT16     1068     MECN     C2       CG1N1    0.360000       12.0110           0
     47927 WT16     1068     MECN     N3       NG1T1   -0.460000       14.0070           0
     47928 WT16     1071     MECN     C1       CG331   -0.170000       12.0110           0
     47929 WT16     1071     MECN     H11      HGA3     0.090000        1.0080           0
     47930 WT16     1071     MECN     H12      HGA3     0.090000        1.0080           0
     47931 WT16     1071     MECN     H13      HGA3     0.090000        1.0080           0
     47932 WT16     1071     MECN     C2       CG1N1    0.360000       12.0110           0
     47933 WT16     1071     MECN     N3       NG1T1   -0.460000       14.0070           0
     47934 WT16     1072     MECN     C1       CG331   -0.170000       12.0110           0
     47935 WT16     1072     MECN     H11      HGA3     0.090000        1.0080           0
     47936 WT16     1072     MECN     H12      HGA3     0.090000        1.0080           0
     47937 WT16     1072     MECN     H13      HGA3     0.090000        1.0080           0
     47938 WT16     1072     MECN     C2       CG1N1    0.360000       12.0110           0
     47939 WT16     1072     MECN     N3       NG1T1   -0.460000       14.0070           0
     47940 WT16     1075     MECN     C1       CG331   -0.170000       12.0110           0
     47941 WT16     1075     MECN     H11      HGA3     0.090000        1.0080           0
     47942 WT16     1075     MECN     H12      HGA3     0.090000        1.0080           0
     47943 WT16     1075     MECN     H13      HGA3     0.090000        1.0080           0
     47944 WT16     1075     MECN     C2       CG1N1    0.360000       12.0110           0
     47945 WT16     1075     MECN     N3       NG1T1   -0.460000       14.0070           0
     47946 WT16     1076     MECN     C1       CG331   -0.170000       12.0110           0
     47947 WT16     1076     MECN     H11      HGA3     0.090000        1.0080           0
     47948 WT16     1076     MECN     H12      HGA3     0.090000        1.0080           0
     47949 WT16     1076     MECN     H13      HGA3     0.090000        1.0080           0
     47950 WT16     1076     MECN     C2       CG1N1    0.360000       12.0110           0
     47951 WT16     1076     MECN     N3       NG1T1   -0.460000       14.0070           0
     47952 WT16     1080     MECN     C1       CG331   -0.170000       12.0110           0
     47953 WT16     1080     MECN     H11      HGA3     0.090000        1.0080           0
     47954 WT16     1080     MECN     H12      HGA3     0.090000        1.0080           0
     47955 WT16     1080     MECN     H13      HGA3     0.090000        1.0080           0
     47956 WT16     1080     MECN     C2       CG1N1    0.360000       12.0110           0
     47957 WT16     1080     MECN     N3       NG1T1   -0.460000       14.0070           0
     47958 WT16     1081     MECN     C1       CG331   -0.170000       12.0110           0
     47959 WT16     1081     MECN     H11      HGA3     0.090000        1.0080           0
     47960 WT16     1081     MECN     H12      HGA3     0.090000        1.0080           0
     47961 WT16     1081     MECN     H13      HGA3     0.090000        1.0080           0
     47962 WT16     1081     MECN     C2       CG1N1    0.360000       12.0110           0
     47963 WT16     1081     MECN     N3       NG1T1   -0.460000       14.0070           0
     47964 WT16     1084     MECN     C1       CG331   -0.170000       12.0110           0
     47965 WT16     1084     MECN     H11      HGA3     0.090000        1.0080           0
     47966 WT16     1084     MECN     H12      HGA3     0.090000        1.0080           0
     47967 WT16     1084     MECN     H13      HGA3     0.090000        1.0080           0
     47968 WT16     1084     MECN     C2       CG1N1    0.360000       12.0110           0
     47969 WT16     1084     MECN     N3       NG1T1   -0.460000       14.0070           0
     47970 WT16     1085     MECN     C1       CG331   -0.170000       12.0110           0
     47971 WT16     1085     MECN     H11      HGA3     0.090000        1.0080           0
     47972 WT16     1085     MECN     H12      HGA3     0.090000        1.0080           0
     47973 WT16     1085     MECN     H13      HGA3     0.090000        1.0080           0
     47974 WT16     1085     MECN     C2       CG1N1    0.360000       12.0110           0
     47975 WT16     1085     MECN     N3       NG1T1   -0.460000       14.0070           0
     47976 WT16     1089     MECN     C1       CG331   -0.170000       12.0110           0
     47977 WT16     1089     MECN     H11      HGA3     0.090000        1.0080           0
     47978 WT16     1089     MECN     H12      HGA3     0.090000        1.0080           0
     47979 WT16     1089     MECN     H13      HGA3     0.090000        1.0080           0
     47980 WT16     1089     MECN     C2       CG1N1    0.360000       12.0110           0
     47981 WT16     1089     MECN     N3       NG1T1   -0.460000       14.0070           0
     47982 WT16     1091     MECN     C1       CG331   -0.170000       12.0110           0
     47983 WT16     1091     MECN     H11      HGA3     0.090000        1.0080           0
     47984 WT16     1091     MECN     H12      HGA3     0.090000        1.0080           0
     47985 WT16     1091     MECN     H13      HGA3     0.090000        1.0080           0
     47986 WT16     1091     MECN     C2       CG1N1    0.360000       12.0110           0
     47987 WT16     1091     MECN     N3       NG1T1   -0.460000       14.0070           0
     47988 WT16     1093     MECN     C1       CG331   -0.170000       12.0110           0
     47989 WT16     1093     MECN     H11      HGA3     0.090000        1.0080           0
     47990 WT16     1093     MECN     H12      HGA3     0.090000        1.0080           0
     47991 WT16     1093     MECN     H13      HGA3     0.090000        1.0080           0
     47992 WT16     1093     MECN     C2       CG1N1    0.360000       12.0110           0
     47993 WT16     1093     MECN     N3       NG1T1   -0.460000       14.0070           0
     47994 WT16     1094     MECN     C1       CG331   -0.170000       12.0110           0
     47995 WT16     1094     MECN     H11      HGA3     0.090000        1.0080           0
     47996 WT16     1094     MECN     H12      HGA3     0.090000        1.0080           0
     47997 WT16     1094     MECN     H13      HGA3     0.090000        1.0080           0
     47998 WT16     1094     MECN     C2       CG1N1    0.360000       12.0110           0
     47999 WT16     1094     MECN     N3       NG1T1   -0.460000       14.0070           0
     48000 WT16     1095     MECN     C1       CG331   -0.170000       12.0110           0
     48001 WT16     1095     MECN     H11      HGA3     0.090000        1.0080           0
     48002 WT16     1095     MECN     H12      HGA3     0.090000        1.0080           0
     48003 WT16     1095     MECN     H13      HGA3     0.090000        1.0080           0
     48004 WT16     1095     MECN     C2       CG1N1    0.360000       12.0110           0
     48005 WT16     1095     MECN     N3       NG1T1   -0.460000       14.0070           0
     48006 WT16     1102     MECN     C1       CG331   -0.170000       12.0110           0
     48007 WT16     1102     MECN     H11      HGA3     0.090000        1.0080           0
     48008 WT16     1102     MECN     H12      HGA3     0.090000        1.0080           0
     48009 WT16     1102     MECN     H13      HGA3     0.090000        1.0080           0
     48010 WT16     1102     MECN     C2       CG1N1    0.360000       12.0110           0
     48011 WT16     1102     MECN     N3       NG1T1   -0.460000       14.0070           0
     48012 WT16     1106     MECN     C1       CG331   -0.170000       12.0110           0
     48013 WT16     1106     MECN     H11      HGA3     0.090000        1.0080           0
     48014 WT16     1106     MECN     H12      HGA3     0.090000        1.0080           0
     48015 WT16     1106     MECN     H13      HGA3     0.090000        1.0080           0
     48016 WT16     1106     MECN     C2       CG1N1    0.360000       12.0110           0
     48017 WT16     1106     MECN     N3       NG1T1   -0.460000       14.0070           0
     48018 WT16     1107     MECN     C1       CG331   -0.170000       12.0110           0
     48019 WT16     1107     MECN     H11      HGA3     0.090000        1.0080           0
     48020 WT16     1107     MECN     H12      HGA3     0.090000        1.0080           0
     48021 WT16     1107     MECN     H13      HGA3     0.090000        1.0080           0
     48022 WT16     1107     MECN     C2       CG1N1    0.360000       12.0110           0
     48023 WT16     1107     MECN     N3       NG1T1   -0.460000       14.0070           0
     48024 WT16     1109     MECN     C1       CG331   -0.170000       12.0110           0
     48025 WT16     1109     MECN     H11      HGA3     0.090000        1.0080           0
     48026 WT16     1109     MECN     H12      HGA3     0.090000        1.0080           0
     48027 WT16     1109     MECN     H13      HGA3     0.090000        1.0080           0
     48028 WT16     1109     MECN     C2       CG1N1    0.360000       12.0110           0
     48029 WT16     1109     MECN     N3       NG1T1   -0.460000       14.0070           0
     48030 WT16     1115     MECN     C1       CG331   -0.170000       12.0110           0
     48031 WT16     1115     MECN     H11      HGA3     0.090000        1.0080           0
     48032 WT16     1115     MECN     H12      HGA3     0.090000        1.0080           0
     48033 WT16     1115     MECN     H13      HGA3     0.090000        1.0080           0
     48034 WT16     1115     MECN     C2       CG1N1    0.360000       12.0110           0
     48035 WT16     1115     MECN     N3       NG1T1   -0.460000       14.0070           0
     48036 WT16     1117     MECN     C1       CG331   -0.170000       12.0110           0
     48037 WT16     1117     MECN     H11      HGA3     0.090000        1.0080           0
     48038 WT16     1117     MECN     H12      HGA3     0.090000        1.0080           0
     48039 WT16     1117     MECN     H13      HGA3     0.090000        1.0080           0
     48040 WT16     1117     MECN     C2       CG1N1    0.360000       12.0110           0
     48041 WT16     1117     MECN     N3       NG1T1   -0.460000       14.0070           0
     48042 WT16     1120     MECN     C1       CG331   -0.170000       12.0110           0
     48043 WT16     1120     MECN     H11      HGA3     0.090000        1.0080           0
     48044 WT16     1120     MECN     H12      HGA3     0.090000        1.0080           0
     48045 WT16     1120     MECN     H13      HGA3     0.090000        1.0080           0
     48046 WT16     1120     MECN     C2       CG1N1    0.360000       12.0110           0
     48047 WT16     1120     MECN     N3       NG1T1   -0.460000       14.0070           0
     48048 WT16     1122     MECN     C1       CG331   -0.170000       12.0110           0
     48049 WT16     1122     MECN     H11      HGA3     0.090000        1.0080           0
     48050 WT16     1122     MECN     H12      HGA3     0.090000        1.0080           0
     48051 WT16     1122     MECN     H13      HGA3     0.090000        1.0080           0
     48052 WT16     1122     MECN     C2       CG1N1    0.360000       12.0110           0
     48053 WT16     1122     MECN     N3       NG1T1   -0.460000       14.0070           0
     48054 WT16     1124     MECN     C1       CG331   -0.170000       12.0110           0
     48055 WT16     1124     MECN     H11      HGA3     0.090000        1.0080           0
     48056 WT16     1124     MECN     H12      HGA3     0.090000        1.0080           0
     48057 WT16     1124     MECN     H13      HGA3     0.090000        1.0080           0
     48058 WT16     1124     MECN     C2       CG1N1    0.360000       12.0110           0
     48059 WT16     1124     MECN     N3       NG1T1   -0.460000       14.0070           0
     48060 WT16     1125     MECN     C1       CG331   -0.170000       12.0110           0
     48061 WT16     1125     MECN     H11      HGA3     0.090000        1.0080           0
     48062 WT16     1125     MECN     H12      HGA3     0.090000        1.0080           0
     48063 WT16     1125     MECN     H13      HGA3     0.090000        1.0080           0
     48064 WT16     1125     MECN     C2       CG1N1    0.360000       12.0110           0
     48065 WT16     1125     MECN     N3       NG1T1   -0.460000       14.0070           0
     48066 WT16     1126     MECN     C1       CG331   -0.170000       12.0110           0
     48067 WT16     1126     MECN     H11      HGA3     0.090000        1.0080           0
     48068 WT16     1126     MECN     H12      HGA3     0.090000        1.0080           0
     48069 WT16     1126     MECN     H13      HGA3     0.090000        1.0080           0
     48070 WT16     1126     MECN     C2       CG1N1    0.360000       12.0110           0
     48071 WT16     1126     MECN     N3       NG1T1   -0.460000       14.0070           0
     48072 WT16     1131     MECN     C1       CG331   -0.170000       12.0110           0
     48073 WT16     1131     MECN     H11      HGA3     0.090000        1.0080           0
     48074 WT16     1131     MECN     H12      HGA3     0.090000        1.0080           0
     48075 WT16     1131     MECN     H13      HGA3     0.090000        1.0080           0
     48076 WT16     1131     MECN     C2       CG1N1    0.360000       12.0110           0
     48077 WT16     1131     MECN     N3       NG1T1   -0.460000       14.0070           0
     48078 WT16     1132     MECN     C1       CG331   -0.170000       12.0110           0
     48079 WT16     1132     MECN     H11      HGA3     0.090000        1.0080           0
     48080 WT16     1132     MECN     H12      HGA3     0.090000        1.0080           0
     48081 WT16     1132     MECN     H13      HGA3     0.090000        1.0080           0
     48082 WT16     1132     MECN     C2       CG1N1    0.360000       12.0110           0
     48083 WT16     1132     MECN     N3       NG1T1   -0.460000       14.0070           0
     48084 WT16     1136     MECN     C1       CG331   -0.170000       12.0110           0
     48085 WT16     1136     MECN     H11      HGA3     0.090000        1.0080           0
     48086 WT16     1136     MECN     H12      HGA3     0.090000        1.0080           0
     48087 WT16     1136     MECN     H13      HGA3     0.090000        1.0080           0
     48088 WT16     1136     MECN     C2       CG1N1    0.360000       12.0110           0
     48089 WT16     1136     MECN     N3       NG1T1   -0.460000       14.0070           0
     48090 WT16     1137     MECN     C1       CG331   -0.170000       12.0110           0
     48091 WT16     1137     MECN     H11      HGA3     0.090000        1.0080           0
     48092 WT16     1137     MECN     H12      HGA3     0.090000        1.0080           0
     48093 WT16     1137     MECN     H13      HGA3     0.090000        1.0080           0
     48094 WT16     1137     MECN     C2       CG1N1    0.360000       12.0110           0
     48095 WT16     1137     MECN     N3       NG1T1   -0.460000       14.0070           0
     48096 WT16     1146     MECN     C1       CG331   -0.170000       12.0110           0
     48097 WT16     1146     MECN     H11      HGA3     0.090000        1.0080           0
     48098 WT16     1146     MECN     H12      HGA3     0.090000        1.0080           0
     48099 WT16     1146     MECN     H13      HGA3     0.090000        1.0080           0
     48100 WT16     1146     MECN     C2       CG1N1    0.360000       12.0110           0
     48101 WT16     1146     MECN     N3       NG1T1   -0.460000       14.0070           0
     48102 WT16     1147     MECN     C1       CG331   -0.170000       12.0110           0
     48103 WT16     1147     MECN     H11      HGA3     0.090000        1.0080           0
     48104 WT16     1147     MECN     H12      HGA3     0.090000        1.0080           0
     48105 WT16     1147     MECN     H13      HGA3     0.090000        1.0080           0
     48106 WT16     1147     MECN     C2       CG1N1    0.360000       12.0110           0
     48107 WT16     1147     MECN     N3       NG1T1   -0.460000       14.0070           0
     48108 WT16     1148     MECN     C1       CG331   -0.170000       12.0110           0
     48109 WT16     1148     MECN     H11      HGA3     0.090000        1.0080           0
     48110 WT16     1148     MECN     H12      HGA3     0.090000        1.0080           0
     48111 WT16     1148     MECN     H13      HGA3     0.090000        1.0080           0
     48112 WT16     1148     MECN     C2       CG1N1    0.360000       12.0110           0
     48113 WT16     1148     MECN     N3       NG1T1   -0.460000       14.0070           0
     48114 WT16     1155     MECN     C1       CG331   -0.170000       12.0110           0
     48115 WT16     1155     MECN     H11      HGA3     0.090000        1.0080           0
     48116 WT16     1155     MECN     H12      HGA3     0.090000        1.0080           0
     48117 WT16     1155     MECN     H13      HGA3     0.090000        1.0080           0
     48118 WT16     1155     MECN     C2       CG1N1    0.360000       12.0110           0
     48119 WT16     1155     MECN     N3       NG1T1   -0.460000       14.0070           0
     48120 WT16     1156     MECN     C1       CG331   -0.170000       12.0110           0
     48121 WT16     1156     MECN     H11      HGA3     0.090000        1.0080           0
     48122 WT16     1156     MECN     H12      HGA3     0.090000        1.0080           0
     48123 WT16     1156     MECN     H13      HGA3     0.090000        1.0080           0
     48124 WT16     1156     MECN     C2       CG1N1    0.360000       12.0110           0
     48125 WT16     1156     MECN     N3       NG1T1   -0.460000       14.0070           0
     48126 WT16     1158     MECN     C1       CG331   -0.170000       12.0110           0
     48127 WT16     1158     MECN     H11      HGA3     0.090000        1.0080           0
     48128 WT16     1158     MECN     H12      HGA3     0.090000        1.0080           0
     48129 WT16     1158     MECN     H13      HGA3     0.090000        1.0080           0
     48130 WT16     1158     MECN     C2       CG1N1    0.360000       12.0110           0
     48131 WT16     1158     MECN     N3       NG1T1   -0.460000       14.0070           0
     48132 WT16     1161     MECN     C1       CG331   -0.170000       12.0110           0
     48133 WT16     1161     MECN     H11      HGA3     0.090000        1.0080           0
     48134 WT16     1161     MECN     H12      HGA3     0.090000        1.0080           0
     48135 WT16     1161     MECN     H13      HGA3     0.090000        1.0080           0
     48136 WT16     1161     MECN     C2       CG1N1    0.360000       12.0110           0
     48137 WT16     1161     MECN     N3       NG1T1   -0.460000       14.0070           0
     48138 WT16     1163     MECN     C1       CG331   -0.170000       12.0110           0
     48139 WT16     1163     MECN     H11      HGA3     0.090000        1.0080           0
     48140 WT16     1163     MECN     H12      HGA3     0.090000        1.0080           0
     48141 WT16     1163     MECN     H13      HGA3     0.090000        1.0080           0
     48142 WT16     1163     MECN     C2       CG1N1    0.360000       12.0110           0
     48143 WT16     1163     MECN     N3       NG1T1   -0.460000       14.0070           0
     48144 WT16     1171     MECN     C1       CG331   -0.170000       12.0110           0
     48145 WT16     1171     MECN     H11      HGA3     0.090000        1.0080           0
     48146 WT16     1171     MECN     H12      HGA3     0.090000        1.0080           0
     48147 WT16     1171     MECN     H13      HGA3     0.090000        1.0080           0
     48148 WT16     1171     MECN     C2       CG1N1    0.360000       12.0110           0
     48149 WT16     1171     MECN     N3       NG1T1   -0.460000       14.0070           0
     48150 WT16     1178     MECN     C1       CG331   -0.170000       12.0110           0
     48151 WT16     1178     MECN     H11      HGA3     0.090000        1.0080           0
     48152 WT16     1178     MECN     H12      HGA3     0.090000        1.0080           0
     48153 WT16     1178     MECN     H13      HGA3     0.090000        1.0080           0
     48154 WT16     1178     MECN     C2       CG1N1    0.360000       12.0110           0
     48155 WT16     1178     MECN     N3       NG1T1   -0.460000       14.0070           0
     48156 WT16     1181     MECN     C1       CG331   -0.170000       12.0110           0
     48157 WT16     1181     MECN     H11      HGA3     0.090000        1.0080           0
     48158 WT16     1181     MECN     H12      HGA3     0.090000        1.0080           0
     48159 WT16     1181     MECN     H13      HGA3     0.090000        1.0080           0
     48160 WT16     1181     MECN     C2       CG1N1    0.360000       12.0110           0
     48161 WT16     1181     MECN     N3       NG1T1   -0.460000       14.0070           0
     48162 WT16     1184     MECN     C1       CG331   -0.170000       12.0110           0
     48163 WT16     1184     MECN     H11      HGA3     0.090000        1.0080           0
     48164 WT16     1184     MECN     H12      HGA3     0.090000        1.0080           0
     48165 WT16     1184     MECN     H13      HGA3     0.090000        1.0080           0
     48166 WT16     1184     MECN     C2       CG1N1    0.360000       12.0110           0
     48167 WT16     1184     MECN     N3       NG1T1   -0.460000       14.0070           0
     48168 WT16     1188     MECN     C1       CG331   -0.170000       12.0110           0
     48169 WT16     1188     MECN     H11      HGA3     0.090000        1.0080           0
     48170 WT16     1188     MECN     H12      HGA3     0.090000        1.0080           0
     48171 WT16     1188     MECN     H13      HGA3     0.090000        1.0080           0
     48172 WT16     1188     MECN     C2       CG1N1    0.360000       12.0110           0
     48173 WT16     1188     MECN     N3       NG1T1   -0.460000       14.0070           0
     48174 WT16     1193     MECN     C1       CG331   -0.170000       12.0110           0
     48175 WT16     1193     MECN     H11      HGA3     0.090000        1.0080           0
     48176 WT16     1193     MECN     H12      HGA3     0.090000        1.0080           0
     48177 WT16     1193     MECN     H13      HGA3     0.090000        1.0080           0
     48178 WT16     1193     MECN     C2       CG1N1    0.360000       12.0110           0
     48179 WT16     1193     MECN     N3       NG1T1   -0.460000       14.0070           0
     48180 WT16     1196     MECN     C1       CG331   -0.170000       12.0110           0
     48181 WT16     1196     MECN     H11      HGA3     0.090000        1.0080           0
     48182 WT16     1196     MECN     H12      HGA3     0.090000        1.0080           0
     48183 WT16     1196     MECN     H13      HGA3     0.090000        1.0080           0
     48184 WT16     1196     MECN     C2       CG1N1    0.360000       12.0110           0
     48185 WT16     1196     MECN     N3       NG1T1   -0.460000       14.0070           0
     48186 WT16     1197     MECN     C1       CG331   -0.170000       12.0110           0
     48187 WT16     1197     MECN     H11      HGA3     0.090000        1.0080           0
     48188 WT16     1197     MECN     H12      HGA3     0.090000        1.0080           0
     48189 WT16     1197     MECN     H13      HGA3     0.090000        1.0080           0
     48190 WT16     1197     MECN     C2       CG1N1    0.360000       12.0110           0
     48191 WT16     1197     MECN     N3       NG1T1   -0.460000       14.0070           0
     48192 WT16     1200     MECN     C1       CG331   -0.170000       12.0110           0
     48193 WT16     1200     MECN     H11      HGA3     0.090000        1.0080           0
     48194 WT16     1200     MECN     H12      HGA3     0.090000        1.0080           0
     48195 WT16     1200     MECN     H13      HGA3     0.090000        1.0080           0
     48196 WT16     1200     MECN     C2       CG1N1    0.360000       12.0110           0
     48197 WT16     1200     MECN     N3       NG1T1   -0.460000       14.0070           0
     48198 WT16     1207     MECN     C1       CG331   -0.170000       12.0110           0
     48199 WT16     1207     MECN     H11      HGA3     0.090000        1.0080           0
     48200 WT16     1207     MECN     H12      HGA3     0.090000        1.0080           0
     48201 WT16     1207     MECN     H13      HGA3     0.090000        1.0080           0
     48202 WT16     1207     MECN     C2       CG1N1    0.360000       12.0110           0
     48203 WT16     1207     MECN     N3       NG1T1   -0.460000       14.0070           0
     48204 WT16     1210     MECN     C1       CG331   -0.170000       12.0110           0
     48205 WT16     1210     MECN     H11      HGA3     0.090000        1.0080           0
     48206 WT16     1210     MECN     H12      HGA3     0.090000        1.0080           0
     48207 WT16     1210     MECN     H13      HGA3     0.090000        1.0080           0
     48208 WT16     1210     MECN     C2       CG1N1    0.360000       12.0110           0
     48209 WT16     1210     MECN     N3       NG1T1   -0.460000       14.0070           0
     48210 WT16     1211     MECN     C1       CG331   -0.170000       12.0110           0
     48211 WT16     1211     MECN     H11      HGA3     0.090000        1.0080           0
     48212 WT16     1211     MECN     H12      HGA3     0.090000        1.0080           0
     48213 WT16     1211     MECN     H13      HGA3     0.090000        1.0080           0
     48214 WT16     1211     MECN     C2       CG1N1    0.360000       12.0110           0
     48215 WT16     1211     MECN     N3       NG1T1   -0.460000       14.0070           0
     48216 WT16     1215     MECN     C1       CG331   -0.170000       12.0110           0
     48217 WT16     1215     MECN     H11      HGA3     0.090000        1.0080           0
     48218 WT16     1215     MECN     H12      HGA3     0.090000        1.0080           0
     48219 WT16     1215     MECN     H13      HGA3     0.090000        1.0080           0
     48220 WT16     1215     MECN     C2       CG1N1    0.360000       12.0110           0
     48221 WT16     1215     MECN     N3       NG1T1   -0.460000       14.0070           0
     48222 WT16     1218     MECN     C1       CG331   -0.170000       12.0110           0
     48223 WT16     1218     MECN     H11      HGA3     0.090000        1.0080           0
     48224 WT16     1218     MECN     H12      HGA3     0.090000        1.0080           0
     48225 WT16     1218     MECN     H13      HGA3     0.090000        1.0080           0
     48226 WT16     1218     MECN     C2       CG1N1    0.360000       12.0110           0
     48227 WT16     1218     MECN     N3       NG1T1   -0.460000       14.0070           0
     48228 WT16     1220     MECN     C1       CG331   -0.170000       12.0110           0
     48229 WT16     1220     MECN     H11      HGA3     0.090000        1.0080           0
     48230 WT16     1220     MECN     H12      HGA3     0.090000        1.0080           0
     48231 WT16     1220     MECN     H13      HGA3     0.090000        1.0080           0
     48232 WT16     1220     MECN     C2       CG1N1    0.360000       12.0110           0
     48233 WT16     1220     MECN     N3       NG1T1   -0.460000       14.0070           0
     48234 WT16     1222     MECN     C1       CG331   -0.170000       12.0110           0
     48235 WT16     1222     MECN     H11      HGA3     0.090000        1.0080           0
     48236 WT16     1222     MECN     H12      HGA3     0.090000        1.0080           0
     48237 WT16     1222     MECN     H13      HGA3     0.090000        1.0080           0
     48238 WT16     1222     MECN     C2       CG1N1    0.360000       12.0110           0
     48239 WT16     1222     MECN     N3       NG1T1   -0.460000       14.0070           0
     48240 WT16     1229     MECN     C1       CG331   -0.170000       12.0110           0
     48241 WT16     1229     MECN     H11      HGA3     0.090000        1.0080           0
     48242 WT16     1229     MECN     H12      HGA3     0.090000        1.0080           0
     48243 WT16     1229     MECN     H13      HGA3     0.090000        1.0080           0
     48244 WT16     1229     MECN     C2       CG1N1    0.360000       12.0110           0
     48245 WT16     1229     MECN     N3       NG1T1   -0.460000       14.0070           0
     48246 WT16     1230     MECN     C1       CG331   -0.170000       12.0110           0
     48247 WT16     1230     MECN     H11      HGA3     0.090000        1.0080           0
     48248 WT16     1230     MECN     H12      HGA3     0.090000        1.0080           0
     48249 WT16     1230     MECN     H13      HGA3     0.090000        1.0080           0
     48250 WT16     1230     MECN     C2       CG1N1    0.360000       12.0110           0
     48251 WT16     1230     MECN     N3       NG1T1   -0.460000       14.0070           0
     48252 WT16     1234     MECN     C1       CG331   -0.170000       12.0110           0
     48253 WT16     1234     MECN     H11      HGA3     0.090000        1.0080           0
     48254 WT16     1234     MECN     H12      HGA3     0.090000        1.0080           0
     48255 WT16     1234     MECN     H13      HGA3     0.090000        1.0080           0
     48256 WT16     1234     MECN     C2       CG1N1    0.360000       12.0110           0
     48257 WT16     1234     MECN     N3       NG1T1   -0.460000       14.0070           0
     48258 WT16     1239     MECN     C1       CG331   -0.170000       12.0110           0
     48259 WT16     1239     MECN     H11      HGA3     0.090000        1.0080           0
     48260 WT16     1239     MECN     H12      HGA3     0.090000        1.0080           0
     48261 WT16     1239     MECN     H13      HGA3     0.090000        1.0080           0
     48262 WT16     1239     MECN     C2       CG1N1    0.360000       12.0110           0
     48263 WT16     1239     MECN     N3       NG1T1   -0.460000       14.0070           0
     48264 WT16     1245     MECN     C1       CG331   -0.170000       12.0110           0
     48265 WT16     1245     MECN     H11      HGA3     0.090000        1.0080           0
     48266 WT16     1245     MECN     H12      HGA3     0.090000        1.0080           0
     48267 WT16     1245     MECN     H13      HGA3     0.090000        1.0080           0
     48268 WT16     1245     MECN     C2       CG1N1    0.360000       12.0110           0
     48269 WT16     1245     MECN     N3       NG1T1   -0.460000       14.0070           0
     48270 WT16     1248     MECN     C1       CG331   -0.170000       12.0110           0
     48271 WT16     1248     MECN     H11      HGA3     0.090000        1.0080           0
     48272 WT16     1248     MECN     H12      HGA3     0.090000        1.0080           0
     48273 WT16     1248     MECN     H13      HGA3     0.090000        1.0080           0
     48274 WT16     1248     MECN     C2       CG1N1    0.360000       12.0110           0
     48275 WT16     1248     MECN     N3       NG1T1   -0.460000       14.0070           0
     48276 WT16     1253     MECN     C1       CG331   -0.170000       12.0110           0
     48277 WT16     1253     MECN     H11      HGA3     0.090000        1.0080           0
     48278 WT16     1253     MECN     H12      HGA3     0.090000        1.0080           0
     48279 WT16     1253     MECN     H13      HGA3     0.090000        1.0080           0
     48280 WT16     1253     MECN     C2       CG1N1    0.360000       12.0110           0
     48281 WT16     1253     MECN     N3       NG1T1   -0.460000       14.0070           0
     48282 WT16     1261     MECN     C1       CG331   -0.170000       12.0110           0
     48283 WT16     1261     MECN     H11      HGA3     0.090000        1.0080           0
     48284 WT16     1261     MECN     H12      HGA3     0.090000        1.0080           0
     48285 WT16     1261     MECN     H13      HGA3     0.090000        1.0080           0
     48286 WT16     1261     MECN     C2       CG1N1    0.360000       12.0110           0
     48287 WT16     1261     MECN     N3       NG1T1   -0.460000       14.0070           0
     48288 WT16     1263     MECN     C1       CG331   -0.170000       12.0110           0
     48289 WT16     1263     MECN     H11      HGA3     0.090000        1.0080           0
     48290 WT16     1263     MECN     H12      HGA3     0.090000        1.0080           0
     48291 WT16     1263     MECN     H13      HGA3     0.090000        1.0080           0
     48292 WT16     1263     MECN     C2       CG1N1    0.360000       12.0110           0
     48293 WT16     1263     MECN     N3       NG1T1   -0.460000       14.0070           0
     48294 WT16     1264     MECN     C1       CG331   -0.170000       12.0110           0
     48295 WT16     1264     MECN     H11      HGA3     0.090000        1.0080           0
     48296 WT16     1264     MECN     H12      HGA3     0.090000        1.0080           0
     48297 WT16     1264     MECN     H13      HGA3     0.090000        1.0080           0
     48298 WT16     1264     MECN     C2       CG1N1    0.360000       12.0110           0
     48299 WT16     1264     MECN     N3       NG1T1   -0.460000       14.0070           0
     48300 WT16     1265     MECN     C1       CG331   -0.170000       12.0110           0
     48301 WT16     1265     MECN     H11      HGA3     0.090000        1.0080           0
     48302 WT16     1265     MECN     H12      HGA3     0.090000        1.0080           0
     48303 WT16     1265     MECN     H13      HGA3     0.090000        1.0080           0
     48304 WT16     1265     MECN     C2       CG1N1    0.360000       12.0110           0
     48305 WT16     1265     MECN     N3       NG1T1   -0.460000       14.0070           0
     48306 WT16     1270     MECN     C1       CG331   -0.170000       12.0110           0
     48307 WT16     1270     MECN     H11      HGA3     0.090000        1.0080           0
     48308 WT16     1270     MECN     H12      HGA3     0.090000        1.0080           0
     48309 WT16     1270     MECN     H13      HGA3     0.090000        1.0080           0
     48310 WT16     1270     MECN     C2       CG1N1    0.360000       12.0110           0
     48311 WT16     1270     MECN     N3       NG1T1   -0.460000       14.0070           0
     48312 WT16     1271     MECN     C1       CG331   -0.170000       12.0110           0
     48313 WT16     1271     MECN     H11      HGA3     0.090000        1.0080           0
     48314 WT16     1271     MECN     H12      HGA3     0.090000        1.0080           0
     48315 WT16     1271     MECN     H13      HGA3     0.090000        1.0080           0
     48316 WT16     1271     MECN     C2       CG1N1    0.360000       12.0110           0
     48317 WT16     1271     MECN     N3       NG1T1   -0.460000       14.0070           0
     48318 WT16     1273     MECN     C1       CG331   -0.170000       12.0110           0
     48319 WT16     1273     MECN     H11      HGA3     0.090000        1.0080           0
     48320 WT16     1273     MECN     H12      HGA3     0.090000        1.0080           0
     48321 WT16     1273     MECN     H13      HGA3     0.090000        1.0080           0
     48322 WT16     1273     MECN     C2       CG1N1    0.360000       12.0110           0
     48323 WT16     1273     MECN     N3       NG1T1   -0.460000       14.0070           0
     48324 WT16     1274     MECN     C1       CG331   -0.170000       12.0110           0
     48325 WT16     1274     MECN     H11      HGA3     0.090000        1.0080           0
     48326 WT16     1274     MECN     H12      HGA3     0.090000        1.0080           0
     48327 WT16     1274     MECN     H13      HGA3     0.090000        1.0080           0
     48328 WT16     1274     MECN     C2       CG1N1    0.360000       12.0110           0
     48329 WT16     1274     MECN     N3       NG1T1   -0.460000       14.0070           0
     48330 WT16     1284     MECN     C1       CG331   -0.170000       12.0110           0
     48331 WT16     1284     MECN     H11      HGA3     0.090000        1.0080           0
     48332 WT16     1284     MECN     H12      HGA3     0.090000        1.0080           0
     48333 WT16     1284     MECN     H13      HGA3     0.090000        1.0080           0
     48334 WT16     1284     MECN     C2       CG1N1    0.360000       12.0110           0
     48335 WT16     1284     MECN     N3       NG1T1   -0.460000       14.0070           0
     48336 WT16     1287     MECN     C1       CG331   -0.170000       12.0110           0
     48337 WT16     1287     MECN     H11      HGA3     0.090000        1.0080           0
     48338 WT16     1287     MECN     H12      HGA3     0.090000        1.0080           0
     48339 WT16     1287     MECN     H13      HGA3     0.090000        1.0080           0
     48340 WT16     1287     MECN     C2       CG1N1    0.360000       12.0110           0
     48341 WT16     1287     MECN     N3       NG1T1   -0.460000       14.0070           0
     48342 WT16     1292     MECN     C1       CG331   -0.170000       12.0110           0
     48343 WT16     1292     MECN     H11      HGA3     0.090000        1.0080           0
     48344 WT16     1292     MECN     H12      HGA3     0.090000        1.0080           0
     48345 WT16     1292     MECN     H13      HGA3     0.090000        1.0080           0
     48346 WT16     1292     MECN     C2       CG1N1    0.360000       12.0110           0
     48347 WT16     1292     MECN     N3       NG1T1   -0.460000       14.0070           0
     48348 WT16     1293     MECN     C1       CG331   -0.170000       12.0110           0
     48349 WT16     1293     MECN     H11      HGA3     0.090000        1.0080           0
     48350 WT16     1293     MECN     H12      HGA3     0.090000        1.0080           0
     48351 WT16     1293     MECN     H13      HGA3     0.090000        1.0080           0
     48352 WT16     1293     MECN     C2       CG1N1    0.360000       12.0110           0
     48353 WT16     1293     MECN     N3       NG1T1   -0.460000       14.0070           0
     48354 WT16     1294     MECN     C1       CG331   -0.170000       12.0110           0
     48355 WT16     1294     MECN     H11      HGA3     0.090000        1.0080           0
     48356 WT16     1294     MECN     H12      HGA3     0.090000        1.0080           0
     48357 WT16     1294     MECN     H13      HGA3     0.090000        1.0080           0
     48358 WT16     1294     MECN     C2       CG1N1    0.360000       12.0110           0
     48359 WT16     1294     MECN     N3       NG1T1   -0.460000       14.0070           0
     48360 WT16     1295     MECN     C1       CG331   -0.170000       12.0110           0
     48361 WT16     1295     MECN     H11      HGA3     0.090000        1.0080           0
     48362 WT16     1295     MECN     H12      HGA3     0.090000        1.0080           0
     48363 WT16     1295     MECN     H13      HGA3     0.090000        1.0080           0
     48364 WT16     1295     MECN     C2       CG1N1    0.360000       12.0110           0
     48365 WT16     1295     MECN     N3       NG1T1   -0.460000       14.0070           0
     48366 WT16     1298     MECN     C1       CG331   -0.170000       12.0110           0
     48367 WT16     1298     MECN     H11      HGA3     0.090000        1.0080           0
     48368 WT16     1298     MECN     H12      HGA3     0.090000        1.0080           0
     48369 WT16     1298     MECN     H13      HGA3     0.090000        1.0080           0
     48370 WT16     1298     MECN     C2       CG1N1    0.360000       12.0110           0
     48371 WT16     1298     MECN     N3       NG1T1   -0.460000       14.0070           0
     48372 WT16     1300     MECN     C1       CG331   -0.170000       12.0110           0
     48373 WT16     1300     MECN     H11      HGA3     0.090000        1.0080           0
     48374 WT16     1300     MECN     H12      HGA3     0.090000        1.0080           0
     48375 WT16     1300     MECN     H13      HGA3     0.090000        1.0080           0
     48376 WT16     1300     MECN     C2       CG1N1    0.360000       12.0110           0
     48377 WT16     1300     MECN     N3       NG1T1   -0.460000       14.0070           0
     48378 WT16     1303     MECN     C1       CG331   -0.170000       12.0110           0
     48379 WT16     1303     MECN     H11      HGA3     0.090000        1.0080           0
     48380 WT16     1303     MECN     H12      HGA3     0.090000        1.0080           0
     48381 WT16     1303     MECN     H13      HGA3     0.090000        1.0080           0
     48382 WT16     1303     MECN     C2       CG1N1    0.360000       12.0110           0
     48383 WT16     1303     MECN     N3       NG1T1   -0.460000       14.0070           0
     48384 WT16     1305     MECN     C1       CG331   -0.170000       12.0110           0
     48385 WT16     1305     MECN     H11      HGA3     0.090000        1.0080           0
     48386 WT16     1305     MECN     H12      HGA3     0.090000        1.0080           0
     48387 WT16     1305     MECN     H13      HGA3     0.090000        1.0080           0
     48388 WT16     1305     MECN     C2       CG1N1    0.360000       12.0110           0
     48389 WT16     1305     MECN     N3       NG1T1   -0.460000       14.0070           0
     48390 WT16     1306     MECN     C1       CG331   -0.170000       12.0110           0
     48391 WT16     1306     MECN     H11      HGA3     0.090000        1.0080           0
     48392 WT16     1306     MECN     H12      HGA3     0.090000        1.0080           0
     48393 WT16     1306     MECN     H13      HGA3     0.090000        1.0080           0
     48394 WT16     1306     MECN     C2       CG1N1    0.360000       12.0110           0
     48395 WT16     1306     MECN     N3       NG1T1   -0.460000       14.0070           0
     48396 WT16     1307     MECN     C1       CG331   -0.170000       12.0110           0
     48397 WT16     1307     MECN     H11      HGA3     0.090000        1.0080           0
     48398 WT16     1307     MECN     H12      HGA3     0.090000        1.0080           0
     48399 WT16     1307     MECN     H13      HGA3     0.090000        1.0080           0
     48400 WT16     1307     MECN     C2       CG1N1    0.360000       12.0110           0
     48401 WT16     1307     MECN     N3       NG1T1   -0.460000       14.0070           0
     48402 WT16     1310     MECN     C1       CG331   -0.170000       12.0110           0
     48403 WT16     1310     MECN     H11      HGA3     0.090000        1.0080           0
     48404 WT16     1310     MECN     H12      HGA3     0.090000        1.0080           0
     48405 WT16     1310     MECN     H13      HGA3     0.090000        1.0080           0
     48406 WT16     1310     MECN     C2       CG1N1    0.360000       12.0110           0
     48407 WT16     1310     MECN     N3       NG1T1   -0.460000       14.0070           0
     48408 WT16     1315     MECN     C1       CG331   -0.170000       12.0110           0
     48409 WT16     1315     MECN     H11      HGA3     0.090000        1.0080           0
     48410 WT16     1315     MECN     H12      HGA3     0.090000        1.0080           0
     48411 WT16     1315     MECN     H13      HGA3     0.090000        1.0080           0
     48412 WT16     1315     MECN     C2       CG1N1    0.360000       12.0110           0
     48413 WT16     1315     MECN     N3       NG1T1   -0.460000       14.0070           0
     48414 WT16     1317     MECN     C1       CG331   -0.170000       12.0110           0
     48415 WT16     1317     MECN     H11      HGA3     0.090000        1.0080           0
     48416 WT16     1317     MECN     H12      HGA3     0.090000        1.0080           0
     48417 WT16     1317     MECN     H13      HGA3     0.090000        1.0080           0
     48418 WT16     1317     MECN     C2       CG1N1    0.360000       12.0110           0
     48419 WT16     1317     MECN     N3       NG1T1   -0.460000       14.0070           0
     48420 WT16     1325     MECN     C1       CG331   -0.170000       12.0110           0
     48421 WT16     1325     MECN     H11      HGA3     0.090000        1.0080           0
     48422 WT16     1325     MECN     H12      HGA3     0.090000        1.0080           0
     48423 WT16     1325     MECN     H13      HGA3     0.090000        1.0080           0
     48424 WT16     1325     MECN     C2       CG1N1    0.360000       12.0110           0
     48425 WT16     1325     MECN     N3       NG1T1   -0.460000       14.0070           0
     48426 WT16     1326     MECN     C1       CG331   -0.170000       12.0110           0
     48427 WT16     1326     MECN     H11      HGA3     0.090000        1.0080           0
     48428 WT16     1326     MECN     H12      HGA3     0.090000        1.0080           0
     48429 WT16     1326     MECN     H13      HGA3     0.090000        1.0080           0
     48430 WT16     1326     MECN     C2       CG1N1    0.360000       12.0110           0
     48431 WT16     1326     MECN     N3       NG1T1   -0.460000       14.0070           0
     48432 WT16     1328     MECN     C1       CG331   -0.170000       12.0110           0
     48433 WT16     1328     MECN     H11      HGA3     0.090000        1.0080           0
     48434 WT16     1328     MECN     H12      HGA3     0.090000        1.0080           0
     48435 WT16     1328     MECN     H13      HGA3     0.090000        1.0080           0
     48436 WT16     1328     MECN     C2       CG1N1    0.360000       12.0110           0
     48437 WT16     1328     MECN     N3       NG1T1   -0.460000       14.0070           0
     48438 WT16     1329     MECN     C1       CG331   -0.170000       12.0110           0
     48439 WT16     1329     MECN     H11      HGA3     0.090000        1.0080           0
     48440 WT16     1329     MECN     H12      HGA3     0.090000        1.0080           0
     48441 WT16     1329     MECN     H13      HGA3     0.090000        1.0080           0
     48442 WT16     1329     MECN     C2       CG1N1    0.360000       12.0110           0
     48443 WT16     1329     MECN     N3       NG1T1   -0.460000       14.0070           0
     48444 WT17     1        MECN     C1       CG331   -0.170000       12.0110           0
     48445 WT17     1        MECN     H11      HGA3     0.090000        1.0080           0
     48446 WT17     1        MECN     H12      HGA3     0.090000        1.0080           0
     48447 WT17     1        MECN     H13      HGA3     0.090000        1.0080           0
     48448 WT17     1        MECN     C2       CG1N1    0.360000       12.0110           0
     48449 WT17     1        MECN     N3       NG1T1   -0.460000       14.0070           0
     48450 WT17     2        MECN     C1       CG331   -0.170000       12.0110           0
     48451 WT17     2        MECN     H11      HGA3     0.090000        1.0080           0
     48452 WT17     2        MECN     H12      HGA3     0.090000        1.0080           0
     48453 WT17     2        MECN     H13      HGA3     0.090000        1.0080           0
     48454 WT17     2        MECN     C2       CG1N1    0.360000       12.0110           0
     48455 WT17     2        MECN     N3       NG1T1   -0.460000       14.0070           0
     48456 WT17     4        MECN     C1       CG331   -0.170000       12.0110           0
     48457 WT17     4        MECN     H11      HGA3     0.090000        1.0080           0
     48458 WT17     4        MECN     H12      HGA3     0.090000        1.0080           0
     48459 WT17     4        MECN     H13      HGA3     0.090000        1.0080           0
     48460 WT17     4        MECN     C2       CG1N1    0.360000       12.0110           0
     48461 WT17     4        MECN     N3       NG1T1   -0.460000       14.0070           0
     48462 WT17     5        MECN     C1       CG331   -0.170000       12.0110           0
     48463 WT17     5        MECN     H11      HGA3     0.090000        1.0080           0
     48464 WT17     5        MECN     H12      HGA3     0.090000        1.0080           0
     48465 WT17     5        MECN     H13      HGA3     0.090000        1.0080           0
     48466 WT17     5        MECN     C2       CG1N1    0.360000       12.0110           0
     48467 WT17     5        MECN     N3       NG1T1   -0.460000       14.0070           0
     48468 WT17     6        MECN     C1       CG331   -0.170000       12.0110           0
     48469 WT17     6        MECN     H11      HGA3     0.090000        1.0080           0
     48470 WT17     6        MECN     H12      HGA3     0.090000        1.0080           0
     48471 WT17     6        MECN     H13      HGA3     0.090000        1.0080           0
     48472 WT17     6        MECN     C2       CG1N1    0.360000       12.0110           0
     48473 WT17     6        MECN     N3       NG1T1   -0.460000       14.0070           0
     48474 WT17     9        MECN     C1       CG331   -0.170000       12.0110           0
     48475 WT17     9        MECN     H11      HGA3     0.090000        1.0080           0
     48476 WT17     9        MECN     H12      HGA3     0.090000        1.0080           0
     48477 WT17     9        MECN     H13      HGA3     0.090000        1.0080           0
     48478 WT17     9        MECN     C2       CG1N1    0.360000       12.0110           0
     48479 WT17     9        MECN     N3       NG1T1   -0.460000       14.0070           0
     48480 WT17     11       MECN     C1       CG331   -0.170000       12.0110           0
     48481 WT17     11       MECN     H11      HGA3     0.090000        1.0080           0
     48482 WT17     11       MECN     H12      HGA3     0.090000        1.0080           0
     48483 WT17     11       MECN     H13      HGA3     0.090000        1.0080           0
     48484 WT17     11       MECN     C2       CG1N1    0.360000       12.0110           0
     48485 WT17     11       MECN     N3       NG1T1   -0.460000       14.0070           0
     48486 WT17     13       MECN     C1       CG331   -0.170000       12.0110           0
     48487 WT17     13       MECN     H11      HGA3     0.090000        1.0080           0
     48488 WT17     13       MECN     H12      HGA3     0.090000        1.0080           0
     48489 WT17     13       MECN     H13      HGA3     0.090000        1.0080           0
     48490 WT17     13       MECN     C2       CG1N1    0.360000       12.0110           0
     48491 WT17     13       MECN     N3       NG1T1   -0.460000       14.0070           0
     48492 WT17     14       MECN     C1       CG331   -0.170000       12.0110           0
     48493 WT17     14       MECN     H11      HGA3     0.090000        1.0080           0
     48494 WT17     14       MECN     H12      HGA3     0.090000        1.0080           0
     48495 WT17     14       MECN     H13      HGA3     0.090000        1.0080           0
     48496 WT17     14       MECN     C2       CG1N1    0.360000       12.0110           0
     48497 WT17     14       MECN     N3       NG1T1   -0.460000       14.0070           0
     48498 WT17     15       MECN     C1       CG331   -0.170000       12.0110           0
     48499 WT17     15       MECN     H11      HGA3     0.090000        1.0080           0
     48500 WT17     15       MECN     H12      HGA3     0.090000        1.0080           0
     48501 WT17     15       MECN     H13      HGA3     0.090000        1.0080           0
     48502 WT17     15       MECN     C2       CG1N1    0.360000       12.0110           0
     48503 WT17     15       MECN     N3       NG1T1   -0.460000       14.0070           0
     48504 WT17     18       MECN     C1       CG331   -0.170000       12.0110           0
     48505 WT17     18       MECN     H11      HGA3     0.090000        1.0080           0
     48506 WT17     18       MECN     H12      HGA3     0.090000        1.0080           0
     48507 WT17     18       MECN     H13      HGA3     0.090000        1.0080           0
     48508 WT17     18       MECN     C2       CG1N1    0.360000       12.0110           0
     48509 WT17     18       MECN     N3       NG1T1   -0.460000       14.0070           0
     48510 WT17     19       MECN     C1       CG331   -0.170000       12.0110           0
     48511 WT17     19       MECN     H11      HGA3     0.090000        1.0080           0
     48512 WT17     19       MECN     H12      HGA3     0.090000        1.0080           0
     48513 WT17     19       MECN     H13      HGA3     0.090000        1.0080           0
     48514 WT17     19       MECN     C2       CG1N1    0.360000       12.0110           0
     48515 WT17     19       MECN     N3       NG1T1   -0.460000       14.0070           0
     48516 WT17     20       MECN     C1       CG331   -0.170000       12.0110           0
     48517 WT17     20       MECN     H11      HGA3     0.090000        1.0080           0
     48518 WT17     20       MECN     H12      HGA3     0.090000        1.0080           0
     48519 WT17     20       MECN     H13      HGA3     0.090000        1.0080           0
     48520 WT17     20       MECN     C2       CG1N1    0.360000       12.0110           0
     48521 WT17     20       MECN     N3       NG1T1   -0.460000       14.0070           0
     48522 WT17     24       MECN     C1       CG331   -0.170000       12.0110           0
     48523 WT17     24       MECN     H11      HGA3     0.090000        1.0080           0
     48524 WT17     24       MECN     H12      HGA3     0.090000        1.0080           0
     48525 WT17     24       MECN     H13      HGA3     0.090000        1.0080           0
     48526 WT17     24       MECN     C2       CG1N1    0.360000       12.0110           0
     48527 WT17     24       MECN     N3       NG1T1   -0.460000       14.0070           0
     48528 WT17     26       MECN     C1       CG331   -0.170000       12.0110           0
     48529 WT17     26       MECN     H11      HGA3     0.090000        1.0080           0
     48530 WT17     26       MECN     H12      HGA3     0.090000        1.0080           0
     48531 WT17     26       MECN     H13      HGA3     0.090000        1.0080           0
     48532 WT17     26       MECN     C2       CG1N1    0.360000       12.0110           0
     48533 WT17     26       MECN     N3       NG1T1   -0.460000       14.0070           0
     48534 WT17     27       MECN     C1       CG331   -0.170000       12.0110           0
     48535 WT17     27       MECN     H11      HGA3     0.090000        1.0080           0
     48536 WT17     27       MECN     H12      HGA3     0.090000        1.0080           0
     48537 WT17     27       MECN     H13      HGA3     0.090000        1.0080           0
     48538 WT17     27       MECN     C2       CG1N1    0.360000       12.0110           0
     48539 WT17     27       MECN     N3       NG1T1   -0.460000       14.0070           0
     48540 WT17     28       MECN     C1       CG331   -0.170000       12.0110           0
     48541 WT17     28       MECN     H11      HGA3     0.090000        1.0080           0
     48542 WT17     28       MECN     H12      HGA3     0.090000        1.0080           0
     48543 WT17     28       MECN     H13      HGA3     0.090000        1.0080           0
     48544 WT17     28       MECN     C2       CG1N1    0.360000       12.0110           0
     48545 WT17     28       MECN     N3       NG1T1   -0.460000       14.0070           0
     48546 WT17     30       MECN     C1       CG331   -0.170000       12.0110           0
     48547 WT17     30       MECN     H11      HGA3     0.090000        1.0080           0
     48548 WT17     30       MECN     H12      HGA3     0.090000        1.0080           0
     48549 WT17     30       MECN     H13      HGA3     0.090000        1.0080           0
     48550 WT17     30       MECN     C2       CG1N1    0.360000       12.0110           0
     48551 WT17     30       MECN     N3       NG1T1   -0.460000       14.0070           0
     48552 WT17     31       MECN     C1       CG331   -0.170000       12.0110           0
     48553 WT17     31       MECN     H11      HGA3     0.090000        1.0080           0
     48554 WT17     31       MECN     H12      HGA3     0.090000        1.0080           0
     48555 WT17     31       MECN     H13      HGA3     0.090000        1.0080           0
     48556 WT17     31       MECN     C2       CG1N1    0.360000       12.0110           0
     48557 WT17     31       MECN     N3       NG1T1   -0.460000       14.0070           0
     48558 WT17     32       MECN     C1       CG331   -0.170000       12.0110           0
     48559 WT17     32       MECN     H11      HGA3     0.090000        1.0080           0
     48560 WT17     32       MECN     H12      HGA3     0.090000        1.0080           0
     48561 WT17     32       MECN     H13      HGA3     0.090000        1.0080           0
     48562 WT17     32       MECN     C2       CG1N1    0.360000       12.0110           0
     48563 WT17     32       MECN     N3       NG1T1   -0.460000       14.0070           0
     48564 WT17     33       MECN     C1       CG331   -0.170000       12.0110           0
     48565 WT17     33       MECN     H11      HGA3     0.090000        1.0080           0
     48566 WT17     33       MECN     H12      HGA3     0.090000        1.0080           0
     48567 WT17     33       MECN     H13      HGA3     0.090000        1.0080           0
     48568 WT17     33       MECN     C2       CG1N1    0.360000       12.0110           0
     48569 WT17     33       MECN     N3       NG1T1   -0.460000       14.0070           0
     48570 WT17     34       MECN     C1       CG331   -0.170000       12.0110           0
     48571 WT17     34       MECN     H11      HGA3     0.090000        1.0080           0
     48572 WT17     34       MECN     H12      HGA3     0.090000        1.0080           0
     48573 WT17     34       MECN     H13      HGA3     0.090000        1.0080           0
     48574 WT17     34       MECN     C2       CG1N1    0.360000       12.0110           0
     48575 WT17     34       MECN     N3       NG1T1   -0.460000       14.0070           0
     48576 WT17     35       MECN     C1       CG331   -0.170000       12.0110           0
     48577 WT17     35       MECN     H11      HGA3     0.090000        1.0080           0
     48578 WT17     35       MECN     H12      HGA3     0.090000        1.0080           0
     48579 WT17     35       MECN     H13      HGA3     0.090000        1.0080           0
     48580 WT17     35       MECN     C2       CG1N1    0.360000       12.0110           0
     48581 WT17     35       MECN     N3       NG1T1   -0.460000       14.0070           0
     48582 WT17     36       MECN     C1       CG331   -0.170000       12.0110           0
     48583 WT17     36       MECN     H11      HGA3     0.090000        1.0080           0
     48584 WT17     36       MECN     H12      HGA3     0.090000        1.0080           0
     48585 WT17     36       MECN     H13      HGA3     0.090000        1.0080           0
     48586 WT17     36       MECN     C2       CG1N1    0.360000       12.0110           0
     48587 WT17     36       MECN     N3       NG1T1   -0.460000       14.0070           0
     48588 WT17     37       MECN     C1       CG331   -0.170000       12.0110           0
     48589 WT17     37       MECN     H11      HGA3     0.090000        1.0080           0
     48590 WT17     37       MECN     H12      HGA3     0.090000        1.0080           0
     48591 WT17     37       MECN     H13      HGA3     0.090000        1.0080           0
     48592 WT17     37       MECN     C2       CG1N1    0.360000       12.0110           0
     48593 WT17     37       MECN     N3       NG1T1   -0.460000       14.0070           0
     48594 WT17     40       MECN     C1       CG331   -0.170000       12.0110           0
     48595 WT17     40       MECN     H11      HGA3     0.090000        1.0080           0
     48596 WT17     40       MECN     H12      HGA3     0.090000        1.0080           0
     48597 WT17     40       MECN     H13      HGA3     0.090000        1.0080           0
     48598 WT17     40       MECN     C2       CG1N1    0.360000       12.0110           0
     48599 WT17     40       MECN     N3       NG1T1   -0.460000       14.0070           0
     48600 WT17     41       MECN     C1       CG331   -0.170000       12.0110           0
     48601 WT17     41       MECN     H11      HGA3     0.090000        1.0080           0
     48602 WT17     41       MECN     H12      HGA3     0.090000        1.0080           0
     48603 WT17     41       MECN     H13      HGA3     0.090000        1.0080           0
     48604 WT17     41       MECN     C2       CG1N1    0.360000       12.0110           0
     48605 WT17     41       MECN     N3       NG1T1   -0.460000       14.0070           0
     48606 WT17     42       MECN     C1       CG331   -0.170000       12.0110           0
     48607 WT17     42       MECN     H11      HGA3     0.090000        1.0080           0
     48608 WT17     42       MECN     H12      HGA3     0.090000        1.0080           0
     48609 WT17     42       MECN     H13      HGA3     0.090000        1.0080           0
     48610 WT17     42       MECN     C2       CG1N1    0.360000       12.0110           0
     48611 WT17     42       MECN     N3       NG1T1   -0.460000       14.0070           0
     48612 WT17     43       MECN     C1       CG331   -0.170000       12.0110           0
     48613 WT17     43       MECN     H11      HGA3     0.090000        1.0080           0
     48614 WT17     43       MECN     H12      HGA3     0.090000        1.0080           0
     48615 WT17     43       MECN     H13      HGA3     0.090000        1.0080           0
     48616 WT17     43       MECN     C2       CG1N1    0.360000       12.0110           0
     48617 WT17     43       MECN     N3       NG1T1   -0.460000       14.0070           0
     48618 WT17     45       MECN     C1       CG331   -0.170000       12.0110           0
     48619 WT17     45       MECN     H11      HGA3     0.090000        1.0080           0
     48620 WT17     45       MECN     H12      HGA3     0.090000        1.0080           0
     48621 WT17     45       MECN     H13      HGA3     0.090000        1.0080           0
     48622 WT17     45       MECN     C2       CG1N1    0.360000       12.0110           0
     48623 WT17     45       MECN     N3       NG1T1   -0.460000       14.0070           0
     48624 WT17     46       MECN     C1       CG331   -0.170000       12.0110           0
     48625 WT17     46       MECN     H11      HGA3     0.090000        1.0080           0
     48626 WT17     46       MECN     H12      HGA3     0.090000        1.0080           0
     48627 WT17     46       MECN     H13      HGA3     0.090000        1.0080           0
     48628 WT17     46       MECN     C2       CG1N1    0.360000       12.0110           0
     48629 WT17     46       MECN     N3       NG1T1   -0.460000       14.0070           0
     48630 WT17     47       MECN     C1       CG331   -0.170000       12.0110           0
     48631 WT17     47       MECN     H11      HGA3     0.090000        1.0080           0
     48632 WT17     47       MECN     H12      HGA3     0.090000        1.0080           0
     48633 WT17     47       MECN     H13      HGA3     0.090000        1.0080           0
     48634 WT17     47       MECN     C2       CG1N1    0.360000       12.0110           0
     48635 WT17     47       MECN     N3       NG1T1   -0.460000       14.0070           0
     48636 WT17     48       MECN     C1       CG331   -0.170000       12.0110           0
     48637 WT17     48       MECN     H11      HGA3     0.090000        1.0080           0
     48638 WT17     48       MECN     H12      HGA3     0.090000        1.0080           0
     48639 WT17     48       MECN     H13      HGA3     0.090000        1.0080           0
     48640 WT17     48       MECN     C2       CG1N1    0.360000       12.0110           0
     48641 WT17     48       MECN     N3       NG1T1   -0.460000       14.0070           0
     48642 WT17     51       MECN     C1       CG331   -0.170000       12.0110           0
     48643 WT17     51       MECN     H11      HGA3     0.090000        1.0080           0
     48644 WT17     51       MECN     H12      HGA3     0.090000        1.0080           0
     48645 WT17     51       MECN     H13      HGA3     0.090000        1.0080           0
     48646 WT17     51       MECN     C2       CG1N1    0.360000       12.0110           0
     48647 WT17     51       MECN     N3       NG1T1   -0.460000       14.0070           0
     48648 WT17     53       MECN     C1       CG331   -0.170000       12.0110           0
     48649 WT17     53       MECN     H11      HGA3     0.090000        1.0080           0
     48650 WT17     53       MECN     H12      HGA3     0.090000        1.0080           0
     48651 WT17     53       MECN     H13      HGA3     0.090000        1.0080           0
     48652 WT17     53       MECN     C2       CG1N1    0.360000       12.0110           0
     48653 WT17     53       MECN     N3       NG1T1   -0.460000       14.0070           0
     48654 WT17     57       MECN     C1       CG331   -0.170000       12.0110           0
     48655 WT17     57       MECN     H11      HGA3     0.090000        1.0080           0
     48656 WT17     57       MECN     H12      HGA3     0.090000        1.0080           0
     48657 WT17     57       MECN     H13      HGA3     0.090000        1.0080           0
     48658 WT17     57       MECN     C2       CG1N1    0.360000       12.0110           0
     48659 WT17     57       MECN     N3       NG1T1   -0.460000       14.0070           0
     48660 WT17     59       MECN     C1       CG331   -0.170000       12.0110           0
     48661 WT17     59       MECN     H11      HGA3     0.090000        1.0080           0
     48662 WT17     59       MECN     H12      HGA3     0.090000        1.0080           0
     48663 WT17     59       MECN     H13      HGA3     0.090000        1.0080           0
     48664 WT17     59       MECN     C2       CG1N1    0.360000       12.0110           0
     48665 WT17     59       MECN     N3       NG1T1   -0.460000       14.0070           0
     48666 WT17     60       MECN     C1       CG331   -0.170000       12.0110           0
     48667 WT17     60       MECN     H11      HGA3     0.090000        1.0080           0
     48668 WT17     60       MECN     H12      HGA3     0.090000        1.0080           0
     48669 WT17     60       MECN     H13      HGA3     0.090000        1.0080           0
     48670 WT17     60       MECN     C2       CG1N1    0.360000       12.0110           0
     48671 WT17     60       MECN     N3       NG1T1   -0.460000       14.0070           0
     48672 WT17     63       MECN     C1       CG331   -0.170000       12.0110           0
     48673 WT17     63       MECN     H11      HGA3     0.090000        1.0080           0
     48674 WT17     63       MECN     H12      HGA3     0.090000        1.0080           0
     48675 WT17     63       MECN     H13      HGA3     0.090000        1.0080           0
     48676 WT17     63       MECN     C2       CG1N1    0.360000       12.0110           0
     48677 WT17     63       MECN     N3       NG1T1   -0.460000       14.0070           0
     48678 WT17     65       MECN     C1       CG331   -0.170000       12.0110           0
     48679 WT17     65       MECN     H11      HGA3     0.090000        1.0080           0
     48680 WT17     65       MECN     H12      HGA3     0.090000        1.0080           0
     48681 WT17     65       MECN     H13      HGA3     0.090000        1.0080           0
     48682 WT17     65       MECN     C2       CG1N1    0.360000       12.0110           0
     48683 WT17     65       MECN     N3       NG1T1   -0.460000       14.0070           0
     48684 WT17     67       MECN     C1       CG331   -0.170000       12.0110           0
     48685 WT17     67       MECN     H11      HGA3     0.090000        1.0080           0
     48686 WT17     67       MECN     H12      HGA3     0.090000        1.0080           0
     48687 WT17     67       MECN     H13      HGA3     0.090000        1.0080           0
     48688 WT17     67       MECN     C2       CG1N1    0.360000       12.0110           0
     48689 WT17     67       MECN     N3       NG1T1   -0.460000       14.0070           0
     48690 WT17     68       MECN     C1       CG331   -0.170000       12.0110           0
     48691 WT17     68       MECN     H11      HGA3     0.090000        1.0080           0
     48692 WT17     68       MECN     H12      HGA3     0.090000        1.0080           0
     48693 WT17     68       MECN     H13      HGA3     0.090000        1.0080           0
     48694 WT17     68       MECN     C2       CG1N1    0.360000       12.0110           0
     48695 WT17     68       MECN     N3       NG1T1   -0.460000       14.0070           0
     48696 WT17     69       MECN     C1       CG331   -0.170000       12.0110           0
     48697 WT17     69       MECN     H11      HGA3     0.090000        1.0080           0
     48698 WT17     69       MECN     H12      HGA3     0.090000        1.0080           0
     48699 WT17     69       MECN     H13      HGA3     0.090000        1.0080           0
     48700 WT17     69       MECN     C2       CG1N1    0.360000       12.0110           0
     48701 WT17     69       MECN     N3       NG1T1   -0.460000       14.0070           0
     48702 WT17     70       MECN     C1       CG331   -0.170000       12.0110           0
     48703 WT17     70       MECN     H11      HGA3     0.090000        1.0080           0
     48704 WT17     70       MECN     H12      HGA3     0.090000        1.0080           0
     48705 WT17     70       MECN     H13      HGA3     0.090000        1.0080           0
     48706 WT17     70       MECN     C2       CG1N1    0.360000       12.0110           0
     48707 WT17     70       MECN     N3       NG1T1   -0.460000       14.0070           0
     48708 WT17     71       MECN     C1       CG331   -0.170000       12.0110           0
     48709 WT17     71       MECN     H11      HGA3     0.090000        1.0080           0
     48710 WT17     71       MECN     H12      HGA3     0.090000        1.0080           0
     48711 WT17     71       MECN     H13      HGA3     0.090000        1.0080           0
     48712 WT17     71       MECN     C2       CG1N1    0.360000       12.0110           0
     48713 WT17     71       MECN     N3       NG1T1   -0.460000       14.0070           0
     48714 WT17     72       MECN     C1       CG331   -0.170000       12.0110           0
     48715 WT17     72       MECN     H11      HGA3     0.090000        1.0080           0
     48716 WT17     72       MECN     H12      HGA3     0.090000        1.0080           0
     48717 WT17     72       MECN     H13      HGA3     0.090000        1.0080           0
     48718 WT17     72       MECN     C2       CG1N1    0.360000       12.0110           0
     48719 WT17     72       MECN     N3       NG1T1   -0.460000       14.0070           0
     48720 WT17     73       MECN     C1       CG331   -0.170000       12.0110           0
     48721 WT17     73       MECN     H11      HGA3     0.090000        1.0080           0
     48722 WT17     73       MECN     H12      HGA3     0.090000        1.0080           0
     48723 WT17     73       MECN     H13      HGA3     0.090000        1.0080           0
     48724 WT17     73       MECN     C2       CG1N1    0.360000       12.0110           0
     48725 WT17     73       MECN     N3       NG1T1   -0.460000       14.0070           0
     48726 WT17     75       MECN     C1       CG331   -0.170000       12.0110           0
     48727 WT17     75       MECN     H11      HGA3     0.090000        1.0080           0
     48728 WT17     75       MECN     H12      HGA3     0.090000        1.0080           0
     48729 WT17     75       MECN     H13      HGA3     0.090000        1.0080           0
     48730 WT17     75       MECN     C2       CG1N1    0.360000       12.0110           0
     48731 WT17     75       MECN     N3       NG1T1   -0.460000       14.0070           0
     48732 WT17     77       MECN     C1       CG331   -0.170000       12.0110           0
     48733 WT17     77       MECN     H11      HGA3     0.090000        1.0080           0
     48734 WT17     77       MECN     H12      HGA3     0.090000        1.0080           0
     48735 WT17     77       MECN     H13      HGA3     0.090000        1.0080           0
     48736 WT17     77       MECN     C2       CG1N1    0.360000       12.0110           0
     48737 WT17     77       MECN     N3       NG1T1   -0.460000       14.0070           0
     48738 WT17     78       MECN     C1       CG331   -0.170000       12.0110           0
     48739 WT17     78       MECN     H11      HGA3     0.090000        1.0080           0
     48740 WT17     78       MECN     H12      HGA3     0.090000        1.0080           0
     48741 WT17     78       MECN     H13      HGA3     0.090000        1.0080           0
     48742 WT17     78       MECN     C2       CG1N1    0.360000       12.0110           0
     48743 WT17     78       MECN     N3       NG1T1   -0.460000       14.0070           0
     48744 WT17     81       MECN     C1       CG331   -0.170000       12.0110           0
     48745 WT17     81       MECN     H11      HGA3     0.090000        1.0080           0
     48746 WT17     81       MECN     H12      HGA3     0.090000        1.0080           0
     48747 WT17     81       MECN     H13      HGA3     0.090000        1.0080           0
     48748 WT17     81       MECN     C2       CG1N1    0.360000       12.0110           0
     48749 WT17     81       MECN     N3       NG1T1   -0.460000       14.0070           0
     48750 WT17     82       MECN     C1       CG331   -0.170000       12.0110           0
     48751 WT17     82       MECN     H11      HGA3     0.090000        1.0080           0
     48752 WT17     82       MECN     H12      HGA3     0.090000        1.0080           0
     48753 WT17     82       MECN     H13      HGA3     0.090000        1.0080           0
     48754 WT17     82       MECN     C2       CG1N1    0.360000       12.0110           0
     48755 WT17     82       MECN     N3       NG1T1   -0.460000       14.0070           0
     48756 WT17     83       MECN     C1       CG331   -0.170000       12.0110           0
     48757 WT17     83       MECN     H11      HGA3     0.090000        1.0080           0
     48758 WT17     83       MECN     H12      HGA3     0.090000        1.0080           0
     48759 WT17     83       MECN     H13      HGA3     0.090000        1.0080           0
     48760 WT17     83       MECN     C2       CG1N1    0.360000       12.0110           0
     48761 WT17     83       MECN     N3       NG1T1   -0.460000       14.0070           0
     48762 WT17     84       MECN     C1       CG331   -0.170000       12.0110           0
     48763 WT17     84       MECN     H11      HGA3     0.090000        1.0080           0
     48764 WT17     84       MECN     H12      HGA3     0.090000        1.0080           0
     48765 WT17     84       MECN     H13      HGA3     0.090000        1.0080           0
     48766 WT17     84       MECN     C2       CG1N1    0.360000       12.0110           0
     48767 WT17     84       MECN     N3       NG1T1   -0.460000       14.0070           0
     48768 WT17     86       MECN     C1       CG331   -0.170000       12.0110           0
     48769 WT17     86       MECN     H11      HGA3     0.090000        1.0080           0
     48770 WT17     86       MECN     H12      HGA3     0.090000        1.0080           0
     48771 WT17     86       MECN     H13      HGA3     0.090000        1.0080           0
     48772 WT17     86       MECN     C2       CG1N1    0.360000       12.0110           0
     48773 WT17     86       MECN     N3       NG1T1   -0.460000       14.0070           0
     48774 WT17     87       MECN     C1       CG331   -0.170000       12.0110           0
     48775 WT17     87       MECN     H11      HGA3     0.090000        1.0080           0
     48776 WT17     87       MECN     H12      HGA3     0.090000        1.0080           0
     48777 WT17     87       MECN     H13      HGA3     0.090000        1.0080           0
     48778 WT17     87       MECN     C2       CG1N1    0.360000       12.0110           0
     48779 WT17     87       MECN     N3       NG1T1   -0.460000       14.0070           0
     48780 WT17     88       MECN     C1       CG331   -0.170000       12.0110           0
     48781 WT17     88       MECN     H11      HGA3     0.090000        1.0080           0
     48782 WT17     88       MECN     H12      HGA3     0.090000        1.0080           0
     48783 WT17     88       MECN     H13      HGA3     0.090000        1.0080           0
     48784 WT17     88       MECN     C2       CG1N1    0.360000       12.0110           0
     48785 WT17     88       MECN     N3       NG1T1   -0.460000       14.0070           0
     48786 WT17     89       MECN     C1       CG331   -0.170000       12.0110           0
     48787 WT17     89       MECN     H11      HGA3     0.090000        1.0080           0
     48788 WT17     89       MECN     H12      HGA3     0.090000        1.0080           0
     48789 WT17     89       MECN     H13      HGA3     0.090000        1.0080           0
     48790 WT17     89       MECN     C2       CG1N1    0.360000       12.0110           0
     48791 WT17     89       MECN     N3       NG1T1   -0.460000       14.0070           0
     48792 WT17     90       MECN     C1       CG331   -0.170000       12.0110           0
     48793 WT17     90       MECN     H11      HGA3     0.090000        1.0080           0
     48794 WT17     90       MECN     H12      HGA3     0.090000        1.0080           0
     48795 WT17     90       MECN     H13      HGA3     0.090000        1.0080           0
     48796 WT17     90       MECN     C2       CG1N1    0.360000       12.0110           0
     48797 WT17     90       MECN     N3       NG1T1   -0.460000       14.0070           0
     48798 WT17     91       MECN     C1       CG331   -0.170000       12.0110           0
     48799 WT17     91       MECN     H11      HGA3     0.090000        1.0080           0
     48800 WT17     91       MECN     H12      HGA3     0.090000        1.0080           0
     48801 WT17     91       MECN     H13      HGA3     0.090000        1.0080           0
     48802 WT17     91       MECN     C2       CG1N1    0.360000       12.0110           0
     48803 WT17     91       MECN     N3       NG1T1   -0.460000       14.0070           0
     48804 WT17     93       MECN     C1       CG331   -0.170000       12.0110           0
     48805 WT17     93       MECN     H11      HGA3     0.090000        1.0080           0
     48806 WT17     93       MECN     H12      HGA3     0.090000        1.0080           0
     48807 WT17     93       MECN     H13      HGA3     0.090000        1.0080           0
     48808 WT17     93       MECN     C2       CG1N1    0.360000       12.0110           0
     48809 WT17     93       MECN     N3       NG1T1   -0.460000       14.0070           0
     48810 WT17     94       MECN     C1       CG331   -0.170000       12.0110           0
     48811 WT17     94       MECN     H11      HGA3     0.090000        1.0080           0
     48812 WT17     94       MECN     H12      HGA3     0.090000        1.0080           0
     48813 WT17     94       MECN     H13      HGA3     0.090000        1.0080           0
     48814 WT17     94       MECN     C2       CG1N1    0.360000       12.0110           0
     48815 WT17     94       MECN     N3       NG1T1   -0.460000       14.0070           0
     48816 WT17     95       MECN     C1       CG331   -0.170000       12.0110           0
     48817 WT17     95       MECN     H11      HGA3     0.090000        1.0080           0
     48818 WT17     95       MECN     H12      HGA3     0.090000        1.0080           0
     48819 WT17     95       MECN     H13      HGA3     0.090000        1.0080           0
     48820 WT17     95       MECN     C2       CG1N1    0.360000       12.0110           0
     48821 WT17     95       MECN     N3       NG1T1   -0.460000       14.0070           0
     48822 WT17     97       MECN     C1       CG331   -0.170000       12.0110           0
     48823 WT17     97       MECN     H11      HGA3     0.090000        1.0080           0
     48824 WT17     97       MECN     H12      HGA3     0.090000        1.0080           0
     48825 WT17     97       MECN     H13      HGA3     0.090000        1.0080           0
     48826 WT17     97       MECN     C2       CG1N1    0.360000       12.0110           0
     48827 WT17     97       MECN     N3       NG1T1   -0.460000       14.0070           0
     48828 WT17     98       MECN     C1       CG331   -0.170000       12.0110           0
     48829 WT17     98       MECN     H11      HGA3     0.090000        1.0080           0
     48830 WT17     98       MECN     H12      HGA3     0.090000        1.0080           0
     48831 WT17     98       MECN     H13      HGA3     0.090000        1.0080           0
     48832 WT17     98       MECN     C2       CG1N1    0.360000       12.0110           0
     48833 WT17     98       MECN     N3       NG1T1   -0.460000       14.0070           0
     48834 WT17     99       MECN     C1       CG331   -0.170000       12.0110           0
     48835 WT17     99       MECN     H11      HGA3     0.090000        1.0080           0
     48836 WT17     99       MECN     H12      HGA3     0.090000        1.0080           0
     48837 WT17     99       MECN     H13      HGA3     0.090000        1.0080           0
     48838 WT17     99       MECN     C2       CG1N1    0.360000       12.0110           0
     48839 WT17     99       MECN     N3       NG1T1   -0.460000       14.0070           0
     48840 WT17     101      MECN     C1       CG331   -0.170000       12.0110           0
     48841 WT17     101      MECN     H11      HGA3     0.090000        1.0080           0
     48842 WT17     101      MECN     H12      HGA3     0.090000        1.0080           0
     48843 WT17     101      MECN     H13      HGA3     0.090000        1.0080           0
     48844 WT17     101      MECN     C2       CG1N1    0.360000       12.0110           0
     48845 WT17     101      MECN     N3       NG1T1   -0.460000       14.0070           0
     48846 WT17     103      MECN     C1       CG331   -0.170000       12.0110           0
     48847 WT17     103      MECN     H11      HGA3     0.090000        1.0080           0
     48848 WT17     103      MECN     H12      HGA3     0.090000        1.0080           0
     48849 WT17     103      MECN     H13      HGA3     0.090000        1.0080           0
     48850 WT17     103      MECN     C2       CG1N1    0.360000       12.0110           0
     48851 WT17     103      MECN     N3       NG1T1   -0.460000       14.0070           0
     48852 WT17     104      MECN     C1       CG331   -0.170000       12.0110           0
     48853 WT17     104      MECN     H11      HGA3     0.090000        1.0080           0
     48854 WT17     104      MECN     H12      HGA3     0.090000        1.0080           0
     48855 WT17     104      MECN     H13      HGA3     0.090000        1.0080           0
     48856 WT17     104      MECN     C2       CG1N1    0.360000       12.0110           0
     48857 WT17     104      MECN     N3       NG1T1   -0.460000       14.0070           0
     48858 WT17     107      MECN     C1       CG331   -0.170000       12.0110           0
     48859 WT17     107      MECN     H11      HGA3     0.090000        1.0080           0
     48860 WT17     107      MECN     H12      HGA3     0.090000        1.0080           0
     48861 WT17     107      MECN     H13      HGA3     0.090000        1.0080           0
     48862 WT17     107      MECN     C2       CG1N1    0.360000       12.0110           0
     48863 WT17     107      MECN     N3       NG1T1   -0.460000       14.0070           0
     48864 WT17     114      MECN     C1       CG331   -0.170000       12.0110           0
     48865 WT17     114      MECN     H11      HGA3     0.090000        1.0080           0
     48866 WT17     114      MECN     H12      HGA3     0.090000        1.0080           0
     48867 WT17     114      MECN     H13      HGA3     0.090000        1.0080           0
     48868 WT17     114      MECN     C2       CG1N1    0.360000       12.0110           0
     48869 WT17     114      MECN     N3       NG1T1   -0.460000       14.0070           0
     48870 WT17     116      MECN     C1       CG331   -0.170000       12.0110           0
     48871 WT17     116      MECN     H11      HGA3     0.090000        1.0080           0
     48872 WT17     116      MECN     H12      HGA3     0.090000        1.0080           0
     48873 WT17     116      MECN     H13      HGA3     0.090000        1.0080           0
     48874 WT17     116      MECN     C2       CG1N1    0.360000       12.0110           0
     48875 WT17     116      MECN     N3       NG1T1   -0.460000       14.0070           0
     48876 WT17     117      MECN     C1       CG331   -0.170000       12.0110           0
     48877 WT17     117      MECN     H11      HGA3     0.090000        1.0080           0
     48878 WT17     117      MECN     H12      HGA3     0.090000        1.0080           0
     48879 WT17     117      MECN     H13      HGA3     0.090000        1.0080           0
     48880 WT17     117      MECN     C2       CG1N1    0.360000       12.0110           0
     48881 WT17     117      MECN     N3       NG1T1   -0.460000       14.0070           0
     48882 WT17     119      MECN     C1       CG331   -0.170000       12.0110           0
     48883 WT17     119      MECN     H11      HGA3     0.090000        1.0080           0
     48884 WT17     119      MECN     H12      HGA3     0.090000        1.0080           0
     48885 WT17     119      MECN     H13      HGA3     0.090000        1.0080           0
     48886 WT17     119      MECN     C2       CG1N1    0.360000       12.0110           0
     48887 WT17     119      MECN     N3       NG1T1   -0.460000       14.0070           0
     48888 WT17     120      MECN     C1       CG331   -0.170000       12.0110           0
     48889 WT17     120      MECN     H11      HGA3     0.090000        1.0080           0
     48890 WT17     120      MECN     H12      HGA3     0.090000        1.0080           0
     48891 WT17     120      MECN     H13      HGA3     0.090000        1.0080           0
     48892 WT17     120      MECN     C2       CG1N1    0.360000       12.0110           0
     48893 WT17     120      MECN     N3       NG1T1   -0.460000       14.0070           0
     48894 WT17     126      MECN     C1       CG331   -0.170000       12.0110           0
     48895 WT17     126      MECN     H11      HGA3     0.090000        1.0080           0
     48896 WT17     126      MECN     H12      HGA3     0.090000        1.0080           0
     48897 WT17     126      MECN     H13      HGA3     0.090000        1.0080           0
     48898 WT17     126      MECN     C2       CG1N1    0.360000       12.0110           0
     48899 WT17     126      MECN     N3       NG1T1   -0.460000       14.0070           0
     48900 WT17     128      MECN     C1       CG331   -0.170000       12.0110           0
     48901 WT17     128      MECN     H11      HGA3     0.090000        1.0080           0
     48902 WT17     128      MECN     H12      HGA3     0.090000        1.0080           0
     48903 WT17     128      MECN     H13      HGA3     0.090000        1.0080           0
     48904 WT17     128      MECN     C2       CG1N1    0.360000       12.0110           0
     48905 WT17     128      MECN     N3       NG1T1   -0.460000       14.0070           0
     48906 WT17     130      MECN     C1       CG331   -0.170000       12.0110           0
     48907 WT17     130      MECN     H11      HGA3     0.090000        1.0080           0
     48908 WT17     130      MECN     H12      HGA3     0.090000        1.0080           0
     48909 WT17     130      MECN     H13      HGA3     0.090000        1.0080           0
     48910 WT17     130      MECN     C2       CG1N1    0.360000       12.0110           0
     48911 WT17     130      MECN     N3       NG1T1   -0.460000       14.0070           0
     48912 WT17     131      MECN     C1       CG331   -0.170000       12.0110           0
     48913 WT17     131      MECN     H11      HGA3     0.090000        1.0080           0
     48914 WT17     131      MECN     H12      HGA3     0.090000        1.0080           0
     48915 WT17     131      MECN     H13      HGA3     0.090000        1.0080           0
     48916 WT17     131      MECN     C2       CG1N1    0.360000       12.0110           0
     48917 WT17     131      MECN     N3       NG1T1   -0.460000       14.0070           0
     48918 WT17     132      MECN     C1       CG331   -0.170000       12.0110           0
     48919 WT17     132      MECN     H11      HGA3     0.090000        1.0080           0
     48920 WT17     132      MECN     H12      HGA3     0.090000        1.0080           0
     48921 WT17     132      MECN     H13      HGA3     0.090000        1.0080           0
     48922 WT17     132      MECN     C2       CG1N1    0.360000       12.0110           0
     48923 WT17     132      MECN     N3       NG1T1   -0.460000       14.0070           0
     48924 WT17     133      MECN     C1       CG331   -0.170000       12.0110           0
     48925 WT17     133      MECN     H11      HGA3     0.090000        1.0080           0
     48926 WT17     133      MECN     H12      HGA3     0.090000        1.0080           0
     48927 WT17     133      MECN     H13      HGA3     0.090000        1.0080           0
     48928 WT17     133      MECN     C2       CG1N1    0.360000       12.0110           0
     48929 WT17     133      MECN     N3       NG1T1   -0.460000       14.0070           0
     48930 WT17     134      MECN     C1       CG331   -0.170000       12.0110           0
     48931 WT17     134      MECN     H11      HGA3     0.090000        1.0080           0
     48932 WT17     134      MECN     H12      HGA3     0.090000        1.0080           0
     48933 WT17     134      MECN     H13      HGA3     0.090000        1.0080           0
     48934 WT17     134      MECN     C2       CG1N1    0.360000       12.0110           0
     48935 WT17     134      MECN     N3       NG1T1   -0.460000       14.0070           0
     48936 WT17     136      MECN     C1       CG331   -0.170000       12.0110           0
     48937 WT17     136      MECN     H11      HGA3     0.090000        1.0080           0
     48938 WT17     136      MECN     H12      HGA3     0.090000        1.0080           0
     48939 WT17     136      MECN     H13      HGA3     0.090000        1.0080           0
     48940 WT17     136      MECN     C2       CG1N1    0.360000       12.0110           0
     48941 WT17     136      MECN     N3       NG1T1   -0.460000       14.0070           0
     48942 WT17     137      MECN     C1       CG331   -0.170000       12.0110           0
     48943 WT17     137      MECN     H11      HGA3     0.090000        1.0080           0
     48944 WT17     137      MECN     H12      HGA3     0.090000        1.0080           0
     48945 WT17     137      MECN     H13      HGA3     0.090000        1.0080           0
     48946 WT17     137      MECN     C2       CG1N1    0.360000       12.0110           0
     48947 WT17     137      MECN     N3       NG1T1   -0.460000       14.0070           0
     48948 WT17     138      MECN     C1       CG331   -0.170000       12.0110           0
     48949 WT17     138      MECN     H11      HGA3     0.090000        1.0080           0
     48950 WT17     138      MECN     H12      HGA3     0.090000        1.0080           0
     48951 WT17     138      MECN     H13      HGA3     0.090000        1.0080           0
     48952 WT17     138      MECN     C2       CG1N1    0.360000       12.0110           0
     48953 WT17     138      MECN     N3       NG1T1   -0.460000       14.0070           0
     48954 WT17     139      MECN     C1       CG331   -0.170000       12.0110           0
     48955 WT17     139      MECN     H11      HGA3     0.090000        1.0080           0
     48956 WT17     139      MECN     H12      HGA3     0.090000        1.0080           0
     48957 WT17     139      MECN     H13      HGA3     0.090000        1.0080           0
     48958 WT17     139      MECN     C2       CG1N1    0.360000       12.0110           0
     48959 WT17     139      MECN     N3       NG1T1   -0.460000       14.0070           0
     48960 WT17     140      MECN     C1       CG331   -0.170000       12.0110           0
     48961 WT17     140      MECN     H11      HGA3     0.090000        1.0080           0
     48962 WT17     140      MECN     H12      HGA3     0.090000        1.0080           0
     48963 WT17     140      MECN     H13      HGA3     0.090000        1.0080           0
     48964 WT17     140      MECN     C2       CG1N1    0.360000       12.0110           0
     48965 WT17     140      MECN     N3       NG1T1   -0.460000       14.0070           0
     48966 WT17     141      MECN     C1       CG331   -0.170000       12.0110           0
     48967 WT17     141      MECN     H11      HGA3     0.090000        1.0080           0
     48968 WT17     141      MECN     H12      HGA3     0.090000        1.0080           0
     48969 WT17     141      MECN     H13      HGA3     0.090000        1.0080           0
     48970 WT17     141      MECN     C2       CG1N1    0.360000       12.0110           0
     48971 WT17     141      MECN     N3       NG1T1   -0.460000       14.0070           0
     48972 WT17     142      MECN     C1       CG331   -0.170000       12.0110           0
     48973 WT17     142      MECN     H11      HGA3     0.090000        1.0080           0
     48974 WT17     142      MECN     H12      HGA3     0.090000        1.0080           0
     48975 WT17     142      MECN     H13      HGA3     0.090000        1.0080           0
     48976 WT17     142      MECN     C2       CG1N1    0.360000       12.0110           0
     48977 WT17     142      MECN     N3       NG1T1   -0.460000       14.0070           0
     48978 WT17     144      MECN     C1       CG331   -0.170000       12.0110           0
     48979 WT17     144      MECN     H11      HGA3     0.090000        1.0080           0
     48980 WT17     144      MECN     H12      HGA3     0.090000        1.0080           0
     48981 WT17     144      MECN     H13      HGA3     0.090000        1.0080           0
     48982 WT17     144      MECN     C2       CG1N1    0.360000       12.0110           0
     48983 WT17     144      MECN     N3       NG1T1   -0.460000       14.0070           0
     48984 WT17     146      MECN     C1       CG331   -0.170000       12.0110           0
     48985 WT17     146      MECN     H11      HGA3     0.090000        1.0080           0
     48986 WT17     146      MECN     H12      HGA3     0.090000        1.0080           0
     48987 WT17     146      MECN     H13      HGA3     0.090000        1.0080           0
     48988 WT17     146      MECN     C2       CG1N1    0.360000       12.0110           0
     48989 WT17     146      MECN     N3       NG1T1   -0.460000       14.0070           0
     48990 WT17     147      MECN     C1       CG331   -0.170000       12.0110           0
     48991 WT17     147      MECN     H11      HGA3     0.090000        1.0080           0
     48992 WT17     147      MECN     H12      HGA3     0.090000        1.0080           0
     48993 WT17     147      MECN     H13      HGA3     0.090000        1.0080           0
     48994 WT17     147      MECN     C2       CG1N1    0.360000       12.0110           0
     48995 WT17     147      MECN     N3       NG1T1   -0.460000       14.0070           0
     48996 WT17     148      MECN     C1       CG331   -0.170000       12.0110           0
     48997 WT17     148      MECN     H11      HGA3     0.090000        1.0080           0
     48998 WT17     148      MECN     H12      HGA3     0.090000        1.0080           0
     48999 WT17     148      MECN     H13      HGA3     0.090000        1.0080           0
     49000 WT17     148      MECN     C2       CG1N1    0.360000       12.0110           0
     49001 WT17     148      MECN     N3       NG1T1   -0.460000       14.0070           0
     49002 WT17     149      MECN     C1       CG331   -0.170000       12.0110           0
     49003 WT17     149      MECN     H11      HGA3     0.090000        1.0080           0
     49004 WT17     149      MECN     H12      HGA3     0.090000        1.0080           0
     49005 WT17     149      MECN     H13      HGA3     0.090000        1.0080           0
     49006 WT17     149      MECN     C2       CG1N1    0.360000       12.0110           0
     49007 WT17     149      MECN     N3       NG1T1   -0.460000       14.0070           0
     49008 WT17     150      MECN     C1       CG331   -0.170000       12.0110           0
     49009 WT17     150      MECN     H11      HGA3     0.090000        1.0080           0
     49010 WT17     150      MECN     H12      HGA3     0.090000        1.0080           0
     49011 WT17     150      MECN     H13      HGA3     0.090000        1.0080           0
     49012 WT17     150      MECN     C2       CG1N1    0.360000       12.0110           0
     49013 WT17     150      MECN     N3       NG1T1   -0.460000       14.0070           0
     49014 WT17     152      MECN     C1       CG331   -0.170000       12.0110           0
     49015 WT17     152      MECN     H11      HGA3     0.090000        1.0080           0
     49016 WT17     152      MECN     H12      HGA3     0.090000        1.0080           0
     49017 WT17     152      MECN     H13      HGA3     0.090000        1.0080           0
     49018 WT17     152      MECN     C2       CG1N1    0.360000       12.0110           0
     49019 WT17     152      MECN     N3       NG1T1   -0.460000       14.0070           0
     49020 WT17     153      MECN     C1       CG331   -0.170000       12.0110           0
     49021 WT17     153      MECN     H11      HGA3     0.090000        1.0080           0
     49022 WT17     153      MECN     H12      HGA3     0.090000        1.0080           0
     49023 WT17     153      MECN     H13      HGA3     0.090000        1.0080           0
     49024 WT17     153      MECN     C2       CG1N1    0.360000       12.0110           0
     49025 WT17     153      MECN     N3       NG1T1   -0.460000       14.0070           0
     49026 WT17     154      MECN     C1       CG331   -0.170000       12.0110           0
     49027 WT17     154      MECN     H11      HGA3     0.090000        1.0080           0
     49028 WT17     154      MECN     H12      HGA3     0.090000        1.0080           0
     49029 WT17     154      MECN     H13      HGA3     0.090000        1.0080           0
     49030 WT17     154      MECN     C2       CG1N1    0.360000       12.0110           0
     49031 WT17     154      MECN     N3       NG1T1   -0.460000       14.0070           0
     49032 WT17     155      MECN     C1       CG331   -0.170000       12.0110           0
     49033 WT17     155      MECN     H11      HGA3     0.090000        1.0080           0
     49034 WT17     155      MECN     H12      HGA3     0.090000        1.0080           0
     49035 WT17     155      MECN     H13      HGA3     0.090000        1.0080           0
     49036 WT17     155      MECN     C2       CG1N1    0.360000       12.0110           0
     49037 WT17     155      MECN     N3       NG1T1   -0.460000       14.0070           0
     49038 WT17     156      MECN     C1       CG331   -0.170000       12.0110           0
     49039 WT17     156      MECN     H11      HGA3     0.090000        1.0080           0
     49040 WT17     156      MECN     H12      HGA3     0.090000        1.0080           0
     49041 WT17     156      MECN     H13      HGA3     0.090000        1.0080           0
     49042 WT17     156      MECN     C2       CG1N1    0.360000       12.0110           0
     49043 WT17     156      MECN     N3       NG1T1   -0.460000       14.0070           0
     49044 WT17     157      MECN     C1       CG331   -0.170000       12.0110           0
     49045 WT17     157      MECN     H11      HGA3     0.090000        1.0080           0
     49046 WT17     157      MECN     H12      HGA3     0.090000        1.0080           0
     49047 WT17     157      MECN     H13      HGA3     0.090000        1.0080           0
     49048 WT17     157      MECN     C2       CG1N1    0.360000       12.0110           0
     49049 WT17     157      MECN     N3       NG1T1   -0.460000       14.0070           0
     49050 WT17     158      MECN     C1       CG331   -0.170000       12.0110           0
     49051 WT17     158      MECN     H11      HGA3     0.090000        1.0080           0
     49052 WT17     158      MECN     H12      HGA3     0.090000        1.0080           0
     49053 WT17     158      MECN     H13      HGA3     0.090000        1.0080           0
     49054 WT17     158      MECN     C2       CG1N1    0.360000       12.0110           0
     49055 WT17     158      MECN     N3       NG1T1   -0.460000       14.0070           0
     49056 WT17     160      MECN     C1       CG331   -0.170000       12.0110           0
     49057 WT17     160      MECN     H11      HGA3     0.090000        1.0080           0
     49058 WT17     160      MECN     H12      HGA3     0.090000        1.0080           0
     49059 WT17     160      MECN     H13      HGA3     0.090000        1.0080           0
     49060 WT17     160      MECN     C2       CG1N1    0.360000       12.0110           0
     49061 WT17     160      MECN     N3       NG1T1   -0.460000       14.0070           0
     49062 WT17     162      MECN     C1       CG331   -0.170000       12.0110           0
     49063 WT17     162      MECN     H11      HGA3     0.090000        1.0080           0
     49064 WT17     162      MECN     H12      HGA3     0.090000        1.0080           0
     49065 WT17     162      MECN     H13      HGA3     0.090000        1.0080           0
     49066 WT17     162      MECN     C2       CG1N1    0.360000       12.0110           0
     49067 WT17     162      MECN     N3       NG1T1   -0.460000       14.0070           0
     49068 WT17     163      MECN     C1       CG331   -0.170000       12.0110           0
     49069 WT17     163      MECN     H11      HGA3     0.090000        1.0080           0
     49070 WT17     163      MECN     H12      HGA3     0.090000        1.0080           0
     49071 WT17     163      MECN     H13      HGA3     0.090000        1.0080           0
     49072 WT17     163      MECN     C2       CG1N1    0.360000       12.0110           0
     49073 WT17     163      MECN     N3       NG1T1   -0.460000       14.0070           0
     49074 WT17     165      MECN     C1       CG331   -0.170000       12.0110           0
     49075 WT17     165      MECN     H11      HGA3     0.090000        1.0080           0
     49076 WT17     165      MECN     H12      HGA3     0.090000        1.0080           0
     49077 WT17     165      MECN     H13      HGA3     0.090000        1.0080           0
     49078 WT17     165      MECN     C2       CG1N1    0.360000       12.0110           0
     49079 WT17     165      MECN     N3       NG1T1   -0.460000       14.0070           0
     49080 WT17     166      MECN     C1       CG331   -0.170000       12.0110           0
     49081 WT17     166      MECN     H11      HGA3     0.090000        1.0080           0
     49082 WT17     166      MECN     H12      HGA3     0.090000        1.0080           0
     49083 WT17     166      MECN     H13      HGA3     0.090000        1.0080           0
     49084 WT17     166      MECN     C2       CG1N1    0.360000       12.0110           0
     49085 WT17     166      MECN     N3       NG1T1   -0.460000       14.0070           0
     49086 WT17     167      MECN     C1       CG331   -0.170000       12.0110           0
     49087 WT17     167      MECN     H11      HGA3     0.090000        1.0080           0
     49088 WT17     167      MECN     H12      HGA3     0.090000        1.0080           0
     49089 WT17     167      MECN     H13      HGA3     0.090000        1.0080           0
     49090 WT17     167      MECN     C2       CG1N1    0.360000       12.0110           0
     49091 WT17     167      MECN     N3       NG1T1   -0.460000       14.0070           0
     49092 WT17     168      MECN     C1       CG331   -0.170000       12.0110           0
     49093 WT17     168      MECN     H11      HGA3     0.090000        1.0080           0
     49094 WT17     168      MECN     H12      HGA3     0.090000        1.0080           0
     49095 WT17     168      MECN     H13      HGA3     0.090000        1.0080           0
     49096 WT17     168      MECN     C2       CG1N1    0.360000       12.0110           0
     49097 WT17     168      MECN     N3       NG1T1   -0.460000       14.0070           0
     49098 WT17     169      MECN     C1       CG331   -0.170000       12.0110           0
     49099 WT17     169      MECN     H11      HGA3     0.090000        1.0080           0
     49100 WT17     169      MECN     H12      HGA3     0.090000        1.0080           0
     49101 WT17     169      MECN     H13      HGA3     0.090000        1.0080           0
     49102 WT17     169      MECN     C2       CG1N1    0.360000       12.0110           0
     49103 WT17     169      MECN     N3       NG1T1   -0.460000       14.0070           0
     49104 WT17     170      MECN     C1       CG331   -0.170000       12.0110           0
     49105 WT17     170      MECN     H11      HGA3     0.090000        1.0080           0
     49106 WT17     170      MECN     H12      HGA3     0.090000        1.0080           0
     49107 WT17     170      MECN     H13      HGA3     0.090000        1.0080           0
     49108 WT17     170      MECN     C2       CG1N1    0.360000       12.0110           0
     49109 WT17     170      MECN     N3       NG1T1   -0.460000       14.0070           0
     49110 WT17     172      MECN     C1       CG331   -0.170000       12.0110           0
     49111 WT17     172      MECN     H11      HGA3     0.090000        1.0080           0
     49112 WT17     172      MECN     H12      HGA3     0.090000        1.0080           0
     49113 WT17     172      MECN     H13      HGA3     0.090000        1.0080           0
     49114 WT17     172      MECN     C2       CG1N1    0.360000       12.0110           0
     49115 WT17     172      MECN     N3       NG1T1   -0.460000       14.0070           0
     49116 WT17     176      MECN     C1       CG331   -0.170000       12.0110           0
     49117 WT17     176      MECN     H11      HGA3     0.090000        1.0080           0
     49118 WT17     176      MECN     H12      HGA3     0.090000        1.0080           0
     49119 WT17     176      MECN     H13      HGA3     0.090000        1.0080           0
     49120 WT17     176      MECN     C2       CG1N1    0.360000       12.0110           0
     49121 WT17     176      MECN     N3       NG1T1   -0.460000       14.0070           0
     49122 WT17     178      MECN     C1       CG331   -0.170000       12.0110           0
     49123 WT17     178      MECN     H11      HGA3     0.090000        1.0080           0
     49124 WT17     178      MECN     H12      HGA3     0.090000        1.0080           0
     49125 WT17     178      MECN     H13      HGA3     0.090000        1.0080           0
     49126 WT17     178      MECN     C2       CG1N1    0.360000       12.0110           0
     49127 WT17     178      MECN     N3       NG1T1   -0.460000       14.0070           0
     49128 WT17     179      MECN     C1       CG331   -0.170000       12.0110           0
     49129 WT17     179      MECN     H11      HGA3     0.090000        1.0080           0
     49130 WT17     179      MECN     H12      HGA3     0.090000        1.0080           0
     49131 WT17     179      MECN     H13      HGA3     0.090000        1.0080           0
     49132 WT17     179      MECN     C2       CG1N1    0.360000       12.0110           0
     49133 WT17     179      MECN     N3       NG1T1   -0.460000       14.0070           0
     49134 WT17     180      MECN     C1       CG331   -0.170000       12.0110           0
     49135 WT17     180      MECN     H11      HGA3     0.090000        1.0080           0
     49136 WT17     180      MECN     H12      HGA3     0.090000        1.0080           0
     49137 WT17     180      MECN     H13      HGA3     0.090000        1.0080           0
     49138 WT17     180      MECN     C2       CG1N1    0.360000       12.0110           0
     49139 WT17     180      MECN     N3       NG1T1   -0.460000       14.0070           0
     49140 WT17     181      MECN     C1       CG331   -0.170000       12.0110           0
     49141 WT17     181      MECN     H11      HGA3     0.090000        1.0080           0
     49142 WT17     181      MECN     H12      HGA3     0.090000        1.0080           0
     49143 WT17     181      MECN     H13      HGA3     0.090000        1.0080           0
     49144 WT17     181      MECN     C2       CG1N1    0.360000       12.0110           0
     49145 WT17     181      MECN     N3       NG1T1   -0.460000       14.0070           0
     49146 WT17     183      MECN     C1       CG331   -0.170000       12.0110           0
     49147 WT17     183      MECN     H11      HGA3     0.090000        1.0080           0
     49148 WT17     183      MECN     H12      HGA3     0.090000        1.0080           0
     49149 WT17     183      MECN     H13      HGA3     0.090000        1.0080           0
     49150 WT17     183      MECN     C2       CG1N1    0.360000       12.0110           0
     49151 WT17     183      MECN     N3       NG1T1   -0.460000       14.0070           0
     49152 WT17     186      MECN     C1       CG331   -0.170000       12.0110           0
     49153 WT17     186      MECN     H11      HGA3     0.090000        1.0080           0
     49154 WT17     186      MECN     H12      HGA3     0.090000        1.0080           0
     49155 WT17     186      MECN     H13      HGA3     0.090000        1.0080           0
     49156 WT17     186      MECN     C2       CG1N1    0.360000       12.0110           0
     49157 WT17     186      MECN     N3       NG1T1   -0.460000       14.0070           0
     49158 WT17     187      MECN     C1       CG331   -0.170000       12.0110           0
     49159 WT17     187      MECN     H11      HGA3     0.090000        1.0080           0
     49160 WT17     187      MECN     H12      HGA3     0.090000        1.0080           0
     49161 WT17     187      MECN     H13      HGA3     0.090000        1.0080           0
     49162 WT17     187      MECN     C2       CG1N1    0.360000       12.0110           0
     49163 WT17     187      MECN     N3       NG1T1   -0.460000       14.0070           0
     49164 WT17     188      MECN     C1       CG331   -0.170000       12.0110           0
     49165 WT17     188      MECN     H11      HGA3     0.090000        1.0080           0
     49166 WT17     188      MECN     H12      HGA3     0.090000        1.0080           0
     49167 WT17     188      MECN     H13      HGA3     0.090000        1.0080           0
     49168 WT17     188      MECN     C2       CG1N1    0.360000       12.0110           0
     49169 WT17     188      MECN     N3       NG1T1   -0.460000       14.0070           0
     49170 WT17     189      MECN     C1       CG331   -0.170000       12.0110           0
     49171 WT17     189      MECN     H11      HGA3     0.090000        1.0080           0
     49172 WT17     189      MECN     H12      HGA3     0.090000        1.0080           0
     49173 WT17     189      MECN     H13      HGA3     0.090000        1.0080           0
     49174 WT17     189      MECN     C2       CG1N1    0.360000       12.0110           0
     49175 WT17     189      MECN     N3       NG1T1   -0.460000       14.0070           0
     49176 WT17     192      MECN     C1       CG331   -0.170000       12.0110           0
     49177 WT17     192      MECN     H11      HGA3     0.090000        1.0080           0
     49178 WT17     192      MECN     H12      HGA3     0.090000        1.0080           0
     49179 WT17     192      MECN     H13      HGA3     0.090000        1.0080           0
     49180 WT17     192      MECN     C2       CG1N1    0.360000       12.0110           0
     49181 WT17     192      MECN     N3       NG1T1   -0.460000       14.0070           0
     49182 WT17     194      MECN     C1       CG331   -0.170000       12.0110           0
     49183 WT17     194      MECN     H11      HGA3     0.090000        1.0080           0
     49184 WT17     194      MECN     H12      HGA3     0.090000        1.0080           0
     49185 WT17     194      MECN     H13      HGA3     0.090000        1.0080           0
     49186 WT17     194      MECN     C2       CG1N1    0.360000       12.0110           0
     49187 WT17     194      MECN     N3       NG1T1   -0.460000       14.0070           0
     49188 WT17     196      MECN     C1       CG331   -0.170000       12.0110           0
     49189 WT17     196      MECN     H11      HGA3     0.090000        1.0080           0
     49190 WT17     196      MECN     H12      HGA3     0.090000        1.0080           0
     49191 WT17     196      MECN     H13      HGA3     0.090000        1.0080           0
     49192 WT17     196      MECN     C2       CG1N1    0.360000       12.0110           0
     49193 WT17     196      MECN     N3       NG1T1   -0.460000       14.0070           0
     49194 WT17     198      MECN     C1       CG331   -0.170000       12.0110           0
     49195 WT17     198      MECN     H11      HGA3     0.090000        1.0080           0
     49196 WT17     198      MECN     H12      HGA3     0.090000        1.0080           0
     49197 WT17     198      MECN     H13      HGA3     0.090000        1.0080           0
     49198 WT17     198      MECN     C2       CG1N1    0.360000       12.0110           0
     49199 WT17     198      MECN     N3       NG1T1   -0.460000       14.0070           0
     49200 WT17     199      MECN     C1       CG331   -0.170000       12.0110           0
     49201 WT17     199      MECN     H11      HGA3     0.090000        1.0080           0
     49202 WT17     199      MECN     H12      HGA3     0.090000        1.0080           0
     49203 WT17     199      MECN     H13      HGA3     0.090000        1.0080           0
     49204 WT17     199      MECN     C2       CG1N1    0.360000       12.0110           0
     49205 WT17     199      MECN     N3       NG1T1   -0.460000       14.0070           0
     49206 WT17     200      MECN     C1       CG331   -0.170000       12.0110           0
     49207 WT17     200      MECN     H11      HGA3     0.090000        1.0080           0
     49208 WT17     200      MECN     H12      HGA3     0.090000        1.0080           0
     49209 WT17     200      MECN     H13      HGA3     0.090000        1.0080           0
     49210 WT17     200      MECN     C2       CG1N1    0.360000       12.0110           0
     49211 WT17     200      MECN     N3       NG1T1   -0.460000       14.0070           0
     49212 WT17     202      MECN     C1       CG331   -0.170000       12.0110           0
     49213 WT17     202      MECN     H11      HGA3     0.090000        1.0080           0
     49214 WT17     202      MECN     H12      HGA3     0.090000        1.0080           0
     49215 WT17     202      MECN     H13      HGA3     0.090000        1.0080           0
     49216 WT17     202      MECN     C2       CG1N1    0.360000       12.0110           0
     49217 WT17     202      MECN     N3       NG1T1   -0.460000       14.0070           0
     49218 WT17     203      MECN     C1       CG331   -0.170000       12.0110           0
     49219 WT17     203      MECN     H11      HGA3     0.090000        1.0080           0
     49220 WT17     203      MECN     H12      HGA3     0.090000        1.0080           0
     49221 WT17     203      MECN     H13      HGA3     0.090000        1.0080           0
     49222 WT17     203      MECN     C2       CG1N1    0.360000       12.0110           0
     49223 WT17     203      MECN     N3       NG1T1   -0.460000       14.0070           0
     49224 WT17     204      MECN     C1       CG331   -0.170000       12.0110           0
     49225 WT17     204      MECN     H11      HGA3     0.090000        1.0080           0
     49226 WT17     204      MECN     H12      HGA3     0.090000        1.0080           0
     49227 WT17     204      MECN     H13      HGA3     0.090000        1.0080           0
     49228 WT17     204      MECN     C2       CG1N1    0.360000       12.0110           0
     49229 WT17     204      MECN     N3       NG1T1   -0.460000       14.0070           0
     49230 WT17     205      MECN     C1       CG331   -0.170000       12.0110           0
     49231 WT17     205      MECN     H11      HGA3     0.090000        1.0080           0
     49232 WT17     205      MECN     H12      HGA3     0.090000        1.0080           0
     49233 WT17     205      MECN     H13      HGA3     0.090000        1.0080           0
     49234 WT17     205      MECN     C2       CG1N1    0.360000       12.0110           0
     49235 WT17     205      MECN     N3       NG1T1   -0.460000       14.0070           0
     49236 WT17     206      MECN     C1       CG331   -0.170000       12.0110           0
     49237 WT17     206      MECN     H11      HGA3     0.090000        1.0080           0
     49238 WT17     206      MECN     H12      HGA3     0.090000        1.0080           0
     49239 WT17     206      MECN     H13      HGA3     0.090000        1.0080           0
     49240 WT17     206      MECN     C2       CG1N1    0.360000       12.0110           0
     49241 WT17     206      MECN     N3       NG1T1   -0.460000       14.0070           0
     49242 WT17     207      MECN     C1       CG331   -0.170000       12.0110           0
     49243 WT17     207      MECN     H11      HGA3     0.090000        1.0080           0
     49244 WT17     207      MECN     H12      HGA3     0.090000        1.0080           0
     49245 WT17     207      MECN     H13      HGA3     0.090000        1.0080           0
     49246 WT17     207      MECN     C2       CG1N1    0.360000       12.0110           0
     49247 WT17     207      MECN     N3       NG1T1   -0.460000       14.0070           0
     49248 WT17     208      MECN     C1       CG331   -0.170000       12.0110           0
     49249 WT17     208      MECN     H11      HGA3     0.090000        1.0080           0
     49250 WT17     208      MECN     H12      HGA3     0.090000        1.0080           0
     49251 WT17     208      MECN     H13      HGA3     0.090000        1.0080           0
     49252 WT17     208      MECN     C2       CG1N1    0.360000       12.0110           0
     49253 WT17     208      MECN     N3       NG1T1   -0.460000       14.0070           0
     49254 WT17     209      MECN     C1       CG331   -0.170000       12.0110           0
     49255 WT17     209      MECN     H11      HGA3     0.090000        1.0080           0
     49256 WT17     209      MECN     H12      HGA3     0.090000        1.0080           0
     49257 WT17     209      MECN     H13      HGA3     0.090000        1.0080           0
     49258 WT17     209      MECN     C2       CG1N1    0.360000       12.0110           0
     49259 WT17     209      MECN     N3       NG1T1   -0.460000       14.0070           0
     49260 WT17     210      MECN     C1       CG331   -0.170000       12.0110           0
     49261 WT17     210      MECN     H11      HGA3     0.090000        1.0080           0
     49262 WT17     210      MECN     H12      HGA3     0.090000        1.0080           0
     49263 WT17     210      MECN     H13      HGA3     0.090000        1.0080           0
     49264 WT17     210      MECN     C2       CG1N1    0.360000       12.0110           0
     49265 WT17     210      MECN     N3       NG1T1   -0.460000       14.0070           0
     49266 WT17     214      MECN     C1       CG331   -0.170000       12.0110           0
     49267 WT17     214      MECN     H11      HGA3     0.090000        1.0080           0
     49268 WT17     214      MECN     H12      HGA3     0.090000        1.0080           0
     49269 WT17     214      MECN     H13      HGA3     0.090000        1.0080           0
     49270 WT17     214      MECN     C2       CG1N1    0.360000       12.0110           0
     49271 WT17     214      MECN     N3       NG1T1   -0.460000       14.0070           0
     49272 WT17     215      MECN     C1       CG331   -0.170000       12.0110           0
     49273 WT17     215      MECN     H11      HGA3     0.090000        1.0080           0
     49274 WT17     215      MECN     H12      HGA3     0.090000        1.0080           0
     49275 WT17     215      MECN     H13      HGA3     0.090000        1.0080           0
     49276 WT17     215      MECN     C2       CG1N1    0.360000       12.0110           0
     49277 WT17     215      MECN     N3       NG1T1   -0.460000       14.0070           0
     49278 WT17     217      MECN     C1       CG331   -0.170000       12.0110           0
     49279 WT17     217      MECN     H11      HGA3     0.090000        1.0080           0
     49280 WT17     217      MECN     H12      HGA3     0.090000        1.0080           0
     49281 WT17     217      MECN     H13      HGA3     0.090000        1.0080           0
     49282 WT17     217      MECN     C2       CG1N1    0.360000       12.0110           0
     49283 WT17     217      MECN     N3       NG1T1   -0.460000       14.0070           0
     49284 WT17     218      MECN     C1       CG331   -0.170000       12.0110           0
     49285 WT17     218      MECN     H11      HGA3     0.090000        1.0080           0
     49286 WT17     218      MECN     H12      HGA3     0.090000        1.0080           0
     49287 WT17     218      MECN     H13      HGA3     0.090000        1.0080           0
     49288 WT17     218      MECN     C2       CG1N1    0.360000       12.0110           0
     49289 WT17     218      MECN     N3       NG1T1   -0.460000       14.0070           0
     49290 WT17     219      MECN     C1       CG331   -0.170000       12.0110           0
     49291 WT17     219      MECN     H11      HGA3     0.090000        1.0080           0
     49292 WT17     219      MECN     H12      HGA3     0.090000        1.0080           0
     49293 WT17     219      MECN     H13      HGA3     0.090000        1.0080           0
     49294 WT17     219      MECN     C2       CG1N1    0.360000       12.0110           0
     49295 WT17     219      MECN     N3       NG1T1   -0.460000       14.0070           0
     49296 WT17     221      MECN     C1       CG331   -0.170000       12.0110           0
     49297 WT17     221      MECN     H11      HGA3     0.090000        1.0080           0
     49298 WT17     221      MECN     H12      HGA3     0.090000        1.0080           0
     49299 WT17     221      MECN     H13      HGA3     0.090000        1.0080           0
     49300 WT17     221      MECN     C2       CG1N1    0.360000       12.0110           0
     49301 WT17     221      MECN     N3       NG1T1   -0.460000       14.0070           0
     49302 WT17     222      MECN     C1       CG331   -0.170000       12.0110           0
     49303 WT17     222      MECN     H11      HGA3     0.090000        1.0080           0
     49304 WT17     222      MECN     H12      HGA3     0.090000        1.0080           0
     49305 WT17     222      MECN     H13      HGA3     0.090000        1.0080           0
     49306 WT17     222      MECN     C2       CG1N1    0.360000       12.0110           0
     49307 WT17     222      MECN     N3       NG1T1   -0.460000       14.0070           0
     49308 WT17     223      MECN     C1       CG331   -0.170000       12.0110           0
     49309 WT17     223      MECN     H11      HGA3     0.090000        1.0080           0
     49310 WT17     223      MECN     H12      HGA3     0.090000        1.0080           0
     49311 WT17     223      MECN     H13      HGA3     0.090000        1.0080           0
     49312 WT17     223      MECN     C2       CG1N1    0.360000       12.0110           0
     49313 WT17     223      MECN     N3       NG1T1   -0.460000       14.0070           0
     49314 WT17     226      MECN     C1       CG331   -0.170000       12.0110           0
     49315 WT17     226      MECN     H11      HGA3     0.090000        1.0080           0
     49316 WT17     226      MECN     H12      HGA3     0.090000        1.0080           0
     49317 WT17     226      MECN     H13      HGA3     0.090000        1.0080           0
     49318 WT17     226      MECN     C2       CG1N1    0.360000       12.0110           0
     49319 WT17     226      MECN     N3       NG1T1   -0.460000       14.0070           0
     49320 WT17     227      MECN     C1       CG331   -0.170000       12.0110           0
     49321 WT17     227      MECN     H11      HGA3     0.090000        1.0080           0
     49322 WT17     227      MECN     H12      HGA3     0.090000        1.0080           0
     49323 WT17     227      MECN     H13      HGA3     0.090000        1.0080           0
     49324 WT17     227      MECN     C2       CG1N1    0.360000       12.0110           0
     49325 WT17     227      MECN     N3       NG1T1   -0.460000       14.0070           0
     49326 WT17     228      MECN     C1       CG331   -0.170000       12.0110           0
     49327 WT17     228      MECN     H11      HGA3     0.090000        1.0080           0
     49328 WT17     228      MECN     H12      HGA3     0.090000        1.0080           0
     49329 WT17     228      MECN     H13      HGA3     0.090000        1.0080           0
     49330 WT17     228      MECN     C2       CG1N1    0.360000       12.0110           0
     49331 WT17     228      MECN     N3       NG1T1   -0.460000       14.0070           0
     49332 WT17     230      MECN     C1       CG331   -0.170000       12.0110           0
     49333 WT17     230      MECN     H11      HGA3     0.090000        1.0080           0
     49334 WT17     230      MECN     H12      HGA3     0.090000        1.0080           0
     49335 WT17     230      MECN     H13      HGA3     0.090000        1.0080           0
     49336 WT17     230      MECN     C2       CG1N1    0.360000       12.0110           0
     49337 WT17     230      MECN     N3       NG1T1   -0.460000       14.0070           0
     49338 WT17     232      MECN     C1       CG331   -0.170000       12.0110           0
     49339 WT17     232      MECN     H11      HGA3     0.090000        1.0080           0
     49340 WT17     232      MECN     H12      HGA3     0.090000        1.0080           0
     49341 WT17     232      MECN     H13      HGA3     0.090000        1.0080           0
     49342 WT17     232      MECN     C2       CG1N1    0.360000       12.0110           0
     49343 WT17     232      MECN     N3       NG1T1   -0.460000       14.0070           0
     49344 WT17     234      MECN     C1       CG331   -0.170000       12.0110           0
     49345 WT17     234      MECN     H11      HGA3     0.090000        1.0080           0
     49346 WT17     234      MECN     H12      HGA3     0.090000        1.0080           0
     49347 WT17     234      MECN     H13      HGA3     0.090000        1.0080           0
     49348 WT17     234      MECN     C2       CG1N1    0.360000       12.0110           0
     49349 WT17     234      MECN     N3       NG1T1   -0.460000       14.0070           0
     49350 WT17     235      MECN     C1       CG331   -0.170000       12.0110           0
     49351 WT17     235      MECN     H11      HGA3     0.090000        1.0080           0
     49352 WT17     235      MECN     H12      HGA3     0.090000        1.0080           0
     49353 WT17     235      MECN     H13      HGA3     0.090000        1.0080           0
     49354 WT17     235      MECN     C2       CG1N1    0.360000       12.0110           0
     49355 WT17     235      MECN     N3       NG1T1   -0.460000       14.0070           0
     49356 WT17     237      MECN     C1       CG331   -0.170000       12.0110           0
     49357 WT17     237      MECN     H11      HGA3     0.090000        1.0080           0
     49358 WT17     237      MECN     H12      HGA3     0.090000        1.0080           0
     49359 WT17     237      MECN     H13      HGA3     0.090000        1.0080           0
     49360 WT17     237      MECN     C2       CG1N1    0.360000       12.0110           0
     49361 WT17     237      MECN     N3       NG1T1   -0.460000       14.0070           0
     49362 WT17     239      MECN     C1       CG331   -0.170000       12.0110           0
     49363 WT17     239      MECN     H11      HGA3     0.090000        1.0080           0
     49364 WT17     239      MECN     H12      HGA3     0.090000        1.0080           0
     49365 WT17     239      MECN     H13      HGA3     0.090000        1.0080           0
     49366 WT17     239      MECN     C2       CG1N1    0.360000       12.0110           0
     49367 WT17     239      MECN     N3       NG1T1   -0.460000       14.0070           0
     49368 WT17     240      MECN     C1       CG331   -0.170000       12.0110           0
     49369 WT17     240      MECN     H11      HGA3     0.090000        1.0080           0
     49370 WT17     240      MECN     H12      HGA3     0.090000        1.0080           0
     49371 WT17     240      MECN     H13      HGA3     0.090000        1.0080           0
     49372 WT17     240      MECN     C2       CG1N1    0.360000       12.0110           0
     49373 WT17     240      MECN     N3       NG1T1   -0.460000       14.0070           0
     49374 WT17     241      MECN     C1       CG331   -0.170000       12.0110           0
     49375 WT17     241      MECN     H11      HGA3     0.090000        1.0080           0
     49376 WT17     241      MECN     H12      HGA3     0.090000        1.0080           0
     49377 WT17     241      MECN     H13      HGA3     0.090000        1.0080           0
     49378 WT17     241      MECN     C2       CG1N1    0.360000       12.0110           0
     49379 WT17     241      MECN     N3       NG1T1   -0.460000       14.0070           0
     49380 WT17     242      MECN     C1       CG331   -0.170000       12.0110           0
     49381 WT17     242      MECN     H11      HGA3     0.090000        1.0080           0
     49382 WT17     242      MECN     H12      HGA3     0.090000        1.0080           0
     49383 WT17     242      MECN     H13      HGA3     0.090000        1.0080           0
     49384 WT17     242      MECN     C2       CG1N1    0.360000       12.0110           0
     49385 WT17     242      MECN     N3       NG1T1   -0.460000       14.0070           0
     49386 WT17     243      MECN     C1       CG331   -0.170000       12.0110           0
     49387 WT17     243      MECN     H11      HGA3     0.090000        1.0080           0
     49388 WT17     243      MECN     H12      HGA3     0.090000        1.0080           0
     49389 WT17     243      MECN     H13      HGA3     0.090000        1.0080           0
     49390 WT17     243      MECN     C2       CG1N1    0.360000       12.0110           0
     49391 WT17     243      MECN     N3       NG1T1   -0.460000       14.0070           0
     49392 WT17     244      MECN     C1       CG331   -0.170000       12.0110           0
     49393 WT17     244      MECN     H11      HGA3     0.090000        1.0080           0
     49394 WT17     244      MECN     H12      HGA3     0.090000        1.0080           0
     49395 WT17     244      MECN     H13      HGA3     0.090000        1.0080           0
     49396 WT17     244      MECN     C2       CG1N1    0.360000       12.0110           0
     49397 WT17     244      MECN     N3       NG1T1   -0.460000       14.0070           0
     49398 WT17     245      MECN     C1       CG331   -0.170000       12.0110           0
     49399 WT17     245      MECN     H11      HGA3     0.090000        1.0080           0
     49400 WT17     245      MECN     H12      HGA3     0.090000        1.0080           0
     49401 WT17     245      MECN     H13      HGA3     0.090000        1.0080           0
     49402 WT17     245      MECN     C2       CG1N1    0.360000       12.0110           0
     49403 WT17     245      MECN     N3       NG1T1   -0.460000       14.0070           0
     49404 WT17     246      MECN     C1       CG331   -0.170000       12.0110           0
     49405 WT17     246      MECN     H11      HGA3     0.090000        1.0080           0
     49406 WT17     246      MECN     H12      HGA3     0.090000        1.0080           0
     49407 WT17     246      MECN     H13      HGA3     0.090000        1.0080           0
     49408 WT17     246      MECN     C2       CG1N1    0.360000       12.0110           0
     49409 WT17     246      MECN     N3       NG1T1   -0.460000       14.0070           0
     49410 WT17     247      MECN     C1       CG331   -0.170000       12.0110           0
     49411 WT17     247      MECN     H11      HGA3     0.090000        1.0080           0
     49412 WT17     247      MECN     H12      HGA3     0.090000        1.0080           0
     49413 WT17     247      MECN     H13      HGA3     0.090000        1.0080           0
     49414 WT17     247      MECN     C2       CG1N1    0.360000       12.0110           0
     49415 WT17     247      MECN     N3       NG1T1   -0.460000       14.0070           0
     49416 WT17     249      MECN     C1       CG331   -0.170000       12.0110           0
     49417 WT17     249      MECN     H11      HGA3     0.090000        1.0080           0
     49418 WT17     249      MECN     H12      HGA3     0.090000        1.0080           0
     49419 WT17     249      MECN     H13      HGA3     0.090000        1.0080           0
     49420 WT17     249      MECN     C2       CG1N1    0.360000       12.0110           0
     49421 WT17     249      MECN     N3       NG1T1   -0.460000       14.0070           0
     49422 WT17     250      MECN     C1       CG331   -0.170000       12.0110           0
     49423 WT17     250      MECN     H11      HGA3     0.090000        1.0080           0
     49424 WT17     250      MECN     H12      HGA3     0.090000        1.0080           0
     49425 WT17     250      MECN     H13      HGA3     0.090000        1.0080           0
     49426 WT17     250      MECN     C2       CG1N1    0.360000       12.0110           0
     49427 WT17     250      MECN     N3       NG1T1   -0.460000       14.0070           0
     49428 WT17     252      MECN     C1       CG331   -0.170000       12.0110           0
     49429 WT17     252      MECN     H11      HGA3     0.090000        1.0080           0
     49430 WT17     252      MECN     H12      HGA3     0.090000        1.0080           0
     49431 WT17     252      MECN     H13      HGA3     0.090000        1.0080           0
     49432 WT17     252      MECN     C2       CG1N1    0.360000       12.0110           0
     49433 WT17     252      MECN     N3       NG1T1   -0.460000       14.0070           0
     49434 WT17     253      MECN     C1       CG331   -0.170000       12.0110           0
     49435 WT17     253      MECN     H11      HGA3     0.090000        1.0080           0
     49436 WT17     253      MECN     H12      HGA3     0.090000        1.0080           0
     49437 WT17     253      MECN     H13      HGA3     0.090000        1.0080           0
     49438 WT17     253      MECN     C2       CG1N1    0.360000       12.0110           0
     49439 WT17     253      MECN     N3       NG1T1   -0.460000       14.0070           0
     49440 WT17     254      MECN     C1       CG331   -0.170000       12.0110           0
     49441 WT17     254      MECN     H11      HGA3     0.090000        1.0080           0
     49442 WT17     254      MECN     H12      HGA3     0.090000        1.0080           0
     49443 WT17     254      MECN     H13      HGA3     0.090000        1.0080           0
     49444 WT17     254      MECN     C2       CG1N1    0.360000       12.0110           0
     49445 WT17     254      MECN     N3       NG1T1   -0.460000       14.0070           0
     49446 WT17     256      MECN     C1       CG331   -0.170000       12.0110           0
     49447 WT17     256      MECN     H11      HGA3     0.090000        1.0080           0
     49448 WT17     256      MECN     H12      HGA3     0.090000        1.0080           0
     49449 WT17     256      MECN     H13      HGA3     0.090000        1.0080           0
     49450 WT17     256      MECN     C2       CG1N1    0.360000       12.0110           0
     49451 WT17     256      MECN     N3       NG1T1   -0.460000       14.0070           0
     49452 WT17     258      MECN     C1       CG331   -0.170000       12.0110           0
     49453 WT17     258      MECN     H11      HGA3     0.090000        1.0080           0
     49454 WT17     258      MECN     H12      HGA3     0.090000        1.0080           0
     49455 WT17     258      MECN     H13      HGA3     0.090000        1.0080           0
     49456 WT17     258      MECN     C2       CG1N1    0.360000       12.0110           0
     49457 WT17     258      MECN     N3       NG1T1   -0.460000       14.0070           0
     49458 WT17     259      MECN     C1       CG331   -0.170000       12.0110           0
     49459 WT17     259      MECN     H11      HGA3     0.090000        1.0080           0
     49460 WT17     259      MECN     H12      HGA3     0.090000        1.0080           0
     49461 WT17     259      MECN     H13      HGA3     0.090000        1.0080           0
     49462 WT17     259      MECN     C2       CG1N1    0.360000       12.0110           0
     49463 WT17     259      MECN     N3       NG1T1   -0.460000       14.0070           0
     49464 WT17     260      MECN     C1       CG331   -0.170000       12.0110           0
     49465 WT17     260      MECN     H11      HGA3     0.090000        1.0080           0
     49466 WT17     260      MECN     H12      HGA3     0.090000        1.0080           0
     49467 WT17     260      MECN     H13      HGA3     0.090000        1.0080           0
     49468 WT17     260      MECN     C2       CG1N1    0.360000       12.0110           0
     49469 WT17     260      MECN     N3       NG1T1   -0.460000       14.0070           0
     49470 WT17     261      MECN     C1       CG331   -0.170000       12.0110           0
     49471 WT17     261      MECN     H11      HGA3     0.090000        1.0080           0
     49472 WT17     261      MECN     H12      HGA3     0.090000        1.0080           0
     49473 WT17     261      MECN     H13      HGA3     0.090000        1.0080           0
     49474 WT17     261      MECN     C2       CG1N1    0.360000       12.0110           0
     49475 WT17     261      MECN     N3       NG1T1   -0.460000       14.0070           0
     49476 WT17     263      MECN     C1       CG331   -0.170000       12.0110           0
     49477 WT17     263      MECN     H11      HGA3     0.090000        1.0080           0
     49478 WT17     263      MECN     H12      HGA3     0.090000        1.0080           0
     49479 WT17     263      MECN     H13      HGA3     0.090000        1.0080           0
     49480 WT17     263      MECN     C2       CG1N1    0.360000       12.0110           0
     49481 WT17     263      MECN     N3       NG1T1   -0.460000       14.0070           0
     49482 WT17     264      MECN     C1       CG331   -0.170000       12.0110           0
     49483 WT17     264      MECN     H11      HGA3     0.090000        1.0080           0
     49484 WT17     264      MECN     H12      HGA3     0.090000        1.0080           0
     49485 WT17     264      MECN     H13      HGA3     0.090000        1.0080           0
     49486 WT17     264      MECN     C2       CG1N1    0.360000       12.0110           0
     49487 WT17     264      MECN     N3       NG1T1   -0.460000       14.0070           0
     49488 WT17     265      MECN     C1       CG331   -0.170000       12.0110           0
     49489 WT17     265      MECN     H11      HGA3     0.090000        1.0080           0
     49490 WT17     265      MECN     H12      HGA3     0.090000        1.0080           0
     49491 WT17     265      MECN     H13      HGA3     0.090000        1.0080           0
     49492 WT17     265      MECN     C2       CG1N1    0.360000       12.0110           0
     49493 WT17     265      MECN     N3       NG1T1   -0.460000       14.0070           0
     49494 WT17     266      MECN     C1       CG331   -0.170000       12.0110           0
     49495 WT17     266      MECN     H11      HGA3     0.090000        1.0080           0
     49496 WT17     266      MECN     H12      HGA3     0.090000        1.0080           0
     49497 WT17     266      MECN     H13      HGA3     0.090000        1.0080           0
     49498 WT17     266      MECN     C2       CG1N1    0.360000       12.0110           0
     49499 WT17     266      MECN     N3       NG1T1   -0.460000       14.0070           0
     49500 WT17     268      MECN     C1       CG331   -0.170000       12.0110           0
     49501 WT17     268      MECN     H11      HGA3     0.090000        1.0080           0
     49502 WT17     268      MECN     H12      HGA3     0.090000        1.0080           0
     49503 WT17     268      MECN     H13      HGA3     0.090000        1.0080           0
     49504 WT17     268      MECN     C2       CG1N1    0.360000       12.0110           0
     49505 WT17     268      MECN     N3       NG1T1   -0.460000       14.0070           0
     49506 WT17     271      MECN     C1       CG331   -0.170000       12.0110           0
     49507 WT17     271      MECN     H11      HGA3     0.090000        1.0080           0
     49508 WT17     271      MECN     H12      HGA3     0.090000        1.0080           0
     49509 WT17     271      MECN     H13      HGA3     0.090000        1.0080           0
     49510 WT17     271      MECN     C2       CG1N1    0.360000       12.0110           0
     49511 WT17     271      MECN     N3       NG1T1   -0.460000       14.0070           0
     49512 WT17     272      MECN     C1       CG331   -0.170000       12.0110           0
     49513 WT17     272      MECN     H11      HGA3     0.090000        1.0080           0
     49514 WT17     272      MECN     H12      HGA3     0.090000        1.0080           0
     49515 WT17     272      MECN     H13      HGA3     0.090000        1.0080           0
     49516 WT17     272      MECN     C2       CG1N1    0.360000       12.0110           0
     49517 WT17     272      MECN     N3       NG1T1   -0.460000       14.0070           0
     49518 WT17     273      MECN     C1       CG331   -0.170000       12.0110           0
     49519 WT17     273      MECN     H11      HGA3     0.090000        1.0080           0
     49520 WT17     273      MECN     H12      HGA3     0.090000        1.0080           0
     49521 WT17     273      MECN     H13      HGA3     0.090000        1.0080           0
     49522 WT17     273      MECN     C2       CG1N1    0.360000       12.0110           0
     49523 WT17     273      MECN     N3       NG1T1   -0.460000       14.0070           0
     49524 WT17     275      MECN     C1       CG331   -0.170000       12.0110           0
     49525 WT17     275      MECN     H11      HGA3     0.090000        1.0080           0
     49526 WT17     275      MECN     H12      HGA3     0.090000        1.0080           0
     49527 WT17     275      MECN     H13      HGA3     0.090000        1.0080           0
     49528 WT17     275      MECN     C2       CG1N1    0.360000       12.0110           0
     49529 WT17     275      MECN     N3       NG1T1   -0.460000       14.0070           0
     49530 WT17     276      MECN     C1       CG331   -0.170000       12.0110           0
     49531 WT17     276      MECN     H11      HGA3     0.090000        1.0080           0
     49532 WT17     276      MECN     H12      HGA3     0.090000        1.0080           0
     49533 WT17     276      MECN     H13      HGA3     0.090000        1.0080           0
     49534 WT17     276      MECN     C2       CG1N1    0.360000       12.0110           0
     49535 WT17     276      MECN     N3       NG1T1   -0.460000       14.0070           0
     49536 WT17     277      MECN     C1       CG331   -0.170000       12.0110           0
     49537 WT17     277      MECN     H11      HGA3     0.090000        1.0080           0
     49538 WT17     277      MECN     H12      HGA3     0.090000        1.0080           0
     49539 WT17     277      MECN     H13      HGA3     0.090000        1.0080           0
     49540 WT17     277      MECN     C2       CG1N1    0.360000       12.0110           0
     49541 WT17     277      MECN     N3       NG1T1   -0.460000       14.0070           0
     49542 WT17     278      MECN     C1       CG331   -0.170000       12.0110           0
     49543 WT17     278      MECN     H11      HGA3     0.090000        1.0080           0
     49544 WT17     278      MECN     H12      HGA3     0.090000        1.0080           0
     49545 WT17     278      MECN     H13      HGA3     0.090000        1.0080           0
     49546 WT17     278      MECN     C2       CG1N1    0.360000       12.0110           0
     49547 WT17     278      MECN     N3       NG1T1   -0.460000       14.0070           0
     49548 WT17     281      MECN     C1       CG331   -0.170000       12.0110           0
     49549 WT17     281      MECN     H11      HGA3     0.090000        1.0080           0
     49550 WT17     281      MECN     H12      HGA3     0.090000        1.0080           0
     49551 WT17     281      MECN     H13      HGA3     0.090000        1.0080           0
     49552 WT17     281      MECN     C2       CG1N1    0.360000       12.0110           0
     49553 WT17     281      MECN     N3       NG1T1   -0.460000       14.0070           0
     49554 WT17     283      MECN     C1       CG331   -0.170000       12.0110           0
     49555 WT17     283      MECN     H11      HGA3     0.090000        1.0080           0
     49556 WT17     283      MECN     H12      HGA3     0.090000        1.0080           0
     49557 WT17     283      MECN     H13      HGA3     0.090000        1.0080           0
     49558 WT17     283      MECN     C2       CG1N1    0.360000       12.0110           0
     49559 WT17     283      MECN     N3       NG1T1   -0.460000       14.0070           0
     49560 WT17     284      MECN     C1       CG331   -0.170000       12.0110           0
     49561 WT17     284      MECN     H11      HGA3     0.090000        1.0080           0
     49562 WT17     284      MECN     H12      HGA3     0.090000        1.0080           0
     49563 WT17     284      MECN     H13      HGA3     0.090000        1.0080           0
     49564 WT17     284      MECN     C2       CG1N1    0.360000       12.0110           0
     49565 WT17     284      MECN     N3       NG1T1   -0.460000       14.0070           0
     49566 WT17     289      MECN     C1       CG331   -0.170000       12.0110           0
     49567 WT17     289      MECN     H11      HGA3     0.090000        1.0080           0
     49568 WT17     289      MECN     H12      HGA3     0.090000        1.0080           0
     49569 WT17     289      MECN     H13      HGA3     0.090000        1.0080           0
     49570 WT17     289      MECN     C2       CG1N1    0.360000       12.0110           0
     49571 WT17     289      MECN     N3       NG1T1   -0.460000       14.0070           0
     49572 WT17     290      MECN     C1       CG331   -0.170000       12.0110           0
     49573 WT17     290      MECN     H11      HGA3     0.090000        1.0080           0
     49574 WT17     290      MECN     H12      HGA3     0.090000        1.0080           0
     49575 WT17     290      MECN     H13      HGA3     0.090000        1.0080           0
     49576 WT17     290      MECN     C2       CG1N1    0.360000       12.0110           0
     49577 WT17     290      MECN     N3       NG1T1   -0.460000       14.0070           0
     49578 WT17     291      MECN     C1       CG331   -0.170000       12.0110           0
     49579 WT17     291      MECN     H11      HGA3     0.090000        1.0080           0
     49580 WT17     291      MECN     H12      HGA3     0.090000        1.0080           0
     49581 WT17     291      MECN     H13      HGA3     0.090000        1.0080           0
     49582 WT17     291      MECN     C2       CG1N1    0.360000       12.0110           0
     49583 WT17     291      MECN     N3       NG1T1   -0.460000       14.0070           0
     49584 WT17     293      MECN     C1       CG331   -0.170000       12.0110           0
     49585 WT17     293      MECN     H11      HGA3     0.090000        1.0080           0
     49586 WT17     293      MECN     H12      HGA3     0.090000        1.0080           0
     49587 WT17     293      MECN     H13      HGA3     0.090000        1.0080           0
     49588 WT17     293      MECN     C2       CG1N1    0.360000       12.0110           0
     49589 WT17     293      MECN     N3       NG1T1   -0.460000       14.0070           0
     49590 WT17     297      MECN     C1       CG331   -0.170000       12.0110           0
     49591 WT17     297      MECN     H11      HGA3     0.090000        1.0080           0
     49592 WT17     297      MECN     H12      HGA3     0.090000        1.0080           0
     49593 WT17     297      MECN     H13      HGA3     0.090000        1.0080           0
     49594 WT17     297      MECN     C2       CG1N1    0.360000       12.0110           0
     49595 WT17     297      MECN     N3       NG1T1   -0.460000       14.0070           0
     49596 WT17     299      MECN     C1       CG331   -0.170000       12.0110           0
     49597 WT17     299      MECN     H11      HGA3     0.090000        1.0080           0
     49598 WT17     299      MECN     H12      HGA3     0.090000        1.0080           0
     49599 WT17     299      MECN     H13      HGA3     0.090000        1.0080           0
     49600 WT17     299      MECN     C2       CG1N1    0.360000       12.0110           0
     49601 WT17     299      MECN     N3       NG1T1   -0.460000       14.0070           0
     49602 WT17     300      MECN     C1       CG331   -0.170000       12.0110           0
     49603 WT17     300      MECN     H11      HGA3     0.090000        1.0080           0
     49604 WT17     300      MECN     H12      HGA3     0.090000        1.0080           0
     49605 WT17     300      MECN     H13      HGA3     0.090000        1.0080           0
     49606 WT17     300      MECN     C2       CG1N1    0.360000       12.0110           0
     49607 WT17     300      MECN     N3       NG1T1   -0.460000       14.0070           0
     49608 WT17     301      MECN     C1       CG331   -0.170000       12.0110           0
     49609 WT17     301      MECN     H11      HGA3     0.090000        1.0080           0
     49610 WT17     301      MECN     H12      HGA3     0.090000        1.0080           0
     49611 WT17     301      MECN     H13      HGA3     0.090000        1.0080           0
     49612 WT17     301      MECN     C2       CG1N1    0.360000       12.0110           0
     49613 WT17     301      MECN     N3       NG1T1   -0.460000       14.0070           0
     49614 WT17     303      MECN     C1       CG331   -0.170000       12.0110           0
     49615 WT17     303      MECN     H11      HGA3     0.090000        1.0080           0
     49616 WT17     303      MECN     H12      HGA3     0.090000        1.0080           0
     49617 WT17     303      MECN     H13      HGA3     0.090000        1.0080           0
     49618 WT17     303      MECN     C2       CG1N1    0.360000       12.0110           0
     49619 WT17     303      MECN     N3       NG1T1   -0.460000       14.0070           0
     49620 WT17     304      MECN     C1       CG331   -0.170000       12.0110           0
     49621 WT17     304      MECN     H11      HGA3     0.090000        1.0080           0
     49622 WT17     304      MECN     H12      HGA3     0.090000        1.0080           0
     49623 WT17     304      MECN     H13      HGA3     0.090000        1.0080           0
     49624 WT17     304      MECN     C2       CG1N1    0.360000       12.0110           0
     49625 WT17     304      MECN     N3       NG1T1   -0.460000       14.0070           0
     49626 WT17     305      MECN     C1       CG331   -0.170000       12.0110           0
     49627 WT17     305      MECN     H11      HGA3     0.090000        1.0080           0
     49628 WT17     305      MECN     H12      HGA3     0.090000        1.0080           0
     49629 WT17     305      MECN     H13      HGA3     0.090000        1.0080           0
     49630 WT17     305      MECN     C2       CG1N1    0.360000       12.0110           0
     49631 WT17     305      MECN     N3       NG1T1   -0.460000       14.0070           0
     49632 WT17     307      MECN     C1       CG331   -0.170000       12.0110           0
     49633 WT17     307      MECN     H11      HGA3     0.090000        1.0080           0
     49634 WT17     307      MECN     H12      HGA3     0.090000        1.0080           0
     49635 WT17     307      MECN     H13      HGA3     0.090000        1.0080           0
     49636 WT17     307      MECN     C2       CG1N1    0.360000       12.0110           0
     49637 WT17     307      MECN     N3       NG1T1   -0.460000       14.0070           0
     49638 WT17     309      MECN     C1       CG331   -0.170000       12.0110           0
     49639 WT17     309      MECN     H11      HGA3     0.090000        1.0080           0
     49640 WT17     309      MECN     H12      HGA3     0.090000        1.0080           0
     49641 WT17     309      MECN     H13      HGA3     0.090000        1.0080           0
     49642 WT17     309      MECN     C2       CG1N1    0.360000       12.0110           0
     49643 WT17     309      MECN     N3       NG1T1   -0.460000       14.0070           0
     49644 WT17     311      MECN     C1       CG331   -0.170000       12.0110           0
     49645 WT17     311      MECN     H11      HGA3     0.090000        1.0080           0
     49646 WT17     311      MECN     H12      HGA3     0.090000        1.0080           0
     49647 WT17     311      MECN     H13      HGA3     0.090000        1.0080           0
     49648 WT17     311      MECN     C2       CG1N1    0.360000       12.0110           0
     49649 WT17     311      MECN     N3       NG1T1   -0.460000       14.0070           0
     49650 WT17     312      MECN     C1       CG331   -0.170000       12.0110           0
     49651 WT17     312      MECN     H11      HGA3     0.090000        1.0080           0
     49652 WT17     312      MECN     H12      HGA3     0.090000        1.0080           0
     49653 WT17     312      MECN     H13      HGA3     0.090000        1.0080           0
     49654 WT17     312      MECN     C2       CG1N1    0.360000       12.0110           0
     49655 WT17     312      MECN     N3       NG1T1   -0.460000       14.0070           0
     49656 WT17     313      MECN     C1       CG331   -0.170000       12.0110           0
     49657 WT17     313      MECN     H11      HGA3     0.090000        1.0080           0
     49658 WT17     313      MECN     H12      HGA3     0.090000        1.0080           0
     49659 WT17     313      MECN     H13      HGA3     0.090000        1.0080           0
     49660 WT17     313      MECN     C2       CG1N1    0.360000       12.0110           0
     49661 WT17     313      MECN     N3       NG1T1   -0.460000       14.0070           0
     49662 WT17     314      MECN     C1       CG331   -0.170000       12.0110           0
     49663 WT17     314      MECN     H11      HGA3     0.090000        1.0080           0
     49664 WT17     314      MECN     H12      HGA3     0.090000        1.0080           0
     49665 WT17     314      MECN     H13      HGA3     0.090000        1.0080           0
     49666 WT17     314      MECN     C2       CG1N1    0.360000       12.0110           0
     49667 WT17     314      MECN     N3       NG1T1   -0.460000       14.0070           0
     49668 WT17     315      MECN     C1       CG331   -0.170000       12.0110           0
     49669 WT17     315      MECN     H11      HGA3     0.090000        1.0080           0
     49670 WT17     315      MECN     H12      HGA3     0.090000        1.0080           0
     49671 WT17     315      MECN     H13      HGA3     0.090000        1.0080           0
     49672 WT17     315      MECN     C2       CG1N1    0.360000       12.0110           0
     49673 WT17     315      MECN     N3       NG1T1   -0.460000       14.0070           0
     49674 WT17     320      MECN     C1       CG331   -0.170000       12.0110           0
     49675 WT17     320      MECN     H11      HGA3     0.090000        1.0080           0
     49676 WT17     320      MECN     H12      HGA3     0.090000        1.0080           0
     49677 WT17     320      MECN     H13      HGA3     0.090000        1.0080           0
     49678 WT17     320      MECN     C2       CG1N1    0.360000       12.0110           0
     49679 WT17     320      MECN     N3       NG1T1   -0.460000       14.0070           0
     49680 WT17     321      MECN     C1       CG331   -0.170000       12.0110           0
     49681 WT17     321      MECN     H11      HGA3     0.090000        1.0080           0
     49682 WT17     321      MECN     H12      HGA3     0.090000        1.0080           0
     49683 WT17     321      MECN     H13      HGA3     0.090000        1.0080           0
     49684 WT17     321      MECN     C2       CG1N1    0.360000       12.0110           0
     49685 WT17     321      MECN     N3       NG1T1   -0.460000       14.0070           0
     49686 WT17     324      MECN     C1       CG331   -0.170000       12.0110           0
     49687 WT17     324      MECN     H11      HGA3     0.090000        1.0080           0
     49688 WT17     324      MECN     H12      HGA3     0.090000        1.0080           0
     49689 WT17     324      MECN     H13      HGA3     0.090000        1.0080           0
     49690 WT17     324      MECN     C2       CG1N1    0.360000       12.0110           0
     49691 WT17     324      MECN     N3       NG1T1   -0.460000       14.0070           0
     49692 WT17     325      MECN     C1       CG331   -0.170000       12.0110           0
     49693 WT17     325      MECN     H11      HGA3     0.090000        1.0080           0
     49694 WT17     325      MECN     H12      HGA3     0.090000        1.0080           0
     49695 WT17     325      MECN     H13      HGA3     0.090000        1.0080           0
     49696 WT17     325      MECN     C2       CG1N1    0.360000       12.0110           0
     49697 WT17     325      MECN     N3       NG1T1   -0.460000       14.0070           0
     49698 WT17     329      MECN     C1       CG331   -0.170000       12.0110           0
     49699 WT17     329      MECN     H11      HGA3     0.090000        1.0080           0
     49700 WT17     329      MECN     H12      HGA3     0.090000        1.0080           0
     49701 WT17     329      MECN     H13      HGA3     0.090000        1.0080           0
     49702 WT17     329      MECN     C2       CG1N1    0.360000       12.0110           0
     49703 WT17     329      MECN     N3       NG1T1   -0.460000       14.0070           0
     49704 WT17     330      MECN     C1       CG331   -0.170000       12.0110           0
     49705 WT17     330      MECN     H11      HGA3     0.090000        1.0080           0
     49706 WT17     330      MECN     H12      HGA3     0.090000        1.0080           0
     49707 WT17     330      MECN     H13      HGA3     0.090000        1.0080           0
     49708 WT17     330      MECN     C2       CG1N1    0.360000       12.0110           0
     49709 WT17     330      MECN     N3       NG1T1   -0.460000       14.0070           0
     49710 WT17     331      MECN     C1       CG331   -0.170000       12.0110           0
     49711 WT17     331      MECN     H11      HGA3     0.090000        1.0080           0
     49712 WT17     331      MECN     H12      HGA3     0.090000        1.0080           0
     49713 WT17     331      MECN     H13      HGA3     0.090000        1.0080           0
     49714 WT17     331      MECN     C2       CG1N1    0.360000       12.0110           0
     49715 WT17     331      MECN     N3       NG1T1   -0.460000       14.0070           0
     49716 WT17     332      MECN     C1       CG331   -0.170000       12.0110           0
     49717 WT17     332      MECN     H11      HGA3     0.090000        1.0080           0
     49718 WT17     332      MECN     H12      HGA3     0.090000        1.0080           0
     49719 WT17     332      MECN     H13      HGA3     0.090000        1.0080           0
     49720 WT17     332      MECN     C2       CG1N1    0.360000       12.0110           0
     49721 WT17     332      MECN     N3       NG1T1   -0.460000       14.0070           0
     49722 WT17     334      MECN     C1       CG331   -0.170000       12.0110           0
     49723 WT17     334      MECN     H11      HGA3     0.090000        1.0080           0
     49724 WT17     334      MECN     H12      HGA3     0.090000        1.0080           0
     49725 WT17     334      MECN     H13      HGA3     0.090000        1.0080           0
     49726 WT17     334      MECN     C2       CG1N1    0.360000       12.0110           0
     49727 WT17     334      MECN     N3       NG1T1   -0.460000       14.0070           0
     49728 WT17     335      MECN     C1       CG331   -0.170000       12.0110           0
     49729 WT17     335      MECN     H11      HGA3     0.090000        1.0080           0
     49730 WT17     335      MECN     H12      HGA3     0.090000        1.0080           0
     49731 WT17     335      MECN     H13      HGA3     0.090000        1.0080           0
     49732 WT17     335      MECN     C2       CG1N1    0.360000       12.0110           0
     49733 WT17     335      MECN     N3       NG1T1   -0.460000       14.0070           0
     49734 WT17     336      MECN     C1       CG331   -0.170000       12.0110           0
     49735 WT17     336      MECN     H11      HGA3     0.090000        1.0080           0
     49736 WT17     336      MECN     H12      HGA3     0.090000        1.0080           0
     49737 WT17     336      MECN     H13      HGA3     0.090000        1.0080           0
     49738 WT17     336      MECN     C2       CG1N1    0.360000       12.0110           0
     49739 WT17     336      MECN     N3       NG1T1   -0.460000       14.0070           0
     49740 WT17     339      MECN     C1       CG331   -0.170000       12.0110           0
     49741 WT17     339      MECN     H11      HGA3     0.090000        1.0080           0
     49742 WT17     339      MECN     H12      HGA3     0.090000        1.0080           0
     49743 WT17     339      MECN     H13      HGA3     0.090000        1.0080           0
     49744 WT17     339      MECN     C2       CG1N1    0.360000       12.0110           0
     49745 WT17     339      MECN     N3       NG1T1   -0.460000       14.0070           0
     49746 WT17     343      MECN     C1       CG331   -0.170000       12.0110           0
     49747 WT17     343      MECN     H11      HGA3     0.090000        1.0080           0
     49748 WT17     343      MECN     H12      HGA3     0.090000        1.0080           0
     49749 WT17     343      MECN     H13      HGA3     0.090000        1.0080           0
     49750 WT17     343      MECN     C2       CG1N1    0.360000       12.0110           0
     49751 WT17     343      MECN     N3       NG1T1   -0.460000       14.0070           0
     49752 WT17     344      MECN     C1       CG331   -0.170000       12.0110           0
     49753 WT17     344      MECN     H11      HGA3     0.090000        1.0080           0
     49754 WT17     344      MECN     H12      HGA3     0.090000        1.0080           0
     49755 WT17     344      MECN     H13      HGA3     0.090000        1.0080           0
     49756 WT17     344      MECN     C2       CG1N1    0.360000       12.0110           0
     49757 WT17     344      MECN     N3       NG1T1   -0.460000       14.0070           0
     49758 WT17     345      MECN     C1       CG331   -0.170000       12.0110           0
     49759 WT17     345      MECN     H11      HGA3     0.090000        1.0080           0
     49760 WT17     345      MECN     H12      HGA3     0.090000        1.0080           0
     49761 WT17     345      MECN     H13      HGA3     0.090000        1.0080           0
     49762 WT17     345      MECN     C2       CG1N1    0.360000       12.0110           0
     49763 WT17     345      MECN     N3       NG1T1   -0.460000       14.0070           0
     49764 WT17     347      MECN     C1       CG331   -0.170000       12.0110           0
     49765 WT17     347      MECN     H11      HGA3     0.090000        1.0080           0
     49766 WT17     347      MECN     H12      HGA3     0.090000        1.0080           0
     49767 WT17     347      MECN     H13      HGA3     0.090000        1.0080           0
     49768 WT17     347      MECN     C2       CG1N1    0.360000       12.0110           0
     49769 WT17     347      MECN     N3       NG1T1   -0.460000       14.0070           0
     49770 WT17     350      MECN     C1       CG331   -0.170000       12.0110           0
     49771 WT17     350      MECN     H11      HGA3     0.090000        1.0080           0
     49772 WT17     350      MECN     H12      HGA3     0.090000        1.0080           0
     49773 WT17     350      MECN     H13      HGA3     0.090000        1.0080           0
     49774 WT17     350      MECN     C2       CG1N1    0.360000       12.0110           0
     49775 WT17     350      MECN     N3       NG1T1   -0.460000       14.0070           0
     49776 WT17     352      MECN     C1       CG331   -0.170000       12.0110           0
     49777 WT17     352      MECN     H11      HGA3     0.090000        1.0080           0
     49778 WT17     352      MECN     H12      HGA3     0.090000        1.0080           0
     49779 WT17     352      MECN     H13      HGA3     0.090000        1.0080           0
     49780 WT17     352      MECN     C2       CG1N1    0.360000       12.0110           0
     49781 WT17     352      MECN     N3       NG1T1   -0.460000       14.0070           0
     49782 WT17     353      MECN     C1       CG331   -0.170000       12.0110           0
     49783 WT17     353      MECN     H11      HGA3     0.090000        1.0080           0
     49784 WT17     353      MECN     H12      HGA3     0.090000        1.0080           0
     49785 WT17     353      MECN     H13      HGA3     0.090000        1.0080           0
     49786 WT17     353      MECN     C2       CG1N1    0.360000       12.0110           0
     49787 WT17     353      MECN     N3       NG1T1   -0.460000       14.0070           0
     49788 WT17     355      MECN     C1       CG331   -0.170000       12.0110           0
     49789 WT17     355      MECN     H11      HGA3     0.090000        1.0080           0
     49790 WT17     355      MECN     H12      HGA3     0.090000        1.0080           0
     49791 WT17     355      MECN     H13      HGA3     0.090000        1.0080           0
     49792 WT17     355      MECN     C2       CG1N1    0.360000       12.0110           0
     49793 WT17     355      MECN     N3       NG1T1   -0.460000       14.0070           0
     49794 WT17     357      MECN     C1       CG331   -0.170000       12.0110           0
     49795 WT17     357      MECN     H11      HGA3     0.090000        1.0080           0
     49796 WT17     357      MECN     H12      HGA3     0.090000        1.0080           0
     49797 WT17     357      MECN     H13      HGA3     0.090000        1.0080           0
     49798 WT17     357      MECN     C2       CG1N1    0.360000       12.0110           0
     49799 WT17     357      MECN     N3       NG1T1   -0.460000       14.0070           0
     49800 WT17     359      MECN     C1       CG331   -0.170000       12.0110           0
     49801 WT17     359      MECN     H11      HGA3     0.090000        1.0080           0
     49802 WT17     359      MECN     H12      HGA3     0.090000        1.0080           0
     49803 WT17     359      MECN     H13      HGA3     0.090000        1.0080           0
     49804 WT17     359      MECN     C2       CG1N1    0.360000       12.0110           0
     49805 WT17     359      MECN     N3       NG1T1   -0.460000       14.0070           0
     49806 WT17     360      MECN     C1       CG331   -0.170000       12.0110           0
     49807 WT17     360      MECN     H11      HGA3     0.090000        1.0080           0
     49808 WT17     360      MECN     H12      HGA3     0.090000        1.0080           0
     49809 WT17     360      MECN     H13      HGA3     0.090000        1.0080           0
     49810 WT17     360      MECN     C2       CG1N1    0.360000       12.0110           0
     49811 WT17     360      MECN     N3       NG1T1   -0.460000       14.0070           0
     49812 WT17     362      MECN     C1       CG331   -0.170000       12.0110           0
     49813 WT17     362      MECN     H11      HGA3     0.090000        1.0080           0
     49814 WT17     362      MECN     H12      HGA3     0.090000        1.0080           0
     49815 WT17     362      MECN     H13      HGA3     0.090000        1.0080           0
     49816 WT17     362      MECN     C2       CG1N1    0.360000       12.0110           0
     49817 WT17     362      MECN     N3       NG1T1   -0.460000       14.0070           0
     49818 WT17     363      MECN     C1       CG331   -0.170000       12.0110           0
     49819 WT17     363      MECN     H11      HGA3     0.090000        1.0080           0
     49820 WT17     363      MECN     H12      HGA3     0.090000        1.0080           0
     49821 WT17     363      MECN     H13      HGA3     0.090000        1.0080           0
     49822 WT17     363      MECN     C2       CG1N1    0.360000       12.0110           0
     49823 WT17     363      MECN     N3       NG1T1   -0.460000       14.0070           0
     49824 WT17     364      MECN     C1       CG331   -0.170000       12.0110           0
     49825 WT17     364      MECN     H11      HGA3     0.090000        1.0080           0
     49826 WT17     364      MECN     H12      HGA3     0.090000        1.0080           0
     49827 WT17     364      MECN     H13      HGA3     0.090000        1.0080           0
     49828 WT17     364      MECN     C2       CG1N1    0.360000       12.0110           0
     49829 WT17     364      MECN     N3       NG1T1   -0.460000       14.0070           0
     49830 WT17     365      MECN     C1       CG331   -0.170000       12.0110           0
     49831 WT17     365      MECN     H11      HGA3     0.090000        1.0080           0
     49832 WT17     365      MECN     H12      HGA3     0.090000        1.0080           0
     49833 WT17     365      MECN     H13      HGA3     0.090000        1.0080           0
     49834 WT17     365      MECN     C2       CG1N1    0.360000       12.0110           0
     49835 WT17     365      MECN     N3       NG1T1   -0.460000       14.0070           0
     49836 WT17     366      MECN     C1       CG331   -0.170000       12.0110           0
     49837 WT17     366      MECN     H11      HGA3     0.090000        1.0080           0
     49838 WT17     366      MECN     H12      HGA3     0.090000        1.0080           0
     49839 WT17     366      MECN     H13      HGA3     0.090000        1.0080           0
     49840 WT17     366      MECN     C2       CG1N1    0.360000       12.0110           0
     49841 WT17     366      MECN     N3       NG1T1   -0.460000       14.0070           0
     49842 WT17     368      MECN     C1       CG331   -0.170000       12.0110           0
     49843 WT17     368      MECN     H11      HGA3     0.090000        1.0080           0
     49844 WT17     368      MECN     H12      HGA3     0.090000        1.0080           0
     49845 WT17     368      MECN     H13      HGA3     0.090000        1.0080           0
     49846 WT17     368      MECN     C2       CG1N1    0.360000       12.0110           0
     49847 WT17     368      MECN     N3       NG1T1   -0.460000       14.0070           0
     49848 WT17     370      MECN     C1       CG331   -0.170000       12.0110           0
     49849 WT17     370      MECN     H11      HGA3     0.090000        1.0080           0
     49850 WT17     370      MECN     H12      HGA3     0.090000        1.0080           0
     49851 WT17     370      MECN     H13      HGA3     0.090000        1.0080           0
     49852 WT17     370      MECN     C2       CG1N1    0.360000       12.0110           0
     49853 WT17     370      MECN     N3       NG1T1   -0.460000       14.0070           0
     49854 WT17     372      MECN     C1       CG331   -0.170000       12.0110           0
     49855 WT17     372      MECN     H11      HGA3     0.090000        1.0080           0
     49856 WT17     372      MECN     H12      HGA3     0.090000        1.0080           0
     49857 WT17     372      MECN     H13      HGA3     0.090000        1.0080           0
     49858 WT17     372      MECN     C2       CG1N1    0.360000       12.0110           0
     49859 WT17     372      MECN     N3       NG1T1   -0.460000       14.0070           0
     49860 WT17     374      MECN     C1       CG331   -0.170000       12.0110           0
     49861 WT17     374      MECN     H11      HGA3     0.090000        1.0080           0
     49862 WT17     374      MECN     H12      HGA3     0.090000        1.0080           0
     49863 WT17     374      MECN     H13      HGA3     0.090000        1.0080           0
     49864 WT17     374      MECN     C2       CG1N1    0.360000       12.0110           0
     49865 WT17     374      MECN     N3       NG1T1   -0.460000       14.0070           0
     49866 WT17     375      MECN     C1       CG331   -0.170000       12.0110           0
     49867 WT17     375      MECN     H11      HGA3     0.090000        1.0080           0
     49868 WT17     375      MECN     H12      HGA3     0.090000        1.0080           0
     49869 WT17     375      MECN     H13      HGA3     0.090000        1.0080           0
     49870 WT17     375      MECN     C2       CG1N1    0.360000       12.0110           0
     49871 WT17     375      MECN     N3       NG1T1   -0.460000       14.0070           0
     49872 WT17     376      MECN     C1       CG331   -0.170000       12.0110           0
     49873 WT17     376      MECN     H11      HGA3     0.090000        1.0080           0
     49874 WT17     376      MECN     H12      HGA3     0.090000        1.0080           0
     49875 WT17     376      MECN     H13      HGA3     0.090000        1.0080           0
     49876 WT17     376      MECN     C2       CG1N1    0.360000       12.0110           0
     49877 WT17     376      MECN     N3       NG1T1   -0.460000       14.0070           0
     49878 WT17     377      MECN     C1       CG331   -0.170000       12.0110           0
     49879 WT17     377      MECN     H11      HGA3     0.090000        1.0080           0
     49880 WT17     377      MECN     H12      HGA3     0.090000        1.0080           0
     49881 WT17     377      MECN     H13      HGA3     0.090000        1.0080           0
     49882 WT17     377      MECN     C2       CG1N1    0.360000       12.0110           0
     49883 WT17     377      MECN     N3       NG1T1   -0.460000       14.0070           0
     49884 WT17     378      MECN     C1       CG331   -0.170000       12.0110           0
     49885 WT17     378      MECN     H11      HGA3     0.090000        1.0080           0
     49886 WT17     378      MECN     H12      HGA3     0.090000        1.0080           0
     49887 WT17     378      MECN     H13      HGA3     0.090000        1.0080           0
     49888 WT17     378      MECN     C2       CG1N1    0.360000       12.0110           0
     49889 WT17     378      MECN     N3       NG1T1   -0.460000       14.0070           0
     49890 WT17     379      MECN     C1       CG331   -0.170000       12.0110           0
     49891 WT17     379      MECN     H11      HGA3     0.090000        1.0080           0
     49892 WT17     379      MECN     H12      HGA3     0.090000        1.0080           0
     49893 WT17     379      MECN     H13      HGA3     0.090000        1.0080           0
     49894 WT17     379      MECN     C2       CG1N1    0.360000       12.0110           0
     49895 WT17     379      MECN     N3       NG1T1   -0.460000       14.0070           0
     49896 WT17     380      MECN     C1       CG331   -0.170000       12.0110           0
     49897 WT17     380      MECN     H11      HGA3     0.090000        1.0080           0
     49898 WT17     380      MECN     H12      HGA3     0.090000        1.0080           0
     49899 WT17     380      MECN     H13      HGA3     0.090000        1.0080           0
     49900 WT17     380      MECN     C2       CG1N1    0.360000       12.0110           0
     49901 WT17     380      MECN     N3       NG1T1   -0.460000       14.0070           0
     49902 WT17     381      MECN     C1       CG331   -0.170000       12.0110           0
     49903 WT17     381      MECN     H11      HGA3     0.090000        1.0080           0
     49904 WT17     381      MECN     H12      HGA3     0.090000        1.0080           0
     49905 WT17     381      MECN     H13      HGA3     0.090000        1.0080           0
     49906 WT17     381      MECN     C2       CG1N1    0.360000       12.0110           0
     49907 WT17     381      MECN     N3       NG1T1   -0.460000       14.0070           0
     49908 WT17     382      MECN     C1       CG331   -0.170000       12.0110           0
     49909 WT17     382      MECN     H11      HGA3     0.090000        1.0080           0
     49910 WT17     382      MECN     H12      HGA3     0.090000        1.0080           0
     49911 WT17     382      MECN     H13      HGA3     0.090000        1.0080           0
     49912 WT17     382      MECN     C2       CG1N1    0.360000       12.0110           0
     49913 WT17     382      MECN     N3       NG1T1   -0.460000       14.0070           0
     49914 WT17     383      MECN     C1       CG331   -0.170000       12.0110           0
     49915 WT17     383      MECN     H11      HGA3     0.090000        1.0080           0
     49916 WT17     383      MECN     H12      HGA3     0.090000        1.0080           0
     49917 WT17     383      MECN     H13      HGA3     0.090000        1.0080           0
     49918 WT17     383      MECN     C2       CG1N1    0.360000       12.0110           0
     49919 WT17     383      MECN     N3       NG1T1   -0.460000       14.0070           0
     49920 WT17     384      MECN     C1       CG331   -0.170000       12.0110           0
     49921 WT17     384      MECN     H11      HGA3     0.090000        1.0080           0
     49922 WT17     384      MECN     H12      HGA3     0.090000        1.0080           0
     49923 WT17     384      MECN     H13      HGA3     0.090000        1.0080           0
     49924 WT17     384      MECN     C2       CG1N1    0.360000       12.0110           0
     49925 WT17     384      MECN     N3       NG1T1   -0.460000       14.0070           0
     49926 WT17     386      MECN     C1       CG331   -0.170000       12.0110           0
     49927 WT17     386      MECN     H11      HGA3     0.090000        1.0080           0
     49928 WT17     386      MECN     H12      HGA3     0.090000        1.0080           0
     49929 WT17     386      MECN     H13      HGA3     0.090000        1.0080           0
     49930 WT17     386      MECN     C2       CG1N1    0.360000       12.0110           0
     49931 WT17     386      MECN     N3       NG1T1   -0.460000       14.0070           0
     49932 WT17     389      MECN     C1       CG331   -0.170000       12.0110           0
     49933 WT17     389      MECN     H11      HGA3     0.090000        1.0080           0
     49934 WT17     389      MECN     H12      HGA3     0.090000        1.0080           0
     49935 WT17     389      MECN     H13      HGA3     0.090000        1.0080           0
     49936 WT17     389      MECN     C2       CG1N1    0.360000       12.0110           0
     49937 WT17     389      MECN     N3       NG1T1   -0.460000       14.0070           0
     49938 WT17     390      MECN     C1       CG331   -0.170000       12.0110           0
     49939 WT17     390      MECN     H11      HGA3     0.090000        1.0080           0
     49940 WT17     390      MECN     H12      HGA3     0.090000        1.0080           0
     49941 WT17     390      MECN     H13      HGA3     0.090000        1.0080           0
     49942 WT17     390      MECN     C2       CG1N1    0.360000       12.0110           0
     49943 WT17     390      MECN     N3       NG1T1   -0.460000       14.0070           0
     49944 WT17     392      MECN     C1       CG331   -0.170000       12.0110           0
     49945 WT17     392      MECN     H11      HGA3     0.090000        1.0080           0
     49946 WT17     392      MECN     H12      HGA3     0.090000        1.0080           0
     49947 WT17     392      MECN     H13      HGA3     0.090000        1.0080           0
     49948 WT17     392      MECN     C2       CG1N1    0.360000       12.0110           0
     49949 WT17     392      MECN     N3       NG1T1   -0.460000       14.0070           0
     49950 WT17     393      MECN     C1       CG331   -0.170000       12.0110           0
     49951 WT17     393      MECN     H11      HGA3     0.090000        1.0080           0
     49952 WT17     393      MECN     H12      HGA3     0.090000        1.0080           0
     49953 WT17     393      MECN     H13      HGA3     0.090000        1.0080           0
     49954 WT17     393      MECN     C2       CG1N1    0.360000       12.0110           0
     49955 WT17     393      MECN     N3       NG1T1   -0.460000       14.0070           0
     49956 WT17     394      MECN     C1       CG331   -0.170000       12.0110           0
     49957 WT17     394      MECN     H11      HGA3     0.090000        1.0080           0
     49958 WT17     394      MECN     H12      HGA3     0.090000        1.0080           0
     49959 WT17     394      MECN     H13      HGA3     0.090000        1.0080           0
     49960 WT17     394      MECN     C2       CG1N1    0.360000       12.0110           0
     49961 WT17     394      MECN     N3       NG1T1   -0.460000       14.0070           0
     49962 WT17     396      MECN     C1       CG331   -0.170000       12.0110           0
     49963 WT17     396      MECN     H11      HGA3     0.090000        1.0080           0
     49964 WT17     396      MECN     H12      HGA3     0.090000        1.0080           0
     49965 WT17     396      MECN     H13      HGA3     0.090000        1.0080           0
     49966 WT17     396      MECN     C2       CG1N1    0.360000       12.0110           0
     49967 WT17     396      MECN     N3       NG1T1   -0.460000       14.0070           0
     49968 WT17     397      MECN     C1       CG331   -0.170000       12.0110           0
     49969 WT17     397      MECN     H11      HGA3     0.090000        1.0080           0
     49970 WT17     397      MECN     H12      HGA3     0.090000        1.0080           0
     49971 WT17     397      MECN     H13      HGA3     0.090000        1.0080           0
     49972 WT17     397      MECN     C2       CG1N1    0.360000       12.0110           0
     49973 WT17     397      MECN     N3       NG1T1   -0.460000       14.0070           0
     49974 WT17     398      MECN     C1       CG331   -0.170000       12.0110           0
     49975 WT17     398      MECN     H11      HGA3     0.090000        1.0080           0
     49976 WT17     398      MECN     H12      HGA3     0.090000        1.0080           0
     49977 WT17     398      MECN     H13      HGA3     0.090000        1.0080           0
     49978 WT17     398      MECN     C2       CG1N1    0.360000       12.0110           0
     49979 WT17     398      MECN     N3       NG1T1   -0.460000       14.0070           0
     49980 WT17     399      MECN     C1       CG331   -0.170000       12.0110           0
     49981 WT17     399      MECN     H11      HGA3     0.090000        1.0080           0
     49982 WT17     399      MECN     H12      HGA3     0.090000        1.0080           0
     49983 WT17     399      MECN     H13      HGA3     0.090000        1.0080           0
     49984 WT17     399      MECN     C2       CG1N1    0.360000       12.0110           0
     49985 WT17     399      MECN     N3       NG1T1   -0.460000       14.0070           0
     49986 WT17     400      MECN     C1       CG331   -0.170000       12.0110           0
     49987 WT17     400      MECN     H11      HGA3     0.090000        1.0080           0
     49988 WT17     400      MECN     H12      HGA3     0.090000        1.0080           0
     49989 WT17     400      MECN     H13      HGA3     0.090000        1.0080           0
     49990 WT17     400      MECN     C2       CG1N1    0.360000       12.0110           0
     49991 WT17     400      MECN     N3       NG1T1   -0.460000       14.0070           0
     49992 WT17     402      MECN     C1       CG331   -0.170000       12.0110           0
     49993 WT17     402      MECN     H11      HGA3     0.090000        1.0080           0
     49994 WT17     402      MECN     H12      HGA3     0.090000        1.0080           0
     49995 WT17     402      MECN     H13      HGA3     0.090000        1.0080           0
     49996 WT17     402      MECN     C2       CG1N1    0.360000       12.0110           0
     49997 WT17     402      MECN     N3       NG1T1   -0.460000       14.0070           0
     49998 WT17     404      MECN     C1       CG331   -0.170000       12.0110           0
     49999 WT17     404      MECN     H11      HGA3     0.090000        1.0080           0
     50000 WT17     404      MECN     H12      HGA3     0.090000        1.0080           0
     50001 WT17     404      MECN     H13      HGA3     0.090000        1.0080           0
     50002 WT17     404      MECN     C2       CG1N1    0.360000       12.0110           0
     50003 WT17     404      MECN     N3       NG1T1   -0.460000       14.0070           0
     50004 WT17     405      MECN     C1       CG331   -0.170000       12.0110           0
     50005 WT17     405      MECN     H11      HGA3     0.090000        1.0080           0
     50006 WT17     405      MECN     H12      HGA3     0.090000        1.0080           0
     50007 WT17     405      MECN     H13      HGA3     0.090000        1.0080           0
     50008 WT17     405      MECN     C2       CG1N1    0.360000       12.0110           0
     50009 WT17     405      MECN     N3       NG1T1   -0.460000       14.0070           0
     50010 WT17     407      MECN     C1       CG331   -0.170000       12.0110           0
     50011 WT17     407      MECN     H11      HGA3     0.090000        1.0080           0
     50012 WT17     407      MECN     H12      HGA3     0.090000        1.0080           0
     50013 WT17     407      MECN     H13      HGA3     0.090000        1.0080           0
     50014 WT17     407      MECN     C2       CG1N1    0.360000       12.0110           0
     50015 WT17     407      MECN     N3       NG1T1   -0.460000       14.0070           0
     50016 WT17     409      MECN     C1       CG331   -0.170000       12.0110           0
     50017 WT17     409      MECN     H11      HGA3     0.090000        1.0080           0
     50018 WT17     409      MECN     H12      HGA3     0.090000        1.0080           0
     50019 WT17     409      MECN     H13      HGA3     0.090000        1.0080           0
     50020 WT17     409      MECN     C2       CG1N1    0.360000       12.0110           0
     50021 WT17     409      MECN     N3       NG1T1   -0.460000       14.0070           0
     50022 WT17     411      MECN     C1       CG331   -0.170000       12.0110           0
     50023 WT17     411      MECN     H11      HGA3     0.090000        1.0080           0
     50024 WT17     411      MECN     H12      HGA3     0.090000        1.0080           0
     50025 WT17     411      MECN     H13      HGA3     0.090000        1.0080           0
     50026 WT17     411      MECN     C2       CG1N1    0.360000       12.0110           0
     50027 WT17     411      MECN     N3       NG1T1   -0.460000       14.0070           0
     50028 WT17     412      MECN     C1       CG331   -0.170000       12.0110           0
     50029 WT17     412      MECN     H11      HGA3     0.090000        1.0080           0
     50030 WT17     412      MECN     H12      HGA3     0.090000        1.0080           0
     50031 WT17     412      MECN     H13      HGA3     0.090000        1.0080           0
     50032 WT17     412      MECN     C2       CG1N1    0.360000       12.0110           0
     50033 WT17     412      MECN     N3       NG1T1   -0.460000       14.0070           0
     50034 WT17     413      MECN     C1       CG331   -0.170000       12.0110           0
     50035 WT17     413      MECN     H11      HGA3     0.090000        1.0080           0
     50036 WT17     413      MECN     H12      HGA3     0.090000        1.0080           0
     50037 WT17     413      MECN     H13      HGA3     0.090000        1.0080           0
     50038 WT17     413      MECN     C2       CG1N1    0.360000       12.0110           0
     50039 WT17     413      MECN     N3       NG1T1   -0.460000       14.0070           0
     50040 WT17     417      MECN     C1       CG331   -0.170000       12.0110           0
     50041 WT17     417      MECN     H11      HGA3     0.090000        1.0080           0
     50042 WT17     417      MECN     H12      HGA3     0.090000        1.0080           0
     50043 WT17     417      MECN     H13      HGA3     0.090000        1.0080           0
     50044 WT17     417      MECN     C2       CG1N1    0.360000       12.0110           0
     50045 WT17     417      MECN     N3       NG1T1   -0.460000       14.0070           0
     50046 WT17     419      MECN     C1       CG331   -0.170000       12.0110           0
     50047 WT17     419      MECN     H11      HGA3     0.090000        1.0080           0
     50048 WT17     419      MECN     H12      HGA3     0.090000        1.0080           0
     50049 WT17     419      MECN     H13      HGA3     0.090000        1.0080           0
     50050 WT17     419      MECN     C2       CG1N1    0.360000       12.0110           0
     50051 WT17     419      MECN     N3       NG1T1   -0.460000       14.0070           0
     50052 WT17     422      MECN     C1       CG331   -0.170000       12.0110           0
     50053 WT17     422      MECN     H11      HGA3     0.090000        1.0080           0
     50054 WT17     422      MECN     H12      HGA3     0.090000        1.0080           0
     50055 WT17     422      MECN     H13      HGA3     0.090000        1.0080           0
     50056 WT17     422      MECN     C2       CG1N1    0.360000       12.0110           0
     50057 WT17     422      MECN     N3       NG1T1   -0.460000       14.0070           0
     50058 WT17     423      MECN     C1       CG331   -0.170000       12.0110           0
     50059 WT17     423      MECN     H11      HGA3     0.090000        1.0080           0
     50060 WT17     423      MECN     H12      HGA3     0.090000        1.0080           0
     50061 WT17     423      MECN     H13      HGA3     0.090000        1.0080           0
     50062 WT17     423      MECN     C2       CG1N1    0.360000       12.0110           0
     50063 WT17     423      MECN     N3       NG1T1   -0.460000       14.0070           0
     50064 WT17     424      MECN     C1       CG331   -0.170000       12.0110           0
     50065 WT17     424      MECN     H11      HGA3     0.090000        1.0080           0
     50066 WT17     424      MECN     H12      HGA3     0.090000        1.0080           0
     50067 WT17     424      MECN     H13      HGA3     0.090000        1.0080           0
     50068 WT17     424      MECN     C2       CG1N1    0.360000       12.0110           0
     50069 WT17     424      MECN     N3       NG1T1   -0.460000       14.0070           0
     50070 WT17     425      MECN     C1       CG331   -0.170000       12.0110           0
     50071 WT17     425      MECN     H11      HGA3     0.090000        1.0080           0
     50072 WT17     425      MECN     H12      HGA3     0.090000        1.0080           0
     50073 WT17     425      MECN     H13      HGA3     0.090000        1.0080           0
     50074 WT17     425      MECN     C2       CG1N1    0.360000       12.0110           0
     50075 WT17     425      MECN     N3       NG1T1   -0.460000       14.0070           0
     50076 WT17     426      MECN     C1       CG331   -0.170000       12.0110           0
     50077 WT17     426      MECN     H11      HGA3     0.090000        1.0080           0
     50078 WT17     426      MECN     H12      HGA3     0.090000        1.0080           0
     50079 WT17     426      MECN     H13      HGA3     0.090000        1.0080           0
     50080 WT17     426      MECN     C2       CG1N1    0.360000       12.0110           0
     50081 WT17     426      MECN     N3       NG1T1   -0.460000       14.0070           0
     50082 WT17     428      MECN     C1       CG331   -0.170000       12.0110           0
     50083 WT17     428      MECN     H11      HGA3     0.090000        1.0080           0
     50084 WT17     428      MECN     H12      HGA3     0.090000        1.0080           0
     50085 WT17     428      MECN     H13      HGA3     0.090000        1.0080           0
     50086 WT17     428      MECN     C2       CG1N1    0.360000       12.0110           0
     50087 WT17     428      MECN     N3       NG1T1   -0.460000       14.0070           0
     50088 WT17     429      MECN     C1       CG331   -0.170000       12.0110           0
     50089 WT17     429      MECN     H11      HGA3     0.090000        1.0080           0
     50090 WT17     429      MECN     H12      HGA3     0.090000        1.0080           0
     50091 WT17     429      MECN     H13      HGA3     0.090000        1.0080           0
     50092 WT17     429      MECN     C2       CG1N1    0.360000       12.0110           0
     50093 WT17     429      MECN     N3       NG1T1   -0.460000       14.0070           0
     50094 WT17     431      MECN     C1       CG331   -0.170000       12.0110           0
     50095 WT17     431      MECN     H11      HGA3     0.090000        1.0080           0
     50096 WT17     431      MECN     H12      HGA3     0.090000        1.0080           0
     50097 WT17     431      MECN     H13      HGA3     0.090000        1.0080           0
     50098 WT17     431      MECN     C2       CG1N1    0.360000       12.0110           0
     50099 WT17     431      MECN     N3       NG1T1   -0.460000       14.0070           0
     50100 WT17     432      MECN     C1       CG331   -0.170000       12.0110           0
     50101 WT17     432      MECN     H11      HGA3     0.090000        1.0080           0
     50102 WT17     432      MECN     H12      HGA3     0.090000        1.0080           0
     50103 WT17     432      MECN     H13      HGA3     0.090000        1.0080           0
     50104 WT17     432      MECN     C2       CG1N1    0.360000       12.0110           0
     50105 WT17     432      MECN     N3       NG1T1   -0.460000       14.0070           0
     50106 WT17     433      MECN     C1       CG331   -0.170000       12.0110           0
     50107 WT17     433      MECN     H11      HGA3     0.090000        1.0080           0
     50108 WT17     433      MECN     H12      HGA3     0.090000        1.0080           0
     50109 WT17     433      MECN     H13      HGA3     0.090000        1.0080           0
     50110 WT17     433      MECN     C2       CG1N1    0.360000       12.0110           0
     50111 WT17     433      MECN     N3       NG1T1   -0.460000       14.0070           0
     50112 WT17     434      MECN     C1       CG331   -0.170000       12.0110           0
     50113 WT17     434      MECN     H11      HGA3     0.090000        1.0080           0
     50114 WT17     434      MECN     H12      HGA3     0.090000        1.0080           0
     50115 WT17     434      MECN     H13      HGA3     0.090000        1.0080           0
     50116 WT17     434      MECN     C2       CG1N1    0.360000       12.0110           0
     50117 WT17     434      MECN     N3       NG1T1   -0.460000       14.0070           0
     50118 WT17     435      MECN     C1       CG331   -0.170000       12.0110           0
     50119 WT17     435      MECN     H11      HGA3     0.090000        1.0080           0
     50120 WT17     435      MECN     H12      HGA3     0.090000        1.0080           0
     50121 WT17     435      MECN     H13      HGA3     0.090000        1.0080           0
     50122 WT17     435      MECN     C2       CG1N1    0.360000       12.0110           0
     50123 WT17     435      MECN     N3       NG1T1   -0.460000       14.0070           0
     50124 WT17     437      MECN     C1       CG331   -0.170000       12.0110           0
     50125 WT17     437      MECN     H11      HGA3     0.090000        1.0080           0
     50126 WT17     437      MECN     H12      HGA3     0.090000        1.0080           0
     50127 WT17     437      MECN     H13      HGA3     0.090000        1.0080           0
     50128 WT17     437      MECN     C2       CG1N1    0.360000       12.0110           0
     50129 WT17     437      MECN     N3       NG1T1   -0.460000       14.0070           0
     50130 WT17     438      MECN     C1       CG331   -0.170000       12.0110           0
     50131 WT17     438      MECN     H11      HGA3     0.090000        1.0080           0
     50132 WT17     438      MECN     H12      HGA3     0.090000        1.0080           0
     50133 WT17     438      MECN     H13      HGA3     0.090000        1.0080           0
     50134 WT17     438      MECN     C2       CG1N1    0.360000       12.0110           0
     50135 WT17     438      MECN     N3       NG1T1   -0.460000       14.0070           0
     50136 WT17     441      MECN     C1       CG331   -0.170000       12.0110           0
     50137 WT17     441      MECN     H11      HGA3     0.090000        1.0080           0
     50138 WT17     441      MECN     H12      HGA3     0.090000        1.0080           0
     50139 WT17     441      MECN     H13      HGA3     0.090000        1.0080           0
     50140 WT17     441      MECN     C2       CG1N1    0.360000       12.0110           0
     50141 WT17     441      MECN     N3       NG1T1   -0.460000       14.0070           0
     50142 WT17     442      MECN     C1       CG331   -0.170000       12.0110           0
     50143 WT17     442      MECN     H11      HGA3     0.090000        1.0080           0
     50144 WT17     442      MECN     H12      HGA3     0.090000        1.0080           0
     50145 WT17     442      MECN     H13      HGA3     0.090000        1.0080           0
     50146 WT17     442      MECN     C2       CG1N1    0.360000       12.0110           0
     50147 WT17     442      MECN     N3       NG1T1   -0.460000       14.0070           0
     50148 WT17     443      MECN     C1       CG331   -0.170000       12.0110           0
     50149 WT17     443      MECN     H11      HGA3     0.090000        1.0080           0
     50150 WT17     443      MECN     H12      HGA3     0.090000        1.0080           0
     50151 WT17     443      MECN     H13      HGA3     0.090000        1.0080           0
     50152 WT17     443      MECN     C2       CG1N1    0.360000       12.0110           0
     50153 WT17     443      MECN     N3       NG1T1   -0.460000       14.0070           0
     50154 WT17     444      MECN     C1       CG331   -0.170000       12.0110           0
     50155 WT17     444      MECN     H11      HGA3     0.090000        1.0080           0
     50156 WT17     444      MECN     H12      HGA3     0.090000        1.0080           0
     50157 WT17     444      MECN     H13      HGA3     0.090000        1.0080           0
     50158 WT17     444      MECN     C2       CG1N1    0.360000       12.0110           0
     50159 WT17     444      MECN     N3       NG1T1   -0.460000       14.0070           0
     50160 WT17     446      MECN     C1       CG331   -0.170000       12.0110           0
     50161 WT17     446      MECN     H11      HGA3     0.090000        1.0080           0
     50162 WT17     446      MECN     H12      HGA3     0.090000        1.0080           0
     50163 WT17     446      MECN     H13      HGA3     0.090000        1.0080           0
     50164 WT17     446      MECN     C2       CG1N1    0.360000       12.0110           0
     50165 WT17     446      MECN     N3       NG1T1   -0.460000       14.0070           0
     50166 WT17     447      MECN     C1       CG331   -0.170000       12.0110           0
     50167 WT17     447      MECN     H11      HGA3     0.090000        1.0080           0
     50168 WT17     447      MECN     H12      HGA3     0.090000        1.0080           0
     50169 WT17     447      MECN     H13      HGA3     0.090000        1.0080           0
     50170 WT17     447      MECN     C2       CG1N1    0.360000       12.0110           0
     50171 WT17     447      MECN     N3       NG1T1   -0.460000       14.0070           0
     50172 WT17     448      MECN     C1       CG331   -0.170000       12.0110           0
     50173 WT17     448      MECN     H11      HGA3     0.090000        1.0080           0
     50174 WT17     448      MECN     H12      HGA3     0.090000        1.0080           0
     50175 WT17     448      MECN     H13      HGA3     0.090000        1.0080           0
     50176 WT17     448      MECN     C2       CG1N1    0.360000       12.0110           0
     50177 WT17     448      MECN     N3       NG1T1   -0.460000       14.0070           0
     50178 WT17     452      MECN     C1       CG331   -0.170000       12.0110           0
     50179 WT17     452      MECN     H11      HGA3     0.090000        1.0080           0
     50180 WT17     452      MECN     H12      HGA3     0.090000        1.0080           0
     50181 WT17     452      MECN     H13      HGA3     0.090000        1.0080           0
     50182 WT17     452      MECN     C2       CG1N1    0.360000       12.0110           0
     50183 WT17     452      MECN     N3       NG1T1   -0.460000       14.0070           0
     50184 WT17     453      MECN     C1       CG331   -0.170000       12.0110           0
     50185 WT17     453      MECN     H11      HGA3     0.090000        1.0080           0
     50186 WT17     453      MECN     H12      HGA3     0.090000        1.0080           0
     50187 WT17     453      MECN     H13      HGA3     0.090000        1.0080           0
     50188 WT17     453      MECN     C2       CG1N1    0.360000       12.0110           0
     50189 WT17     453      MECN     N3       NG1T1   -0.460000       14.0070           0
     50190 WT17     459      MECN     C1       CG331   -0.170000       12.0110           0
     50191 WT17     459      MECN     H11      HGA3     0.090000        1.0080           0
     50192 WT17     459      MECN     H12      HGA3     0.090000        1.0080           0
     50193 WT17     459      MECN     H13      HGA3     0.090000        1.0080           0
     50194 WT17     459      MECN     C2       CG1N1    0.360000       12.0110           0
     50195 WT17     459      MECN     N3       NG1T1   -0.460000       14.0070           0
     50196 WT17     460      MECN     C1       CG331   -0.170000       12.0110           0
     50197 WT17     460      MECN     H11      HGA3     0.090000        1.0080           0
     50198 WT17     460      MECN     H12      HGA3     0.090000        1.0080           0
     50199 WT17     460      MECN     H13      HGA3     0.090000        1.0080           0
     50200 WT17     460      MECN     C2       CG1N1    0.360000       12.0110           0
     50201 WT17     460      MECN     N3       NG1T1   -0.460000       14.0070           0
     50202 WT17     462      MECN     C1       CG331   -0.170000       12.0110           0
     50203 WT17     462      MECN     H11      HGA3     0.090000        1.0080           0
     50204 WT17     462      MECN     H12      HGA3     0.090000        1.0080           0
     50205 WT17     462      MECN     H13      HGA3     0.090000        1.0080           0
     50206 WT17     462      MECN     C2       CG1N1    0.360000       12.0110           0
     50207 WT17     462      MECN     N3       NG1T1   -0.460000       14.0070           0
     50208 WT17     463      MECN     C1       CG331   -0.170000       12.0110           0
     50209 WT17     463      MECN     H11      HGA3     0.090000        1.0080           0
     50210 WT17     463      MECN     H12      HGA3     0.090000        1.0080           0
     50211 WT17     463      MECN     H13      HGA3     0.090000        1.0080           0
     50212 WT17     463      MECN     C2       CG1N1    0.360000       12.0110           0
     50213 WT17     463      MECN     N3       NG1T1   -0.460000       14.0070           0
     50214 WT17     465      MECN     C1       CG331   -0.170000       12.0110           0
     50215 WT17     465      MECN     H11      HGA3     0.090000        1.0080           0
     50216 WT17     465      MECN     H12      HGA3     0.090000        1.0080           0
     50217 WT17     465      MECN     H13      HGA3     0.090000        1.0080           0
     50218 WT17     465      MECN     C2       CG1N1    0.360000       12.0110           0
     50219 WT17     465      MECN     N3       NG1T1   -0.460000       14.0070           0
     50220 WT17     466      MECN     C1       CG331   -0.170000       12.0110           0
     50221 WT17     466      MECN     H11      HGA3     0.090000        1.0080           0
     50222 WT17     466      MECN     H12      HGA3     0.090000        1.0080           0
     50223 WT17     466      MECN     H13      HGA3     0.090000        1.0080           0
     50224 WT17     466      MECN     C2       CG1N1    0.360000       12.0110           0
     50225 WT17     466      MECN     N3       NG1T1   -0.460000       14.0070           0
     50226 WT17     469      MECN     C1       CG331   -0.170000       12.0110           0
     50227 WT17     469      MECN     H11      HGA3     0.090000        1.0080           0
     50228 WT17     469      MECN     H12      HGA3     0.090000        1.0080           0
     50229 WT17     469      MECN     H13      HGA3     0.090000        1.0080           0
     50230 WT17     469      MECN     C2       CG1N1    0.360000       12.0110           0
     50231 WT17     469      MECN     N3       NG1T1   -0.460000       14.0070           0
     50232 WT17     473      MECN     C1       CG331   -0.170000       12.0110           0
     50233 WT17     473      MECN     H11      HGA3     0.090000        1.0080           0
     50234 WT17     473      MECN     H12      HGA3     0.090000        1.0080           0
     50235 WT17     473      MECN     H13      HGA3     0.090000        1.0080           0
     50236 WT17     473      MECN     C2       CG1N1    0.360000       12.0110           0
     50237 WT17     473      MECN     N3       NG1T1   -0.460000       14.0070           0
     50238 WT17     474      MECN     C1       CG331   -0.170000       12.0110           0
     50239 WT17     474      MECN     H11      HGA3     0.090000        1.0080           0
     50240 WT17     474      MECN     H12      HGA3     0.090000        1.0080           0
     50241 WT17     474      MECN     H13      HGA3     0.090000        1.0080           0
     50242 WT17     474      MECN     C2       CG1N1    0.360000       12.0110           0
     50243 WT17     474      MECN     N3       NG1T1   -0.460000       14.0070           0
     50244 WT17     476      MECN     C1       CG331   -0.170000       12.0110           0
     50245 WT17     476      MECN     H11      HGA3     0.090000        1.0080           0
     50246 WT17     476      MECN     H12      HGA3     0.090000        1.0080           0
     50247 WT17     476      MECN     H13      HGA3     0.090000        1.0080           0
     50248 WT17     476      MECN     C2       CG1N1    0.360000       12.0110           0
     50249 WT17     476      MECN     N3       NG1T1   -0.460000       14.0070           0
     50250 WT17     478      MECN     C1       CG331   -0.170000       12.0110           0
     50251 WT17     478      MECN     H11      HGA3     0.090000        1.0080           0
     50252 WT17     478      MECN     H12      HGA3     0.090000        1.0080           0
     50253 WT17     478      MECN     H13      HGA3     0.090000        1.0080           0
     50254 WT17     478      MECN     C2       CG1N1    0.360000       12.0110           0
     50255 WT17     478      MECN     N3       NG1T1   -0.460000       14.0070           0
     50256 WT17     479      MECN     C1       CG331   -0.170000       12.0110           0
     50257 WT17     479      MECN     H11      HGA3     0.090000        1.0080           0
     50258 WT17     479      MECN     H12      HGA3     0.090000        1.0080           0
     50259 WT17     479      MECN     H13      HGA3     0.090000        1.0080           0
     50260 WT17     479      MECN     C2       CG1N1    0.360000       12.0110           0
     50261 WT17     479      MECN     N3       NG1T1   -0.460000       14.0070           0
     50262 WT17     481      MECN     C1       CG331   -0.170000       12.0110           0
     50263 WT17     481      MECN     H11      HGA3     0.090000        1.0080           0
     50264 WT17     481      MECN     H12      HGA3     0.090000        1.0080           0
     50265 WT17     481      MECN     H13      HGA3     0.090000        1.0080           0
     50266 WT17     481      MECN     C2       CG1N1    0.360000       12.0110           0
     50267 WT17     481      MECN     N3       NG1T1   -0.460000       14.0070           0
     50268 WT17     483      MECN     C1       CG331   -0.170000       12.0110           0
     50269 WT17     483      MECN     H11      HGA3     0.090000        1.0080           0
     50270 WT17     483      MECN     H12      HGA3     0.090000        1.0080           0
     50271 WT17     483      MECN     H13      HGA3     0.090000        1.0080           0
     50272 WT17     483      MECN     C2       CG1N1    0.360000       12.0110           0
     50273 WT17     483      MECN     N3       NG1T1   -0.460000       14.0070           0
     50274 WT17     487      MECN     C1       CG331   -0.170000       12.0110           0
     50275 WT17     487      MECN     H11      HGA3     0.090000        1.0080           0
     50276 WT17     487      MECN     H12      HGA3     0.090000        1.0080           0
     50277 WT17     487      MECN     H13      HGA3     0.090000        1.0080           0
     50278 WT17     487      MECN     C2       CG1N1    0.360000       12.0110           0
     50279 WT17     487      MECN     N3       NG1T1   -0.460000       14.0070           0
     50280 WT17     491      MECN     C1       CG331   -0.170000       12.0110           0
     50281 WT17     491      MECN     H11      HGA3     0.090000        1.0080           0
     50282 WT17     491      MECN     H12      HGA3     0.090000        1.0080           0
     50283 WT17     491      MECN     H13      HGA3     0.090000        1.0080           0
     50284 WT17     491      MECN     C2       CG1N1    0.360000       12.0110           0
     50285 WT17     491      MECN     N3       NG1T1   -0.460000       14.0070           0
     50286 WT17     493      MECN     C1       CG331   -0.170000       12.0110           0
     50287 WT17     493      MECN     H11      HGA3     0.090000        1.0080           0
     50288 WT17     493      MECN     H12      HGA3     0.090000        1.0080           0
     50289 WT17     493      MECN     H13      HGA3     0.090000        1.0080           0
     50290 WT17     493      MECN     C2       CG1N1    0.360000       12.0110           0
     50291 WT17     493      MECN     N3       NG1T1   -0.460000       14.0070           0
     50292 WT17     496      MECN     C1       CG331   -0.170000       12.0110           0
     50293 WT17     496      MECN     H11      HGA3     0.090000        1.0080           0
     50294 WT17     496      MECN     H12      HGA3     0.090000        1.0080           0
     50295 WT17     496      MECN     H13      HGA3     0.090000        1.0080           0
     50296 WT17     496      MECN     C2       CG1N1    0.360000       12.0110           0
     50297 WT17     496      MECN     N3       NG1T1   -0.460000       14.0070           0
     50298 WT17     499      MECN     C1       CG331   -0.170000       12.0110           0
     50299 WT17     499      MECN     H11      HGA3     0.090000        1.0080           0
     50300 WT17     499      MECN     H12      HGA3     0.090000        1.0080           0
     50301 WT17     499      MECN     H13      HGA3     0.090000        1.0080           0
     50302 WT17     499      MECN     C2       CG1N1    0.360000       12.0110           0
     50303 WT17     499      MECN     N3       NG1T1   -0.460000       14.0070           0
     50304 WT17     500      MECN     C1       CG331   -0.170000       12.0110           0
     50305 WT17     500      MECN     H11      HGA3     0.090000        1.0080           0
     50306 WT17     500      MECN     H12      HGA3     0.090000        1.0080           0
     50307 WT17     500      MECN     H13      HGA3     0.090000        1.0080           0
     50308 WT17     500      MECN     C2       CG1N1    0.360000       12.0110           0
     50309 WT17     500      MECN     N3       NG1T1   -0.460000       14.0070           0
     50310 WT17     502      MECN     C1       CG331   -0.170000       12.0110           0
     50311 WT17     502      MECN     H11      HGA3     0.090000        1.0080           0
     50312 WT17     502      MECN     H12      HGA3     0.090000        1.0080           0
     50313 WT17     502      MECN     H13      HGA3     0.090000        1.0080           0
     50314 WT17     502      MECN     C2       CG1N1    0.360000       12.0110           0
     50315 WT17     502      MECN     N3       NG1T1   -0.460000       14.0070           0
     50316 WT17     503      MECN     C1       CG331   -0.170000       12.0110           0
     50317 WT17     503      MECN     H11      HGA3     0.090000        1.0080           0
     50318 WT17     503      MECN     H12      HGA3     0.090000        1.0080           0
     50319 WT17     503      MECN     H13      HGA3     0.090000        1.0080           0
     50320 WT17     503      MECN     C2       CG1N1    0.360000       12.0110           0
     50321 WT17     503      MECN     N3       NG1T1   -0.460000       14.0070           0
     50322 WT17     505      MECN     C1       CG331   -0.170000       12.0110           0
     50323 WT17     505      MECN     H11      HGA3     0.090000        1.0080           0
     50324 WT17     505      MECN     H12      HGA3     0.090000        1.0080           0
     50325 WT17     505      MECN     H13      HGA3     0.090000        1.0080           0
     50326 WT17     505      MECN     C2       CG1N1    0.360000       12.0110           0
     50327 WT17     505      MECN     N3       NG1T1   -0.460000       14.0070           0
     50328 WT17     506      MECN     C1       CG331   -0.170000       12.0110           0
     50329 WT17     506      MECN     H11      HGA3     0.090000        1.0080           0
     50330 WT17     506      MECN     H12      HGA3     0.090000        1.0080           0
     50331 WT17     506      MECN     H13      HGA3     0.090000        1.0080           0
     50332 WT17     506      MECN     C2       CG1N1    0.360000       12.0110           0
     50333 WT17     506      MECN     N3       NG1T1   -0.460000       14.0070           0
     50334 WT17     510      MECN     C1       CG331   -0.170000       12.0110           0
     50335 WT17     510      MECN     H11      HGA3     0.090000        1.0080           0
     50336 WT17     510      MECN     H12      HGA3     0.090000        1.0080           0
     50337 WT17     510      MECN     H13      HGA3     0.090000        1.0080           0
     50338 WT17     510      MECN     C2       CG1N1    0.360000       12.0110           0
     50339 WT17     510      MECN     N3       NG1T1   -0.460000       14.0070           0
     50340 WT17     512      MECN     C1       CG331   -0.170000       12.0110           0
     50341 WT17     512      MECN     H11      HGA3     0.090000        1.0080           0
     50342 WT17     512      MECN     H12      HGA3     0.090000        1.0080           0
     50343 WT17     512      MECN     H13      HGA3     0.090000        1.0080           0
     50344 WT17     512      MECN     C2       CG1N1    0.360000       12.0110           0
     50345 WT17     512      MECN     N3       NG1T1   -0.460000       14.0070           0
     50346 WT17     513      MECN     C1       CG331   -0.170000       12.0110           0
     50347 WT17     513      MECN     H11      HGA3     0.090000        1.0080           0
     50348 WT17     513      MECN     H12      HGA3     0.090000        1.0080           0
     50349 WT17     513      MECN     H13      HGA3     0.090000        1.0080           0
     50350 WT17     513      MECN     C2       CG1N1    0.360000       12.0110           0
     50351 WT17     513      MECN     N3       NG1T1   -0.460000       14.0070           0
     50352 WT17     514      MECN     C1       CG331   -0.170000       12.0110           0
     50353 WT17     514      MECN     H11      HGA3     0.090000        1.0080           0
     50354 WT17     514      MECN     H12      HGA3     0.090000        1.0080           0
     50355 WT17     514      MECN     H13      HGA3     0.090000        1.0080           0
     50356 WT17     514      MECN     C2       CG1N1    0.360000       12.0110           0
     50357 WT17     514      MECN     N3       NG1T1   -0.460000       14.0070           0
     50358 WT17     515      MECN     C1       CG331   -0.170000       12.0110           0
     50359 WT17     515      MECN     H11      HGA3     0.090000        1.0080           0
     50360 WT17     515      MECN     H12      HGA3     0.090000        1.0080           0
     50361 WT17     515      MECN     H13      HGA3     0.090000        1.0080           0
     50362 WT17     515      MECN     C2       CG1N1    0.360000       12.0110           0
     50363 WT17     515      MECN     N3       NG1T1   -0.460000       14.0070           0
     50364 WT17     516      MECN     C1       CG331   -0.170000       12.0110           0
     50365 WT17     516      MECN     H11      HGA3     0.090000        1.0080           0
     50366 WT17     516      MECN     H12      HGA3     0.090000        1.0080           0
     50367 WT17     516      MECN     H13      HGA3     0.090000        1.0080           0
     50368 WT17     516      MECN     C2       CG1N1    0.360000       12.0110           0
     50369 WT17     516      MECN     N3       NG1T1   -0.460000       14.0070           0
     50370 WT17     517      MECN     C1       CG331   -0.170000       12.0110           0
     50371 WT17     517      MECN     H11      HGA3     0.090000        1.0080           0
     50372 WT17     517      MECN     H12      HGA3     0.090000        1.0080           0
     50373 WT17     517      MECN     H13      HGA3     0.090000        1.0080           0
     50374 WT17     517      MECN     C2       CG1N1    0.360000       12.0110           0
     50375 WT17     517      MECN     N3       NG1T1   -0.460000       14.0070           0
     50376 WT17     521      MECN     C1       CG331   -0.170000       12.0110           0
     50377 WT17     521      MECN     H11      HGA3     0.090000        1.0080           0
     50378 WT17     521      MECN     H12      HGA3     0.090000        1.0080           0
     50379 WT17     521      MECN     H13      HGA3     0.090000        1.0080           0
     50380 WT17     521      MECN     C2       CG1N1    0.360000       12.0110           0
     50381 WT17     521      MECN     N3       NG1T1   -0.460000       14.0070           0
     50382 WT17     524      MECN     C1       CG331   -0.170000       12.0110           0
     50383 WT17     524      MECN     H11      HGA3     0.090000        1.0080           0
     50384 WT17     524      MECN     H12      HGA3     0.090000        1.0080           0
     50385 WT17     524      MECN     H13      HGA3     0.090000        1.0080           0
     50386 WT17     524      MECN     C2       CG1N1    0.360000       12.0110           0
     50387 WT17     524      MECN     N3       NG1T1   -0.460000       14.0070           0
     50388 WT17     525      MECN     C1       CG331   -0.170000       12.0110           0
     50389 WT17     525      MECN     H11      HGA3     0.090000        1.0080           0
     50390 WT17     525      MECN     H12      HGA3     0.090000        1.0080           0
     50391 WT17     525      MECN     H13      HGA3     0.090000        1.0080           0
     50392 WT17     525      MECN     C2       CG1N1    0.360000       12.0110           0
     50393 WT17     525      MECN     N3       NG1T1   -0.460000       14.0070           0
     50394 WT17     527      MECN     C1       CG331   -0.170000       12.0110           0
     50395 WT17     527      MECN     H11      HGA3     0.090000        1.0080           0
     50396 WT17     527      MECN     H12      HGA3     0.090000        1.0080           0
     50397 WT17     527      MECN     H13      HGA3     0.090000        1.0080           0
     50398 WT17     527      MECN     C2       CG1N1    0.360000       12.0110           0
     50399 WT17     527      MECN     N3       NG1T1   -0.460000       14.0070           0
     50400 WT17     528      MECN     C1       CG331   -0.170000       12.0110           0
     50401 WT17     528      MECN     H11      HGA3     0.090000        1.0080           0
     50402 WT17     528      MECN     H12      HGA3     0.090000        1.0080           0
     50403 WT17     528      MECN     H13      HGA3     0.090000        1.0080           0
     50404 WT17     528      MECN     C2       CG1N1    0.360000       12.0110           0
     50405 WT17     528      MECN     N3       NG1T1   -0.460000       14.0070           0
     50406 WT17     529      MECN     C1       CG331   -0.170000       12.0110           0
     50407 WT17     529      MECN     H11      HGA3     0.090000        1.0080           0
     50408 WT17     529      MECN     H12      HGA3     0.090000        1.0080           0
     50409 WT17     529      MECN     H13      HGA3     0.090000        1.0080           0
     50410 WT17     529      MECN     C2       CG1N1    0.360000       12.0110           0
     50411 WT17     529      MECN     N3       NG1T1   -0.460000       14.0070           0
     50412 WT17     533      MECN     C1       CG331   -0.170000       12.0110           0
     50413 WT17     533      MECN     H11      HGA3     0.090000        1.0080           0
     50414 WT17     533      MECN     H12      HGA3     0.090000        1.0080           0
     50415 WT17     533      MECN     H13      HGA3     0.090000        1.0080           0
     50416 WT17     533      MECN     C2       CG1N1    0.360000       12.0110           0
     50417 WT17     533      MECN     N3       NG1T1   -0.460000       14.0070           0
     50418 WT17     534      MECN     C1       CG331   -0.170000       12.0110           0
     50419 WT17     534      MECN     H11      HGA3     0.090000        1.0080           0
     50420 WT17     534      MECN     H12      HGA3     0.090000        1.0080           0
     50421 WT17     534      MECN     H13      HGA3     0.090000        1.0080           0
     50422 WT17     534      MECN     C2       CG1N1    0.360000       12.0110           0
     50423 WT17     534      MECN     N3       NG1T1   -0.460000       14.0070           0
     50424 WT17     535      MECN     C1       CG331   -0.170000       12.0110           0
     50425 WT17     535      MECN     H11      HGA3     0.090000        1.0080           0
     50426 WT17     535      MECN     H12      HGA3     0.090000        1.0080           0
     50427 WT17     535      MECN     H13      HGA3     0.090000        1.0080           0
     50428 WT17     535      MECN     C2       CG1N1    0.360000       12.0110           0
     50429 WT17     535      MECN     N3       NG1T1   -0.460000       14.0070           0
     50430 WT17     536      MECN     C1       CG331   -0.170000       12.0110           0
     50431 WT17     536      MECN     H11      HGA3     0.090000        1.0080           0
     50432 WT17     536      MECN     H12      HGA3     0.090000        1.0080           0
     50433 WT17     536      MECN     H13      HGA3     0.090000        1.0080           0
     50434 WT17     536      MECN     C2       CG1N1    0.360000       12.0110           0
     50435 WT17     536      MECN     N3       NG1T1   -0.460000       14.0070           0
     50436 WT17     538      MECN     C1       CG331   -0.170000       12.0110           0
     50437 WT17     538      MECN     H11      HGA3     0.090000        1.0080           0
     50438 WT17     538      MECN     H12      HGA3     0.090000        1.0080           0
     50439 WT17     538      MECN     H13      HGA3     0.090000        1.0080           0
     50440 WT17     538      MECN     C2       CG1N1    0.360000       12.0110           0
     50441 WT17     538      MECN     N3       NG1T1   -0.460000       14.0070           0
     50442 WT17     539      MECN     C1       CG331   -0.170000       12.0110           0
     50443 WT17     539      MECN     H11      HGA3     0.090000        1.0080           0
     50444 WT17     539      MECN     H12      HGA3     0.090000        1.0080           0
     50445 WT17     539      MECN     H13      HGA3     0.090000        1.0080           0
     50446 WT17     539      MECN     C2       CG1N1    0.360000       12.0110           0
     50447 WT17     539      MECN     N3       NG1T1   -0.460000       14.0070           0
     50448 WT17     540      MECN     C1       CG331   -0.170000       12.0110           0
     50449 WT17     540      MECN     H11      HGA3     0.090000        1.0080           0
     50450 WT17     540      MECN     H12      HGA3     0.090000        1.0080           0
     50451 WT17     540      MECN     H13      HGA3     0.090000        1.0080           0
     50452 WT17     540      MECN     C2       CG1N1    0.360000       12.0110           0
     50453 WT17     540      MECN     N3       NG1T1   -0.460000       14.0070           0
     50454 WT17     544      MECN     C1       CG331   -0.170000       12.0110           0
     50455 WT17     544      MECN     H11      HGA3     0.090000        1.0080           0
     50456 WT17     544      MECN     H12      HGA3     0.090000        1.0080           0
     50457 WT17     544      MECN     H13      HGA3     0.090000        1.0080           0
     50458 WT17     544      MECN     C2       CG1N1    0.360000       12.0110           0
     50459 WT17     544      MECN     N3       NG1T1   -0.460000       14.0070           0
     50460 WT17     545      MECN     C1       CG331   -0.170000       12.0110           0
     50461 WT17     545      MECN     H11      HGA3     0.090000        1.0080           0
     50462 WT17     545      MECN     H12      HGA3     0.090000        1.0080           0
     50463 WT17     545      MECN     H13      HGA3     0.090000        1.0080           0
     50464 WT17     545      MECN     C2       CG1N1    0.360000       12.0110           0
     50465 WT17     545      MECN     N3       NG1T1   -0.460000       14.0070           0
     50466 WT17     548      MECN     C1       CG331   -0.170000       12.0110           0
     50467 WT17     548      MECN     H11      HGA3     0.090000        1.0080           0
     50468 WT17     548      MECN     H12      HGA3     0.090000        1.0080           0
     50469 WT17     548      MECN     H13      HGA3     0.090000        1.0080           0
     50470 WT17     548      MECN     C2       CG1N1    0.360000       12.0110           0
     50471 WT17     548      MECN     N3       NG1T1   -0.460000       14.0070           0
     50472 WT17     549      MECN     C1       CG331   -0.170000       12.0110           0
     50473 WT17     549      MECN     H11      HGA3     0.090000        1.0080           0
     50474 WT17     549      MECN     H12      HGA3     0.090000        1.0080           0
     50475 WT17     549      MECN     H13      HGA3     0.090000        1.0080           0
     50476 WT17     549      MECN     C2       CG1N1    0.360000       12.0110           0
     50477 WT17     549      MECN     N3       NG1T1   -0.460000       14.0070           0
     50478 WT17     550      MECN     C1       CG331   -0.170000       12.0110           0
     50479 WT17     550      MECN     H11      HGA3     0.090000        1.0080           0
     50480 WT17     550      MECN     H12      HGA3     0.090000        1.0080           0
     50481 WT17     550      MECN     H13      HGA3     0.090000        1.0080           0
     50482 WT17     550      MECN     C2       CG1N1    0.360000       12.0110           0
     50483 WT17     550      MECN     N3       NG1T1   -0.460000       14.0070           0
     50484 WT17     551      MECN     C1       CG331   -0.170000       12.0110           0
     50485 WT17     551      MECN     H11      HGA3     0.090000        1.0080           0
     50486 WT17     551      MECN     H12      HGA3     0.090000        1.0080           0
     50487 WT17     551      MECN     H13      HGA3     0.090000        1.0080           0
     50488 WT17     551      MECN     C2       CG1N1    0.360000       12.0110           0
     50489 WT17     551      MECN     N3       NG1T1   -0.460000       14.0070           0
     50490 WT17     552      MECN     C1       CG331   -0.170000       12.0110           0
     50491 WT17     552      MECN     H11      HGA3     0.090000        1.0080           0
     50492 WT17     552      MECN     H12      HGA3     0.090000        1.0080           0
     50493 WT17     552      MECN     H13      HGA3     0.090000        1.0080           0
     50494 WT17     552      MECN     C2       CG1N1    0.360000       12.0110           0
     50495 WT17     552      MECN     N3       NG1T1   -0.460000       14.0070           0
     50496 WT17     554      MECN     C1       CG331   -0.170000       12.0110           0
     50497 WT17     554      MECN     H11      HGA3     0.090000        1.0080           0
     50498 WT17     554      MECN     H12      HGA3     0.090000        1.0080           0
     50499 WT17     554      MECN     H13      HGA3     0.090000        1.0080           0
     50500 WT17     554      MECN     C2       CG1N1    0.360000       12.0110           0
     50501 WT17     554      MECN     N3       NG1T1   -0.460000       14.0070           0
     50502 WT17     556      MECN     C1       CG331   -0.170000       12.0110           0
     50503 WT17     556      MECN     H11      HGA3     0.090000        1.0080           0
     50504 WT17     556      MECN     H12      HGA3     0.090000        1.0080           0
     50505 WT17     556      MECN     H13      HGA3     0.090000        1.0080           0
     50506 WT17     556      MECN     C2       CG1N1    0.360000       12.0110           0
     50507 WT17     556      MECN     N3       NG1T1   -0.460000       14.0070           0
     50508 WT17     558      MECN     C1       CG331   -0.170000       12.0110           0
     50509 WT17     558      MECN     H11      HGA3     0.090000        1.0080           0
     50510 WT17     558      MECN     H12      HGA3     0.090000        1.0080           0
     50511 WT17     558      MECN     H13      HGA3     0.090000        1.0080           0
     50512 WT17     558      MECN     C2       CG1N1    0.360000       12.0110           0
     50513 WT17     558      MECN     N3       NG1T1   -0.460000       14.0070           0
     50514 WT17     559      MECN     C1       CG331   -0.170000       12.0110           0
     50515 WT17     559      MECN     H11      HGA3     0.090000        1.0080           0
     50516 WT17     559      MECN     H12      HGA3     0.090000        1.0080           0
     50517 WT17     559      MECN     H13      HGA3     0.090000        1.0080           0
     50518 WT17     559      MECN     C2       CG1N1    0.360000       12.0110           0
     50519 WT17     559      MECN     N3       NG1T1   -0.460000       14.0070           0
     50520 WT17     561      MECN     C1       CG331   -0.170000       12.0110           0
     50521 WT17     561      MECN     H11      HGA3     0.090000        1.0080           0
     50522 WT17     561      MECN     H12      HGA3     0.090000        1.0080           0
     50523 WT17     561      MECN     H13      HGA3     0.090000        1.0080           0
     50524 WT17     561      MECN     C2       CG1N1    0.360000       12.0110           0
     50525 WT17     561      MECN     N3       NG1T1   -0.460000       14.0070           0
     50526 WT17     563      MECN     C1       CG331   -0.170000       12.0110           0
     50527 WT17     563      MECN     H11      HGA3     0.090000        1.0080           0
     50528 WT17     563      MECN     H12      HGA3     0.090000        1.0080           0
     50529 WT17     563      MECN     H13      HGA3     0.090000        1.0080           0
     50530 WT17     563      MECN     C2       CG1N1    0.360000       12.0110           0
     50531 WT17     563      MECN     N3       NG1T1   -0.460000       14.0070           0
     50532 WT17     565      MECN     C1       CG331   -0.170000       12.0110           0
     50533 WT17     565      MECN     H11      HGA3     0.090000        1.0080           0
     50534 WT17     565      MECN     H12      HGA3     0.090000        1.0080           0
     50535 WT17     565      MECN     H13      HGA3     0.090000        1.0080           0
     50536 WT17     565      MECN     C2       CG1N1    0.360000       12.0110           0
     50537 WT17     565      MECN     N3       NG1T1   -0.460000       14.0070           0
     50538 WT17     566      MECN     C1       CG331   -0.170000       12.0110           0
     50539 WT17     566      MECN     H11      HGA3     0.090000        1.0080           0
     50540 WT17     566      MECN     H12      HGA3     0.090000        1.0080           0
     50541 WT17     566      MECN     H13      HGA3     0.090000        1.0080           0
     50542 WT17     566      MECN     C2       CG1N1    0.360000       12.0110           0
     50543 WT17     566      MECN     N3       NG1T1   -0.460000       14.0070           0
     50544 WT17     567      MECN     C1       CG331   -0.170000       12.0110           0
     50545 WT17     567      MECN     H11      HGA3     0.090000        1.0080           0
     50546 WT17     567      MECN     H12      HGA3     0.090000        1.0080           0
     50547 WT17     567      MECN     H13      HGA3     0.090000        1.0080           0
     50548 WT17     567      MECN     C2       CG1N1    0.360000       12.0110           0
     50549 WT17     567      MECN     N3       NG1T1   -0.460000       14.0070           0
     50550 WT17     568      MECN     C1       CG331   -0.170000       12.0110           0
     50551 WT17     568      MECN     H11      HGA3     0.090000        1.0080           0
     50552 WT17     568      MECN     H12      HGA3     0.090000        1.0080           0
     50553 WT17     568      MECN     H13      HGA3     0.090000        1.0080           0
     50554 WT17     568      MECN     C2       CG1N1    0.360000       12.0110           0
     50555 WT17     568      MECN     N3       NG1T1   -0.460000       14.0070           0
     50556 WT17     570      MECN     C1       CG331   -0.170000       12.0110           0
     50557 WT17     570      MECN     H11      HGA3     0.090000        1.0080           0
     50558 WT17     570      MECN     H12      HGA3     0.090000        1.0080           0
     50559 WT17     570      MECN     H13      HGA3     0.090000        1.0080           0
     50560 WT17     570      MECN     C2       CG1N1    0.360000       12.0110           0
     50561 WT17     570      MECN     N3       NG1T1   -0.460000       14.0070           0
     50562 WT17     572      MECN     C1       CG331   -0.170000       12.0110           0
     50563 WT17     572      MECN     H11      HGA3     0.090000        1.0080           0
     50564 WT17     572      MECN     H12      HGA3     0.090000        1.0080           0
     50565 WT17     572      MECN     H13      HGA3     0.090000        1.0080           0
     50566 WT17     572      MECN     C2       CG1N1    0.360000       12.0110           0
     50567 WT17     572      MECN     N3       NG1T1   -0.460000       14.0070           0
     50568 WT17     574      MECN     C1       CG331   -0.170000       12.0110           0
     50569 WT17     574      MECN     H11      HGA3     0.090000        1.0080           0
     50570 WT17     574      MECN     H12      HGA3     0.090000        1.0080           0
     50571 WT17     574      MECN     H13      HGA3     0.090000        1.0080           0
     50572 WT17     574      MECN     C2       CG1N1    0.360000       12.0110           0
     50573 WT17     574      MECN     N3       NG1T1   -0.460000       14.0070           0
     50574 WT17     575      MECN     C1       CG331   -0.170000       12.0110           0
     50575 WT17     575      MECN     H11      HGA3     0.090000        1.0080           0
     50576 WT17     575      MECN     H12      HGA3     0.090000        1.0080           0
     50577 WT17     575      MECN     H13      HGA3     0.090000        1.0080           0
     50578 WT17     575      MECN     C2       CG1N1    0.360000       12.0110           0
     50579 WT17     575      MECN     N3       NG1T1   -0.460000       14.0070           0
     50580 WT17     576      MECN     C1       CG331   -0.170000       12.0110           0
     50581 WT17     576      MECN     H11      HGA3     0.090000        1.0080           0
     50582 WT17     576      MECN     H12      HGA3     0.090000        1.0080           0
     50583 WT17     576      MECN     H13      HGA3     0.090000        1.0080           0
     50584 WT17     576      MECN     C2       CG1N1    0.360000       12.0110           0
     50585 WT17     576      MECN     N3       NG1T1   -0.460000       14.0070           0
     50586 WT17     577      MECN     C1       CG331   -0.170000       12.0110           0
     50587 WT17     577      MECN     H11      HGA3     0.090000        1.0080           0
     50588 WT17     577      MECN     H12      HGA3     0.090000        1.0080           0
     50589 WT17     577      MECN     H13      HGA3     0.090000        1.0080           0
     50590 WT17     577      MECN     C2       CG1N1    0.360000       12.0110           0
     50591 WT17     577      MECN     N3       NG1T1   -0.460000       14.0070           0
     50592 WT17     581      MECN     C1       CG331   -0.170000       12.0110           0
     50593 WT17     581      MECN     H11      HGA3     0.090000        1.0080           0
     50594 WT17     581      MECN     H12      HGA3     0.090000        1.0080           0
     50595 WT17     581      MECN     H13      HGA3     0.090000        1.0080           0
     50596 WT17     581      MECN     C2       CG1N1    0.360000       12.0110           0
     50597 WT17     581      MECN     N3       NG1T1   -0.460000       14.0070           0
     50598 WT17     582      MECN     C1       CG331   -0.170000       12.0110           0
     50599 WT17     582      MECN     H11      HGA3     0.090000        1.0080           0
     50600 WT17     582      MECN     H12      HGA3     0.090000        1.0080           0
     50601 WT17     582      MECN     H13      HGA3     0.090000        1.0080           0
     50602 WT17     582      MECN     C2       CG1N1    0.360000       12.0110           0
     50603 WT17     582      MECN     N3       NG1T1   -0.460000       14.0070           0
     50604 WT17     584      MECN     C1       CG331   -0.170000       12.0110           0
     50605 WT17     584      MECN     H11      HGA3     0.090000        1.0080           0
     50606 WT17     584      MECN     H12      HGA3     0.090000        1.0080           0
     50607 WT17     584      MECN     H13      HGA3     0.090000        1.0080           0
     50608 WT17     584      MECN     C2       CG1N1    0.360000       12.0110           0
     50609 WT17     584      MECN     N3       NG1T1   -0.460000       14.0070           0
     50610 WT17     588      MECN     C1       CG331   -0.170000       12.0110           0
     50611 WT17     588      MECN     H11      HGA3     0.090000        1.0080           0
     50612 WT17     588      MECN     H12      HGA3     0.090000        1.0080           0
     50613 WT17     588      MECN     H13      HGA3     0.090000        1.0080           0
     50614 WT17     588      MECN     C2       CG1N1    0.360000       12.0110           0
     50615 WT17     588      MECN     N3       NG1T1   -0.460000       14.0070           0
     50616 WT17     591      MECN     C1       CG331   -0.170000       12.0110           0
     50617 WT17     591      MECN     H11      HGA3     0.090000        1.0080           0
     50618 WT17     591      MECN     H12      HGA3     0.090000        1.0080           0
     50619 WT17     591      MECN     H13      HGA3     0.090000        1.0080           0
     50620 WT17     591      MECN     C2       CG1N1    0.360000       12.0110           0
     50621 WT17     591      MECN     N3       NG1T1   -0.460000       14.0070           0
     50622 WT17     592      MECN     C1       CG331   -0.170000       12.0110           0
     50623 WT17     592      MECN     H11      HGA3     0.090000        1.0080           0
     50624 WT17     592      MECN     H12      HGA3     0.090000        1.0080           0
     50625 WT17     592      MECN     H13      HGA3     0.090000        1.0080           0
     50626 WT17     592      MECN     C2       CG1N1    0.360000       12.0110           0
     50627 WT17     592      MECN     N3       NG1T1   -0.460000       14.0070           0
     50628 WT17     593      MECN     C1       CG331   -0.170000       12.0110           0
     50629 WT17     593      MECN     H11      HGA3     0.090000        1.0080           0
     50630 WT17     593      MECN     H12      HGA3     0.090000        1.0080           0
     50631 WT17     593      MECN     H13      HGA3     0.090000        1.0080           0
     50632 WT17     593      MECN     C2       CG1N1    0.360000       12.0110           0
     50633 WT17     593      MECN     N3       NG1T1   -0.460000       14.0070           0
     50634 WT17     594      MECN     C1       CG331   -0.170000       12.0110           0
     50635 WT17     594      MECN     H11      HGA3     0.090000        1.0080           0
     50636 WT17     594      MECN     H12      HGA3     0.090000        1.0080           0
     50637 WT17     594      MECN     H13      HGA3     0.090000        1.0080           0
     50638 WT17     594      MECN     C2       CG1N1    0.360000       12.0110           0
     50639 WT17     594      MECN     N3       NG1T1   -0.460000       14.0070           0
     50640 WT17     596      MECN     C1       CG331   -0.170000       12.0110           0
     50641 WT17     596      MECN     H11      HGA3     0.090000        1.0080           0
     50642 WT17     596      MECN     H12      HGA3     0.090000        1.0080           0
     50643 WT17     596      MECN     H13      HGA3     0.090000        1.0080           0
     50644 WT17     596      MECN     C2       CG1N1    0.360000       12.0110           0
     50645 WT17     596      MECN     N3       NG1T1   -0.460000       14.0070           0
     50646 WT17     597      MECN     C1       CG331   -0.170000       12.0110           0
     50647 WT17     597      MECN     H11      HGA3     0.090000        1.0080           0
     50648 WT17     597      MECN     H12      HGA3     0.090000        1.0080           0
     50649 WT17     597      MECN     H13      HGA3     0.090000        1.0080           0
     50650 WT17     597      MECN     C2       CG1N1    0.360000       12.0110           0
     50651 WT17     597      MECN     N3       NG1T1   -0.460000       14.0070           0
     50652 WT17     599      MECN     C1       CG331   -0.170000       12.0110           0
     50653 WT17     599      MECN     H11      HGA3     0.090000        1.0080           0
     50654 WT17     599      MECN     H12      HGA3     0.090000        1.0080           0
     50655 WT17     599      MECN     H13      HGA3     0.090000        1.0080           0
     50656 WT17     599      MECN     C2       CG1N1    0.360000       12.0110           0
     50657 WT17     599      MECN     N3       NG1T1   -0.460000       14.0070           0
     50658 WT17     600      MECN     C1       CG331   -0.170000       12.0110           0
     50659 WT17     600      MECN     H11      HGA3     0.090000        1.0080           0
     50660 WT17     600      MECN     H12      HGA3     0.090000        1.0080           0
     50661 WT17     600      MECN     H13      HGA3     0.090000        1.0080           0
     50662 WT17     600      MECN     C2       CG1N1    0.360000       12.0110           0
     50663 WT17     600      MECN     N3       NG1T1   -0.460000       14.0070           0
     50664 WT17     601      MECN     C1       CG331   -0.170000       12.0110           0
     50665 WT17     601      MECN     H11      HGA3     0.090000        1.0080           0
     50666 WT17     601      MECN     H12      HGA3     0.090000        1.0080           0
     50667 WT17     601      MECN     H13      HGA3     0.090000        1.0080           0
     50668 WT17     601      MECN     C2       CG1N1    0.360000       12.0110           0
     50669 WT17     601      MECN     N3       NG1T1   -0.460000       14.0070           0
     50670 WT17     603      MECN     C1       CG331   -0.170000       12.0110           0
     50671 WT17     603      MECN     H11      HGA3     0.090000        1.0080           0
     50672 WT17     603      MECN     H12      HGA3     0.090000        1.0080           0
     50673 WT17     603      MECN     H13      HGA3     0.090000        1.0080           0
     50674 WT17     603      MECN     C2       CG1N1    0.360000       12.0110           0
     50675 WT17     603      MECN     N3       NG1T1   -0.460000       14.0070           0
     50676 WT17     604      MECN     C1       CG331   -0.170000       12.0110           0
     50677 WT17     604      MECN     H11      HGA3     0.090000        1.0080           0
     50678 WT17     604      MECN     H12      HGA3     0.090000        1.0080           0
     50679 WT17     604      MECN     H13      HGA3     0.090000        1.0080           0
     50680 WT17     604      MECN     C2       CG1N1    0.360000       12.0110           0
     50681 WT17     604      MECN     N3       NG1T1   -0.460000       14.0070           0
     50682 WT17     606      MECN     C1       CG331   -0.170000       12.0110           0
     50683 WT17     606      MECN     H11      HGA3     0.090000        1.0080           0
     50684 WT17     606      MECN     H12      HGA3     0.090000        1.0080           0
     50685 WT17     606      MECN     H13      HGA3     0.090000        1.0080           0
     50686 WT17     606      MECN     C2       CG1N1    0.360000       12.0110           0
     50687 WT17     606      MECN     N3       NG1T1   -0.460000       14.0070           0
     50688 WT17     607      MECN     C1       CG331   -0.170000       12.0110           0
     50689 WT17     607      MECN     H11      HGA3     0.090000        1.0080           0
     50690 WT17     607      MECN     H12      HGA3     0.090000        1.0080           0
     50691 WT17     607      MECN     H13      HGA3     0.090000        1.0080           0
     50692 WT17     607      MECN     C2       CG1N1    0.360000       12.0110           0
     50693 WT17     607      MECN     N3       NG1T1   -0.460000       14.0070           0
     50694 WT17     608      MECN     C1       CG331   -0.170000       12.0110           0
     50695 WT17     608      MECN     H11      HGA3     0.090000        1.0080           0
     50696 WT17     608      MECN     H12      HGA3     0.090000        1.0080           0
     50697 WT17     608      MECN     H13      HGA3     0.090000        1.0080           0
     50698 WT17     608      MECN     C2       CG1N1    0.360000       12.0110           0
     50699 WT17     608      MECN     N3       NG1T1   -0.460000       14.0070           0
     50700 WT17     609      MECN     C1       CG331   -0.170000       12.0110           0
     50701 WT17     609      MECN     H11      HGA3     0.090000        1.0080           0
     50702 WT17     609      MECN     H12      HGA3     0.090000        1.0080           0
     50703 WT17     609      MECN     H13      HGA3     0.090000        1.0080           0
     50704 WT17     609      MECN     C2       CG1N1    0.360000       12.0110           0
     50705 WT17     609      MECN     N3       NG1T1   -0.460000       14.0070           0
     50706 WT17     610      MECN     C1       CG331   -0.170000       12.0110           0
     50707 WT17     610      MECN     H11      HGA3     0.090000        1.0080           0
     50708 WT17     610      MECN     H12      HGA3     0.090000        1.0080           0
     50709 WT17     610      MECN     H13      HGA3     0.090000        1.0080           0
     50710 WT17     610      MECN     C2       CG1N1    0.360000       12.0110           0
     50711 WT17     610      MECN     N3       NG1T1   -0.460000       14.0070           0
     50712 WT17     611      MECN     C1       CG331   -0.170000       12.0110           0
     50713 WT17     611      MECN     H11      HGA3     0.090000        1.0080           0
     50714 WT17     611      MECN     H12      HGA3     0.090000        1.0080           0
     50715 WT17     611      MECN     H13      HGA3     0.090000        1.0080           0
     50716 WT17     611      MECN     C2       CG1N1    0.360000       12.0110           0
     50717 WT17     611      MECN     N3       NG1T1   -0.460000       14.0070           0
     50718 WT17     614      MECN     C1       CG331   -0.170000       12.0110           0
     50719 WT17     614      MECN     H11      HGA3     0.090000        1.0080           0
     50720 WT17     614      MECN     H12      HGA3     0.090000        1.0080           0
     50721 WT17     614      MECN     H13      HGA3     0.090000        1.0080           0
     50722 WT17     614      MECN     C2       CG1N1    0.360000       12.0110           0
     50723 WT17     614      MECN     N3       NG1T1   -0.460000       14.0070           0
     50724 WT17     615      MECN     C1       CG331   -0.170000       12.0110           0
     50725 WT17     615      MECN     H11      HGA3     0.090000        1.0080           0
     50726 WT17     615      MECN     H12      HGA3     0.090000        1.0080           0
     50727 WT17     615      MECN     H13      HGA3     0.090000        1.0080           0
     50728 WT17     615      MECN     C2       CG1N1    0.360000       12.0110           0
     50729 WT17     615      MECN     N3       NG1T1   -0.460000       14.0070           0
     50730 WT17     616      MECN     C1       CG331   -0.170000       12.0110           0
     50731 WT17     616      MECN     H11      HGA3     0.090000        1.0080           0
     50732 WT17     616      MECN     H12      HGA3     0.090000        1.0080           0
     50733 WT17     616      MECN     H13      HGA3     0.090000        1.0080           0
     50734 WT17     616      MECN     C2       CG1N1    0.360000       12.0110           0
     50735 WT17     616      MECN     N3       NG1T1   -0.460000       14.0070           0
     50736 WT17     617      MECN     C1       CG331   -0.170000       12.0110           0
     50737 WT17     617      MECN     H11      HGA3     0.090000        1.0080           0
     50738 WT17     617      MECN     H12      HGA3     0.090000        1.0080           0
     50739 WT17     617      MECN     H13      HGA3     0.090000        1.0080           0
     50740 WT17     617      MECN     C2       CG1N1    0.360000       12.0110           0
     50741 WT17     617      MECN     N3       NG1T1   -0.460000       14.0070           0
     50742 WT17     618      MECN     C1       CG331   -0.170000       12.0110           0
     50743 WT17     618      MECN     H11      HGA3     0.090000        1.0080           0
     50744 WT17     618      MECN     H12      HGA3     0.090000        1.0080           0
     50745 WT17     618      MECN     H13      HGA3     0.090000        1.0080           0
     50746 WT17     618      MECN     C2       CG1N1    0.360000       12.0110           0
     50747 WT17     618      MECN     N3       NG1T1   -0.460000       14.0070           0
     50748 WT17     619      MECN     C1       CG331   -0.170000       12.0110           0
     50749 WT17     619      MECN     H11      HGA3     0.090000        1.0080           0
     50750 WT17     619      MECN     H12      HGA3     0.090000        1.0080           0
     50751 WT17     619      MECN     H13      HGA3     0.090000        1.0080           0
     50752 WT17     619      MECN     C2       CG1N1    0.360000       12.0110           0
     50753 WT17     619      MECN     N3       NG1T1   -0.460000       14.0070           0
     50754 WT17     621      MECN     C1       CG331   -0.170000       12.0110           0
     50755 WT17     621      MECN     H11      HGA3     0.090000        1.0080           0
     50756 WT17     621      MECN     H12      HGA3     0.090000        1.0080           0
     50757 WT17     621      MECN     H13      HGA3     0.090000        1.0080           0
     50758 WT17     621      MECN     C2       CG1N1    0.360000       12.0110           0
     50759 WT17     621      MECN     N3       NG1T1   -0.460000       14.0070           0
     50760 WT17     622      MECN     C1       CG331   -0.170000       12.0110           0
     50761 WT17     622      MECN     H11      HGA3     0.090000        1.0080           0
     50762 WT17     622      MECN     H12      HGA3     0.090000        1.0080           0
     50763 WT17     622      MECN     H13      HGA3     0.090000        1.0080           0
     50764 WT17     622      MECN     C2       CG1N1    0.360000       12.0110           0
     50765 WT17     622      MECN     N3       NG1T1   -0.460000       14.0070           0
     50766 WT17     624      MECN     C1       CG331   -0.170000       12.0110           0
     50767 WT17     624      MECN     H11      HGA3     0.090000        1.0080           0
     50768 WT17     624      MECN     H12      HGA3     0.090000        1.0080           0
     50769 WT17     624      MECN     H13      HGA3     0.090000        1.0080           0
     50770 WT17     624      MECN     C2       CG1N1    0.360000       12.0110           0
     50771 WT17     624      MECN     N3       NG1T1   -0.460000       14.0070           0
     50772 WT17     625      MECN     C1       CG331   -0.170000       12.0110           0
     50773 WT17     625      MECN     H11      HGA3     0.090000        1.0080           0
     50774 WT17     625      MECN     H12      HGA3     0.090000        1.0080           0
     50775 WT17     625      MECN     H13      HGA3     0.090000        1.0080           0
     50776 WT17     625      MECN     C2       CG1N1    0.360000       12.0110           0
     50777 WT17     625      MECN     N3       NG1T1   -0.460000       14.0070           0
     50778 WT17     626      MECN     C1       CG331   -0.170000       12.0110           0
     50779 WT17     626      MECN     H11      HGA3     0.090000        1.0080           0
     50780 WT17     626      MECN     H12      HGA3     0.090000        1.0080           0
     50781 WT17     626      MECN     H13      HGA3     0.090000        1.0080           0
     50782 WT17     626      MECN     C2       CG1N1    0.360000       12.0110           0
     50783 WT17     626      MECN     N3       NG1T1   -0.460000       14.0070           0
     50784 WT17     627      MECN     C1       CG331   -0.170000       12.0110           0
     50785 WT17     627      MECN     H11      HGA3     0.090000        1.0080           0
     50786 WT17     627      MECN     H12      HGA3     0.090000        1.0080           0
     50787 WT17     627      MECN     H13      HGA3     0.090000        1.0080           0
     50788 WT17     627      MECN     C2       CG1N1    0.360000       12.0110           0
     50789 WT17     627      MECN     N3       NG1T1   -0.460000       14.0070           0
     50790 WT17     628      MECN     C1       CG331   -0.170000       12.0110           0
     50791 WT17     628      MECN     H11      HGA3     0.090000        1.0080           0
     50792 WT17     628      MECN     H12      HGA3     0.090000        1.0080           0
     50793 WT17     628      MECN     H13      HGA3     0.090000        1.0080           0
     50794 WT17     628      MECN     C2       CG1N1    0.360000       12.0110           0
     50795 WT17     628      MECN     N3       NG1T1   -0.460000       14.0070           0
     50796 WT17     629      MECN     C1       CG331   -0.170000       12.0110           0
     50797 WT17     629      MECN     H11      HGA3     0.090000        1.0080           0
     50798 WT17     629      MECN     H12      HGA3     0.090000        1.0080           0
     50799 WT17     629      MECN     H13      HGA3     0.090000        1.0080           0
     50800 WT17     629      MECN     C2       CG1N1    0.360000       12.0110           0
     50801 WT17     629      MECN     N3       NG1T1   -0.460000       14.0070           0
     50802 WT17     630      MECN     C1       CG331   -0.170000       12.0110           0
     50803 WT17     630      MECN     H11      HGA3     0.090000        1.0080           0
     50804 WT17     630      MECN     H12      HGA3     0.090000        1.0080           0
     50805 WT17     630      MECN     H13      HGA3     0.090000        1.0080           0
     50806 WT17     630      MECN     C2       CG1N1    0.360000       12.0110           0
     50807 WT17     630      MECN     N3       NG1T1   -0.460000       14.0070           0
     50808 WT17     631      MECN     C1       CG331   -0.170000       12.0110           0
     50809 WT17     631      MECN     H11      HGA3     0.090000        1.0080           0
     50810 WT17     631      MECN     H12      HGA3     0.090000        1.0080           0
     50811 WT17     631      MECN     H13      HGA3     0.090000        1.0080           0
     50812 WT17     631      MECN     C2       CG1N1    0.360000       12.0110           0
     50813 WT17     631      MECN     N3       NG1T1   -0.460000       14.0070           0
     50814 WT17     633      MECN     C1       CG331   -0.170000       12.0110           0
     50815 WT17     633      MECN     H11      HGA3     0.090000        1.0080           0
     50816 WT17     633      MECN     H12      HGA3     0.090000        1.0080           0
     50817 WT17     633      MECN     H13      HGA3     0.090000        1.0080           0
     50818 WT17     633      MECN     C2       CG1N1    0.360000       12.0110           0
     50819 WT17     633      MECN     N3       NG1T1   -0.460000       14.0070           0
     50820 WT17     635      MECN     C1       CG331   -0.170000       12.0110           0
     50821 WT17     635      MECN     H11      HGA3     0.090000        1.0080           0
     50822 WT17     635      MECN     H12      HGA3     0.090000        1.0080           0
     50823 WT17     635      MECN     H13      HGA3     0.090000        1.0080           0
     50824 WT17     635      MECN     C2       CG1N1    0.360000       12.0110           0
     50825 WT17     635      MECN     N3       NG1T1   -0.460000       14.0070           0
     50826 WT17     638      MECN     C1       CG331   -0.170000       12.0110           0
     50827 WT17     638      MECN     H11      HGA3     0.090000        1.0080           0
     50828 WT17     638      MECN     H12      HGA3     0.090000        1.0080           0
     50829 WT17     638      MECN     H13      HGA3     0.090000        1.0080           0
     50830 WT17     638      MECN     C2       CG1N1    0.360000       12.0110           0
     50831 WT17     638      MECN     N3       NG1T1   -0.460000       14.0070           0
     50832 WT17     640      MECN     C1       CG331   -0.170000       12.0110           0
     50833 WT17     640      MECN     H11      HGA3     0.090000        1.0080           0
     50834 WT17     640      MECN     H12      HGA3     0.090000        1.0080           0
     50835 WT17     640      MECN     H13      HGA3     0.090000        1.0080           0
     50836 WT17     640      MECN     C2       CG1N1    0.360000       12.0110           0
     50837 WT17     640      MECN     N3       NG1T1   -0.460000       14.0070           0
     50838 WT17     641      MECN     C1       CG331   -0.170000       12.0110           0
     50839 WT17     641      MECN     H11      HGA3     0.090000        1.0080           0
     50840 WT17     641      MECN     H12      HGA3     0.090000        1.0080           0
     50841 WT17     641      MECN     H13      HGA3     0.090000        1.0080           0
     50842 WT17     641      MECN     C2       CG1N1    0.360000       12.0110           0
     50843 WT17     641      MECN     N3       NG1T1   -0.460000       14.0070           0
     50844 WT17     643      MECN     C1       CG331   -0.170000       12.0110           0
     50845 WT17     643      MECN     H11      HGA3     0.090000        1.0080           0
     50846 WT17     643      MECN     H12      HGA3     0.090000        1.0080           0
     50847 WT17     643      MECN     H13      HGA3     0.090000        1.0080           0
     50848 WT17     643      MECN     C2       CG1N1    0.360000       12.0110           0
     50849 WT17     643      MECN     N3       NG1T1   -0.460000       14.0070           0
     50850 WT17     644      MECN     C1       CG331   -0.170000       12.0110           0
     50851 WT17     644      MECN     H11      HGA3     0.090000        1.0080           0
     50852 WT17     644      MECN     H12      HGA3     0.090000        1.0080           0
     50853 WT17     644      MECN     H13      HGA3     0.090000        1.0080           0
     50854 WT17     644      MECN     C2       CG1N1    0.360000       12.0110           0
     50855 WT17     644      MECN     N3       NG1T1   -0.460000       14.0070           0
     50856 WT17     645      MECN     C1       CG331   -0.170000       12.0110           0
     50857 WT17     645      MECN     H11      HGA3     0.090000        1.0080           0
     50858 WT17     645      MECN     H12      HGA3     0.090000        1.0080           0
     50859 WT17     645      MECN     H13      HGA3     0.090000        1.0080           0
     50860 WT17     645      MECN     C2       CG1N1    0.360000       12.0110           0
     50861 WT17     645      MECN     N3       NG1T1   -0.460000       14.0070           0
     50862 WT17     646      MECN     C1       CG331   -0.170000       12.0110           0
     50863 WT17     646      MECN     H11      HGA3     0.090000        1.0080           0
     50864 WT17     646      MECN     H12      HGA3     0.090000        1.0080           0
     50865 WT17     646      MECN     H13      HGA3     0.090000        1.0080           0
     50866 WT17     646      MECN     C2       CG1N1    0.360000       12.0110           0
     50867 WT17     646      MECN     N3       NG1T1   -0.460000       14.0070           0
     50868 WT17     648      MECN     C1       CG331   -0.170000       12.0110           0
     50869 WT17     648      MECN     H11      HGA3     0.090000        1.0080           0
     50870 WT17     648      MECN     H12      HGA3     0.090000        1.0080           0
     50871 WT17     648      MECN     H13      HGA3     0.090000        1.0080           0
     50872 WT17     648      MECN     C2       CG1N1    0.360000       12.0110           0
     50873 WT17     648      MECN     N3       NG1T1   -0.460000       14.0070           0
     50874 WT17     649      MECN     C1       CG331   -0.170000       12.0110           0
     50875 WT17     649      MECN     H11      HGA3     0.090000        1.0080           0
     50876 WT17     649      MECN     H12      HGA3     0.090000        1.0080           0
     50877 WT17     649      MECN     H13      HGA3     0.090000        1.0080           0
     50878 WT17     649      MECN     C2       CG1N1    0.360000       12.0110           0
     50879 WT17     649      MECN     N3       NG1T1   -0.460000       14.0070           0
     50880 WT17     653      MECN     C1       CG331   -0.170000       12.0110           0
     50881 WT17     653      MECN     H11      HGA3     0.090000        1.0080           0
     50882 WT17     653      MECN     H12      HGA3     0.090000        1.0080           0
     50883 WT17     653      MECN     H13      HGA3     0.090000        1.0080           0
     50884 WT17     653      MECN     C2       CG1N1    0.360000       12.0110           0
     50885 WT17     653      MECN     N3       NG1T1   -0.460000       14.0070           0
     50886 WT17     654      MECN     C1       CG331   -0.170000       12.0110           0
     50887 WT17     654      MECN     H11      HGA3     0.090000        1.0080           0
     50888 WT17     654      MECN     H12      HGA3     0.090000        1.0080           0
     50889 WT17     654      MECN     H13      HGA3     0.090000        1.0080           0
     50890 WT17     654      MECN     C2       CG1N1    0.360000       12.0110           0
     50891 WT17     654      MECN     N3       NG1T1   -0.460000       14.0070           0
     50892 WT17     655      MECN     C1       CG331   -0.170000       12.0110           0
     50893 WT17     655      MECN     H11      HGA3     0.090000        1.0080           0
     50894 WT17     655      MECN     H12      HGA3     0.090000        1.0080           0
     50895 WT17     655      MECN     H13      HGA3     0.090000        1.0080           0
     50896 WT17     655      MECN     C2       CG1N1    0.360000       12.0110           0
     50897 WT17     655      MECN     N3       NG1T1   -0.460000       14.0070           0
     50898 WT17     656      MECN     C1       CG331   -0.170000       12.0110           0
     50899 WT17     656      MECN     H11      HGA3     0.090000        1.0080           0
     50900 WT17     656      MECN     H12      HGA3     0.090000        1.0080           0
     50901 WT17     656      MECN     H13      HGA3     0.090000        1.0080           0
     50902 WT17     656      MECN     C2       CG1N1    0.360000       12.0110           0
     50903 WT17     656      MECN     N3       NG1T1   -0.460000       14.0070           0
     50904 WT17     657      MECN     C1       CG331   -0.170000       12.0110           0
     50905 WT17     657      MECN     H11      HGA3     0.090000        1.0080           0
     50906 WT17     657      MECN     H12      HGA3     0.090000        1.0080           0
     50907 WT17     657      MECN     H13      HGA3     0.090000        1.0080           0
     50908 WT17     657      MECN     C2       CG1N1    0.360000       12.0110           0
     50909 WT17     657      MECN     N3       NG1T1   -0.460000       14.0070           0
     50910 WT17     662      MECN     C1       CG331   -0.170000       12.0110           0
     50911 WT17     662      MECN     H11      HGA3     0.090000        1.0080           0
     50912 WT17     662      MECN     H12      HGA3     0.090000        1.0080           0
     50913 WT17     662      MECN     H13      HGA3     0.090000        1.0080           0
     50914 WT17     662      MECN     C2       CG1N1    0.360000       12.0110           0
     50915 WT17     662      MECN     N3       NG1T1   -0.460000       14.0070           0
     50916 WT17     664      MECN     C1       CG331   -0.170000       12.0110           0
     50917 WT17     664      MECN     H11      HGA3     0.090000        1.0080           0
     50918 WT17     664      MECN     H12      HGA3     0.090000        1.0080           0
     50919 WT17     664      MECN     H13      HGA3     0.090000        1.0080           0
     50920 WT17     664      MECN     C2       CG1N1    0.360000       12.0110           0
     50921 WT17     664      MECN     N3       NG1T1   -0.460000       14.0070           0
     50922 WT17     665      MECN     C1       CG331   -0.170000       12.0110           0
     50923 WT17     665      MECN     H11      HGA3     0.090000        1.0080           0
     50924 WT17     665      MECN     H12      HGA3     0.090000        1.0080           0
     50925 WT17     665      MECN     H13      HGA3     0.090000        1.0080           0
     50926 WT17     665      MECN     C2       CG1N1    0.360000       12.0110           0
     50927 WT17     665      MECN     N3       NG1T1   -0.460000       14.0070           0
     50928 WT17     666      MECN     C1       CG331   -0.170000       12.0110           0
     50929 WT17     666      MECN     H11      HGA3     0.090000        1.0080           0
     50930 WT17     666      MECN     H12      HGA3     0.090000        1.0080           0
     50931 WT17     666      MECN     H13      HGA3     0.090000        1.0080           0
     50932 WT17     666      MECN     C2       CG1N1    0.360000       12.0110           0
     50933 WT17     666      MECN     N3       NG1T1   -0.460000       14.0070           0
     50934 WT17     667      MECN     C1       CG331   -0.170000       12.0110           0
     50935 WT17     667      MECN     H11      HGA3     0.090000        1.0080           0
     50936 WT17     667      MECN     H12      HGA3     0.090000        1.0080           0
     50937 WT17     667      MECN     H13      HGA3     0.090000        1.0080           0
     50938 WT17     667      MECN     C2       CG1N1    0.360000       12.0110           0
     50939 WT17     667      MECN     N3       NG1T1   -0.460000       14.0070           0
     50940 WT17     668      MECN     C1       CG331   -0.170000       12.0110           0
     50941 WT17     668      MECN     H11      HGA3     0.090000        1.0080           0
     50942 WT17     668      MECN     H12      HGA3     0.090000        1.0080           0
     50943 WT17     668      MECN     H13      HGA3     0.090000        1.0080           0
     50944 WT17     668      MECN     C2       CG1N1    0.360000       12.0110           0
     50945 WT17     668      MECN     N3       NG1T1   -0.460000       14.0070           0
     50946 WT17     669      MECN     C1       CG331   -0.170000       12.0110           0
     50947 WT17     669      MECN     H11      HGA3     0.090000        1.0080           0
     50948 WT17     669      MECN     H12      HGA3     0.090000        1.0080           0
     50949 WT17     669      MECN     H13      HGA3     0.090000        1.0080           0
     50950 WT17     669      MECN     C2       CG1N1    0.360000       12.0110           0
     50951 WT17     669      MECN     N3       NG1T1   -0.460000       14.0070           0
     50952 WT17     671      MECN     C1       CG331   -0.170000       12.0110           0
     50953 WT17     671      MECN     H11      HGA3     0.090000        1.0080           0
     50954 WT17     671      MECN     H12      HGA3     0.090000        1.0080           0
     50955 WT17     671      MECN     H13      HGA3     0.090000        1.0080           0
     50956 WT17     671      MECN     C2       CG1N1    0.360000       12.0110           0
     50957 WT17     671      MECN     N3       NG1T1   -0.460000       14.0070           0
     50958 WT17     672      MECN     C1       CG331   -0.170000       12.0110           0
     50959 WT17     672      MECN     H11      HGA3     0.090000        1.0080           0
     50960 WT17     672      MECN     H12      HGA3     0.090000        1.0080           0
     50961 WT17     672      MECN     H13      HGA3     0.090000        1.0080           0
     50962 WT17     672      MECN     C2       CG1N1    0.360000       12.0110           0
     50963 WT17     672      MECN     N3       NG1T1   -0.460000       14.0070           0
     50964 WT17     675      MECN     C1       CG331   -0.170000       12.0110           0
     50965 WT17     675      MECN     H11      HGA3     0.090000        1.0080           0
     50966 WT17     675      MECN     H12      HGA3     0.090000        1.0080           0
     50967 WT17     675      MECN     H13      HGA3     0.090000        1.0080           0
     50968 WT17     675      MECN     C2       CG1N1    0.360000       12.0110           0
     50969 WT17     675      MECN     N3       NG1T1   -0.460000       14.0070           0
     50970 WT17     676      MECN     C1       CG331   -0.170000       12.0110           0
     50971 WT17     676      MECN     H11      HGA3     0.090000        1.0080           0
     50972 WT17     676      MECN     H12      HGA3     0.090000        1.0080           0
     50973 WT17     676      MECN     H13      HGA3     0.090000        1.0080           0
     50974 WT17     676      MECN     C2       CG1N1    0.360000       12.0110           0
     50975 WT17     676      MECN     N3       NG1T1   -0.460000       14.0070           0
     50976 WT17     678      MECN     C1       CG331   -0.170000       12.0110           0
     50977 WT17     678      MECN     H11      HGA3     0.090000        1.0080           0
     50978 WT17     678      MECN     H12      HGA3     0.090000        1.0080           0
     50979 WT17     678      MECN     H13      HGA3     0.090000        1.0080           0
     50980 WT17     678      MECN     C2       CG1N1    0.360000       12.0110           0
     50981 WT17     678      MECN     N3       NG1T1   -0.460000       14.0070           0
     50982 WT17     681      MECN     C1       CG331   -0.170000       12.0110           0
     50983 WT17     681      MECN     H11      HGA3     0.090000        1.0080           0
     50984 WT17     681      MECN     H12      HGA3     0.090000        1.0080           0
     50985 WT17     681      MECN     H13      HGA3     0.090000        1.0080           0
     50986 WT17     681      MECN     C2       CG1N1    0.360000       12.0110           0
     50987 WT17     681      MECN     N3       NG1T1   -0.460000       14.0070           0
     50988 WT17     683      MECN     C1       CG331   -0.170000       12.0110           0
     50989 WT17     683      MECN     H11      HGA3     0.090000        1.0080           0
     50990 WT17     683      MECN     H12      HGA3     0.090000        1.0080           0
     50991 WT17     683      MECN     H13      HGA3     0.090000        1.0080           0
     50992 WT17     683      MECN     C2       CG1N1    0.360000       12.0110           0
     50993 WT17     683      MECN     N3       NG1T1   -0.460000       14.0070           0
     50994 WT17     685      MECN     C1       CG331   -0.170000       12.0110           0
     50995 WT17     685      MECN     H11      HGA3     0.090000        1.0080           0
     50996 WT17     685      MECN     H12      HGA3     0.090000        1.0080           0
     50997 WT17     685      MECN     H13      HGA3     0.090000        1.0080           0
     50998 WT17     685      MECN     C2       CG1N1    0.360000       12.0110           0
     50999 WT17     685      MECN     N3       NG1T1   -0.460000       14.0070           0
     51000 WT17     686      MECN     C1       CG331   -0.170000       12.0110           0
     51001 WT17     686      MECN     H11      HGA3     0.090000        1.0080           0
     51002 WT17     686      MECN     H12      HGA3     0.090000        1.0080           0
     51003 WT17     686      MECN     H13      HGA3     0.090000        1.0080           0
     51004 WT17     686      MECN     C2       CG1N1    0.360000       12.0110           0
     51005 WT17     686      MECN     N3       NG1T1   -0.460000       14.0070           0
     51006 WT17     687      MECN     C1       CG331   -0.170000       12.0110           0
     51007 WT17     687      MECN     H11      HGA3     0.090000        1.0080           0
     51008 WT17     687      MECN     H12      HGA3     0.090000        1.0080           0
     51009 WT17     687      MECN     H13      HGA3     0.090000        1.0080           0
     51010 WT17     687      MECN     C2       CG1N1    0.360000       12.0110           0
     51011 WT17     687      MECN     N3       NG1T1   -0.460000       14.0070           0
     51012 WT17     689      MECN     C1       CG331   -0.170000       12.0110           0
     51013 WT17     689      MECN     H11      HGA3     0.090000        1.0080           0
     51014 WT17     689      MECN     H12      HGA3     0.090000        1.0080           0
     51015 WT17     689      MECN     H13      HGA3     0.090000        1.0080           0
     51016 WT17     689      MECN     C2       CG1N1    0.360000       12.0110           0
     51017 WT17     689      MECN     N3       NG1T1   -0.460000       14.0070           0
     51018 WT17     690      MECN     C1       CG331   -0.170000       12.0110           0
     51019 WT17     690      MECN     H11      HGA3     0.090000        1.0080           0
     51020 WT17     690      MECN     H12      HGA3     0.090000        1.0080           0
     51021 WT17     690      MECN     H13      HGA3     0.090000        1.0080           0
     51022 WT17     690      MECN     C2       CG1N1    0.360000       12.0110           0
     51023 WT17     690      MECN     N3       NG1T1   -0.460000       14.0070           0
     51024 WT17     691      MECN     C1       CG331   -0.170000       12.0110           0
     51025 WT17     691      MECN     H11      HGA3     0.090000        1.0080           0
     51026 WT17     691      MECN     H12      HGA3     0.090000        1.0080           0
     51027 WT17     691      MECN     H13      HGA3     0.090000        1.0080           0
     51028 WT17     691      MECN     C2       CG1N1    0.360000       12.0110           0
     51029 WT17     691      MECN     N3       NG1T1   -0.460000       14.0070           0
     51030 WT17     693      MECN     C1       CG331   -0.170000       12.0110           0
     51031 WT17     693      MECN     H11      HGA3     0.090000        1.0080           0
     51032 WT17     693      MECN     H12      HGA3     0.090000        1.0080           0
     51033 WT17     693      MECN     H13      HGA3     0.090000        1.0080           0
     51034 WT17     693      MECN     C2       CG1N1    0.360000       12.0110           0
     51035 WT17     693      MECN     N3       NG1T1   -0.460000       14.0070           0
     51036 WT17     695      MECN     C1       CG331   -0.170000       12.0110           0
     51037 WT17     695      MECN     H11      HGA3     0.090000        1.0080           0
     51038 WT17     695      MECN     H12      HGA3     0.090000        1.0080           0
     51039 WT17     695      MECN     H13      HGA3     0.090000        1.0080           0
     51040 WT17     695      MECN     C2       CG1N1    0.360000       12.0110           0
     51041 WT17     695      MECN     N3       NG1T1   -0.460000       14.0070           0
     51042 WT17     696      MECN     C1       CG331   -0.170000       12.0110           0
     51043 WT17     696      MECN     H11      HGA3     0.090000        1.0080           0
     51044 WT17     696      MECN     H12      HGA3     0.090000        1.0080           0
     51045 WT17     696      MECN     H13      HGA3     0.090000        1.0080           0
     51046 WT17     696      MECN     C2       CG1N1    0.360000       12.0110           0
     51047 WT17     696      MECN     N3       NG1T1   -0.460000       14.0070           0
     51048 WT17     697      MECN     C1       CG331   -0.170000       12.0110           0
     51049 WT17     697      MECN     H11      HGA3     0.090000        1.0080           0
     51050 WT17     697      MECN     H12      HGA3     0.090000        1.0080           0
     51051 WT17     697      MECN     H13      HGA3     0.090000        1.0080           0
     51052 WT17     697      MECN     C2       CG1N1    0.360000       12.0110           0
     51053 WT17     697      MECN     N3       NG1T1   -0.460000       14.0070           0
     51054 WT17     698      MECN     C1       CG331   -0.170000       12.0110           0
     51055 WT17     698      MECN     H11      HGA3     0.090000        1.0080           0
     51056 WT17     698      MECN     H12      HGA3     0.090000        1.0080           0
     51057 WT17     698      MECN     H13      HGA3     0.090000        1.0080           0
     51058 WT17     698      MECN     C2       CG1N1    0.360000       12.0110           0
     51059 WT17     698      MECN     N3       NG1T1   -0.460000       14.0070           0
     51060 WT17     701      MECN     C1       CG331   -0.170000       12.0110           0
     51061 WT17     701      MECN     H11      HGA3     0.090000        1.0080           0
     51062 WT17     701      MECN     H12      HGA3     0.090000        1.0080           0
     51063 WT17     701      MECN     H13      HGA3     0.090000        1.0080           0
     51064 WT17     701      MECN     C2       CG1N1    0.360000       12.0110           0
     51065 WT17     701      MECN     N3       NG1T1   -0.460000       14.0070           0
     51066 WT17     702      MECN     C1       CG331   -0.170000       12.0110           0
     51067 WT17     702      MECN     H11      HGA3     0.090000        1.0080           0
     51068 WT17     702      MECN     H12      HGA3     0.090000        1.0080           0
     51069 WT17     702      MECN     H13      HGA3     0.090000        1.0080           0
     51070 WT17     702      MECN     C2       CG1N1    0.360000       12.0110           0
     51071 WT17     702      MECN     N3       NG1T1   -0.460000       14.0070           0
     51072 WT17     703      MECN     C1       CG331   -0.170000       12.0110           0
     51073 WT17     703      MECN     H11      HGA3     0.090000        1.0080           0
     51074 WT17     703      MECN     H12      HGA3     0.090000        1.0080           0
     51075 WT17     703      MECN     H13      HGA3     0.090000        1.0080           0
     51076 WT17     703      MECN     C2       CG1N1    0.360000       12.0110           0
     51077 WT17     703      MECN     N3       NG1T1   -0.460000       14.0070           0
     51078 WT17     707      MECN     C1       CG331   -0.170000       12.0110           0
     51079 WT17     707      MECN     H11      HGA3     0.090000        1.0080           0
     51080 WT17     707      MECN     H12      HGA3     0.090000        1.0080           0
     51081 WT17     707      MECN     H13      HGA3     0.090000        1.0080           0
     51082 WT17     707      MECN     C2       CG1N1    0.360000       12.0110           0
     51083 WT17     707      MECN     N3       NG1T1   -0.460000       14.0070           0
     51084 WT17     711      MECN     C1       CG331   -0.170000       12.0110           0
     51085 WT17     711      MECN     H11      HGA3     0.090000        1.0080           0
     51086 WT17     711      MECN     H12      HGA3     0.090000        1.0080           0
     51087 WT17     711      MECN     H13      HGA3     0.090000        1.0080           0
     51088 WT17     711      MECN     C2       CG1N1    0.360000       12.0110           0
     51089 WT17     711      MECN     N3       NG1T1   -0.460000       14.0070           0
     51090 WT17     713      MECN     C1       CG331   -0.170000       12.0110           0
     51091 WT17     713      MECN     H11      HGA3     0.090000        1.0080           0
     51092 WT17     713      MECN     H12      HGA3     0.090000        1.0080           0
     51093 WT17     713      MECN     H13      HGA3     0.090000        1.0080           0
     51094 WT17     713      MECN     C2       CG1N1    0.360000       12.0110           0
     51095 WT17     713      MECN     N3       NG1T1   -0.460000       14.0070           0
     51096 WT17     716      MECN     C1       CG331   -0.170000       12.0110           0
     51097 WT17     716      MECN     H11      HGA3     0.090000        1.0080           0
     51098 WT17     716      MECN     H12      HGA3     0.090000        1.0080           0
     51099 WT17     716      MECN     H13      HGA3     0.090000        1.0080           0
     51100 WT17     716      MECN     C2       CG1N1    0.360000       12.0110           0
     51101 WT17     716      MECN     N3       NG1T1   -0.460000       14.0070           0
     51102 WT17     718      MECN     C1       CG331   -0.170000       12.0110           0
     51103 WT17     718      MECN     H11      HGA3     0.090000        1.0080           0
     51104 WT17     718      MECN     H12      HGA3     0.090000        1.0080           0
     51105 WT17     718      MECN     H13      HGA3     0.090000        1.0080           0
     51106 WT17     718      MECN     C2       CG1N1    0.360000       12.0110           0
     51107 WT17     718      MECN     N3       NG1T1   -0.460000       14.0070           0
     51108 WT17     719      MECN     C1       CG331   -0.170000       12.0110           0
     51109 WT17     719      MECN     H11      HGA3     0.090000        1.0080           0
     51110 WT17     719      MECN     H12      HGA3     0.090000        1.0080           0
     51111 WT17     719      MECN     H13      HGA3     0.090000        1.0080           0
     51112 WT17     719      MECN     C2       CG1N1    0.360000       12.0110           0
     51113 WT17     719      MECN     N3       NG1T1   -0.460000       14.0070           0
     51114 WT17     720      MECN     C1       CG331   -0.170000       12.0110           0
     51115 WT17     720      MECN     H11      HGA3     0.090000        1.0080           0
     51116 WT17     720      MECN     H12      HGA3     0.090000        1.0080           0
     51117 WT17     720      MECN     H13      HGA3     0.090000        1.0080           0
     51118 WT17     720      MECN     C2       CG1N1    0.360000       12.0110           0
     51119 WT17     720      MECN     N3       NG1T1   -0.460000       14.0070           0
     51120 WT17     721      MECN     C1       CG331   -0.170000       12.0110           0
     51121 WT17     721      MECN     H11      HGA3     0.090000        1.0080           0
     51122 WT17     721      MECN     H12      HGA3     0.090000        1.0080           0
     51123 WT17     721      MECN     H13      HGA3     0.090000        1.0080           0
     51124 WT17     721      MECN     C2       CG1N1    0.360000       12.0110           0
     51125 WT17     721      MECN     N3       NG1T1   -0.460000       14.0070           0
     51126 WT17     723      MECN     C1       CG331   -0.170000       12.0110           0
     51127 WT17     723      MECN     H11      HGA3     0.090000        1.0080           0
     51128 WT17     723      MECN     H12      HGA3     0.090000        1.0080           0
     51129 WT17     723      MECN     H13      HGA3     0.090000        1.0080           0
     51130 WT17     723      MECN     C2       CG1N1    0.360000       12.0110           0
     51131 WT17     723      MECN     N3       NG1T1   -0.460000       14.0070           0
     51132 WT17     724      MECN     C1       CG331   -0.170000       12.0110           0
     51133 WT17     724      MECN     H11      HGA3     0.090000        1.0080           0
     51134 WT17     724      MECN     H12      HGA3     0.090000        1.0080           0
     51135 WT17     724      MECN     H13      HGA3     0.090000        1.0080           0
     51136 WT17     724      MECN     C2       CG1N1    0.360000       12.0110           0
     51137 WT17     724      MECN     N3       NG1T1   -0.460000       14.0070           0
     51138 WT17     725      MECN     C1       CG331   -0.170000       12.0110           0
     51139 WT17     725      MECN     H11      HGA3     0.090000        1.0080           0
     51140 WT17     725      MECN     H12      HGA3     0.090000        1.0080           0
     51141 WT17     725      MECN     H13      HGA3     0.090000        1.0080           0
     51142 WT17     725      MECN     C2       CG1N1    0.360000       12.0110           0
     51143 WT17     725      MECN     N3       NG1T1   -0.460000       14.0070           0
     51144 WT17     727      MECN     C1       CG331   -0.170000       12.0110           0
     51145 WT17     727      MECN     H11      HGA3     0.090000        1.0080           0
     51146 WT17     727      MECN     H12      HGA3     0.090000        1.0080           0
     51147 WT17     727      MECN     H13      HGA3     0.090000        1.0080           0
     51148 WT17     727      MECN     C2       CG1N1    0.360000       12.0110           0
     51149 WT17     727      MECN     N3       NG1T1   -0.460000       14.0070           0
     51150 WT17     729      MECN     C1       CG331   -0.170000       12.0110           0
     51151 WT17     729      MECN     H11      HGA3     0.090000        1.0080           0
     51152 WT17     729      MECN     H12      HGA3     0.090000        1.0080           0
     51153 WT17     729      MECN     H13      HGA3     0.090000        1.0080           0
     51154 WT17     729      MECN     C2       CG1N1    0.360000       12.0110           0
     51155 WT17     729      MECN     N3       NG1T1   -0.460000       14.0070           0
     51156 WT17     730      MECN     C1       CG331   -0.170000       12.0110           0
     51157 WT17     730      MECN     H11      HGA3     0.090000        1.0080           0
     51158 WT17     730      MECN     H12      HGA3     0.090000        1.0080           0
     51159 WT17     730      MECN     H13      HGA3     0.090000        1.0080           0
     51160 WT17     730      MECN     C2       CG1N1    0.360000       12.0110           0
     51161 WT17     730      MECN     N3       NG1T1   -0.460000       14.0070           0
     51162 WT17     732      MECN     C1       CG331   -0.170000       12.0110           0
     51163 WT17     732      MECN     H11      HGA3     0.090000        1.0080           0
     51164 WT17     732      MECN     H12      HGA3     0.090000        1.0080           0
     51165 WT17     732      MECN     H13      HGA3     0.090000        1.0080           0
     51166 WT17     732      MECN     C2       CG1N1    0.360000       12.0110           0
     51167 WT17     732      MECN     N3       NG1T1   -0.460000       14.0070           0
     51168 WT17     733      MECN     C1       CG331   -0.170000       12.0110           0
     51169 WT17     733      MECN     H11      HGA3     0.090000        1.0080           0
     51170 WT17     733      MECN     H12      HGA3     0.090000        1.0080           0
     51171 WT17     733      MECN     H13      HGA3     0.090000        1.0080           0
     51172 WT17     733      MECN     C2       CG1N1    0.360000       12.0110           0
     51173 WT17     733      MECN     N3       NG1T1   -0.460000       14.0070           0
     51174 WT17     734      MECN     C1       CG331   -0.170000       12.0110           0
     51175 WT17     734      MECN     H11      HGA3     0.090000        1.0080           0
     51176 WT17     734      MECN     H12      HGA3     0.090000        1.0080           0
     51177 WT17     734      MECN     H13      HGA3     0.090000        1.0080           0
     51178 WT17     734      MECN     C2       CG1N1    0.360000       12.0110           0
     51179 WT17     734      MECN     N3       NG1T1   -0.460000       14.0070           0
     51180 WT17     735      MECN     C1       CG331   -0.170000       12.0110           0
     51181 WT17     735      MECN     H11      HGA3     0.090000        1.0080           0
     51182 WT17     735      MECN     H12      HGA3     0.090000        1.0080           0
     51183 WT17     735      MECN     H13      HGA3     0.090000        1.0080           0
     51184 WT17     735      MECN     C2       CG1N1    0.360000       12.0110           0
     51185 WT17     735      MECN     N3       NG1T1   -0.460000       14.0070           0
     51186 WT17     736      MECN     C1       CG331   -0.170000       12.0110           0
     51187 WT17     736      MECN     H11      HGA3     0.090000        1.0080           0
     51188 WT17     736      MECN     H12      HGA3     0.090000        1.0080           0
     51189 WT17     736      MECN     H13      HGA3     0.090000        1.0080           0
     51190 WT17     736      MECN     C2       CG1N1    0.360000       12.0110           0
     51191 WT17     736      MECN     N3       NG1T1   -0.460000       14.0070           0
     51192 WT17     738      MECN     C1       CG331   -0.170000       12.0110           0
     51193 WT17     738      MECN     H11      HGA3     0.090000        1.0080           0
     51194 WT17     738      MECN     H12      HGA3     0.090000        1.0080           0
     51195 WT17     738      MECN     H13      HGA3     0.090000        1.0080           0
     51196 WT17     738      MECN     C2       CG1N1    0.360000       12.0110           0
     51197 WT17     738      MECN     N3       NG1T1   -0.460000       14.0070           0
     51198 WT17     739      MECN     C1       CG331   -0.170000       12.0110           0
     51199 WT17     739      MECN     H11      HGA3     0.090000        1.0080           0
     51200 WT17     739      MECN     H12      HGA3     0.090000        1.0080           0
     51201 WT17     739      MECN     H13      HGA3     0.090000        1.0080           0
     51202 WT17     739      MECN     C2       CG1N1    0.360000       12.0110           0
     51203 WT17     739      MECN     N3       NG1T1   -0.460000       14.0070           0
     51204 WT17     740      MECN     C1       CG331   -0.170000       12.0110           0
     51205 WT17     740      MECN     H11      HGA3     0.090000        1.0080           0
     51206 WT17     740      MECN     H12      HGA3     0.090000        1.0080           0
     51207 WT17     740      MECN     H13      HGA3     0.090000        1.0080           0
     51208 WT17     740      MECN     C2       CG1N1    0.360000       12.0110           0
     51209 WT17     740      MECN     N3       NG1T1   -0.460000       14.0070           0
     51210 WT17     742      MECN     C1       CG331   -0.170000       12.0110           0
     51211 WT17     742      MECN     H11      HGA3     0.090000        1.0080           0
     51212 WT17     742      MECN     H12      HGA3     0.090000        1.0080           0
     51213 WT17     742      MECN     H13      HGA3     0.090000        1.0080           0
     51214 WT17     742      MECN     C2       CG1N1    0.360000       12.0110           0
     51215 WT17     742      MECN     N3       NG1T1   -0.460000       14.0070           0
     51216 WT17     745      MECN     C1       CG331   -0.170000       12.0110           0
     51217 WT17     745      MECN     H11      HGA3     0.090000        1.0080           0
     51218 WT17     745      MECN     H12      HGA3     0.090000        1.0080           0
     51219 WT17     745      MECN     H13      HGA3     0.090000        1.0080           0
     51220 WT17     745      MECN     C2       CG1N1    0.360000       12.0110           0
     51221 WT17     745      MECN     N3       NG1T1   -0.460000       14.0070           0
     51222 WT17     746      MECN     C1       CG331   -0.170000       12.0110           0
     51223 WT17     746      MECN     H11      HGA3     0.090000        1.0080           0
     51224 WT17     746      MECN     H12      HGA3     0.090000        1.0080           0
     51225 WT17     746      MECN     H13      HGA3     0.090000        1.0080           0
     51226 WT17     746      MECN     C2       CG1N1    0.360000       12.0110           0
     51227 WT17     746      MECN     N3       NG1T1   -0.460000       14.0070           0
     51228 WT17     748      MECN     C1       CG331   -0.170000       12.0110           0
     51229 WT17     748      MECN     H11      HGA3     0.090000        1.0080           0
     51230 WT17     748      MECN     H12      HGA3     0.090000        1.0080           0
     51231 WT17     748      MECN     H13      HGA3     0.090000        1.0080           0
     51232 WT17     748      MECN     C2       CG1N1    0.360000       12.0110           0
     51233 WT17     748      MECN     N3       NG1T1   -0.460000       14.0070           0
     51234 WT17     750      MECN     C1       CG331   -0.170000       12.0110           0
     51235 WT17     750      MECN     H11      HGA3     0.090000        1.0080           0
     51236 WT17     750      MECN     H12      HGA3     0.090000        1.0080           0
     51237 WT17     750      MECN     H13      HGA3     0.090000        1.0080           0
     51238 WT17     750      MECN     C2       CG1N1    0.360000       12.0110           0
     51239 WT17     750      MECN     N3       NG1T1   -0.460000       14.0070           0
     51240 WT17     751      MECN     C1       CG331   -0.170000       12.0110           0
     51241 WT17     751      MECN     H11      HGA3     0.090000        1.0080           0
     51242 WT17     751      MECN     H12      HGA3     0.090000        1.0080           0
     51243 WT17     751      MECN     H13      HGA3     0.090000        1.0080           0
     51244 WT17     751      MECN     C2       CG1N1    0.360000       12.0110           0
     51245 WT17     751      MECN     N3       NG1T1   -0.460000       14.0070           0
     51246 WT17     752      MECN     C1       CG331   -0.170000       12.0110           0
     51247 WT17     752      MECN     H11      HGA3     0.090000        1.0080           0
     51248 WT17     752      MECN     H12      HGA3     0.090000        1.0080           0
     51249 WT17     752      MECN     H13      HGA3     0.090000        1.0080           0
     51250 WT17     752      MECN     C2       CG1N1    0.360000       12.0110           0
     51251 WT17     752      MECN     N3       NG1T1   -0.460000       14.0070           0
     51252 WT17     753      MECN     C1       CG331   -0.170000       12.0110           0
     51253 WT17     753      MECN     H11      HGA3     0.090000        1.0080           0
     51254 WT17     753      MECN     H12      HGA3     0.090000        1.0080           0
     51255 WT17     753      MECN     H13      HGA3     0.090000        1.0080           0
     51256 WT17     753      MECN     C2       CG1N1    0.360000       12.0110           0
     51257 WT17     753      MECN     N3       NG1T1   -0.460000       14.0070           0
     51258 WT17     758      MECN     C1       CG331   -0.170000       12.0110           0
     51259 WT17     758      MECN     H11      HGA3     0.090000        1.0080           0
     51260 WT17     758      MECN     H12      HGA3     0.090000        1.0080           0
     51261 WT17     758      MECN     H13      HGA3     0.090000        1.0080           0
     51262 WT17     758      MECN     C2       CG1N1    0.360000       12.0110           0
     51263 WT17     758      MECN     N3       NG1T1   -0.460000       14.0070           0
     51264 WT17     759      MECN     C1       CG331   -0.170000       12.0110           0
     51265 WT17     759      MECN     H11      HGA3     0.090000        1.0080           0
     51266 WT17     759      MECN     H12      HGA3     0.090000        1.0080           0
     51267 WT17     759      MECN     H13      HGA3     0.090000        1.0080           0
     51268 WT17     759      MECN     C2       CG1N1    0.360000       12.0110           0
     51269 WT17     759      MECN     N3       NG1T1   -0.460000       14.0070           0
     51270 WT17     764      MECN     C1       CG331   -0.170000       12.0110           0
     51271 WT17     764      MECN     H11      HGA3     0.090000        1.0080           0
     51272 WT17     764      MECN     H12      HGA3     0.090000        1.0080           0
     51273 WT17     764      MECN     H13      HGA3     0.090000        1.0080           0
     51274 WT17     764      MECN     C2       CG1N1    0.360000       12.0110           0
     51275 WT17     764      MECN     N3       NG1T1   -0.460000       14.0070           0
     51276 WT17     767      MECN     C1       CG331   -0.170000       12.0110           0
     51277 WT17     767      MECN     H11      HGA3     0.090000        1.0080           0
     51278 WT17     767      MECN     H12      HGA3     0.090000        1.0080           0
     51279 WT17     767      MECN     H13      HGA3     0.090000        1.0080           0
     51280 WT17     767      MECN     C2       CG1N1    0.360000       12.0110           0
     51281 WT17     767      MECN     N3       NG1T1   -0.460000       14.0070           0
     51282 WT17     769      MECN     C1       CG331   -0.170000       12.0110           0
     51283 WT17     769      MECN     H11      HGA3     0.090000        1.0080           0
     51284 WT17     769      MECN     H12      HGA3     0.090000        1.0080           0
     51285 WT17     769      MECN     H13      HGA3     0.090000        1.0080           0
     51286 WT17     769      MECN     C2       CG1N1    0.360000       12.0110           0
     51287 WT17     769      MECN     N3       NG1T1   -0.460000       14.0070           0
     51288 WT17     771      MECN     C1       CG331   -0.170000       12.0110           0
     51289 WT17     771      MECN     H11      HGA3     0.090000        1.0080           0
     51290 WT17     771      MECN     H12      HGA3     0.090000        1.0080           0
     51291 WT17     771      MECN     H13      HGA3     0.090000        1.0080           0
     51292 WT17     771      MECN     C2       CG1N1    0.360000       12.0110           0
     51293 WT17     771      MECN     N3       NG1T1   -0.460000       14.0070           0
     51294 WT17     772      MECN     C1       CG331   -0.170000       12.0110           0
     51295 WT17     772      MECN     H11      HGA3     0.090000        1.0080           0
     51296 WT17     772      MECN     H12      HGA3     0.090000        1.0080           0
     51297 WT17     772      MECN     H13      HGA3     0.090000        1.0080           0
     51298 WT17     772      MECN     C2       CG1N1    0.360000       12.0110           0
     51299 WT17     772      MECN     N3       NG1T1   -0.460000       14.0070           0
     51300 WT17     774      MECN     C1       CG331   -0.170000       12.0110           0
     51301 WT17     774      MECN     H11      HGA3     0.090000        1.0080           0
     51302 WT17     774      MECN     H12      HGA3     0.090000        1.0080           0
     51303 WT17     774      MECN     H13      HGA3     0.090000        1.0080           0
     51304 WT17     774      MECN     C2       CG1N1    0.360000       12.0110           0
     51305 WT17     774      MECN     N3       NG1T1   -0.460000       14.0070           0
     51306 WT17     776      MECN     C1       CG331   -0.170000       12.0110           0
     51307 WT17     776      MECN     H11      HGA3     0.090000        1.0080           0
     51308 WT17     776      MECN     H12      HGA3     0.090000        1.0080           0
     51309 WT17     776      MECN     H13      HGA3     0.090000        1.0080           0
     51310 WT17     776      MECN     C2       CG1N1    0.360000       12.0110           0
     51311 WT17     776      MECN     N3       NG1T1   -0.460000       14.0070           0
     51312 WT17     779      MECN     C1       CG331   -0.170000       12.0110           0
     51313 WT17     779      MECN     H11      HGA3     0.090000        1.0080           0
     51314 WT17     779      MECN     H12      HGA3     0.090000        1.0080           0
     51315 WT17     779      MECN     H13      HGA3     0.090000        1.0080           0
     51316 WT17     779      MECN     C2       CG1N1    0.360000       12.0110           0
     51317 WT17     779      MECN     N3       NG1T1   -0.460000       14.0070           0
     51318 WT17     784      MECN     C1       CG331   -0.170000       12.0110           0
     51319 WT17     784      MECN     H11      HGA3     0.090000        1.0080           0
     51320 WT17     784      MECN     H12      HGA3     0.090000        1.0080           0
     51321 WT17     784      MECN     H13      HGA3     0.090000        1.0080           0
     51322 WT17     784      MECN     C2       CG1N1    0.360000       12.0110           0
     51323 WT17     784      MECN     N3       NG1T1   -0.460000       14.0070           0
     51324 WT17     785      MECN     C1       CG331   -0.170000       12.0110           0
     51325 WT17     785      MECN     H11      HGA3     0.090000        1.0080           0
     51326 WT17     785      MECN     H12      HGA3     0.090000        1.0080           0
     51327 WT17     785      MECN     H13      HGA3     0.090000        1.0080           0
     51328 WT17     785      MECN     C2       CG1N1    0.360000       12.0110           0
     51329 WT17     785      MECN     N3       NG1T1   -0.460000       14.0070           0
     51330 WT17     787      MECN     C1       CG331   -0.170000       12.0110           0
     51331 WT17     787      MECN     H11      HGA3     0.090000        1.0080           0
     51332 WT17     787      MECN     H12      HGA3     0.090000        1.0080           0
     51333 WT17     787      MECN     H13      HGA3     0.090000        1.0080           0
     51334 WT17     787      MECN     C2       CG1N1    0.360000       12.0110           0
     51335 WT17     787      MECN     N3       NG1T1   -0.460000       14.0070           0
     51336 WT17     790      MECN     C1       CG331   -0.170000       12.0110           0
     51337 WT17     790      MECN     H11      HGA3     0.090000        1.0080           0
     51338 WT17     790      MECN     H12      HGA3     0.090000        1.0080           0
     51339 WT17     790      MECN     H13      HGA3     0.090000        1.0080           0
     51340 WT17     790      MECN     C2       CG1N1    0.360000       12.0110           0
     51341 WT17     790      MECN     N3       NG1T1   -0.460000       14.0070           0
     51342 WT17     792      MECN     C1       CG331   -0.170000       12.0110           0
     51343 WT17     792      MECN     H11      HGA3     0.090000        1.0080           0
     51344 WT17     792      MECN     H12      HGA3     0.090000        1.0080           0
     51345 WT17     792      MECN     H13      HGA3     0.090000        1.0080           0
     51346 WT17     792      MECN     C2       CG1N1    0.360000       12.0110           0
     51347 WT17     792      MECN     N3       NG1T1   -0.460000       14.0070           0
     51348 WT17     793      MECN     C1       CG331   -0.170000       12.0110           0
     51349 WT17     793      MECN     H11      HGA3     0.090000        1.0080           0
     51350 WT17     793      MECN     H12      HGA3     0.090000        1.0080           0
     51351 WT17     793      MECN     H13      HGA3     0.090000        1.0080           0
     51352 WT17     793      MECN     C2       CG1N1    0.360000       12.0110           0
     51353 WT17     793      MECN     N3       NG1T1   -0.460000       14.0070           0
     51354 WT17     795      MECN     C1       CG331   -0.170000       12.0110           0
     51355 WT17     795      MECN     H11      HGA3     0.090000        1.0080           0
     51356 WT17     795      MECN     H12      HGA3     0.090000        1.0080           0
     51357 WT17     795      MECN     H13      HGA3     0.090000        1.0080           0
     51358 WT17     795      MECN     C2       CG1N1    0.360000       12.0110           0
     51359 WT17     795      MECN     N3       NG1T1   -0.460000       14.0070           0
     51360 WT17     796      MECN     C1       CG331   -0.170000       12.0110           0
     51361 WT17     796      MECN     H11      HGA3     0.090000        1.0080           0
     51362 WT17     796      MECN     H12      HGA3     0.090000        1.0080           0
     51363 WT17     796      MECN     H13      HGA3     0.090000        1.0080           0
     51364 WT17     796      MECN     C2       CG1N1    0.360000       12.0110           0
     51365 WT17     796      MECN     N3       NG1T1   -0.460000       14.0070           0
     51366 WT17     797      MECN     C1       CG331   -0.170000       12.0110           0
     51367 WT17     797      MECN     H11      HGA3     0.090000        1.0080           0
     51368 WT17     797      MECN     H12      HGA3     0.090000        1.0080           0
     51369 WT17     797      MECN     H13      HGA3     0.090000        1.0080           0
     51370 WT17     797      MECN     C2       CG1N1    0.360000       12.0110           0
     51371 WT17     797      MECN     N3       NG1T1   -0.460000       14.0070           0
     51372 WT17     798      MECN     C1       CG331   -0.170000       12.0110           0
     51373 WT17     798      MECN     H11      HGA3     0.090000        1.0080           0
     51374 WT17     798      MECN     H12      HGA3     0.090000        1.0080           0
     51375 WT17     798      MECN     H13      HGA3     0.090000        1.0080           0
     51376 WT17     798      MECN     C2       CG1N1    0.360000       12.0110           0
     51377 WT17     798      MECN     N3       NG1T1   -0.460000       14.0070           0
     51378 WT17     801      MECN     C1       CG331   -0.170000       12.0110           0
     51379 WT17     801      MECN     H11      HGA3     0.090000        1.0080           0
     51380 WT17     801      MECN     H12      HGA3     0.090000        1.0080           0
     51381 WT17     801      MECN     H13      HGA3     0.090000        1.0080           0
     51382 WT17     801      MECN     C2       CG1N1    0.360000       12.0110           0
     51383 WT17     801      MECN     N3       NG1T1   -0.460000       14.0070           0
     51384 WT17     802      MECN     C1       CG331   -0.170000       12.0110           0
     51385 WT17     802      MECN     H11      HGA3     0.090000        1.0080           0
     51386 WT17     802      MECN     H12      HGA3     0.090000        1.0080           0
     51387 WT17     802      MECN     H13      HGA3     0.090000        1.0080           0
     51388 WT17     802      MECN     C2       CG1N1    0.360000       12.0110           0
     51389 WT17     802      MECN     N3       NG1T1   -0.460000       14.0070           0
     51390 WT17     804      MECN     C1       CG331   -0.170000       12.0110           0
     51391 WT17     804      MECN     H11      HGA3     0.090000        1.0080           0
     51392 WT17     804      MECN     H12      HGA3     0.090000        1.0080           0
     51393 WT17     804      MECN     H13      HGA3     0.090000        1.0080           0
     51394 WT17     804      MECN     C2       CG1N1    0.360000       12.0110           0
     51395 WT17     804      MECN     N3       NG1T1   -0.460000       14.0070           0
     51396 WT17     806      MECN     C1       CG331   -0.170000       12.0110           0
     51397 WT17     806      MECN     H11      HGA3     0.090000        1.0080           0
     51398 WT17     806      MECN     H12      HGA3     0.090000        1.0080           0
     51399 WT17     806      MECN     H13      HGA3     0.090000        1.0080           0
     51400 WT17     806      MECN     C2       CG1N1    0.360000       12.0110           0
     51401 WT17     806      MECN     N3       NG1T1   -0.460000       14.0070           0
     51402 WT17     807      MECN     C1       CG331   -0.170000       12.0110           0
     51403 WT17     807      MECN     H11      HGA3     0.090000        1.0080           0
     51404 WT17     807      MECN     H12      HGA3     0.090000        1.0080           0
     51405 WT17     807      MECN     H13      HGA3     0.090000        1.0080           0
     51406 WT17     807      MECN     C2       CG1N1    0.360000       12.0110           0
     51407 WT17     807      MECN     N3       NG1T1   -0.460000       14.0070           0
     51408 WT17     808      MECN     C1       CG331   -0.170000       12.0110           0
     51409 WT17     808      MECN     H11      HGA3     0.090000        1.0080           0
     51410 WT17     808      MECN     H12      HGA3     0.090000        1.0080           0
     51411 WT17     808      MECN     H13      HGA3     0.090000        1.0080           0
     51412 WT17     808      MECN     C2       CG1N1    0.360000       12.0110           0
     51413 WT17     808      MECN     N3       NG1T1   -0.460000       14.0070           0
     51414 WT17     811      MECN     C1       CG331   -0.170000       12.0110           0
     51415 WT17     811      MECN     H11      HGA3     0.090000        1.0080           0
     51416 WT17     811      MECN     H12      HGA3     0.090000        1.0080           0
     51417 WT17     811      MECN     H13      HGA3     0.090000        1.0080           0
     51418 WT17     811      MECN     C2       CG1N1    0.360000       12.0110           0
     51419 WT17     811      MECN     N3       NG1T1   -0.460000       14.0070           0
     51420 WT17     812      MECN     C1       CG331   -0.170000       12.0110           0
     51421 WT17     812      MECN     H11      HGA3     0.090000        1.0080           0
     51422 WT17     812      MECN     H12      HGA3     0.090000        1.0080           0
     51423 WT17     812      MECN     H13      HGA3     0.090000        1.0080           0
     51424 WT17     812      MECN     C2       CG1N1    0.360000       12.0110           0
     51425 WT17     812      MECN     N3       NG1T1   -0.460000       14.0070           0
     51426 WT17     813      MECN     C1       CG331   -0.170000       12.0110           0
     51427 WT17     813      MECN     H11      HGA3     0.090000        1.0080           0
     51428 WT17     813      MECN     H12      HGA3     0.090000        1.0080           0
     51429 WT17     813      MECN     H13      HGA3     0.090000        1.0080           0
     51430 WT17     813      MECN     C2       CG1N1    0.360000       12.0110           0
     51431 WT17     813      MECN     N3       NG1T1   -0.460000       14.0070           0
     51432 WT17     816      MECN     C1       CG331   -0.170000       12.0110           0
     51433 WT17     816      MECN     H11      HGA3     0.090000        1.0080           0
     51434 WT17     816      MECN     H12      HGA3     0.090000        1.0080           0
     51435 WT17     816      MECN     H13      HGA3     0.090000        1.0080           0
     51436 WT17     816      MECN     C2       CG1N1    0.360000       12.0110           0
     51437 WT17     816      MECN     N3       NG1T1   -0.460000       14.0070           0
     51438 WT17     819      MECN     C1       CG331   -0.170000       12.0110           0
     51439 WT17     819      MECN     H11      HGA3     0.090000        1.0080           0
     51440 WT17     819      MECN     H12      HGA3     0.090000        1.0080           0
     51441 WT17     819      MECN     H13      HGA3     0.090000        1.0080           0
     51442 WT17     819      MECN     C2       CG1N1    0.360000       12.0110           0
     51443 WT17     819      MECN     N3       NG1T1   -0.460000       14.0070           0
     51444 WT17     820      MECN     C1       CG331   -0.170000       12.0110           0
     51445 WT17     820      MECN     H11      HGA3     0.090000        1.0080           0
     51446 WT17     820      MECN     H12      HGA3     0.090000        1.0080           0
     51447 WT17     820      MECN     H13      HGA3     0.090000        1.0080           0
     51448 WT17     820      MECN     C2       CG1N1    0.360000       12.0110           0
     51449 WT17     820      MECN     N3       NG1T1   -0.460000       14.0070           0
     51450 WT17     821      MECN     C1       CG331   -0.170000       12.0110           0
     51451 WT17     821      MECN     H11      HGA3     0.090000        1.0080           0
     51452 WT17     821      MECN     H12      HGA3     0.090000        1.0080           0
     51453 WT17     821      MECN     H13      HGA3     0.090000        1.0080           0
     51454 WT17     821      MECN     C2       CG1N1    0.360000       12.0110           0
     51455 WT17     821      MECN     N3       NG1T1   -0.460000       14.0070           0
     51456 WT17     823      MECN     C1       CG331   -0.170000       12.0110           0
     51457 WT17     823      MECN     H11      HGA3     0.090000        1.0080           0
     51458 WT17     823      MECN     H12      HGA3     0.090000        1.0080           0
     51459 WT17     823      MECN     H13      HGA3     0.090000        1.0080           0
     51460 WT17     823      MECN     C2       CG1N1    0.360000       12.0110           0
     51461 WT17     823      MECN     N3       NG1T1   -0.460000       14.0070           0
     51462 WT17     824      MECN     C1       CG331   -0.170000       12.0110           0
     51463 WT17     824      MECN     H11      HGA3     0.090000        1.0080           0
     51464 WT17     824      MECN     H12      HGA3     0.090000        1.0080           0
     51465 WT17     824      MECN     H13      HGA3     0.090000        1.0080           0
     51466 WT17     824      MECN     C2       CG1N1    0.360000       12.0110           0
     51467 WT17     824      MECN     N3       NG1T1   -0.460000       14.0070           0
     51468 WT17     825      MECN     C1       CG331   -0.170000       12.0110           0
     51469 WT17     825      MECN     H11      HGA3     0.090000        1.0080           0
     51470 WT17     825      MECN     H12      HGA3     0.090000        1.0080           0
     51471 WT17     825      MECN     H13      HGA3     0.090000        1.0080           0
     51472 WT17     825      MECN     C2       CG1N1    0.360000       12.0110           0
     51473 WT17     825      MECN     N3       NG1T1   -0.460000       14.0070           0
     51474 WT17     826      MECN     C1       CG331   -0.170000       12.0110           0
     51475 WT17     826      MECN     H11      HGA3     0.090000        1.0080           0
     51476 WT17     826      MECN     H12      HGA3     0.090000        1.0080           0
     51477 WT17     826      MECN     H13      HGA3     0.090000        1.0080           0
     51478 WT17     826      MECN     C2       CG1N1    0.360000       12.0110           0
     51479 WT17     826      MECN     N3       NG1T1   -0.460000       14.0070           0
     51480 WT17     827      MECN     C1       CG331   -0.170000       12.0110           0
     51481 WT17     827      MECN     H11      HGA3     0.090000        1.0080           0
     51482 WT17     827      MECN     H12      HGA3     0.090000        1.0080           0
     51483 WT17     827      MECN     H13      HGA3     0.090000        1.0080           0
     51484 WT17     827      MECN     C2       CG1N1    0.360000       12.0110           0
     51485 WT17     827      MECN     N3       NG1T1   -0.460000       14.0070           0
     51486 WT17     828      MECN     C1       CG331   -0.170000       12.0110           0
     51487 WT17     828      MECN     H11      HGA3     0.090000        1.0080           0
     51488 WT17     828      MECN     H12      HGA3     0.090000        1.0080           0
     51489 WT17     828      MECN     H13      HGA3     0.090000        1.0080           0
     51490 WT17     828      MECN     C2       CG1N1    0.360000       12.0110           0
     51491 WT17     828      MECN     N3       NG1T1   -0.460000       14.0070           0
     51492 WT17     830      MECN     C1       CG331   -0.170000       12.0110           0
     51493 WT17     830      MECN     H11      HGA3     0.090000        1.0080           0
     51494 WT17     830      MECN     H12      HGA3     0.090000        1.0080           0
     51495 WT17     830      MECN     H13      HGA3     0.090000        1.0080           0
     51496 WT17     830      MECN     C2       CG1N1    0.360000       12.0110           0
     51497 WT17     830      MECN     N3       NG1T1   -0.460000       14.0070           0
     51498 WT17     831      MECN     C1       CG331   -0.170000       12.0110           0
     51499 WT17     831      MECN     H11      HGA3     0.090000        1.0080           0
     51500 WT17     831      MECN     H12      HGA3     0.090000        1.0080           0
     51501 WT17     831      MECN     H13      HGA3     0.090000        1.0080           0
     51502 WT17     831      MECN     C2       CG1N1    0.360000       12.0110           0
     51503 WT17     831      MECN     N3       NG1T1   -0.460000       14.0070           0
     51504 WT17     832      MECN     C1       CG331   -0.170000       12.0110           0
     51505 WT17     832      MECN     H11      HGA3     0.090000        1.0080           0
     51506 WT17     832      MECN     H12      HGA3     0.090000        1.0080           0
     51507 WT17     832      MECN     H13      HGA3     0.090000        1.0080           0
     51508 WT17     832      MECN     C2       CG1N1    0.360000       12.0110           0
     51509 WT17     832      MECN     N3       NG1T1   -0.460000       14.0070           0
     51510 WT17     836      MECN     C1       CG331   -0.170000       12.0110           0
     51511 WT17     836      MECN     H11      HGA3     0.090000        1.0080           0
     51512 WT17     836      MECN     H12      HGA3     0.090000        1.0080           0
     51513 WT17     836      MECN     H13      HGA3     0.090000        1.0080           0
     51514 WT17     836      MECN     C2       CG1N1    0.360000       12.0110           0
     51515 WT17     836      MECN     N3       NG1T1   -0.460000       14.0070           0
     51516 WT17     837      MECN     C1       CG331   -0.170000       12.0110           0
     51517 WT17     837      MECN     H11      HGA3     0.090000        1.0080           0
     51518 WT17     837      MECN     H12      HGA3     0.090000        1.0080           0
     51519 WT17     837      MECN     H13      HGA3     0.090000        1.0080           0
     51520 WT17     837      MECN     C2       CG1N1    0.360000       12.0110           0
     51521 WT17     837      MECN     N3       NG1T1   -0.460000       14.0070           0
     51522 WT17     839      MECN     C1       CG331   -0.170000       12.0110           0
     51523 WT17     839      MECN     H11      HGA3     0.090000        1.0080           0
     51524 WT17     839      MECN     H12      HGA3     0.090000        1.0080           0
     51525 WT17     839      MECN     H13      HGA3     0.090000        1.0080           0
     51526 WT17     839      MECN     C2       CG1N1    0.360000       12.0110           0
     51527 WT17     839      MECN     N3       NG1T1   -0.460000       14.0070           0
     51528 WT17     840      MECN     C1       CG331   -0.170000       12.0110           0
     51529 WT17     840      MECN     H11      HGA3     0.090000        1.0080           0
     51530 WT17     840      MECN     H12      HGA3     0.090000        1.0080           0
     51531 WT17     840      MECN     H13      HGA3     0.090000        1.0080           0
     51532 WT17     840      MECN     C2       CG1N1    0.360000       12.0110           0
     51533 WT17     840      MECN     N3       NG1T1   -0.460000       14.0070           0
     51534 WT17     841      MECN     C1       CG331   -0.170000       12.0110           0
     51535 WT17     841      MECN     H11      HGA3     0.090000        1.0080           0
     51536 WT17     841      MECN     H12      HGA3     0.090000        1.0080           0
     51537 WT17     841      MECN     H13      HGA3     0.090000        1.0080           0
     51538 WT17     841      MECN     C2       CG1N1    0.360000       12.0110           0
     51539 WT17     841      MECN     N3       NG1T1   -0.460000       14.0070           0
     51540 WT17     843      MECN     C1       CG331   -0.170000       12.0110           0
     51541 WT17     843      MECN     H11      HGA3     0.090000        1.0080           0
     51542 WT17     843      MECN     H12      HGA3     0.090000        1.0080           0
     51543 WT17     843      MECN     H13      HGA3     0.090000        1.0080           0
     51544 WT17     843      MECN     C2       CG1N1    0.360000       12.0110           0
     51545 WT17     843      MECN     N3       NG1T1   -0.460000       14.0070           0
     51546 WT17     844      MECN     C1       CG331   -0.170000       12.0110           0
     51547 WT17     844      MECN     H11      HGA3     0.090000        1.0080           0
     51548 WT17     844      MECN     H12      HGA3     0.090000        1.0080           0
     51549 WT17     844      MECN     H13      HGA3     0.090000        1.0080           0
     51550 WT17     844      MECN     C2       CG1N1    0.360000       12.0110           0
     51551 WT17     844      MECN     N3       NG1T1   -0.460000       14.0070           0
     51552 WT17     845      MECN     C1       CG331   -0.170000       12.0110           0
     51553 WT17     845      MECN     H11      HGA3     0.090000        1.0080           0
     51554 WT17     845      MECN     H12      HGA3     0.090000        1.0080           0
     51555 WT17     845      MECN     H13      HGA3     0.090000        1.0080           0
     51556 WT17     845      MECN     C2       CG1N1    0.360000       12.0110           0
     51557 WT17     845      MECN     N3       NG1T1   -0.460000       14.0070           0
     51558 WT17     846      MECN     C1       CG331   -0.170000       12.0110           0
     51559 WT17     846      MECN     H11      HGA3     0.090000        1.0080           0
     51560 WT17     846      MECN     H12      HGA3     0.090000        1.0080           0
     51561 WT17     846      MECN     H13      HGA3     0.090000        1.0080           0
     51562 WT17     846      MECN     C2       CG1N1    0.360000       12.0110           0
     51563 WT17     846      MECN     N3       NG1T1   -0.460000       14.0070           0
     51564 WT17     847      MECN     C1       CG331   -0.170000       12.0110           0
     51565 WT17     847      MECN     H11      HGA3     0.090000        1.0080           0
     51566 WT17     847      MECN     H12      HGA3     0.090000        1.0080           0
     51567 WT17     847      MECN     H13      HGA3     0.090000        1.0080           0
     51568 WT17     847      MECN     C2       CG1N1    0.360000       12.0110           0
     51569 WT17     847      MECN     N3       NG1T1   -0.460000       14.0070           0
     51570 WT17     849      MECN     C1       CG331   -0.170000       12.0110           0
     51571 WT17     849      MECN     H11      HGA3     0.090000        1.0080           0
     51572 WT17     849      MECN     H12      HGA3     0.090000        1.0080           0
     51573 WT17     849      MECN     H13      HGA3     0.090000        1.0080           0
     51574 WT17     849      MECN     C2       CG1N1    0.360000       12.0110           0
     51575 WT17     849      MECN     N3       NG1T1   -0.460000       14.0070           0
     51576 WT17     850      MECN     C1       CG331   -0.170000       12.0110           0
     51577 WT17     850      MECN     H11      HGA3     0.090000        1.0080           0
     51578 WT17     850      MECN     H12      HGA3     0.090000        1.0080           0
     51579 WT17     850      MECN     H13      HGA3     0.090000        1.0080           0
     51580 WT17     850      MECN     C2       CG1N1    0.360000       12.0110           0
     51581 WT17     850      MECN     N3       NG1T1   -0.460000       14.0070           0
     51582 WT17     851      MECN     C1       CG331   -0.170000       12.0110           0
     51583 WT17     851      MECN     H11      HGA3     0.090000        1.0080           0
     51584 WT17     851      MECN     H12      HGA3     0.090000        1.0080           0
     51585 WT17     851      MECN     H13      HGA3     0.090000        1.0080           0
     51586 WT17     851      MECN     C2       CG1N1    0.360000       12.0110           0
     51587 WT17     851      MECN     N3       NG1T1   -0.460000       14.0070           0
     51588 WT17     852      MECN     C1       CG331   -0.170000       12.0110           0
     51589 WT17     852      MECN     H11      HGA3     0.090000        1.0080           0
     51590 WT17     852      MECN     H12      HGA3     0.090000        1.0080           0
     51591 WT17     852      MECN     H13      HGA3     0.090000        1.0080           0
     51592 WT17     852      MECN     C2       CG1N1    0.360000       12.0110           0
     51593 WT17     852      MECN     N3       NG1T1   -0.460000       14.0070           0
     51594 WT17     853      MECN     C1       CG331   -0.170000       12.0110           0
     51595 WT17     853      MECN     H11      HGA3     0.090000        1.0080           0
     51596 WT17     853      MECN     H12      HGA3     0.090000        1.0080           0
     51597 WT17     853      MECN     H13      HGA3     0.090000        1.0080           0
     51598 WT17     853      MECN     C2       CG1N1    0.360000       12.0110           0
     51599 WT17     853      MECN     N3       NG1T1   -0.460000       14.0070           0
     51600 WT17     854      MECN     C1       CG331   -0.170000       12.0110           0
     51601 WT17     854      MECN     H11      HGA3     0.090000        1.0080           0
     51602 WT17     854      MECN     H12      HGA3     0.090000        1.0080           0
     51603 WT17     854      MECN     H13      HGA3     0.090000        1.0080           0
     51604 WT17     854      MECN     C2       CG1N1    0.360000       12.0110           0
     51605 WT17     854      MECN     N3       NG1T1   -0.460000       14.0070           0
     51606 WT17     855      MECN     C1       CG331   -0.170000       12.0110           0
     51607 WT17     855      MECN     H11      HGA3     0.090000        1.0080           0
     51608 WT17     855      MECN     H12      HGA3     0.090000        1.0080           0
     51609 WT17     855      MECN     H13      HGA3     0.090000        1.0080           0
     51610 WT17     855      MECN     C2       CG1N1    0.360000       12.0110           0
     51611 WT17     855      MECN     N3       NG1T1   -0.460000       14.0070           0
     51612 WT17     857      MECN     C1       CG331   -0.170000       12.0110           0
     51613 WT17     857      MECN     H11      HGA3     0.090000        1.0080           0
     51614 WT17     857      MECN     H12      HGA3     0.090000        1.0080           0
     51615 WT17     857      MECN     H13      HGA3     0.090000        1.0080           0
     51616 WT17     857      MECN     C2       CG1N1    0.360000       12.0110           0
     51617 WT17     857      MECN     N3       NG1T1   -0.460000       14.0070           0
     51618 WT17     858      MECN     C1       CG331   -0.170000       12.0110           0
     51619 WT17     858      MECN     H11      HGA3     0.090000        1.0080           0
     51620 WT17     858      MECN     H12      HGA3     0.090000        1.0080           0
     51621 WT17     858      MECN     H13      HGA3     0.090000        1.0080           0
     51622 WT17     858      MECN     C2       CG1N1    0.360000       12.0110           0
     51623 WT17     858      MECN     N3       NG1T1   -0.460000       14.0070           0
     51624 WT17     861      MECN     C1       CG331   -0.170000       12.0110           0
     51625 WT17     861      MECN     H11      HGA3     0.090000        1.0080           0
     51626 WT17     861      MECN     H12      HGA3     0.090000        1.0080           0
     51627 WT17     861      MECN     H13      HGA3     0.090000        1.0080           0
     51628 WT17     861      MECN     C2       CG1N1    0.360000       12.0110           0
     51629 WT17     861      MECN     N3       NG1T1   -0.460000       14.0070           0
     51630 WT17     863      MECN     C1       CG331   -0.170000       12.0110           0
     51631 WT17     863      MECN     H11      HGA3     0.090000        1.0080           0
     51632 WT17     863      MECN     H12      HGA3     0.090000        1.0080           0
     51633 WT17     863      MECN     H13      HGA3     0.090000        1.0080           0
     51634 WT17     863      MECN     C2       CG1N1    0.360000       12.0110           0
     51635 WT17     863      MECN     N3       NG1T1   -0.460000       14.0070           0
     51636 WT17     865      MECN     C1       CG331   -0.170000       12.0110           0
     51637 WT17     865      MECN     H11      HGA3     0.090000        1.0080           0
     51638 WT17     865      MECN     H12      HGA3     0.090000        1.0080           0
     51639 WT17     865      MECN     H13      HGA3     0.090000        1.0080           0
     51640 WT17     865      MECN     C2       CG1N1    0.360000       12.0110           0
     51641 WT17     865      MECN     N3       NG1T1   -0.460000       14.0070           0
     51642 WT17     869      MECN     C1       CG331   -0.170000       12.0110           0
     51643 WT17     869      MECN     H11      HGA3     0.090000        1.0080           0
     51644 WT17     869      MECN     H12      HGA3     0.090000        1.0080           0
     51645 WT17     869      MECN     H13      HGA3     0.090000        1.0080           0
     51646 WT17     869      MECN     C2       CG1N1    0.360000       12.0110           0
     51647 WT17     869      MECN     N3       NG1T1   -0.460000       14.0070           0
     51648 WT17     870      MECN     C1       CG331   -0.170000       12.0110           0
     51649 WT17     870      MECN     H11      HGA3     0.090000        1.0080           0
     51650 WT17     870      MECN     H12      HGA3     0.090000        1.0080           0
     51651 WT17     870      MECN     H13      HGA3     0.090000        1.0080           0
     51652 WT17     870      MECN     C2       CG1N1    0.360000       12.0110           0
     51653 WT17     870      MECN     N3       NG1T1   -0.460000       14.0070           0
     51654 WT17     872      MECN     C1       CG331   -0.170000       12.0110           0
     51655 WT17     872      MECN     H11      HGA3     0.090000        1.0080           0
     51656 WT17     872      MECN     H12      HGA3     0.090000        1.0080           0
     51657 WT17     872      MECN     H13      HGA3     0.090000        1.0080           0
     51658 WT17     872      MECN     C2       CG1N1    0.360000       12.0110           0
     51659 WT17     872      MECN     N3       NG1T1   -0.460000       14.0070           0
     51660 WT17     874      MECN     C1       CG331   -0.170000       12.0110           0
     51661 WT17     874      MECN     H11      HGA3     0.090000        1.0080           0
     51662 WT17     874      MECN     H12      HGA3     0.090000        1.0080           0
     51663 WT17     874      MECN     H13      HGA3     0.090000        1.0080           0
     51664 WT17     874      MECN     C2       CG1N1    0.360000       12.0110           0
     51665 WT17     874      MECN     N3       NG1T1   -0.460000       14.0070           0
     51666 WT17     875      MECN     C1       CG331   -0.170000       12.0110           0
     51667 WT17     875      MECN     H11      HGA3     0.090000        1.0080           0
     51668 WT17     875      MECN     H12      HGA3     0.090000        1.0080           0
     51669 WT17     875      MECN     H13      HGA3     0.090000        1.0080           0
     51670 WT17     875      MECN     C2       CG1N1    0.360000       12.0110           0
     51671 WT17     875      MECN     N3       NG1T1   -0.460000       14.0070           0
     51672 WT17     877      MECN     C1       CG331   -0.170000       12.0110           0
     51673 WT17     877      MECN     H11      HGA3     0.090000        1.0080           0
     51674 WT17     877      MECN     H12      HGA3     0.090000        1.0080           0
     51675 WT17     877      MECN     H13      HGA3     0.090000        1.0080           0
     51676 WT17     877      MECN     C2       CG1N1    0.360000       12.0110           0
     51677 WT17     877      MECN     N3       NG1T1   -0.460000       14.0070           0
     51678 WT17     880      MECN     C1       CG331   -0.170000       12.0110           0
     51679 WT17     880      MECN     H11      HGA3     0.090000        1.0080           0
     51680 WT17     880      MECN     H12      HGA3     0.090000        1.0080           0
     51681 WT17     880      MECN     H13      HGA3     0.090000        1.0080           0
     51682 WT17     880      MECN     C2       CG1N1    0.360000       12.0110           0
     51683 WT17     880      MECN     N3       NG1T1   -0.460000       14.0070           0
     51684 WT17     881      MECN     C1       CG331   -0.170000       12.0110           0
     51685 WT17     881      MECN     H11      HGA3     0.090000        1.0080           0
     51686 WT17     881      MECN     H12      HGA3     0.090000        1.0080           0
     51687 WT17     881      MECN     H13      HGA3     0.090000        1.0080           0
     51688 WT17     881      MECN     C2       CG1N1    0.360000       12.0110           0
     51689 WT17     881      MECN     N3       NG1T1   -0.460000       14.0070           0
     51690 WT17     884      MECN     C1       CG331   -0.170000       12.0110           0
     51691 WT17     884      MECN     H11      HGA3     0.090000        1.0080           0
     51692 WT17     884      MECN     H12      HGA3     0.090000        1.0080           0
     51693 WT17     884      MECN     H13      HGA3     0.090000        1.0080           0
     51694 WT17     884      MECN     C2       CG1N1    0.360000       12.0110           0
     51695 WT17     884      MECN     N3       NG1T1   -0.460000       14.0070           0
     51696 WT17     885      MECN     C1       CG331   -0.170000       12.0110           0
     51697 WT17     885      MECN     H11      HGA3     0.090000        1.0080           0
     51698 WT17     885      MECN     H12      HGA3     0.090000        1.0080           0
     51699 WT17     885      MECN     H13      HGA3     0.090000        1.0080           0
     51700 WT17     885      MECN     C2       CG1N1    0.360000       12.0110           0
     51701 WT17     885      MECN     N3       NG1T1   -0.460000       14.0070           0
     51702 WT17     886      MECN     C1       CG331   -0.170000       12.0110           0
     51703 WT17     886      MECN     H11      HGA3     0.090000        1.0080           0
     51704 WT17     886      MECN     H12      HGA3     0.090000        1.0080           0
     51705 WT17     886      MECN     H13      HGA3     0.090000        1.0080           0
     51706 WT17     886      MECN     C2       CG1N1    0.360000       12.0110           0
     51707 WT17     886      MECN     N3       NG1T1   -0.460000       14.0070           0
     51708 WT17     888      MECN     C1       CG331   -0.170000       12.0110           0
     51709 WT17     888      MECN     H11      HGA3     0.090000        1.0080           0
     51710 WT17     888      MECN     H12      HGA3     0.090000        1.0080           0
     51711 WT17     888      MECN     H13      HGA3     0.090000        1.0080           0
     51712 WT17     888      MECN     C2       CG1N1    0.360000       12.0110           0
     51713 WT17     888      MECN     N3       NG1T1   -0.460000       14.0070           0
     51714 WT17     892      MECN     C1       CG331   -0.170000       12.0110           0
     51715 WT17     892      MECN     H11      HGA3     0.090000        1.0080           0
     51716 WT17     892      MECN     H12      HGA3     0.090000        1.0080           0
     51717 WT17     892      MECN     H13      HGA3     0.090000        1.0080           0
     51718 WT17     892      MECN     C2       CG1N1    0.360000       12.0110           0
     51719 WT17     892      MECN     N3       NG1T1   -0.460000       14.0070           0
     51720 WT17     895      MECN     C1       CG331   -0.170000       12.0110           0
     51721 WT17     895      MECN     H11      HGA3     0.090000        1.0080           0
     51722 WT17     895      MECN     H12      HGA3     0.090000        1.0080           0
     51723 WT17     895      MECN     H13      HGA3     0.090000        1.0080           0
     51724 WT17     895      MECN     C2       CG1N1    0.360000       12.0110           0
     51725 WT17     895      MECN     N3       NG1T1   -0.460000       14.0070           0
     51726 WT17     898      MECN     C1       CG331   -0.170000       12.0110           0
     51727 WT17     898      MECN     H11      HGA3     0.090000        1.0080           0
     51728 WT17     898      MECN     H12      HGA3     0.090000        1.0080           0
     51729 WT17     898      MECN     H13      HGA3     0.090000        1.0080           0
     51730 WT17     898      MECN     C2       CG1N1    0.360000       12.0110           0
     51731 WT17     898      MECN     N3       NG1T1   -0.460000       14.0070           0
     51732 WT17     901      MECN     C1       CG331   -0.170000       12.0110           0
     51733 WT17     901      MECN     H11      HGA3     0.090000        1.0080           0
     51734 WT17     901      MECN     H12      HGA3     0.090000        1.0080           0
     51735 WT17     901      MECN     H13      HGA3     0.090000        1.0080           0
     51736 WT17     901      MECN     C2       CG1N1    0.360000       12.0110           0
     51737 WT17     901      MECN     N3       NG1T1   -0.460000       14.0070           0
     51738 WT17     903      MECN     C1       CG331   -0.170000       12.0110           0
     51739 WT17     903      MECN     H11      HGA3     0.090000        1.0080           0
     51740 WT17     903      MECN     H12      HGA3     0.090000        1.0080           0
     51741 WT17     903      MECN     H13      HGA3     0.090000        1.0080           0
     51742 WT17     903      MECN     C2       CG1N1    0.360000       12.0110           0
     51743 WT17     903      MECN     N3       NG1T1   -0.460000       14.0070           0
     51744 WT17     905      MECN     C1       CG331   -0.170000       12.0110           0
     51745 WT17     905      MECN     H11      HGA3     0.090000        1.0080           0
     51746 WT17     905      MECN     H12      HGA3     0.090000        1.0080           0
     51747 WT17     905      MECN     H13      HGA3     0.090000        1.0080           0
     51748 WT17     905      MECN     C2       CG1N1    0.360000       12.0110           0
     51749 WT17     905      MECN     N3       NG1T1   -0.460000       14.0070           0
     51750 WT17     908      MECN     C1       CG331   -0.170000       12.0110           0
     51751 WT17     908      MECN     H11      HGA3     0.090000        1.0080           0
     51752 WT17     908      MECN     H12      HGA3     0.090000        1.0080           0
     51753 WT17     908      MECN     H13      HGA3     0.090000        1.0080           0
     51754 WT17     908      MECN     C2       CG1N1    0.360000       12.0110           0
     51755 WT17     908      MECN     N3       NG1T1   -0.460000       14.0070           0
     51756 WT17     910      MECN     C1       CG331   -0.170000       12.0110           0
     51757 WT17     910      MECN     H11      HGA3     0.090000        1.0080           0
     51758 WT17     910      MECN     H12      HGA3     0.090000        1.0080           0
     51759 WT17     910      MECN     H13      HGA3     0.090000        1.0080           0
     51760 WT17     910      MECN     C2       CG1N1    0.360000       12.0110           0
     51761 WT17     910      MECN     N3       NG1T1   -0.460000       14.0070           0
     51762 WT17     912      MECN     C1       CG331   -0.170000       12.0110           0
     51763 WT17     912      MECN     H11      HGA3     0.090000        1.0080           0
     51764 WT17     912      MECN     H12      HGA3     0.090000        1.0080           0
     51765 WT17     912      MECN     H13      HGA3     0.090000        1.0080           0
     51766 WT17     912      MECN     C2       CG1N1    0.360000       12.0110           0
     51767 WT17     912      MECN     N3       NG1T1   -0.460000       14.0070           0
     51768 WT17     914      MECN     C1       CG331   -0.170000       12.0110           0
     51769 WT17     914      MECN     H11      HGA3     0.090000        1.0080           0
     51770 WT17     914      MECN     H12      HGA3     0.090000        1.0080           0
     51771 WT17     914      MECN     H13      HGA3     0.090000        1.0080           0
     51772 WT17     914      MECN     C2       CG1N1    0.360000       12.0110           0
     51773 WT17     914      MECN     N3       NG1T1   -0.460000       14.0070           0
     51774 WT17     915      MECN     C1       CG331   -0.170000       12.0110           0
     51775 WT17     915      MECN     H11      HGA3     0.090000        1.0080           0
     51776 WT17     915      MECN     H12      HGA3     0.090000        1.0080           0
     51777 WT17     915      MECN     H13      HGA3     0.090000        1.0080           0
     51778 WT17     915      MECN     C2       CG1N1    0.360000       12.0110           0
     51779 WT17     915      MECN     N3       NG1T1   -0.460000       14.0070           0
     51780 WT17     916      MECN     C1       CG331   -0.170000       12.0110           0
     51781 WT17     916      MECN     H11      HGA3     0.090000        1.0080           0
     51782 WT17     916      MECN     H12      HGA3     0.090000        1.0080           0
     51783 WT17     916      MECN     H13      HGA3     0.090000        1.0080           0
     51784 WT17     916      MECN     C2       CG1N1    0.360000       12.0110           0
     51785 WT17     916      MECN     N3       NG1T1   -0.460000       14.0070           0
     51786 WT17     918      MECN     C1       CG331   -0.170000       12.0110           0
     51787 WT17     918      MECN     H11      HGA3     0.090000        1.0080           0
     51788 WT17     918      MECN     H12      HGA3     0.090000        1.0080           0
     51789 WT17     918      MECN     H13      HGA3     0.090000        1.0080           0
     51790 WT17     918      MECN     C2       CG1N1    0.360000       12.0110           0
     51791 WT17     918      MECN     N3       NG1T1   -0.460000       14.0070           0
     51792 WT17     919      MECN     C1       CG331   -0.170000       12.0110           0
     51793 WT17     919      MECN     H11      HGA3     0.090000        1.0080           0
     51794 WT17     919      MECN     H12      HGA3     0.090000        1.0080           0
     51795 WT17     919      MECN     H13      HGA3     0.090000        1.0080           0
     51796 WT17     919      MECN     C2       CG1N1    0.360000       12.0110           0
     51797 WT17     919      MECN     N3       NG1T1   -0.460000       14.0070           0
     51798 WT17     921      MECN     C1       CG331   -0.170000       12.0110           0
     51799 WT17     921      MECN     H11      HGA3     0.090000        1.0080           0
     51800 WT17     921      MECN     H12      HGA3     0.090000        1.0080           0
     51801 WT17     921      MECN     H13      HGA3     0.090000        1.0080           0
     51802 WT17     921      MECN     C2       CG1N1    0.360000       12.0110           0
     51803 WT17     921      MECN     N3       NG1T1   -0.460000       14.0070           0
     51804 WT17     922      MECN     C1       CG331   -0.170000       12.0110           0
     51805 WT17     922      MECN     H11      HGA3     0.090000        1.0080           0
     51806 WT17     922      MECN     H12      HGA3     0.090000        1.0080           0
     51807 WT17     922      MECN     H13      HGA3     0.090000        1.0080           0
     51808 WT17     922      MECN     C2       CG1N1    0.360000       12.0110           0
     51809 WT17     922      MECN     N3       NG1T1   -0.460000       14.0070           0
     51810 WT17     924      MECN     C1       CG331   -0.170000       12.0110           0
     51811 WT17     924      MECN     H11      HGA3     0.090000        1.0080           0
     51812 WT17     924      MECN     H12      HGA3     0.090000        1.0080           0
     51813 WT17     924      MECN     H13      HGA3     0.090000        1.0080           0
     51814 WT17     924      MECN     C2       CG1N1    0.360000       12.0110           0
     51815 WT17     924      MECN     N3       NG1T1   -0.460000       14.0070           0
     51816 WT17     927      MECN     C1       CG331   -0.170000       12.0110           0
     51817 WT17     927      MECN     H11      HGA3     0.090000        1.0080           0
     51818 WT17     927      MECN     H12      HGA3     0.090000        1.0080           0
     51819 WT17     927      MECN     H13      HGA3     0.090000        1.0080           0
     51820 WT17     927      MECN     C2       CG1N1    0.360000       12.0110           0
     51821 WT17     927      MECN     N3       NG1T1   -0.460000       14.0070           0
     51822 WT17     928      MECN     C1       CG331   -0.170000       12.0110           0
     51823 WT17     928      MECN     H11      HGA3     0.090000        1.0080           0
     51824 WT17     928      MECN     H12      HGA3     0.090000        1.0080           0
     51825 WT17     928      MECN     H13      HGA3     0.090000        1.0080           0
     51826 WT17     928      MECN     C2       CG1N1    0.360000       12.0110           0
     51827 WT17     928      MECN     N3       NG1T1   -0.460000       14.0070           0
     51828 WT17     929      MECN     C1       CG331   -0.170000       12.0110           0
     51829 WT17     929      MECN     H11      HGA3     0.090000        1.0080           0
     51830 WT17     929      MECN     H12      HGA3     0.090000        1.0080           0
     51831 WT17     929      MECN     H13      HGA3     0.090000        1.0080           0
     51832 WT17     929      MECN     C2       CG1N1    0.360000       12.0110           0
     51833 WT17     929      MECN     N3       NG1T1   -0.460000       14.0070           0
     51834 WT17     930      MECN     C1       CG331   -0.170000       12.0110           0
     51835 WT17     930      MECN     H11      HGA3     0.090000        1.0080           0
     51836 WT17     930      MECN     H12      HGA3     0.090000        1.0080           0
     51837 WT17     930      MECN     H13      HGA3     0.090000        1.0080           0
     51838 WT17     930      MECN     C2       CG1N1    0.360000       12.0110           0
     51839 WT17     930      MECN     N3       NG1T1   -0.460000       14.0070           0
     51840 WT17     931      MECN     C1       CG331   -0.170000       12.0110           0
     51841 WT17     931      MECN     H11      HGA3     0.090000        1.0080           0
     51842 WT17     931      MECN     H12      HGA3     0.090000        1.0080           0
     51843 WT17     931      MECN     H13      HGA3     0.090000        1.0080           0
     51844 WT17     931      MECN     C2       CG1N1    0.360000       12.0110           0
     51845 WT17     931      MECN     N3       NG1T1   -0.460000       14.0070           0
     51846 WT17     932      MECN     C1       CG331   -0.170000       12.0110           0
     51847 WT17     932      MECN     H11      HGA3     0.090000        1.0080           0
     51848 WT17     932      MECN     H12      HGA3     0.090000        1.0080           0
     51849 WT17     932      MECN     H13      HGA3     0.090000        1.0080           0
     51850 WT17     932      MECN     C2       CG1N1    0.360000       12.0110           0
     51851 WT17     932      MECN     N3       NG1T1   -0.460000       14.0070           0
     51852 WT17     935      MECN     C1       CG331   -0.170000       12.0110           0
     51853 WT17     935      MECN     H11      HGA3     0.090000        1.0080           0
     51854 WT17     935      MECN     H12      HGA3     0.090000        1.0080           0
     51855 WT17     935      MECN     H13      HGA3     0.090000        1.0080           0
     51856 WT17     935      MECN     C2       CG1N1    0.360000       12.0110           0
     51857 WT17     935      MECN     N3       NG1T1   -0.460000       14.0070           0
     51858 WT17     936      MECN     C1       CG331   -0.170000       12.0110           0
     51859 WT17     936      MECN     H11      HGA3     0.090000        1.0080           0
     51860 WT17     936      MECN     H12      HGA3     0.090000        1.0080           0
     51861 WT17     936      MECN     H13      HGA3     0.090000        1.0080           0
     51862 WT17     936      MECN     C2       CG1N1    0.360000       12.0110           0
     51863 WT17     936      MECN     N3       NG1T1   -0.460000       14.0070           0
     51864 WT17     937      MECN     C1       CG331   -0.170000       12.0110           0
     51865 WT17     937      MECN     H11      HGA3     0.090000        1.0080           0
     51866 WT17     937      MECN     H12      HGA3     0.090000        1.0080           0
     51867 WT17     937      MECN     H13      HGA3     0.090000        1.0080           0
     51868 WT17     937      MECN     C2       CG1N1    0.360000       12.0110           0
     51869 WT17     937      MECN     N3       NG1T1   -0.460000       14.0070           0
     51870 WT17     938      MECN     C1       CG331   -0.170000       12.0110           0
     51871 WT17     938      MECN     H11      HGA3     0.090000        1.0080           0
     51872 WT17     938      MECN     H12      HGA3     0.090000        1.0080           0
     51873 WT17     938      MECN     H13      HGA3     0.090000        1.0080           0
     51874 WT17     938      MECN     C2       CG1N1    0.360000       12.0110           0
     51875 WT17     938      MECN     N3       NG1T1   -0.460000       14.0070           0
     51876 WT17     940      MECN     C1       CG331   -0.170000       12.0110           0
     51877 WT17     940      MECN     H11      HGA3     0.090000        1.0080           0
     51878 WT17     940      MECN     H12      HGA3     0.090000        1.0080           0
     51879 WT17     940      MECN     H13      HGA3     0.090000        1.0080           0
     51880 WT17     940      MECN     C2       CG1N1    0.360000       12.0110           0
     51881 WT17     940      MECN     N3       NG1T1   -0.460000       14.0070           0
     51882 WT17     941      MECN     C1       CG331   -0.170000       12.0110           0
     51883 WT17     941      MECN     H11      HGA3     0.090000        1.0080           0
     51884 WT17     941      MECN     H12      HGA3     0.090000        1.0080           0
     51885 WT17     941      MECN     H13      HGA3     0.090000        1.0080           0
     51886 WT17     941      MECN     C2       CG1N1    0.360000       12.0110           0
     51887 WT17     941      MECN     N3       NG1T1   -0.460000       14.0070           0
     51888 WT17     942      MECN     C1       CG331   -0.170000       12.0110           0
     51889 WT17     942      MECN     H11      HGA3     0.090000        1.0080           0
     51890 WT17     942      MECN     H12      HGA3     0.090000        1.0080           0
     51891 WT17     942      MECN     H13      HGA3     0.090000        1.0080           0
     51892 WT17     942      MECN     C2       CG1N1    0.360000       12.0110           0
     51893 WT17     942      MECN     N3       NG1T1   -0.460000       14.0070           0
     51894 WT17     944      MECN     C1       CG331   -0.170000       12.0110           0
     51895 WT17     944      MECN     H11      HGA3     0.090000        1.0080           0
     51896 WT17     944      MECN     H12      HGA3     0.090000        1.0080           0
     51897 WT17     944      MECN     H13      HGA3     0.090000        1.0080           0
     51898 WT17     944      MECN     C2       CG1N1    0.360000       12.0110           0
     51899 WT17     944      MECN     N3       NG1T1   -0.460000       14.0070           0
     51900 WT17     946      MECN     C1       CG331   -0.170000       12.0110           0
     51901 WT17     946      MECN     H11      HGA3     0.090000        1.0080           0
     51902 WT17     946      MECN     H12      HGA3     0.090000        1.0080           0
     51903 WT17     946      MECN     H13      HGA3     0.090000        1.0080           0
     51904 WT17     946      MECN     C2       CG1N1    0.360000       12.0110           0
     51905 WT17     946      MECN     N3       NG1T1   -0.460000       14.0070           0
     51906 WT17     947      MECN     C1       CG331   -0.170000       12.0110           0
     51907 WT17     947      MECN     H11      HGA3     0.090000        1.0080           0
     51908 WT17     947      MECN     H12      HGA3     0.090000        1.0080           0
     51909 WT17     947      MECN     H13      HGA3     0.090000        1.0080           0
     51910 WT17     947      MECN     C2       CG1N1    0.360000       12.0110           0
     51911 WT17     947      MECN     N3       NG1T1   -0.460000       14.0070           0
     51912 WT17     948      MECN     C1       CG331   -0.170000       12.0110           0
     51913 WT17     948      MECN     H11      HGA3     0.090000        1.0080           0
     51914 WT17     948      MECN     H12      HGA3     0.090000        1.0080           0
     51915 WT17     948      MECN     H13      HGA3     0.090000        1.0080           0
     51916 WT17     948      MECN     C2       CG1N1    0.360000       12.0110           0
     51917 WT17     948      MECN     N3       NG1T1   -0.460000       14.0070           0
     51918 WT17     949      MECN     C1       CG331   -0.170000       12.0110           0
     51919 WT17     949      MECN     H11      HGA3     0.090000        1.0080           0
     51920 WT17     949      MECN     H12      HGA3     0.090000        1.0080           0
     51921 WT17     949      MECN     H13      HGA3     0.090000        1.0080           0
     51922 WT17     949      MECN     C2       CG1N1    0.360000       12.0110           0
     51923 WT17     949      MECN     N3       NG1T1   -0.460000       14.0070           0
     51924 WT17     950      MECN     C1       CG331   -0.170000       12.0110           0
     51925 WT17     950      MECN     H11      HGA3     0.090000        1.0080           0
     51926 WT17     950      MECN     H12      HGA3     0.090000        1.0080           0
     51927 WT17     950      MECN     H13      HGA3     0.090000        1.0080           0
     51928 WT17     950      MECN     C2       CG1N1    0.360000       12.0110           0
     51929 WT17     950      MECN     N3       NG1T1   -0.460000       14.0070           0
     51930 WT17     951      MECN     C1       CG331   -0.170000       12.0110           0
     51931 WT17     951      MECN     H11      HGA3     0.090000        1.0080           0
     51932 WT17     951      MECN     H12      HGA3     0.090000        1.0080           0
     51933 WT17     951      MECN     H13      HGA3     0.090000        1.0080           0
     51934 WT17     951      MECN     C2       CG1N1    0.360000       12.0110           0
     51935 WT17     951      MECN     N3       NG1T1   -0.460000       14.0070           0
     51936 WT17     952      MECN     C1       CG331   -0.170000       12.0110           0
     51937 WT17     952      MECN     H11      HGA3     0.090000        1.0080           0
     51938 WT17     952      MECN     H12      HGA3     0.090000        1.0080           0
     51939 WT17     952      MECN     H13      HGA3     0.090000        1.0080           0
     51940 WT17     952      MECN     C2       CG1N1    0.360000       12.0110           0
     51941 WT17     952      MECN     N3       NG1T1   -0.460000       14.0070           0
     51942 WT17     953      MECN     C1       CG331   -0.170000       12.0110           0
     51943 WT17     953      MECN     H11      HGA3     0.090000        1.0080           0
     51944 WT17     953      MECN     H12      HGA3     0.090000        1.0080           0
     51945 WT17     953      MECN     H13      HGA3     0.090000        1.0080           0
     51946 WT17     953      MECN     C2       CG1N1    0.360000       12.0110           0
     51947 WT17     953      MECN     N3       NG1T1   -0.460000       14.0070           0
     51948 WT17     954      MECN     C1       CG331   -0.170000       12.0110           0
     51949 WT17     954      MECN     H11      HGA3     0.090000        1.0080           0
     51950 WT17     954      MECN     H12      HGA3     0.090000        1.0080           0
     51951 WT17     954      MECN     H13      HGA3     0.090000        1.0080           0
     51952 WT17     954      MECN     C2       CG1N1    0.360000       12.0110           0
     51953 WT17     954      MECN     N3       NG1T1   -0.460000       14.0070           0
     51954 WT17     956      MECN     C1       CG331   -0.170000       12.0110           0
     51955 WT17     956      MECN     H11      HGA3     0.090000        1.0080           0
     51956 WT17     956      MECN     H12      HGA3     0.090000        1.0080           0
     51957 WT17     956      MECN     H13      HGA3     0.090000        1.0080           0
     51958 WT17     956      MECN     C2       CG1N1    0.360000       12.0110           0
     51959 WT17     956      MECN     N3       NG1T1   -0.460000       14.0070           0
     51960 WT17     957      MECN     C1       CG331   -0.170000       12.0110           0
     51961 WT17     957      MECN     H11      HGA3     0.090000        1.0080           0
     51962 WT17     957      MECN     H12      HGA3     0.090000        1.0080           0
     51963 WT17     957      MECN     H13      HGA3     0.090000        1.0080           0
     51964 WT17     957      MECN     C2       CG1N1    0.360000       12.0110           0
     51965 WT17     957      MECN     N3       NG1T1   -0.460000       14.0070           0
     51966 WT17     958      MECN     C1       CG331   -0.170000       12.0110           0
     51967 WT17     958      MECN     H11      HGA3     0.090000        1.0080           0
     51968 WT17     958      MECN     H12      HGA3     0.090000        1.0080           0
     51969 WT17     958      MECN     H13      HGA3     0.090000        1.0080           0
     51970 WT17     958      MECN     C2       CG1N1    0.360000       12.0110           0
     51971 WT17     958      MECN     N3       NG1T1   -0.460000       14.0070           0
     51972 WT17     960      MECN     C1       CG331   -0.170000       12.0110           0
     51973 WT17     960      MECN     H11      HGA3     0.090000        1.0080           0
     51974 WT17     960      MECN     H12      HGA3     0.090000        1.0080           0
     51975 WT17     960      MECN     H13      HGA3     0.090000        1.0080           0
     51976 WT17     960      MECN     C2       CG1N1    0.360000       12.0110           0
     51977 WT17     960      MECN     N3       NG1T1   -0.460000       14.0070           0
     51978 WT17     961      MECN     C1       CG331   -0.170000       12.0110           0
     51979 WT17     961      MECN     H11      HGA3     0.090000        1.0080           0
     51980 WT17     961      MECN     H12      HGA3     0.090000        1.0080           0
     51981 WT17     961      MECN     H13      HGA3     0.090000        1.0080           0
     51982 WT17     961      MECN     C2       CG1N1    0.360000       12.0110           0
     51983 WT17     961      MECN     N3       NG1T1   -0.460000       14.0070           0
     51984 WT17     962      MECN     C1       CG331   -0.170000       12.0110           0
     51985 WT17     962      MECN     H11      HGA3     0.090000        1.0080           0
     51986 WT17     962      MECN     H12      HGA3     0.090000        1.0080           0
     51987 WT17     962      MECN     H13      HGA3     0.090000        1.0080           0
     51988 WT17     962      MECN     C2       CG1N1    0.360000       12.0110           0
     51989 WT17     962      MECN     N3       NG1T1   -0.460000       14.0070           0
     51990 WT17     964      MECN     C1       CG331   -0.170000       12.0110           0
     51991 WT17     964      MECN     H11      HGA3     0.090000        1.0080           0
     51992 WT17     964      MECN     H12      HGA3     0.090000        1.0080           0
     51993 WT17     964      MECN     H13      HGA3     0.090000        1.0080           0
     51994 WT17     964      MECN     C2       CG1N1    0.360000       12.0110           0
     51995 WT17     964      MECN     N3       NG1T1   -0.460000       14.0070           0
     51996 WT17     966      MECN     C1       CG331   -0.170000       12.0110           0
     51997 WT17     966      MECN     H11      HGA3     0.090000        1.0080           0
     51998 WT17     966      MECN     H12      HGA3     0.090000        1.0080           0
     51999 WT17     966      MECN     H13      HGA3     0.090000        1.0080           0
     52000 WT17     966      MECN     C2       CG1N1    0.360000       12.0110           0
     52001 WT17     966      MECN     N3       NG1T1   -0.460000       14.0070           0
     52002 WT17     968      MECN     C1       CG331   -0.170000       12.0110           0
     52003 WT17     968      MECN     H11      HGA3     0.090000        1.0080           0
     52004 WT17     968      MECN     H12      HGA3     0.090000        1.0080           0
     52005 WT17     968      MECN     H13      HGA3     0.090000        1.0080           0
     52006 WT17     968      MECN     C2       CG1N1    0.360000       12.0110           0
     52007 WT17     968      MECN     N3       NG1T1   -0.460000       14.0070           0
     52008 WT17     969      MECN     C1       CG331   -0.170000       12.0110           0
     52009 WT17     969      MECN     H11      HGA3     0.090000        1.0080           0
     52010 WT17     969      MECN     H12      HGA3     0.090000        1.0080           0
     52011 WT17     969      MECN     H13      HGA3     0.090000        1.0080           0
     52012 WT17     969      MECN     C2       CG1N1    0.360000       12.0110           0
     52013 WT17     969      MECN     N3       NG1T1   -0.460000       14.0070           0
     52014 WT17     970      MECN     C1       CG331   -0.170000       12.0110           0
     52015 WT17     970      MECN     H11      HGA3     0.090000        1.0080           0
     52016 WT17     970      MECN     H12      HGA3     0.090000        1.0080           0
     52017 WT17     970      MECN     H13      HGA3     0.090000        1.0080           0
     52018 WT17     970      MECN     C2       CG1N1    0.360000       12.0110           0
     52019 WT17     970      MECN     N3       NG1T1   -0.460000       14.0070           0
     52020 WT17     971      MECN     C1       CG331   -0.170000       12.0110           0
     52021 WT17     971      MECN     H11      HGA3     0.090000        1.0080           0
     52022 WT17     971      MECN     H12      HGA3     0.090000        1.0080           0
     52023 WT17     971      MECN     H13      HGA3     0.090000        1.0080           0
     52024 WT17     971      MECN     C2       CG1N1    0.360000       12.0110           0
     52025 WT17     971      MECN     N3       NG1T1   -0.460000       14.0070           0
     52026 WT17     972      MECN     C1       CG331   -0.170000       12.0110           0
     52027 WT17     972      MECN     H11      HGA3     0.090000        1.0080           0
     52028 WT17     972      MECN     H12      HGA3     0.090000        1.0080           0
     52029 WT17     972      MECN     H13      HGA3     0.090000        1.0080           0
     52030 WT17     972      MECN     C2       CG1N1    0.360000       12.0110           0
     52031 WT17     972      MECN     N3       NG1T1   -0.460000       14.0070           0
     52032 WT17     974      MECN     C1       CG331   -0.170000       12.0110           0
     52033 WT17     974      MECN     H11      HGA3     0.090000        1.0080           0
     52034 WT17     974      MECN     H12      HGA3     0.090000        1.0080           0
     52035 WT17     974      MECN     H13      HGA3     0.090000        1.0080           0
     52036 WT17     974      MECN     C2       CG1N1    0.360000       12.0110           0
     52037 WT17     974      MECN     N3       NG1T1   -0.460000       14.0070           0
     52038 WT17     975      MECN     C1       CG331   -0.170000       12.0110           0
     52039 WT17     975      MECN     H11      HGA3     0.090000        1.0080           0
     52040 WT17     975      MECN     H12      HGA3     0.090000        1.0080           0
     52041 WT17     975      MECN     H13      HGA3     0.090000        1.0080           0
     52042 WT17     975      MECN     C2       CG1N1    0.360000       12.0110           0
     52043 WT17     975      MECN     N3       NG1T1   -0.460000       14.0070           0
     52044 WT17     978      MECN     C1       CG331   -0.170000       12.0110           0
     52045 WT17     978      MECN     H11      HGA3     0.090000        1.0080           0
     52046 WT17     978      MECN     H12      HGA3     0.090000        1.0080           0
     52047 WT17     978      MECN     H13      HGA3     0.090000        1.0080           0
     52048 WT17     978      MECN     C2       CG1N1    0.360000       12.0110           0
     52049 WT17     978      MECN     N3       NG1T1   -0.460000       14.0070           0
     52050 WT17     979      MECN     C1       CG331   -0.170000       12.0110           0
     52051 WT17     979      MECN     H11      HGA3     0.090000        1.0080           0
     52052 WT17     979      MECN     H12      HGA3     0.090000        1.0080           0
     52053 WT17     979      MECN     H13      HGA3     0.090000        1.0080           0
     52054 WT17     979      MECN     C2       CG1N1    0.360000       12.0110           0
     52055 WT17     979      MECN     N3       NG1T1   -0.460000       14.0070           0
     52056 WT17     980      MECN     C1       CG331   -0.170000       12.0110           0
     52057 WT17     980      MECN     H11      HGA3     0.090000        1.0080           0
     52058 WT17     980      MECN     H12      HGA3     0.090000        1.0080           0
     52059 WT17     980      MECN     H13      HGA3     0.090000        1.0080           0
     52060 WT17     980      MECN     C2       CG1N1    0.360000       12.0110           0
     52061 WT17     980      MECN     N3       NG1T1   -0.460000       14.0070           0
     52062 WT17     981      MECN     C1       CG331   -0.170000       12.0110           0
     52063 WT17     981      MECN     H11      HGA3     0.090000        1.0080           0
     52064 WT17     981      MECN     H12      HGA3     0.090000        1.0080           0
     52065 WT17     981      MECN     H13      HGA3     0.090000        1.0080           0
     52066 WT17     981      MECN     C2       CG1N1    0.360000       12.0110           0
     52067 WT17     981      MECN     N3       NG1T1   -0.460000       14.0070           0
     52068 WT17     982      MECN     C1       CG331   -0.170000       12.0110           0
     52069 WT17     982      MECN     H11      HGA3     0.090000        1.0080           0
     52070 WT17     982      MECN     H12      HGA3     0.090000        1.0080           0
     52071 WT17     982      MECN     H13      HGA3     0.090000        1.0080           0
     52072 WT17     982      MECN     C2       CG1N1    0.360000       12.0110           0
     52073 WT17     982      MECN     N3       NG1T1   -0.460000       14.0070           0
     52074 WT17     987      MECN     C1       CG331   -0.170000       12.0110           0
     52075 WT17     987      MECN     H11      HGA3     0.090000        1.0080           0
     52076 WT17     987      MECN     H12      HGA3     0.090000        1.0080           0
     52077 WT17     987      MECN     H13      HGA3     0.090000        1.0080           0
     52078 WT17     987      MECN     C2       CG1N1    0.360000       12.0110           0
     52079 WT17     987      MECN     N3       NG1T1   -0.460000       14.0070           0
     52080 WT17     989      MECN     C1       CG331   -0.170000       12.0110           0
     52081 WT17     989      MECN     H11      HGA3     0.090000        1.0080           0
     52082 WT17     989      MECN     H12      HGA3     0.090000        1.0080           0
     52083 WT17     989      MECN     H13      HGA3     0.090000        1.0080           0
     52084 WT17     989      MECN     C2       CG1N1    0.360000       12.0110           0
     52085 WT17     989      MECN     N3       NG1T1   -0.460000       14.0070           0
     52086 WT17     990      MECN     C1       CG331   -0.170000       12.0110           0
     52087 WT17     990      MECN     H11      HGA3     0.090000        1.0080           0
     52088 WT17     990      MECN     H12      HGA3     0.090000        1.0080           0
     52089 WT17     990      MECN     H13      HGA3     0.090000        1.0080           0
     52090 WT17     990      MECN     C2       CG1N1    0.360000       12.0110           0
     52091 WT17     990      MECN     N3       NG1T1   -0.460000       14.0070           0
     52092 WT17     991      MECN     C1       CG331   -0.170000       12.0110           0
     52093 WT17     991      MECN     H11      HGA3     0.090000        1.0080           0
     52094 WT17     991      MECN     H12      HGA3     0.090000        1.0080           0
     52095 WT17     991      MECN     H13      HGA3     0.090000        1.0080           0
     52096 WT17     991      MECN     C2       CG1N1    0.360000       12.0110           0
     52097 WT17     991      MECN     N3       NG1T1   -0.460000       14.0070           0
     52098 WT17     993      MECN     C1       CG331   -0.170000       12.0110           0
     52099 WT17     993      MECN     H11      HGA3     0.090000        1.0080           0
     52100 WT17     993      MECN     H12      HGA3     0.090000        1.0080           0
     52101 WT17     993      MECN     H13      HGA3     0.090000        1.0080           0
     52102 WT17     993      MECN     C2       CG1N1    0.360000       12.0110           0
     52103 WT17     993      MECN     N3       NG1T1   -0.460000       14.0070           0
     52104 WT17     994      MECN     C1       CG331   -0.170000       12.0110           0
     52105 WT17     994      MECN     H11      HGA3     0.090000        1.0080           0
     52106 WT17     994      MECN     H12      HGA3     0.090000        1.0080           0
     52107 WT17     994      MECN     H13      HGA3     0.090000        1.0080           0
     52108 WT17     994      MECN     C2       CG1N1    0.360000       12.0110           0
     52109 WT17     994      MECN     N3       NG1T1   -0.460000       14.0070           0
     52110 WT17     995      MECN     C1       CG331   -0.170000       12.0110           0
     52111 WT17     995      MECN     H11      HGA3     0.090000        1.0080           0
     52112 WT17     995      MECN     H12      HGA3     0.090000        1.0080           0
     52113 WT17     995      MECN     H13      HGA3     0.090000        1.0080           0
     52114 WT17     995      MECN     C2       CG1N1    0.360000       12.0110           0
     52115 WT17     995      MECN     N3       NG1T1   -0.460000       14.0070           0
     52116 WT17     996      MECN     C1       CG331   -0.170000       12.0110           0
     52117 WT17     996      MECN     H11      HGA3     0.090000        1.0080           0
     52118 WT17     996      MECN     H12      HGA3     0.090000        1.0080           0
     52119 WT17     996      MECN     H13      HGA3     0.090000        1.0080           0
     52120 WT17     996      MECN     C2       CG1N1    0.360000       12.0110           0
     52121 WT17     996      MECN     N3       NG1T1   -0.460000       14.0070           0
     52122 WT17     997      MECN     C1       CG331   -0.170000       12.0110           0
     52123 WT17     997      MECN     H11      HGA3     0.090000        1.0080           0
     52124 WT17     997      MECN     H12      HGA3     0.090000        1.0080           0
     52125 WT17     997      MECN     H13      HGA3     0.090000        1.0080           0
     52126 WT17     997      MECN     C2       CG1N1    0.360000       12.0110           0
     52127 WT17     997      MECN     N3       NG1T1   -0.460000       14.0070           0
     52128 WT17     998      MECN     C1       CG331   -0.170000       12.0110           0
     52129 WT17     998      MECN     H11      HGA3     0.090000        1.0080           0
     52130 WT17     998      MECN     H12      HGA3     0.090000        1.0080           0
     52131 WT17     998      MECN     H13      HGA3     0.090000        1.0080           0
     52132 WT17     998      MECN     C2       CG1N1    0.360000       12.0110           0
     52133 WT17     998      MECN     N3       NG1T1   -0.460000       14.0070           0
     52134 WT17     999      MECN     C1       CG331   -0.170000       12.0110           0
     52135 WT17     999      MECN     H11      HGA3     0.090000        1.0080           0
     52136 WT17     999      MECN     H12      HGA3     0.090000        1.0080           0
     52137 WT17     999      MECN     H13      HGA3     0.090000        1.0080           0
     52138 WT17     999      MECN     C2       CG1N1    0.360000       12.0110           0
     52139 WT17     999      MECN     N3       NG1T1   -0.460000       14.0070           0
     52140 WT17     1002     MECN     C1       CG331   -0.170000       12.0110           0
     52141 WT17     1002     MECN     H11      HGA3     0.090000        1.0080           0
     52142 WT17     1002     MECN     H12      HGA3     0.090000        1.0080           0
     52143 WT17     1002     MECN     H13      HGA3     0.090000        1.0080           0
     52144 WT17     1002     MECN     C2       CG1N1    0.360000       12.0110           0
     52145 WT17     1002     MECN     N3       NG1T1   -0.460000       14.0070           0
     52146 WT17     1004     MECN     C1       CG331   -0.170000       12.0110           0
     52147 WT17     1004     MECN     H11      HGA3     0.090000        1.0080           0
     52148 WT17     1004     MECN     H12      HGA3     0.090000        1.0080           0
     52149 WT17     1004     MECN     H13      HGA3     0.090000        1.0080           0
     52150 WT17     1004     MECN     C2       CG1N1    0.360000       12.0110           0
     52151 WT17     1004     MECN     N3       NG1T1   -0.460000       14.0070           0
     52152 WT17     1007     MECN     C1       CG331   -0.170000       12.0110           0
     52153 WT17     1007     MECN     H11      HGA3     0.090000        1.0080           0
     52154 WT17     1007     MECN     H12      HGA3     0.090000        1.0080           0
     52155 WT17     1007     MECN     H13      HGA3     0.090000        1.0080           0
     52156 WT17     1007     MECN     C2       CG1N1    0.360000       12.0110           0
     52157 WT17     1007     MECN     N3       NG1T1   -0.460000       14.0070           0
     52158 WT17     1008     MECN     C1       CG331   -0.170000       12.0110           0
     52159 WT17     1008     MECN     H11      HGA3     0.090000        1.0080           0
     52160 WT17     1008     MECN     H12      HGA3     0.090000        1.0080           0
     52161 WT17     1008     MECN     H13      HGA3     0.090000        1.0080           0
     52162 WT17     1008     MECN     C2       CG1N1    0.360000       12.0110           0
     52163 WT17     1008     MECN     N3       NG1T1   -0.460000       14.0070           0
     52164 WT17     1010     MECN     C1       CG331   -0.170000       12.0110           0
     52165 WT17     1010     MECN     H11      HGA3     0.090000        1.0080           0
     52166 WT17     1010     MECN     H12      HGA3     0.090000        1.0080           0
     52167 WT17     1010     MECN     H13      HGA3     0.090000        1.0080           0
     52168 WT17     1010     MECN     C2       CG1N1    0.360000       12.0110           0
     52169 WT17     1010     MECN     N3       NG1T1   -0.460000       14.0070           0
     52170 WT17     1012     MECN     C1       CG331   -0.170000       12.0110           0
     52171 WT17     1012     MECN     H11      HGA3     0.090000        1.0080           0
     52172 WT17     1012     MECN     H12      HGA3     0.090000        1.0080           0
     52173 WT17     1012     MECN     H13      HGA3     0.090000        1.0080           0
     52174 WT17     1012     MECN     C2       CG1N1    0.360000       12.0110           0
     52175 WT17     1012     MECN     N3       NG1T1   -0.460000       14.0070           0
     52176 WT17     1013     MECN     C1       CG331   -0.170000       12.0110           0
     52177 WT17     1013     MECN     H11      HGA3     0.090000        1.0080           0
     52178 WT17     1013     MECN     H12      HGA3     0.090000        1.0080           0
     52179 WT17     1013     MECN     H13      HGA3     0.090000        1.0080           0
     52180 WT17     1013     MECN     C2       CG1N1    0.360000       12.0110           0
     52181 WT17     1013     MECN     N3       NG1T1   -0.460000       14.0070           0
     52182 WT17     1015     MECN     C1       CG331   -0.170000       12.0110           0
     52183 WT17     1015     MECN     H11      HGA3     0.090000        1.0080           0
     52184 WT17     1015     MECN     H12      HGA3     0.090000        1.0080           0
     52185 WT17     1015     MECN     H13      HGA3     0.090000        1.0080           0
     52186 WT17     1015     MECN     C2       CG1N1    0.360000       12.0110           0
     52187 WT17     1015     MECN     N3       NG1T1   -0.460000       14.0070           0
     52188 WT17     1018     MECN     C1       CG331   -0.170000       12.0110           0
     52189 WT17     1018     MECN     H11      HGA3     0.090000        1.0080           0
     52190 WT17     1018     MECN     H12      HGA3     0.090000        1.0080           0
     52191 WT17     1018     MECN     H13      HGA3     0.090000        1.0080           0
     52192 WT17     1018     MECN     C2       CG1N1    0.360000       12.0110           0
     52193 WT17     1018     MECN     N3       NG1T1   -0.460000       14.0070           0
     52194 WT17     1019     MECN     C1       CG331   -0.170000       12.0110           0
     52195 WT17     1019     MECN     H11      HGA3     0.090000        1.0080           0
     52196 WT17     1019     MECN     H12      HGA3     0.090000        1.0080           0
     52197 WT17     1019     MECN     H13      HGA3     0.090000        1.0080           0
     52198 WT17     1019     MECN     C2       CG1N1    0.360000       12.0110           0
     52199 WT17     1019     MECN     N3       NG1T1   -0.460000       14.0070           0
     52200 WT17     1020     MECN     C1       CG331   -0.170000       12.0110           0
     52201 WT17     1020     MECN     H11      HGA3     0.090000        1.0080           0
     52202 WT17     1020     MECN     H12      HGA3     0.090000        1.0080           0
     52203 WT17     1020     MECN     H13      HGA3     0.090000        1.0080           0
     52204 WT17     1020     MECN     C2       CG1N1    0.360000       12.0110           0
     52205 WT17     1020     MECN     N3       NG1T1   -0.460000       14.0070           0
     52206 WT17     1022     MECN     C1       CG331   -0.170000       12.0110           0
     52207 WT17     1022     MECN     H11      HGA3     0.090000        1.0080           0
     52208 WT17     1022     MECN     H12      HGA3     0.090000        1.0080           0
     52209 WT17     1022     MECN     H13      HGA3     0.090000        1.0080           0
     52210 WT17     1022     MECN     C2       CG1N1    0.360000       12.0110           0
     52211 WT17     1022     MECN     N3       NG1T1   -0.460000       14.0070           0
     52212 WT17     1023     MECN     C1       CG331   -0.170000       12.0110           0
     52213 WT17     1023     MECN     H11      HGA3     0.090000        1.0080           0
     52214 WT17     1023     MECN     H12      HGA3     0.090000        1.0080           0
     52215 WT17     1023     MECN     H13      HGA3     0.090000        1.0080           0
     52216 WT17     1023     MECN     C2       CG1N1    0.360000       12.0110           0
     52217 WT17     1023     MECN     N3       NG1T1   -0.460000       14.0070           0
     52218 WT17     1024     MECN     C1       CG331   -0.170000       12.0110           0
     52219 WT17     1024     MECN     H11      HGA3     0.090000        1.0080           0
     52220 WT17     1024     MECN     H12      HGA3     0.090000        1.0080           0
     52221 WT17     1024     MECN     H13      HGA3     0.090000        1.0080           0
     52222 WT17     1024     MECN     C2       CG1N1    0.360000       12.0110           0
     52223 WT17     1024     MECN     N3       NG1T1   -0.460000       14.0070           0
     52224 WT17     1026     MECN     C1       CG331   -0.170000       12.0110           0
     52225 WT17     1026     MECN     H11      HGA3     0.090000        1.0080           0
     52226 WT17     1026     MECN     H12      HGA3     0.090000        1.0080           0
     52227 WT17     1026     MECN     H13      HGA3     0.090000        1.0080           0
     52228 WT17     1026     MECN     C2       CG1N1    0.360000       12.0110           0
     52229 WT17     1026     MECN     N3       NG1T1   -0.460000       14.0070           0
     52230 WT17     1028     MECN     C1       CG331   -0.170000       12.0110           0
     52231 WT17     1028     MECN     H11      HGA3     0.090000        1.0080           0
     52232 WT17     1028     MECN     H12      HGA3     0.090000        1.0080           0
     52233 WT17     1028     MECN     H13      HGA3     0.090000        1.0080           0
     52234 WT17     1028     MECN     C2       CG1N1    0.360000       12.0110           0
     52235 WT17     1028     MECN     N3       NG1T1   -0.460000       14.0070           0
     52236 WT17     1030     MECN     C1       CG331   -0.170000       12.0110           0
     52237 WT17     1030     MECN     H11      HGA3     0.090000        1.0080           0
     52238 WT17     1030     MECN     H12      HGA3     0.090000        1.0080           0
     52239 WT17     1030     MECN     H13      HGA3     0.090000        1.0080           0
     52240 WT17     1030     MECN     C2       CG1N1    0.360000       12.0110           0
     52241 WT17     1030     MECN     N3       NG1T1   -0.460000       14.0070           0
     52242 WT17     1031     MECN     C1       CG331   -0.170000       12.0110           0
     52243 WT17     1031     MECN     H11      HGA3     0.090000        1.0080           0
     52244 WT17     1031     MECN     H12      HGA3     0.090000        1.0080           0
     52245 WT17     1031     MECN     H13      HGA3     0.090000        1.0080           0
     52246 WT17     1031     MECN     C2       CG1N1    0.360000       12.0110           0
     52247 WT17     1031     MECN     N3       NG1T1   -0.460000       14.0070           0
     52248 WT17     1032     MECN     C1       CG331   -0.170000       12.0110           0
     52249 WT17     1032     MECN     H11      HGA3     0.090000        1.0080           0
     52250 WT17     1032     MECN     H12      HGA3     0.090000        1.0080           0
     52251 WT17     1032     MECN     H13      HGA3     0.090000        1.0080           0
     52252 WT17     1032     MECN     C2       CG1N1    0.360000       12.0110           0
     52253 WT17     1032     MECN     N3       NG1T1   -0.460000       14.0070           0
     52254 WT17     1033     MECN     C1       CG331   -0.170000       12.0110           0
     52255 WT17     1033     MECN     H11      HGA3     0.090000        1.0080           0
     52256 WT17     1033     MECN     H12      HGA3     0.090000        1.0080           0
     52257 WT17     1033     MECN     H13      HGA3     0.090000        1.0080           0
     52258 WT17     1033     MECN     C2       CG1N1    0.360000       12.0110           0
     52259 WT17     1033     MECN     N3       NG1T1   -0.460000       14.0070           0
     52260 WT17     1034     MECN     C1       CG331   -0.170000       12.0110           0
     52261 WT17     1034     MECN     H11      HGA3     0.090000        1.0080           0
     52262 WT17     1034     MECN     H12      HGA3     0.090000        1.0080           0
     52263 WT17     1034     MECN     H13      HGA3     0.090000        1.0080           0
     52264 WT17     1034     MECN     C2       CG1N1    0.360000       12.0110           0
     52265 WT17     1034     MECN     N3       NG1T1   -0.460000       14.0070           0
     52266 WT17     1036     MECN     C1       CG331   -0.170000       12.0110           0
     52267 WT17     1036     MECN     H11      HGA3     0.090000        1.0080           0
     52268 WT17     1036     MECN     H12      HGA3     0.090000        1.0080           0
     52269 WT17     1036     MECN     H13      HGA3     0.090000        1.0080           0
     52270 WT17     1036     MECN     C2       CG1N1    0.360000       12.0110           0
     52271 WT17     1036     MECN     N3       NG1T1   -0.460000       14.0070           0
     52272 WT17     1037     MECN     C1       CG331   -0.170000       12.0110           0
     52273 WT17     1037     MECN     H11      HGA3     0.090000        1.0080           0
     52274 WT17     1037     MECN     H12      HGA3     0.090000        1.0080           0
     52275 WT17     1037     MECN     H13      HGA3     0.090000        1.0080           0
     52276 WT17     1037     MECN     C2       CG1N1    0.360000       12.0110           0
     52277 WT17     1037     MECN     N3       NG1T1   -0.460000       14.0070           0
     52278 WT17     1038     MECN     C1       CG331   -0.170000       12.0110           0
     52279 WT17     1038     MECN     H11      HGA3     0.090000        1.0080           0
     52280 WT17     1038     MECN     H12      HGA3     0.090000        1.0080           0
     52281 WT17     1038     MECN     H13      HGA3     0.090000        1.0080           0
     52282 WT17     1038     MECN     C2       CG1N1    0.360000       12.0110           0
     52283 WT17     1038     MECN     N3       NG1T1   -0.460000       14.0070           0
     52284 WT17     1039     MECN     C1       CG331   -0.170000       12.0110           0
     52285 WT17     1039     MECN     H11      HGA3     0.090000        1.0080           0
     52286 WT17     1039     MECN     H12      HGA3     0.090000        1.0080           0
     52287 WT17     1039     MECN     H13      HGA3     0.090000        1.0080           0
     52288 WT17     1039     MECN     C2       CG1N1    0.360000       12.0110           0
     52289 WT17     1039     MECN     N3       NG1T1   -0.460000       14.0070           0
     52290 WT17     1041     MECN     C1       CG331   -0.170000       12.0110           0
     52291 WT17     1041     MECN     H11      HGA3     0.090000        1.0080           0
     52292 WT17     1041     MECN     H12      HGA3     0.090000        1.0080           0
     52293 WT17     1041     MECN     H13      HGA3     0.090000        1.0080           0
     52294 WT17     1041     MECN     C2       CG1N1    0.360000       12.0110           0
     52295 WT17     1041     MECN     N3       NG1T1   -0.460000       14.0070           0
     52296 WT17     1042     MECN     C1       CG331   -0.170000       12.0110           0
     52297 WT17     1042     MECN     H11      HGA3     0.090000        1.0080           0
     52298 WT17     1042     MECN     H12      HGA3     0.090000        1.0080           0
     52299 WT17     1042     MECN     H13      HGA3     0.090000        1.0080           0
     52300 WT17     1042     MECN     C2       CG1N1    0.360000       12.0110           0
     52301 WT17     1042     MECN     N3       NG1T1   -0.460000       14.0070           0
     52302 WT17     1043     MECN     C1       CG331   -0.170000       12.0110           0
     52303 WT17     1043     MECN     H11      HGA3     0.090000        1.0080           0
     52304 WT17     1043     MECN     H12      HGA3     0.090000        1.0080           0
     52305 WT17     1043     MECN     H13      HGA3     0.090000        1.0080           0
     52306 WT17     1043     MECN     C2       CG1N1    0.360000       12.0110           0
     52307 WT17     1043     MECN     N3       NG1T1   -0.460000       14.0070           0
     52308 WT17     1044     MECN     C1       CG331   -0.170000       12.0110           0
     52309 WT17     1044     MECN     H11      HGA3     0.090000        1.0080           0
     52310 WT17     1044     MECN     H12      HGA3     0.090000        1.0080           0
     52311 WT17     1044     MECN     H13      HGA3     0.090000        1.0080           0
     52312 WT17     1044     MECN     C2       CG1N1    0.360000       12.0110           0
     52313 WT17     1044     MECN     N3       NG1T1   -0.460000       14.0070           0
     52314 WT17     1045     MECN     C1       CG331   -0.170000       12.0110           0
     52315 WT17     1045     MECN     H11      HGA3     0.090000        1.0080           0
     52316 WT17     1045     MECN     H12      HGA3     0.090000        1.0080           0
     52317 WT17     1045     MECN     H13      HGA3     0.090000        1.0080           0
     52318 WT17     1045     MECN     C2       CG1N1    0.360000       12.0110           0
     52319 WT17     1045     MECN     N3       NG1T1   -0.460000       14.0070           0
     52320 WT17     1046     MECN     C1       CG331   -0.170000       12.0110           0
     52321 WT17     1046     MECN     H11      HGA3     0.090000        1.0080           0
     52322 WT17     1046     MECN     H12      HGA3     0.090000        1.0080           0
     52323 WT17     1046     MECN     H13      HGA3     0.090000        1.0080           0
     52324 WT17     1046     MECN     C2       CG1N1    0.360000       12.0110           0
     52325 WT17     1046     MECN     N3       NG1T1   -0.460000       14.0070           0
     52326 WT17     1047     MECN     C1       CG331   -0.170000       12.0110           0
     52327 WT17     1047     MECN     H11      HGA3     0.090000        1.0080           0
     52328 WT17     1047     MECN     H12      HGA3     0.090000        1.0080           0
     52329 WT17     1047     MECN     H13      HGA3     0.090000        1.0080           0
     52330 WT17     1047     MECN     C2       CG1N1    0.360000       12.0110           0
     52331 WT17     1047     MECN     N3       NG1T1   -0.460000       14.0070           0
     52332 WT17     1048     MECN     C1       CG331   -0.170000       12.0110           0
     52333 WT17     1048     MECN     H11      HGA3     0.090000        1.0080           0
     52334 WT17     1048     MECN     H12      HGA3     0.090000        1.0080           0
     52335 WT17     1048     MECN     H13      HGA3     0.090000        1.0080           0
     52336 WT17     1048     MECN     C2       CG1N1    0.360000       12.0110           0
     52337 WT17     1048     MECN     N3       NG1T1   -0.460000       14.0070           0
     52338 WT17     1049     MECN     C1       CG331   -0.170000       12.0110           0
     52339 WT17     1049     MECN     H11      HGA3     0.090000        1.0080           0
     52340 WT17     1049     MECN     H12      HGA3     0.090000        1.0080           0
     52341 WT17     1049     MECN     H13      HGA3     0.090000        1.0080           0
     52342 WT17     1049     MECN     C2       CG1N1    0.360000       12.0110           0
     52343 WT17     1049     MECN     N3       NG1T1   -0.460000       14.0070           0
     52344 WT17     1051     MECN     C1       CG331   -0.170000       12.0110           0
     52345 WT17     1051     MECN     H11      HGA3     0.090000        1.0080           0
     52346 WT17     1051     MECN     H12      HGA3     0.090000        1.0080           0
     52347 WT17     1051     MECN     H13      HGA3     0.090000        1.0080           0
     52348 WT17     1051     MECN     C2       CG1N1    0.360000       12.0110           0
     52349 WT17     1051     MECN     N3       NG1T1   -0.460000       14.0070           0
     52350 WT17     1053     MECN     C1       CG331   -0.170000       12.0110           0
     52351 WT17     1053     MECN     H11      HGA3     0.090000        1.0080           0
     52352 WT17     1053     MECN     H12      HGA3     0.090000        1.0080           0
     52353 WT17     1053     MECN     H13      HGA3     0.090000        1.0080           0
     52354 WT17     1053     MECN     C2       CG1N1    0.360000       12.0110           0
     52355 WT17     1053     MECN     N3       NG1T1   -0.460000       14.0070           0
     52356 WT17     1055     MECN     C1       CG331   -0.170000       12.0110           0
     52357 WT17     1055     MECN     H11      HGA3     0.090000        1.0080           0
     52358 WT17     1055     MECN     H12      HGA3     0.090000        1.0080           0
     52359 WT17     1055     MECN     H13      HGA3     0.090000        1.0080           0
     52360 WT17     1055     MECN     C2       CG1N1    0.360000       12.0110           0
     52361 WT17     1055     MECN     N3       NG1T1   -0.460000       14.0070           0
     52362 WT17     1056     MECN     C1       CG331   -0.170000       12.0110           0
     52363 WT17     1056     MECN     H11      HGA3     0.090000        1.0080           0
     52364 WT17     1056     MECN     H12      HGA3     0.090000        1.0080           0
     52365 WT17     1056     MECN     H13      HGA3     0.090000        1.0080           0
     52366 WT17     1056     MECN     C2       CG1N1    0.360000       12.0110           0
     52367 WT17     1056     MECN     N3       NG1T1   -0.460000       14.0070           0
     52368 WT17     1062     MECN     C1       CG331   -0.170000       12.0110           0
     52369 WT17     1062     MECN     H11      HGA3     0.090000        1.0080           0
     52370 WT17     1062     MECN     H12      HGA3     0.090000        1.0080           0
     52371 WT17     1062     MECN     H13      HGA3     0.090000        1.0080           0
     52372 WT17     1062     MECN     C2       CG1N1    0.360000       12.0110           0
     52373 WT17     1062     MECN     N3       NG1T1   -0.460000       14.0070           0
     52374 WT17     1063     MECN     C1       CG331   -0.170000       12.0110           0
     52375 WT17     1063     MECN     H11      HGA3     0.090000        1.0080           0
     52376 WT17     1063     MECN     H12      HGA3     0.090000        1.0080           0
     52377 WT17     1063     MECN     H13      HGA3     0.090000        1.0080           0
     52378 WT17     1063     MECN     C2       CG1N1    0.360000       12.0110           0
     52379 WT17     1063     MECN     N3       NG1T1   -0.460000       14.0070           0
     52380 WT17     1064     MECN     C1       CG331   -0.170000       12.0110           0
     52381 WT17     1064     MECN     H11      HGA3     0.090000        1.0080           0
     52382 WT17     1064     MECN     H12      HGA3     0.090000        1.0080           0
     52383 WT17     1064     MECN     H13      HGA3     0.090000        1.0080           0
     52384 WT17     1064     MECN     C2       CG1N1    0.360000       12.0110           0
     52385 WT17     1064     MECN     N3       NG1T1   -0.460000       14.0070           0
     52386 WT17     1065     MECN     C1       CG331   -0.170000       12.0110           0
     52387 WT17     1065     MECN     H11      HGA3     0.090000        1.0080           0
     52388 WT17     1065     MECN     H12      HGA3     0.090000        1.0080           0
     52389 WT17     1065     MECN     H13      HGA3     0.090000        1.0080           0
     52390 WT17     1065     MECN     C2       CG1N1    0.360000       12.0110           0
     52391 WT17     1065     MECN     N3       NG1T1   -0.460000       14.0070           0
     52392 WT17     1066     MECN     C1       CG331   -0.170000       12.0110           0
     52393 WT17     1066     MECN     H11      HGA3     0.090000        1.0080           0
     52394 WT17     1066     MECN     H12      HGA3     0.090000        1.0080           0
     52395 WT17     1066     MECN     H13      HGA3     0.090000        1.0080           0
     52396 WT17     1066     MECN     C2       CG1N1    0.360000       12.0110           0
     52397 WT17     1066     MECN     N3       NG1T1   -0.460000       14.0070           0
     52398 WT17     1067     MECN     C1       CG331   -0.170000       12.0110           0
     52399 WT17     1067     MECN     H11      HGA3     0.090000        1.0080           0
     52400 WT17     1067     MECN     H12      HGA3     0.090000        1.0080           0
     52401 WT17     1067     MECN     H13      HGA3     0.090000        1.0080           0
     52402 WT17     1067     MECN     C2       CG1N1    0.360000       12.0110           0
     52403 WT17     1067     MECN     N3       NG1T1   -0.460000       14.0070           0
     52404 WT17     1068     MECN     C1       CG331   -0.170000       12.0110           0
     52405 WT17     1068     MECN     H11      HGA3     0.090000        1.0080           0
     52406 WT17     1068     MECN     H12      HGA3     0.090000        1.0080           0
     52407 WT17     1068     MECN     H13      HGA3     0.090000        1.0080           0
     52408 WT17     1068     MECN     C2       CG1N1    0.360000       12.0110           0
     52409 WT17     1068     MECN     N3       NG1T1   -0.460000       14.0070           0
     52410 WT17     1069     MECN     C1       CG331   -0.170000       12.0110           0
     52411 WT17     1069     MECN     H11      HGA3     0.090000        1.0080           0
     52412 WT17     1069     MECN     H12      HGA3     0.090000        1.0080           0
     52413 WT17     1069     MECN     H13      HGA3     0.090000        1.0080           0
     52414 WT17     1069     MECN     C2       CG1N1    0.360000       12.0110           0
     52415 WT17     1069     MECN     N3       NG1T1   -0.460000       14.0070           0
     52416 WT17     1071     MECN     C1       CG331   -0.170000       12.0110           0
     52417 WT17     1071     MECN     H11      HGA3     0.090000        1.0080           0
     52418 WT17     1071     MECN     H12      HGA3     0.090000        1.0080           0
     52419 WT17     1071     MECN     H13      HGA3     0.090000        1.0080           0
     52420 WT17     1071     MECN     C2       CG1N1    0.360000       12.0110           0
     52421 WT17     1071     MECN     N3       NG1T1   -0.460000       14.0070           0
     52422 WT17     1072     MECN     C1       CG331   -0.170000       12.0110           0
     52423 WT17     1072     MECN     H11      HGA3     0.090000        1.0080           0
     52424 WT17     1072     MECN     H12      HGA3     0.090000        1.0080           0
     52425 WT17     1072     MECN     H13      HGA3     0.090000        1.0080           0
     52426 WT17     1072     MECN     C2       CG1N1    0.360000       12.0110           0
     52427 WT17     1072     MECN     N3       NG1T1   -0.460000       14.0070           0
     52428 WT17     1073     MECN     C1       CG331   -0.170000       12.0110           0
     52429 WT17     1073     MECN     H11      HGA3     0.090000        1.0080           0
     52430 WT17     1073     MECN     H12      HGA3     0.090000        1.0080           0
     52431 WT17     1073     MECN     H13      HGA3     0.090000        1.0080           0
     52432 WT17     1073     MECN     C2       CG1N1    0.360000       12.0110           0
     52433 WT17     1073     MECN     N3       NG1T1   -0.460000       14.0070           0
     52434 WT17     1074     MECN     C1       CG331   -0.170000       12.0110           0
     52435 WT17     1074     MECN     H11      HGA3     0.090000        1.0080           0
     52436 WT17     1074     MECN     H12      HGA3     0.090000        1.0080           0
     52437 WT17     1074     MECN     H13      HGA3     0.090000        1.0080           0
     52438 WT17     1074     MECN     C2       CG1N1    0.360000       12.0110           0
     52439 WT17     1074     MECN     N3       NG1T1   -0.460000       14.0070           0
     52440 WT17     1075     MECN     C1       CG331   -0.170000       12.0110           0
     52441 WT17     1075     MECN     H11      HGA3     0.090000        1.0080           0
     52442 WT17     1075     MECN     H12      HGA3     0.090000        1.0080           0
     52443 WT17     1075     MECN     H13      HGA3     0.090000        1.0080           0
     52444 WT17     1075     MECN     C2       CG1N1    0.360000       12.0110           0
     52445 WT17     1075     MECN     N3       NG1T1   -0.460000       14.0070           0
     52446 WT17     1076     MECN     C1       CG331   -0.170000       12.0110           0
     52447 WT17     1076     MECN     H11      HGA3     0.090000        1.0080           0
     52448 WT17     1076     MECN     H12      HGA3     0.090000        1.0080           0
     52449 WT17     1076     MECN     H13      HGA3     0.090000        1.0080           0
     52450 WT17     1076     MECN     C2       CG1N1    0.360000       12.0110           0
     52451 WT17     1076     MECN     N3       NG1T1   -0.460000       14.0070           0
     52452 WT17     1078     MECN     C1       CG331   -0.170000       12.0110           0
     52453 WT17     1078     MECN     H11      HGA3     0.090000        1.0080           0
     52454 WT17     1078     MECN     H12      HGA3     0.090000        1.0080           0
     52455 WT17     1078     MECN     H13      HGA3     0.090000        1.0080           0
     52456 WT17     1078     MECN     C2       CG1N1    0.360000       12.0110           0
     52457 WT17     1078     MECN     N3       NG1T1   -0.460000       14.0070           0
     52458 WT17     1079     MECN     C1       CG331   -0.170000       12.0110           0
     52459 WT17     1079     MECN     H11      HGA3     0.090000        1.0080           0
     52460 WT17     1079     MECN     H12      HGA3     0.090000        1.0080           0
     52461 WT17     1079     MECN     H13      HGA3     0.090000        1.0080           0
     52462 WT17     1079     MECN     C2       CG1N1    0.360000       12.0110           0
     52463 WT17     1079     MECN     N3       NG1T1   -0.460000       14.0070           0
     52464 WT17     1080     MECN     C1       CG331   -0.170000       12.0110           0
     52465 WT17     1080     MECN     H11      HGA3     0.090000        1.0080           0
     52466 WT17     1080     MECN     H12      HGA3     0.090000        1.0080           0
     52467 WT17     1080     MECN     H13      HGA3     0.090000        1.0080           0
     52468 WT17     1080     MECN     C2       CG1N1    0.360000       12.0110           0
     52469 WT17     1080     MECN     N3       NG1T1   -0.460000       14.0070           0
     52470 WT17     1081     MECN     C1       CG331   -0.170000       12.0110           0
     52471 WT17     1081     MECN     H11      HGA3     0.090000        1.0080           0
     52472 WT17     1081     MECN     H12      HGA3     0.090000        1.0080           0
     52473 WT17     1081     MECN     H13      HGA3     0.090000        1.0080           0
     52474 WT17     1081     MECN     C2       CG1N1    0.360000       12.0110           0
     52475 WT17     1081     MECN     N3       NG1T1   -0.460000       14.0070           0
     52476 WT17     1082     MECN     C1       CG331   -0.170000       12.0110           0
     52477 WT17     1082     MECN     H11      HGA3     0.090000        1.0080           0
     52478 WT17     1082     MECN     H12      HGA3     0.090000        1.0080           0
     52479 WT17     1082     MECN     H13      HGA3     0.090000        1.0080           0
     52480 WT17     1082     MECN     C2       CG1N1    0.360000       12.0110           0
     52481 WT17     1082     MECN     N3       NG1T1   -0.460000       14.0070           0
     52482 WT17     1084     MECN     C1       CG331   -0.170000       12.0110           0
     52483 WT17     1084     MECN     H11      HGA3     0.090000        1.0080           0
     52484 WT17     1084     MECN     H12      HGA3     0.090000        1.0080           0
     52485 WT17     1084     MECN     H13      HGA3     0.090000        1.0080           0
     52486 WT17     1084     MECN     C2       CG1N1    0.360000       12.0110           0
     52487 WT17     1084     MECN     N3       NG1T1   -0.460000       14.0070           0
     52488 WT17     1085     MECN     C1       CG331   -0.170000       12.0110           0
     52489 WT17     1085     MECN     H11      HGA3     0.090000        1.0080           0
     52490 WT17     1085     MECN     H12      HGA3     0.090000        1.0080           0
     52491 WT17     1085     MECN     H13      HGA3     0.090000        1.0080           0
     52492 WT17     1085     MECN     C2       CG1N1    0.360000       12.0110           0
     52493 WT17     1085     MECN     N3       NG1T1   -0.460000       14.0070           0
     52494 WT17     1086     MECN     C1       CG331   -0.170000       12.0110           0
     52495 WT17     1086     MECN     H11      HGA3     0.090000        1.0080           0
     52496 WT17     1086     MECN     H12      HGA3     0.090000        1.0080           0
     52497 WT17     1086     MECN     H13      HGA3     0.090000        1.0080           0
     52498 WT17     1086     MECN     C2       CG1N1    0.360000       12.0110           0
     52499 WT17     1086     MECN     N3       NG1T1   -0.460000       14.0070           0
     52500 WT17     1089     MECN     C1       CG331   -0.170000       12.0110           0
     52501 WT17     1089     MECN     H11      HGA3     0.090000        1.0080           0
     52502 WT17     1089     MECN     H12      HGA3     0.090000        1.0080           0
     52503 WT17     1089     MECN     H13      HGA3     0.090000        1.0080           0
     52504 WT17     1089     MECN     C2       CG1N1    0.360000       12.0110           0
     52505 WT17     1089     MECN     N3       NG1T1   -0.460000       14.0070           0
     52506 WT17     1090     MECN     C1       CG331   -0.170000       12.0110           0
     52507 WT17     1090     MECN     H11      HGA3     0.090000        1.0080           0
     52508 WT17     1090     MECN     H12      HGA3     0.090000        1.0080           0
     52509 WT17     1090     MECN     H13      HGA3     0.090000        1.0080           0
     52510 WT17     1090     MECN     C2       CG1N1    0.360000       12.0110           0
     52511 WT17     1090     MECN     N3       NG1T1   -0.460000       14.0070           0
     52512 WT17     1091     MECN     C1       CG331   -0.170000       12.0110           0
     52513 WT17     1091     MECN     H11      HGA3     0.090000        1.0080           0
     52514 WT17     1091     MECN     H12      HGA3     0.090000        1.0080           0
     52515 WT17     1091     MECN     H13      HGA3     0.090000        1.0080           0
     52516 WT17     1091     MECN     C2       CG1N1    0.360000       12.0110           0
     52517 WT17     1091     MECN     N3       NG1T1   -0.460000       14.0070           0
     52518 WT17     1092     MECN     C1       CG331   -0.170000       12.0110           0
     52519 WT17     1092     MECN     H11      HGA3     0.090000        1.0080           0
     52520 WT17     1092     MECN     H12      HGA3     0.090000        1.0080           0
     52521 WT17     1092     MECN     H13      HGA3     0.090000        1.0080           0
     52522 WT17     1092     MECN     C2       CG1N1    0.360000       12.0110           0
     52523 WT17     1092     MECN     N3       NG1T1   -0.460000       14.0070           0
     52524 WT17     1094     MECN     C1       CG331   -0.170000       12.0110           0
     52525 WT17     1094     MECN     H11      HGA3     0.090000        1.0080           0
     52526 WT17     1094     MECN     H12      HGA3     0.090000        1.0080           0
     52527 WT17     1094     MECN     H13      HGA3     0.090000        1.0080           0
     52528 WT17     1094     MECN     C2       CG1N1    0.360000       12.0110           0
     52529 WT17     1094     MECN     N3       NG1T1   -0.460000       14.0070           0
     52530 WT17     1095     MECN     C1       CG331   -0.170000       12.0110           0
     52531 WT17     1095     MECN     H11      HGA3     0.090000        1.0080           0
     52532 WT17     1095     MECN     H12      HGA3     0.090000        1.0080           0
     52533 WT17     1095     MECN     H13      HGA3     0.090000        1.0080           0
     52534 WT17     1095     MECN     C2       CG1N1    0.360000       12.0110           0
     52535 WT17     1095     MECN     N3       NG1T1   -0.460000       14.0070           0
     52536 WT17     1097     MECN     C1       CG331   -0.170000       12.0110           0
     52537 WT17     1097     MECN     H11      HGA3     0.090000        1.0080           0
     52538 WT17     1097     MECN     H12      HGA3     0.090000        1.0080           0
     52539 WT17     1097     MECN     H13      HGA3     0.090000        1.0080           0
     52540 WT17     1097     MECN     C2       CG1N1    0.360000       12.0110           0
     52541 WT17     1097     MECN     N3       NG1T1   -0.460000       14.0070           0
     52542 WT17     1100     MECN     C1       CG331   -0.170000       12.0110           0
     52543 WT17     1100     MECN     H11      HGA3     0.090000        1.0080           0
     52544 WT17     1100     MECN     H12      HGA3     0.090000        1.0080           0
     52545 WT17     1100     MECN     H13      HGA3     0.090000        1.0080           0
     52546 WT17     1100     MECN     C2       CG1N1    0.360000       12.0110           0
     52547 WT17     1100     MECN     N3       NG1T1   -0.460000       14.0070           0
     52548 WT17     1102     MECN     C1       CG331   -0.170000       12.0110           0
     52549 WT17     1102     MECN     H11      HGA3     0.090000        1.0080           0
     52550 WT17     1102     MECN     H12      HGA3     0.090000        1.0080           0
     52551 WT17     1102     MECN     H13      HGA3     0.090000        1.0080           0
     52552 WT17     1102     MECN     C2       CG1N1    0.360000       12.0110           0
     52553 WT17     1102     MECN     N3       NG1T1   -0.460000       14.0070           0
     52554 WT17     1103     MECN     C1       CG331   -0.170000       12.0110           0
     52555 WT17     1103     MECN     H11      HGA3     0.090000        1.0080           0
     52556 WT17     1103     MECN     H12      HGA3     0.090000        1.0080           0
     52557 WT17     1103     MECN     H13      HGA3     0.090000        1.0080           0
     52558 WT17     1103     MECN     C2       CG1N1    0.360000       12.0110           0
     52559 WT17     1103     MECN     N3       NG1T1   -0.460000       14.0070           0
     52560 WT17     1104     MECN     C1       CG331   -0.170000       12.0110           0
     52561 WT17     1104     MECN     H11      HGA3     0.090000        1.0080           0
     52562 WT17     1104     MECN     H12      HGA3     0.090000        1.0080           0
     52563 WT17     1104     MECN     H13      HGA3     0.090000        1.0080           0
     52564 WT17     1104     MECN     C2       CG1N1    0.360000       12.0110           0
     52565 WT17     1104     MECN     N3       NG1T1   -0.460000       14.0070           0
     52566 WT17     1105     MECN     C1       CG331   -0.170000       12.0110           0
     52567 WT17     1105     MECN     H11      HGA3     0.090000        1.0080           0
     52568 WT17     1105     MECN     H12      HGA3     0.090000        1.0080           0
     52569 WT17     1105     MECN     H13      HGA3     0.090000        1.0080           0
     52570 WT17     1105     MECN     C2       CG1N1    0.360000       12.0110           0
     52571 WT17     1105     MECN     N3       NG1T1   -0.460000       14.0070           0
     52572 WT17     1106     MECN     C1       CG331   -0.170000       12.0110           0
     52573 WT17     1106     MECN     H11      HGA3     0.090000        1.0080           0
     52574 WT17     1106     MECN     H12      HGA3     0.090000        1.0080           0
     52575 WT17     1106     MECN     H13      HGA3     0.090000        1.0080           0
     52576 WT17     1106     MECN     C2       CG1N1    0.360000       12.0110           0
     52577 WT17     1106     MECN     N3       NG1T1   -0.460000       14.0070           0
     52578 WT17     1108     MECN     C1       CG331   -0.170000       12.0110           0
     52579 WT17     1108     MECN     H11      HGA3     0.090000        1.0080           0
     52580 WT17     1108     MECN     H12      HGA3     0.090000        1.0080           0
     52581 WT17     1108     MECN     H13      HGA3     0.090000        1.0080           0
     52582 WT17     1108     MECN     C2       CG1N1    0.360000       12.0110           0
     52583 WT17     1108     MECN     N3       NG1T1   -0.460000       14.0070           0
     52584 WT17     1111     MECN     C1       CG331   -0.170000       12.0110           0
     52585 WT17     1111     MECN     H11      HGA3     0.090000        1.0080           0
     52586 WT17     1111     MECN     H12      HGA3     0.090000        1.0080           0
     52587 WT17     1111     MECN     H13      HGA3     0.090000        1.0080           0
     52588 WT17     1111     MECN     C2       CG1N1    0.360000       12.0110           0
     52589 WT17     1111     MECN     N3       NG1T1   -0.460000       14.0070           0
     52590 WT17     1114     MECN     C1       CG331   -0.170000       12.0110           0
     52591 WT17     1114     MECN     H11      HGA3     0.090000        1.0080           0
     52592 WT17     1114     MECN     H12      HGA3     0.090000        1.0080           0
     52593 WT17     1114     MECN     H13      HGA3     0.090000        1.0080           0
     52594 WT17     1114     MECN     C2       CG1N1    0.360000       12.0110           0
     52595 WT17     1114     MECN     N3       NG1T1   -0.460000       14.0070           0
     52596 WT17     1115     MECN     C1       CG331   -0.170000       12.0110           0
     52597 WT17     1115     MECN     H11      HGA3     0.090000        1.0080           0
     52598 WT17     1115     MECN     H12      HGA3     0.090000        1.0080           0
     52599 WT17     1115     MECN     H13      HGA3     0.090000        1.0080           0
     52600 WT17     1115     MECN     C2       CG1N1    0.360000       12.0110           0
     52601 WT17     1115     MECN     N3       NG1T1   -0.460000       14.0070           0
     52602 WT17     1116     MECN     C1       CG331   -0.170000       12.0110           0
     52603 WT17     1116     MECN     H11      HGA3     0.090000        1.0080           0
     52604 WT17     1116     MECN     H12      HGA3     0.090000        1.0080           0
     52605 WT17     1116     MECN     H13      HGA3     0.090000        1.0080           0
     52606 WT17     1116     MECN     C2       CG1N1    0.360000       12.0110           0
     52607 WT17     1116     MECN     N3       NG1T1   -0.460000       14.0070           0
     52608 WT17     1118     MECN     C1       CG331   -0.170000       12.0110           0
     52609 WT17     1118     MECN     H11      HGA3     0.090000        1.0080           0
     52610 WT17     1118     MECN     H12      HGA3     0.090000        1.0080           0
     52611 WT17     1118     MECN     H13      HGA3     0.090000        1.0080           0
     52612 WT17     1118     MECN     C2       CG1N1    0.360000       12.0110           0
     52613 WT17     1118     MECN     N3       NG1T1   -0.460000       14.0070           0
     52614 WT17     1119     MECN     C1       CG331   -0.170000       12.0110           0
     52615 WT17     1119     MECN     H11      HGA3     0.090000        1.0080           0
     52616 WT17     1119     MECN     H12      HGA3     0.090000        1.0080           0
     52617 WT17     1119     MECN     H13      HGA3     0.090000        1.0080           0
     52618 WT17     1119     MECN     C2       CG1N1    0.360000       12.0110           0
     52619 WT17     1119     MECN     N3       NG1T1   -0.460000       14.0070           0
     52620 WT17     1120     MECN     C1       CG331   -0.170000       12.0110           0
     52621 WT17     1120     MECN     H11      HGA3     0.090000        1.0080           0
     52622 WT17     1120     MECN     H12      HGA3     0.090000        1.0080           0
     52623 WT17     1120     MECN     H13      HGA3     0.090000        1.0080           0
     52624 WT17     1120     MECN     C2       CG1N1    0.360000       12.0110           0
     52625 WT17     1120     MECN     N3       NG1T1   -0.460000       14.0070           0
     52626 WT17     1125     MECN     C1       CG331   -0.170000       12.0110           0
     52627 WT17     1125     MECN     H11      HGA3     0.090000        1.0080           0
     52628 WT17     1125     MECN     H12      HGA3     0.090000        1.0080           0
     52629 WT17     1125     MECN     H13      HGA3     0.090000        1.0080           0
     52630 WT17     1125     MECN     C2       CG1N1    0.360000       12.0110           0
     52631 WT17     1125     MECN     N3       NG1T1   -0.460000       14.0070           0
     52632 WT17     1127     MECN     C1       CG331   -0.170000       12.0110           0
     52633 WT17     1127     MECN     H11      HGA3     0.090000        1.0080           0
     52634 WT17     1127     MECN     H12      HGA3     0.090000        1.0080           0
     52635 WT17     1127     MECN     H13      HGA3     0.090000        1.0080           0
     52636 WT17     1127     MECN     C2       CG1N1    0.360000       12.0110           0
     52637 WT17     1127     MECN     N3       NG1T1   -0.460000       14.0070           0
     52638 WT17     1128     MECN     C1       CG331   -0.170000       12.0110           0
     52639 WT17     1128     MECN     H11      HGA3     0.090000        1.0080           0
     52640 WT17     1128     MECN     H12      HGA3     0.090000        1.0080           0
     52641 WT17     1128     MECN     H13      HGA3     0.090000        1.0080           0
     52642 WT17     1128     MECN     C2       CG1N1    0.360000       12.0110           0
     52643 WT17     1128     MECN     N3       NG1T1   -0.460000       14.0070           0
     52644 WT17     1132     MECN     C1       CG331   -0.170000       12.0110           0
     52645 WT17     1132     MECN     H11      HGA3     0.090000        1.0080           0
     52646 WT17     1132     MECN     H12      HGA3     0.090000        1.0080           0
     52647 WT17     1132     MECN     H13      HGA3     0.090000        1.0080           0
     52648 WT17     1132     MECN     C2       CG1N1    0.360000       12.0110           0
     52649 WT17     1132     MECN     N3       NG1T1   -0.460000       14.0070           0
     52650 WT17     1133     MECN     C1       CG331   -0.170000       12.0110           0
     52651 WT17     1133     MECN     H11      HGA3     0.090000        1.0080           0
     52652 WT17     1133     MECN     H12      HGA3     0.090000        1.0080           0
     52653 WT17     1133     MECN     H13      HGA3     0.090000        1.0080           0
     52654 WT17     1133     MECN     C2       CG1N1    0.360000       12.0110           0
     52655 WT17     1133     MECN     N3       NG1T1   -0.460000       14.0070           0
     52656 WT17     1135     MECN     C1       CG331   -0.170000       12.0110           0
     52657 WT17     1135     MECN     H11      HGA3     0.090000        1.0080           0
     52658 WT17     1135     MECN     H12      HGA3     0.090000        1.0080           0
     52659 WT17     1135     MECN     H13      HGA3     0.090000        1.0080           0
     52660 WT17     1135     MECN     C2       CG1N1    0.360000       12.0110           0
     52661 WT17     1135     MECN     N3       NG1T1   -0.460000       14.0070           0
     52662 WT17     1137     MECN     C1       CG331   -0.170000       12.0110           0
     52663 WT17     1137     MECN     H11      HGA3     0.090000        1.0080           0
     52664 WT17     1137     MECN     H12      HGA3     0.090000        1.0080           0
     52665 WT17     1137     MECN     H13      HGA3     0.090000        1.0080           0
     52666 WT17     1137     MECN     C2       CG1N1    0.360000       12.0110           0
     52667 WT17     1137     MECN     N3       NG1T1   -0.460000       14.0070           0
     52668 WT17     1140     MECN     C1       CG331   -0.170000       12.0110           0
     52669 WT17     1140     MECN     H11      HGA3     0.090000        1.0080           0
     52670 WT17     1140     MECN     H12      HGA3     0.090000        1.0080           0
     52671 WT17     1140     MECN     H13      HGA3     0.090000        1.0080           0
     52672 WT17     1140     MECN     C2       CG1N1    0.360000       12.0110           0
     52673 WT17     1140     MECN     N3       NG1T1   -0.460000       14.0070           0
     52674 WT17     1141     MECN     C1       CG331   -0.170000       12.0110           0
     52675 WT17     1141     MECN     H11      HGA3     0.090000        1.0080           0
     52676 WT17     1141     MECN     H12      HGA3     0.090000        1.0080           0
     52677 WT17     1141     MECN     H13      HGA3     0.090000        1.0080           0
     52678 WT17     1141     MECN     C2       CG1N1    0.360000       12.0110           0
     52679 WT17     1141     MECN     N3       NG1T1   -0.460000       14.0070           0
     52680 WT17     1142     MECN     C1       CG331   -0.170000       12.0110           0
     52681 WT17     1142     MECN     H11      HGA3     0.090000        1.0080           0
     52682 WT17     1142     MECN     H12      HGA3     0.090000        1.0080           0
     52683 WT17     1142     MECN     H13      HGA3     0.090000        1.0080           0
     52684 WT17     1142     MECN     C2       CG1N1    0.360000       12.0110           0
     52685 WT17     1142     MECN     N3       NG1T1   -0.460000       14.0070           0
     52686 WT17     1145     MECN     C1       CG331   -0.170000       12.0110           0
     52687 WT17     1145     MECN     H11      HGA3     0.090000        1.0080           0
     52688 WT17     1145     MECN     H12      HGA3     0.090000        1.0080           0
     52689 WT17     1145     MECN     H13      HGA3     0.090000        1.0080           0
     52690 WT17     1145     MECN     C2       CG1N1    0.360000       12.0110           0
     52691 WT17     1145     MECN     N3       NG1T1   -0.460000       14.0070           0
     52692 WT17     1146     MECN     C1       CG331   -0.170000       12.0110           0
     52693 WT17     1146     MECN     H11      HGA3     0.090000        1.0080           0
     52694 WT17     1146     MECN     H12      HGA3     0.090000        1.0080           0
     52695 WT17     1146     MECN     H13      HGA3     0.090000        1.0080           0
     52696 WT17     1146     MECN     C2       CG1N1    0.360000       12.0110           0
     52697 WT17     1146     MECN     N3       NG1T1   -0.460000       14.0070           0
     52698 WT17     1147     MECN     C1       CG331   -0.170000       12.0110           0
     52699 WT17     1147     MECN     H11      HGA3     0.090000        1.0080           0
     52700 WT17     1147     MECN     H12      HGA3     0.090000        1.0080           0
     52701 WT17     1147     MECN     H13      HGA3     0.090000        1.0080           0
     52702 WT17     1147     MECN     C2       CG1N1    0.360000       12.0110           0
     52703 WT17     1147     MECN     N3       NG1T1   -0.460000       14.0070           0
     52704 WT17     1148     MECN     C1       CG331   -0.170000       12.0110           0
     52705 WT17     1148     MECN     H11      HGA3     0.090000        1.0080           0
     52706 WT17     1148     MECN     H12      HGA3     0.090000        1.0080           0
     52707 WT17     1148     MECN     H13      HGA3     0.090000        1.0080           0
     52708 WT17     1148     MECN     C2       CG1N1    0.360000       12.0110           0
     52709 WT17     1148     MECN     N3       NG1T1   -0.460000       14.0070           0
     52710 WT17     1149     MECN     C1       CG331   -0.170000       12.0110           0
     52711 WT17     1149     MECN     H11      HGA3     0.090000        1.0080           0
     52712 WT17     1149     MECN     H12      HGA3     0.090000        1.0080           0
     52713 WT17     1149     MECN     H13      HGA3     0.090000        1.0080           0
     52714 WT17     1149     MECN     C2       CG1N1    0.360000       12.0110           0
     52715 WT17     1149     MECN     N3       NG1T1   -0.460000       14.0070           0
     52716 WT17     1150     MECN     C1       CG331   -0.170000       12.0110           0
     52717 WT17     1150     MECN     H11      HGA3     0.090000        1.0080           0
     52718 WT17     1150     MECN     H12      HGA3     0.090000        1.0080           0
     52719 WT17     1150     MECN     H13      HGA3     0.090000        1.0080           0
     52720 WT17     1150     MECN     C2       CG1N1    0.360000       12.0110           0
     52721 WT17     1150     MECN     N3       NG1T1   -0.460000       14.0070           0
     52722 WT17     1151     MECN     C1       CG331   -0.170000       12.0110           0
     52723 WT17     1151     MECN     H11      HGA3     0.090000        1.0080           0
     52724 WT17     1151     MECN     H12      HGA3     0.090000        1.0080           0
     52725 WT17     1151     MECN     H13      HGA3     0.090000        1.0080           0
     52726 WT17     1151     MECN     C2       CG1N1    0.360000       12.0110           0
     52727 WT17     1151     MECN     N3       NG1T1   -0.460000       14.0070           0
     52728 WT17     1152     MECN     C1       CG331   -0.170000       12.0110           0
     52729 WT17     1152     MECN     H11      HGA3     0.090000        1.0080           0
     52730 WT17     1152     MECN     H12      HGA3     0.090000        1.0080           0
     52731 WT17     1152     MECN     H13      HGA3     0.090000        1.0080           0
     52732 WT17     1152     MECN     C2       CG1N1    0.360000       12.0110           0
     52733 WT17     1152     MECN     N3       NG1T1   -0.460000       14.0070           0
     52734 WT17     1154     MECN     C1       CG331   -0.170000       12.0110           0
     52735 WT17     1154     MECN     H11      HGA3     0.090000        1.0080           0
     52736 WT17     1154     MECN     H12      HGA3     0.090000        1.0080           0
     52737 WT17     1154     MECN     H13      HGA3     0.090000        1.0080           0
     52738 WT17     1154     MECN     C2       CG1N1    0.360000       12.0110           0
     52739 WT17     1154     MECN     N3       NG1T1   -0.460000       14.0070           0
     52740 WT17     1156     MECN     C1       CG331   -0.170000       12.0110           0
     52741 WT17     1156     MECN     H11      HGA3     0.090000        1.0080           0
     52742 WT17     1156     MECN     H12      HGA3     0.090000        1.0080           0
     52743 WT17     1156     MECN     H13      HGA3     0.090000        1.0080           0
     52744 WT17     1156     MECN     C2       CG1N1    0.360000       12.0110           0
     52745 WT17     1156     MECN     N3       NG1T1   -0.460000       14.0070           0
     52746 WT17     1159     MECN     C1       CG331   -0.170000       12.0110           0
     52747 WT17     1159     MECN     H11      HGA3     0.090000        1.0080           0
     52748 WT17     1159     MECN     H12      HGA3     0.090000        1.0080           0
     52749 WT17     1159     MECN     H13      HGA3     0.090000        1.0080           0
     52750 WT17     1159     MECN     C2       CG1N1    0.360000       12.0110           0
     52751 WT17     1159     MECN     N3       NG1T1   -0.460000       14.0070           0
     52752 WT17     1160     MECN     C1       CG331   -0.170000       12.0110           0
     52753 WT17     1160     MECN     H11      HGA3     0.090000        1.0080           0
     52754 WT17     1160     MECN     H12      HGA3     0.090000        1.0080           0
     52755 WT17     1160     MECN     H13      HGA3     0.090000        1.0080           0
     52756 WT17     1160     MECN     C2       CG1N1    0.360000       12.0110           0
     52757 WT17     1160     MECN     N3       NG1T1   -0.460000       14.0070           0
     52758 WT17     1161     MECN     C1       CG331   -0.170000       12.0110           0
     52759 WT17     1161     MECN     H11      HGA3     0.090000        1.0080           0
     52760 WT17     1161     MECN     H12      HGA3     0.090000        1.0080           0
     52761 WT17     1161     MECN     H13      HGA3     0.090000        1.0080           0
     52762 WT17     1161     MECN     C2       CG1N1    0.360000       12.0110           0
     52763 WT17     1161     MECN     N3       NG1T1   -0.460000       14.0070           0
     52764 WT17     1167     MECN     C1       CG331   -0.170000       12.0110           0
     52765 WT17     1167     MECN     H11      HGA3     0.090000        1.0080           0
     52766 WT17     1167     MECN     H12      HGA3     0.090000        1.0080           0
     52767 WT17     1167     MECN     H13      HGA3     0.090000        1.0080           0
     52768 WT17     1167     MECN     C2       CG1N1    0.360000       12.0110           0
     52769 WT17     1167     MECN     N3       NG1T1   -0.460000       14.0070           0
     52770 WT17     1168     MECN     C1       CG331   -0.170000       12.0110           0
     52771 WT17     1168     MECN     H11      HGA3     0.090000        1.0080           0
     52772 WT17     1168     MECN     H12      HGA3     0.090000        1.0080           0
     52773 WT17     1168     MECN     H13      HGA3     0.090000        1.0080           0
     52774 WT17     1168     MECN     C2       CG1N1    0.360000       12.0110           0
     52775 WT17     1168     MECN     N3       NG1T1   -0.460000       14.0070           0
     52776 WT17     1170     MECN     C1       CG331   -0.170000       12.0110           0
     52777 WT17     1170     MECN     H11      HGA3     0.090000        1.0080           0
     52778 WT17     1170     MECN     H12      HGA3     0.090000        1.0080           0
     52779 WT17     1170     MECN     H13      HGA3     0.090000        1.0080           0
     52780 WT17     1170     MECN     C2       CG1N1    0.360000       12.0110           0
     52781 WT17     1170     MECN     N3       NG1T1   -0.460000       14.0070           0
     52782 WT17     1171     MECN     C1       CG331   -0.170000       12.0110           0
     52783 WT17     1171     MECN     H11      HGA3     0.090000        1.0080           0
     52784 WT17     1171     MECN     H12      HGA3     0.090000        1.0080           0
     52785 WT17     1171     MECN     H13      HGA3     0.090000        1.0080           0
     52786 WT17     1171     MECN     C2       CG1N1    0.360000       12.0110           0
     52787 WT17     1171     MECN     N3       NG1T1   -0.460000       14.0070           0
     52788 WT17     1175     MECN     C1       CG331   -0.170000       12.0110           0
     52789 WT17     1175     MECN     H11      HGA3     0.090000        1.0080           0
     52790 WT17     1175     MECN     H12      HGA3     0.090000        1.0080           0
     52791 WT17     1175     MECN     H13      HGA3     0.090000        1.0080           0
     52792 WT17     1175     MECN     C2       CG1N1    0.360000       12.0110           0
     52793 WT17     1175     MECN     N3       NG1T1   -0.460000       14.0070           0
     52794 WT17     1176     MECN     C1       CG331   -0.170000       12.0110           0
     52795 WT17     1176     MECN     H11      HGA3     0.090000        1.0080           0
     52796 WT17     1176     MECN     H12      HGA3     0.090000        1.0080           0
     52797 WT17     1176     MECN     H13      HGA3     0.090000        1.0080           0
     52798 WT17     1176     MECN     C2       CG1N1    0.360000       12.0110           0
     52799 WT17     1176     MECN     N3       NG1T1   -0.460000       14.0070           0
     52800 WT17     1177     MECN     C1       CG331   -0.170000       12.0110           0
     52801 WT17     1177     MECN     H11      HGA3     0.090000        1.0080           0
     52802 WT17     1177     MECN     H12      HGA3     0.090000        1.0080           0
     52803 WT17     1177     MECN     H13      HGA3     0.090000        1.0080           0
     52804 WT17     1177     MECN     C2       CG1N1    0.360000       12.0110           0
     52805 WT17     1177     MECN     N3       NG1T1   -0.460000       14.0070           0
     52806 WT17     1178     MECN     C1       CG331   -0.170000       12.0110           0
     52807 WT17     1178     MECN     H11      HGA3     0.090000        1.0080           0
     52808 WT17     1178     MECN     H12      HGA3     0.090000        1.0080           0
     52809 WT17     1178     MECN     H13      HGA3     0.090000        1.0080           0
     52810 WT17     1178     MECN     C2       CG1N1    0.360000       12.0110           0
     52811 WT17     1178     MECN     N3       NG1T1   -0.460000       14.0070           0
     52812 WT17     1179     MECN     C1       CG331   -0.170000       12.0110           0
     52813 WT17     1179     MECN     H11      HGA3     0.090000        1.0080           0
     52814 WT17     1179     MECN     H12      HGA3     0.090000        1.0080           0
     52815 WT17     1179     MECN     H13      HGA3     0.090000        1.0080           0
     52816 WT17     1179     MECN     C2       CG1N1    0.360000       12.0110           0
     52817 WT17     1179     MECN     N3       NG1T1   -0.460000       14.0070           0
     52818 WT17     1180     MECN     C1       CG331   -0.170000       12.0110           0
     52819 WT17     1180     MECN     H11      HGA3     0.090000        1.0080           0
     52820 WT17     1180     MECN     H12      HGA3     0.090000        1.0080           0
     52821 WT17     1180     MECN     H13      HGA3     0.090000        1.0080           0
     52822 WT17     1180     MECN     C2       CG1N1    0.360000       12.0110           0
     52823 WT17     1180     MECN     N3       NG1T1   -0.460000       14.0070           0
     52824 WT17     1181     MECN     C1       CG331   -0.170000       12.0110           0
     52825 WT17     1181     MECN     H11      HGA3     0.090000        1.0080           0
     52826 WT17     1181     MECN     H12      HGA3     0.090000        1.0080           0
     52827 WT17     1181     MECN     H13      HGA3     0.090000        1.0080           0
     52828 WT17     1181     MECN     C2       CG1N1    0.360000       12.0110           0
     52829 WT17     1181     MECN     N3       NG1T1   -0.460000       14.0070           0
     52830 WT17     1182     MECN     C1       CG331   -0.170000       12.0110           0
     52831 WT17     1182     MECN     H11      HGA3     0.090000        1.0080           0
     52832 WT17     1182     MECN     H12      HGA3     0.090000        1.0080           0
     52833 WT17     1182     MECN     H13      HGA3     0.090000        1.0080           0
     52834 WT17     1182     MECN     C2       CG1N1    0.360000       12.0110           0
     52835 WT17     1182     MECN     N3       NG1T1   -0.460000       14.0070           0
     52836 WT17     1183     MECN     C1       CG331   -0.170000       12.0110           0
     52837 WT17     1183     MECN     H11      HGA3     0.090000        1.0080           0
     52838 WT17     1183     MECN     H12      HGA3     0.090000        1.0080           0
     52839 WT17     1183     MECN     H13      HGA3     0.090000        1.0080           0
     52840 WT17     1183     MECN     C2       CG1N1    0.360000       12.0110           0
     52841 WT17     1183     MECN     N3       NG1T1   -0.460000       14.0070           0
     52842 WT17     1184     MECN     C1       CG331   -0.170000       12.0110           0
     52843 WT17     1184     MECN     H11      HGA3     0.090000        1.0080           0
     52844 WT17     1184     MECN     H12      HGA3     0.090000        1.0080           0
     52845 WT17     1184     MECN     H13      HGA3     0.090000        1.0080           0
     52846 WT17     1184     MECN     C2       CG1N1    0.360000       12.0110           0
     52847 WT17     1184     MECN     N3       NG1T1   -0.460000       14.0070           0
     52848 WT17     1185     MECN     C1       CG331   -0.170000       12.0110           0
     52849 WT17     1185     MECN     H11      HGA3     0.090000        1.0080           0
     52850 WT17     1185     MECN     H12      HGA3     0.090000        1.0080           0
     52851 WT17     1185     MECN     H13      HGA3     0.090000        1.0080           0
     52852 WT17     1185     MECN     C2       CG1N1    0.360000       12.0110           0
     52853 WT17     1185     MECN     N3       NG1T1   -0.460000       14.0070           0
     52854 WT17     1186     MECN     C1       CG331   -0.170000       12.0110           0
     52855 WT17     1186     MECN     H11      HGA3     0.090000        1.0080           0
     52856 WT17     1186     MECN     H12      HGA3     0.090000        1.0080           0
     52857 WT17     1186     MECN     H13      HGA3     0.090000        1.0080           0
     52858 WT17     1186     MECN     C2       CG1N1    0.360000       12.0110           0
     52859 WT17     1186     MECN     N3       NG1T1   -0.460000       14.0070           0
     52860 WT17     1188     MECN     C1       CG331   -0.170000       12.0110           0
     52861 WT17     1188     MECN     H11      HGA3     0.090000        1.0080           0
     52862 WT17     1188     MECN     H12      HGA3     0.090000        1.0080           0
     52863 WT17     1188     MECN     H13      HGA3     0.090000        1.0080           0
     52864 WT17     1188     MECN     C2       CG1N1    0.360000       12.0110           0
     52865 WT17     1188     MECN     N3       NG1T1   -0.460000       14.0070           0
     52866 WT17     1194     MECN     C1       CG331   -0.170000       12.0110           0
     52867 WT17     1194     MECN     H11      HGA3     0.090000        1.0080           0
     52868 WT17     1194     MECN     H12      HGA3     0.090000        1.0080           0
     52869 WT17     1194     MECN     H13      HGA3     0.090000        1.0080           0
     52870 WT17     1194     MECN     C2       CG1N1    0.360000       12.0110           0
     52871 WT17     1194     MECN     N3       NG1T1   -0.460000       14.0070           0
     52872 WT17     1200     MECN     C1       CG331   -0.170000       12.0110           0
     52873 WT17     1200     MECN     H11      HGA3     0.090000        1.0080           0
     52874 WT17     1200     MECN     H12      HGA3     0.090000        1.0080           0
     52875 WT17     1200     MECN     H13      HGA3     0.090000        1.0080           0
     52876 WT17     1200     MECN     C2       CG1N1    0.360000       12.0110           0
     52877 WT17     1200     MECN     N3       NG1T1   -0.460000       14.0070           0
     52878 WT17     1201     MECN     C1       CG331   -0.170000       12.0110           0
     52879 WT17     1201     MECN     H11      HGA3     0.090000        1.0080           0
     52880 WT17     1201     MECN     H12      HGA3     0.090000        1.0080           0
     52881 WT17     1201     MECN     H13      HGA3     0.090000        1.0080           0
     52882 WT17     1201     MECN     C2       CG1N1    0.360000       12.0110           0
     52883 WT17     1201     MECN     N3       NG1T1   -0.460000       14.0070           0
     52884 WT17     1202     MECN     C1       CG331   -0.170000       12.0110           0
     52885 WT17     1202     MECN     H11      HGA3     0.090000        1.0080           0
     52886 WT17     1202     MECN     H12      HGA3     0.090000        1.0080           0
     52887 WT17     1202     MECN     H13      HGA3     0.090000        1.0080           0
     52888 WT17     1202     MECN     C2       CG1N1    0.360000       12.0110           0
     52889 WT17     1202     MECN     N3       NG1T1   -0.460000       14.0070           0
     52890 WT17     1203     MECN     C1       CG331   -0.170000       12.0110           0
     52891 WT17     1203     MECN     H11      HGA3     0.090000        1.0080           0
     52892 WT17     1203     MECN     H12      HGA3     0.090000        1.0080           0
     52893 WT17     1203     MECN     H13      HGA3     0.090000        1.0080           0
     52894 WT17     1203     MECN     C2       CG1N1    0.360000       12.0110           0
     52895 WT17     1203     MECN     N3       NG1T1   -0.460000       14.0070           0
     52896 WT17     1204     MECN     C1       CG331   -0.170000       12.0110           0
     52897 WT17     1204     MECN     H11      HGA3     0.090000        1.0080           0
     52898 WT17     1204     MECN     H12      HGA3     0.090000        1.0080           0
     52899 WT17     1204     MECN     H13      HGA3     0.090000        1.0080           0
     52900 WT17     1204     MECN     C2       CG1N1    0.360000       12.0110           0
     52901 WT17     1204     MECN     N3       NG1T1   -0.460000       14.0070           0
     52902 WT17     1206     MECN     C1       CG331   -0.170000       12.0110           0
     52903 WT17     1206     MECN     H11      HGA3     0.090000        1.0080           0
     52904 WT17     1206     MECN     H12      HGA3     0.090000        1.0080           0
     52905 WT17     1206     MECN     H13      HGA3     0.090000        1.0080           0
     52906 WT17     1206     MECN     C2       CG1N1    0.360000       12.0110           0
     52907 WT17     1206     MECN     N3       NG1T1   -0.460000       14.0070           0
     52908 WT17     1207     MECN     C1       CG331   -0.170000       12.0110           0
     52909 WT17     1207     MECN     H11      HGA3     0.090000        1.0080           0
     52910 WT17     1207     MECN     H12      HGA3     0.090000        1.0080           0
     52911 WT17     1207     MECN     H13      HGA3     0.090000        1.0080           0
     52912 WT17     1207     MECN     C2       CG1N1    0.360000       12.0110           0
     52913 WT17     1207     MECN     N3       NG1T1   -0.460000       14.0070           0
     52914 WT17     1208     MECN     C1       CG331   -0.170000       12.0110           0
     52915 WT17     1208     MECN     H11      HGA3     0.090000        1.0080           0
     52916 WT17     1208     MECN     H12      HGA3     0.090000        1.0080           0
     52917 WT17     1208     MECN     H13      HGA3     0.090000        1.0080           0
     52918 WT17     1208     MECN     C2       CG1N1    0.360000       12.0110           0
     52919 WT17     1208     MECN     N3       NG1T1   -0.460000       14.0070           0
     52920 WT17     1209     MECN     C1       CG331   -0.170000       12.0110           0
     52921 WT17     1209     MECN     H11      HGA3     0.090000        1.0080           0
     52922 WT17     1209     MECN     H12      HGA3     0.090000        1.0080           0
     52923 WT17     1209     MECN     H13      HGA3     0.090000        1.0080           0
     52924 WT17     1209     MECN     C2       CG1N1    0.360000       12.0110           0
     52925 WT17     1209     MECN     N3       NG1T1   -0.460000       14.0070           0
     52926 WT17     1215     MECN     C1       CG331   -0.170000       12.0110           0
     52927 WT17     1215     MECN     H11      HGA3     0.090000        1.0080           0
     52928 WT17     1215     MECN     H12      HGA3     0.090000        1.0080           0
     52929 WT17     1215     MECN     H13      HGA3     0.090000        1.0080           0
     52930 WT17     1215     MECN     C2       CG1N1    0.360000       12.0110           0
     52931 WT17     1215     MECN     N3       NG1T1   -0.460000       14.0070           0
     52932 WT17     1216     MECN     C1       CG331   -0.170000       12.0110           0
     52933 WT17     1216     MECN     H11      HGA3     0.090000        1.0080           0
     52934 WT17     1216     MECN     H12      HGA3     0.090000        1.0080           0
     52935 WT17     1216     MECN     H13      HGA3     0.090000        1.0080           0
     52936 WT17     1216     MECN     C2       CG1N1    0.360000       12.0110           0
     52937 WT17     1216     MECN     N3       NG1T1   -0.460000       14.0070           0
     52938 WT17     1217     MECN     C1       CG331   -0.170000       12.0110           0
     52939 WT17     1217     MECN     H11      HGA3     0.090000        1.0080           0
     52940 WT17     1217     MECN     H12      HGA3     0.090000        1.0080           0
     52941 WT17     1217     MECN     H13      HGA3     0.090000        1.0080           0
     52942 WT17     1217     MECN     C2       CG1N1    0.360000       12.0110           0
     52943 WT17     1217     MECN     N3       NG1T1   -0.460000       14.0070           0
     52944 WT17     1218     MECN     C1       CG331   -0.170000       12.0110           0
     52945 WT17     1218     MECN     H11      HGA3     0.090000        1.0080           0
     52946 WT17     1218     MECN     H12      HGA3     0.090000        1.0080           0
     52947 WT17     1218     MECN     H13      HGA3     0.090000        1.0080           0
     52948 WT17     1218     MECN     C2       CG1N1    0.360000       12.0110           0
     52949 WT17     1218     MECN     N3       NG1T1   -0.460000       14.0070           0
     52950 WT17     1220     MECN     C1       CG331   -0.170000       12.0110           0
     52951 WT17     1220     MECN     H11      HGA3     0.090000        1.0080           0
     52952 WT17     1220     MECN     H12      HGA3     0.090000        1.0080           0
     52953 WT17     1220     MECN     H13      HGA3     0.090000        1.0080           0
     52954 WT17     1220     MECN     C2       CG1N1    0.360000       12.0110           0
     52955 WT17     1220     MECN     N3       NG1T1   -0.460000       14.0070           0
     52956 WT17     1221     MECN     C1       CG331   -0.170000       12.0110           0
     52957 WT17     1221     MECN     H11      HGA3     0.090000        1.0080           0
     52958 WT17     1221     MECN     H12      HGA3     0.090000        1.0080           0
     52959 WT17     1221     MECN     H13      HGA3     0.090000        1.0080           0
     52960 WT17     1221     MECN     C2       CG1N1    0.360000       12.0110           0
     52961 WT17     1221     MECN     N3       NG1T1   -0.460000       14.0070           0
     52962 WT17     1222     MECN     C1       CG331   -0.170000       12.0110           0
     52963 WT17     1222     MECN     H11      HGA3     0.090000        1.0080           0
     52964 WT17     1222     MECN     H12      HGA3     0.090000        1.0080           0
     52965 WT17     1222     MECN     H13      HGA3     0.090000        1.0080           0
     52966 WT17     1222     MECN     C2       CG1N1    0.360000       12.0110           0
     52967 WT17     1222     MECN     N3       NG1T1   -0.460000       14.0070           0
     52968 WT17     1224     MECN     C1       CG331   -0.170000       12.0110           0
     52969 WT17     1224     MECN     H11      HGA3     0.090000        1.0080           0
     52970 WT17     1224     MECN     H12      HGA3     0.090000        1.0080           0
     52971 WT17     1224     MECN     H13      HGA3     0.090000        1.0080           0
     52972 WT17     1224     MECN     C2       CG1N1    0.360000       12.0110           0
     52973 WT17     1224     MECN     N3       NG1T1   -0.460000       14.0070           0
     52974 WT17     1225     MECN     C1       CG331   -0.170000       12.0110           0
     52975 WT17     1225     MECN     H11      HGA3     0.090000        1.0080           0
     52976 WT17     1225     MECN     H12      HGA3     0.090000        1.0080           0
     52977 WT17     1225     MECN     H13      HGA3     0.090000        1.0080           0
     52978 WT17     1225     MECN     C2       CG1N1    0.360000       12.0110           0
     52979 WT17     1225     MECN     N3       NG1T1   -0.460000       14.0070           0
     52980 WT17     1226     MECN     C1       CG331   -0.170000       12.0110           0
     52981 WT17     1226     MECN     H11      HGA3     0.090000        1.0080           0
     52982 WT17     1226     MECN     H12      HGA3     0.090000        1.0080           0
     52983 WT17     1226     MECN     H13      HGA3     0.090000        1.0080           0
     52984 WT17     1226     MECN     C2       CG1N1    0.360000       12.0110           0
     52985 WT17     1226     MECN     N3       NG1T1   -0.460000       14.0070           0
     52986 WT17     1227     MECN     C1       CG331   -0.170000       12.0110           0
     52987 WT17     1227     MECN     H11      HGA3     0.090000        1.0080           0
     52988 WT17     1227     MECN     H12      HGA3     0.090000        1.0080           0
     52989 WT17     1227     MECN     H13      HGA3     0.090000        1.0080           0
     52990 WT17     1227     MECN     C2       CG1N1    0.360000       12.0110           0
     52991 WT17     1227     MECN     N3       NG1T1   -0.460000       14.0070           0
     52992 WT17     1229     MECN     C1       CG331   -0.170000       12.0110           0
     52993 WT17     1229     MECN     H11      HGA3     0.090000        1.0080           0
     52994 WT17     1229     MECN     H12      HGA3     0.090000        1.0080           0
     52995 WT17     1229     MECN     H13      HGA3     0.090000        1.0080           0
     52996 WT17     1229     MECN     C2       CG1N1    0.360000       12.0110           0
     52997 WT17     1229     MECN     N3       NG1T1   -0.460000       14.0070           0
     52998 WT17     1230     MECN     C1       CG331   -0.170000       12.0110           0
     52999 WT17     1230     MECN     H11      HGA3     0.090000        1.0080           0
     53000 WT17     1230     MECN     H12      HGA3     0.090000        1.0080           0
     53001 WT17     1230     MECN     H13      HGA3     0.090000        1.0080           0
     53002 WT17     1230     MECN     C2       CG1N1    0.360000       12.0110           0
     53003 WT17     1230     MECN     N3       NG1T1   -0.460000       14.0070           0
     53004 WT17     1233     MECN     C1       CG331   -0.170000       12.0110           0
     53005 WT17     1233     MECN     H11      HGA3     0.090000        1.0080           0
     53006 WT17     1233     MECN     H12      HGA3     0.090000        1.0080           0
     53007 WT17     1233     MECN     H13      HGA3     0.090000        1.0080           0
     53008 WT17     1233     MECN     C2       CG1N1    0.360000       12.0110           0
     53009 WT17     1233     MECN     N3       NG1T1   -0.460000       14.0070           0
     53010 WT17     1237     MECN     C1       CG331   -0.170000       12.0110           0
     53011 WT17     1237     MECN     H11      HGA3     0.090000        1.0080           0
     53012 WT17     1237     MECN     H12      HGA3     0.090000        1.0080           0
     53013 WT17     1237     MECN     H13      HGA3     0.090000        1.0080           0
     53014 WT17     1237     MECN     C2       CG1N1    0.360000       12.0110           0
     53015 WT17     1237     MECN     N3       NG1T1   -0.460000       14.0070           0
     53016 WT17     1239     MECN     C1       CG331   -0.170000       12.0110           0
     53017 WT17     1239     MECN     H11      HGA3     0.090000        1.0080           0
     53018 WT17     1239     MECN     H12      HGA3     0.090000        1.0080           0
     53019 WT17     1239     MECN     H13      HGA3     0.090000        1.0080           0
     53020 WT17     1239     MECN     C2       CG1N1    0.360000       12.0110           0
     53021 WT17     1239     MECN     N3       NG1T1   -0.460000       14.0070           0
     53022 WT17     1240     MECN     C1       CG331   -0.170000       12.0110           0
     53023 WT17     1240     MECN     H11      HGA3     0.090000        1.0080           0
     53024 WT17     1240     MECN     H12      HGA3     0.090000        1.0080           0
     53025 WT17     1240     MECN     H13      HGA3     0.090000        1.0080           0
     53026 WT17     1240     MECN     C2       CG1N1    0.360000       12.0110           0
     53027 WT17     1240     MECN     N3       NG1T1   -0.460000       14.0070           0
     53028 WT17     1241     MECN     C1       CG331   -0.170000       12.0110           0
     53029 WT17     1241     MECN     H11      HGA3     0.090000        1.0080           0
     53030 WT17     1241     MECN     H12      HGA3     0.090000        1.0080           0
     53031 WT17     1241     MECN     H13      HGA3     0.090000        1.0080           0
     53032 WT17     1241     MECN     C2       CG1N1    0.360000       12.0110           0
     53033 WT17     1241     MECN     N3       NG1T1   -0.460000       14.0070           0
     53034 WT17     1243     MECN     C1       CG331   -0.170000       12.0110           0
     53035 WT17     1243     MECN     H11      HGA3     0.090000        1.0080           0
     53036 WT17     1243     MECN     H12      HGA3     0.090000        1.0080           0
     53037 WT17     1243     MECN     H13      HGA3     0.090000        1.0080           0
     53038 WT17     1243     MECN     C2       CG1N1    0.360000       12.0110           0
     53039 WT17     1243     MECN     N3       NG1T1   -0.460000       14.0070           0
     53040 WT17     1244     MECN     C1       CG331   -0.170000       12.0110           0
     53041 WT17     1244     MECN     H11      HGA3     0.090000        1.0080           0
     53042 WT17     1244     MECN     H12      HGA3     0.090000        1.0080           0
     53043 WT17     1244     MECN     H13      HGA3     0.090000        1.0080           0
     53044 WT17     1244     MECN     C2       CG1N1    0.360000       12.0110           0
     53045 WT17     1244     MECN     N3       NG1T1   -0.460000       14.0070           0
     53046 WT17     1245     MECN     C1       CG331   -0.170000       12.0110           0
     53047 WT17     1245     MECN     H11      HGA3     0.090000        1.0080           0
     53048 WT17     1245     MECN     H12      HGA3     0.090000        1.0080           0
     53049 WT17     1245     MECN     H13      HGA3     0.090000        1.0080           0
     53050 WT17     1245     MECN     C2       CG1N1    0.360000       12.0110           0
     53051 WT17     1245     MECN     N3       NG1T1   -0.460000       14.0070           0
     53052 WT17     1247     MECN     C1       CG331   -0.170000       12.0110           0
     53053 WT17     1247     MECN     H11      HGA3     0.090000        1.0080           0
     53054 WT17     1247     MECN     H12      HGA3     0.090000        1.0080           0
     53055 WT17     1247     MECN     H13      HGA3     0.090000        1.0080           0
     53056 WT17     1247     MECN     C2       CG1N1    0.360000       12.0110           0
     53057 WT17     1247     MECN     N3       NG1T1   -0.460000       14.0070           0
     53058 WT17     1248     MECN     C1       CG331   -0.170000       12.0110           0
     53059 WT17     1248     MECN     H11      HGA3     0.090000        1.0080           0
     53060 WT17     1248     MECN     H12      HGA3     0.090000        1.0080           0
     53061 WT17     1248     MECN     H13      HGA3     0.090000        1.0080           0
     53062 WT17     1248     MECN     C2       CG1N1    0.360000       12.0110           0
     53063 WT17     1248     MECN     N3       NG1T1   -0.460000       14.0070           0
     53064 WT17     1250     MECN     C1       CG331   -0.170000       12.0110           0
     53065 WT17     1250     MECN     H11      HGA3     0.090000        1.0080           0
     53066 WT17     1250     MECN     H12      HGA3     0.090000        1.0080           0
     53067 WT17     1250     MECN     H13      HGA3     0.090000        1.0080           0
     53068 WT17     1250     MECN     C2       CG1N1    0.360000       12.0110           0
     53069 WT17     1250     MECN     N3       NG1T1   -0.460000       14.0070           0
     53070 WT17     1251     MECN     C1       CG331   -0.170000       12.0110           0
     53071 WT17     1251     MECN     H11      HGA3     0.090000        1.0080           0
     53072 WT17     1251     MECN     H12      HGA3     0.090000        1.0080           0
     53073 WT17     1251     MECN     H13      HGA3     0.090000        1.0080           0
     53074 WT17     1251     MECN     C2       CG1N1    0.360000       12.0110           0
     53075 WT17     1251     MECN     N3       NG1T1   -0.460000       14.0070           0
     53076 WT17     1253     MECN     C1       CG331   -0.170000       12.0110           0
     53077 WT17     1253     MECN     H11      HGA3     0.090000        1.0080           0
     53078 WT17     1253     MECN     H12      HGA3     0.090000        1.0080           0
     53079 WT17     1253     MECN     H13      HGA3     0.090000        1.0080           0
     53080 WT17     1253     MECN     C2       CG1N1    0.360000       12.0110           0
     53081 WT17     1253     MECN     N3       NG1T1   -0.460000       14.0070           0
     53082 WT17     1254     MECN     C1       CG331   -0.170000       12.0110           0
     53083 WT17     1254     MECN     H11      HGA3     0.090000        1.0080           0
     53084 WT17     1254     MECN     H12      HGA3     0.090000        1.0080           0
     53085 WT17     1254     MECN     H13      HGA3     0.090000        1.0080           0
     53086 WT17     1254     MECN     C2       CG1N1    0.360000       12.0110           0
     53087 WT17     1254     MECN     N3       NG1T1   -0.460000       14.0070           0
     53088 WT17     1255     MECN     C1       CG331   -0.170000       12.0110           0
     53089 WT17     1255     MECN     H11      HGA3     0.090000        1.0080           0
     53090 WT17     1255     MECN     H12      HGA3     0.090000        1.0080           0
     53091 WT17     1255     MECN     H13      HGA3     0.090000        1.0080           0
     53092 WT17     1255     MECN     C2       CG1N1    0.360000       12.0110           0
     53093 WT17     1255     MECN     N3       NG1T1   -0.460000       14.0070           0
     53094 WT17     1258     MECN     C1       CG331   -0.170000       12.0110           0
     53095 WT17     1258     MECN     H11      HGA3     0.090000        1.0080           0
     53096 WT17     1258     MECN     H12      HGA3     0.090000        1.0080           0
     53097 WT17     1258     MECN     H13      HGA3     0.090000        1.0080           0
     53098 WT17     1258     MECN     C2       CG1N1    0.360000       12.0110           0
     53099 WT17     1258     MECN     N3       NG1T1   -0.460000       14.0070           0
     53100 WT17     1260     MECN     C1       CG331   -0.170000       12.0110           0
     53101 WT17     1260     MECN     H11      HGA3     0.090000        1.0080           0
     53102 WT17     1260     MECN     H12      HGA3     0.090000        1.0080           0
     53103 WT17     1260     MECN     H13      HGA3     0.090000        1.0080           0
     53104 WT17     1260     MECN     C2       CG1N1    0.360000       12.0110           0
     53105 WT17     1260     MECN     N3       NG1T1   -0.460000       14.0070           0
     53106 WT17     1261     MECN     C1       CG331   -0.170000       12.0110           0
     53107 WT17     1261     MECN     H11      HGA3     0.090000        1.0080           0
     53108 WT17     1261     MECN     H12      HGA3     0.090000        1.0080           0
     53109 WT17     1261     MECN     H13      HGA3     0.090000        1.0080           0
     53110 WT17     1261     MECN     C2       CG1N1    0.360000       12.0110           0
     53111 WT17     1261     MECN     N3       NG1T1   -0.460000       14.0070           0
     53112 WT17     1262     MECN     C1       CG331   -0.170000       12.0110           0
     53113 WT17     1262     MECN     H11      HGA3     0.090000        1.0080           0
     53114 WT17     1262     MECN     H12      HGA3     0.090000        1.0080           0
     53115 WT17     1262     MECN     H13      HGA3     0.090000        1.0080           0
     53116 WT17     1262     MECN     C2       CG1N1    0.360000       12.0110           0
     53117 WT17     1262     MECN     N3       NG1T1   -0.460000       14.0070           0
     53118 WT17     1263     MECN     C1       CG331   -0.170000       12.0110           0
     53119 WT17     1263     MECN     H11      HGA3     0.090000        1.0080           0
     53120 WT17     1263     MECN     H12      HGA3     0.090000        1.0080           0
     53121 WT17     1263     MECN     H13      HGA3     0.090000        1.0080           0
     53122 WT17     1263     MECN     C2       CG1N1    0.360000       12.0110           0
     53123 WT17     1263     MECN     N3       NG1T1   -0.460000       14.0070           0
     53124 WT17     1268     MECN     C1       CG331   -0.170000       12.0110           0
     53125 WT17     1268     MECN     H11      HGA3     0.090000        1.0080           0
     53126 WT17     1268     MECN     H12      HGA3     0.090000        1.0080           0
     53127 WT17     1268     MECN     H13      HGA3     0.090000        1.0080           0
     53128 WT17     1268     MECN     C2       CG1N1    0.360000       12.0110           0
     53129 WT17     1268     MECN     N3       NG1T1   -0.460000       14.0070           0
     53130 WT17     1270     MECN     C1       CG331   -0.170000       12.0110           0
     53131 WT17     1270     MECN     H11      HGA3     0.090000        1.0080           0
     53132 WT17     1270     MECN     H12      HGA3     0.090000        1.0080           0
     53133 WT17     1270     MECN     H13      HGA3     0.090000        1.0080           0
     53134 WT17     1270     MECN     C2       CG1N1    0.360000       12.0110           0
     53135 WT17     1270     MECN     N3       NG1T1   -0.460000       14.0070           0
     53136 WT17     1271     MECN     C1       CG331   -0.170000       12.0110           0
     53137 WT17     1271     MECN     H11      HGA3     0.090000        1.0080           0
     53138 WT17     1271     MECN     H12      HGA3     0.090000        1.0080           0
     53139 WT17     1271     MECN     H13      HGA3     0.090000        1.0080           0
     53140 WT17     1271     MECN     C2       CG1N1    0.360000       12.0110           0
     53141 WT17     1271     MECN     N3       NG1T1   -0.460000       14.0070           0
     53142 WT17     1272     MECN     C1       CG331   -0.170000       12.0110           0
     53143 WT17     1272     MECN     H11      HGA3     0.090000        1.0080           0
     53144 WT17     1272     MECN     H12      HGA3     0.090000        1.0080           0
     53145 WT17     1272     MECN     H13      HGA3     0.090000        1.0080           0
     53146 WT17     1272     MECN     C2       CG1N1    0.360000       12.0110           0
     53147 WT17     1272     MECN     N3       NG1T1   -0.460000       14.0070           0
     53148 WT17     1273     MECN     C1       CG331   -0.170000       12.0110           0
     53149 WT17     1273     MECN     H11      HGA3     0.090000        1.0080           0
     53150 WT17     1273     MECN     H12      HGA3     0.090000        1.0080           0
     53151 WT17     1273     MECN     H13      HGA3     0.090000        1.0080           0
     53152 WT17     1273     MECN     C2       CG1N1    0.360000       12.0110           0
     53153 WT17     1273     MECN     N3       NG1T1   -0.460000       14.0070           0
     53154 WT17     1274     MECN     C1       CG331   -0.170000       12.0110           0
     53155 WT17     1274     MECN     H11      HGA3     0.090000        1.0080           0
     53156 WT17     1274     MECN     H12      HGA3     0.090000        1.0080           0
     53157 WT17     1274     MECN     H13      HGA3     0.090000        1.0080           0
     53158 WT17     1274     MECN     C2       CG1N1    0.360000       12.0110           0
     53159 WT17     1274     MECN     N3       NG1T1   -0.460000       14.0070           0
     53160 WT17     1277     MECN     C1       CG331   -0.170000       12.0110           0
     53161 WT17     1277     MECN     H11      HGA3     0.090000        1.0080           0
     53162 WT17     1277     MECN     H12      HGA3     0.090000        1.0080           0
     53163 WT17     1277     MECN     H13      HGA3     0.090000        1.0080           0
     53164 WT17     1277     MECN     C2       CG1N1    0.360000       12.0110           0
     53165 WT17     1277     MECN     N3       NG1T1   -0.460000       14.0070           0
     53166 WT17     1280     MECN     C1       CG331   -0.170000       12.0110           0
     53167 WT17     1280     MECN     H11      HGA3     0.090000        1.0080           0
     53168 WT17     1280     MECN     H12      HGA3     0.090000        1.0080           0
     53169 WT17     1280     MECN     H13      HGA3     0.090000        1.0080           0
     53170 WT17     1280     MECN     C2       CG1N1    0.360000       12.0110           0
     53171 WT17     1280     MECN     N3       NG1T1   -0.460000       14.0070           0
     53172 WT17     1282     MECN     C1       CG331   -0.170000       12.0110           0
     53173 WT17     1282     MECN     H11      HGA3     0.090000        1.0080           0
     53174 WT17     1282     MECN     H12      HGA3     0.090000        1.0080           0
     53175 WT17     1282     MECN     H13      HGA3     0.090000        1.0080           0
     53176 WT17     1282     MECN     C2       CG1N1    0.360000       12.0110           0
     53177 WT17     1282     MECN     N3       NG1T1   -0.460000       14.0070           0
     53178 WT17     1283     MECN     C1       CG331   -0.170000       12.0110           0
     53179 WT17     1283     MECN     H11      HGA3     0.090000        1.0080           0
     53180 WT17     1283     MECN     H12      HGA3     0.090000        1.0080           0
     53181 WT17     1283     MECN     H13      HGA3     0.090000        1.0080           0
     53182 WT17     1283     MECN     C2       CG1N1    0.360000       12.0110           0
     53183 WT17     1283     MECN     N3       NG1T1   -0.460000       14.0070           0
     53184 WT17     1284     MECN     C1       CG331   -0.170000       12.0110           0
     53185 WT17     1284     MECN     H11      HGA3     0.090000        1.0080           0
     53186 WT17     1284     MECN     H12      HGA3     0.090000        1.0080           0
     53187 WT17     1284     MECN     H13      HGA3     0.090000        1.0080           0
     53188 WT17     1284     MECN     C2       CG1N1    0.360000       12.0110           0
     53189 WT17     1284     MECN     N3       NG1T1   -0.460000       14.0070           0
     53190 WT17     1285     MECN     C1       CG331   -0.170000       12.0110           0
     53191 WT17     1285     MECN     H11      HGA3     0.090000        1.0080           0
     53192 WT17     1285     MECN     H12      HGA3     0.090000        1.0080           0
     53193 WT17     1285     MECN     H13      HGA3     0.090000        1.0080           0
     53194 WT17     1285     MECN     C2       CG1N1    0.360000       12.0110           0
     53195 WT17     1285     MECN     N3       NG1T1   -0.460000       14.0070           0
     53196 WT17     1286     MECN     C1       CG331   -0.170000       12.0110           0
     53197 WT17     1286     MECN     H11      HGA3     0.090000        1.0080           0
     53198 WT17     1286     MECN     H12      HGA3     0.090000        1.0080           0
     53199 WT17     1286     MECN     H13      HGA3     0.090000        1.0080           0
     53200 WT17     1286     MECN     C2       CG1N1    0.360000       12.0110           0
     53201 WT17     1286     MECN     N3       NG1T1   -0.460000       14.0070           0
     53202 WT17     1287     MECN     C1       CG331   -0.170000       12.0110           0
     53203 WT17     1287     MECN     H11      HGA3     0.090000        1.0080           0
     53204 WT17     1287     MECN     H12      HGA3     0.090000        1.0080           0
     53205 WT17     1287     MECN     H13      HGA3     0.090000        1.0080           0
     53206 WT17     1287     MECN     C2       CG1N1    0.360000       12.0110           0
     53207 WT17     1287     MECN     N3       NG1T1   -0.460000       14.0070           0
     53208 WT17     1292     MECN     C1       CG331   -0.170000       12.0110           0
     53209 WT17     1292     MECN     H11      HGA3     0.090000        1.0080           0
     53210 WT17     1292     MECN     H12      HGA3     0.090000        1.0080           0
     53211 WT17     1292     MECN     H13      HGA3     0.090000        1.0080           0
     53212 WT17     1292     MECN     C2       CG1N1    0.360000       12.0110           0
     53213 WT17     1292     MECN     N3       NG1T1   -0.460000       14.0070           0
     53214 WT17     1294     MECN     C1       CG331   -0.170000       12.0110           0
     53215 WT17     1294     MECN     H11      HGA3     0.090000        1.0080           0
     53216 WT17     1294     MECN     H12      HGA3     0.090000        1.0080           0
     53217 WT17     1294     MECN     H13      HGA3     0.090000        1.0080           0
     53218 WT17     1294     MECN     C2       CG1N1    0.360000       12.0110           0
     53219 WT17     1294     MECN     N3       NG1T1   -0.460000       14.0070           0
     53220 WT17     1295     MECN     C1       CG331   -0.170000       12.0110           0
     53221 WT17     1295     MECN     H11      HGA3     0.090000        1.0080           0
     53222 WT17     1295     MECN     H12      HGA3     0.090000        1.0080           0
     53223 WT17     1295     MECN     H13      HGA3     0.090000        1.0080           0
     53224 WT17     1295     MECN     C2       CG1N1    0.360000       12.0110           0
     53225 WT17     1295     MECN     N3       NG1T1   -0.460000       14.0070           0
     53226 WT17     1297     MECN     C1       CG331   -0.170000       12.0110           0
     53227 WT17     1297     MECN     H11      HGA3     0.090000        1.0080           0
     53228 WT17     1297     MECN     H12      HGA3     0.090000        1.0080           0
     53229 WT17     1297     MECN     H13      HGA3     0.090000        1.0080           0
     53230 WT17     1297     MECN     C2       CG1N1    0.360000       12.0110           0
     53231 WT17     1297     MECN     N3       NG1T1   -0.460000       14.0070           0
     53232 WT17     1298     MECN     C1       CG331   -0.170000       12.0110           0
     53233 WT17     1298     MECN     H11      HGA3     0.090000        1.0080           0
     53234 WT17     1298     MECN     H12      HGA3     0.090000        1.0080           0
     53235 WT17     1298     MECN     H13      HGA3     0.090000        1.0080           0
     53236 WT17     1298     MECN     C2       CG1N1    0.360000       12.0110           0
     53237 WT17     1298     MECN     N3       NG1T1   -0.460000       14.0070           0
     53238 WT17     1300     MECN     C1       CG331   -0.170000       12.0110           0
     53239 WT17     1300     MECN     H11      HGA3     0.090000        1.0080           0
     53240 WT17     1300     MECN     H12      HGA3     0.090000        1.0080           0
     53241 WT17     1300     MECN     H13      HGA3     0.090000        1.0080           0
     53242 WT17     1300     MECN     C2       CG1N1    0.360000       12.0110           0
     53243 WT17     1300     MECN     N3       NG1T1   -0.460000       14.0070           0
     53244 WT17     1301     MECN     C1       CG331   -0.170000       12.0110           0
     53245 WT17     1301     MECN     H11      HGA3     0.090000        1.0080           0
     53246 WT17     1301     MECN     H12      HGA3     0.090000        1.0080           0
     53247 WT17     1301     MECN     H13      HGA3     0.090000        1.0080           0
     53248 WT17     1301     MECN     C2       CG1N1    0.360000       12.0110           0
     53249 WT17     1301     MECN     N3       NG1T1   -0.460000       14.0070           0
     53250 WT17     1303     MECN     C1       CG331   -0.170000       12.0110           0
     53251 WT17     1303     MECN     H11      HGA3     0.090000        1.0080           0
     53252 WT17     1303     MECN     H12      HGA3     0.090000        1.0080           0
     53253 WT17     1303     MECN     H13      HGA3     0.090000        1.0080           0
     53254 WT17     1303     MECN     C2       CG1N1    0.360000       12.0110           0
     53255 WT17     1303     MECN     N3       NG1T1   -0.460000       14.0070           0
     53256 WT17     1305     MECN     C1       CG331   -0.170000       12.0110           0
     53257 WT17     1305     MECN     H11      HGA3     0.090000        1.0080           0
     53258 WT17     1305     MECN     H12      HGA3     0.090000        1.0080           0
     53259 WT17     1305     MECN     H13      HGA3     0.090000        1.0080           0
     53260 WT17     1305     MECN     C2       CG1N1    0.360000       12.0110           0
     53261 WT17     1305     MECN     N3       NG1T1   -0.460000       14.0070           0
     53262 WT17     1306     MECN     C1       CG331   -0.170000       12.0110           0
     53263 WT17     1306     MECN     H11      HGA3     0.090000        1.0080           0
     53264 WT17     1306     MECN     H12      HGA3     0.090000        1.0080           0
     53265 WT17     1306     MECN     H13      HGA3     0.090000        1.0080           0
     53266 WT17     1306     MECN     C2       CG1N1    0.360000       12.0110           0
     53267 WT17     1306     MECN     N3       NG1T1   -0.460000       14.0070           0
     53268 WT17     1307     MECN     C1       CG331   -0.170000       12.0110           0
     53269 WT17     1307     MECN     H11      HGA3     0.090000        1.0080           0
     53270 WT17     1307     MECN     H12      HGA3     0.090000        1.0080           0
     53271 WT17     1307     MECN     H13      HGA3     0.090000        1.0080           0
     53272 WT17     1307     MECN     C2       CG1N1    0.360000       12.0110           0
     53273 WT17     1307     MECN     N3       NG1T1   -0.460000       14.0070           0
     53274 WT17     1309     MECN     C1       CG331   -0.170000       12.0110           0
     53275 WT17     1309     MECN     H11      HGA3     0.090000        1.0080           0
     53276 WT17     1309     MECN     H12      HGA3     0.090000        1.0080           0
     53277 WT17     1309     MECN     H13      HGA3     0.090000        1.0080           0
     53278 WT17     1309     MECN     C2       CG1N1    0.360000       12.0110           0
     53279 WT17     1309     MECN     N3       NG1T1   -0.460000       14.0070           0
     53280 WT17     1310     MECN     C1       CG331   -0.170000       12.0110           0
     53281 WT17     1310     MECN     H11      HGA3     0.090000        1.0080           0
     53282 WT17     1310     MECN     H12      HGA3     0.090000        1.0080           0
     53283 WT17     1310     MECN     H13      HGA3     0.090000        1.0080           0
     53284 WT17     1310     MECN     C2       CG1N1    0.360000       12.0110           0
     53285 WT17     1310     MECN     N3       NG1T1   -0.460000       14.0070           0
     53286 WT17     1311     MECN     C1       CG331   -0.170000       12.0110           0
     53287 WT17     1311     MECN     H11      HGA3     0.090000        1.0080           0
     53288 WT17     1311     MECN     H12      HGA3     0.090000        1.0080           0
     53289 WT17     1311     MECN     H13      HGA3     0.090000        1.0080           0
     53290 WT17     1311     MECN     C2       CG1N1    0.360000       12.0110           0
     53291 WT17     1311     MECN     N3       NG1T1   -0.460000       14.0070           0
     53292 WT17     1312     MECN     C1       CG331   -0.170000       12.0110           0
     53293 WT17     1312     MECN     H11      HGA3     0.090000        1.0080           0
     53294 WT17     1312     MECN     H12      HGA3     0.090000        1.0080           0
     53295 WT17     1312     MECN     H13      HGA3     0.090000        1.0080           0
     53296 WT17     1312     MECN     C2       CG1N1    0.360000       12.0110           0
     53297 WT17     1312     MECN     N3       NG1T1   -0.460000       14.0070           0
     53298 WT17     1314     MECN     C1       CG331   -0.170000       12.0110           0
     53299 WT17     1314     MECN     H11      HGA3     0.090000        1.0080           0
     53300 WT17     1314     MECN     H12      HGA3     0.090000        1.0080           0
     53301 WT17     1314     MECN     H13      HGA3     0.090000        1.0080           0
     53302 WT17     1314     MECN     C2       CG1N1    0.360000       12.0110           0
     53303 WT17     1314     MECN     N3       NG1T1   -0.460000       14.0070           0
     53304 WT17     1315     MECN     C1       CG331   -0.170000       12.0110           0
     53305 WT17     1315     MECN     H11      HGA3     0.090000        1.0080           0
     53306 WT17     1315     MECN     H12      HGA3     0.090000        1.0080           0
     53307 WT17     1315     MECN     H13      HGA3     0.090000        1.0080           0
     53308 WT17     1315     MECN     C2       CG1N1    0.360000       12.0110           0
     53309 WT17     1315     MECN     N3       NG1T1   -0.460000       14.0070           0
     53310 WT17     1317     MECN     C1       CG331   -0.170000       12.0110           0
     53311 WT17     1317     MECN     H11      HGA3     0.090000        1.0080           0
     53312 WT17     1317     MECN     H12      HGA3     0.090000        1.0080           0
     53313 WT17     1317     MECN     H13      HGA3     0.090000        1.0080           0
     53314 WT17     1317     MECN     C2       CG1N1    0.360000       12.0110           0
     53315 WT17     1317     MECN     N3       NG1T1   -0.460000       14.0070           0
     53316 WT17     1318     MECN     C1       CG331   -0.170000       12.0110           0
     53317 WT17     1318     MECN     H11      HGA3     0.090000        1.0080           0
     53318 WT17     1318     MECN     H12      HGA3     0.090000        1.0080           0
     53319 WT17     1318     MECN     H13      HGA3     0.090000        1.0080           0
     53320 WT17     1318     MECN     C2       CG1N1    0.360000       12.0110           0
     53321 WT17     1318     MECN     N3       NG1T1   -0.460000       14.0070           0
     53322 WT17     1319     MECN     C1       CG331   -0.170000       12.0110           0
     53323 WT17     1319     MECN     H11      HGA3     0.090000        1.0080           0
     53324 WT17     1319     MECN     H12      HGA3     0.090000        1.0080           0
     53325 WT17     1319     MECN     H13      HGA3     0.090000        1.0080           0
     53326 WT17     1319     MECN     C2       CG1N1    0.360000       12.0110           0
     53327 WT17     1319     MECN     N3       NG1T1   -0.460000       14.0070           0
     53328 WT17     1320     MECN     C1       CG331   -0.170000       12.0110           0
     53329 WT17     1320     MECN     H11      HGA3     0.090000        1.0080           0
     53330 WT17     1320     MECN     H12      HGA3     0.090000        1.0080           0
     53331 WT17     1320     MECN     H13      HGA3     0.090000        1.0080           0
     53332 WT17     1320     MECN     C2       CG1N1    0.360000       12.0110           0
     53333 WT17     1320     MECN     N3       NG1T1   -0.460000       14.0070           0
     53334 WT17     1324     MECN     C1       CG331   -0.170000       12.0110           0
     53335 WT17     1324     MECN     H11      HGA3     0.090000        1.0080           0
     53336 WT17     1324     MECN     H12      HGA3     0.090000        1.0080           0
     53337 WT17     1324     MECN     H13      HGA3     0.090000        1.0080           0
     53338 WT17     1324     MECN     C2       CG1N1    0.360000       12.0110           0
     53339 WT17     1324     MECN     N3       NG1T1   -0.460000       14.0070           0
     53340 WT17     1325     MECN     C1       CG331   -0.170000       12.0110           0
     53341 WT17     1325     MECN     H11      HGA3     0.090000        1.0080           0
     53342 WT17     1325     MECN     H12      HGA3     0.090000        1.0080           0
     53343 WT17     1325     MECN     H13      HGA3     0.090000        1.0080           0
     53344 WT17     1325     MECN     C2       CG1N1    0.360000       12.0110           0
     53345 WT17     1325     MECN     N3       NG1T1   -0.460000       14.0070           0
     53346 WT17     1326     MECN     C1       CG331   -0.170000       12.0110           0
     53347 WT17     1326     MECN     H11      HGA3     0.090000        1.0080           0
     53348 WT17     1326     MECN     H12      HGA3     0.090000        1.0080           0
     53349 WT17     1326     MECN     H13      HGA3     0.090000        1.0080           0
     53350 WT17     1326     MECN     C2       CG1N1    0.360000       12.0110           0
     53351 WT17     1326     MECN     N3       NG1T1   -0.460000       14.0070           0
     53352 WT17     1327     MECN     C1       CG331   -0.170000       12.0110           0
     53353 WT17     1327     MECN     H11      HGA3     0.090000        1.0080           0
     53354 WT17     1327     MECN     H12      HGA3     0.090000        1.0080           0
     53355 WT17     1327     MECN     H13      HGA3     0.090000        1.0080           0
     53356 WT17     1327     MECN     C2       CG1N1    0.360000       12.0110           0
     53357 WT17     1327     MECN     N3       NG1T1   -0.460000       14.0070           0
     53358 WT17     1329     MECN     C1       CG331   -0.170000       12.0110           0
     53359 WT17     1329     MECN     H11      HGA3     0.090000        1.0080           0
     53360 WT17     1329     MECN     H12      HGA3     0.090000        1.0080           0
     53361 WT17     1329     MECN     H13      HGA3     0.090000        1.0080           0
     53362 WT17     1329     MECN     C2       CG1N1    0.360000       12.0110           0
     53363 WT17     1329     MECN     N3       NG1T1   -0.460000       14.0070           0
     53364 WT17     1331     MECN     C1       CG331   -0.170000       12.0110           0
     53365 WT17     1331     MECN     H11      HGA3     0.090000        1.0080           0
     53366 WT17     1331     MECN     H12      HGA3     0.090000        1.0080           0
     53367 WT17     1331     MECN     H13      HGA3     0.090000        1.0080           0
     53368 WT17     1331     MECN     C2       CG1N1    0.360000       12.0110           0
     53369 WT17     1331     MECN     N3       NG1T1   -0.460000       14.0070           0
     53370 WT18     2        MECN     C1       CG331   -0.170000       12.0110           0
     53371 WT18     2        MECN     H11      HGA3     0.090000        1.0080           0
     53372 WT18     2        MECN     H12      HGA3     0.090000        1.0080           0
     53373 WT18     2        MECN     H13      HGA3     0.090000        1.0080           0
     53374 WT18     2        MECN     C2       CG1N1    0.360000       12.0110           0
     53375 WT18     2        MECN     N3       NG1T1   -0.460000       14.0070           0
     53376 WT18     5        MECN     C1       CG331   -0.170000       12.0110           0
     53377 WT18     5        MECN     H11      HGA3     0.090000        1.0080           0
     53378 WT18     5        MECN     H12      HGA3     0.090000        1.0080           0
     53379 WT18     5        MECN     H13      HGA3     0.090000        1.0080           0
     53380 WT18     5        MECN     C2       CG1N1    0.360000       12.0110           0
     53381 WT18     5        MECN     N3       NG1T1   -0.460000       14.0070           0
     53382 WT18     6        MECN     C1       CG331   -0.170000       12.0110           0
     53383 WT18     6        MECN     H11      HGA3     0.090000        1.0080           0
     53384 WT18     6        MECN     H12      HGA3     0.090000        1.0080           0
     53385 WT18     6        MECN     H13      HGA3     0.090000        1.0080           0
     53386 WT18     6        MECN     C2       CG1N1    0.360000       12.0110           0
     53387 WT18     6        MECN     N3       NG1T1   -0.460000       14.0070           0
     53388 WT18     8        MECN     C1       CG331   -0.170000       12.0110           0
     53389 WT18     8        MECN     H11      HGA3     0.090000        1.0080           0
     53390 WT18     8        MECN     H12      HGA3     0.090000        1.0080           0
     53391 WT18     8        MECN     H13      HGA3     0.090000        1.0080           0
     53392 WT18     8        MECN     C2       CG1N1    0.360000       12.0110           0
     53393 WT18     8        MECN     N3       NG1T1   -0.460000       14.0070           0
     53394 WT18     11       MECN     C1       CG331   -0.170000       12.0110           0
     53395 WT18     11       MECN     H11      HGA3     0.090000        1.0080           0
     53396 WT18     11       MECN     H12      HGA3     0.090000        1.0080           0
     53397 WT18     11       MECN     H13      HGA3     0.090000        1.0080           0
     53398 WT18     11       MECN     C2       CG1N1    0.360000       12.0110           0
     53399 WT18     11       MECN     N3       NG1T1   -0.460000       14.0070           0
     53400 WT18     13       MECN     C1       CG331   -0.170000       12.0110           0
     53401 WT18     13       MECN     H11      HGA3     0.090000        1.0080           0
     53402 WT18     13       MECN     H12      HGA3     0.090000        1.0080           0
     53403 WT18     13       MECN     H13      HGA3     0.090000        1.0080           0
     53404 WT18     13       MECN     C2       CG1N1    0.360000       12.0110           0
     53405 WT18     13       MECN     N3       NG1T1   -0.460000       14.0070           0
     53406 WT18     14       MECN     C1       CG331   -0.170000       12.0110           0
     53407 WT18     14       MECN     H11      HGA3     0.090000        1.0080           0
     53408 WT18     14       MECN     H12      HGA3     0.090000        1.0080           0
     53409 WT18     14       MECN     H13      HGA3     0.090000        1.0080           0
     53410 WT18     14       MECN     C2       CG1N1    0.360000       12.0110           0
     53411 WT18     14       MECN     N3       NG1T1   -0.460000       14.0070           0
     53412 WT18     15       MECN     C1       CG331   -0.170000       12.0110           0
     53413 WT18     15       MECN     H11      HGA3     0.090000        1.0080           0
     53414 WT18     15       MECN     H12      HGA3     0.090000        1.0080           0
     53415 WT18     15       MECN     H13      HGA3     0.090000        1.0080           0
     53416 WT18     15       MECN     C2       CG1N1    0.360000       12.0110           0
     53417 WT18     15       MECN     N3       NG1T1   -0.460000       14.0070           0
     53418 WT18     17       MECN     C1       CG331   -0.170000       12.0110           0
     53419 WT18     17       MECN     H11      HGA3     0.090000        1.0080           0
     53420 WT18     17       MECN     H12      HGA3     0.090000        1.0080           0
     53421 WT18     17       MECN     H13      HGA3     0.090000        1.0080           0
     53422 WT18     17       MECN     C2       CG1N1    0.360000       12.0110           0
     53423 WT18     17       MECN     N3       NG1T1   -0.460000       14.0070           0
     53424 WT18     18       MECN     C1       CG331   -0.170000       12.0110           0
     53425 WT18     18       MECN     H11      HGA3     0.090000        1.0080           0
     53426 WT18     18       MECN     H12      HGA3     0.090000        1.0080           0
     53427 WT18     18       MECN     H13      HGA3     0.090000        1.0080           0
     53428 WT18     18       MECN     C2       CG1N1    0.360000       12.0110           0
     53429 WT18     18       MECN     N3       NG1T1   -0.460000       14.0070           0
     53430 WT18     19       MECN     C1       CG331   -0.170000       12.0110           0
     53431 WT18     19       MECN     H11      HGA3     0.090000        1.0080           0
     53432 WT18     19       MECN     H12      HGA3     0.090000        1.0080           0
     53433 WT18     19       MECN     H13      HGA3     0.090000        1.0080           0
     53434 WT18     19       MECN     C2       CG1N1    0.360000       12.0110           0
     53435 WT18     19       MECN     N3       NG1T1   -0.460000       14.0070           0
     53436 WT18     20       MECN     C1       CG331   -0.170000       12.0110           0
     53437 WT18     20       MECN     H11      HGA3     0.090000        1.0080           0
     53438 WT18     20       MECN     H12      HGA3     0.090000        1.0080           0
     53439 WT18     20       MECN     H13      HGA3     0.090000        1.0080           0
     53440 WT18     20       MECN     C2       CG1N1    0.360000       12.0110           0
     53441 WT18     20       MECN     N3       NG1T1   -0.460000       14.0070           0
     53442 WT18     24       MECN     C1       CG331   -0.170000       12.0110           0
     53443 WT18     24       MECN     H11      HGA3     0.090000        1.0080           0
     53444 WT18     24       MECN     H12      HGA3     0.090000        1.0080           0
     53445 WT18     24       MECN     H13      HGA3     0.090000        1.0080           0
     53446 WT18     24       MECN     C2       CG1N1    0.360000       12.0110           0
     53447 WT18     24       MECN     N3       NG1T1   -0.460000       14.0070           0
     53448 WT18     25       MECN     C1       CG331   -0.170000       12.0110           0
     53449 WT18     25       MECN     H11      HGA3     0.090000        1.0080           0
     53450 WT18     25       MECN     H12      HGA3     0.090000        1.0080           0
     53451 WT18     25       MECN     H13      HGA3     0.090000        1.0080           0
     53452 WT18     25       MECN     C2       CG1N1    0.360000       12.0110           0
     53453 WT18     25       MECN     N3       NG1T1   -0.460000       14.0070           0
     53454 WT18     26       MECN     C1       CG331   -0.170000       12.0110           0
     53455 WT18     26       MECN     H11      HGA3     0.090000        1.0080           0
     53456 WT18     26       MECN     H12      HGA3     0.090000        1.0080           0
     53457 WT18     26       MECN     H13      HGA3     0.090000        1.0080           0
     53458 WT18     26       MECN     C2       CG1N1    0.360000       12.0110           0
     53459 WT18     26       MECN     N3       NG1T1   -0.460000       14.0070           0
     53460 WT18     27       MECN     C1       CG331   -0.170000       12.0110           0
     53461 WT18     27       MECN     H11      HGA3     0.090000        1.0080           0
     53462 WT18     27       MECN     H12      HGA3     0.090000        1.0080           0
     53463 WT18     27       MECN     H13      HGA3     0.090000        1.0080           0
     53464 WT18     27       MECN     C2       CG1N1    0.360000       12.0110           0
     53465 WT18     27       MECN     N3       NG1T1   -0.460000       14.0070           0
     53466 WT18     30       MECN     C1       CG331   -0.170000       12.0110           0
     53467 WT18     30       MECN     H11      HGA3     0.090000        1.0080           0
     53468 WT18     30       MECN     H12      HGA3     0.090000        1.0080           0
     53469 WT18     30       MECN     H13      HGA3     0.090000        1.0080           0
     53470 WT18     30       MECN     C2       CG1N1    0.360000       12.0110           0
     53471 WT18     30       MECN     N3       NG1T1   -0.460000       14.0070           0
     53472 WT18     32       MECN     C1       CG331   -0.170000       12.0110           0
     53473 WT18     32       MECN     H11      HGA3     0.090000        1.0080           0
     53474 WT18     32       MECN     H12      HGA3     0.090000        1.0080           0
     53475 WT18     32       MECN     H13      HGA3     0.090000        1.0080           0
     53476 WT18     32       MECN     C2       CG1N1    0.360000       12.0110           0
     53477 WT18     32       MECN     N3       NG1T1   -0.460000       14.0070           0
     53478 WT18     35       MECN     C1       CG331   -0.170000       12.0110           0
     53479 WT18     35       MECN     H11      HGA3     0.090000        1.0080           0
     53480 WT18     35       MECN     H12      HGA3     0.090000        1.0080           0
     53481 WT18     35       MECN     H13      HGA3     0.090000        1.0080           0
     53482 WT18     35       MECN     C2       CG1N1    0.360000       12.0110           0
     53483 WT18     35       MECN     N3       NG1T1   -0.460000       14.0070           0
     53484 WT18     38       MECN     C1       CG331   -0.170000       12.0110           0
     53485 WT18     38       MECN     H11      HGA3     0.090000        1.0080           0
     53486 WT18     38       MECN     H12      HGA3     0.090000        1.0080           0
     53487 WT18     38       MECN     H13      HGA3     0.090000        1.0080           0
     53488 WT18     38       MECN     C2       CG1N1    0.360000       12.0110           0
     53489 WT18     38       MECN     N3       NG1T1   -0.460000       14.0070           0
     53490 WT18     39       MECN     C1       CG331   -0.170000       12.0110           0
     53491 WT18     39       MECN     H11      HGA3     0.090000        1.0080           0
     53492 WT18     39       MECN     H12      HGA3     0.090000        1.0080           0
     53493 WT18     39       MECN     H13      HGA3     0.090000        1.0080           0
     53494 WT18     39       MECN     C2       CG1N1    0.360000       12.0110           0
     53495 WT18     39       MECN     N3       NG1T1   -0.460000       14.0070           0
     53496 WT18     40       MECN     C1       CG331   -0.170000       12.0110           0
     53497 WT18     40       MECN     H11      HGA3     0.090000        1.0080           0
     53498 WT18     40       MECN     H12      HGA3     0.090000        1.0080           0
     53499 WT18     40       MECN     H13      HGA3     0.090000        1.0080           0
     53500 WT18     40       MECN     C2       CG1N1    0.360000       12.0110           0
     53501 WT18     40       MECN     N3       NG1T1   -0.460000       14.0070           0
     53502 WT18     45       MECN     C1       CG331   -0.170000       12.0110           0
     53503 WT18     45       MECN     H11      HGA3     0.090000        1.0080           0
     53504 WT18     45       MECN     H12      HGA3     0.090000        1.0080           0
     53505 WT18     45       MECN     H13      HGA3     0.090000        1.0080           0
     53506 WT18     45       MECN     C2       CG1N1    0.360000       12.0110           0
     53507 WT18     45       MECN     N3       NG1T1   -0.460000       14.0070           0
     53508 WT18     47       MECN     C1       CG331   -0.170000       12.0110           0
     53509 WT18     47       MECN     H11      HGA3     0.090000        1.0080           0
     53510 WT18     47       MECN     H12      HGA3     0.090000        1.0080           0
     53511 WT18     47       MECN     H13      HGA3     0.090000        1.0080           0
     53512 WT18     47       MECN     C2       CG1N1    0.360000       12.0110           0
     53513 WT18     47       MECN     N3       NG1T1   -0.460000       14.0070           0
     53514 WT18     48       MECN     C1       CG331   -0.170000       12.0110           0
     53515 WT18     48       MECN     H11      HGA3     0.090000        1.0080           0
     53516 WT18     48       MECN     H12      HGA3     0.090000        1.0080           0
     53517 WT18     48       MECN     H13      HGA3     0.090000        1.0080           0
     53518 WT18     48       MECN     C2       CG1N1    0.360000       12.0110           0
     53519 WT18     48       MECN     N3       NG1T1   -0.460000       14.0070           0
     53520 WT18     51       MECN     C1       CG331   -0.170000       12.0110           0
     53521 WT18     51       MECN     H11      HGA3     0.090000        1.0080           0
     53522 WT18     51       MECN     H12      HGA3     0.090000        1.0080           0
     53523 WT18     51       MECN     H13      HGA3     0.090000        1.0080           0
     53524 WT18     51       MECN     C2       CG1N1    0.360000       12.0110           0
     53525 WT18     51       MECN     N3       NG1T1   -0.460000       14.0070           0
     53526 WT18     53       MECN     C1       CG331   -0.170000       12.0110           0
     53527 WT18     53       MECN     H11      HGA3     0.090000        1.0080           0
     53528 WT18     53       MECN     H12      HGA3     0.090000        1.0080           0
     53529 WT18     53       MECN     H13      HGA3     0.090000        1.0080           0
     53530 WT18     53       MECN     C2       CG1N1    0.360000       12.0110           0
     53531 WT18     53       MECN     N3       NG1T1   -0.460000       14.0070           0
     53532 WT18     62       MECN     C1       CG331   -0.170000       12.0110           0
     53533 WT18     62       MECN     H11      HGA3     0.090000        1.0080           0
     53534 WT18     62       MECN     H12      HGA3     0.090000        1.0080           0
     53535 WT18     62       MECN     H13      HGA3     0.090000        1.0080           0
     53536 WT18     62       MECN     C2       CG1N1    0.360000       12.0110           0
     53537 WT18     62       MECN     N3       NG1T1   -0.460000       14.0070           0
     53538 WT18     65       MECN     C1       CG331   -0.170000       12.0110           0
     53539 WT18     65       MECN     H11      HGA3     0.090000        1.0080           0
     53540 WT18     65       MECN     H12      HGA3     0.090000        1.0080           0
     53541 WT18     65       MECN     H13      HGA3     0.090000        1.0080           0
     53542 WT18     65       MECN     C2       CG1N1    0.360000       12.0110           0
     53543 WT18     65       MECN     N3       NG1T1   -0.460000       14.0070           0
     53544 WT18     66       MECN     C1       CG331   -0.170000       12.0110           0
     53545 WT18     66       MECN     H11      HGA3     0.090000        1.0080           0
     53546 WT18     66       MECN     H12      HGA3     0.090000        1.0080           0
     53547 WT18     66       MECN     H13      HGA3     0.090000        1.0080           0
     53548 WT18     66       MECN     C2       CG1N1    0.360000       12.0110           0
     53549 WT18     66       MECN     N3       NG1T1   -0.460000       14.0070           0
     53550 WT18     67       MECN     C1       CG331   -0.170000       12.0110           0
     53551 WT18     67       MECN     H11      HGA3     0.090000        1.0080           0
     53552 WT18     67       MECN     H12      HGA3     0.090000        1.0080           0
     53553 WT18     67       MECN     H13      HGA3     0.090000        1.0080           0
     53554 WT18     67       MECN     C2       CG1N1    0.360000       12.0110           0
     53555 WT18     67       MECN     N3       NG1T1   -0.460000       14.0070           0
     53556 WT18     68       MECN     C1       CG331   -0.170000       12.0110           0
     53557 WT18     68       MECN     H11      HGA3     0.090000        1.0080           0
     53558 WT18     68       MECN     H12      HGA3     0.090000        1.0080           0
     53559 WT18     68       MECN     H13      HGA3     0.090000        1.0080           0
     53560 WT18     68       MECN     C2       CG1N1    0.360000       12.0110           0
     53561 WT18     68       MECN     N3       NG1T1   -0.460000       14.0070           0
     53562 WT18     69       MECN     C1       CG331   -0.170000       12.0110           0
     53563 WT18     69       MECN     H11      HGA3     0.090000        1.0080           0
     53564 WT18     69       MECN     H12      HGA3     0.090000        1.0080           0
     53565 WT18     69       MECN     H13      HGA3     0.090000        1.0080           0
     53566 WT18     69       MECN     C2       CG1N1    0.360000       12.0110           0
     53567 WT18     69       MECN     N3       NG1T1   -0.460000       14.0070           0
     53568 WT18     70       MECN     C1       CG331   -0.170000       12.0110           0
     53569 WT18     70       MECN     H11      HGA3     0.090000        1.0080           0
     53570 WT18     70       MECN     H12      HGA3     0.090000        1.0080           0
     53571 WT18     70       MECN     H13      HGA3     0.090000        1.0080           0
     53572 WT18     70       MECN     C2       CG1N1    0.360000       12.0110           0
     53573 WT18     70       MECN     N3       NG1T1   -0.460000       14.0070           0
     53574 WT18     73       MECN     C1       CG331   -0.170000       12.0110           0
     53575 WT18     73       MECN     H11      HGA3     0.090000        1.0080           0
     53576 WT18     73       MECN     H12      HGA3     0.090000        1.0080           0
     53577 WT18     73       MECN     H13      HGA3     0.090000        1.0080           0
     53578 WT18     73       MECN     C2       CG1N1    0.360000       12.0110           0
     53579 WT18     73       MECN     N3       NG1T1   -0.460000       14.0070           0
     53580 WT18     77       MECN     C1       CG331   -0.170000       12.0110           0
     53581 WT18     77       MECN     H11      HGA3     0.090000        1.0080           0
     53582 WT18     77       MECN     H12      HGA3     0.090000        1.0080           0
     53583 WT18     77       MECN     H13      HGA3     0.090000        1.0080           0
     53584 WT18     77       MECN     C2       CG1N1    0.360000       12.0110           0
     53585 WT18     77       MECN     N3       NG1T1   -0.460000       14.0070           0
     53586 WT18     80       MECN     C1       CG331   -0.170000       12.0110           0
     53587 WT18     80       MECN     H11      HGA3     0.090000        1.0080           0
     53588 WT18     80       MECN     H12      HGA3     0.090000        1.0080           0
     53589 WT18     80       MECN     H13      HGA3     0.090000        1.0080           0
     53590 WT18     80       MECN     C2       CG1N1    0.360000       12.0110           0
     53591 WT18     80       MECN     N3       NG1T1   -0.460000       14.0070           0
     53592 WT18     82       MECN     C1       CG331   -0.170000       12.0110           0
     53593 WT18     82       MECN     H11      HGA3     0.090000        1.0080           0
     53594 WT18     82       MECN     H12      HGA3     0.090000        1.0080           0
     53595 WT18     82       MECN     H13      HGA3     0.090000        1.0080           0
     53596 WT18     82       MECN     C2       CG1N1    0.360000       12.0110           0
     53597 WT18     82       MECN     N3       NG1T1   -0.460000       14.0070           0
     53598 WT18     83       MECN     C1       CG331   -0.170000       12.0110           0
     53599 WT18     83       MECN     H11      HGA3     0.090000        1.0080           0
     53600 WT18     83       MECN     H12      HGA3     0.090000        1.0080           0
     53601 WT18     83       MECN     H13      HGA3     0.090000        1.0080           0
     53602 WT18     83       MECN     C2       CG1N1    0.360000       12.0110           0
     53603 WT18     83       MECN     N3       NG1T1   -0.460000       14.0070           0
     53604 WT18     87       MECN     C1       CG331   -0.170000       12.0110           0
     53605 WT18     87       MECN     H11      HGA3     0.090000        1.0080           0
     53606 WT18     87       MECN     H12      HGA3     0.090000        1.0080           0
     53607 WT18     87       MECN     H13      HGA3     0.090000        1.0080           0
     53608 WT18     87       MECN     C2       CG1N1    0.360000       12.0110           0
     53609 WT18     87       MECN     N3       NG1T1   -0.460000       14.0070           0
     53610 WT18     88       MECN     C1       CG331   -0.170000       12.0110           0
     53611 WT18     88       MECN     H11      HGA3     0.090000        1.0080           0
     53612 WT18     88       MECN     H12      HGA3     0.090000        1.0080           0
     53613 WT18     88       MECN     H13      HGA3     0.090000        1.0080           0
     53614 WT18     88       MECN     C2       CG1N1    0.360000       12.0110           0
     53615 WT18     88       MECN     N3       NG1T1   -0.460000       14.0070           0
     53616 WT18     89       MECN     C1       CG331   -0.170000       12.0110           0
     53617 WT18     89       MECN     H11      HGA3     0.090000        1.0080           0
     53618 WT18     89       MECN     H12      HGA3     0.090000        1.0080           0
     53619 WT18     89       MECN     H13      HGA3     0.090000        1.0080           0
     53620 WT18     89       MECN     C2       CG1N1    0.360000       12.0110           0
     53621 WT18     89       MECN     N3       NG1T1   -0.460000       14.0070           0
     53622 WT18     93       MECN     C1       CG331   -0.170000       12.0110           0
     53623 WT18     93       MECN     H11      HGA3     0.090000        1.0080           0
     53624 WT18     93       MECN     H12      HGA3     0.090000        1.0080           0
     53625 WT18     93       MECN     H13      HGA3     0.090000        1.0080           0
     53626 WT18     93       MECN     C2       CG1N1    0.360000       12.0110           0
     53627 WT18     93       MECN     N3       NG1T1   -0.460000       14.0070           0
     53628 WT18     97       MECN     C1       CG331   -0.170000       12.0110           0
     53629 WT18     97       MECN     H11      HGA3     0.090000        1.0080           0
     53630 WT18     97       MECN     H12      HGA3     0.090000        1.0080           0
     53631 WT18     97       MECN     H13      HGA3     0.090000        1.0080           0
     53632 WT18     97       MECN     C2       CG1N1    0.360000       12.0110           0
     53633 WT18     97       MECN     N3       NG1T1   -0.460000       14.0070           0
     53634 WT18     98       MECN     C1       CG331   -0.170000       12.0110           0
     53635 WT18     98       MECN     H11      HGA3     0.090000        1.0080           0
     53636 WT18     98       MECN     H12      HGA3     0.090000        1.0080           0
     53637 WT18     98       MECN     H13      HGA3     0.090000        1.0080           0
     53638 WT18     98       MECN     C2       CG1N1    0.360000       12.0110           0
     53639 WT18     98       MECN     N3       NG1T1   -0.460000       14.0070           0
     53640 WT18     99       MECN     C1       CG331   -0.170000       12.0110           0
     53641 WT18     99       MECN     H11      HGA3     0.090000        1.0080           0
     53642 WT18     99       MECN     H12      HGA3     0.090000        1.0080           0
     53643 WT18     99       MECN     H13      HGA3     0.090000        1.0080           0
     53644 WT18     99       MECN     C2       CG1N1    0.360000       12.0110           0
     53645 WT18     99       MECN     N3       NG1T1   -0.460000       14.0070           0
     53646 WT18     100      MECN     C1       CG331   -0.170000       12.0110           0
     53647 WT18     100      MECN     H11      HGA3     0.090000        1.0080           0
     53648 WT18     100      MECN     H12      HGA3     0.090000        1.0080           0
     53649 WT18     100      MECN     H13      HGA3     0.090000        1.0080           0
     53650 WT18     100      MECN     C2       CG1N1    0.360000       12.0110           0
     53651 WT18     100      MECN     N3       NG1T1   -0.460000       14.0070           0
     53652 WT18     102      MECN     C1       CG331   -0.170000       12.0110           0
     53653 WT18     102      MECN     H11      HGA3     0.090000        1.0080           0
     53654 WT18     102      MECN     H12      HGA3     0.090000        1.0080           0
     53655 WT18     102      MECN     H13      HGA3     0.090000        1.0080           0
     53656 WT18     102      MECN     C2       CG1N1    0.360000       12.0110           0
     53657 WT18     102      MECN     N3       NG1T1   -0.460000       14.0070           0
     53658 WT18     103      MECN     C1       CG331   -0.170000       12.0110           0
     53659 WT18     103      MECN     H11      HGA3     0.090000        1.0080           0
     53660 WT18     103      MECN     H12      HGA3     0.090000        1.0080           0
     53661 WT18     103      MECN     H13      HGA3     0.090000        1.0080           0
     53662 WT18     103      MECN     C2       CG1N1    0.360000       12.0110           0
     53663 WT18     103      MECN     N3       NG1T1   -0.460000       14.0070           0
     53664 WT18     104      MECN     C1       CG331   -0.170000       12.0110           0
     53665 WT18     104      MECN     H11      HGA3     0.090000        1.0080           0
     53666 WT18     104      MECN     H12      HGA3     0.090000        1.0080           0
     53667 WT18     104      MECN     H13      HGA3     0.090000        1.0080           0
     53668 WT18     104      MECN     C2       CG1N1    0.360000       12.0110           0
     53669 WT18     104      MECN     N3       NG1T1   -0.460000       14.0070           0
     53670 WT18     107      MECN     C1       CG331   -0.170000       12.0110           0
     53671 WT18     107      MECN     H11      HGA3     0.090000        1.0080           0
     53672 WT18     107      MECN     H12      HGA3     0.090000        1.0080           0
     53673 WT18     107      MECN     H13      HGA3     0.090000        1.0080           0
     53674 WT18     107      MECN     C2       CG1N1    0.360000       12.0110           0
     53675 WT18     107      MECN     N3       NG1T1   -0.460000       14.0070           0
     53676 WT18     108      MECN     C1       CG331   -0.170000       12.0110           0
     53677 WT18     108      MECN     H11      HGA3     0.090000        1.0080           0
     53678 WT18     108      MECN     H12      HGA3     0.090000        1.0080           0
     53679 WT18     108      MECN     H13      HGA3     0.090000        1.0080           0
     53680 WT18     108      MECN     C2       CG1N1    0.360000       12.0110           0
     53681 WT18     108      MECN     N3       NG1T1   -0.460000       14.0070           0
     53682 WT18     114      MECN     C1       CG331   -0.170000       12.0110           0
     53683 WT18     114      MECN     H11      HGA3     0.090000        1.0080           0
     53684 WT18     114      MECN     H12      HGA3     0.090000        1.0080           0
     53685 WT18     114      MECN     H13      HGA3     0.090000        1.0080           0
     53686 WT18     114      MECN     C2       CG1N1    0.360000       12.0110           0
     53687 WT18     114      MECN     N3       NG1T1   -0.460000       14.0070           0
     53688 WT18     116      MECN     C1       CG331   -0.170000       12.0110           0
     53689 WT18     116      MECN     H11      HGA3     0.090000        1.0080           0
     53690 WT18     116      MECN     H12      HGA3     0.090000        1.0080           0
     53691 WT18     116      MECN     H13      HGA3     0.090000        1.0080           0
     53692 WT18     116      MECN     C2       CG1N1    0.360000       12.0110           0
     53693 WT18     116      MECN     N3       NG1T1   -0.460000       14.0070           0
     53694 WT18     117      MECN     C1       CG331   -0.170000       12.0110           0
     53695 WT18     117      MECN     H11      HGA3     0.090000        1.0080           0
     53696 WT18     117      MECN     H12      HGA3     0.090000        1.0080           0
     53697 WT18     117      MECN     H13      HGA3     0.090000        1.0080           0
     53698 WT18     117      MECN     C2       CG1N1    0.360000       12.0110           0
     53699 WT18     117      MECN     N3       NG1T1   -0.460000       14.0070           0
     53700 WT18     119      MECN     C1       CG331   -0.170000       12.0110           0
     53701 WT18     119      MECN     H11      HGA3     0.090000        1.0080           0
     53702 WT18     119      MECN     H12      HGA3     0.090000        1.0080           0
     53703 WT18     119      MECN     H13      HGA3     0.090000        1.0080           0
     53704 WT18     119      MECN     C2       CG1N1    0.360000       12.0110           0
     53705 WT18     119      MECN     N3       NG1T1   -0.460000       14.0070           0
     53706 WT18     126      MECN     C1       CG331   -0.170000       12.0110           0
     53707 WT18     126      MECN     H11      HGA3     0.090000        1.0080           0
     53708 WT18     126      MECN     H12      HGA3     0.090000        1.0080           0
     53709 WT18     126      MECN     H13      HGA3     0.090000        1.0080           0
     53710 WT18     126      MECN     C2       CG1N1    0.360000       12.0110           0
     53711 WT18     126      MECN     N3       NG1T1   -0.460000       14.0070           0
     53712 WT18     128      MECN     C1       CG331   -0.170000       12.0110           0
     53713 WT18     128      MECN     H11      HGA3     0.090000        1.0080           0
     53714 WT18     128      MECN     H12      HGA3     0.090000        1.0080           0
     53715 WT18     128      MECN     H13      HGA3     0.090000        1.0080           0
     53716 WT18     128      MECN     C2       CG1N1    0.360000       12.0110           0
     53717 WT18     128      MECN     N3       NG1T1   -0.460000       14.0070           0
     53718 WT18     130      MECN     C1       CG331   -0.170000       12.0110           0
     53719 WT18     130      MECN     H11      HGA3     0.090000        1.0080           0
     53720 WT18     130      MECN     H12      HGA3     0.090000        1.0080           0
     53721 WT18     130      MECN     H13      HGA3     0.090000        1.0080           0
     53722 WT18     130      MECN     C2       CG1N1    0.360000       12.0110           0
     53723 WT18     130      MECN     N3       NG1T1   -0.460000       14.0070           0
     53724 WT18     131      MECN     C1       CG331   -0.170000       12.0110           0
     53725 WT18     131      MECN     H11      HGA3     0.090000        1.0080           0
     53726 WT18     131      MECN     H12      HGA3     0.090000        1.0080           0
     53727 WT18     131      MECN     H13      HGA3     0.090000        1.0080           0
     53728 WT18     131      MECN     C2       CG1N1    0.360000       12.0110           0
     53729 WT18     131      MECN     N3       NG1T1   -0.460000       14.0070           0
     53730 WT18     132      MECN     C1       CG331   -0.170000       12.0110           0
     53731 WT18     132      MECN     H11      HGA3     0.090000        1.0080           0
     53732 WT18     132      MECN     H12      HGA3     0.090000        1.0080           0
     53733 WT18     132      MECN     H13      HGA3     0.090000        1.0080           0
     53734 WT18     132      MECN     C2       CG1N1    0.360000       12.0110           0
     53735 WT18     132      MECN     N3       NG1T1   -0.460000       14.0070           0
     53736 WT18     136      MECN     C1       CG331   -0.170000       12.0110           0
     53737 WT18     136      MECN     H11      HGA3     0.090000        1.0080           0
     53738 WT18     136      MECN     H12      HGA3     0.090000        1.0080           0
     53739 WT18     136      MECN     H13      HGA3     0.090000        1.0080           0
     53740 WT18     136      MECN     C2       CG1N1    0.360000       12.0110           0
     53741 WT18     136      MECN     N3       NG1T1   -0.460000       14.0070           0
     53742 WT18     137      MECN     C1       CG331   -0.170000       12.0110           0
     53743 WT18     137      MECN     H11      HGA3     0.090000        1.0080           0
     53744 WT18     137      MECN     H12      HGA3     0.090000        1.0080           0
     53745 WT18     137      MECN     H13      HGA3     0.090000        1.0080           0
     53746 WT18     137      MECN     C2       CG1N1    0.360000       12.0110           0
     53747 WT18     137      MECN     N3       NG1T1   -0.460000       14.0070           0
     53748 WT18     139      MECN     C1       CG331   -0.170000       12.0110           0
     53749 WT18     139      MECN     H11      HGA3     0.090000        1.0080           0
     53750 WT18     139      MECN     H12      HGA3     0.090000        1.0080           0
     53751 WT18     139      MECN     H13      HGA3     0.090000        1.0080           0
     53752 WT18     139      MECN     C2       CG1N1    0.360000       12.0110           0
     53753 WT18     139      MECN     N3       NG1T1   -0.460000       14.0070           0
     53754 WT18     140      MECN     C1       CG331   -0.170000       12.0110           0
     53755 WT18     140      MECN     H11      HGA3     0.090000        1.0080           0
     53756 WT18     140      MECN     H12      HGA3     0.090000        1.0080           0
     53757 WT18     140      MECN     H13      HGA3     0.090000        1.0080           0
     53758 WT18     140      MECN     C2       CG1N1    0.360000       12.0110           0
     53759 WT18     140      MECN     N3       NG1T1   -0.460000       14.0070           0
     53760 WT18     141      MECN     C1       CG331   -0.170000       12.0110           0
     53761 WT18     141      MECN     H11      HGA3     0.090000        1.0080           0
     53762 WT18     141      MECN     H12      HGA3     0.090000        1.0080           0
     53763 WT18     141      MECN     H13      HGA3     0.090000        1.0080           0
     53764 WT18     141      MECN     C2       CG1N1    0.360000       12.0110           0
     53765 WT18     141      MECN     N3       NG1T1   -0.460000       14.0070           0
     53766 WT18     142      MECN     C1       CG331   -0.170000       12.0110           0
     53767 WT18     142      MECN     H11      HGA3     0.090000        1.0080           0
     53768 WT18     142      MECN     H12      HGA3     0.090000        1.0080           0
     53769 WT18     142      MECN     H13      HGA3     0.090000        1.0080           0
     53770 WT18     142      MECN     C2       CG1N1    0.360000       12.0110           0
     53771 WT18     142      MECN     N3       NG1T1   -0.460000       14.0070           0
     53772 WT18     150      MECN     C1       CG331   -0.170000       12.0110           0
     53773 WT18     150      MECN     H11      HGA3     0.090000        1.0080           0
     53774 WT18     150      MECN     H12      HGA3     0.090000        1.0080           0
     53775 WT18     150      MECN     H13      HGA3     0.090000        1.0080           0
     53776 WT18     150      MECN     C2       CG1N1    0.360000       12.0110           0
     53777 WT18     150      MECN     N3       NG1T1   -0.460000       14.0070           0
     53778 WT18     152      MECN     C1       CG331   -0.170000       12.0110           0
     53779 WT18     152      MECN     H11      HGA3     0.090000        1.0080           0
     53780 WT18     152      MECN     H12      HGA3     0.090000        1.0080           0
     53781 WT18     152      MECN     H13      HGA3     0.090000        1.0080           0
     53782 WT18     152      MECN     C2       CG1N1    0.360000       12.0110           0
     53783 WT18     152      MECN     N3       NG1T1   -0.460000       14.0070           0
     53784 WT18     153      MECN     C1       CG331   -0.170000       12.0110           0
     53785 WT18     153      MECN     H11      HGA3     0.090000        1.0080           0
     53786 WT18     153      MECN     H12      HGA3     0.090000        1.0080           0
     53787 WT18     153      MECN     H13      HGA3     0.090000        1.0080           0
     53788 WT18     153      MECN     C2       CG1N1    0.360000       12.0110           0
     53789 WT18     153      MECN     N3       NG1T1   -0.460000       14.0070           0
     53790 WT18     154      MECN     C1       CG331   -0.170000       12.0110           0
     53791 WT18     154      MECN     H11      HGA3     0.090000        1.0080           0
     53792 WT18     154      MECN     H12      HGA3     0.090000        1.0080           0
     53793 WT18     154      MECN     H13      HGA3     0.090000        1.0080           0
     53794 WT18     154      MECN     C2       CG1N1    0.360000       12.0110           0
     53795 WT18     154      MECN     N3       NG1T1   -0.460000       14.0070           0
     53796 WT18     155      MECN     C1       CG331   -0.170000       12.0110           0
     53797 WT18     155      MECN     H11      HGA3     0.090000        1.0080           0
     53798 WT18     155      MECN     H12      HGA3     0.090000        1.0080           0
     53799 WT18     155      MECN     H13      HGA3     0.090000        1.0080           0
     53800 WT18     155      MECN     C2       CG1N1    0.360000       12.0110           0
     53801 WT18     155      MECN     N3       NG1T1   -0.460000       14.0070           0
     53802 WT18     156      MECN     C1       CG331   -0.170000       12.0110           0
     53803 WT18     156      MECN     H11      HGA3     0.090000        1.0080           0
     53804 WT18     156      MECN     H12      HGA3     0.090000        1.0080           0
     53805 WT18     156      MECN     H13      HGA3     0.090000        1.0080           0
     53806 WT18     156      MECN     C2       CG1N1    0.360000       12.0110           0
     53807 WT18     156      MECN     N3       NG1T1   -0.460000       14.0070           0
     53808 WT18     157      MECN     C1       CG331   -0.170000       12.0110           0
     53809 WT18     157      MECN     H11      HGA3     0.090000        1.0080           0
     53810 WT18     157      MECN     H12      HGA3     0.090000        1.0080           0
     53811 WT18     157      MECN     H13      HGA3     0.090000        1.0080           0
     53812 WT18     157      MECN     C2       CG1N1    0.360000       12.0110           0
     53813 WT18     157      MECN     N3       NG1T1   -0.460000       14.0070           0
     53814 WT18     158      MECN     C1       CG331   -0.170000       12.0110           0
     53815 WT18     158      MECN     H11      HGA3     0.090000        1.0080           0
     53816 WT18     158      MECN     H12      HGA3     0.090000        1.0080           0
     53817 WT18     158      MECN     H13      HGA3     0.090000        1.0080           0
     53818 WT18     158      MECN     C2       CG1N1    0.360000       12.0110           0
     53819 WT18     158      MECN     N3       NG1T1   -0.460000       14.0070           0
     53820 WT18     160      MECN     C1       CG331   -0.170000       12.0110           0
     53821 WT18     160      MECN     H11      HGA3     0.090000        1.0080           0
     53822 WT18     160      MECN     H12      HGA3     0.090000        1.0080           0
     53823 WT18     160      MECN     H13      HGA3     0.090000        1.0080           0
     53824 WT18     160      MECN     C2       CG1N1    0.360000       12.0110           0
     53825 WT18     160      MECN     N3       NG1T1   -0.460000       14.0070           0
     53826 WT18     161      MECN     C1       CG331   -0.170000       12.0110           0
     53827 WT18     161      MECN     H11      HGA3     0.090000        1.0080           0
     53828 WT18     161      MECN     H12      HGA3     0.090000        1.0080           0
     53829 WT18     161      MECN     H13      HGA3     0.090000        1.0080           0
     53830 WT18     161      MECN     C2       CG1N1    0.360000       12.0110           0
     53831 WT18     161      MECN     N3       NG1T1   -0.460000       14.0070           0
     53832 WT18     163      MECN     C1       CG331   -0.170000       12.0110           0
     53833 WT18     163      MECN     H11      HGA3     0.090000        1.0080           0
     53834 WT18     163      MECN     H12      HGA3     0.090000        1.0080           0
     53835 WT18     163      MECN     H13      HGA3     0.090000        1.0080           0
     53836 WT18     163      MECN     C2       CG1N1    0.360000       12.0110           0
     53837 WT18     163      MECN     N3       NG1T1   -0.460000       14.0070           0
     53838 WT18     165      MECN     C1       CG331   -0.170000       12.0110           0
     53839 WT18     165      MECN     H11      HGA3     0.090000        1.0080           0
     53840 WT18     165      MECN     H12      HGA3     0.090000        1.0080           0
     53841 WT18     165      MECN     H13      HGA3     0.090000        1.0080           0
     53842 WT18     165      MECN     C2       CG1N1    0.360000       12.0110           0
     53843 WT18     165      MECN     N3       NG1T1   -0.460000       14.0070           0
     53844 WT18     166      MECN     C1       CG331   -0.170000       12.0110           0
     53845 WT18     166      MECN     H11      HGA3     0.090000        1.0080           0
     53846 WT18     166      MECN     H12      HGA3     0.090000        1.0080           0
     53847 WT18     166      MECN     H13      HGA3     0.090000        1.0080           0
     53848 WT18     166      MECN     C2       CG1N1    0.360000       12.0110           0
     53849 WT18     166      MECN     N3       NG1T1   -0.460000       14.0070           0
     53850 WT18     167      MECN     C1       CG331   -0.170000       12.0110           0
     53851 WT18     167      MECN     H11      HGA3     0.090000        1.0080           0
     53852 WT18     167      MECN     H12      HGA3     0.090000        1.0080           0
     53853 WT18     167      MECN     H13      HGA3     0.090000        1.0080           0
     53854 WT18     167      MECN     C2       CG1N1    0.360000       12.0110           0
     53855 WT18     167      MECN     N3       NG1T1   -0.460000       14.0070           0
     53856 WT18     168      MECN     C1       CG331   -0.170000       12.0110           0
     53857 WT18     168      MECN     H11      HGA3     0.090000        1.0080           0
     53858 WT18     168      MECN     H12      HGA3     0.090000        1.0080           0
     53859 WT18     168      MECN     H13      HGA3     0.090000        1.0080           0
     53860 WT18     168      MECN     C2       CG1N1    0.360000       12.0110           0
     53861 WT18     168      MECN     N3       NG1T1   -0.460000       14.0070           0
     53862 WT18     169      MECN     C1       CG331   -0.170000       12.0110           0
     53863 WT18     169      MECN     H11      HGA3     0.090000        1.0080           0
     53864 WT18     169      MECN     H12      HGA3     0.090000        1.0080           0
     53865 WT18     169      MECN     H13      HGA3     0.090000        1.0080           0
     53866 WT18     169      MECN     C2       CG1N1    0.360000       12.0110           0
     53867 WT18     169      MECN     N3       NG1T1   -0.460000       14.0070           0
     53868 WT18     170      MECN     C1       CG331   -0.170000       12.0110           0
     53869 WT18     170      MECN     H11      HGA3     0.090000        1.0080           0
     53870 WT18     170      MECN     H12      HGA3     0.090000        1.0080           0
     53871 WT18     170      MECN     H13      HGA3     0.090000        1.0080           0
     53872 WT18     170      MECN     C2       CG1N1    0.360000       12.0110           0
     53873 WT18     170      MECN     N3       NG1T1   -0.460000       14.0070           0
     53874 WT18     172      MECN     C1       CG331   -0.170000       12.0110           0
     53875 WT18     172      MECN     H11      HGA3     0.090000        1.0080           0
     53876 WT18     172      MECN     H12      HGA3     0.090000        1.0080           0
     53877 WT18     172      MECN     H13      HGA3     0.090000        1.0080           0
     53878 WT18     172      MECN     C2       CG1N1    0.360000       12.0110           0
     53879 WT18     172      MECN     N3       NG1T1   -0.460000       14.0070           0
     53880 WT18     176      MECN     C1       CG331   -0.170000       12.0110           0
     53881 WT18     176      MECN     H11      HGA3     0.090000        1.0080           0
     53882 WT18     176      MECN     H12      HGA3     0.090000        1.0080           0
     53883 WT18     176      MECN     H13      HGA3     0.090000        1.0080           0
     53884 WT18     176      MECN     C2       CG1N1    0.360000       12.0110           0
     53885 WT18     176      MECN     N3       NG1T1   -0.460000       14.0070           0
     53886 WT18     177      MECN     C1       CG331   -0.170000       12.0110           0
     53887 WT18     177      MECN     H11      HGA3     0.090000        1.0080           0
     53888 WT18     177      MECN     H12      HGA3     0.090000        1.0080           0
     53889 WT18     177      MECN     H13      HGA3     0.090000        1.0080           0
     53890 WT18     177      MECN     C2       CG1N1    0.360000       12.0110           0
     53891 WT18     177      MECN     N3       NG1T1   -0.460000       14.0070           0
     53892 WT18     178      MECN     C1       CG331   -0.170000       12.0110           0
     53893 WT18     178      MECN     H11      HGA3     0.090000        1.0080           0
     53894 WT18     178      MECN     H12      HGA3     0.090000        1.0080           0
     53895 WT18     178      MECN     H13      HGA3     0.090000        1.0080           0
     53896 WT18     178      MECN     C2       CG1N1    0.360000       12.0110           0
     53897 WT18     178      MECN     N3       NG1T1   -0.460000       14.0070           0
     53898 WT18     180      MECN     C1       CG331   -0.170000       12.0110           0
     53899 WT18     180      MECN     H11      HGA3     0.090000        1.0080           0
     53900 WT18     180      MECN     H12      HGA3     0.090000        1.0080           0
     53901 WT18     180      MECN     H13      HGA3     0.090000        1.0080           0
     53902 WT18     180      MECN     C2       CG1N1    0.360000       12.0110           0
     53903 WT18     180      MECN     N3       NG1T1   -0.460000       14.0070           0
     53904 WT18     181      MECN     C1       CG331   -0.170000       12.0110           0
     53905 WT18     181      MECN     H11      HGA3     0.090000        1.0080           0
     53906 WT18     181      MECN     H12      HGA3     0.090000        1.0080           0
     53907 WT18     181      MECN     H13      HGA3     0.090000        1.0080           0
     53908 WT18     181      MECN     C2       CG1N1    0.360000       12.0110           0
     53909 WT18     181      MECN     N3       NG1T1   -0.460000       14.0070           0
     53910 WT18     182      MECN     C1       CG331   -0.170000       12.0110           0
     53911 WT18     182      MECN     H11      HGA3     0.090000        1.0080           0
     53912 WT18     182      MECN     H12      HGA3     0.090000        1.0080           0
     53913 WT18     182      MECN     H13      HGA3     0.090000        1.0080           0
     53914 WT18     182      MECN     C2       CG1N1    0.360000       12.0110           0
     53915 WT18     182      MECN     N3       NG1T1   -0.460000       14.0070           0
     53916 WT18     183      MECN     C1       CG331   -0.170000       12.0110           0
     53917 WT18     183      MECN     H11      HGA3     0.090000        1.0080           0
     53918 WT18     183      MECN     H12      HGA3     0.090000        1.0080           0
     53919 WT18     183      MECN     H13      HGA3     0.090000        1.0080           0
     53920 WT18     183      MECN     C2       CG1N1    0.360000       12.0110           0
     53921 WT18     183      MECN     N3       NG1T1   -0.460000       14.0070           0
     53922 WT18     186      MECN     C1       CG331   -0.170000       12.0110           0
     53923 WT18     186      MECN     H11      HGA3     0.090000        1.0080           0
     53924 WT18     186      MECN     H12      HGA3     0.090000        1.0080           0
     53925 WT18     186      MECN     H13      HGA3     0.090000        1.0080           0
     53926 WT18     186      MECN     C2       CG1N1    0.360000       12.0110           0
     53927 WT18     186      MECN     N3       NG1T1   -0.460000       14.0070           0
     53928 WT18     187      MECN     C1       CG331   -0.170000       12.0110           0
     53929 WT18     187      MECN     H11      HGA3     0.090000        1.0080           0
     53930 WT18     187      MECN     H12      HGA3     0.090000        1.0080           0
     53931 WT18     187      MECN     H13      HGA3     0.090000        1.0080           0
     53932 WT18     187      MECN     C2       CG1N1    0.360000       12.0110           0
     53933 WT18     187      MECN     N3       NG1T1   -0.460000       14.0070           0
     53934 WT18     188      MECN     C1       CG331   -0.170000       12.0110           0
     53935 WT18     188      MECN     H11      HGA3     0.090000        1.0080           0
     53936 WT18     188      MECN     H12      HGA3     0.090000        1.0080           0
     53937 WT18     188      MECN     H13      HGA3     0.090000        1.0080           0
     53938 WT18     188      MECN     C2       CG1N1    0.360000       12.0110           0
     53939 WT18     188      MECN     N3       NG1T1   -0.460000       14.0070           0
     53940 WT18     192      MECN     C1       CG331   -0.170000       12.0110           0
     53941 WT18     192      MECN     H11      HGA3     0.090000        1.0080           0
     53942 WT18     192      MECN     H12      HGA3     0.090000        1.0080           0
     53943 WT18     192      MECN     H13      HGA3     0.090000        1.0080           0
     53944 WT18     192      MECN     C2       CG1N1    0.360000       12.0110           0
     53945 WT18     192      MECN     N3       NG1T1   -0.460000       14.0070           0
     53946 WT18     193      MECN     C1       CG331   -0.170000       12.0110           0
     53947 WT18     193      MECN     H11      HGA3     0.090000        1.0080           0
     53948 WT18     193      MECN     H12      HGA3     0.090000        1.0080           0
     53949 WT18     193      MECN     H13      HGA3     0.090000        1.0080           0
     53950 WT18     193      MECN     C2       CG1N1    0.360000       12.0110           0
     53951 WT18     193      MECN     N3       NG1T1   -0.460000       14.0070           0
     53952 WT18     195      MECN     C1       CG331   -0.170000       12.0110           0
     53953 WT18     195      MECN     H11      HGA3     0.090000        1.0080           0
     53954 WT18     195      MECN     H12      HGA3     0.090000        1.0080           0
     53955 WT18     195      MECN     H13      HGA3     0.090000        1.0080           0
     53956 WT18     195      MECN     C2       CG1N1    0.360000       12.0110           0
     53957 WT18     195      MECN     N3       NG1T1   -0.460000       14.0070           0
     53958 WT18     196      MECN     C1       CG331   -0.170000       12.0110           0
     53959 WT18     196      MECN     H11      HGA3     0.090000        1.0080           0
     53960 WT18     196      MECN     H12      HGA3     0.090000        1.0080           0
     53961 WT18     196      MECN     H13      HGA3     0.090000        1.0080           0
     53962 WT18     196      MECN     C2       CG1N1    0.360000       12.0110           0
     53963 WT18     196      MECN     N3       NG1T1   -0.460000       14.0070           0
     53964 WT18     198      MECN     C1       CG331   -0.170000       12.0110           0
     53965 WT18     198      MECN     H11      HGA3     0.090000        1.0080           0
     53966 WT18     198      MECN     H12      HGA3     0.090000        1.0080           0
     53967 WT18     198      MECN     H13      HGA3     0.090000        1.0080           0
     53968 WT18     198      MECN     C2       CG1N1    0.360000       12.0110           0
     53969 WT18     198      MECN     N3       NG1T1   -0.460000       14.0070           0
     53970 WT18     199      MECN     C1       CG331   -0.170000       12.0110           0
     53971 WT18     199      MECN     H11      HGA3     0.090000        1.0080           0
     53972 WT18     199      MECN     H12      HGA3     0.090000        1.0080           0
     53973 WT18     199      MECN     H13      HGA3     0.090000        1.0080           0
     53974 WT18     199      MECN     C2       CG1N1    0.360000       12.0110           0
     53975 WT18     199      MECN     N3       NG1T1   -0.460000       14.0070           0
     53976 WT18     203      MECN     C1       CG331   -0.170000       12.0110           0
     53977 WT18     203      MECN     H11      HGA3     0.090000        1.0080           0
     53978 WT18     203      MECN     H12      HGA3     0.090000        1.0080           0
     53979 WT18     203      MECN     H13      HGA3     0.090000        1.0080           0
     53980 WT18     203      MECN     C2       CG1N1    0.360000       12.0110           0
     53981 WT18     203      MECN     N3       NG1T1   -0.460000       14.0070           0
     53982 WT18     205      MECN     C1       CG331   -0.170000       12.0110           0
     53983 WT18     205      MECN     H11      HGA3     0.090000        1.0080           0
     53984 WT18     205      MECN     H12      HGA3     0.090000        1.0080           0
     53985 WT18     205      MECN     H13      HGA3     0.090000        1.0080           0
     53986 WT18     205      MECN     C2       CG1N1    0.360000       12.0110           0
     53987 WT18     205      MECN     N3       NG1T1   -0.460000       14.0070           0
     53988 WT18     210      MECN     C1       CG331   -0.170000       12.0110           0
     53989 WT18     210      MECN     H11      HGA3     0.090000        1.0080           0
     53990 WT18     210      MECN     H12      HGA3     0.090000        1.0080           0
     53991 WT18     210      MECN     H13      HGA3     0.090000        1.0080           0
     53992 WT18     210      MECN     C2       CG1N1    0.360000       12.0110           0
     53993 WT18     210      MECN     N3       NG1T1   -0.460000       14.0070           0
     53994 WT18     211      MECN     C1       CG331   -0.170000       12.0110           0
     53995 WT18     211      MECN     H11      HGA3     0.090000        1.0080           0
     53996 WT18     211      MECN     H12      HGA3     0.090000        1.0080           0
     53997 WT18     211      MECN     H13      HGA3     0.090000        1.0080           0
     53998 WT18     211      MECN     C2       CG1N1    0.360000       12.0110           0
     53999 WT18     211      MECN     N3       NG1T1   -0.460000       14.0070           0
     54000 WT18     214      MECN     C1       CG331   -0.170000       12.0110           0
     54001 WT18     214      MECN     H11      HGA3     0.090000        1.0080           0
     54002 WT18     214      MECN     H12      HGA3     0.090000        1.0080           0
     54003 WT18     214      MECN     H13      HGA3     0.090000        1.0080           0
     54004 WT18     214      MECN     C2       CG1N1    0.360000       12.0110           0
     54005 WT18     214      MECN     N3       NG1T1   -0.460000       14.0070           0
     54006 WT18     217      MECN     C1       CG331   -0.170000       12.0110           0
     54007 WT18     217      MECN     H11      HGA3     0.090000        1.0080           0
     54008 WT18     217      MECN     H12      HGA3     0.090000        1.0080           0
     54009 WT18     217      MECN     H13      HGA3     0.090000        1.0080           0
     54010 WT18     217      MECN     C2       CG1N1    0.360000       12.0110           0
     54011 WT18     217      MECN     N3       NG1T1   -0.460000       14.0070           0
     54012 WT18     218      MECN     C1       CG331   -0.170000       12.0110           0
     54013 WT18     218      MECN     H11      HGA3     0.090000        1.0080           0
     54014 WT18     218      MECN     H12      HGA3     0.090000        1.0080           0
     54015 WT18     218      MECN     H13      HGA3     0.090000        1.0080           0
     54016 WT18     218      MECN     C2       CG1N1    0.360000       12.0110           0
     54017 WT18     218      MECN     N3       NG1T1   -0.460000       14.0070           0
     54018 WT18     222      MECN     C1       CG331   -0.170000       12.0110           0
     54019 WT18     222      MECN     H11      HGA3     0.090000        1.0080           0
     54020 WT18     222      MECN     H12      HGA3     0.090000        1.0080           0
     54021 WT18     222      MECN     H13      HGA3     0.090000        1.0080           0
     54022 WT18     222      MECN     C2       CG1N1    0.360000       12.0110           0
     54023 WT18     222      MECN     N3       NG1T1   -0.460000       14.0070           0
     54024 WT18     223      MECN     C1       CG331   -0.170000       12.0110           0
     54025 WT18     223      MECN     H11      HGA3     0.090000        1.0080           0
     54026 WT18     223      MECN     H12      HGA3     0.090000        1.0080           0
     54027 WT18     223      MECN     H13      HGA3     0.090000        1.0080           0
     54028 WT18     223      MECN     C2       CG1N1    0.360000       12.0110           0
     54029 WT18     223      MECN     N3       NG1T1   -0.460000       14.0070           0
     54030 WT18     225      MECN     C1       CG331   -0.170000       12.0110           0
     54031 WT18     225      MECN     H11      HGA3     0.090000        1.0080           0
     54032 WT18     225      MECN     H12      HGA3     0.090000        1.0080           0
     54033 WT18     225      MECN     H13      HGA3     0.090000        1.0080           0
     54034 WT18     225      MECN     C2       CG1N1    0.360000       12.0110           0
     54035 WT18     225      MECN     N3       NG1T1   -0.460000       14.0070           0
     54036 WT18     226      MECN     C1       CG331   -0.170000       12.0110           0
     54037 WT18     226      MECN     H11      HGA3     0.090000        1.0080           0
     54038 WT18     226      MECN     H12      HGA3     0.090000        1.0080           0
     54039 WT18     226      MECN     H13      HGA3     0.090000        1.0080           0
     54040 WT18     226      MECN     C2       CG1N1    0.360000       12.0110           0
     54041 WT18     226      MECN     N3       NG1T1   -0.460000       14.0070           0
     54042 WT18     227      MECN     C1       CG331   -0.170000       12.0110           0
     54043 WT18     227      MECN     H11      HGA3     0.090000        1.0080           0
     54044 WT18     227      MECN     H12      HGA3     0.090000        1.0080           0
     54045 WT18     227      MECN     H13      HGA3     0.090000        1.0080           0
     54046 WT18     227      MECN     C2       CG1N1    0.360000       12.0110           0
     54047 WT18     227      MECN     N3       NG1T1   -0.460000       14.0070           0
     54048 WT18     228      MECN     C1       CG331   -0.170000       12.0110           0
     54049 WT18     228      MECN     H11      HGA3     0.090000        1.0080           0
     54050 WT18     228      MECN     H12      HGA3     0.090000        1.0080           0
     54051 WT18     228      MECN     H13      HGA3     0.090000        1.0080           0
     54052 WT18     228      MECN     C2       CG1N1    0.360000       12.0110           0
     54053 WT18     228      MECN     N3       NG1T1   -0.460000       14.0070           0
     54054 WT18     232      MECN     C1       CG331   -0.170000       12.0110           0
     54055 WT18     232      MECN     H11      HGA3     0.090000        1.0080           0
     54056 WT18     232      MECN     H12      HGA3     0.090000        1.0080           0
     54057 WT18     232      MECN     H13      HGA3     0.090000        1.0080           0
     54058 WT18     232      MECN     C2       CG1N1    0.360000       12.0110           0
     54059 WT18     232      MECN     N3       NG1T1   -0.460000       14.0070           0
     54060 WT18     233      MECN     C1       CG331   -0.170000       12.0110           0
     54061 WT18     233      MECN     H11      HGA3     0.090000        1.0080           0
     54062 WT18     233      MECN     H12      HGA3     0.090000        1.0080           0
     54063 WT18     233      MECN     H13      HGA3     0.090000        1.0080           0
     54064 WT18     233      MECN     C2       CG1N1    0.360000       12.0110           0
     54065 WT18     233      MECN     N3       NG1T1   -0.460000       14.0070           0
     54066 WT18     234      MECN     C1       CG331   -0.170000       12.0110           0
     54067 WT18     234      MECN     H11      HGA3     0.090000        1.0080           0
     54068 WT18     234      MECN     H12      HGA3     0.090000        1.0080           0
     54069 WT18     234      MECN     H13      HGA3     0.090000        1.0080           0
     54070 WT18     234      MECN     C2       CG1N1    0.360000       12.0110           0
     54071 WT18     234      MECN     N3       NG1T1   -0.460000       14.0070           0
     54072 WT18     235      MECN     C1       CG331   -0.170000       12.0110           0
     54073 WT18     235      MECN     H11      HGA3     0.090000        1.0080           0
     54074 WT18     235      MECN     H12      HGA3     0.090000        1.0080           0
     54075 WT18     235      MECN     H13      HGA3     0.090000        1.0080           0
     54076 WT18     235      MECN     C2       CG1N1    0.360000       12.0110           0
     54077 WT18     235      MECN     N3       NG1T1   -0.460000       14.0070           0
     54078 WT18     237      MECN     C1       CG331   -0.170000       12.0110           0
     54079 WT18     237      MECN     H11      HGA3     0.090000        1.0080           0
     54080 WT18     237      MECN     H12      HGA3     0.090000        1.0080           0
     54081 WT18     237      MECN     H13      HGA3     0.090000        1.0080           0
     54082 WT18     237      MECN     C2       CG1N1    0.360000       12.0110           0
     54083 WT18     237      MECN     N3       NG1T1   -0.460000       14.0070           0
     54084 WT18     239      MECN     C1       CG331   -0.170000       12.0110           0
     54085 WT18     239      MECN     H11      HGA3     0.090000        1.0080           0
     54086 WT18     239      MECN     H12      HGA3     0.090000        1.0080           0
     54087 WT18     239      MECN     H13      HGA3     0.090000        1.0080           0
     54088 WT18     239      MECN     C2       CG1N1    0.360000       12.0110           0
     54089 WT18     239      MECN     N3       NG1T1   -0.460000       14.0070           0
     54090 WT18     240      MECN     C1       CG331   -0.170000       12.0110           0
     54091 WT18     240      MECN     H11      HGA3     0.090000        1.0080           0
     54092 WT18     240      MECN     H12      HGA3     0.090000        1.0080           0
     54093 WT18     240      MECN     H13      HGA3     0.090000        1.0080           0
     54094 WT18     240      MECN     C2       CG1N1    0.360000       12.0110           0
     54095 WT18     240      MECN     N3       NG1T1   -0.460000       14.0070           0
     54096 WT18     242      MECN     C1       CG331   -0.170000       12.0110           0
     54097 WT18     242      MECN     H11      HGA3     0.090000        1.0080           0
     54098 WT18     242      MECN     H12      HGA3     0.090000        1.0080           0
     54099 WT18     242      MECN     H13      HGA3     0.090000        1.0080           0
     54100 WT18     242      MECN     C2       CG1N1    0.360000       12.0110           0
     54101 WT18     242      MECN     N3       NG1T1   -0.460000       14.0070           0
     54102 WT18     243      MECN     C1       CG331   -0.170000       12.0110           0
     54103 WT18     243      MECN     H11      HGA3     0.090000        1.0080           0
     54104 WT18     243      MECN     H12      HGA3     0.090000        1.0080           0
     54105 WT18     243      MECN     H13      HGA3     0.090000        1.0080           0
     54106 WT18     243      MECN     C2       CG1N1    0.360000       12.0110           0
     54107 WT18     243      MECN     N3       NG1T1   -0.460000       14.0070           0
     54108 WT18     244      MECN     C1       CG331   -0.170000       12.0110           0
     54109 WT18     244      MECN     H11      HGA3     0.090000        1.0080           0
     54110 WT18     244      MECN     H12      HGA3     0.090000        1.0080           0
     54111 WT18     244      MECN     H13      HGA3     0.090000        1.0080           0
     54112 WT18     244      MECN     C2       CG1N1    0.360000       12.0110           0
     54113 WT18     244      MECN     N3       NG1T1   -0.460000       14.0070           0
     54114 WT18     246      MECN     C1       CG331   -0.170000       12.0110           0
     54115 WT18     246      MECN     H11      HGA3     0.090000        1.0080           0
     54116 WT18     246      MECN     H12      HGA3     0.090000        1.0080           0
     54117 WT18     246      MECN     H13      HGA3     0.090000        1.0080           0
     54118 WT18     246      MECN     C2       CG1N1    0.360000       12.0110           0
     54119 WT18     246      MECN     N3       NG1T1   -0.460000       14.0070           0
     54120 WT18     249      MECN     C1       CG331   -0.170000       12.0110           0
     54121 WT18     249      MECN     H11      HGA3     0.090000        1.0080           0
     54122 WT18     249      MECN     H12      HGA3     0.090000        1.0080           0
     54123 WT18     249      MECN     H13      HGA3     0.090000        1.0080           0
     54124 WT18     249      MECN     C2       CG1N1    0.360000       12.0110           0
     54125 WT18     249      MECN     N3       NG1T1   -0.460000       14.0070           0
     54126 WT18     250      MECN     C1       CG331   -0.170000       12.0110           0
     54127 WT18     250      MECN     H11      HGA3     0.090000        1.0080           0
     54128 WT18     250      MECN     H12      HGA3     0.090000        1.0080           0
     54129 WT18     250      MECN     H13      HGA3     0.090000        1.0080           0
     54130 WT18     250      MECN     C2       CG1N1    0.360000       12.0110           0
     54131 WT18     250      MECN     N3       NG1T1   -0.460000       14.0070           0
     54132 WT18     251      MECN     C1       CG331   -0.170000       12.0110           0
     54133 WT18     251      MECN     H11      HGA3     0.090000        1.0080           0
     54134 WT18     251      MECN     H12      HGA3     0.090000        1.0080           0
     54135 WT18     251      MECN     H13      HGA3     0.090000        1.0080           0
     54136 WT18     251      MECN     C2       CG1N1    0.360000       12.0110           0
     54137 WT18     251      MECN     N3       NG1T1   -0.460000       14.0070           0
     54138 WT18     252      MECN     C1       CG331   -0.170000       12.0110           0
     54139 WT18     252      MECN     H11      HGA3     0.090000        1.0080           0
     54140 WT18     252      MECN     H12      HGA3     0.090000        1.0080           0
     54141 WT18     252      MECN     H13      HGA3     0.090000        1.0080           0
     54142 WT18     252      MECN     C2       CG1N1    0.360000       12.0110           0
     54143 WT18     252      MECN     N3       NG1T1   -0.460000       14.0070           0
     54144 WT18     254      MECN     C1       CG331   -0.170000       12.0110           0
     54145 WT18     254      MECN     H11      HGA3     0.090000        1.0080           0
     54146 WT18     254      MECN     H12      HGA3     0.090000        1.0080           0
     54147 WT18     254      MECN     H13      HGA3     0.090000        1.0080           0
     54148 WT18     254      MECN     C2       CG1N1    0.360000       12.0110           0
     54149 WT18     254      MECN     N3       NG1T1   -0.460000       14.0070           0
     54150 WT18     257      MECN     C1       CG331   -0.170000       12.0110           0
     54151 WT18     257      MECN     H11      HGA3     0.090000        1.0080           0
     54152 WT18     257      MECN     H12      HGA3     0.090000        1.0080           0
     54153 WT18     257      MECN     H13      HGA3     0.090000        1.0080           0
     54154 WT18     257      MECN     C2       CG1N1    0.360000       12.0110           0
     54155 WT18     257      MECN     N3       NG1T1   -0.460000       14.0070           0
     54156 WT18     258      MECN     C1       CG331   -0.170000       12.0110           0
     54157 WT18     258      MECN     H11      HGA3     0.090000        1.0080           0
     54158 WT18     258      MECN     H12      HGA3     0.090000        1.0080           0
     54159 WT18     258      MECN     H13      HGA3     0.090000        1.0080           0
     54160 WT18     258      MECN     C2       CG1N1    0.360000       12.0110           0
     54161 WT18     258      MECN     N3       NG1T1   -0.460000       14.0070           0
     54162 WT18     259      MECN     C1       CG331   -0.170000       12.0110           0
     54163 WT18     259      MECN     H11      HGA3     0.090000        1.0080           0
     54164 WT18     259      MECN     H12      HGA3     0.090000        1.0080           0
     54165 WT18     259      MECN     H13      HGA3     0.090000        1.0080           0
     54166 WT18     259      MECN     C2       CG1N1    0.360000       12.0110           0
     54167 WT18     259      MECN     N3       NG1T1   -0.460000       14.0070           0
     54168 WT18     261      MECN     C1       CG331   -0.170000       12.0110           0
     54169 WT18     261      MECN     H11      HGA3     0.090000        1.0080           0
     54170 WT18     261      MECN     H12      HGA3     0.090000        1.0080           0
     54171 WT18     261      MECN     H13      HGA3     0.090000        1.0080           0
     54172 WT18     261      MECN     C2       CG1N1    0.360000       12.0110           0
     54173 WT18     261      MECN     N3       NG1T1   -0.460000       14.0070           0
     54174 WT18     262      MECN     C1       CG331   -0.170000       12.0110           0
     54175 WT18     262      MECN     H11      HGA3     0.090000        1.0080           0
     54176 WT18     262      MECN     H12      HGA3     0.090000        1.0080           0
     54177 WT18     262      MECN     H13      HGA3     0.090000        1.0080           0
     54178 WT18     262      MECN     C2       CG1N1    0.360000       12.0110           0
     54179 WT18     262      MECN     N3       NG1T1   -0.460000       14.0070           0
     54180 WT18     263      MECN     C1       CG331   -0.170000       12.0110           0
     54181 WT18     263      MECN     H11      HGA3     0.090000        1.0080           0
     54182 WT18     263      MECN     H12      HGA3     0.090000        1.0080           0
     54183 WT18     263      MECN     H13      HGA3     0.090000        1.0080           0
     54184 WT18     263      MECN     C2       CG1N1    0.360000       12.0110           0
     54185 WT18     263      MECN     N3       NG1T1   -0.460000       14.0070           0
     54186 WT18     264      MECN     C1       CG331   -0.170000       12.0110           0
     54187 WT18     264      MECN     H11      HGA3     0.090000        1.0080           0
     54188 WT18     264      MECN     H12      HGA3     0.090000        1.0080           0
     54189 WT18     264      MECN     H13      HGA3     0.090000        1.0080           0
     54190 WT18     264      MECN     C2       CG1N1    0.360000       12.0110           0
     54191 WT18     264      MECN     N3       NG1T1   -0.460000       14.0070           0
     54192 WT18     265      MECN     C1       CG331   -0.170000       12.0110           0
     54193 WT18     265      MECN     H11      HGA3     0.090000        1.0080           0
     54194 WT18     265      MECN     H12      HGA3     0.090000        1.0080           0
     54195 WT18     265      MECN     H13      HGA3     0.090000        1.0080           0
     54196 WT18     265      MECN     C2       CG1N1    0.360000       12.0110           0
     54197 WT18     265      MECN     N3       NG1T1   -0.460000       14.0070           0
     54198 WT18     268      MECN     C1       CG331   -0.170000       12.0110           0
     54199 WT18     268      MECN     H11      HGA3     0.090000        1.0080           0
     54200 WT18     268      MECN     H12      HGA3     0.090000        1.0080           0
     54201 WT18     268      MECN     H13      HGA3     0.090000        1.0080           0
     54202 WT18     268      MECN     C2       CG1N1    0.360000       12.0110           0
     54203 WT18     268      MECN     N3       NG1T1   -0.460000       14.0070           0
     54204 WT18     269      MECN     C1       CG331   -0.170000       12.0110           0
     54205 WT18     269      MECN     H11      HGA3     0.090000        1.0080           0
     54206 WT18     269      MECN     H12      HGA3     0.090000        1.0080           0
     54207 WT18     269      MECN     H13      HGA3     0.090000        1.0080           0
     54208 WT18     269      MECN     C2       CG1N1    0.360000       12.0110           0
     54209 WT18     269      MECN     N3       NG1T1   -0.460000       14.0070           0
     54210 WT18     275      MECN     C1       CG331   -0.170000       12.0110           0
     54211 WT18     275      MECN     H11      HGA3     0.090000        1.0080           0
     54212 WT18     275      MECN     H12      HGA3     0.090000        1.0080           0
     54213 WT18     275      MECN     H13      HGA3     0.090000        1.0080           0
     54214 WT18     275      MECN     C2       CG1N1    0.360000       12.0110           0
     54215 WT18     275      MECN     N3       NG1T1   -0.460000       14.0070           0
     54216 WT18     276      MECN     C1       CG331   -0.170000       12.0110           0
     54217 WT18     276      MECN     H11      HGA3     0.090000        1.0080           0
     54218 WT18     276      MECN     H12      HGA3     0.090000        1.0080           0
     54219 WT18     276      MECN     H13      HGA3     0.090000        1.0080           0
     54220 WT18     276      MECN     C2       CG1N1    0.360000       12.0110           0
     54221 WT18     276      MECN     N3       NG1T1   -0.460000       14.0070           0
     54222 WT18     277      MECN     C1       CG331   -0.170000       12.0110           0
     54223 WT18     277      MECN     H11      HGA3     0.090000        1.0080           0
     54224 WT18     277      MECN     H12      HGA3     0.090000        1.0080           0
     54225 WT18     277      MECN     H13      HGA3     0.090000        1.0080           0
     54226 WT18     277      MECN     C2       CG1N1    0.360000       12.0110           0
     54227 WT18     277      MECN     N3       NG1T1   -0.460000       14.0070           0
     54228 WT18     278      MECN     C1       CG331   -0.170000       12.0110           0
     54229 WT18     278      MECN     H11      HGA3     0.090000        1.0080           0
     54230 WT18     278      MECN     H12      HGA3     0.090000        1.0080           0
     54231 WT18     278      MECN     H13      HGA3     0.090000        1.0080           0
     54232 WT18     278      MECN     C2       CG1N1    0.360000       12.0110           0
     54233 WT18     278      MECN     N3       NG1T1   -0.460000       14.0070           0
     54234 WT18     281      MECN     C1       CG331   -0.170000       12.0110           0
     54235 WT18     281      MECN     H11      HGA3     0.090000        1.0080           0
     54236 WT18     281      MECN     H12      HGA3     0.090000        1.0080           0
     54237 WT18     281      MECN     H13      HGA3     0.090000        1.0080           0
     54238 WT18     281      MECN     C2       CG1N1    0.360000       12.0110           0
     54239 WT18     281      MECN     N3       NG1T1   -0.460000       14.0070           0
     54240 WT18     282      MECN     C1       CG331   -0.170000       12.0110           0
     54241 WT18     282      MECN     H11      HGA3     0.090000        1.0080           0
     54242 WT18     282      MECN     H12      HGA3     0.090000        1.0080           0
     54243 WT18     282      MECN     H13      HGA3     0.090000        1.0080           0
     54244 WT18     282      MECN     C2       CG1N1    0.360000       12.0110           0
     54245 WT18     282      MECN     N3       NG1T1   -0.460000       14.0070           0
     54246 WT18     283      MECN     C1       CG331   -0.170000       12.0110           0
     54247 WT18     283      MECN     H11      HGA3     0.090000        1.0080           0
     54248 WT18     283      MECN     H12      HGA3     0.090000        1.0080           0
     54249 WT18     283      MECN     H13      HGA3     0.090000        1.0080           0
     54250 WT18     283      MECN     C2       CG1N1    0.360000       12.0110           0
     54251 WT18     283      MECN     N3       NG1T1   -0.460000       14.0070           0
     54252 WT18     284      MECN     C1       CG331   -0.170000       12.0110           0
     54253 WT18     284      MECN     H11      HGA3     0.090000        1.0080           0
     54254 WT18     284      MECN     H12      HGA3     0.090000        1.0080           0
     54255 WT18     284      MECN     H13      HGA3     0.090000        1.0080           0
     54256 WT18     284      MECN     C2       CG1N1    0.360000       12.0110           0
     54257 WT18     284      MECN     N3       NG1T1   -0.460000       14.0070           0
     54258 WT18     285      MECN     C1       CG331   -0.170000       12.0110           0
     54259 WT18     285      MECN     H11      HGA3     0.090000        1.0080           0
     54260 WT18     285      MECN     H12      HGA3     0.090000        1.0080           0
     54261 WT18     285      MECN     H13      HGA3     0.090000        1.0080           0
     54262 WT18     285      MECN     C2       CG1N1    0.360000       12.0110           0
     54263 WT18     285      MECN     N3       NG1T1   -0.460000       14.0070           0
     54264 WT18     290      MECN     C1       CG331   -0.170000       12.0110           0
     54265 WT18     290      MECN     H11      HGA3     0.090000        1.0080           0
     54266 WT18     290      MECN     H12      HGA3     0.090000        1.0080           0
     54267 WT18     290      MECN     H13      HGA3     0.090000        1.0080           0
     54268 WT18     290      MECN     C2       CG1N1    0.360000       12.0110           0
     54269 WT18     290      MECN     N3       NG1T1   -0.460000       14.0070           0
     54270 WT18     291      MECN     C1       CG331   -0.170000       12.0110           0
     54271 WT18     291      MECN     H11      HGA3     0.090000        1.0080           0
     54272 WT18     291      MECN     H12      HGA3     0.090000        1.0080           0
     54273 WT18     291      MECN     H13      HGA3     0.090000        1.0080           0
     54274 WT18     291      MECN     C2       CG1N1    0.360000       12.0110           0
     54275 WT18     291      MECN     N3       NG1T1   -0.460000       14.0070           0
     54276 WT18     293      MECN     C1       CG331   -0.170000       12.0110           0
     54277 WT18     293      MECN     H11      HGA3     0.090000        1.0080           0
     54278 WT18     293      MECN     H12      HGA3     0.090000        1.0080           0
     54279 WT18     293      MECN     H13      HGA3     0.090000        1.0080           0
     54280 WT18     293      MECN     C2       CG1N1    0.360000       12.0110           0
     54281 WT18     293      MECN     N3       NG1T1   -0.460000       14.0070           0
     54282 WT18     295      MECN     C1       CG331   -0.170000       12.0110           0
     54283 WT18     295      MECN     H11      HGA3     0.090000        1.0080           0
     54284 WT18     295      MECN     H12      HGA3     0.090000        1.0080           0
     54285 WT18     295      MECN     H13      HGA3     0.090000        1.0080           0
     54286 WT18     295      MECN     C2       CG1N1    0.360000       12.0110           0
     54287 WT18     295      MECN     N3       NG1T1   -0.460000       14.0070           0
     54288 WT18     301      MECN     C1       CG331   -0.170000       12.0110           0
     54289 WT18     301      MECN     H11      HGA3     0.090000        1.0080           0
     54290 WT18     301      MECN     H12      HGA3     0.090000        1.0080           0
     54291 WT18     301      MECN     H13      HGA3     0.090000        1.0080           0
     54292 WT18     301      MECN     C2       CG1N1    0.360000       12.0110           0
     54293 WT18     301      MECN     N3       NG1T1   -0.460000       14.0070           0
     54294 WT18     302      MECN     C1       CG331   -0.170000       12.0110           0
     54295 WT18     302      MECN     H11      HGA3     0.090000        1.0080           0
     54296 WT18     302      MECN     H12      HGA3     0.090000        1.0080           0
     54297 WT18     302      MECN     H13      HGA3     0.090000        1.0080           0
     54298 WT18     302      MECN     C2       CG1N1    0.360000       12.0110           0
     54299 WT18     302      MECN     N3       NG1T1   -0.460000       14.0070           0
     54300 WT18     303      MECN     C1       CG331   -0.170000       12.0110           0
     54301 WT18     303      MECN     H11      HGA3     0.090000        1.0080           0
     54302 WT18     303      MECN     H12      HGA3     0.090000        1.0080           0
     54303 WT18     303      MECN     H13      HGA3     0.090000        1.0080           0
     54304 WT18     303      MECN     C2       CG1N1    0.360000       12.0110           0
     54305 WT18     303      MECN     N3       NG1T1   -0.460000       14.0070           0
     54306 WT18     304      MECN     C1       CG331   -0.170000       12.0110           0
     54307 WT18     304      MECN     H11      HGA3     0.090000        1.0080           0
     54308 WT18     304      MECN     H12      HGA3     0.090000        1.0080           0
     54309 WT18     304      MECN     H13      HGA3     0.090000        1.0080           0
     54310 WT18     304      MECN     C2       CG1N1    0.360000       12.0110           0
     54311 WT18     304      MECN     N3       NG1T1   -0.460000       14.0070           0
     54312 WT18     305      MECN     C1       CG331   -0.170000       12.0110           0
     54313 WT18     305      MECN     H11      HGA3     0.090000        1.0080           0
     54314 WT18     305      MECN     H12      HGA3     0.090000        1.0080           0
     54315 WT18     305      MECN     H13      HGA3     0.090000        1.0080           0
     54316 WT18     305      MECN     C2       CG1N1    0.360000       12.0110           0
     54317 WT18     305      MECN     N3       NG1T1   -0.460000       14.0070           0
     54318 WT18     307      MECN     C1       CG331   -0.170000       12.0110           0
     54319 WT18     307      MECN     H11      HGA3     0.090000        1.0080           0
     54320 WT18     307      MECN     H12      HGA3     0.090000        1.0080           0
     54321 WT18     307      MECN     H13      HGA3     0.090000        1.0080           0
     54322 WT18     307      MECN     C2       CG1N1    0.360000       12.0110           0
     54323 WT18     307      MECN     N3       NG1T1   -0.460000       14.0070           0
     54324 WT18     308      MECN     C1       CG331   -0.170000       12.0110           0
     54325 WT18     308      MECN     H11      HGA3     0.090000        1.0080           0
     54326 WT18     308      MECN     H12      HGA3     0.090000        1.0080           0
     54327 WT18     308      MECN     H13      HGA3     0.090000        1.0080           0
     54328 WT18     308      MECN     C2       CG1N1    0.360000       12.0110           0
     54329 WT18     308      MECN     N3       NG1T1   -0.460000       14.0070           0
     54330 WT18     309      MECN     C1       CG331   -0.170000       12.0110           0
     54331 WT18     309      MECN     H11      HGA3     0.090000        1.0080           0
     54332 WT18     309      MECN     H12      HGA3     0.090000        1.0080           0
     54333 WT18     309      MECN     H13      HGA3     0.090000        1.0080           0
     54334 WT18     309      MECN     C2       CG1N1    0.360000       12.0110           0
     54335 WT18     309      MECN     N3       NG1T1   -0.460000       14.0070           0
     54336 WT18     311      MECN     C1       CG331   -0.170000       12.0110           0
     54337 WT18     311      MECN     H11      HGA3     0.090000        1.0080           0
     54338 WT18     311      MECN     H12      HGA3     0.090000        1.0080           0
     54339 WT18     311      MECN     H13      HGA3     0.090000        1.0080           0
     54340 WT18     311      MECN     C2       CG1N1    0.360000       12.0110           0
     54341 WT18     311      MECN     N3       NG1T1   -0.460000       14.0070           0
     54342 WT18     314      MECN     C1       CG331   -0.170000       12.0110           0
     54343 WT18     314      MECN     H11      HGA3     0.090000        1.0080           0
     54344 WT18     314      MECN     H12      HGA3     0.090000        1.0080           0
     54345 WT18     314      MECN     H13      HGA3     0.090000        1.0080           0
     54346 WT18     314      MECN     C2       CG1N1    0.360000       12.0110           0
     54347 WT18     314      MECN     N3       NG1T1   -0.460000       14.0070           0
     54348 WT18     320      MECN     C1       CG331   -0.170000       12.0110           0
     54349 WT18     320      MECN     H11      HGA3     0.090000        1.0080           0
     54350 WT18     320      MECN     H12      HGA3     0.090000        1.0080           0
     54351 WT18     320      MECN     H13      HGA3     0.090000        1.0080           0
     54352 WT18     320      MECN     C2       CG1N1    0.360000       12.0110           0
     54353 WT18     320      MECN     N3       NG1T1   -0.460000       14.0070           0
     54354 WT18     321      MECN     C1       CG331   -0.170000       12.0110           0
     54355 WT18     321      MECN     H11      HGA3     0.090000        1.0080           0
     54356 WT18     321      MECN     H12      HGA3     0.090000        1.0080           0
     54357 WT18     321      MECN     H13      HGA3     0.090000        1.0080           0
     54358 WT18     321      MECN     C2       CG1N1    0.360000       12.0110           0
     54359 WT18     321      MECN     N3       NG1T1   -0.460000       14.0070           0
     54360 WT18     323      MECN     C1       CG331   -0.170000       12.0110           0
     54361 WT18     323      MECN     H11      HGA3     0.090000        1.0080           0
     54362 WT18     323      MECN     H12      HGA3     0.090000        1.0080           0
     54363 WT18     323      MECN     H13      HGA3     0.090000        1.0080           0
     54364 WT18     323      MECN     C2       CG1N1    0.360000       12.0110           0
     54365 WT18     323      MECN     N3       NG1T1   -0.460000       14.0070           0
     54366 WT18     324      MECN     C1       CG331   -0.170000       12.0110           0
     54367 WT18     324      MECN     H11      HGA3     0.090000        1.0080           0
     54368 WT18     324      MECN     H12      HGA3     0.090000        1.0080           0
     54369 WT18     324      MECN     H13      HGA3     0.090000        1.0080           0
     54370 WT18     324      MECN     C2       CG1N1    0.360000       12.0110           0
     54371 WT18     324      MECN     N3       NG1T1   -0.460000       14.0070           0
     54372 WT18     326      MECN     C1       CG331   -0.170000       12.0110           0
     54373 WT18     326      MECN     H11      HGA3     0.090000        1.0080           0
     54374 WT18     326      MECN     H12      HGA3     0.090000        1.0080           0
     54375 WT18     326      MECN     H13      HGA3     0.090000        1.0080           0
     54376 WT18     326      MECN     C2       CG1N1    0.360000       12.0110           0
     54377 WT18     326      MECN     N3       NG1T1   -0.460000       14.0070           0
     54378 WT18     329      MECN     C1       CG331   -0.170000       12.0110           0
     54379 WT18     329      MECN     H11      HGA3     0.090000        1.0080           0
     54380 WT18     329      MECN     H12      HGA3     0.090000        1.0080           0
     54381 WT18     329      MECN     H13      HGA3     0.090000        1.0080           0
     54382 WT18     329      MECN     C2       CG1N1    0.360000       12.0110           0
     54383 WT18     329      MECN     N3       NG1T1   -0.460000       14.0070           0
     54384 WT18     331      MECN     C1       CG331   -0.170000       12.0110           0
     54385 WT18     331      MECN     H11      HGA3     0.090000        1.0080           0
     54386 WT18     331      MECN     H12      HGA3     0.090000        1.0080           0
     54387 WT18     331      MECN     H13      HGA3     0.090000        1.0080           0
     54388 WT18     331      MECN     C2       CG1N1    0.360000       12.0110           0
     54389 WT18     331      MECN     N3       NG1T1   -0.460000       14.0070           0
     54390 WT18     334      MECN     C1       CG331   -0.170000       12.0110           0
     54391 WT18     334      MECN     H11      HGA3     0.090000        1.0080           0
     54392 WT18     334      MECN     H12      HGA3     0.090000        1.0080           0
     54393 WT18     334      MECN     H13      HGA3     0.090000        1.0080           0
     54394 WT18     334      MECN     C2       CG1N1    0.360000       12.0110           0
     54395 WT18     334      MECN     N3       NG1T1   -0.460000       14.0070           0
     54396 WT18     343      MECN     C1       CG331   -0.170000       12.0110           0
     54397 WT18     343      MECN     H11      HGA3     0.090000        1.0080           0
     54398 WT18     343      MECN     H12      HGA3     0.090000        1.0080           0
     54399 WT18     343      MECN     H13      HGA3     0.090000        1.0080           0
     54400 WT18     343      MECN     C2       CG1N1    0.360000       12.0110           0
     54401 WT18     343      MECN     N3       NG1T1   -0.460000       14.0070           0
     54402 WT18     345      MECN     C1       CG331   -0.170000       12.0110           0
     54403 WT18     345      MECN     H11      HGA3     0.090000        1.0080           0
     54404 WT18     345      MECN     H12      HGA3     0.090000        1.0080           0
     54405 WT18     345      MECN     H13      HGA3     0.090000        1.0080           0
     54406 WT18     345      MECN     C2       CG1N1    0.360000       12.0110           0
     54407 WT18     345      MECN     N3       NG1T1   -0.460000       14.0070           0
     54408 WT18     346      MECN     C1       CG331   -0.170000       12.0110           0
     54409 WT18     346      MECN     H11      HGA3     0.090000        1.0080           0
     54410 WT18     346      MECN     H12      HGA3     0.090000        1.0080           0
     54411 WT18     346      MECN     H13      HGA3     0.090000        1.0080           0
     54412 WT18     346      MECN     C2       CG1N1    0.360000       12.0110           0
     54413 WT18     346      MECN     N3       NG1T1   -0.460000       14.0070           0
     54414 WT18     347      MECN     C1       CG331   -0.170000       12.0110           0
     54415 WT18     347      MECN     H11      HGA3     0.090000        1.0080           0
     54416 WT18     347      MECN     H12      HGA3     0.090000        1.0080           0
     54417 WT18     347      MECN     H13      HGA3     0.090000        1.0080           0
     54418 WT18     347      MECN     C2       CG1N1    0.360000       12.0110           0
     54419 WT18     347      MECN     N3       NG1T1   -0.460000       14.0070           0
     54420 WT18     348      MECN     C1       CG331   -0.170000       12.0110           0
     54421 WT18     348      MECN     H11      HGA3     0.090000        1.0080           0
     54422 WT18     348      MECN     H12      HGA3     0.090000        1.0080           0
     54423 WT18     348      MECN     H13      HGA3     0.090000        1.0080           0
     54424 WT18     348      MECN     C2       CG1N1    0.360000       12.0110           0
     54425 WT18     348      MECN     N3       NG1T1   -0.460000       14.0070           0
     54426 WT18     350      MECN     C1       CG331   -0.170000       12.0110           0
     54427 WT18     350      MECN     H11      HGA3     0.090000        1.0080           0
     54428 WT18     350      MECN     H12      HGA3     0.090000        1.0080           0
     54429 WT18     350      MECN     H13      HGA3     0.090000        1.0080           0
     54430 WT18     350      MECN     C2       CG1N1    0.360000       12.0110           0
     54431 WT18     350      MECN     N3       NG1T1   -0.460000       14.0070           0
     54432 WT18     352      MECN     C1       CG331   -0.170000       12.0110           0
     54433 WT18     352      MECN     H11      HGA3     0.090000        1.0080           0
     54434 WT18     352      MECN     H12      HGA3     0.090000        1.0080           0
     54435 WT18     352      MECN     H13      HGA3     0.090000        1.0080           0
     54436 WT18     352      MECN     C2       CG1N1    0.360000       12.0110           0
     54437 WT18     352      MECN     N3       NG1T1   -0.460000       14.0070           0
     54438 WT18     353      MECN     C1       CG331   -0.170000       12.0110           0
     54439 WT18     353      MECN     H11      HGA3     0.090000        1.0080           0
     54440 WT18     353      MECN     H12      HGA3     0.090000        1.0080           0
     54441 WT18     353      MECN     H13      HGA3     0.090000        1.0080           0
     54442 WT18     353      MECN     C2       CG1N1    0.360000       12.0110           0
     54443 WT18     353      MECN     N3       NG1T1   -0.460000       14.0070           0
     54444 WT18     354      MECN     C1       CG331   -0.170000       12.0110           0
     54445 WT18     354      MECN     H11      HGA3     0.090000        1.0080           0
     54446 WT18     354      MECN     H12      HGA3     0.090000        1.0080           0
     54447 WT18     354      MECN     H13      HGA3     0.090000        1.0080           0
     54448 WT18     354      MECN     C2       CG1N1    0.360000       12.0110           0
     54449 WT18     354      MECN     N3       NG1T1   -0.460000       14.0070           0
     54450 WT18     355      MECN     C1       CG331   -0.170000       12.0110           0
     54451 WT18     355      MECN     H11      HGA3     0.090000        1.0080           0
     54452 WT18     355      MECN     H12      HGA3     0.090000        1.0080           0
     54453 WT18     355      MECN     H13      HGA3     0.090000        1.0080           0
     54454 WT18     355      MECN     C2       CG1N1    0.360000       12.0110           0
     54455 WT18     355      MECN     N3       NG1T1   -0.460000       14.0070           0
     54456 WT18     356      MECN     C1       CG331   -0.170000       12.0110           0
     54457 WT18     356      MECN     H11      HGA3     0.090000        1.0080           0
     54458 WT18     356      MECN     H12      HGA3     0.090000        1.0080           0
     54459 WT18     356      MECN     H13      HGA3     0.090000        1.0080           0
     54460 WT18     356      MECN     C2       CG1N1    0.360000       12.0110           0
     54461 WT18     356      MECN     N3       NG1T1   -0.460000       14.0070           0
     54462 WT18     357      MECN     C1       CG331   -0.170000       12.0110           0
     54463 WT18     357      MECN     H11      HGA3     0.090000        1.0080           0
     54464 WT18     357      MECN     H12      HGA3     0.090000        1.0080           0
     54465 WT18     357      MECN     H13      HGA3     0.090000        1.0080           0
     54466 WT18     357      MECN     C2       CG1N1    0.360000       12.0110           0
     54467 WT18     357      MECN     N3       NG1T1   -0.460000       14.0070           0
     54468 WT18     359      MECN     C1       CG331   -0.170000       12.0110           0
     54469 WT18     359      MECN     H11      HGA3     0.090000        1.0080           0
     54470 WT18     359      MECN     H12      HGA3     0.090000        1.0080           0
     54471 WT18     359      MECN     H13      HGA3     0.090000        1.0080           0
     54472 WT18     359      MECN     C2       CG1N1    0.360000       12.0110           0
     54473 WT18     359      MECN     N3       NG1T1   -0.460000       14.0070           0
     54474 WT18     362      MECN     C1       CG331   -0.170000       12.0110           0
     54475 WT18     362      MECN     H11      HGA3     0.090000        1.0080           0
     54476 WT18     362      MECN     H12      HGA3     0.090000        1.0080           0
     54477 WT18     362      MECN     H13      HGA3     0.090000        1.0080           0
     54478 WT18     362      MECN     C2       CG1N1    0.360000       12.0110           0
     54479 WT18     362      MECN     N3       NG1T1   -0.460000       14.0070           0
     54480 WT18     363      MECN     C1       CG331   -0.170000       12.0110           0
     54481 WT18     363      MECN     H11      HGA3     0.090000        1.0080           0
     54482 WT18     363      MECN     H12      HGA3     0.090000        1.0080           0
     54483 WT18     363      MECN     H13      HGA3     0.090000        1.0080           0
     54484 WT18     363      MECN     C2       CG1N1    0.360000       12.0110           0
     54485 WT18     363      MECN     N3       NG1T1   -0.460000       14.0070           0
     54486 WT18     364      MECN     C1       CG331   -0.170000       12.0110           0
     54487 WT18     364      MECN     H11      HGA3     0.090000        1.0080           0
     54488 WT18     364      MECN     H12      HGA3     0.090000        1.0080           0
     54489 WT18     364      MECN     H13      HGA3     0.090000        1.0080           0
     54490 WT18     364      MECN     C2       CG1N1    0.360000       12.0110           0
     54491 WT18     364      MECN     N3       NG1T1   -0.460000       14.0070           0
     54492 WT18     365      MECN     C1       CG331   -0.170000       12.0110           0
     54493 WT18     365      MECN     H11      HGA3     0.090000        1.0080           0
     54494 WT18     365      MECN     H12      HGA3     0.090000        1.0080           0
     54495 WT18     365      MECN     H13      HGA3     0.090000        1.0080           0
     54496 WT18     365      MECN     C2       CG1N1    0.360000       12.0110           0
     54497 WT18     365      MECN     N3       NG1T1   -0.460000       14.0070           0
     54498 WT18     368      MECN     C1       CG331   -0.170000       12.0110           0
     54499 WT18     368      MECN     H11      HGA3     0.090000        1.0080           0
     54500 WT18     368      MECN     H12      HGA3     0.090000        1.0080           0
     54501 WT18     368      MECN     H13      HGA3     0.090000        1.0080           0
     54502 WT18     368      MECN     C2       CG1N1    0.360000       12.0110           0
     54503 WT18     368      MECN     N3       NG1T1   -0.460000       14.0070           0
     54504 WT18     370      MECN     C1       CG331   -0.170000       12.0110           0
     54505 WT18     370      MECN     H11      HGA3     0.090000        1.0080           0
     54506 WT18     370      MECN     H12      HGA3     0.090000        1.0080           0
     54507 WT18     370      MECN     H13      HGA3     0.090000        1.0080           0
     54508 WT18     370      MECN     C2       CG1N1    0.360000       12.0110           0
     54509 WT18     370      MECN     N3       NG1T1   -0.460000       14.0070           0
     54510 WT18     371      MECN     C1       CG331   -0.170000       12.0110           0
     54511 WT18     371      MECN     H11      HGA3     0.090000        1.0080           0
     54512 WT18     371      MECN     H12      HGA3     0.090000        1.0080           0
     54513 WT18     371      MECN     H13      HGA3     0.090000        1.0080           0
     54514 WT18     371      MECN     C2       CG1N1    0.360000       12.0110           0
     54515 WT18     371      MECN     N3       NG1T1   -0.460000       14.0070           0
     54516 WT18     372      MECN     C1       CG331   -0.170000       12.0110           0
     54517 WT18     372      MECN     H11      HGA3     0.090000        1.0080           0
     54518 WT18     372      MECN     H12      HGA3     0.090000        1.0080           0
     54519 WT18     372      MECN     H13      HGA3     0.090000        1.0080           0
     54520 WT18     372      MECN     C2       CG1N1    0.360000       12.0110           0
     54521 WT18     372      MECN     N3       NG1T1   -0.460000       14.0070           0
     54522 WT18     375      MECN     C1       CG331   -0.170000       12.0110           0
     54523 WT18     375      MECN     H11      HGA3     0.090000        1.0080           0
     54524 WT18     375      MECN     H12      HGA3     0.090000        1.0080           0
     54525 WT18     375      MECN     H13      HGA3     0.090000        1.0080           0
     54526 WT18     375      MECN     C2       CG1N1    0.360000       12.0110           0
     54527 WT18     375      MECN     N3       NG1T1   -0.460000       14.0070           0
     54528 WT18     376      MECN     C1       CG331   -0.170000       12.0110           0
     54529 WT18     376      MECN     H11      HGA3     0.090000        1.0080           0
     54530 WT18     376      MECN     H12      HGA3     0.090000        1.0080           0
     54531 WT18     376      MECN     H13      HGA3     0.090000        1.0080           0
     54532 WT18     376      MECN     C2       CG1N1    0.360000       12.0110           0
     54533 WT18     376      MECN     N3       NG1T1   -0.460000       14.0070           0
     54534 WT18     377      MECN     C1       CG331   -0.170000       12.0110           0
     54535 WT18     377      MECN     H11      HGA3     0.090000        1.0080           0
     54536 WT18     377      MECN     H12      HGA3     0.090000        1.0080           0
     54537 WT18     377      MECN     H13      HGA3     0.090000        1.0080           0
     54538 WT18     377      MECN     C2       CG1N1    0.360000       12.0110           0
     54539 WT18     377      MECN     N3       NG1T1   -0.460000       14.0070           0
     54540 WT18     379      MECN     C1       CG331   -0.170000       12.0110           0
     54541 WT18     379      MECN     H11      HGA3     0.090000        1.0080           0
     54542 WT18     379      MECN     H12      HGA3     0.090000        1.0080           0
     54543 WT18     379      MECN     H13      HGA3     0.090000        1.0080           0
     54544 WT18     379      MECN     C2       CG1N1    0.360000       12.0110           0
     54545 WT18     379      MECN     N3       NG1T1   -0.460000       14.0070           0
     54546 WT18     380      MECN     C1       CG331   -0.170000       12.0110           0
     54547 WT18     380      MECN     H11      HGA3     0.090000        1.0080           0
     54548 WT18     380      MECN     H12      HGA3     0.090000        1.0080           0
     54549 WT18     380      MECN     H13      HGA3     0.090000        1.0080           0
     54550 WT18     380      MECN     C2       CG1N1    0.360000       12.0110           0
     54551 WT18     380      MECN     N3       NG1T1   -0.460000       14.0070           0
     54552 WT18     382      MECN     C1       CG331   -0.170000       12.0110           0
     54553 WT18     382      MECN     H11      HGA3     0.090000        1.0080           0
     54554 WT18     382      MECN     H12      HGA3     0.090000        1.0080           0
     54555 WT18     382      MECN     H13      HGA3     0.090000        1.0080           0
     54556 WT18     382      MECN     C2       CG1N1    0.360000       12.0110           0
     54557 WT18     382      MECN     N3       NG1T1   -0.460000       14.0070           0
     54558 WT18     389      MECN     C1       CG331   -0.170000       12.0110           0
     54559 WT18     389      MECN     H11      HGA3     0.090000        1.0080           0
     54560 WT18     389      MECN     H12      HGA3     0.090000        1.0080           0
     54561 WT18     389      MECN     H13      HGA3     0.090000        1.0080           0
     54562 WT18     389      MECN     C2       CG1N1    0.360000       12.0110           0
     54563 WT18     389      MECN     N3       NG1T1   -0.460000       14.0070           0
     54564 WT18     390      MECN     C1       CG331   -0.170000       12.0110           0
     54565 WT18     390      MECN     H11      HGA3     0.090000        1.0080           0
     54566 WT18     390      MECN     H12      HGA3     0.090000        1.0080           0
     54567 WT18     390      MECN     H13      HGA3     0.090000        1.0080           0
     54568 WT18     390      MECN     C2       CG1N1    0.360000       12.0110           0
     54569 WT18     390      MECN     N3       NG1T1   -0.460000       14.0070           0
     54570 WT18     391      MECN     C1       CG331   -0.170000       12.0110           0
     54571 WT18     391      MECN     H11      HGA3     0.090000        1.0080           0
     54572 WT18     391      MECN     H12      HGA3     0.090000        1.0080           0
     54573 WT18     391      MECN     H13      HGA3     0.090000        1.0080           0
     54574 WT18     391      MECN     C2       CG1N1    0.360000       12.0110           0
     54575 WT18     391      MECN     N3       NG1T1   -0.460000       14.0070           0
     54576 WT18     393      MECN     C1       CG331   -0.170000       12.0110           0
     54577 WT18     393      MECN     H11      HGA3     0.090000        1.0080           0
     54578 WT18     393      MECN     H12      HGA3     0.090000        1.0080           0
     54579 WT18     393      MECN     H13      HGA3     0.090000        1.0080           0
     54580 WT18     393      MECN     C2       CG1N1    0.360000       12.0110           0
     54581 WT18     393      MECN     N3       NG1T1   -0.460000       14.0070           0
     54582 WT18     394      MECN     C1       CG331   -0.170000       12.0110           0
     54583 WT18     394      MECN     H11      HGA3     0.090000        1.0080           0
     54584 WT18     394      MECN     H12      HGA3     0.090000        1.0080           0
     54585 WT18     394      MECN     H13      HGA3     0.090000        1.0080           0
     54586 WT18     394      MECN     C2       CG1N1    0.360000       12.0110           0
     54587 WT18     394      MECN     N3       NG1T1   -0.460000       14.0070           0
     54588 WT18     395      MECN     C1       CG331   -0.170000       12.0110           0
     54589 WT18     395      MECN     H11      HGA3     0.090000        1.0080           0
     54590 WT18     395      MECN     H12      HGA3     0.090000        1.0080           0
     54591 WT18     395      MECN     H13      HGA3     0.090000        1.0080           0
     54592 WT18     395      MECN     C2       CG1N1    0.360000       12.0110           0
     54593 WT18     395      MECN     N3       NG1T1   -0.460000       14.0070           0
     54594 WT18     396      MECN     C1       CG331   -0.170000       12.0110           0
     54595 WT18     396      MECN     H11      HGA3     0.090000        1.0080           0
     54596 WT18     396      MECN     H12      HGA3     0.090000        1.0080           0
     54597 WT18     396      MECN     H13      HGA3     0.090000        1.0080           0
     54598 WT18     396      MECN     C2       CG1N1    0.360000       12.0110           0
     54599 WT18     396      MECN     N3       NG1T1   -0.460000       14.0070           0
     54600 WT18     397      MECN     C1       CG331   -0.170000       12.0110           0
     54601 WT18     397      MECN     H11      HGA3     0.090000        1.0080           0
     54602 WT18     397      MECN     H12      HGA3     0.090000        1.0080           0
     54603 WT18     397      MECN     H13      HGA3     0.090000        1.0080           0
     54604 WT18     397      MECN     C2       CG1N1    0.360000       12.0110           0
     54605 WT18     397      MECN     N3       NG1T1   -0.460000       14.0070           0
     54606 WT18     398      MECN     C1       CG331   -0.170000       12.0110           0
     54607 WT18     398      MECN     H11      HGA3     0.090000        1.0080           0
     54608 WT18     398      MECN     H12      HGA3     0.090000        1.0080           0
     54609 WT18     398      MECN     H13      HGA3     0.090000        1.0080           0
     54610 WT18     398      MECN     C2       CG1N1    0.360000       12.0110           0
     54611 WT18     398      MECN     N3       NG1T1   -0.460000       14.0070           0
     54612 WT18     399      MECN     C1       CG331   -0.170000       12.0110           0
     54613 WT18     399      MECN     H11      HGA3     0.090000        1.0080           0
     54614 WT18     399      MECN     H12      HGA3     0.090000        1.0080           0
     54615 WT18     399      MECN     H13      HGA3     0.090000        1.0080           0
     54616 WT18     399      MECN     C2       CG1N1    0.360000       12.0110           0
     54617 WT18     399      MECN     N3       NG1T1   -0.460000       14.0070           0
     54618 WT18     405      MECN     C1       CG331   -0.170000       12.0110           0
     54619 WT18     405      MECN     H11      HGA3     0.090000        1.0080           0
     54620 WT18     405      MECN     H12      HGA3     0.090000        1.0080           0
     54621 WT18     405      MECN     H13      HGA3     0.090000        1.0080           0
     54622 WT18     405      MECN     C2       CG1N1    0.360000       12.0110           0
     54623 WT18     405      MECN     N3       NG1T1   -0.460000       14.0070           0
     54624 WT18     407      MECN     C1       CG331   -0.170000       12.0110           0
     54625 WT18     407      MECN     H11      HGA3     0.090000        1.0080           0
     54626 WT18     407      MECN     H12      HGA3     0.090000        1.0080           0
     54627 WT18     407      MECN     H13      HGA3     0.090000        1.0080           0
     54628 WT18     407      MECN     C2       CG1N1    0.360000       12.0110           0
     54629 WT18     407      MECN     N3       NG1T1   -0.460000       14.0070           0
     54630 WT18     409      MECN     C1       CG331   -0.170000       12.0110           0
     54631 WT18     409      MECN     H11      HGA3     0.090000        1.0080           0
     54632 WT18     409      MECN     H12      HGA3     0.090000        1.0080           0
     54633 WT18     409      MECN     H13      HGA3     0.090000        1.0080           0
     54634 WT18     409      MECN     C2       CG1N1    0.360000       12.0110           0
     54635 WT18     409      MECN     N3       NG1T1   -0.460000       14.0070           0
     54636 WT18     411      MECN     C1       CG331   -0.170000       12.0110           0
     54637 WT18     411      MECN     H11      HGA3     0.090000        1.0080           0
     54638 WT18     411      MECN     H12      HGA3     0.090000        1.0080           0
     54639 WT18     411      MECN     H13      HGA3     0.090000        1.0080           0
     54640 WT18     411      MECN     C2       CG1N1    0.360000       12.0110           0
     54641 WT18     411      MECN     N3       NG1T1   -0.460000       14.0070           0
     54642 WT18     413      MECN     C1       CG331   -0.170000       12.0110           0
     54643 WT18     413      MECN     H11      HGA3     0.090000        1.0080           0
     54644 WT18     413      MECN     H12      HGA3     0.090000        1.0080           0
     54645 WT18     413      MECN     H13      HGA3     0.090000        1.0080           0
     54646 WT18     413      MECN     C2       CG1N1    0.360000       12.0110           0
     54647 WT18     413      MECN     N3       NG1T1   -0.460000       14.0070           0
     54648 WT18     414      MECN     C1       CG331   -0.170000       12.0110           0
     54649 WT18     414      MECN     H11      HGA3     0.090000        1.0080           0
     54650 WT18     414      MECN     H12      HGA3     0.090000        1.0080           0
     54651 WT18     414      MECN     H13      HGA3     0.090000        1.0080           0
     54652 WT18     414      MECN     C2       CG1N1    0.360000       12.0110           0
     54653 WT18     414      MECN     N3       NG1T1   -0.460000       14.0070           0
     54654 WT18     415      MECN     C1       CG331   -0.170000       12.0110           0
     54655 WT18     415      MECN     H11      HGA3     0.090000        1.0080           0
     54656 WT18     415      MECN     H12      HGA3     0.090000        1.0080           0
     54657 WT18     415      MECN     H13      HGA3     0.090000        1.0080           0
     54658 WT18     415      MECN     C2       CG1N1    0.360000       12.0110           0
     54659 WT18     415      MECN     N3       NG1T1   -0.460000       14.0070           0
     54660 WT18     416      MECN     C1       CG331   -0.170000       12.0110           0
     54661 WT18     416      MECN     H11      HGA3     0.090000        1.0080           0
     54662 WT18     416      MECN     H12      HGA3     0.090000        1.0080           0
     54663 WT18     416      MECN     H13      HGA3     0.090000        1.0080           0
     54664 WT18     416      MECN     C2       CG1N1    0.360000       12.0110           0
     54665 WT18     416      MECN     N3       NG1T1   -0.460000       14.0070           0
     54666 WT18     417      MECN     C1       CG331   -0.170000       12.0110           0
     54667 WT18     417      MECN     H11      HGA3     0.090000        1.0080           0
     54668 WT18     417      MECN     H12      HGA3     0.090000        1.0080           0
     54669 WT18     417      MECN     H13      HGA3     0.090000        1.0080           0
     54670 WT18     417      MECN     C2       CG1N1    0.360000       12.0110           0
     54671 WT18     417      MECN     N3       NG1T1   -0.460000       14.0070           0
     54672 WT18     419      MECN     C1       CG331   -0.170000       12.0110           0
     54673 WT18     419      MECN     H11      HGA3     0.090000        1.0080           0
     54674 WT18     419      MECN     H12      HGA3     0.090000        1.0080           0
     54675 WT18     419      MECN     H13      HGA3     0.090000        1.0080           0
     54676 WT18     419      MECN     C2       CG1N1    0.360000       12.0110           0
     54677 WT18     419      MECN     N3       NG1T1   -0.460000       14.0070           0
     54678 WT18     422      MECN     C1       CG331   -0.170000       12.0110           0
     54679 WT18     422      MECN     H11      HGA3     0.090000        1.0080           0
     54680 WT18     422      MECN     H12      HGA3     0.090000        1.0080           0
     54681 WT18     422      MECN     H13      HGA3     0.090000        1.0080           0
     54682 WT18     422      MECN     C2       CG1N1    0.360000       12.0110           0
     54683 WT18     422      MECN     N3       NG1T1   -0.460000       14.0070           0
     54684 WT18     424      MECN     C1       CG331   -0.170000       12.0110           0
     54685 WT18     424      MECN     H11      HGA3     0.090000        1.0080           0
     54686 WT18     424      MECN     H12      HGA3     0.090000        1.0080           0
     54687 WT18     424      MECN     H13      HGA3     0.090000        1.0080           0
     54688 WT18     424      MECN     C2       CG1N1    0.360000       12.0110           0
     54689 WT18     424      MECN     N3       NG1T1   -0.460000       14.0070           0
     54690 WT18     425      MECN     C1       CG331   -0.170000       12.0110           0
     54691 WT18     425      MECN     H11      HGA3     0.090000        1.0080           0
     54692 WT18     425      MECN     H12      HGA3     0.090000        1.0080           0
     54693 WT18     425      MECN     H13      HGA3     0.090000        1.0080           0
     54694 WT18     425      MECN     C2       CG1N1    0.360000       12.0110           0
     54695 WT18     425      MECN     N3       NG1T1   -0.460000       14.0070           0
     54696 WT18     426      MECN     C1       CG331   -0.170000       12.0110           0
     54697 WT18     426      MECN     H11      HGA3     0.090000        1.0080           0
     54698 WT18     426      MECN     H12      HGA3     0.090000        1.0080           0
     54699 WT18     426      MECN     H13      HGA3     0.090000        1.0080           0
     54700 WT18     426      MECN     C2       CG1N1    0.360000       12.0110           0
     54701 WT18     426      MECN     N3       NG1T1   -0.460000       14.0070           0
     54702 WT18     428      MECN     C1       CG331   -0.170000       12.0110           0
     54703 WT18     428      MECN     H11      HGA3     0.090000        1.0080           0
     54704 WT18     428      MECN     H12      HGA3     0.090000        1.0080           0
     54705 WT18     428      MECN     H13      HGA3     0.090000        1.0080           0
     54706 WT18     428      MECN     C2       CG1N1    0.360000       12.0110           0
     54707 WT18     428      MECN     N3       NG1T1   -0.460000       14.0070           0
     54708 WT18     429      MECN     C1       CG331   -0.170000       12.0110           0
     54709 WT18     429      MECN     H11      HGA3     0.090000        1.0080           0
     54710 WT18     429      MECN     H12      HGA3     0.090000        1.0080           0
     54711 WT18     429      MECN     H13      HGA3     0.090000        1.0080           0
     54712 WT18     429      MECN     C2       CG1N1    0.360000       12.0110           0
     54713 WT18     429      MECN     N3       NG1T1   -0.460000       14.0070           0
     54714 WT18     430      MECN     C1       CG331   -0.170000       12.0110           0
     54715 WT18     430      MECN     H11      HGA3     0.090000        1.0080           0
     54716 WT18     430      MECN     H12      HGA3     0.090000        1.0080           0
     54717 WT18     430      MECN     H13      HGA3     0.090000        1.0080           0
     54718 WT18     430      MECN     C2       CG1N1    0.360000       12.0110           0
     54719 WT18     430      MECN     N3       NG1T1   -0.460000       14.0070           0
     54720 WT18     431      MECN     C1       CG331   -0.170000       12.0110           0
     54721 WT18     431      MECN     H11      HGA3     0.090000        1.0080           0
     54722 WT18     431      MECN     H12      HGA3     0.090000        1.0080           0
     54723 WT18     431      MECN     H13      HGA3     0.090000        1.0080           0
     54724 WT18     431      MECN     C2       CG1N1    0.360000       12.0110           0
     54725 WT18     431      MECN     N3       NG1T1   -0.460000       14.0070           0
     54726 WT18     433      MECN     C1       CG331   -0.170000       12.0110           0
     54727 WT18     433      MECN     H11      HGA3     0.090000        1.0080           0
     54728 WT18     433      MECN     H12      HGA3     0.090000        1.0080           0
     54729 WT18     433      MECN     H13      HGA3     0.090000        1.0080           0
     54730 WT18     433      MECN     C2       CG1N1    0.360000       12.0110           0
     54731 WT18     433      MECN     N3       NG1T1   -0.460000       14.0070           0
     54732 WT18     434      MECN     C1       CG331   -0.170000       12.0110           0
     54733 WT18     434      MECN     H11      HGA3     0.090000        1.0080           0
     54734 WT18     434      MECN     H12      HGA3     0.090000        1.0080           0
     54735 WT18     434      MECN     H13      HGA3     0.090000        1.0080           0
     54736 WT18     434      MECN     C2       CG1N1    0.360000       12.0110           0
     54737 WT18     434      MECN     N3       NG1T1   -0.460000       14.0070           0
     54738 WT18     435      MECN     C1       CG331   -0.170000       12.0110           0
     54739 WT18     435      MECN     H11      HGA3     0.090000        1.0080           0
     54740 WT18     435      MECN     H12      HGA3     0.090000        1.0080           0
     54741 WT18     435      MECN     H13      HGA3     0.090000        1.0080           0
     54742 WT18     435      MECN     C2       CG1N1    0.360000       12.0110           0
     54743 WT18     435      MECN     N3       NG1T1   -0.460000       14.0070           0
     54744 WT18     439      MECN     C1       CG331   -0.170000       12.0110           0
     54745 WT18     439      MECN     H11      HGA3     0.090000        1.0080           0
     54746 WT18     439      MECN     H12      HGA3     0.090000        1.0080           0
     54747 WT18     439      MECN     H13      HGA3     0.090000        1.0080           0
     54748 WT18     439      MECN     C2       CG1N1    0.360000       12.0110           0
     54749 WT18     439      MECN     N3       NG1T1   -0.460000       14.0070           0
     54750 WT18     441      MECN     C1       CG331   -0.170000       12.0110           0
     54751 WT18     441      MECN     H11      HGA3     0.090000        1.0080           0
     54752 WT18     441      MECN     H12      HGA3     0.090000        1.0080           0
     54753 WT18     441      MECN     H13      HGA3     0.090000        1.0080           0
     54754 WT18     441      MECN     C2       CG1N1    0.360000       12.0110           0
     54755 WT18     441      MECN     N3       NG1T1   -0.460000       14.0070           0
     54756 WT18     443      MECN     C1       CG331   -0.170000       12.0110           0
     54757 WT18     443      MECN     H11      HGA3     0.090000        1.0080           0
     54758 WT18     443      MECN     H12      HGA3     0.090000        1.0080           0
     54759 WT18     443      MECN     H13      HGA3     0.090000        1.0080           0
     54760 WT18     443      MECN     C2       CG1N1    0.360000       12.0110           0
     54761 WT18     443      MECN     N3       NG1T1   -0.460000       14.0070           0
     54762 WT18     444      MECN     C1       CG331   -0.170000       12.0110           0
     54763 WT18     444      MECN     H11      HGA3     0.090000        1.0080           0
     54764 WT18     444      MECN     H12      HGA3     0.090000        1.0080           0
     54765 WT18     444      MECN     H13      HGA3     0.090000        1.0080           0
     54766 WT18     444      MECN     C2       CG1N1    0.360000       12.0110           0
     54767 WT18     444      MECN     N3       NG1T1   -0.460000       14.0070           0
     54768 WT18     447      MECN     C1       CG331   -0.170000       12.0110           0
     54769 WT18     447      MECN     H11      HGA3     0.090000        1.0080           0
     54770 WT18     447      MECN     H12      HGA3     0.090000        1.0080           0
     54771 WT18     447      MECN     H13      HGA3     0.090000        1.0080           0
     54772 WT18     447      MECN     C2       CG1N1    0.360000       12.0110           0
     54773 WT18     447      MECN     N3       NG1T1   -0.460000       14.0070           0
     54774 WT18     448      MECN     C1       CG331   -0.170000       12.0110           0
     54775 WT18     448      MECN     H11      HGA3     0.090000        1.0080           0
     54776 WT18     448      MECN     H12      HGA3     0.090000        1.0080           0
     54777 WT18     448      MECN     H13      HGA3     0.090000        1.0080           0
     54778 WT18     448      MECN     C2       CG1N1    0.360000       12.0110           0
     54779 WT18     448      MECN     N3       NG1T1   -0.460000       14.0070           0
     54780 WT18     449      MECN     C1       CG331   -0.170000       12.0110           0
     54781 WT18     449      MECN     H11      HGA3     0.090000        1.0080           0
     54782 WT18     449      MECN     H12      HGA3     0.090000        1.0080           0
     54783 WT18     449      MECN     H13      HGA3     0.090000        1.0080           0
     54784 WT18     449      MECN     C2       CG1N1    0.360000       12.0110           0
     54785 WT18     449      MECN     N3       NG1T1   -0.460000       14.0070           0
     54786 WT18     451      MECN     C1       CG331   -0.170000       12.0110           0
     54787 WT18     451      MECN     H11      HGA3     0.090000        1.0080           0
     54788 WT18     451      MECN     H12      HGA3     0.090000        1.0080           0
     54789 WT18     451      MECN     H13      HGA3     0.090000        1.0080           0
     54790 WT18     451      MECN     C2       CG1N1    0.360000       12.0110           0
     54791 WT18     451      MECN     N3       NG1T1   -0.460000       14.0070           0
     54792 WT18     452      MECN     C1       CG331   -0.170000       12.0110           0
     54793 WT18     452      MECN     H11      HGA3     0.090000        1.0080           0
     54794 WT18     452      MECN     H12      HGA3     0.090000        1.0080           0
     54795 WT18     452      MECN     H13      HGA3     0.090000        1.0080           0
     54796 WT18     452      MECN     C2       CG1N1    0.360000       12.0110           0
     54797 WT18     452      MECN     N3       NG1T1   -0.460000       14.0070           0
     54798 WT18     455      MECN     C1       CG331   -0.170000       12.0110           0
     54799 WT18     455      MECN     H11      HGA3     0.090000        1.0080           0
     54800 WT18     455      MECN     H12      HGA3     0.090000        1.0080           0
     54801 WT18     455      MECN     H13      HGA3     0.090000        1.0080           0
     54802 WT18     455      MECN     C2       CG1N1    0.360000       12.0110           0
     54803 WT18     455      MECN     N3       NG1T1   -0.460000       14.0070           0
     54804 WT18     456      MECN     C1       CG331   -0.170000       12.0110           0
     54805 WT18     456      MECN     H11      HGA3     0.090000        1.0080           0
     54806 WT18     456      MECN     H12      HGA3     0.090000        1.0080           0
     54807 WT18     456      MECN     H13      HGA3     0.090000        1.0080           0
     54808 WT18     456      MECN     C2       CG1N1    0.360000       12.0110           0
     54809 WT18     456      MECN     N3       NG1T1   -0.460000       14.0070           0
     54810 WT18     459      MECN     C1       CG331   -0.170000       12.0110           0
     54811 WT18     459      MECN     H11      HGA3     0.090000        1.0080           0
     54812 WT18     459      MECN     H12      HGA3     0.090000        1.0080           0
     54813 WT18     459      MECN     H13      HGA3     0.090000        1.0080           0
     54814 WT18     459      MECN     C2       CG1N1    0.360000       12.0110           0
     54815 WT18     459      MECN     N3       NG1T1   -0.460000       14.0070           0
     54816 WT18     460      MECN     C1       CG331   -0.170000       12.0110           0
     54817 WT18     460      MECN     H11      HGA3     0.090000        1.0080           0
     54818 WT18     460      MECN     H12      HGA3     0.090000        1.0080           0
     54819 WT18     460      MECN     H13      HGA3     0.090000        1.0080           0
     54820 WT18     460      MECN     C2       CG1N1    0.360000       12.0110           0
     54821 WT18     460      MECN     N3       NG1T1   -0.460000       14.0070           0
     54822 WT18     462      MECN     C1       CG331   -0.170000       12.0110           0
     54823 WT18     462      MECN     H11      HGA3     0.090000        1.0080           0
     54824 WT18     462      MECN     H12      HGA3     0.090000        1.0080           0
     54825 WT18     462      MECN     H13      HGA3     0.090000        1.0080           0
     54826 WT18     462      MECN     C2       CG1N1    0.360000       12.0110           0
     54827 WT18     462      MECN     N3       NG1T1   -0.460000       14.0070           0
     54828 WT18     464      MECN     C1       CG331   -0.170000       12.0110           0
     54829 WT18     464      MECN     H11      HGA3     0.090000        1.0080           0
     54830 WT18     464      MECN     H12      HGA3     0.090000        1.0080           0
     54831 WT18     464      MECN     H13      HGA3     0.090000        1.0080           0
     54832 WT18     464      MECN     C2       CG1N1    0.360000       12.0110           0
     54833 WT18     464      MECN     N3       NG1T1   -0.460000       14.0070           0
     54834 WT18     466      MECN     C1       CG331   -0.170000       12.0110           0
     54835 WT18     466      MECN     H11      HGA3     0.090000        1.0080           0
     54836 WT18     466      MECN     H12      HGA3     0.090000        1.0080           0
     54837 WT18     466      MECN     H13      HGA3     0.090000        1.0080           0
     54838 WT18     466      MECN     C2       CG1N1    0.360000       12.0110           0
     54839 WT18     466      MECN     N3       NG1T1   -0.460000       14.0070           0
     54840 WT18     472      MECN     C1       CG331   -0.170000       12.0110           0
     54841 WT18     472      MECN     H11      HGA3     0.090000        1.0080           0
     54842 WT18     472      MECN     H12      HGA3     0.090000        1.0080           0
     54843 WT18     472      MECN     H13      HGA3     0.090000        1.0080           0
     54844 WT18     472      MECN     C2       CG1N1    0.360000       12.0110           0
     54845 WT18     472      MECN     N3       NG1T1   -0.460000       14.0070           0
     54846 WT18     473      MECN     C1       CG331   -0.170000       12.0110           0
     54847 WT18     473      MECN     H11      HGA3     0.090000        1.0080           0
     54848 WT18     473      MECN     H12      HGA3     0.090000        1.0080           0
     54849 WT18     473      MECN     H13      HGA3     0.090000        1.0080           0
     54850 WT18     473      MECN     C2       CG1N1    0.360000       12.0110           0
     54851 WT18     473      MECN     N3       NG1T1   -0.460000       14.0070           0
     54852 WT18     476      MECN     C1       CG331   -0.170000       12.0110           0
     54853 WT18     476      MECN     H11      HGA3     0.090000        1.0080           0
     54854 WT18     476      MECN     H12      HGA3     0.090000        1.0080           0
     54855 WT18     476      MECN     H13      HGA3     0.090000        1.0080           0
     54856 WT18     476      MECN     C2       CG1N1    0.360000       12.0110           0
     54857 WT18     476      MECN     N3       NG1T1   -0.460000       14.0070           0
     54858 WT18     479      MECN     C1       CG331   -0.170000       12.0110           0
     54859 WT18     479      MECN     H11      HGA3     0.090000        1.0080           0
     54860 WT18     479      MECN     H12      HGA3     0.090000        1.0080           0
     54861 WT18     479      MECN     H13      HGA3     0.090000        1.0080           0
     54862 WT18     479      MECN     C2       CG1N1    0.360000       12.0110           0
     54863 WT18     479      MECN     N3       NG1T1   -0.460000       14.0070           0
     54864 WT18     480      MECN     C1       CG331   -0.170000       12.0110           0
     54865 WT18     480      MECN     H11      HGA3     0.090000        1.0080           0
     54866 WT18     480      MECN     H12      HGA3     0.090000        1.0080           0
     54867 WT18     480      MECN     H13      HGA3     0.090000        1.0080           0
     54868 WT18     480      MECN     C2       CG1N1    0.360000       12.0110           0
     54869 WT18     480      MECN     N3       NG1T1   -0.460000       14.0070           0
     54870 WT18     483      MECN     C1       CG331   -0.170000       12.0110           0
     54871 WT18     483      MECN     H11      HGA3     0.090000        1.0080           0
     54872 WT18     483      MECN     H12      HGA3     0.090000        1.0080           0
     54873 WT18     483      MECN     H13      HGA3     0.090000        1.0080           0
     54874 WT18     483      MECN     C2       CG1N1    0.360000       12.0110           0
     54875 WT18     483      MECN     N3       NG1T1   -0.460000       14.0070           0
     54876 WT18     484      MECN     C1       CG331   -0.170000       12.0110           0
     54877 WT18     484      MECN     H11      HGA3     0.090000        1.0080           0
     54878 WT18     484      MECN     H12      HGA3     0.090000        1.0080           0
     54879 WT18     484      MECN     H13      HGA3     0.090000        1.0080           0
     54880 WT18     484      MECN     C2       CG1N1    0.360000       12.0110           0
     54881 WT18     484      MECN     N3       NG1T1   -0.460000       14.0070           0
     54882 WT18     487      MECN     C1       CG331   -0.170000       12.0110           0
     54883 WT18     487      MECN     H11      HGA3     0.090000        1.0080           0
     54884 WT18     487      MECN     H12      HGA3     0.090000        1.0080           0
     54885 WT18     487      MECN     H13      HGA3     0.090000        1.0080           0
     54886 WT18     487      MECN     C2       CG1N1    0.360000       12.0110           0
     54887 WT18     487      MECN     N3       NG1T1   -0.460000       14.0070           0
     54888 WT18     491      MECN     C1       CG331   -0.170000       12.0110           0
     54889 WT18     491      MECN     H11      HGA3     0.090000        1.0080           0
     54890 WT18     491      MECN     H12      HGA3     0.090000        1.0080           0
     54891 WT18     491      MECN     H13      HGA3     0.090000        1.0080           0
     54892 WT18     491      MECN     C2       CG1N1    0.360000       12.0110           0
     54893 WT18     491      MECN     N3       NG1T1   -0.460000       14.0070           0
     54894 WT18     493      MECN     C1       CG331   -0.170000       12.0110           0
     54895 WT18     493      MECN     H11      HGA3     0.090000        1.0080           0
     54896 WT18     493      MECN     H12      HGA3     0.090000        1.0080           0
     54897 WT18     493      MECN     H13      HGA3     0.090000        1.0080           0
     54898 WT18     493      MECN     C2       CG1N1    0.360000       12.0110           0
     54899 WT18     493      MECN     N3       NG1T1   -0.460000       14.0070           0
     54900 WT18     497      MECN     C1       CG331   -0.170000       12.0110           0
     54901 WT18     497      MECN     H11      HGA3     0.090000        1.0080           0
     54902 WT18     497      MECN     H12      HGA3     0.090000        1.0080           0
     54903 WT18     497      MECN     H13      HGA3     0.090000        1.0080           0
     54904 WT18     497      MECN     C2       CG1N1    0.360000       12.0110           0
     54905 WT18     497      MECN     N3       NG1T1   -0.460000       14.0070           0
     54906 WT18     499      MECN     C1       CG331   -0.170000       12.0110           0
     54907 WT18     499      MECN     H11      HGA3     0.090000        1.0080           0
     54908 WT18     499      MECN     H12      HGA3     0.090000        1.0080           0
     54909 WT18     499      MECN     H13      HGA3     0.090000        1.0080           0
     54910 WT18     499      MECN     C2       CG1N1    0.360000       12.0110           0
     54911 WT18     499      MECN     N3       NG1T1   -0.460000       14.0070           0
     54912 WT18     500      MECN     C1       CG331   -0.170000       12.0110           0
     54913 WT18     500      MECN     H11      HGA3     0.090000        1.0080           0
     54914 WT18     500      MECN     H12      HGA3     0.090000        1.0080           0
     54915 WT18     500      MECN     H13      HGA3     0.090000        1.0080           0
     54916 WT18     500      MECN     C2       CG1N1    0.360000       12.0110           0
     54917 WT18     500      MECN     N3       NG1T1   -0.460000       14.0070           0
     54918 WT18     502      MECN     C1       CG331   -0.170000       12.0110           0
     54919 WT18     502      MECN     H11      HGA3     0.090000        1.0080           0
     54920 WT18     502      MECN     H12      HGA3     0.090000        1.0080           0
     54921 WT18     502      MECN     H13      HGA3     0.090000        1.0080           0
     54922 WT18     502      MECN     C2       CG1N1    0.360000       12.0110           0
     54923 WT18     502      MECN     N3       NG1T1   -0.460000       14.0070           0
     54924 WT18     503      MECN     C1       CG331   -0.170000       12.0110           0
     54925 WT18     503      MECN     H11      HGA3     0.090000        1.0080           0
     54926 WT18     503      MECN     H12      HGA3     0.090000        1.0080           0
     54927 WT18     503      MECN     H13      HGA3     0.090000        1.0080           0
     54928 WT18     503      MECN     C2       CG1N1    0.360000       12.0110           0
     54929 WT18     503      MECN     N3       NG1T1   -0.460000       14.0070           0
     54930 WT18     506      MECN     C1       CG331   -0.170000       12.0110           0
     54931 WT18     506      MECN     H11      HGA3     0.090000        1.0080           0
     54932 WT18     506      MECN     H12      HGA3     0.090000        1.0080           0
     54933 WT18     506      MECN     H13      HGA3     0.090000        1.0080           0
     54934 WT18     506      MECN     C2       CG1N1    0.360000       12.0110           0
     54935 WT18     506      MECN     N3       NG1T1   -0.460000       14.0070           0
     54936 WT18     507      MECN     C1       CG331   -0.170000       12.0110           0
     54937 WT18     507      MECN     H11      HGA3     0.090000        1.0080           0
     54938 WT18     507      MECN     H12      HGA3     0.090000        1.0080           0
     54939 WT18     507      MECN     H13      HGA3     0.090000        1.0080           0
     54940 WT18     507      MECN     C2       CG1N1    0.360000       12.0110           0
     54941 WT18     507      MECN     N3       NG1T1   -0.460000       14.0070           0
     54942 WT18     508      MECN     C1       CG331   -0.170000       12.0110           0
     54943 WT18     508      MECN     H11      HGA3     0.090000        1.0080           0
     54944 WT18     508      MECN     H12      HGA3     0.090000        1.0080           0
     54945 WT18     508      MECN     H13      HGA3     0.090000        1.0080           0
     54946 WT18     508      MECN     C2       CG1N1    0.360000       12.0110           0
     54947 WT18     508      MECN     N3       NG1T1   -0.460000       14.0070           0
     54948 WT18     511      MECN     C1       CG331   -0.170000       12.0110           0
     54949 WT18     511      MECN     H11      HGA3     0.090000        1.0080           0
     54950 WT18     511      MECN     H12      HGA3     0.090000        1.0080           0
     54951 WT18     511      MECN     H13      HGA3     0.090000        1.0080           0
     54952 WT18     511      MECN     C2       CG1N1    0.360000       12.0110           0
     54953 WT18     511      MECN     N3       NG1T1   -0.460000       14.0070           0
     54954 WT18     512      MECN     C1       CG331   -0.170000       12.0110           0
     54955 WT18     512      MECN     H11      HGA3     0.090000        1.0080           0
     54956 WT18     512      MECN     H12      HGA3     0.090000        1.0080           0
     54957 WT18     512      MECN     H13      HGA3     0.090000        1.0080           0
     54958 WT18     512      MECN     C2       CG1N1    0.360000       12.0110           0
     54959 WT18     512      MECN     N3       NG1T1   -0.460000       14.0070           0
     54960 WT18     513      MECN     C1       CG331   -0.170000       12.0110           0
     54961 WT18     513      MECN     H11      HGA3     0.090000        1.0080           0
     54962 WT18     513      MECN     H12      HGA3     0.090000        1.0080           0
     54963 WT18     513      MECN     H13      HGA3     0.090000        1.0080           0
     54964 WT18     513      MECN     C2       CG1N1    0.360000       12.0110           0
     54965 WT18     513      MECN     N3       NG1T1   -0.460000       14.0070           0
     54966 WT18     514      MECN     C1       CG331   -0.170000       12.0110           0
     54967 WT18     514      MECN     H11      HGA3     0.090000        1.0080           0
     54968 WT18     514      MECN     H12      HGA3     0.090000        1.0080           0
     54969 WT18     514      MECN     H13      HGA3     0.090000        1.0080           0
     54970 WT18     514      MECN     C2       CG1N1    0.360000       12.0110           0
     54971 WT18     514      MECN     N3       NG1T1   -0.460000       14.0070           0
     54972 WT18     515      MECN     C1       CG331   -0.170000       12.0110           0
     54973 WT18     515      MECN     H11      HGA3     0.090000        1.0080           0
     54974 WT18     515      MECN     H12      HGA3     0.090000        1.0080           0
     54975 WT18     515      MECN     H13      HGA3     0.090000        1.0080           0
     54976 WT18     515      MECN     C2       CG1N1    0.360000       12.0110           0
     54977 WT18     515      MECN     N3       NG1T1   -0.460000       14.0070           0
     54978 WT18     516      MECN     C1       CG331   -0.170000       12.0110           0
     54979 WT18     516      MECN     H11      HGA3     0.090000        1.0080           0
     54980 WT18     516      MECN     H12      HGA3     0.090000        1.0080           0
     54981 WT18     516      MECN     H13      HGA3     0.090000        1.0080           0
     54982 WT18     516      MECN     C2       CG1N1    0.360000       12.0110           0
     54983 WT18     516      MECN     N3       NG1T1   -0.460000       14.0070           0
     54984 WT18     518      MECN     C1       CG331   -0.170000       12.0110           0
     54985 WT18     518      MECN     H11      HGA3     0.090000        1.0080           0
     54986 WT18     518      MECN     H12      HGA3     0.090000        1.0080           0
     54987 WT18     518      MECN     H13      HGA3     0.090000        1.0080           0
     54988 WT18     518      MECN     C2       CG1N1    0.360000       12.0110           0
     54989 WT18     518      MECN     N3       NG1T1   -0.460000       14.0070           0
     54990 WT18     521      MECN     C1       CG331   -0.170000       12.0110           0
     54991 WT18     521      MECN     H11      HGA3     0.090000        1.0080           0
     54992 WT18     521      MECN     H12      HGA3     0.090000        1.0080           0
     54993 WT18     521      MECN     H13      HGA3     0.090000        1.0080           0
     54994 WT18     521      MECN     C2       CG1N1    0.360000       12.0110           0
     54995 WT18     521      MECN     N3       NG1T1   -0.460000       14.0070           0
     54996 WT18     524      MECN     C1       CG331   -0.170000       12.0110           0
     54997 WT18     524      MECN     H11      HGA3     0.090000        1.0080           0
     54998 WT18     524      MECN     H12      HGA3     0.090000        1.0080           0
     54999 WT18     524      MECN     H13      HGA3     0.090000        1.0080           0
     55000 WT18     524      MECN     C2       CG1N1    0.360000       12.0110           0
     55001 WT18     524      MECN     N3       NG1T1   -0.460000       14.0070           0
     55002 WT18     526      MECN     C1       CG331   -0.170000       12.0110           0
     55003 WT18     526      MECN     H11      HGA3     0.090000        1.0080           0
     55004 WT18     526      MECN     H12      HGA3     0.090000        1.0080           0
     55005 WT18     526      MECN     H13      HGA3     0.090000        1.0080           0
     55006 WT18     526      MECN     C2       CG1N1    0.360000       12.0110           0
     55007 WT18     526      MECN     N3       NG1T1   -0.460000       14.0070           0
     55008 WT18     529      MECN     C1       CG331   -0.170000       12.0110           0
     55009 WT18     529      MECN     H11      HGA3     0.090000        1.0080           0
     55010 WT18     529      MECN     H12      HGA3     0.090000        1.0080           0
     55011 WT18     529      MECN     H13      HGA3     0.090000        1.0080           0
     55012 WT18     529      MECN     C2       CG1N1    0.360000       12.0110           0
     55013 WT18     529      MECN     N3       NG1T1   -0.460000       14.0070           0
     55014 WT18     533      MECN     C1       CG331   -0.170000       12.0110           0
     55015 WT18     533      MECN     H11      HGA3     0.090000        1.0080           0
     55016 WT18     533      MECN     H12      HGA3     0.090000        1.0080           0
     55017 WT18     533      MECN     H13      HGA3     0.090000        1.0080           0
     55018 WT18     533      MECN     C2       CG1N1    0.360000       12.0110           0
     55019 WT18     533      MECN     N3       NG1T1   -0.460000       14.0070           0
     55020 WT18     534      MECN     C1       CG331   -0.170000       12.0110           0
     55021 WT18     534      MECN     H11      HGA3     0.090000        1.0080           0
     55022 WT18     534      MECN     H12      HGA3     0.090000        1.0080           0
     55023 WT18     534      MECN     H13      HGA3     0.090000        1.0080           0
     55024 WT18     534      MECN     C2       CG1N1    0.360000       12.0110           0
     55025 WT18     534      MECN     N3       NG1T1   -0.460000       14.0070           0
     55026 WT18     536      MECN     C1       CG331   -0.170000       12.0110           0
     55027 WT18     536      MECN     H11      HGA3     0.090000        1.0080           0
     55028 WT18     536      MECN     H12      HGA3     0.090000        1.0080           0
     55029 WT18     536      MECN     H13      HGA3     0.090000        1.0080           0
     55030 WT18     536      MECN     C2       CG1N1    0.360000       12.0110           0
     55031 WT18     536      MECN     N3       NG1T1   -0.460000       14.0070           0
     55032 WT18     538      MECN     C1       CG331   -0.170000       12.0110           0
     55033 WT18     538      MECN     H11      HGA3     0.090000        1.0080           0
     55034 WT18     538      MECN     H12      HGA3     0.090000        1.0080           0
     55035 WT18     538      MECN     H13      HGA3     0.090000        1.0080           0
     55036 WT18     538      MECN     C2       CG1N1    0.360000       12.0110           0
     55037 WT18     538      MECN     N3       NG1T1   -0.460000       14.0070           0
     55038 WT18     539      MECN     C1       CG331   -0.170000       12.0110           0
     55039 WT18     539      MECN     H11      HGA3     0.090000        1.0080           0
     55040 WT18     539      MECN     H12      HGA3     0.090000        1.0080           0
     55041 WT18     539      MECN     H13      HGA3     0.090000        1.0080           0
     55042 WT18     539      MECN     C2       CG1N1    0.360000       12.0110           0
     55043 WT18     539      MECN     N3       NG1T1   -0.460000       14.0070           0
     55044 WT18     540      MECN     C1       CG331   -0.170000       12.0110           0
     55045 WT18     540      MECN     H11      HGA3     0.090000        1.0080           0
     55046 WT18     540      MECN     H12      HGA3     0.090000        1.0080           0
     55047 WT18     540      MECN     H13      HGA3     0.090000        1.0080           0
     55048 WT18     540      MECN     C2       CG1N1    0.360000       12.0110           0
     55049 WT18     540      MECN     N3       NG1T1   -0.460000       14.0070           0
     55050 WT18     541      MECN     C1       CG331   -0.170000       12.0110           0
     55051 WT18     541      MECN     H11      HGA3     0.090000        1.0080           0
     55052 WT18     541      MECN     H12      HGA3     0.090000        1.0080           0
     55053 WT18     541      MECN     H13      HGA3     0.090000        1.0080           0
     55054 WT18     541      MECN     C2       CG1N1    0.360000       12.0110           0
     55055 WT18     541      MECN     N3       NG1T1   -0.460000       14.0070           0
     55056 WT18     542      MECN     C1       CG331   -0.170000       12.0110           0
     55057 WT18     542      MECN     H11      HGA3     0.090000        1.0080           0
     55058 WT18     542      MECN     H12      HGA3     0.090000        1.0080           0
     55059 WT18     542      MECN     H13      HGA3     0.090000        1.0080           0
     55060 WT18     542      MECN     C2       CG1N1    0.360000       12.0110           0
     55061 WT18     542      MECN     N3       NG1T1   -0.460000       14.0070           0
     55062 WT18     545      MECN     C1       CG331   -0.170000       12.0110           0
     55063 WT18     545      MECN     H11      HGA3     0.090000        1.0080           0
     55064 WT18     545      MECN     H12      HGA3     0.090000        1.0080           0
     55065 WT18     545      MECN     H13      HGA3     0.090000        1.0080           0
     55066 WT18     545      MECN     C2       CG1N1    0.360000       12.0110           0
     55067 WT18     545      MECN     N3       NG1T1   -0.460000       14.0070           0
     55068 WT18     546      MECN     C1       CG331   -0.170000       12.0110           0
     55069 WT18     546      MECN     H11      HGA3     0.090000        1.0080           0
     55070 WT18     546      MECN     H12      HGA3     0.090000        1.0080           0
     55071 WT18     546      MECN     H13      HGA3     0.090000        1.0080           0
     55072 WT18     546      MECN     C2       CG1N1    0.360000       12.0110           0
     55073 WT18     546      MECN     N3       NG1T1   -0.460000       14.0070           0
     55074 WT18     548      MECN     C1       CG331   -0.170000       12.0110           0
     55075 WT18     548      MECN     H11      HGA3     0.090000        1.0080           0
     55076 WT18     548      MECN     H12      HGA3     0.090000        1.0080           0
     55077 WT18     548      MECN     H13      HGA3     0.090000        1.0080           0
     55078 WT18     548      MECN     C2       CG1N1    0.360000       12.0110           0
     55079 WT18     548      MECN     N3       NG1T1   -0.460000       14.0070           0
     55080 WT18     549      MECN     C1       CG331   -0.170000       12.0110           0
     55081 WT18     549      MECN     H11      HGA3     0.090000        1.0080           0
     55082 WT18     549      MECN     H12      HGA3     0.090000        1.0080           0
     55083 WT18     549      MECN     H13      HGA3     0.090000        1.0080           0
     55084 WT18     549      MECN     C2       CG1N1    0.360000       12.0110           0
     55085 WT18     549      MECN     N3       NG1T1   -0.460000       14.0070           0
     55086 WT18     550      MECN     C1       CG331   -0.170000       12.0110           0
     55087 WT18     550      MECN     H11      HGA3     0.090000        1.0080           0
     55088 WT18     550      MECN     H12      HGA3     0.090000        1.0080           0
     55089 WT18     550      MECN     H13      HGA3     0.090000        1.0080           0
     55090 WT18     550      MECN     C2       CG1N1    0.360000       12.0110           0
     55091 WT18     550      MECN     N3       NG1T1   -0.460000       14.0070           0
     55092 WT18     551      MECN     C1       CG331   -0.170000       12.0110           0
     55093 WT18     551      MECN     H11      HGA3     0.090000        1.0080           0
     55094 WT18     551      MECN     H12      HGA3     0.090000        1.0080           0
     55095 WT18     551      MECN     H13      HGA3     0.090000        1.0080           0
     55096 WT18     551      MECN     C2       CG1N1    0.360000       12.0110           0
     55097 WT18     551      MECN     N3       NG1T1   -0.460000       14.0070           0
     55098 WT18     552      MECN     C1       CG331   -0.170000       12.0110           0
     55099 WT18     552      MECN     H11      HGA3     0.090000        1.0080           0
     55100 WT18     552      MECN     H12      HGA3     0.090000        1.0080           0
     55101 WT18     552      MECN     H13      HGA3     0.090000        1.0080           0
     55102 WT18     552      MECN     C2       CG1N1    0.360000       12.0110           0
     55103 WT18     552      MECN     N3       NG1T1   -0.460000       14.0070           0
     55104 WT18     559      MECN     C1       CG331   -0.170000       12.0110           0
     55105 WT18     559      MECN     H11      HGA3     0.090000        1.0080           0
     55106 WT18     559      MECN     H12      HGA3     0.090000        1.0080           0
     55107 WT18     559      MECN     H13      HGA3     0.090000        1.0080           0
     55108 WT18     559      MECN     C2       CG1N1    0.360000       12.0110           0
     55109 WT18     559      MECN     N3       NG1T1   -0.460000       14.0070           0
     55110 WT18     561      MECN     C1       CG331   -0.170000       12.0110           0
     55111 WT18     561      MECN     H11      HGA3     0.090000        1.0080           0
     55112 WT18     561      MECN     H12      HGA3     0.090000        1.0080           0
     55113 WT18     561      MECN     H13      HGA3     0.090000        1.0080           0
     55114 WT18     561      MECN     C2       CG1N1    0.360000       12.0110           0
     55115 WT18     561      MECN     N3       NG1T1   -0.460000       14.0070           0
     55116 WT18     562      MECN     C1       CG331   -0.170000       12.0110           0
     55117 WT18     562      MECN     H11      HGA3     0.090000        1.0080           0
     55118 WT18     562      MECN     H12      HGA3     0.090000        1.0080           0
     55119 WT18     562      MECN     H13      HGA3     0.090000        1.0080           0
     55120 WT18     562      MECN     C2       CG1N1    0.360000       12.0110           0
     55121 WT18     562      MECN     N3       NG1T1   -0.460000       14.0070           0
     55122 WT18     563      MECN     C1       CG331   -0.170000       12.0110           0
     55123 WT18     563      MECN     H11      HGA3     0.090000        1.0080           0
     55124 WT18     563      MECN     H12      HGA3     0.090000        1.0080           0
     55125 WT18     563      MECN     H13      HGA3     0.090000        1.0080           0
     55126 WT18     563      MECN     C2       CG1N1    0.360000       12.0110           0
     55127 WT18     563      MECN     N3       NG1T1   -0.460000       14.0070           0
     55128 WT18     565      MECN     C1       CG331   -0.170000       12.0110           0
     55129 WT18     565      MECN     H11      HGA3     0.090000        1.0080           0
     55130 WT18     565      MECN     H12      HGA3     0.090000        1.0080           0
     55131 WT18     565      MECN     H13      HGA3     0.090000        1.0080           0
     55132 WT18     565      MECN     C2       CG1N1    0.360000       12.0110           0
     55133 WT18     565      MECN     N3       NG1T1   -0.460000       14.0070           0
     55134 WT18     567      MECN     C1       CG331   -0.170000       12.0110           0
     55135 WT18     567      MECN     H11      HGA3     0.090000        1.0080           0
     55136 WT18     567      MECN     H12      HGA3     0.090000        1.0080           0
     55137 WT18     567      MECN     H13      HGA3     0.090000        1.0080           0
     55138 WT18     567      MECN     C2       CG1N1    0.360000       12.0110           0
     55139 WT18     567      MECN     N3       NG1T1   -0.460000       14.0070           0
     55140 WT18     568      MECN     C1       CG331   -0.170000       12.0110           0
     55141 WT18     568      MECN     H11      HGA3     0.090000        1.0080           0
     55142 WT18     568      MECN     H12      HGA3     0.090000        1.0080           0
     55143 WT18     568      MECN     H13      HGA3     0.090000        1.0080           0
     55144 WT18     568      MECN     C2       CG1N1    0.360000       12.0110           0
     55145 WT18     568      MECN     N3       NG1T1   -0.460000       14.0070           0
     55146 WT18     569      MECN     C1       CG331   -0.170000       12.0110           0
     55147 WT18     569      MECN     H11      HGA3     0.090000        1.0080           0
     55148 WT18     569      MECN     H12      HGA3     0.090000        1.0080           0
     55149 WT18     569      MECN     H13      HGA3     0.090000        1.0080           0
     55150 WT18     569      MECN     C2       CG1N1    0.360000       12.0110           0
     55151 WT18     569      MECN     N3       NG1T1   -0.460000       14.0070           0
     55152 WT18     572      MECN     C1       CG331   -0.170000       12.0110           0
     55153 WT18     572      MECN     H11      HGA3     0.090000        1.0080           0
     55154 WT18     572      MECN     H12      HGA3     0.090000        1.0080           0
     55155 WT18     572      MECN     H13      HGA3     0.090000        1.0080           0
     55156 WT18     572      MECN     C2       CG1N1    0.360000       12.0110           0
     55157 WT18     572      MECN     N3       NG1T1   -0.460000       14.0070           0
     55158 WT18     574      MECN     C1       CG331   -0.170000       12.0110           0
     55159 WT18     574      MECN     H11      HGA3     0.090000        1.0080           0
     55160 WT18     574      MECN     H12      HGA3     0.090000        1.0080           0
     55161 WT18     574      MECN     H13      HGA3     0.090000        1.0080           0
     55162 WT18     574      MECN     C2       CG1N1    0.360000       12.0110           0
     55163 WT18     574      MECN     N3       NG1T1   -0.460000       14.0070           0
     55164 WT18     575      MECN     C1       CG331   -0.170000       12.0110           0
     55165 WT18     575      MECN     H11      HGA3     0.090000        1.0080           0
     55166 WT18     575      MECN     H12      HGA3     0.090000        1.0080           0
     55167 WT18     575      MECN     H13      HGA3     0.090000        1.0080           0
     55168 WT18     575      MECN     C2       CG1N1    0.360000       12.0110           0
     55169 WT18     575      MECN     N3       NG1T1   -0.460000       14.0070           0
     55170 WT18     576      MECN     C1       CG331   -0.170000       12.0110           0
     55171 WT18     576      MECN     H11      HGA3     0.090000        1.0080           0
     55172 WT18     576      MECN     H12      HGA3     0.090000        1.0080           0
     55173 WT18     576      MECN     H13      HGA3     0.090000        1.0080           0
     55174 WT18     576      MECN     C2       CG1N1    0.360000       12.0110           0
     55175 WT18     576      MECN     N3       NG1T1   -0.460000       14.0070           0
     55176 WT18     577      MECN     C1       CG331   -0.170000       12.0110           0
     55177 WT18     577      MECN     H11      HGA3     0.090000        1.0080           0
     55178 WT18     577      MECN     H12      HGA3     0.090000        1.0080           0
     55179 WT18     577      MECN     H13      HGA3     0.090000        1.0080           0
     55180 WT18     577      MECN     C2       CG1N1    0.360000       12.0110           0
     55181 WT18     577      MECN     N3       NG1T1   -0.460000       14.0070           0
     55182 WT18     581      MECN     C1       CG331   -0.170000       12.0110           0
     55183 WT18     581      MECN     H11      HGA3     0.090000        1.0080           0
     55184 WT18     581      MECN     H12      HGA3     0.090000        1.0080           0
     55185 WT18     581      MECN     H13      HGA3     0.090000        1.0080           0
     55186 WT18     581      MECN     C2       CG1N1    0.360000       12.0110           0
     55187 WT18     581      MECN     N3       NG1T1   -0.460000       14.0070           0
     55188 WT18     582      MECN     C1       CG331   -0.170000       12.0110           0
     55189 WT18     582      MECN     H11      HGA3     0.090000        1.0080           0
     55190 WT18     582      MECN     H12      HGA3     0.090000        1.0080           0
     55191 WT18     582      MECN     H13      HGA3     0.090000        1.0080           0
     55192 WT18     582      MECN     C2       CG1N1    0.360000       12.0110           0
     55193 WT18     582      MECN     N3       NG1T1   -0.460000       14.0070           0
     55194 WT18     584      MECN     C1       CG331   -0.170000       12.0110           0
     55195 WT18     584      MECN     H11      HGA3     0.090000        1.0080           0
     55196 WT18     584      MECN     H12      HGA3     0.090000        1.0080           0
     55197 WT18     584      MECN     H13      HGA3     0.090000        1.0080           0
     55198 WT18     584      MECN     C2       CG1N1    0.360000       12.0110           0
     55199 WT18     584      MECN     N3       NG1T1   -0.460000       14.0070           0
     55200 WT18     585      MECN     C1       CG331   -0.170000       12.0110           0
     55201 WT18     585      MECN     H11      HGA3     0.090000        1.0080           0
     55202 WT18     585      MECN     H12      HGA3     0.090000        1.0080           0
     55203 WT18     585      MECN     H13      HGA3     0.090000        1.0080           0
     55204 WT18     585      MECN     C2       CG1N1    0.360000       12.0110           0
     55205 WT18     585      MECN     N3       NG1T1   -0.460000       14.0070           0
     55206 WT18     591      MECN     C1       CG331   -0.170000       12.0110           0
     55207 WT18     591      MECN     H11      HGA3     0.090000        1.0080           0
     55208 WT18     591      MECN     H12      HGA3     0.090000        1.0080           0
     55209 WT18     591      MECN     H13      HGA3     0.090000        1.0080           0
     55210 WT18     591      MECN     C2       CG1N1    0.360000       12.0110           0
     55211 WT18     591      MECN     N3       NG1T1   -0.460000       14.0070           0
     55212 WT18     592      MECN     C1       CG331   -0.170000       12.0110           0
     55213 WT18     592      MECN     H11      HGA3     0.090000        1.0080           0
     55214 WT18     592      MECN     H12      HGA3     0.090000        1.0080           0
     55215 WT18     592      MECN     H13      HGA3     0.090000        1.0080           0
     55216 WT18     592      MECN     C2       CG1N1    0.360000       12.0110           0
     55217 WT18     592      MECN     N3       NG1T1   -0.460000       14.0070           0
     55218 WT18     593      MECN     C1       CG331   -0.170000       12.0110           0
     55219 WT18     593      MECN     H11      HGA3     0.090000        1.0080           0
     55220 WT18     593      MECN     H12      HGA3     0.090000        1.0080           0
     55221 WT18     593      MECN     H13      HGA3     0.090000        1.0080           0
     55222 WT18     593      MECN     C2       CG1N1    0.360000       12.0110           0
     55223 WT18     593      MECN     N3       NG1T1   -0.460000       14.0070           0
     55224 WT18     594      MECN     C1       CG331   -0.170000       12.0110           0
     55225 WT18     594      MECN     H11      HGA3     0.090000        1.0080           0
     55226 WT18     594      MECN     H12      HGA3     0.090000        1.0080           0
     55227 WT18     594      MECN     H13      HGA3     0.090000        1.0080           0
     55228 WT18     594      MECN     C2       CG1N1    0.360000       12.0110           0
     55229 WT18     594      MECN     N3       NG1T1   -0.460000       14.0070           0
     55230 WT18     595      MECN     C1       CG331   -0.170000       12.0110           0
     55231 WT18     595      MECN     H11      HGA3     0.090000        1.0080           0
     55232 WT18     595      MECN     H12      HGA3     0.090000        1.0080           0
     55233 WT18     595      MECN     H13      HGA3     0.090000        1.0080           0
     55234 WT18     595      MECN     C2       CG1N1    0.360000       12.0110           0
     55235 WT18     595      MECN     N3       NG1T1   -0.460000       14.0070           0
     55236 WT18     596      MECN     C1       CG331   -0.170000       12.0110           0
     55237 WT18     596      MECN     H11      HGA3     0.090000        1.0080           0
     55238 WT18     596      MECN     H12      HGA3     0.090000        1.0080           0
     55239 WT18     596      MECN     H13      HGA3     0.090000        1.0080           0
     55240 WT18     596      MECN     C2       CG1N1    0.360000       12.0110           0
     55241 WT18     596      MECN     N3       NG1T1   -0.460000       14.0070           0
     55242 WT18     597      MECN     C1       CG331   -0.170000       12.0110           0
     55243 WT18     597      MECN     H11      HGA3     0.090000        1.0080           0
     55244 WT18     597      MECN     H12      HGA3     0.090000        1.0080           0
     55245 WT18     597      MECN     H13      HGA3     0.090000        1.0080           0
     55246 WT18     597      MECN     C2       CG1N1    0.360000       12.0110           0
     55247 WT18     597      MECN     N3       NG1T1   -0.460000       14.0070           0
     55248 WT18     600      MECN     C1       CG331   -0.170000       12.0110           0
     55249 WT18     600      MECN     H11      HGA3     0.090000        1.0080           0
     55250 WT18     600      MECN     H12      HGA3     0.090000        1.0080           0
     55251 WT18     600      MECN     H13      HGA3     0.090000        1.0080           0
     55252 WT18     600      MECN     C2       CG1N1    0.360000       12.0110           0
     55253 WT18     600      MECN     N3       NG1T1   -0.460000       14.0070           0
     55254 WT18     602      MECN     C1       CG331   -0.170000       12.0110           0
     55255 WT18     602      MECN     H11      HGA3     0.090000        1.0080           0
     55256 WT18     602      MECN     H12      HGA3     0.090000        1.0080           0
     55257 WT18     602      MECN     H13      HGA3     0.090000        1.0080           0
     55258 WT18     602      MECN     C2       CG1N1    0.360000       12.0110           0
     55259 WT18     602      MECN     N3       NG1T1   -0.460000       14.0070           0
     55260 WT18     603      MECN     C1       CG331   -0.170000       12.0110           0
     55261 WT18     603      MECN     H11      HGA3     0.090000        1.0080           0
     55262 WT18     603      MECN     H12      HGA3     0.090000        1.0080           0
     55263 WT18     603      MECN     H13      HGA3     0.090000        1.0080           0
     55264 WT18     603      MECN     C2       CG1N1    0.360000       12.0110           0
     55265 WT18     603      MECN     N3       NG1T1   -0.460000       14.0070           0
     55266 WT18     604      MECN     C1       CG331   -0.170000       12.0110           0
     55267 WT18     604      MECN     H11      HGA3     0.090000        1.0080           0
     55268 WT18     604      MECN     H12      HGA3     0.090000        1.0080           0
     55269 WT18     604      MECN     H13      HGA3     0.090000        1.0080           0
     55270 WT18     604      MECN     C2       CG1N1    0.360000       12.0110           0
     55271 WT18     604      MECN     N3       NG1T1   -0.460000       14.0070           0
     55272 WT18     605      MECN     C1       CG331   -0.170000       12.0110           0
     55273 WT18     605      MECN     H11      HGA3     0.090000        1.0080           0
     55274 WT18     605      MECN     H12      HGA3     0.090000        1.0080           0
     55275 WT18     605      MECN     H13      HGA3     0.090000        1.0080           0
     55276 WT18     605      MECN     C2       CG1N1    0.360000       12.0110           0
     55277 WT18     605      MECN     N3       NG1T1   -0.460000       14.0070           0
     55278 WT18     606      MECN     C1       CG331   -0.170000       12.0110           0
     55279 WT18     606      MECN     H11      HGA3     0.090000        1.0080           0
     55280 WT18     606      MECN     H12      HGA3     0.090000        1.0080           0
     55281 WT18     606      MECN     H13      HGA3     0.090000        1.0080           0
     55282 WT18     606      MECN     C2       CG1N1    0.360000       12.0110           0
     55283 WT18     606      MECN     N3       NG1T1   -0.460000       14.0070           0
     55284 WT18     607      MECN     C1       CG331   -0.170000       12.0110           0
     55285 WT18     607      MECN     H11      HGA3     0.090000        1.0080           0
     55286 WT18     607      MECN     H12      HGA3     0.090000        1.0080           0
     55287 WT18     607      MECN     H13      HGA3     0.090000        1.0080           0
     55288 WT18     607      MECN     C2       CG1N1    0.360000       12.0110           0
     55289 WT18     607      MECN     N3       NG1T1   -0.460000       14.0070           0
     55290 WT18     609      MECN     C1       CG331   -0.170000       12.0110           0
     55291 WT18     609      MECN     H11      HGA3     0.090000        1.0080           0
     55292 WT18     609      MECN     H12      HGA3     0.090000        1.0080           0
     55293 WT18     609      MECN     H13      HGA3     0.090000        1.0080           0
     55294 WT18     609      MECN     C2       CG1N1    0.360000       12.0110           0
     55295 WT18     609      MECN     N3       NG1T1   -0.460000       14.0070           0
     55296 WT18     610      MECN     C1       CG331   -0.170000       12.0110           0
     55297 WT18     610      MECN     H11      HGA3     0.090000        1.0080           0
     55298 WT18     610      MECN     H12      HGA3     0.090000        1.0080           0
     55299 WT18     610      MECN     H13      HGA3     0.090000        1.0080           0
     55300 WT18     610      MECN     C2       CG1N1    0.360000       12.0110           0
     55301 WT18     610      MECN     N3       NG1T1   -0.460000       14.0070           0
     55302 WT18     614      MECN     C1       CG331   -0.170000       12.0110           0
     55303 WT18     614      MECN     H11      HGA3     0.090000        1.0080           0
     55304 WT18     614      MECN     H12      HGA3     0.090000        1.0080           0
     55305 WT18     614      MECN     H13      HGA3     0.090000        1.0080           0
     55306 WT18     614      MECN     C2       CG1N1    0.360000       12.0110           0
     55307 WT18     614      MECN     N3       NG1T1   -0.460000       14.0070           0
     55308 WT18     616      MECN     C1       CG331   -0.170000       12.0110           0
     55309 WT18     616      MECN     H11      HGA3     0.090000        1.0080           0
     55310 WT18     616      MECN     H12      HGA3     0.090000        1.0080           0
     55311 WT18     616      MECN     H13      HGA3     0.090000        1.0080           0
     55312 WT18     616      MECN     C2       CG1N1    0.360000       12.0110           0
     55313 WT18     616      MECN     N3       NG1T1   -0.460000       14.0070           0
     55314 WT18     619      MECN     C1       CG331   -0.170000       12.0110           0
     55315 WT18     619      MECN     H11      HGA3     0.090000        1.0080           0
     55316 WT18     619      MECN     H12      HGA3     0.090000        1.0080           0
     55317 WT18     619      MECN     H13      HGA3     0.090000        1.0080           0
     55318 WT18     619      MECN     C2       CG1N1    0.360000       12.0110           0
     55319 WT18     619      MECN     N3       NG1T1   -0.460000       14.0070           0
     55320 WT18     621      MECN     C1       CG331   -0.170000       12.0110           0
     55321 WT18     621      MECN     H11      HGA3     0.090000        1.0080           0
     55322 WT18     621      MECN     H12      HGA3     0.090000        1.0080           0
     55323 WT18     621      MECN     H13      HGA3     0.090000        1.0080           0
     55324 WT18     621      MECN     C2       CG1N1    0.360000       12.0110           0
     55325 WT18     621      MECN     N3       NG1T1   -0.460000       14.0070           0
     55326 WT18     623      MECN     C1       CG331   -0.170000       12.0110           0
     55327 WT18     623      MECN     H11      HGA3     0.090000        1.0080           0
     55328 WT18     623      MECN     H12      HGA3     0.090000        1.0080           0
     55329 WT18     623      MECN     H13      HGA3     0.090000        1.0080           0
     55330 WT18     623      MECN     C2       CG1N1    0.360000       12.0110           0
     55331 WT18     623      MECN     N3       NG1T1   -0.460000       14.0070           0
     55332 WT18     624      MECN     C1       CG331   -0.170000       12.0110           0
     55333 WT18     624      MECN     H11      HGA3     0.090000        1.0080           0
     55334 WT18     624      MECN     H12      HGA3     0.090000        1.0080           0
     55335 WT18     624      MECN     H13      HGA3     0.090000        1.0080           0
     55336 WT18     624      MECN     C2       CG1N1    0.360000       12.0110           0
     55337 WT18     624      MECN     N3       NG1T1   -0.460000       14.0070           0
     55338 WT18     626      MECN     C1       CG331   -0.170000       12.0110           0
     55339 WT18     626      MECN     H11      HGA3     0.090000        1.0080           0
     55340 WT18     626      MECN     H12      HGA3     0.090000        1.0080           0
     55341 WT18     626      MECN     H13      HGA3     0.090000        1.0080           0
     55342 WT18     626      MECN     C2       CG1N1    0.360000       12.0110           0
     55343 WT18     626      MECN     N3       NG1T1   -0.460000       14.0070           0
     55344 WT18     628      MECN     C1       CG331   -0.170000       12.0110           0
     55345 WT18     628      MECN     H11      HGA3     0.090000        1.0080           0
     55346 WT18     628      MECN     H12      HGA3     0.090000        1.0080           0
     55347 WT18     628      MECN     H13      HGA3     0.090000        1.0080           0
     55348 WT18     628      MECN     C2       CG1N1    0.360000       12.0110           0
     55349 WT18     628      MECN     N3       NG1T1   -0.460000       14.0070           0
     55350 WT18     629      MECN     C1       CG331   -0.170000       12.0110           0
     55351 WT18     629      MECN     H11      HGA3     0.090000        1.0080           0
     55352 WT18     629      MECN     H12      HGA3     0.090000        1.0080           0
     55353 WT18     629      MECN     H13      HGA3     0.090000        1.0080           0
     55354 WT18     629      MECN     C2       CG1N1    0.360000       12.0110           0
     55355 WT18     629      MECN     N3       NG1T1   -0.460000       14.0070           0
     55356 WT18     630      MECN     C1       CG331   -0.170000       12.0110           0
     55357 WT18     630      MECN     H11      HGA3     0.090000        1.0080           0
     55358 WT18     630      MECN     H12      HGA3     0.090000        1.0080           0
     55359 WT18     630      MECN     H13      HGA3     0.090000        1.0080           0
     55360 WT18     630      MECN     C2       CG1N1    0.360000       12.0110           0
     55361 WT18     630      MECN     N3       NG1T1   -0.460000       14.0070           0
     55362 WT18     631      MECN     C1       CG331   -0.170000       12.0110           0
     55363 WT18     631      MECN     H11      HGA3     0.090000        1.0080           0
     55364 WT18     631      MECN     H12      HGA3     0.090000        1.0080           0
     55365 WT18     631      MECN     H13      HGA3     0.090000        1.0080           0
     55366 WT18     631      MECN     C2       CG1N1    0.360000       12.0110           0
     55367 WT18     631      MECN     N3       NG1T1   -0.460000       14.0070           0
     55368 WT18     634      MECN     C1       CG331   -0.170000       12.0110           0
     55369 WT18     634      MECN     H11      HGA3     0.090000        1.0080           0
     55370 WT18     634      MECN     H12      HGA3     0.090000        1.0080           0
     55371 WT18     634      MECN     H13      HGA3     0.090000        1.0080           0
     55372 WT18     634      MECN     C2       CG1N1    0.360000       12.0110           0
     55373 WT18     634      MECN     N3       NG1T1   -0.460000       14.0070           0
     55374 WT18     635      MECN     C1       CG331   -0.170000       12.0110           0
     55375 WT18     635      MECN     H11      HGA3     0.090000        1.0080           0
     55376 WT18     635      MECN     H12      HGA3     0.090000        1.0080           0
     55377 WT18     635      MECN     H13      HGA3     0.090000        1.0080           0
     55378 WT18     635      MECN     C2       CG1N1    0.360000       12.0110           0
     55379 WT18     635      MECN     N3       NG1T1   -0.460000       14.0070           0
     55380 WT18     638      MECN     C1       CG331   -0.170000       12.0110           0
     55381 WT18     638      MECN     H11      HGA3     0.090000        1.0080           0
     55382 WT18     638      MECN     H12      HGA3     0.090000        1.0080           0
     55383 WT18     638      MECN     H13      HGA3     0.090000        1.0080           0
     55384 WT18     638      MECN     C2       CG1N1    0.360000       12.0110           0
     55385 WT18     638      MECN     N3       NG1T1   -0.460000       14.0070           0
     55386 WT18     643      MECN     C1       CG331   -0.170000       12.0110           0
     55387 WT18     643      MECN     H11      HGA3     0.090000        1.0080           0
     55388 WT18     643      MECN     H12      HGA3     0.090000        1.0080           0
     55389 WT18     643      MECN     H13      HGA3     0.090000        1.0080           0
     55390 WT18     643      MECN     C2       CG1N1    0.360000       12.0110           0
     55391 WT18     643      MECN     N3       NG1T1   -0.460000       14.0070           0
     55392 WT18     653      MECN     C1       CG331   -0.170000       12.0110           0
     55393 WT18     653      MECN     H11      HGA3     0.090000        1.0080           0
     55394 WT18     653      MECN     H12      HGA3     0.090000        1.0080           0
     55395 WT18     653      MECN     H13      HGA3     0.090000        1.0080           0
     55396 WT18     653      MECN     C2       CG1N1    0.360000       12.0110           0
     55397 WT18     653      MECN     N3       NG1T1   -0.460000       14.0070           0
     55398 WT18     654      MECN     C1       CG331   -0.170000       12.0110           0
     55399 WT18     654      MECN     H11      HGA3     0.090000        1.0080           0
     55400 WT18     654      MECN     H12      HGA3     0.090000        1.0080           0
     55401 WT18     654      MECN     H13      HGA3     0.090000        1.0080           0
     55402 WT18     654      MECN     C2       CG1N1    0.360000       12.0110           0
     55403 WT18     654      MECN     N3       NG1T1   -0.460000       14.0070           0
     55404 WT18     660      MECN     C1       CG331   -0.170000       12.0110           0
     55405 WT18     660      MECN     H11      HGA3     0.090000        1.0080           0
     55406 WT18     660      MECN     H12      HGA3     0.090000        1.0080           0
     55407 WT18     660      MECN     H13      HGA3     0.090000        1.0080           0
     55408 WT18     660      MECN     C2       CG1N1    0.360000       12.0110           0
     55409 WT18     660      MECN     N3       NG1T1   -0.460000       14.0070           0
     55410 WT18     662      MECN     C1       CG331   -0.170000       12.0110           0
     55411 WT18     662      MECN     H11      HGA3     0.090000        1.0080           0
     55412 WT18     662      MECN     H12      HGA3     0.090000        1.0080           0
     55413 WT18     662      MECN     H13      HGA3     0.090000        1.0080           0
     55414 WT18     662      MECN     C2       CG1N1    0.360000       12.0110           0
     55415 WT18     662      MECN     N3       NG1T1   -0.460000       14.0070           0
     55416 WT18     665      MECN     C1       CG331   -0.170000       12.0110           0
     55417 WT18     665      MECN     H11      HGA3     0.090000        1.0080           0
     55418 WT18     665      MECN     H12      HGA3     0.090000        1.0080           0
     55419 WT18     665      MECN     H13      HGA3     0.090000        1.0080           0
     55420 WT18     665      MECN     C2       CG1N1    0.360000       12.0110           0
     55421 WT18     665      MECN     N3       NG1T1   -0.460000       14.0070           0
     55422 WT18     668      MECN     C1       CG331   -0.170000       12.0110           0
     55423 WT18     668      MECN     H11      HGA3     0.090000        1.0080           0
     55424 WT18     668      MECN     H12      HGA3     0.090000        1.0080           0
     55425 WT18     668      MECN     H13      HGA3     0.090000        1.0080           0
     55426 WT18     668      MECN     C2       CG1N1    0.360000       12.0110           0
     55427 WT18     668      MECN     N3       NG1T1   -0.460000       14.0070           0
     55428 WT18     669      MECN     C1       CG331   -0.170000       12.0110           0
     55429 WT18     669      MECN     H11      HGA3     0.090000        1.0080           0
     55430 WT18     669      MECN     H12      HGA3     0.090000        1.0080           0
     55431 WT18     669      MECN     H13      HGA3     0.090000        1.0080           0
     55432 WT18     669      MECN     C2       CG1N1    0.360000       12.0110           0
     55433 WT18     669      MECN     N3       NG1T1   -0.460000       14.0070           0
     55434 WT18     671      MECN     C1       CG331   -0.170000       12.0110           0
     55435 WT18     671      MECN     H11      HGA3     0.090000        1.0080           0
     55436 WT18     671      MECN     H12      HGA3     0.090000        1.0080           0
     55437 WT18     671      MECN     H13      HGA3     0.090000        1.0080           0
     55438 WT18     671      MECN     C2       CG1N1    0.360000       12.0110           0
     55439 WT18     671      MECN     N3       NG1T1   -0.460000       14.0070           0
     55440 WT18     674      MECN     C1       CG331   -0.170000       12.0110           0
     55441 WT18     674      MECN     H11      HGA3     0.090000        1.0080           0
     55442 WT18     674      MECN     H12      HGA3     0.090000        1.0080           0
     55443 WT18     674      MECN     H13      HGA3     0.090000        1.0080           0
     55444 WT18     674      MECN     C2       CG1N1    0.360000       12.0110           0
     55445 WT18     674      MECN     N3       NG1T1   -0.460000       14.0070           0
     55446 WT18     675      MECN     C1       CG331   -0.170000       12.0110           0
     55447 WT18     675      MECN     H11      HGA3     0.090000        1.0080           0
     55448 WT18     675      MECN     H12      HGA3     0.090000        1.0080           0
     55449 WT18     675      MECN     H13      HGA3     0.090000        1.0080           0
     55450 WT18     675      MECN     C2       CG1N1    0.360000       12.0110           0
     55451 WT18     675      MECN     N3       NG1T1   -0.460000       14.0070           0
     55452 WT18     676      MECN     C1       CG331   -0.170000       12.0110           0
     55453 WT18     676      MECN     H11      HGA3     0.090000        1.0080           0
     55454 WT18     676      MECN     H12      HGA3     0.090000        1.0080           0
     55455 WT18     676      MECN     H13      HGA3     0.090000        1.0080           0
     55456 WT18     676      MECN     C2       CG1N1    0.360000       12.0110           0
     55457 WT18     676      MECN     N3       NG1T1   -0.460000       14.0070           0
     55458 WT18     677      MECN     C1       CG331   -0.170000       12.0110           0
     55459 WT18     677      MECN     H11      HGA3     0.090000        1.0080           0
     55460 WT18     677      MECN     H12      HGA3     0.090000        1.0080           0
     55461 WT18     677      MECN     H13      HGA3     0.090000        1.0080           0
     55462 WT18     677      MECN     C2       CG1N1    0.360000       12.0110           0
     55463 WT18     677      MECN     N3       NG1T1   -0.460000       14.0070           0
     55464 WT18     680      MECN     C1       CG331   -0.170000       12.0110           0
     55465 WT18     680      MECN     H11      HGA3     0.090000        1.0080           0
     55466 WT18     680      MECN     H12      HGA3     0.090000        1.0080           0
     55467 WT18     680      MECN     H13      HGA3     0.090000        1.0080           0
     55468 WT18     680      MECN     C2       CG1N1    0.360000       12.0110           0
     55469 WT18     680      MECN     N3       NG1T1   -0.460000       14.0070           0
     55470 WT18     681      MECN     C1       CG331   -0.170000       12.0110           0
     55471 WT18     681      MECN     H11      HGA3     0.090000        1.0080           0
     55472 WT18     681      MECN     H12      HGA3     0.090000        1.0080           0
     55473 WT18     681      MECN     H13      HGA3     0.090000        1.0080           0
     55474 WT18     681      MECN     C2       CG1N1    0.360000       12.0110           0
     55475 WT18     681      MECN     N3       NG1T1   -0.460000       14.0070           0
     55476 WT18     682      MECN     C1       CG331   -0.170000       12.0110           0
     55477 WT18     682      MECN     H11      HGA3     0.090000        1.0080           0
     55478 WT18     682      MECN     H12      HGA3     0.090000        1.0080           0
     55479 WT18     682      MECN     H13      HGA3     0.090000        1.0080           0
     55480 WT18     682      MECN     C2       CG1N1    0.360000       12.0110           0
     55481 WT18     682      MECN     N3       NG1T1   -0.460000       14.0070           0
     55482 WT18     683      MECN     C1       CG331   -0.170000       12.0110           0
     55483 WT18     683      MECN     H11      HGA3     0.090000        1.0080           0
     55484 WT18     683      MECN     H12      HGA3     0.090000        1.0080           0
     55485 WT18     683      MECN     H13      HGA3     0.090000        1.0080           0
     55486 WT18     683      MECN     C2       CG1N1    0.360000       12.0110           0
     55487 WT18     683      MECN     N3       NG1T1   -0.460000       14.0070           0
     55488 WT18     685      MECN     C1       CG331   -0.170000       12.0110           0
     55489 WT18     685      MECN     H11      HGA3     0.090000        1.0080           0
     55490 WT18     685      MECN     H12      HGA3     0.090000        1.0080           0
     55491 WT18     685      MECN     H13      HGA3     0.090000        1.0080           0
     55492 WT18     685      MECN     C2       CG1N1    0.360000       12.0110           0
     55493 WT18     685      MECN     N3       NG1T1   -0.460000       14.0070           0
     55494 WT18     686      MECN     C1       CG331   -0.170000       12.0110           0
     55495 WT18     686      MECN     H11      HGA3     0.090000        1.0080           0
     55496 WT18     686      MECN     H12      HGA3     0.090000        1.0080           0
     55497 WT18     686      MECN     H13      HGA3     0.090000        1.0080           0
     55498 WT18     686      MECN     C2       CG1N1    0.360000       12.0110           0
     55499 WT18     686      MECN     N3       NG1T1   -0.460000       14.0070           0
     55500 WT18     687      MECN     C1       CG331   -0.170000       12.0110           0
     55501 WT18     687      MECN     H11      HGA3     0.090000        1.0080           0
     55502 WT18     687      MECN     H12      HGA3     0.090000        1.0080           0
     55503 WT18     687      MECN     H13      HGA3     0.090000        1.0080           0
     55504 WT18     687      MECN     C2       CG1N1    0.360000       12.0110           0
     55505 WT18     687      MECN     N3       NG1T1   -0.460000       14.0070           0
     55506 WT18     689      MECN     C1       CG331   -0.170000       12.0110           0
     55507 WT18     689      MECN     H11      HGA3     0.090000        1.0080           0
     55508 WT18     689      MECN     H12      HGA3     0.090000        1.0080           0
     55509 WT18     689      MECN     H13      HGA3     0.090000        1.0080           0
     55510 WT18     689      MECN     C2       CG1N1    0.360000       12.0110           0
     55511 WT18     689      MECN     N3       NG1T1   -0.460000       14.0070           0
     55512 WT18     690      MECN     C1       CG331   -0.170000       12.0110           0
     55513 WT18     690      MECN     H11      HGA3     0.090000        1.0080           0
     55514 WT18     690      MECN     H12      HGA3     0.090000        1.0080           0
     55515 WT18     690      MECN     H13      HGA3     0.090000        1.0080           0
     55516 WT18     690      MECN     C2       CG1N1    0.360000       12.0110           0
     55517 WT18     690      MECN     N3       NG1T1   -0.460000       14.0070           0
     55518 WT18     693      MECN     C1       CG331   -0.170000       12.0110           0
     55519 WT18     693      MECN     H11      HGA3     0.090000        1.0080           0
     55520 WT18     693      MECN     H12      HGA3     0.090000        1.0080           0
     55521 WT18     693      MECN     H13      HGA3     0.090000        1.0080           0
     55522 WT18     693      MECN     C2       CG1N1    0.360000       12.0110           0
     55523 WT18     693      MECN     N3       NG1T1   -0.460000       14.0070           0
     55524 WT18     695      MECN     C1       CG331   -0.170000       12.0110           0
     55525 WT18     695      MECN     H11      HGA3     0.090000        1.0080           0
     55526 WT18     695      MECN     H12      HGA3     0.090000        1.0080           0
     55527 WT18     695      MECN     H13      HGA3     0.090000        1.0080           0
     55528 WT18     695      MECN     C2       CG1N1    0.360000       12.0110           0
     55529 WT18     695      MECN     N3       NG1T1   -0.460000       14.0070           0
     55530 WT18     696      MECN     C1       CG331   -0.170000       12.0110           0
     55531 WT18     696      MECN     H11      HGA3     0.090000        1.0080           0
     55532 WT18     696      MECN     H12      HGA3     0.090000        1.0080           0
     55533 WT18     696      MECN     H13      HGA3     0.090000        1.0080           0
     55534 WT18     696      MECN     C2       CG1N1    0.360000       12.0110           0
     55535 WT18     696      MECN     N3       NG1T1   -0.460000       14.0070           0
     55536 WT18     697      MECN     C1       CG331   -0.170000       12.0110           0
     55537 WT18     697      MECN     H11      HGA3     0.090000        1.0080           0
     55538 WT18     697      MECN     H12      HGA3     0.090000        1.0080           0
     55539 WT18     697      MECN     H13      HGA3     0.090000        1.0080           0
     55540 WT18     697      MECN     C2       CG1N1    0.360000       12.0110           0
     55541 WT18     697      MECN     N3       NG1T1   -0.460000       14.0070           0
     55542 WT18     700      MECN     C1       CG331   -0.170000       12.0110           0
     55543 WT18     700      MECN     H11      HGA3     0.090000        1.0080           0
     55544 WT18     700      MECN     H12      HGA3     0.090000        1.0080           0
     55545 WT18     700      MECN     H13      HGA3     0.090000        1.0080           0
     55546 WT18     700      MECN     C2       CG1N1    0.360000       12.0110           0
     55547 WT18     700      MECN     N3       NG1T1   -0.460000       14.0070           0
     55548 WT18     701      MECN     C1       CG331   -0.170000       12.0110           0
     55549 WT18     701      MECN     H11      HGA3     0.090000        1.0080           0
     55550 WT18     701      MECN     H12      HGA3     0.090000        1.0080           0
     55551 WT18     701      MECN     H13      HGA3     0.090000        1.0080           0
     55552 WT18     701      MECN     C2       CG1N1    0.360000       12.0110           0
     55553 WT18     701      MECN     N3       NG1T1   -0.460000       14.0070           0
     55554 WT18     702      MECN     C1       CG331   -0.170000       12.0110           0
     55555 WT18     702      MECN     H11      HGA3     0.090000        1.0080           0
     55556 WT18     702      MECN     H12      HGA3     0.090000        1.0080           0
     55557 WT18     702      MECN     H13      HGA3     0.090000        1.0080           0
     55558 WT18     702      MECN     C2       CG1N1    0.360000       12.0110           0
     55559 WT18     702      MECN     N3       NG1T1   -0.460000       14.0070           0
     55560 WT18     703      MECN     C1       CG331   -0.170000       12.0110           0
     55561 WT18     703      MECN     H11      HGA3     0.090000        1.0080           0
     55562 WT18     703      MECN     H12      HGA3     0.090000        1.0080           0
     55563 WT18     703      MECN     H13      HGA3     0.090000        1.0080           0
     55564 WT18     703      MECN     C2       CG1N1    0.360000       12.0110           0
     55565 WT18     703      MECN     N3       NG1T1   -0.460000       14.0070           0
     55566 WT18     705      MECN     C1       CG331   -0.170000       12.0110           0
     55567 WT18     705      MECN     H11      HGA3     0.090000        1.0080           0
     55568 WT18     705      MECN     H12      HGA3     0.090000        1.0080           0
     55569 WT18     705      MECN     H13      HGA3     0.090000        1.0080           0
     55570 WT18     705      MECN     C2       CG1N1    0.360000       12.0110           0
     55571 WT18     705      MECN     N3       NG1T1   -0.460000       14.0070           0
     55572 WT18     709      MECN     C1       CG331   -0.170000       12.0110           0
     55573 WT18     709      MECN     H11      HGA3     0.090000        1.0080           0
     55574 WT18     709      MECN     H12      HGA3     0.090000        1.0080           0
     55575 WT18     709      MECN     H13      HGA3     0.090000        1.0080           0
     55576 WT18     709      MECN     C2       CG1N1    0.360000       12.0110           0
     55577 WT18     709      MECN     N3       NG1T1   -0.460000       14.0070           0
     55578 WT18     710      MECN     C1       CG331   -0.170000       12.0110           0
     55579 WT18     710      MECN     H11      HGA3     0.090000        1.0080           0
     55580 WT18     710      MECN     H12      HGA3     0.090000        1.0080           0
     55581 WT18     710      MECN     H13      HGA3     0.090000        1.0080           0
     55582 WT18     710      MECN     C2       CG1N1    0.360000       12.0110           0
     55583 WT18     710      MECN     N3       NG1T1   -0.460000       14.0070           0
     55584 WT18     711      MECN     C1       CG331   -0.170000       12.0110           0
     55585 WT18     711      MECN     H11      HGA3     0.090000        1.0080           0
     55586 WT18     711      MECN     H12      HGA3     0.090000        1.0080           0
     55587 WT18     711      MECN     H13      HGA3     0.090000        1.0080           0
     55588 WT18     711      MECN     C2       CG1N1    0.360000       12.0110           0
     55589 WT18     711      MECN     N3       NG1T1   -0.460000       14.0070           0
     55590 WT18     713      MECN     C1       CG331   -0.170000       12.0110           0
     55591 WT18     713      MECN     H11      HGA3     0.090000        1.0080           0
     55592 WT18     713      MECN     H12      HGA3     0.090000        1.0080           0
     55593 WT18     713      MECN     H13      HGA3     0.090000        1.0080           0
     55594 WT18     713      MECN     C2       CG1N1    0.360000       12.0110           0
     55595 WT18     713      MECN     N3       NG1T1   -0.460000       14.0070           0
     55596 WT18     714      MECN     C1       CG331   -0.170000       12.0110           0
     55597 WT18     714      MECN     H11      HGA3     0.090000        1.0080           0
     55598 WT18     714      MECN     H12      HGA3     0.090000        1.0080           0
     55599 WT18     714      MECN     H13      HGA3     0.090000        1.0080           0
     55600 WT18     714      MECN     C2       CG1N1    0.360000       12.0110           0
     55601 WT18     714      MECN     N3       NG1T1   -0.460000       14.0070           0
     55602 WT18     716      MECN     C1       CG331   -0.170000       12.0110           0
     55603 WT18     716      MECN     H11      HGA3     0.090000        1.0080           0
     55604 WT18     716      MECN     H12      HGA3     0.090000        1.0080           0
     55605 WT18     716      MECN     H13      HGA3     0.090000        1.0080           0
     55606 WT18     716      MECN     C2       CG1N1    0.360000       12.0110           0
     55607 WT18     716      MECN     N3       NG1T1   -0.460000       14.0070           0
     55608 WT18     717      MECN     C1       CG331   -0.170000       12.0110           0
     55609 WT18     717      MECN     H11      HGA3     0.090000        1.0080           0
     55610 WT18     717      MECN     H12      HGA3     0.090000        1.0080           0
     55611 WT18     717      MECN     H13      HGA3     0.090000        1.0080           0
     55612 WT18     717      MECN     C2       CG1N1    0.360000       12.0110           0
     55613 WT18     717      MECN     N3       NG1T1   -0.460000       14.0070           0
     55614 WT18     718      MECN     C1       CG331   -0.170000       12.0110           0
     55615 WT18     718      MECN     H11      HGA3     0.090000        1.0080           0
     55616 WT18     718      MECN     H12      HGA3     0.090000        1.0080           0
     55617 WT18     718      MECN     H13      HGA3     0.090000        1.0080           0
     55618 WT18     718      MECN     C2       CG1N1    0.360000       12.0110           0
     55619 WT18     718      MECN     N3       NG1T1   -0.460000       14.0070           0
     55620 WT18     719      MECN     C1       CG331   -0.170000       12.0110           0
     55621 WT18     719      MECN     H11      HGA3     0.090000        1.0080           0
     55622 WT18     719      MECN     H12      HGA3     0.090000        1.0080           0
     55623 WT18     719      MECN     H13      HGA3     0.090000        1.0080           0
     55624 WT18     719      MECN     C2       CG1N1    0.360000       12.0110           0
     55625 WT18     719      MECN     N3       NG1T1   -0.460000       14.0070           0
     55626 WT18     720      MECN     C1       CG331   -0.170000       12.0110           0
     55627 WT18     720      MECN     H11      HGA3     0.090000        1.0080           0
     55628 WT18     720      MECN     H12      HGA3     0.090000        1.0080           0
     55629 WT18     720      MECN     H13      HGA3     0.090000        1.0080           0
     55630 WT18     720      MECN     C2       CG1N1    0.360000       12.0110           0
     55631 WT18     720      MECN     N3       NG1T1   -0.460000       14.0070           0
     55632 WT18     725      MECN     C1       CG331   -0.170000       12.0110           0
     55633 WT18     725      MECN     H11      HGA3     0.090000        1.0080           0
     55634 WT18     725      MECN     H12      HGA3     0.090000        1.0080           0
     55635 WT18     725      MECN     H13      HGA3     0.090000        1.0080           0
     55636 WT18     725      MECN     C2       CG1N1    0.360000       12.0110           0
     55637 WT18     725      MECN     N3       NG1T1   -0.460000       14.0070           0
     55638 WT18     729      MECN     C1       CG331   -0.170000       12.0110           0
     55639 WT18     729      MECN     H11      HGA3     0.090000        1.0080           0
     55640 WT18     729      MECN     H12      HGA3     0.090000        1.0080           0
     55641 WT18     729      MECN     H13      HGA3     0.090000        1.0080           0
     55642 WT18     729      MECN     C2       CG1N1    0.360000       12.0110           0
     55643 WT18     729      MECN     N3       NG1T1   -0.460000       14.0070           0
     55644 WT18     730      MECN     C1       CG331   -0.170000       12.0110           0
     55645 WT18     730      MECN     H11      HGA3     0.090000        1.0080           0
     55646 WT18     730      MECN     H12      HGA3     0.090000        1.0080           0
     55647 WT18     730      MECN     H13      HGA3     0.090000        1.0080           0
     55648 WT18     730      MECN     C2       CG1N1    0.360000       12.0110           0
     55649 WT18     730      MECN     N3       NG1T1   -0.460000       14.0070           0
     55650 WT18     732      MECN     C1       CG331   -0.170000       12.0110           0
     55651 WT18     732      MECN     H11      HGA3     0.090000        1.0080           0
     55652 WT18     732      MECN     H12      HGA3     0.090000        1.0080           0
     55653 WT18     732      MECN     H13      HGA3     0.090000        1.0080           0
     55654 WT18     732      MECN     C2       CG1N1    0.360000       12.0110           0
     55655 WT18     732      MECN     N3       NG1T1   -0.460000       14.0070           0
     55656 WT18     733      MECN     C1       CG331   -0.170000       12.0110           0
     55657 WT18     733      MECN     H11      HGA3     0.090000        1.0080           0
     55658 WT18     733      MECN     H12      HGA3     0.090000        1.0080           0
     55659 WT18     733      MECN     H13      HGA3     0.090000        1.0080           0
     55660 WT18     733      MECN     C2       CG1N1    0.360000       12.0110           0
     55661 WT18     733      MECN     N3       NG1T1   -0.460000       14.0070           0
     55662 WT18     734      MECN     C1       CG331   -0.170000       12.0110           0
     55663 WT18     734      MECN     H11      HGA3     0.090000        1.0080           0
     55664 WT18     734      MECN     H12      HGA3     0.090000        1.0080           0
     55665 WT18     734      MECN     H13      HGA3     0.090000        1.0080           0
     55666 WT18     734      MECN     C2       CG1N1    0.360000       12.0110           0
     55667 WT18     734      MECN     N3       NG1T1   -0.460000       14.0070           0
     55668 WT18     735      MECN     C1       CG331   -0.170000       12.0110           0
     55669 WT18     735      MECN     H11      HGA3     0.090000        1.0080           0
     55670 WT18     735      MECN     H12      HGA3     0.090000        1.0080           0
     55671 WT18     735      MECN     H13      HGA3     0.090000        1.0080           0
     55672 WT18     735      MECN     C2       CG1N1    0.360000       12.0110           0
     55673 WT18     735      MECN     N3       NG1T1   -0.460000       14.0070           0
     55674 WT18     736      MECN     C1       CG331   -0.170000       12.0110           0
     55675 WT18     736      MECN     H11      HGA3     0.090000        1.0080           0
     55676 WT18     736      MECN     H12      HGA3     0.090000        1.0080           0
     55677 WT18     736      MECN     H13      HGA3     0.090000        1.0080           0
     55678 WT18     736      MECN     C2       CG1N1    0.360000       12.0110           0
     55679 WT18     736      MECN     N3       NG1T1   -0.460000       14.0070           0
     55680 WT18     738      MECN     C1       CG331   -0.170000       12.0110           0
     55681 WT18     738      MECN     H11      HGA3     0.090000        1.0080           0
     55682 WT18     738      MECN     H12      HGA3     0.090000        1.0080           0
     55683 WT18     738      MECN     H13      HGA3     0.090000        1.0080           0
     55684 WT18     738      MECN     C2       CG1N1    0.360000       12.0110           0
     55685 WT18     738      MECN     N3       NG1T1   -0.460000       14.0070           0
     55686 WT18     739      MECN     C1       CG331   -0.170000       12.0110           0
     55687 WT18     739      MECN     H11      HGA3     0.090000        1.0080           0
     55688 WT18     739      MECN     H12      HGA3     0.090000        1.0080           0
     55689 WT18     739      MECN     H13      HGA3     0.090000        1.0080           0
     55690 WT18     739      MECN     C2       CG1N1    0.360000       12.0110           0
     55691 WT18     739      MECN     N3       NG1T1   -0.460000       14.0070           0
     55692 WT18     740      MECN     C1       CG331   -0.170000       12.0110           0
     55693 WT18     740      MECN     H11      HGA3     0.090000        1.0080           0
     55694 WT18     740      MECN     H12      HGA3     0.090000        1.0080           0
     55695 WT18     740      MECN     H13      HGA3     0.090000        1.0080           0
     55696 WT18     740      MECN     C2       CG1N1    0.360000       12.0110           0
     55697 WT18     740      MECN     N3       NG1T1   -0.460000       14.0070           0
     55698 WT18     742      MECN     C1       CG331   -0.170000       12.0110           0
     55699 WT18     742      MECN     H11      HGA3     0.090000        1.0080           0
     55700 WT18     742      MECN     H12      HGA3     0.090000        1.0080           0
     55701 WT18     742      MECN     H13      HGA3     0.090000        1.0080           0
     55702 WT18     742      MECN     C2       CG1N1    0.360000       12.0110           0
     55703 WT18     742      MECN     N3       NG1T1   -0.460000       14.0070           0
     55704 WT18     745      MECN     C1       CG331   -0.170000       12.0110           0
     55705 WT18     745      MECN     H11      HGA3     0.090000        1.0080           0
     55706 WT18     745      MECN     H12      HGA3     0.090000        1.0080           0
     55707 WT18     745      MECN     H13      HGA3     0.090000        1.0080           0
     55708 WT18     745      MECN     C2       CG1N1    0.360000       12.0110           0
     55709 WT18     745      MECN     N3       NG1T1   -0.460000       14.0070           0
     55710 WT18     746      MECN     C1       CG331   -0.170000       12.0110           0
     55711 WT18     746      MECN     H11      HGA3     0.090000        1.0080           0
     55712 WT18     746      MECN     H12      HGA3     0.090000        1.0080           0
     55713 WT18     746      MECN     H13      HGA3     0.090000        1.0080           0
     55714 WT18     746      MECN     C2       CG1N1    0.360000       12.0110           0
     55715 WT18     746      MECN     N3       NG1T1   -0.460000       14.0070           0
     55716 WT18     750      MECN     C1       CG331   -0.170000       12.0110           0
     55717 WT18     750      MECN     H11      HGA3     0.090000        1.0080           0
     55718 WT18     750      MECN     H12      HGA3     0.090000        1.0080           0
     55719 WT18     750      MECN     H13      HGA3     0.090000        1.0080           0
     55720 WT18     750      MECN     C2       CG1N1    0.360000       12.0110           0
     55721 WT18     750      MECN     N3       NG1T1   -0.460000       14.0070           0
     55722 WT18     751      MECN     C1       CG331   -0.170000       12.0110           0
     55723 WT18     751      MECN     H11      HGA3     0.090000        1.0080           0
     55724 WT18     751      MECN     H12      HGA3     0.090000        1.0080           0
     55725 WT18     751      MECN     H13      HGA3     0.090000        1.0080           0
     55726 WT18     751      MECN     C2       CG1N1    0.360000       12.0110           0
     55727 WT18     751      MECN     N3       NG1T1   -0.460000       14.0070           0
     55728 WT18     752      MECN     C1       CG331   -0.170000       12.0110           0
     55729 WT18     752      MECN     H11      HGA3     0.090000        1.0080           0
     55730 WT18     752      MECN     H12      HGA3     0.090000        1.0080           0
     55731 WT18     752      MECN     H13      HGA3     0.090000        1.0080           0
     55732 WT18     752      MECN     C2       CG1N1    0.360000       12.0110           0
     55733 WT18     752      MECN     N3       NG1T1   -0.460000       14.0070           0
     55734 WT18     753      MECN     C1       CG331   -0.170000       12.0110           0
     55735 WT18     753      MECN     H11      HGA3     0.090000        1.0080           0
     55736 WT18     753      MECN     H12      HGA3     0.090000        1.0080           0
     55737 WT18     753      MECN     H13      HGA3     0.090000        1.0080           0
     55738 WT18     753      MECN     C2       CG1N1    0.360000       12.0110           0
     55739 WT18     753      MECN     N3       NG1T1   -0.460000       14.0070           0
     55740 WT18     758      MECN     C1       CG331   -0.170000       12.0110           0
     55741 WT18     758      MECN     H11      HGA3     0.090000        1.0080           0
     55742 WT18     758      MECN     H12      HGA3     0.090000        1.0080           0
     55743 WT18     758      MECN     H13      HGA3     0.090000        1.0080           0
     55744 WT18     758      MECN     C2       CG1N1    0.360000       12.0110           0
     55745 WT18     758      MECN     N3       NG1T1   -0.460000       14.0070           0
     55746 WT18     759      MECN     C1       CG331   -0.170000       12.0110           0
     55747 WT18     759      MECN     H11      HGA3     0.090000        1.0080           0
     55748 WT18     759      MECN     H12      HGA3     0.090000        1.0080           0
     55749 WT18     759      MECN     H13      HGA3     0.090000        1.0080           0
     55750 WT18     759      MECN     C2       CG1N1    0.360000       12.0110           0
     55751 WT18     759      MECN     N3       NG1T1   -0.460000       14.0070           0
     55752 WT18     760      MECN     C1       CG331   -0.170000       12.0110           0
     55753 WT18     760      MECN     H11      HGA3     0.090000        1.0080           0
     55754 WT18     760      MECN     H12      HGA3     0.090000        1.0080           0
     55755 WT18     760      MECN     H13      HGA3     0.090000        1.0080           0
     55756 WT18     760      MECN     C2       CG1N1    0.360000       12.0110           0
     55757 WT18     760      MECN     N3       NG1T1   -0.460000       14.0070           0
     55758 WT18     763      MECN     C1       CG331   -0.170000       12.0110           0
     55759 WT18     763      MECN     H11      HGA3     0.090000        1.0080           0
     55760 WT18     763      MECN     H12      HGA3     0.090000        1.0080           0
     55761 WT18     763      MECN     H13      HGA3     0.090000        1.0080           0
     55762 WT18     763      MECN     C2       CG1N1    0.360000       12.0110           0
     55763 WT18     763      MECN     N3       NG1T1   -0.460000       14.0070           0
     55764 WT18     764      MECN     C1       CG331   -0.170000       12.0110           0
     55765 WT18     764      MECN     H11      HGA3     0.090000        1.0080           0
     55766 WT18     764      MECN     H12      HGA3     0.090000        1.0080           0
     55767 WT18     764      MECN     H13      HGA3     0.090000        1.0080           0
     55768 WT18     764      MECN     C2       CG1N1    0.360000       12.0110           0
     55769 WT18     764      MECN     N3       NG1T1   -0.460000       14.0070           0
     55770 WT18     766      MECN     C1       CG331   -0.170000       12.0110           0
     55771 WT18     766      MECN     H11      HGA3     0.090000        1.0080           0
     55772 WT18     766      MECN     H12      HGA3     0.090000        1.0080           0
     55773 WT18     766      MECN     H13      HGA3     0.090000        1.0080           0
     55774 WT18     766      MECN     C2       CG1N1    0.360000       12.0110           0
     55775 WT18     766      MECN     N3       NG1T1   -0.460000       14.0070           0
     55776 WT18     769      MECN     C1       CG331   -0.170000       12.0110           0
     55777 WT18     769      MECN     H11      HGA3     0.090000        1.0080           0
     55778 WT18     769      MECN     H12      HGA3     0.090000        1.0080           0
     55779 WT18     769      MECN     H13      HGA3     0.090000        1.0080           0
     55780 WT18     769      MECN     C2       CG1N1    0.360000       12.0110           0
     55781 WT18     769      MECN     N3       NG1T1   -0.460000       14.0070           0
     55782 WT18     773      MECN     C1       CG331   -0.170000       12.0110           0
     55783 WT18     773      MECN     H11      HGA3     0.090000        1.0080           0
     55784 WT18     773      MECN     H12      HGA3     0.090000        1.0080           0
     55785 WT18     773      MECN     H13      HGA3     0.090000        1.0080           0
     55786 WT18     773      MECN     C2       CG1N1    0.360000       12.0110           0
     55787 WT18     773      MECN     N3       NG1T1   -0.460000       14.0070           0
     55788 WT18     775      MECN     C1       CG331   -0.170000       12.0110           0
     55789 WT18     775      MECN     H11      HGA3     0.090000        1.0080           0
     55790 WT18     775      MECN     H12      HGA3     0.090000        1.0080           0
     55791 WT18     775      MECN     H13      HGA3     0.090000        1.0080           0
     55792 WT18     775      MECN     C2       CG1N1    0.360000       12.0110           0
     55793 WT18     775      MECN     N3       NG1T1   -0.460000       14.0070           0
     55794 WT18     779      MECN     C1       CG331   -0.170000       12.0110           0
     55795 WT18     779      MECN     H11      HGA3     0.090000        1.0080           0
     55796 WT18     779      MECN     H12      HGA3     0.090000        1.0080           0
     55797 WT18     779      MECN     H13      HGA3     0.090000        1.0080           0
     55798 WT18     779      MECN     C2       CG1N1    0.360000       12.0110           0
     55799 WT18     779      MECN     N3       NG1T1   -0.460000       14.0070           0
     55800 WT18     784      MECN     C1       CG331   -0.170000       12.0110           0
     55801 WT18     784      MECN     H11      HGA3     0.090000        1.0080           0
     55802 WT18     784      MECN     H12      HGA3     0.090000        1.0080           0
     55803 WT18     784      MECN     H13      HGA3     0.090000        1.0080           0
     55804 WT18     784      MECN     C2       CG1N1    0.360000       12.0110           0
     55805 WT18     784      MECN     N3       NG1T1   -0.460000       14.0070           0
     55806 WT18     785      MECN     C1       CG331   -0.170000       12.0110           0
     55807 WT18     785      MECN     H11      HGA3     0.090000        1.0080           0
     55808 WT18     785      MECN     H12      HGA3     0.090000        1.0080           0
     55809 WT18     785      MECN     H13      HGA3     0.090000        1.0080           0
     55810 WT18     785      MECN     C2       CG1N1    0.360000       12.0110           0
     55811 WT18     785      MECN     N3       NG1T1   -0.460000       14.0070           0
     55812 WT18     786      MECN     C1       CG331   -0.170000       12.0110           0
     55813 WT18     786      MECN     H11      HGA3     0.090000        1.0080           0
     55814 WT18     786      MECN     H12      HGA3     0.090000        1.0080           0
     55815 WT18     786      MECN     H13      HGA3     0.090000        1.0080           0
     55816 WT18     786      MECN     C2       CG1N1    0.360000       12.0110           0
     55817 WT18     786      MECN     N3       NG1T1   -0.460000       14.0070           0
     55818 WT18     787      MECN     C1       CG331   -0.170000       12.0110           0
     55819 WT18     787      MECN     H11      HGA3     0.090000        1.0080           0
     55820 WT18     787      MECN     H12      HGA3     0.090000        1.0080           0
     55821 WT18     787      MECN     H13      HGA3     0.090000        1.0080           0
     55822 WT18     787      MECN     C2       CG1N1    0.360000       12.0110           0
     55823 WT18     787      MECN     N3       NG1T1   -0.460000       14.0070           0
     55824 WT18     788      MECN     C1       CG331   -0.170000       12.0110           0
     55825 WT18     788      MECN     H11      HGA3     0.090000        1.0080           0
     55826 WT18     788      MECN     H12      HGA3     0.090000        1.0080           0
     55827 WT18     788      MECN     H13      HGA3     0.090000        1.0080           0
     55828 WT18     788      MECN     C2       CG1N1    0.360000       12.0110           0
     55829 WT18     788      MECN     N3       NG1T1   -0.460000       14.0070           0
     55830 WT18     790      MECN     C1       CG331   -0.170000       12.0110           0
     55831 WT18     790      MECN     H11      HGA3     0.090000        1.0080           0
     55832 WT18     790      MECN     H12      HGA3     0.090000        1.0080           0
     55833 WT18     790      MECN     H13      HGA3     0.090000        1.0080           0
     55834 WT18     790      MECN     C2       CG1N1    0.360000       12.0110           0
     55835 WT18     790      MECN     N3       NG1T1   -0.460000       14.0070           0
     55836 WT18     792      MECN     C1       CG331   -0.170000       12.0110           0
     55837 WT18     792      MECN     H11      HGA3     0.090000        1.0080           0
     55838 WT18     792      MECN     H12      HGA3     0.090000        1.0080           0
     55839 WT18     792      MECN     H13      HGA3     0.090000        1.0080           0
     55840 WT18     792      MECN     C2       CG1N1    0.360000       12.0110           0
     55841 WT18     792      MECN     N3       NG1T1   -0.460000       14.0070           0
     55842 WT18     794      MECN     C1       CG331   -0.170000       12.0110           0
     55843 WT18     794      MECN     H11      HGA3     0.090000        1.0080           0
     55844 WT18     794      MECN     H12      HGA3     0.090000        1.0080           0
     55845 WT18     794      MECN     H13      HGA3     0.090000        1.0080           0
     55846 WT18     794      MECN     C2       CG1N1    0.360000       12.0110           0
     55847 WT18     794      MECN     N3       NG1T1   -0.460000       14.0070           0
     55848 WT18     795      MECN     C1       CG331   -0.170000       12.0110           0
     55849 WT18     795      MECN     H11      HGA3     0.090000        1.0080           0
     55850 WT18     795      MECN     H12      HGA3     0.090000        1.0080           0
     55851 WT18     795      MECN     H13      HGA3     0.090000        1.0080           0
     55852 WT18     795      MECN     C2       CG1N1    0.360000       12.0110           0
     55853 WT18     795      MECN     N3       NG1T1   -0.460000       14.0070           0
     55854 WT18     796      MECN     C1       CG331   -0.170000       12.0110           0
     55855 WT18     796      MECN     H11      HGA3     0.090000        1.0080           0
     55856 WT18     796      MECN     H12      HGA3     0.090000        1.0080           0
     55857 WT18     796      MECN     H13      HGA3     0.090000        1.0080           0
     55858 WT18     796      MECN     C2       CG1N1    0.360000       12.0110           0
     55859 WT18     796      MECN     N3       NG1T1   -0.460000       14.0070           0
     55860 WT18     798      MECN     C1       CG331   -0.170000       12.0110           0
     55861 WT18     798      MECN     H11      HGA3     0.090000        1.0080           0
     55862 WT18     798      MECN     H12      HGA3     0.090000        1.0080           0
     55863 WT18     798      MECN     H13      HGA3     0.090000        1.0080           0
     55864 WT18     798      MECN     C2       CG1N1    0.360000       12.0110           0
     55865 WT18     798      MECN     N3       NG1T1   -0.460000       14.0070           0
     55866 WT18     801      MECN     C1       CG331   -0.170000       12.0110           0
     55867 WT18     801      MECN     H11      HGA3     0.090000        1.0080           0
     55868 WT18     801      MECN     H12      HGA3     0.090000        1.0080           0
     55869 WT18     801      MECN     H13      HGA3     0.090000        1.0080           0
     55870 WT18     801      MECN     C2       CG1N1    0.360000       12.0110           0
     55871 WT18     801      MECN     N3       NG1T1   -0.460000       14.0070           0
     55872 WT18     802      MECN     C1       CG331   -0.170000       12.0110           0
     55873 WT18     802      MECN     H11      HGA3     0.090000        1.0080           0
     55874 WT18     802      MECN     H12      HGA3     0.090000        1.0080           0
     55875 WT18     802      MECN     H13      HGA3     0.090000        1.0080           0
     55876 WT18     802      MECN     C2       CG1N1    0.360000       12.0110           0
     55877 WT18     802      MECN     N3       NG1T1   -0.460000       14.0070           0
     55878 WT18     804      MECN     C1       CG331   -0.170000       12.0110           0
     55879 WT18     804      MECN     H11      HGA3     0.090000        1.0080           0
     55880 WT18     804      MECN     H12      HGA3     0.090000        1.0080           0
     55881 WT18     804      MECN     H13      HGA3     0.090000        1.0080           0
     55882 WT18     804      MECN     C2       CG1N1    0.360000       12.0110           0
     55883 WT18     804      MECN     N3       NG1T1   -0.460000       14.0070           0
     55884 WT18     809      MECN     C1       CG331   -0.170000       12.0110           0
     55885 WT18     809      MECN     H11      HGA3     0.090000        1.0080           0
     55886 WT18     809      MECN     H12      HGA3     0.090000        1.0080           0
     55887 WT18     809      MECN     H13      HGA3     0.090000        1.0080           0
     55888 WT18     809      MECN     C2       CG1N1    0.360000       12.0110           0
     55889 WT18     809      MECN     N3       NG1T1   -0.460000       14.0070           0
     55890 WT18     811      MECN     C1       CG331   -0.170000       12.0110           0
     55891 WT18     811      MECN     H11      HGA3     0.090000        1.0080           0
     55892 WT18     811      MECN     H12      HGA3     0.090000        1.0080           0
     55893 WT18     811      MECN     H13      HGA3     0.090000        1.0080           0
     55894 WT18     811      MECN     C2       CG1N1    0.360000       12.0110           0
     55895 WT18     811      MECN     N3       NG1T1   -0.460000       14.0070           0
     55896 WT18     812      MECN     C1       CG331   -0.170000       12.0110           0
     55897 WT18     812      MECN     H11      HGA3     0.090000        1.0080           0
     55898 WT18     812      MECN     H12      HGA3     0.090000        1.0080           0
     55899 WT18     812      MECN     H13      HGA3     0.090000        1.0080           0
     55900 WT18     812      MECN     C2       CG1N1    0.360000       12.0110           0
     55901 WT18     812      MECN     N3       NG1T1   -0.460000       14.0070           0
     55902 WT18     815      MECN     C1       CG331   -0.170000       12.0110           0
     55903 WT18     815      MECN     H11      HGA3     0.090000        1.0080           0
     55904 WT18     815      MECN     H12      HGA3     0.090000        1.0080           0
     55905 WT18     815      MECN     H13      HGA3     0.090000        1.0080           0
     55906 WT18     815      MECN     C2       CG1N1    0.360000       12.0110           0
     55907 WT18     815      MECN     N3       NG1T1   -0.460000       14.0070           0
     55908 WT18     816      MECN     C1       CG331   -0.170000       12.0110           0
     55909 WT18     816      MECN     H11      HGA3     0.090000        1.0080           0
     55910 WT18     816      MECN     H12      HGA3     0.090000        1.0080           0
     55911 WT18     816      MECN     H13      HGA3     0.090000        1.0080           0
     55912 WT18     816      MECN     C2       CG1N1    0.360000       12.0110           0
     55913 WT18     816      MECN     N3       NG1T1   -0.460000       14.0070           0
     55914 WT18     819      MECN     C1       CG331   -0.170000       12.0110           0
     55915 WT18     819      MECN     H11      HGA3     0.090000        1.0080           0
     55916 WT18     819      MECN     H12      HGA3     0.090000        1.0080           0
     55917 WT18     819      MECN     H13      HGA3     0.090000        1.0080           0
     55918 WT18     819      MECN     C2       CG1N1    0.360000       12.0110           0
     55919 WT18     819      MECN     N3       NG1T1   -0.460000       14.0070           0
     55920 WT18     820      MECN     C1       CG331   -0.170000       12.0110           0
     55921 WT18     820      MECN     H11      HGA3     0.090000        1.0080           0
     55922 WT18     820      MECN     H12      HGA3     0.090000        1.0080           0
     55923 WT18     820      MECN     H13      HGA3     0.090000        1.0080           0
     55924 WT18     820      MECN     C2       CG1N1    0.360000       12.0110           0
     55925 WT18     820      MECN     N3       NG1T1   -0.460000       14.0070           0
     55926 WT18     824      MECN     C1       CG331   -0.170000       12.0110           0
     55927 WT18     824      MECN     H11      HGA3     0.090000        1.0080           0
     55928 WT18     824      MECN     H12      HGA3     0.090000        1.0080           0
     55929 WT18     824      MECN     H13      HGA3     0.090000        1.0080           0
     55930 WT18     824      MECN     C2       CG1N1    0.360000       12.0110           0
     55931 WT18     824      MECN     N3       NG1T1   -0.460000       14.0070           0
     55932 WT18     825      MECN     C1       CG331   -0.170000       12.0110           0
     55933 WT18     825      MECN     H11      HGA3     0.090000        1.0080           0
     55934 WT18     825      MECN     H12      HGA3     0.090000        1.0080           0
     55935 WT18     825      MECN     H13      HGA3     0.090000        1.0080           0
     55936 WT18     825      MECN     C2       CG1N1    0.360000       12.0110           0
     55937 WT18     825      MECN     N3       NG1T1   -0.460000       14.0070           0
     55938 WT18     830      MECN     C1       CG331   -0.170000       12.0110           0
     55939 WT18     830      MECN     H11      HGA3     0.090000        1.0080           0
     55940 WT18     830      MECN     H12      HGA3     0.090000        1.0080           0
     55941 WT18     830      MECN     H13      HGA3     0.090000        1.0080           0
     55942 WT18     830      MECN     C2       CG1N1    0.360000       12.0110           0
     55943 WT18     830      MECN     N3       NG1T1   -0.460000       14.0070           0
     55944 WT18     831      MECN     C1       CG331   -0.170000       12.0110           0
     55945 WT18     831      MECN     H11      HGA3     0.090000        1.0080           0
     55946 WT18     831      MECN     H12      HGA3     0.090000        1.0080           0
     55947 WT18     831      MECN     H13      HGA3     0.090000        1.0080           0
     55948 WT18     831      MECN     C2       CG1N1    0.360000       12.0110           0
     55949 WT18     831      MECN     N3       NG1T1   -0.460000       14.0070           0
     55950 WT18     832      MECN     C1       CG331   -0.170000       12.0110           0
     55951 WT18     832      MECN     H11      HGA3     0.090000        1.0080           0
     55952 WT18     832      MECN     H12      HGA3     0.090000        1.0080           0
     55953 WT18     832      MECN     H13      HGA3     0.090000        1.0080           0
     55954 WT18     832      MECN     C2       CG1N1    0.360000       12.0110           0
     55955 WT18     832      MECN     N3       NG1T1   -0.460000       14.0070           0
     55956 WT18     835      MECN     C1       CG331   -0.170000       12.0110           0
     55957 WT18     835      MECN     H11      HGA3     0.090000        1.0080           0
     55958 WT18     835      MECN     H12      HGA3     0.090000        1.0080           0
     55959 WT18     835      MECN     H13      HGA3     0.090000        1.0080           0
     55960 WT18     835      MECN     C2       CG1N1    0.360000       12.0110           0
     55961 WT18     835      MECN     N3       NG1T1   -0.460000       14.0070           0
     55962 WT18     836      MECN     C1       CG331   -0.170000       12.0110           0
     55963 WT18     836      MECN     H11      HGA3     0.090000        1.0080           0
     55964 WT18     836      MECN     H12      HGA3     0.090000        1.0080           0
     55965 WT18     836      MECN     H13      HGA3     0.090000        1.0080           0
     55966 WT18     836      MECN     C2       CG1N1    0.360000       12.0110           0
     55967 WT18     836      MECN     N3       NG1T1   -0.460000       14.0070           0
     55968 WT18     837      MECN     C1       CG331   -0.170000       12.0110           0
     55969 WT18     837      MECN     H11      HGA3     0.090000        1.0080           0
     55970 WT18     837      MECN     H12      HGA3     0.090000        1.0080           0
     55971 WT18     837      MECN     H13      HGA3     0.090000        1.0080           0
     55972 WT18     837      MECN     C2       CG1N1    0.360000       12.0110           0
     55973 WT18     837      MECN     N3       NG1T1   -0.460000       14.0070           0
     55974 WT18     839      MECN     C1       CG331   -0.170000       12.0110           0
     55975 WT18     839      MECN     H11      HGA3     0.090000        1.0080           0
     55976 WT18     839      MECN     H12      HGA3     0.090000        1.0080           0
     55977 WT18     839      MECN     H13      HGA3     0.090000        1.0080           0
     55978 WT18     839      MECN     C2       CG1N1    0.360000       12.0110           0
     55979 WT18     839      MECN     N3       NG1T1   -0.460000       14.0070           0
     55980 WT18     843      MECN     C1       CG331   -0.170000       12.0110           0
     55981 WT18     843      MECN     H11      HGA3     0.090000        1.0080           0
     55982 WT18     843      MECN     H12      HGA3     0.090000        1.0080           0
     55983 WT18     843      MECN     H13      HGA3     0.090000        1.0080           0
     55984 WT18     843      MECN     C2       CG1N1    0.360000       12.0110           0
     55985 WT18     843      MECN     N3       NG1T1   -0.460000       14.0070           0
     55986 WT18     844      MECN     C1       CG331   -0.170000       12.0110           0
     55987 WT18     844      MECN     H11      HGA3     0.090000        1.0080           0
     55988 WT18     844      MECN     H12      HGA3     0.090000        1.0080           0
     55989 WT18     844      MECN     H13      HGA3     0.090000        1.0080           0
     55990 WT18     844      MECN     C2       CG1N1    0.360000       12.0110           0
     55991 WT18     844      MECN     N3       NG1T1   -0.460000       14.0070           0
     55992 WT18     847      MECN     C1       CG331   -0.170000       12.0110           0
     55993 WT18     847      MECN     H11      HGA3     0.090000        1.0080           0
     55994 WT18     847      MECN     H12      HGA3     0.090000        1.0080           0
     55995 WT18     847      MECN     H13      HGA3     0.090000        1.0080           0
     55996 WT18     847      MECN     C2       CG1N1    0.360000       12.0110           0
     55997 WT18     847      MECN     N3       NG1T1   -0.460000       14.0070           0
     55998 WT18     848      MECN     C1       CG331   -0.170000       12.0110           0
     55999 WT18     848      MECN     H11      HGA3     0.090000        1.0080           0
     56000 WT18     848      MECN     H12      HGA3     0.090000        1.0080           0
     56001 WT18     848      MECN     H13      HGA3     0.090000        1.0080           0
     56002 WT18     848      MECN     C2       CG1N1    0.360000       12.0110           0
     56003 WT18     848      MECN     N3       NG1T1   -0.460000       14.0070           0
     56004 WT18     850      MECN     C1       CG331   -0.170000       12.0110           0
     56005 WT18     850      MECN     H11      HGA3     0.090000        1.0080           0
     56006 WT18     850      MECN     H12      HGA3     0.090000        1.0080           0
     56007 WT18     850      MECN     H13      HGA3     0.090000        1.0080           0
     56008 WT18     850      MECN     C2       CG1N1    0.360000       12.0110           0
     56009 WT18     850      MECN     N3       NG1T1   -0.460000       14.0070           0
     56010 WT18     851      MECN     C1       CG331   -0.170000       12.0110           0
     56011 WT18     851      MECN     H11      HGA3     0.090000        1.0080           0
     56012 WT18     851      MECN     H12      HGA3     0.090000        1.0080           0
     56013 WT18     851      MECN     H13      HGA3     0.090000        1.0080           0
     56014 WT18     851      MECN     C2       CG1N1    0.360000       12.0110           0
     56015 WT18     851      MECN     N3       NG1T1   -0.460000       14.0070           0
     56016 WT18     852      MECN     C1       CG331   -0.170000       12.0110           0
     56017 WT18     852      MECN     H11      HGA3     0.090000        1.0080           0
     56018 WT18     852      MECN     H12      HGA3     0.090000        1.0080           0
     56019 WT18     852      MECN     H13      HGA3     0.090000        1.0080           0
     56020 WT18     852      MECN     C2       CG1N1    0.360000       12.0110           0
     56021 WT18     852      MECN     N3       NG1T1   -0.460000       14.0070           0
     56022 WT18     853      MECN     C1       CG331   -0.170000       12.0110           0
     56023 WT18     853      MECN     H11      HGA3     0.090000        1.0080           0
     56024 WT18     853      MECN     H12      HGA3     0.090000        1.0080           0
     56025 WT18     853      MECN     H13      HGA3     0.090000        1.0080           0
     56026 WT18     853      MECN     C2       CG1N1    0.360000       12.0110           0
     56027 WT18     853      MECN     N3       NG1T1   -0.460000       14.0070           0
     56028 WT18     854      MECN     C1       CG331   -0.170000       12.0110           0
     56029 WT18     854      MECN     H11      HGA3     0.090000        1.0080           0
     56030 WT18     854      MECN     H12      HGA3     0.090000        1.0080           0
     56031 WT18     854      MECN     H13      HGA3     0.090000        1.0080           0
     56032 WT18     854      MECN     C2       CG1N1    0.360000       12.0110           0
     56033 WT18     854      MECN     N3       NG1T1   -0.460000       14.0070           0
     56034 WT18     855      MECN     C1       CG331   -0.170000       12.0110           0
     56035 WT18     855      MECN     H11      HGA3     0.090000        1.0080           0
     56036 WT18     855      MECN     H12      HGA3     0.090000        1.0080           0
     56037 WT18     855      MECN     H13      HGA3     0.090000        1.0080           0
     56038 WT18     855      MECN     C2       CG1N1    0.360000       12.0110           0
     56039 WT18     855      MECN     N3       NG1T1   -0.460000       14.0070           0
     56040 WT18     856      MECN     C1       CG331   -0.170000       12.0110           0
     56041 WT18     856      MECN     H11      HGA3     0.090000        1.0080           0
     56042 WT18     856      MECN     H12      HGA3     0.090000        1.0080           0
     56043 WT18     856      MECN     H13      HGA3     0.090000        1.0080           0
     56044 WT18     856      MECN     C2       CG1N1    0.360000       12.0110           0
     56045 WT18     856      MECN     N3       NG1T1   -0.460000       14.0070           0
     56046 WT18     857      MECN     C1       CG331   -0.170000       12.0110           0
     56047 WT18     857      MECN     H11      HGA3     0.090000        1.0080           0
     56048 WT18     857      MECN     H12      HGA3     0.090000        1.0080           0
     56049 WT18     857      MECN     H13      HGA3     0.090000        1.0080           0
     56050 WT18     857      MECN     C2       CG1N1    0.360000       12.0110           0
     56051 WT18     857      MECN     N3       NG1T1   -0.460000       14.0070           0
     56052 WT18     858      MECN     C1       CG331   -0.170000       12.0110           0
     56053 WT18     858      MECN     H11      HGA3     0.090000        1.0080           0
     56054 WT18     858      MECN     H12      HGA3     0.090000        1.0080           0
     56055 WT18     858      MECN     H13      HGA3     0.090000        1.0080           0
     56056 WT18     858      MECN     C2       CG1N1    0.360000       12.0110           0
     56057 WT18     858      MECN     N3       NG1T1   -0.460000       14.0070           0
     56058 WT18     861      MECN     C1       CG331   -0.170000       12.0110           0
     56059 WT18     861      MECN     H11      HGA3     0.090000        1.0080           0
     56060 WT18     861      MECN     H12      HGA3     0.090000        1.0080           0
     56061 WT18     861      MECN     H13      HGA3     0.090000        1.0080           0
     56062 WT18     861      MECN     C2       CG1N1    0.360000       12.0110           0
     56063 WT18     861      MECN     N3       NG1T1   -0.460000       14.0070           0
     56064 WT18     862      MECN     C1       CG331   -0.170000       12.0110           0
     56065 WT18     862      MECN     H11      HGA3     0.090000        1.0080           0
     56066 WT18     862      MECN     H12      HGA3     0.090000        1.0080           0
     56067 WT18     862      MECN     H13      HGA3     0.090000        1.0080           0
     56068 WT18     862      MECN     C2       CG1N1    0.360000       12.0110           0
     56069 WT18     862      MECN     N3       NG1T1   -0.460000       14.0070           0
     56070 WT18     865      MECN     C1       CG331   -0.170000       12.0110           0
     56071 WT18     865      MECN     H11      HGA3     0.090000        1.0080           0
     56072 WT18     865      MECN     H12      HGA3     0.090000        1.0080           0
     56073 WT18     865      MECN     H13      HGA3     0.090000        1.0080           0
     56074 WT18     865      MECN     C2       CG1N1    0.360000       12.0110           0
     56075 WT18     865      MECN     N3       NG1T1   -0.460000       14.0070           0
     56076 WT18     869      MECN     C1       CG331   -0.170000       12.0110           0
     56077 WT18     869      MECN     H11      HGA3     0.090000        1.0080           0
     56078 WT18     869      MECN     H12      HGA3     0.090000        1.0080           0
     56079 WT18     869      MECN     H13      HGA3     0.090000        1.0080           0
     56080 WT18     869      MECN     C2       CG1N1    0.360000       12.0110           0
     56081 WT18     869      MECN     N3       NG1T1   -0.460000       14.0070           0
     56082 WT18     870      MECN     C1       CG331   -0.170000       12.0110           0
     56083 WT18     870      MECN     H11      HGA3     0.090000        1.0080           0
     56084 WT18     870      MECN     H12      HGA3     0.090000        1.0080           0
     56085 WT18     870      MECN     H13      HGA3     0.090000        1.0080           0
     56086 WT18     870      MECN     C2       CG1N1    0.360000       12.0110           0
     56087 WT18     870      MECN     N3       NG1T1   -0.460000       14.0070           0
     56088 WT18     872      MECN     C1       CG331   -0.170000       12.0110           0
     56089 WT18     872      MECN     H11      HGA3     0.090000        1.0080           0
     56090 WT18     872      MECN     H12      HGA3     0.090000        1.0080           0
     56091 WT18     872      MECN     H13      HGA3     0.090000        1.0080           0
     56092 WT18     872      MECN     C2       CG1N1    0.360000       12.0110           0
     56093 WT18     872      MECN     N3       NG1T1   -0.460000       14.0070           0
     56094 WT18     873      MECN     C1       CG331   -0.170000       12.0110           0
     56095 WT18     873      MECN     H11      HGA3     0.090000        1.0080           0
     56096 WT18     873      MECN     H12      HGA3     0.090000        1.0080           0
     56097 WT18     873      MECN     H13      HGA3     0.090000        1.0080           0
     56098 WT18     873      MECN     C2       CG1N1    0.360000       12.0110           0
     56099 WT18     873      MECN     N3       NG1T1   -0.460000       14.0070           0
     56100 WT18     874      MECN     C1       CG331   -0.170000       12.0110           0
     56101 WT18     874      MECN     H11      HGA3     0.090000        1.0080           0
     56102 WT18     874      MECN     H12      HGA3     0.090000        1.0080           0
     56103 WT18     874      MECN     H13      HGA3     0.090000        1.0080           0
     56104 WT18     874      MECN     C2       CG1N1    0.360000       12.0110           0
     56105 WT18     874      MECN     N3       NG1T1   -0.460000       14.0070           0
     56106 WT18     876      MECN     C1       CG331   -0.170000       12.0110           0
     56107 WT18     876      MECN     H11      HGA3     0.090000        1.0080           0
     56108 WT18     876      MECN     H12      HGA3     0.090000        1.0080           0
     56109 WT18     876      MECN     H13      HGA3     0.090000        1.0080           0
     56110 WT18     876      MECN     C2       CG1N1    0.360000       12.0110           0
     56111 WT18     876      MECN     N3       NG1T1   -0.460000       14.0070           0
     56112 WT18     877      MECN     C1       CG331   -0.170000       12.0110           0
     56113 WT18     877      MECN     H11      HGA3     0.090000        1.0080           0
     56114 WT18     877      MECN     H12      HGA3     0.090000        1.0080           0
     56115 WT18     877      MECN     H13      HGA3     0.090000        1.0080           0
     56116 WT18     877      MECN     C2       CG1N1    0.360000       12.0110           0
     56117 WT18     877      MECN     N3       NG1T1   -0.460000       14.0070           0
     56118 WT18     878      MECN     C1       CG331   -0.170000       12.0110           0
     56119 WT18     878      MECN     H11      HGA3     0.090000        1.0080           0
     56120 WT18     878      MECN     H12      HGA3     0.090000        1.0080           0
     56121 WT18     878      MECN     H13      HGA3     0.090000        1.0080           0
     56122 WT18     878      MECN     C2       CG1N1    0.360000       12.0110           0
     56123 WT18     878      MECN     N3       NG1T1   -0.460000       14.0070           0
     56124 WT18     880      MECN     C1       CG331   -0.170000       12.0110           0
     56125 WT18     880      MECN     H11      HGA3     0.090000        1.0080           0
     56126 WT18     880      MECN     H12      HGA3     0.090000        1.0080           0
     56127 WT18     880      MECN     H13      HGA3     0.090000        1.0080           0
     56128 WT18     880      MECN     C2       CG1N1    0.360000       12.0110           0
     56129 WT18     880      MECN     N3       NG1T1   -0.460000       14.0070           0
     56130 WT18     881      MECN     C1       CG331   -0.170000       12.0110           0
     56131 WT18     881      MECN     H11      HGA3     0.090000        1.0080           0
     56132 WT18     881      MECN     H12      HGA3     0.090000        1.0080           0
     56133 WT18     881      MECN     H13      HGA3     0.090000        1.0080           0
     56134 WT18     881      MECN     C2       CG1N1    0.360000       12.0110           0
     56135 WT18     881      MECN     N3       NG1T1   -0.460000       14.0070           0
     56136 WT18     884      MECN     C1       CG331   -0.170000       12.0110           0
     56137 WT18     884      MECN     H11      HGA3     0.090000        1.0080           0
     56138 WT18     884      MECN     H12      HGA3     0.090000        1.0080           0
     56139 WT18     884      MECN     H13      HGA3     0.090000        1.0080           0
     56140 WT18     884      MECN     C2       CG1N1    0.360000       12.0110           0
     56141 WT18     884      MECN     N3       NG1T1   -0.460000       14.0070           0
     56142 WT18     885      MECN     C1       CG331   -0.170000       12.0110           0
     56143 WT18     885      MECN     H11      HGA3     0.090000        1.0080           0
     56144 WT18     885      MECN     H12      HGA3     0.090000        1.0080           0
     56145 WT18     885      MECN     H13      HGA3     0.090000        1.0080           0
     56146 WT18     885      MECN     C2       CG1N1    0.360000       12.0110           0
     56147 WT18     885      MECN     N3       NG1T1   -0.460000       14.0070           0
     56148 WT18     886      MECN     C1       CG331   -0.170000       12.0110           0
     56149 WT18     886      MECN     H11      HGA3     0.090000        1.0080           0
     56150 WT18     886      MECN     H12      HGA3     0.090000        1.0080           0
     56151 WT18     886      MECN     H13      HGA3     0.090000        1.0080           0
     56152 WT18     886      MECN     C2       CG1N1    0.360000       12.0110           0
     56153 WT18     886      MECN     N3       NG1T1   -0.460000       14.0070           0
     56154 WT18     901      MECN     C1       CG331   -0.170000       12.0110           0
     56155 WT18     901      MECN     H11      HGA3     0.090000        1.0080           0
     56156 WT18     901      MECN     H12      HGA3     0.090000        1.0080           0
     56157 WT18     901      MECN     H13      HGA3     0.090000        1.0080           0
     56158 WT18     901      MECN     C2       CG1N1    0.360000       12.0110           0
     56159 WT18     901      MECN     N3       NG1T1   -0.460000       14.0070           0
     56160 WT18     902      MECN     C1       CG331   -0.170000       12.0110           0
     56161 WT18     902      MECN     H11      HGA3     0.090000        1.0080           0
     56162 WT18     902      MECN     H12      HGA3     0.090000        1.0080           0
     56163 WT18     902      MECN     H13      HGA3     0.090000        1.0080           0
     56164 WT18     902      MECN     C2       CG1N1    0.360000       12.0110           0
     56165 WT18     902      MECN     N3       NG1T1   -0.460000       14.0070           0
     56166 WT18     903      MECN     C1       CG331   -0.170000       12.0110           0
     56167 WT18     903      MECN     H11      HGA3     0.090000        1.0080           0
     56168 WT18     903      MECN     H12      HGA3     0.090000        1.0080           0
     56169 WT18     903      MECN     H13      HGA3     0.090000        1.0080           0
     56170 WT18     903      MECN     C2       CG1N1    0.360000       12.0110           0
     56171 WT18     903      MECN     N3       NG1T1   -0.460000       14.0070           0
     56172 WT18     909      MECN     C1       CG331   -0.170000       12.0110           0
     56173 WT18     909      MECN     H11      HGA3     0.090000        1.0080           0
     56174 WT18     909      MECN     H12      HGA3     0.090000        1.0080           0
     56175 WT18     909      MECN     H13      HGA3     0.090000        1.0080           0
     56176 WT18     909      MECN     C2       CG1N1    0.360000       12.0110           0
     56177 WT18     909      MECN     N3       NG1T1   -0.460000       14.0070           0
     56178 WT18     911      MECN     C1       CG331   -0.170000       12.0110           0
     56179 WT18     911      MECN     H11      HGA3     0.090000        1.0080           0
     56180 WT18     911      MECN     H12      HGA3     0.090000        1.0080           0
     56181 WT18     911      MECN     H13      HGA3     0.090000        1.0080           0
     56182 WT18     911      MECN     C2       CG1N1    0.360000       12.0110           0
     56183 WT18     911      MECN     N3       NG1T1   -0.460000       14.0070           0
     56184 WT18     912      MECN     C1       CG331   -0.170000       12.0110           0
     56185 WT18     912      MECN     H11      HGA3     0.090000        1.0080           0
     56186 WT18     912      MECN     H12      HGA3     0.090000        1.0080           0
     56187 WT18     912      MECN     H13      HGA3     0.090000        1.0080           0
     56188 WT18     912      MECN     C2       CG1N1    0.360000       12.0110           0
     56189 WT18     912      MECN     N3       NG1T1   -0.460000       14.0070           0
     56190 WT18     913      MECN     C1       CG331   -0.170000       12.0110           0
     56191 WT18     913      MECN     H11      HGA3     0.090000        1.0080           0
     56192 WT18     913      MECN     H12      HGA3     0.090000        1.0080           0
     56193 WT18     913      MECN     H13      HGA3     0.090000        1.0080           0
     56194 WT18     913      MECN     C2       CG1N1    0.360000       12.0110           0
     56195 WT18     913      MECN     N3       NG1T1   -0.460000       14.0070           0
     56196 WT18     917      MECN     C1       CG331   -0.170000       12.0110           0
     56197 WT18     917      MECN     H11      HGA3     0.090000        1.0080           0
     56198 WT18     917      MECN     H12      HGA3     0.090000        1.0080           0
     56199 WT18     917      MECN     H13      HGA3     0.090000        1.0080           0
     56200 WT18     917      MECN     C2       CG1N1    0.360000       12.0110           0
     56201 WT18     917      MECN     N3       NG1T1   -0.460000       14.0070           0
     56202 WT18     921      MECN     C1       CG331   -0.170000       12.0110           0
     56203 WT18     921      MECN     H11      HGA3     0.090000        1.0080           0
     56204 WT18     921      MECN     H12      HGA3     0.090000        1.0080           0
     56205 WT18     921      MECN     H13      HGA3     0.090000        1.0080           0
     56206 WT18     921      MECN     C2       CG1N1    0.360000       12.0110           0
     56207 WT18     921      MECN     N3       NG1T1   -0.460000       14.0070           0
     56208 WT18     923      MECN     C1       CG331   -0.170000       12.0110           0
     56209 WT18     923      MECN     H11      HGA3     0.090000        1.0080           0
     56210 WT18     923      MECN     H12      HGA3     0.090000        1.0080           0
     56211 WT18     923      MECN     H13      HGA3     0.090000        1.0080           0
     56212 WT18     923      MECN     C2       CG1N1    0.360000       12.0110           0
     56213 WT18     923      MECN     N3       NG1T1   -0.460000       14.0070           0
     56214 WT18     927      MECN     C1       CG331   -0.170000       12.0110           0
     56215 WT18     927      MECN     H11      HGA3     0.090000        1.0080           0
     56216 WT18     927      MECN     H12      HGA3     0.090000        1.0080           0
     56217 WT18     927      MECN     H13      HGA3     0.090000        1.0080           0
     56218 WT18     927      MECN     C2       CG1N1    0.360000       12.0110           0
     56219 WT18     927      MECN     N3       NG1T1   -0.460000       14.0070           0
     56220 WT18     928      MECN     C1       CG331   -0.170000       12.0110           0
     56221 WT18     928      MECN     H11      HGA3     0.090000        1.0080           0
     56222 WT18     928      MECN     H12      HGA3     0.090000        1.0080           0
     56223 WT18     928      MECN     H13      HGA3     0.090000        1.0080           0
     56224 WT18     928      MECN     C2       CG1N1    0.360000       12.0110           0
     56225 WT18     928      MECN     N3       NG1T1   -0.460000       14.0070           0
     56226 WT18     929      MECN     C1       CG331   -0.170000       12.0110           0
     56227 WT18     929      MECN     H11      HGA3     0.090000        1.0080           0
     56228 WT18     929      MECN     H12      HGA3     0.090000        1.0080           0
     56229 WT18     929      MECN     H13      HGA3     0.090000        1.0080           0
     56230 WT18     929      MECN     C2       CG1N1    0.360000       12.0110           0
     56231 WT18     929      MECN     N3       NG1T1   -0.460000       14.0070           0
     56232 WT18     930      MECN     C1       CG331   -0.170000       12.0110           0
     56233 WT18     930      MECN     H11      HGA3     0.090000        1.0080           0
     56234 WT18     930      MECN     H12      HGA3     0.090000        1.0080           0
     56235 WT18     930      MECN     H13      HGA3     0.090000        1.0080           0
     56236 WT18     930      MECN     C2       CG1N1    0.360000       12.0110           0
     56237 WT18     930      MECN     N3       NG1T1   -0.460000       14.0070           0
     56238 WT18     931      MECN     C1       CG331   -0.170000       12.0110           0
     56239 WT18     931      MECN     H11      HGA3     0.090000        1.0080           0
     56240 WT18     931      MECN     H12      HGA3     0.090000        1.0080           0
     56241 WT18     931      MECN     H13      HGA3     0.090000        1.0080           0
     56242 WT18     931      MECN     C2       CG1N1    0.360000       12.0110           0
     56243 WT18     931      MECN     N3       NG1T1   -0.460000       14.0070           0
     56244 WT18     936      MECN     C1       CG331   -0.170000       12.0110           0
     56245 WT18     936      MECN     H11      HGA3     0.090000        1.0080           0
     56246 WT18     936      MECN     H12      HGA3     0.090000        1.0080           0
     56247 WT18     936      MECN     H13      HGA3     0.090000        1.0080           0
     56248 WT18     936      MECN     C2       CG1N1    0.360000       12.0110           0
     56249 WT18     936      MECN     N3       NG1T1   -0.460000       14.0070           0
     56250 WT18     937      MECN     C1       CG331   -0.170000       12.0110           0
     56251 WT18     937      MECN     H11      HGA3     0.090000        1.0080           0
     56252 WT18     937      MECN     H12      HGA3     0.090000        1.0080           0
     56253 WT18     937      MECN     H13      HGA3     0.090000        1.0080           0
     56254 WT18     937      MECN     C2       CG1N1    0.360000       12.0110           0
     56255 WT18     937      MECN     N3       NG1T1   -0.460000       14.0070           0
     56256 WT18     938      MECN     C1       CG331   -0.170000       12.0110           0
     56257 WT18     938      MECN     H11      HGA3     0.090000        1.0080           0
     56258 WT18     938      MECN     H12      HGA3     0.090000        1.0080           0
     56259 WT18     938      MECN     H13      HGA3     0.090000        1.0080           0
     56260 WT18     938      MECN     C2       CG1N1    0.360000       12.0110           0
     56261 WT18     938      MECN     N3       NG1T1   -0.460000       14.0070           0
     56262 WT18     940      MECN     C1       CG331   -0.170000       12.0110           0
     56263 WT18     940      MECN     H11      HGA3     0.090000        1.0080           0
     56264 WT18     940      MECN     H12      HGA3     0.090000        1.0080           0
     56265 WT18     940      MECN     H13      HGA3     0.090000        1.0080           0
     56266 WT18     940      MECN     C2       CG1N1    0.360000       12.0110           0
     56267 WT18     940      MECN     N3       NG1T1   -0.460000       14.0070           0
     56268 WT18     943      MECN     C1       CG331   -0.170000       12.0110           0
     56269 WT18     943      MECN     H11      HGA3     0.090000        1.0080           0
     56270 WT18     943      MECN     H12      HGA3     0.090000        1.0080           0
     56271 WT18     943      MECN     H13      HGA3     0.090000        1.0080           0
     56272 WT18     943      MECN     C2       CG1N1    0.360000       12.0110           0
     56273 WT18     943      MECN     N3       NG1T1   -0.460000       14.0070           0
     56274 WT18     944      MECN     C1       CG331   -0.170000       12.0110           0
     56275 WT18     944      MECN     H11      HGA3     0.090000        1.0080           0
     56276 WT18     944      MECN     H12      HGA3     0.090000        1.0080           0
     56277 WT18     944      MECN     H13      HGA3     0.090000        1.0080           0
     56278 WT18     944      MECN     C2       CG1N1    0.360000       12.0110           0
     56279 WT18     944      MECN     N3       NG1T1   -0.460000       14.0070           0
     56280 WT18     945      MECN     C1       CG331   -0.170000       12.0110           0
     56281 WT18     945      MECN     H11      HGA3     0.090000        1.0080           0
     56282 WT18     945      MECN     H12      HGA3     0.090000        1.0080           0
     56283 WT18     945      MECN     H13      HGA3     0.090000        1.0080           0
     56284 WT18     945      MECN     C2       CG1N1    0.360000       12.0110           0
     56285 WT18     945      MECN     N3       NG1T1   -0.460000       14.0070           0
     56286 WT18     946      MECN     C1       CG331   -0.170000       12.0110           0
     56287 WT18     946      MECN     H11      HGA3     0.090000        1.0080           0
     56288 WT18     946      MECN     H12      HGA3     0.090000        1.0080           0
     56289 WT18     946      MECN     H13      HGA3     0.090000        1.0080           0
     56290 WT18     946      MECN     C2       CG1N1    0.360000       12.0110           0
     56291 WT18     946      MECN     N3       NG1T1   -0.460000       14.0070           0
     56292 WT18     947      MECN     C1       CG331   -0.170000       12.0110           0
     56293 WT18     947      MECN     H11      HGA3     0.090000        1.0080           0
     56294 WT18     947      MECN     H12      HGA3     0.090000        1.0080           0
     56295 WT18     947      MECN     H13      HGA3     0.090000        1.0080           0
     56296 WT18     947      MECN     C2       CG1N1    0.360000       12.0110           0
     56297 WT18     947      MECN     N3       NG1T1   -0.460000       14.0070           0
     56298 WT18     948      MECN     C1       CG331   -0.170000       12.0110           0
     56299 WT18     948      MECN     H11      HGA3     0.090000        1.0080           0
     56300 WT18     948      MECN     H12      HGA3     0.090000        1.0080           0
     56301 WT18     948      MECN     H13      HGA3     0.090000        1.0080           0
     56302 WT18     948      MECN     C2       CG1N1    0.360000       12.0110           0
     56303 WT18     948      MECN     N3       NG1T1   -0.460000       14.0070           0
     56304 WT18     949      MECN     C1       CG331   -0.170000       12.0110           0
     56305 WT18     949      MECN     H11      HGA3     0.090000        1.0080           0
     56306 WT18     949      MECN     H12      HGA3     0.090000        1.0080           0
     56307 WT18     949      MECN     H13      HGA3     0.090000        1.0080           0
     56308 WT18     949      MECN     C2       CG1N1    0.360000       12.0110           0
     56309 WT18     949      MECN     N3       NG1T1   -0.460000       14.0070           0
     56310 WT18     950      MECN     C1       CG331   -0.170000       12.0110           0
     56311 WT18     950      MECN     H11      HGA3     0.090000        1.0080           0
     56312 WT18     950      MECN     H12      HGA3     0.090000        1.0080           0
     56313 WT18     950      MECN     H13      HGA3     0.090000        1.0080           0
     56314 WT18     950      MECN     C2       CG1N1    0.360000       12.0110           0
     56315 WT18     950      MECN     N3       NG1T1   -0.460000       14.0070           0
     56316 WT18     952      MECN     C1       CG331   -0.170000       12.0110           0
     56317 WT18     952      MECN     H11      HGA3     0.090000        1.0080           0
     56318 WT18     952      MECN     H12      HGA3     0.090000        1.0080           0
     56319 WT18     952      MECN     H13      HGA3     0.090000        1.0080           0
     56320 WT18     952      MECN     C2       CG1N1    0.360000       12.0110           0
     56321 WT18     952      MECN     N3       NG1T1   -0.460000       14.0070           0
     56322 WT18     953      MECN     C1       CG331   -0.170000       12.0110           0
     56323 WT18     953      MECN     H11      HGA3     0.090000        1.0080           0
     56324 WT18     953      MECN     H12      HGA3     0.090000        1.0080           0
     56325 WT18     953      MECN     H13      HGA3     0.090000        1.0080           0
     56326 WT18     953      MECN     C2       CG1N1    0.360000       12.0110           0
     56327 WT18     953      MECN     N3       NG1T1   -0.460000       14.0070           0
     56328 WT18     954      MECN     C1       CG331   -0.170000       12.0110           0
     56329 WT18     954      MECN     H11      HGA3     0.090000        1.0080           0
     56330 WT18     954      MECN     H12      HGA3     0.090000        1.0080           0
     56331 WT18     954      MECN     H13      HGA3     0.090000        1.0080           0
     56332 WT18     954      MECN     C2       CG1N1    0.360000       12.0110           0
     56333 WT18     954      MECN     N3       NG1T1   -0.460000       14.0070           0
     56334 WT18     955      MECN     C1       CG331   -0.170000       12.0110           0
     56335 WT18     955      MECN     H11      HGA3     0.090000        1.0080           0
     56336 WT18     955      MECN     H12      HGA3     0.090000        1.0080           0
     56337 WT18     955      MECN     H13      HGA3     0.090000        1.0080           0
     56338 WT18     955      MECN     C2       CG1N1    0.360000       12.0110           0
     56339 WT18     955      MECN     N3       NG1T1   -0.460000       14.0070           0
     56340 WT18     957      MECN     C1       CG331   -0.170000       12.0110           0
     56341 WT18     957      MECN     H11      HGA3     0.090000        1.0080           0
     56342 WT18     957      MECN     H12      HGA3     0.090000        1.0080           0
     56343 WT18     957      MECN     H13      HGA3     0.090000        1.0080           0
     56344 WT18     957      MECN     C2       CG1N1    0.360000       12.0110           0
     56345 WT18     957      MECN     N3       NG1T1   -0.460000       14.0070           0
     56346 WT18     958      MECN     C1       CG331   -0.170000       12.0110           0
     56347 WT18     958      MECN     H11      HGA3     0.090000        1.0080           0
     56348 WT18     958      MECN     H12      HGA3     0.090000        1.0080           0
     56349 WT18     958      MECN     H13      HGA3     0.090000        1.0080           0
     56350 WT18     958      MECN     C2       CG1N1    0.360000       12.0110           0
     56351 WT18     958      MECN     N3       NG1T1   -0.460000       14.0070           0
     56352 WT18     960      MECN     C1       CG331   -0.170000       12.0110           0
     56353 WT18     960      MECN     H11      HGA3     0.090000        1.0080           0
     56354 WT18     960      MECN     H12      HGA3     0.090000        1.0080           0
     56355 WT18     960      MECN     H13      HGA3     0.090000        1.0080           0
     56356 WT18     960      MECN     C2       CG1N1    0.360000       12.0110           0
     56357 WT18     960      MECN     N3       NG1T1   -0.460000       14.0070           0
     56358 WT18     962      MECN     C1       CG331   -0.170000       12.0110           0
     56359 WT18     962      MECN     H11      HGA3     0.090000        1.0080           0
     56360 WT18     962      MECN     H12      HGA3     0.090000        1.0080           0
     56361 WT18     962      MECN     H13      HGA3     0.090000        1.0080           0
     56362 WT18     962      MECN     C2       CG1N1    0.360000       12.0110           0
     56363 WT18     962      MECN     N3       NG1T1   -0.460000       14.0070           0
     56364 WT18     964      MECN     C1       CG331   -0.170000       12.0110           0
     56365 WT18     964      MECN     H11      HGA3     0.090000        1.0080           0
     56366 WT18     964      MECN     H12      HGA3     0.090000        1.0080           0
     56367 WT18     964      MECN     H13      HGA3     0.090000        1.0080           0
     56368 WT18     964      MECN     C2       CG1N1    0.360000       12.0110           0
     56369 WT18     964      MECN     N3       NG1T1   -0.460000       14.0070           0
     56370 WT18     965      MECN     C1       CG331   -0.170000       12.0110           0
     56371 WT18     965      MECN     H11      HGA3     0.090000        1.0080           0
     56372 WT18     965      MECN     H12      HGA3     0.090000        1.0080           0
     56373 WT18     965      MECN     H13      HGA3     0.090000        1.0080           0
     56374 WT18     965      MECN     C2       CG1N1    0.360000       12.0110           0
     56375 WT18     965      MECN     N3       NG1T1   -0.460000       14.0070           0
     56376 WT18     966      MECN     C1       CG331   -0.170000       12.0110           0
     56377 WT18     966      MECN     H11      HGA3     0.090000        1.0080           0
     56378 WT18     966      MECN     H12      HGA3     0.090000        1.0080           0
     56379 WT18     966      MECN     H13      HGA3     0.090000        1.0080           0
     56380 WT18     966      MECN     C2       CG1N1    0.360000       12.0110           0
     56381 WT18     966      MECN     N3       NG1T1   -0.460000       14.0070           0
     56382 WT18     969      MECN     C1       CG331   -0.170000       12.0110           0
     56383 WT18     969      MECN     H11      HGA3     0.090000        1.0080           0
     56384 WT18     969      MECN     H12      HGA3     0.090000        1.0080           0
     56385 WT18     969      MECN     H13      HGA3     0.090000        1.0080           0
     56386 WT18     969      MECN     C2       CG1N1    0.360000       12.0110           0
     56387 WT18     969      MECN     N3       NG1T1   -0.460000       14.0070           0
     56388 WT18     970      MECN     C1       CG331   -0.170000       12.0110           0
     56389 WT18     970      MECN     H11      HGA3     0.090000        1.0080           0
     56390 WT18     970      MECN     H12      HGA3     0.090000        1.0080           0
     56391 WT18     970      MECN     H13      HGA3     0.090000        1.0080           0
     56392 WT18     970      MECN     C2       CG1N1    0.360000       12.0110           0
     56393 WT18     970      MECN     N3       NG1T1   -0.460000       14.0070           0
     56394 WT18     971      MECN     C1       CG331   -0.170000       12.0110           0
     56395 WT18     971      MECN     H11      HGA3     0.090000        1.0080           0
     56396 WT18     971      MECN     H12      HGA3     0.090000        1.0080           0
     56397 WT18     971      MECN     H13      HGA3     0.090000        1.0080           0
     56398 WT18     971      MECN     C2       CG1N1    0.360000       12.0110           0
     56399 WT18     971      MECN     N3       NG1T1   -0.460000       14.0070           0
     56400 WT18     974      MECN     C1       CG331   -0.170000       12.0110           0
     56401 WT18     974      MECN     H11      HGA3     0.090000        1.0080           0
     56402 WT18     974      MECN     H12      HGA3     0.090000        1.0080           0
     56403 WT18     974      MECN     H13      HGA3     0.090000        1.0080           0
     56404 WT18     974      MECN     C2       CG1N1    0.360000       12.0110           0
     56405 WT18     974      MECN     N3       NG1T1   -0.460000       14.0070           0
     56406 WT18     975      MECN     C1       CG331   -0.170000       12.0110           0
     56407 WT18     975      MECN     H11      HGA3     0.090000        1.0080           0
     56408 WT18     975      MECN     H12      HGA3     0.090000        1.0080           0
     56409 WT18     975      MECN     H13      HGA3     0.090000        1.0080           0
     56410 WT18     975      MECN     C2       CG1N1    0.360000       12.0110           0
     56411 WT18     975      MECN     N3       NG1T1   -0.460000       14.0070           0
     56412 WT18     979      MECN     C1       CG331   -0.170000       12.0110           0
     56413 WT18     979      MECN     H11      HGA3     0.090000        1.0080           0
     56414 WT18     979      MECN     H12      HGA3     0.090000        1.0080           0
     56415 WT18     979      MECN     H13      HGA3     0.090000        1.0080           0
     56416 WT18     979      MECN     C2       CG1N1    0.360000       12.0110           0
     56417 WT18     979      MECN     N3       NG1T1   -0.460000       14.0070           0
     56418 WT18     980      MECN     C1       CG331   -0.170000       12.0110           0
     56419 WT18     980      MECN     H11      HGA3     0.090000        1.0080           0
     56420 WT18     980      MECN     H12      HGA3     0.090000        1.0080           0
     56421 WT18     980      MECN     H13      HGA3     0.090000        1.0080           0
     56422 WT18     980      MECN     C2       CG1N1    0.360000       12.0110           0
     56423 WT18     980      MECN     N3       NG1T1   -0.460000       14.0070           0
     56424 WT18     981      MECN     C1       CG331   -0.170000       12.0110           0
     56425 WT18     981      MECN     H11      HGA3     0.090000        1.0080           0
     56426 WT18     981      MECN     H12      HGA3     0.090000        1.0080           0
     56427 WT18     981      MECN     H13      HGA3     0.090000        1.0080           0
     56428 WT18     981      MECN     C2       CG1N1    0.360000       12.0110           0
     56429 WT18     981      MECN     N3       NG1T1   -0.460000       14.0070           0
     56430 WT18     984      MECN     C1       CG331   -0.170000       12.0110           0
     56431 WT18     984      MECN     H11      HGA3     0.090000        1.0080           0
     56432 WT18     984      MECN     H12      HGA3     0.090000        1.0080           0
     56433 WT18     984      MECN     H13      HGA3     0.090000        1.0080           0
     56434 WT18     984      MECN     C2       CG1N1    0.360000       12.0110           0
     56435 WT18     984      MECN     N3       NG1T1   -0.460000       14.0070           0
     56436 WT18     988      MECN     C1       CG331   -0.170000       12.0110           0
     56437 WT18     988      MECN     H11      HGA3     0.090000        1.0080           0
     56438 WT18     988      MECN     H12      HGA3     0.090000        1.0080           0
     56439 WT18     988      MECN     H13      HGA3     0.090000        1.0080           0
     56440 WT18     988      MECN     C2       CG1N1    0.360000       12.0110           0
     56441 WT18     988      MECN     N3       NG1T1   -0.460000       14.0070           0
     56442 WT18     993      MECN     C1       CG331   -0.170000       12.0110           0
     56443 WT18     993      MECN     H11      HGA3     0.090000        1.0080           0
     56444 WT18     993      MECN     H12      HGA3     0.090000        1.0080           0
     56445 WT18     993      MECN     H13      HGA3     0.090000        1.0080           0
     56446 WT18     993      MECN     C2       CG1N1    0.360000       12.0110           0
     56447 WT18     993      MECN     N3       NG1T1   -0.460000       14.0070           0
     56448 WT18     995      MECN     C1       CG331   -0.170000       12.0110           0
     56449 WT18     995      MECN     H11      HGA3     0.090000        1.0080           0
     56450 WT18     995      MECN     H12      HGA3     0.090000        1.0080           0
     56451 WT18     995      MECN     H13      HGA3     0.090000        1.0080           0
     56452 WT18     995      MECN     C2       CG1N1    0.360000       12.0110           0
     56453 WT18     995      MECN     N3       NG1T1   -0.460000       14.0070           0
     56454 WT18     996      MECN     C1       CG331   -0.170000       12.0110           0
     56455 WT18     996      MECN     H11      HGA3     0.090000        1.0080           0
     56456 WT18     996      MECN     H12      HGA3     0.090000        1.0080           0
     56457 WT18     996      MECN     H13      HGA3     0.090000        1.0080           0
     56458 WT18     996      MECN     C2       CG1N1    0.360000       12.0110           0
     56459 WT18     996      MECN     N3       NG1T1   -0.460000       14.0070           0
     56460 WT18     997      MECN     C1       CG331   -0.170000       12.0110           0
     56461 WT18     997      MECN     H11      HGA3     0.090000        1.0080           0
     56462 WT18     997      MECN     H12      HGA3     0.090000        1.0080           0
     56463 WT18     997      MECN     H13      HGA3     0.090000        1.0080           0
     56464 WT18     997      MECN     C2       CG1N1    0.360000       12.0110           0
     56465 WT18     997      MECN     N3       NG1T1   -0.460000       14.0070           0
     56466 WT18     998      MECN     C1       CG331   -0.170000       12.0110           0
     56467 WT18     998      MECN     H11      HGA3     0.090000        1.0080           0
     56468 WT18     998      MECN     H12      HGA3     0.090000        1.0080           0
     56469 WT18     998      MECN     H13      HGA3     0.090000        1.0080           0
     56470 WT18     998      MECN     C2       CG1N1    0.360000       12.0110           0
     56471 WT18     998      MECN     N3       NG1T1   -0.460000       14.0070           0
     56472 WT18     999      MECN     C1       CG331   -0.170000       12.0110           0
     56473 WT18     999      MECN     H11      HGA3     0.090000        1.0080           0
     56474 WT18     999      MECN     H12      HGA3     0.090000        1.0080           0
     56475 WT18     999      MECN     H13      HGA3     0.090000        1.0080           0
     56476 WT18     999      MECN     C2       CG1N1    0.360000       12.0110           0
     56477 WT18     999      MECN     N3       NG1T1   -0.460000       14.0070           0
     56478 WT18     1002     MECN     C1       CG331   -0.170000       12.0110           0
     56479 WT18     1002     MECN     H11      HGA3     0.090000        1.0080           0
     56480 WT18     1002     MECN     H12      HGA3     0.090000        1.0080           0
     56481 WT18     1002     MECN     H13      HGA3     0.090000        1.0080           0
     56482 WT18     1002     MECN     C2       CG1N1    0.360000       12.0110           0
     56483 WT18     1002     MECN     N3       NG1T1   -0.460000       14.0070           0
     56484 WT18     1004     MECN     C1       CG331   -0.170000       12.0110           0
     56485 WT18     1004     MECN     H11      HGA3     0.090000        1.0080           0
     56486 WT18     1004     MECN     H12      HGA3     0.090000        1.0080           0
     56487 WT18     1004     MECN     H13      HGA3     0.090000        1.0080           0
     56488 WT18     1004     MECN     C2       CG1N1    0.360000       12.0110           0
     56489 WT18     1004     MECN     N3       NG1T1   -0.460000       14.0070           0
     56490 WT18     1007     MECN     C1       CG331   -0.170000       12.0110           0
     56491 WT18     1007     MECN     H11      HGA3     0.090000        1.0080           0
     56492 WT18     1007     MECN     H12      HGA3     0.090000        1.0080           0
     56493 WT18     1007     MECN     H13      HGA3     0.090000        1.0080           0
     56494 WT18     1007     MECN     C2       CG1N1    0.360000       12.0110           0
     56495 WT18     1007     MECN     N3       NG1T1   -0.460000       14.0070           0
     56496 WT18     1009     MECN     C1       CG331   -0.170000       12.0110           0
     56497 WT18     1009     MECN     H11      HGA3     0.090000        1.0080           0
     56498 WT18     1009     MECN     H12      HGA3     0.090000        1.0080           0
     56499 WT18     1009     MECN     H13      HGA3     0.090000        1.0080           0
     56500 WT18     1009     MECN     C2       CG1N1    0.360000       12.0110           0
     56501 WT18     1009     MECN     N3       NG1T1   -0.460000       14.0070           0
     56502 WT18     1011     MECN     C1       CG331   -0.170000       12.0110           0
     56503 WT18     1011     MECN     H11      HGA3     0.090000        1.0080           0
     56504 WT18     1011     MECN     H12      HGA3     0.090000        1.0080           0
     56505 WT18     1011     MECN     H13      HGA3     0.090000        1.0080           0
     56506 WT18     1011     MECN     C2       CG1N1    0.360000       12.0110           0
     56507 WT18     1011     MECN     N3       NG1T1   -0.460000       14.0070           0
     56508 WT18     1013     MECN     C1       CG331   -0.170000       12.0110           0
     56509 WT18     1013     MECN     H11      HGA3     0.090000        1.0080           0
     56510 WT18     1013     MECN     H12      HGA3     0.090000        1.0080           0
     56511 WT18     1013     MECN     H13      HGA3     0.090000        1.0080           0
     56512 WT18     1013     MECN     C2       CG1N1    0.360000       12.0110           0
     56513 WT18     1013     MECN     N3       NG1T1   -0.460000       14.0070           0
     56514 WT18     1014     MECN     C1       CG331   -0.170000       12.0110           0
     56515 WT18     1014     MECN     H11      HGA3     0.090000        1.0080           0
     56516 WT18     1014     MECN     H12      HGA3     0.090000        1.0080           0
     56517 WT18     1014     MECN     H13      HGA3     0.090000        1.0080           0
     56518 WT18     1014     MECN     C2       CG1N1    0.360000       12.0110           0
     56519 WT18     1014     MECN     N3       NG1T1   -0.460000       14.0070           0
     56520 WT18     1015     MECN     C1       CG331   -0.170000       12.0110           0
     56521 WT18     1015     MECN     H11      HGA3     0.090000        1.0080           0
     56522 WT18     1015     MECN     H12      HGA3     0.090000        1.0080           0
     56523 WT18     1015     MECN     H13      HGA3     0.090000        1.0080           0
     56524 WT18     1015     MECN     C2       CG1N1    0.360000       12.0110           0
     56525 WT18     1015     MECN     N3       NG1T1   -0.460000       14.0070           0
     56526 WT18     1018     MECN     C1       CG331   -0.170000       12.0110           0
     56527 WT18     1018     MECN     H11      HGA3     0.090000        1.0080           0
     56528 WT18     1018     MECN     H12      HGA3     0.090000        1.0080           0
     56529 WT18     1018     MECN     H13      HGA3     0.090000        1.0080           0
     56530 WT18     1018     MECN     C2       CG1N1    0.360000       12.0110           0
     56531 WT18     1018     MECN     N3       NG1T1   -0.460000       14.0070           0
     56532 WT18     1022     MECN     C1       CG331   -0.170000       12.0110           0
     56533 WT18     1022     MECN     H11      HGA3     0.090000        1.0080           0
     56534 WT18     1022     MECN     H12      HGA3     0.090000        1.0080           0
     56535 WT18     1022     MECN     H13      HGA3     0.090000        1.0080           0
     56536 WT18     1022     MECN     C2       CG1N1    0.360000       12.0110           0
     56537 WT18     1022     MECN     N3       NG1T1   -0.460000       14.0070           0
     56538 WT18     1024     MECN     C1       CG331   -0.170000       12.0110           0
     56539 WT18     1024     MECN     H11      HGA3     0.090000        1.0080           0
     56540 WT18     1024     MECN     H12      HGA3     0.090000        1.0080           0
     56541 WT18     1024     MECN     H13      HGA3     0.090000        1.0080           0
     56542 WT18     1024     MECN     C2       CG1N1    0.360000       12.0110           0
     56543 WT18     1024     MECN     N3       NG1T1   -0.460000       14.0070           0
     56544 WT18     1026     MECN     C1       CG331   -0.170000       12.0110           0
     56545 WT18     1026     MECN     H11      HGA3     0.090000        1.0080           0
     56546 WT18     1026     MECN     H12      HGA3     0.090000        1.0080           0
     56547 WT18     1026     MECN     H13      HGA3     0.090000        1.0080           0
     56548 WT18     1026     MECN     C2       CG1N1    0.360000       12.0110           0
     56549 WT18     1026     MECN     N3       NG1T1   -0.460000       14.0070           0
     56550 WT18     1028     MECN     C1       CG331   -0.170000       12.0110           0
     56551 WT18     1028     MECN     H11      HGA3     0.090000        1.0080           0
     56552 WT18     1028     MECN     H12      HGA3     0.090000        1.0080           0
     56553 WT18     1028     MECN     H13      HGA3     0.090000        1.0080           0
     56554 WT18     1028     MECN     C2       CG1N1    0.360000       12.0110           0
     56555 WT18     1028     MECN     N3       NG1T1   -0.460000       14.0070           0
     56556 WT18     1031     MECN     C1       CG331   -0.170000       12.0110           0
     56557 WT18     1031     MECN     H11      HGA3     0.090000        1.0080           0
     56558 WT18     1031     MECN     H12      HGA3     0.090000        1.0080           0
     56559 WT18     1031     MECN     H13      HGA3     0.090000        1.0080           0
     56560 WT18     1031     MECN     C2       CG1N1    0.360000       12.0110           0
     56561 WT18     1031     MECN     N3       NG1T1   -0.460000       14.0070           0
     56562 WT18     1032     MECN     C1       CG331   -0.170000       12.0110           0
     56563 WT18     1032     MECN     H11      HGA3     0.090000        1.0080           0
     56564 WT18     1032     MECN     H12      HGA3     0.090000        1.0080           0
     56565 WT18     1032     MECN     H13      HGA3     0.090000        1.0080           0
     56566 WT18     1032     MECN     C2       CG1N1    0.360000       12.0110           0
     56567 WT18     1032     MECN     N3       NG1T1   -0.460000       14.0070           0
     56568 WT18     1035     MECN     C1       CG331   -0.170000       12.0110           0
     56569 WT18     1035     MECN     H11      HGA3     0.090000        1.0080           0
     56570 WT18     1035     MECN     H12      HGA3     0.090000        1.0080           0
     56571 WT18     1035     MECN     H13      HGA3     0.090000        1.0080           0
     56572 WT18     1035     MECN     C2       CG1N1    0.360000       12.0110           0
     56573 WT18     1035     MECN     N3       NG1T1   -0.460000       14.0070           0
     56574 WT18     1036     MECN     C1       CG331   -0.170000       12.0110           0
     56575 WT18     1036     MECN     H11      HGA3     0.090000        1.0080           0
     56576 WT18     1036     MECN     H12      HGA3     0.090000        1.0080           0
     56577 WT18     1036     MECN     H13      HGA3     0.090000        1.0080           0
     56578 WT18     1036     MECN     C2       CG1N1    0.360000       12.0110           0
     56579 WT18     1036     MECN     N3       NG1T1   -0.460000       14.0070           0
     56580 WT18     1037     MECN     C1       CG331   -0.170000       12.0110           0
     56581 WT18     1037     MECN     H11      HGA3     0.090000        1.0080           0
     56582 WT18     1037     MECN     H12      HGA3     0.090000        1.0080           0
     56583 WT18     1037     MECN     H13      HGA3     0.090000        1.0080           0
     56584 WT18     1037     MECN     C2       CG1N1    0.360000       12.0110           0
     56585 WT18     1037     MECN     N3       NG1T1   -0.460000       14.0070           0
     56586 WT18     1038     MECN     C1       CG331   -0.170000       12.0110           0
     56587 WT18     1038     MECN     H11      HGA3     0.090000        1.0080           0
     56588 WT18     1038     MECN     H12      HGA3     0.090000        1.0080           0
     56589 WT18     1038     MECN     H13      HGA3     0.090000        1.0080           0
     56590 WT18     1038     MECN     C2       CG1N1    0.360000       12.0110           0
     56591 WT18     1038     MECN     N3       NG1T1   -0.460000       14.0070           0
     56592 WT18     1041     MECN     C1       CG331   -0.170000       12.0110           0
     56593 WT18     1041     MECN     H11      HGA3     0.090000        1.0080           0
     56594 WT18     1041     MECN     H12      HGA3     0.090000        1.0080           0
     56595 WT18     1041     MECN     H13      HGA3     0.090000        1.0080           0
     56596 WT18     1041     MECN     C2       CG1N1    0.360000       12.0110           0
     56597 WT18     1041     MECN     N3       NG1T1   -0.460000       14.0070           0
     56598 WT18     1042     MECN     C1       CG331   -0.170000       12.0110           0
     56599 WT18     1042     MECN     H11      HGA3     0.090000        1.0080           0
     56600 WT18     1042     MECN     H12      HGA3     0.090000        1.0080           0
     56601 WT18     1042     MECN     H13      HGA3     0.090000        1.0080           0
     56602 WT18     1042     MECN     C2       CG1N1    0.360000       12.0110           0
     56603 WT18     1042     MECN     N3       NG1T1   -0.460000       14.0070           0
     56604 WT18     1044     MECN     C1       CG331   -0.170000       12.0110           0
     56605 WT18     1044     MECN     H11      HGA3     0.090000        1.0080           0
     56606 WT18     1044     MECN     H12      HGA3     0.090000        1.0080           0
     56607 WT18     1044     MECN     H13      HGA3     0.090000        1.0080           0
     56608 WT18     1044     MECN     C2       CG1N1    0.360000       12.0110           0
     56609 WT18     1044     MECN     N3       NG1T1   -0.460000       14.0070           0
     56610 WT18     1045     MECN     C1       CG331   -0.170000       12.0110           0
     56611 WT18     1045     MECN     H11      HGA3     0.090000        1.0080           0
     56612 WT18     1045     MECN     H12      HGA3     0.090000        1.0080           0
     56613 WT18     1045     MECN     H13      HGA3     0.090000        1.0080           0
     56614 WT18     1045     MECN     C2       CG1N1    0.360000       12.0110           0
     56615 WT18     1045     MECN     N3       NG1T1   -0.460000       14.0070           0
     56616 WT18     1046     MECN     C1       CG331   -0.170000       12.0110           0
     56617 WT18     1046     MECN     H11      HGA3     0.090000        1.0080           0
     56618 WT18     1046     MECN     H12      HGA3     0.090000        1.0080           0
     56619 WT18     1046     MECN     H13      HGA3     0.090000        1.0080           0
     56620 WT18     1046     MECN     C2       CG1N1    0.360000       12.0110           0
     56621 WT18     1046     MECN     N3       NG1T1   -0.460000       14.0070           0
     56622 WT18     1047     MECN     C1       CG331   -0.170000       12.0110           0
     56623 WT18     1047     MECN     H11      HGA3     0.090000        1.0080           0
     56624 WT18     1047     MECN     H12      HGA3     0.090000        1.0080           0
     56625 WT18     1047     MECN     H13      HGA3     0.090000        1.0080           0
     56626 WT18     1047     MECN     C2       CG1N1    0.360000       12.0110           0
     56627 WT18     1047     MECN     N3       NG1T1   -0.460000       14.0070           0
     56628 WT18     1049     MECN     C1       CG331   -0.170000       12.0110           0
     56629 WT18     1049     MECN     H11      HGA3     0.090000        1.0080           0
     56630 WT18     1049     MECN     H12      HGA3     0.090000        1.0080           0
     56631 WT18     1049     MECN     H13      HGA3     0.090000        1.0080           0
     56632 WT18     1049     MECN     C2       CG1N1    0.360000       12.0110           0
     56633 WT18     1049     MECN     N3       NG1T1   -0.460000       14.0070           0
     56634 WT18     1056     MECN     C1       CG331   -0.170000       12.0110           0
     56635 WT18     1056     MECN     H11      HGA3     0.090000        1.0080           0
     56636 WT18     1056     MECN     H12      HGA3     0.090000        1.0080           0
     56637 WT18     1056     MECN     H13      HGA3     0.090000        1.0080           0
     56638 WT18     1056     MECN     C2       CG1N1    0.360000       12.0110           0
     56639 WT18     1056     MECN     N3       NG1T1   -0.460000       14.0070           0
     56640 WT18     1059     MECN     C1       CG331   -0.170000       12.0110           0
     56641 WT18     1059     MECN     H11      HGA3     0.090000        1.0080           0
     56642 WT18     1059     MECN     H12      HGA3     0.090000        1.0080           0
     56643 WT18     1059     MECN     H13      HGA3     0.090000        1.0080           0
     56644 WT18     1059     MECN     C2       CG1N1    0.360000       12.0110           0
     56645 WT18     1059     MECN     N3       NG1T1   -0.460000       14.0070           0
     56646 WT18     1064     MECN     C1       CG331   -0.170000       12.0110           0
     56647 WT18     1064     MECN     H11      HGA3     0.090000        1.0080           0
     56648 WT18     1064     MECN     H12      HGA3     0.090000        1.0080           0
     56649 WT18     1064     MECN     H13      HGA3     0.090000        1.0080           0
     56650 WT18     1064     MECN     C2       CG1N1    0.360000       12.0110           0
     56651 WT18     1064     MECN     N3       NG1T1   -0.460000       14.0070           0
     56652 WT18     1065     MECN     C1       CG331   -0.170000       12.0110           0
     56653 WT18     1065     MECN     H11      HGA3     0.090000        1.0080           0
     56654 WT18     1065     MECN     H12      HGA3     0.090000        1.0080           0
     56655 WT18     1065     MECN     H13      HGA3     0.090000        1.0080           0
     56656 WT18     1065     MECN     C2       CG1N1    0.360000       12.0110           0
     56657 WT18     1065     MECN     N3       NG1T1   -0.460000       14.0070           0
     56658 WT18     1066     MECN     C1       CG331   -0.170000       12.0110           0
     56659 WT18     1066     MECN     H11      HGA3     0.090000        1.0080           0
     56660 WT18     1066     MECN     H12      HGA3     0.090000        1.0080           0
     56661 WT18     1066     MECN     H13      HGA3     0.090000        1.0080           0
     56662 WT18     1066     MECN     C2       CG1N1    0.360000       12.0110           0
     56663 WT18     1066     MECN     N3       NG1T1   -0.460000       14.0070           0
     56664 WT18     1067     MECN     C1       CG331   -0.170000       12.0110           0
     56665 WT18     1067     MECN     H11      HGA3     0.090000        1.0080           0
     56666 WT18     1067     MECN     H12      HGA3     0.090000        1.0080           0
     56667 WT18     1067     MECN     H13      HGA3     0.090000        1.0080           0
     56668 WT18     1067     MECN     C2       CG1N1    0.360000       12.0110           0
     56669 WT18     1067     MECN     N3       NG1T1   -0.460000       14.0070           0
     56670 WT18     1068     MECN     C1       CG331   -0.170000       12.0110           0
     56671 WT18     1068     MECN     H11      HGA3     0.090000        1.0080           0
     56672 WT18     1068     MECN     H12      HGA3     0.090000        1.0080           0
     56673 WT18     1068     MECN     H13      HGA3     0.090000        1.0080           0
     56674 WT18     1068     MECN     C2       CG1N1    0.360000       12.0110           0
     56675 WT18     1068     MECN     N3       NG1T1   -0.460000       14.0070           0
     56676 WT18     1069     MECN     C1       CG331   -0.170000       12.0110           0
     56677 WT18     1069     MECN     H11      HGA3     0.090000        1.0080           0
     56678 WT18     1069     MECN     H12      HGA3     0.090000        1.0080           0
     56679 WT18     1069     MECN     H13      HGA3     0.090000        1.0080           0
     56680 WT18     1069     MECN     C2       CG1N1    0.360000       12.0110           0
     56681 WT18     1069     MECN     N3       NG1T1   -0.460000       14.0070           0
     56682 WT18     1073     MECN     C1       CG331   -0.170000       12.0110           0
     56683 WT18     1073     MECN     H11      HGA3     0.090000        1.0080           0
     56684 WT18     1073     MECN     H12      HGA3     0.090000        1.0080           0
     56685 WT18     1073     MECN     H13      HGA3     0.090000        1.0080           0
     56686 WT18     1073     MECN     C2       CG1N1    0.360000       12.0110           0
     56687 WT18     1073     MECN     N3       NG1T1   -0.460000       14.0070           0
     56688 WT18     1074     MECN     C1       CG331   -0.170000       12.0110           0
     56689 WT18     1074     MECN     H11      HGA3     0.090000        1.0080           0
     56690 WT18     1074     MECN     H12      HGA3     0.090000        1.0080           0
     56691 WT18     1074     MECN     H13      HGA3     0.090000        1.0080           0
     56692 WT18     1074     MECN     C2       CG1N1    0.360000       12.0110           0
     56693 WT18     1074     MECN     N3       NG1T1   -0.460000       14.0070           0
     56694 WT18     1076     MECN     C1       CG331   -0.170000       12.0110           0
     56695 WT18     1076     MECN     H11      HGA3     0.090000        1.0080           0
     56696 WT18     1076     MECN     H12      HGA3     0.090000        1.0080           0
     56697 WT18     1076     MECN     H13      HGA3     0.090000        1.0080           0
     56698 WT18     1076     MECN     C2       CG1N1    0.360000       12.0110           0
     56699 WT18     1076     MECN     N3       NG1T1   -0.460000       14.0070           0
     56700 WT18     1078     MECN     C1       CG331   -0.170000       12.0110           0
     56701 WT18     1078     MECN     H11      HGA3     0.090000        1.0080           0
     56702 WT18     1078     MECN     H12      HGA3     0.090000        1.0080           0
     56703 WT18     1078     MECN     H13      HGA3     0.090000        1.0080           0
     56704 WT18     1078     MECN     C2       CG1N1    0.360000       12.0110           0
     56705 WT18     1078     MECN     N3       NG1T1   -0.460000       14.0070           0
     56706 WT18     1079     MECN     C1       CG331   -0.170000       12.0110           0
     56707 WT18     1079     MECN     H11      HGA3     0.090000        1.0080           0
     56708 WT18     1079     MECN     H12      HGA3     0.090000        1.0080           0
     56709 WT18     1079     MECN     H13      HGA3     0.090000        1.0080           0
     56710 WT18     1079     MECN     C2       CG1N1    0.360000       12.0110           0
     56711 WT18     1079     MECN     N3       NG1T1   -0.460000       14.0070           0
     56712 WT18     1086     MECN     C1       CG331   -0.170000       12.0110           0
     56713 WT18     1086     MECN     H11      HGA3     0.090000        1.0080           0
     56714 WT18     1086     MECN     H12      HGA3     0.090000        1.0080           0
     56715 WT18     1086     MECN     H13      HGA3     0.090000        1.0080           0
     56716 WT18     1086     MECN     C2       CG1N1    0.360000       12.0110           0
     56717 WT18     1086     MECN     N3       NG1T1   -0.460000       14.0070           0
     56718 WT18     1089     MECN     C1       CG331   -0.170000       12.0110           0
     56719 WT18     1089     MECN     H11      HGA3     0.090000        1.0080           0
     56720 WT18     1089     MECN     H12      HGA3     0.090000        1.0080           0
     56721 WT18     1089     MECN     H13      HGA3     0.090000        1.0080           0
     56722 WT18     1089     MECN     C2       CG1N1    0.360000       12.0110           0
     56723 WT18     1089     MECN     N3       NG1T1   -0.460000       14.0070           0
     56724 WT18     1090     MECN     C1       CG331   -0.170000       12.0110           0
     56725 WT18     1090     MECN     H11      HGA3     0.090000        1.0080           0
     56726 WT18     1090     MECN     H12      HGA3     0.090000        1.0080           0
     56727 WT18     1090     MECN     H13      HGA3     0.090000        1.0080           0
     56728 WT18     1090     MECN     C2       CG1N1    0.360000       12.0110           0
     56729 WT18     1090     MECN     N3       NG1T1   -0.460000       14.0070           0
     56730 WT18     1097     MECN     C1       CG331   -0.170000       12.0110           0
     56731 WT18     1097     MECN     H11      HGA3     0.090000        1.0080           0
     56732 WT18     1097     MECN     H12      HGA3     0.090000        1.0080           0
     56733 WT18     1097     MECN     H13      HGA3     0.090000        1.0080           0
     56734 WT18     1097     MECN     C2       CG1N1    0.360000       12.0110           0
     56735 WT18     1097     MECN     N3       NG1T1   -0.460000       14.0070           0
     56736 WT18     1100     MECN     C1       CG331   -0.170000       12.0110           0
     56737 WT18     1100     MECN     H11      HGA3     0.090000        1.0080           0
     56738 WT18     1100     MECN     H12      HGA3     0.090000        1.0080           0
     56739 WT18     1100     MECN     H13      HGA3     0.090000        1.0080           0
     56740 WT18     1100     MECN     C2       CG1N1    0.360000       12.0110           0
     56741 WT18     1100     MECN     N3       NG1T1   -0.460000       14.0070           0
     56742 WT18     1102     MECN     C1       CG331   -0.170000       12.0110           0
     56743 WT18     1102     MECN     H11      HGA3     0.090000        1.0080           0
     56744 WT18     1102     MECN     H12      HGA3     0.090000        1.0080           0
     56745 WT18     1102     MECN     H13      HGA3     0.090000        1.0080           0
     56746 WT18     1102     MECN     C2       CG1N1    0.360000       12.0110           0
     56747 WT18     1102     MECN     N3       NG1T1   -0.460000       14.0070           0
     56748 WT18     1103     MECN     C1       CG331   -0.170000       12.0110           0
     56749 WT18     1103     MECN     H11      HGA3     0.090000        1.0080           0
     56750 WT18     1103     MECN     H12      HGA3     0.090000        1.0080           0
     56751 WT18     1103     MECN     H13      HGA3     0.090000        1.0080           0
     56752 WT18     1103     MECN     C2       CG1N1    0.360000       12.0110           0
     56753 WT18     1103     MECN     N3       NG1T1   -0.460000       14.0070           0
     56754 WT18     1104     MECN     C1       CG331   -0.170000       12.0110           0
     56755 WT18     1104     MECN     H11      HGA3     0.090000        1.0080           0
     56756 WT18     1104     MECN     H12      HGA3     0.090000        1.0080           0
     56757 WT18     1104     MECN     H13      HGA3     0.090000        1.0080           0
     56758 WT18     1104     MECN     C2       CG1N1    0.360000       12.0110           0
     56759 WT18     1104     MECN     N3       NG1T1   -0.460000       14.0070           0
     56760 WT18     1105     MECN     C1       CG331   -0.170000       12.0110           0
     56761 WT18     1105     MECN     H11      HGA3     0.090000        1.0080           0
     56762 WT18     1105     MECN     H12      HGA3     0.090000        1.0080           0
     56763 WT18     1105     MECN     H13      HGA3     0.090000        1.0080           0
     56764 WT18     1105     MECN     C2       CG1N1    0.360000       12.0110           0
     56765 WT18     1105     MECN     N3       NG1T1   -0.460000       14.0070           0
     56766 WT18     1108     MECN     C1       CG331   -0.170000       12.0110           0
     56767 WT18     1108     MECN     H11      HGA3     0.090000        1.0080           0
     56768 WT18     1108     MECN     H12      HGA3     0.090000        1.0080           0
     56769 WT18     1108     MECN     H13      HGA3     0.090000        1.0080           0
     56770 WT18     1108     MECN     C2       CG1N1    0.360000       12.0110           0
     56771 WT18     1108     MECN     N3       NG1T1   -0.460000       14.0070           0
     56772 WT18     1111     MECN     C1       CG331   -0.170000       12.0110           0
     56773 WT18     1111     MECN     H11      HGA3     0.090000        1.0080           0
     56774 WT18     1111     MECN     H12      HGA3     0.090000        1.0080           0
     56775 WT18     1111     MECN     H13      HGA3     0.090000        1.0080           0
     56776 WT18     1111     MECN     C2       CG1N1    0.360000       12.0110           0
     56777 WT18     1111     MECN     N3       NG1T1   -0.460000       14.0070           0
     56778 WT18     1114     MECN     C1       CG331   -0.170000       12.0110           0
     56779 WT18     1114     MECN     H11      HGA3     0.090000        1.0080           0
     56780 WT18     1114     MECN     H12      HGA3     0.090000        1.0080           0
     56781 WT18     1114     MECN     H13      HGA3     0.090000        1.0080           0
     56782 WT18     1114     MECN     C2       CG1N1    0.360000       12.0110           0
     56783 WT18     1114     MECN     N3       NG1T1   -0.460000       14.0070           0
     56784 WT18     1116     MECN     C1       CG331   -0.170000       12.0110           0
     56785 WT18     1116     MECN     H11      HGA3     0.090000        1.0080           0
     56786 WT18     1116     MECN     H12      HGA3     0.090000        1.0080           0
     56787 WT18     1116     MECN     H13      HGA3     0.090000        1.0080           0
     56788 WT18     1116     MECN     C2       CG1N1    0.360000       12.0110           0
     56789 WT18     1116     MECN     N3       NG1T1   -0.460000       14.0070           0
     56790 WT18     1117     MECN     C1       CG331   -0.170000       12.0110           0
     56791 WT18     1117     MECN     H11      HGA3     0.090000        1.0080           0
     56792 WT18     1117     MECN     H12      HGA3     0.090000        1.0080           0
     56793 WT18     1117     MECN     H13      HGA3     0.090000        1.0080           0
     56794 WT18     1117     MECN     C2       CG1N1    0.360000       12.0110           0
     56795 WT18     1117     MECN     N3       NG1T1   -0.460000       14.0070           0
     56796 WT18     1118     MECN     C1       CG331   -0.170000       12.0110           0
     56797 WT18     1118     MECN     H11      HGA3     0.090000        1.0080           0
     56798 WT18     1118     MECN     H12      HGA3     0.090000        1.0080           0
     56799 WT18     1118     MECN     H13      HGA3     0.090000        1.0080           0
     56800 WT18     1118     MECN     C2       CG1N1    0.360000       12.0110           0
     56801 WT18     1118     MECN     N3       NG1T1   -0.460000       14.0070           0
     56802 WT18     1119     MECN     C1       CG331   -0.170000       12.0110           0
     56803 WT18     1119     MECN     H11      HGA3     0.090000        1.0080           0
     56804 WT18     1119     MECN     H12      HGA3     0.090000        1.0080           0
     56805 WT18     1119     MECN     H13      HGA3     0.090000        1.0080           0
     56806 WT18     1119     MECN     C2       CG1N1    0.360000       12.0110           0
     56807 WT18     1119     MECN     N3       NG1T1   -0.460000       14.0070           0
     56808 WT18     1122     MECN     C1       CG331   -0.170000       12.0110           0
     56809 WT18     1122     MECN     H11      HGA3     0.090000        1.0080           0
     56810 WT18     1122     MECN     H12      HGA3     0.090000        1.0080           0
     56811 WT18     1122     MECN     H13      HGA3     0.090000        1.0080           0
     56812 WT18     1122     MECN     C2       CG1N1    0.360000       12.0110           0
     56813 WT18     1122     MECN     N3       NG1T1   -0.460000       14.0070           0
     56814 WT18     1124     MECN     C1       CG331   -0.170000       12.0110           0
     56815 WT18     1124     MECN     H11      HGA3     0.090000        1.0080           0
     56816 WT18     1124     MECN     H12      HGA3     0.090000        1.0080           0
     56817 WT18     1124     MECN     H13      HGA3     0.090000        1.0080           0
     56818 WT18     1124     MECN     C2       CG1N1    0.360000       12.0110           0
     56819 WT18     1124     MECN     N3       NG1T1   -0.460000       14.0070           0
     56820 WT18     1126     MECN     C1       CG331   -0.170000       12.0110           0
     56821 WT18     1126     MECN     H11      HGA3     0.090000        1.0080           0
     56822 WT18     1126     MECN     H12      HGA3     0.090000        1.0080           0
     56823 WT18     1126     MECN     H13      HGA3     0.090000        1.0080           0
     56824 WT18     1126     MECN     C2       CG1N1    0.360000       12.0110           0
     56825 WT18     1126     MECN     N3       NG1T1   -0.460000       14.0070           0
     56826 WT18     1127     MECN     C1       CG331   -0.170000       12.0110           0
     56827 WT18     1127     MECN     H11      HGA3     0.090000        1.0080           0
     56828 WT18     1127     MECN     H12      HGA3     0.090000        1.0080           0
     56829 WT18     1127     MECN     H13      HGA3     0.090000        1.0080           0
     56830 WT18     1127     MECN     C2       CG1N1    0.360000       12.0110           0
     56831 WT18     1127     MECN     N3       NG1T1   -0.460000       14.0070           0
     56832 WT18     1128     MECN     C1       CG331   -0.170000       12.0110           0
     56833 WT18     1128     MECN     H11      HGA3     0.090000        1.0080           0
     56834 WT18     1128     MECN     H12      HGA3     0.090000        1.0080           0
     56835 WT18     1128     MECN     H13      HGA3     0.090000        1.0080           0
     56836 WT18     1128     MECN     C2       CG1N1    0.360000       12.0110           0
     56837 WT18     1128     MECN     N3       NG1T1   -0.460000       14.0070           0
     56838 WT18     1131     MECN     C1       CG331   -0.170000       12.0110           0
     56839 WT18     1131     MECN     H11      HGA3     0.090000        1.0080           0
     56840 WT18     1131     MECN     H12      HGA3     0.090000        1.0080           0
     56841 WT18     1131     MECN     H13      HGA3     0.090000        1.0080           0
     56842 WT18     1131     MECN     C2       CG1N1    0.360000       12.0110           0
     56843 WT18     1131     MECN     N3       NG1T1   -0.460000       14.0070           0
     56844 WT18     1132     MECN     C1       CG331   -0.170000       12.0110           0
     56845 WT18     1132     MECN     H11      HGA3     0.090000        1.0080           0
     56846 WT18     1132     MECN     H12      HGA3     0.090000        1.0080           0
     56847 WT18     1132     MECN     H13      HGA3     0.090000        1.0080           0
     56848 WT18     1132     MECN     C2       CG1N1    0.360000       12.0110           0
     56849 WT18     1132     MECN     N3       NG1T1   -0.460000       14.0070           0
     56850 WT18     1133     MECN     C1       CG331   -0.170000       12.0110           0
     56851 WT18     1133     MECN     H11      HGA3     0.090000        1.0080           0
     56852 WT18     1133     MECN     H12      HGA3     0.090000        1.0080           0
     56853 WT18     1133     MECN     H13      HGA3     0.090000        1.0080           0
     56854 WT18     1133     MECN     C2       CG1N1    0.360000       12.0110           0
     56855 WT18     1133     MECN     N3       NG1T1   -0.460000       14.0070           0
     56856 WT18     1135     MECN     C1       CG331   -0.170000       12.0110           0
     56857 WT18     1135     MECN     H11      HGA3     0.090000        1.0080           0
     56858 WT18     1135     MECN     H12      HGA3     0.090000        1.0080           0
     56859 WT18     1135     MECN     H13      HGA3     0.090000        1.0080           0
     56860 WT18     1135     MECN     C2       CG1N1    0.360000       12.0110           0
     56861 WT18     1135     MECN     N3       NG1T1   -0.460000       14.0070           0
     56862 WT18     1136     MECN     C1       CG331   -0.170000       12.0110           0
     56863 WT18     1136     MECN     H11      HGA3     0.090000        1.0080           0
     56864 WT18     1136     MECN     H12      HGA3     0.090000        1.0080           0
     56865 WT18     1136     MECN     H13      HGA3     0.090000        1.0080           0
     56866 WT18     1136     MECN     C2       CG1N1    0.360000       12.0110           0
     56867 WT18     1136     MECN     N3       NG1T1   -0.460000       14.0070           0
     56868 WT18     1140     MECN     C1       CG331   -0.170000       12.0110           0
     56869 WT18     1140     MECN     H11      HGA3     0.090000        1.0080           0
     56870 WT18     1140     MECN     H12      HGA3     0.090000        1.0080           0
     56871 WT18     1140     MECN     H13      HGA3     0.090000        1.0080           0
     56872 WT18     1140     MECN     C2       CG1N1    0.360000       12.0110           0
     56873 WT18     1140     MECN     N3       NG1T1   -0.460000       14.0070           0
     56874 WT18     1141     MECN     C1       CG331   -0.170000       12.0110           0
     56875 WT18     1141     MECN     H11      HGA3     0.090000        1.0080           0
     56876 WT18     1141     MECN     H12      HGA3     0.090000        1.0080           0
     56877 WT18     1141     MECN     H13      HGA3     0.090000        1.0080           0
     56878 WT18     1141     MECN     C2       CG1N1    0.360000       12.0110           0
     56879 WT18     1141     MECN     N3       NG1T1   -0.460000       14.0070           0
     56880 WT18     1142     MECN     C1       CG331   -0.170000       12.0110           0
     56881 WT18     1142     MECN     H11      HGA3     0.090000        1.0080           0
     56882 WT18     1142     MECN     H12      HGA3     0.090000        1.0080           0
     56883 WT18     1142     MECN     H13      HGA3     0.090000        1.0080           0
     56884 WT18     1142     MECN     C2       CG1N1    0.360000       12.0110           0
     56885 WT18     1142     MECN     N3       NG1T1   -0.460000       14.0070           0
     56886 WT18     1144     MECN     C1       CG331   -0.170000       12.0110           0
     56887 WT18     1144     MECN     H11      HGA3     0.090000        1.0080           0
     56888 WT18     1144     MECN     H12      HGA3     0.090000        1.0080           0
     56889 WT18     1144     MECN     H13      HGA3     0.090000        1.0080           0
     56890 WT18     1144     MECN     C2       CG1N1    0.360000       12.0110           0
     56891 WT18     1144     MECN     N3       NG1T1   -0.460000       14.0070           0
     56892 WT18     1145     MECN     C1       CG331   -0.170000       12.0110           0
     56893 WT18     1145     MECN     H11      HGA3     0.090000        1.0080           0
     56894 WT18     1145     MECN     H12      HGA3     0.090000        1.0080           0
     56895 WT18     1145     MECN     H13      HGA3     0.090000        1.0080           0
     56896 WT18     1145     MECN     C2       CG1N1    0.360000       12.0110           0
     56897 WT18     1145     MECN     N3       NG1T1   -0.460000       14.0070           0
     56898 WT18     1147     MECN     C1       CG331   -0.170000       12.0110           0
     56899 WT18     1147     MECN     H11      HGA3     0.090000        1.0080           0
     56900 WT18     1147     MECN     H12      HGA3     0.090000        1.0080           0
     56901 WT18     1147     MECN     H13      HGA3     0.090000        1.0080           0
     56902 WT18     1147     MECN     C2       CG1N1    0.360000       12.0110           0
     56903 WT18     1147     MECN     N3       NG1T1   -0.460000       14.0070           0
     56904 WT18     1149     MECN     C1       CG331   -0.170000       12.0110           0
     56905 WT18     1149     MECN     H11      HGA3     0.090000        1.0080           0
     56906 WT18     1149     MECN     H12      HGA3     0.090000        1.0080           0
     56907 WT18     1149     MECN     H13      HGA3     0.090000        1.0080           0
     56908 WT18     1149     MECN     C2       CG1N1    0.360000       12.0110           0
     56909 WT18     1149     MECN     N3       NG1T1   -0.460000       14.0070           0
     56910 WT18     1150     MECN     C1       CG331   -0.170000       12.0110           0
     56911 WT18     1150     MECN     H11      HGA3     0.090000        1.0080           0
     56912 WT18     1150     MECN     H12      HGA3     0.090000        1.0080           0
     56913 WT18     1150     MECN     H13      HGA3     0.090000        1.0080           0
     56914 WT18     1150     MECN     C2       CG1N1    0.360000       12.0110           0
     56915 WT18     1150     MECN     N3       NG1T1   -0.460000       14.0070           0
     56916 WT18     1151     MECN     C1       CG331   -0.170000       12.0110           0
     56917 WT18     1151     MECN     H11      HGA3     0.090000        1.0080           0
     56918 WT18     1151     MECN     H12      HGA3     0.090000        1.0080           0
     56919 WT18     1151     MECN     H13      HGA3     0.090000        1.0080           0
     56920 WT18     1151     MECN     C2       CG1N1    0.360000       12.0110           0
     56921 WT18     1151     MECN     N3       NG1T1   -0.460000       14.0070           0
     56922 WT18     1154     MECN     C1       CG331   -0.170000       12.0110           0
     56923 WT18     1154     MECN     H11      HGA3     0.090000        1.0080           0
     56924 WT18     1154     MECN     H12      HGA3     0.090000        1.0080           0
     56925 WT18     1154     MECN     H13      HGA3     0.090000        1.0080           0
     56926 WT18     1154     MECN     C2       CG1N1    0.360000       12.0110           0
     56927 WT18     1154     MECN     N3       NG1T1   -0.460000       14.0070           0
     56928 WT18     1155     MECN     C1       CG331   -0.170000       12.0110           0
     56929 WT18     1155     MECN     H11      HGA3     0.090000        1.0080           0
     56930 WT18     1155     MECN     H12      HGA3     0.090000        1.0080           0
     56931 WT18     1155     MECN     H13      HGA3     0.090000        1.0080           0
     56932 WT18     1155     MECN     C2       CG1N1    0.360000       12.0110           0
     56933 WT18     1155     MECN     N3       NG1T1   -0.460000       14.0070           0
     56934 WT18     1156     MECN     C1       CG331   -0.170000       12.0110           0
     56935 WT18     1156     MECN     H11      HGA3     0.090000        1.0080           0
     56936 WT18     1156     MECN     H12      HGA3     0.090000        1.0080           0
     56937 WT18     1156     MECN     H13      HGA3     0.090000        1.0080           0
     56938 WT18     1156     MECN     C2       CG1N1    0.360000       12.0110           0
     56939 WT18     1156     MECN     N3       NG1T1   -0.460000       14.0070           0
     56940 WT18     1158     MECN     C1       CG331   -0.170000       12.0110           0
     56941 WT18     1158     MECN     H11      HGA3     0.090000        1.0080           0
     56942 WT18     1158     MECN     H12      HGA3     0.090000        1.0080           0
     56943 WT18     1158     MECN     H13      HGA3     0.090000        1.0080           0
     56944 WT18     1158     MECN     C2       CG1N1    0.360000       12.0110           0
     56945 WT18     1158     MECN     N3       NG1T1   -0.460000       14.0070           0
     56946 WT18     1159     MECN     C1       CG331   -0.170000       12.0110           0
     56947 WT18     1159     MECN     H11      HGA3     0.090000        1.0080           0
     56948 WT18     1159     MECN     H12      HGA3     0.090000        1.0080           0
     56949 WT18     1159     MECN     H13      HGA3     0.090000        1.0080           0
     56950 WT18     1159     MECN     C2       CG1N1    0.360000       12.0110           0
     56951 WT18     1159     MECN     N3       NG1T1   -0.460000       14.0070           0
     56952 WT18     1160     MECN     C1       CG331   -0.170000       12.0110           0
     56953 WT18     1160     MECN     H11      HGA3     0.090000        1.0080           0
     56954 WT18     1160     MECN     H12      HGA3     0.090000        1.0080           0
     56955 WT18     1160     MECN     H13      HGA3     0.090000        1.0080           0
     56956 WT18     1160     MECN     C2       CG1N1    0.360000       12.0110           0
     56957 WT18     1160     MECN     N3       NG1T1   -0.460000       14.0070           0
     56958 WT18     1162     MECN     C1       CG331   -0.170000       12.0110           0
     56959 WT18     1162     MECN     H11      HGA3     0.090000        1.0080           0
     56960 WT18     1162     MECN     H12      HGA3     0.090000        1.0080           0
     56961 WT18     1162     MECN     H13      HGA3     0.090000        1.0080           0
     56962 WT18     1162     MECN     C2       CG1N1    0.360000       12.0110           0
     56963 WT18     1162     MECN     N3       NG1T1   -0.460000       14.0070           0
     56964 WT18     1163     MECN     C1       CG331   -0.170000       12.0110           0
     56965 WT18     1163     MECN     H11      HGA3     0.090000        1.0080           0
     56966 WT18     1163     MECN     H12      HGA3     0.090000        1.0080           0
     56967 WT18     1163     MECN     H13      HGA3     0.090000        1.0080           0
     56968 WT18     1163     MECN     C2       CG1N1    0.360000       12.0110           0
     56969 WT18     1163     MECN     N3       NG1T1   -0.460000       14.0070           0
     56970 WT18     1167     MECN     C1       CG331   -0.170000       12.0110           0
     56971 WT18     1167     MECN     H11      HGA3     0.090000        1.0080           0
     56972 WT18     1167     MECN     H12      HGA3     0.090000        1.0080           0
     56973 WT18     1167     MECN     H13      HGA3     0.090000        1.0080           0
     56974 WT18     1167     MECN     C2       CG1N1    0.360000       12.0110           0
     56975 WT18     1167     MECN     N3       NG1T1   -0.460000       14.0070           0
     56976 WT18     1168     MECN     C1       CG331   -0.170000       12.0110           0
     56977 WT18     1168     MECN     H11      HGA3     0.090000        1.0080           0
     56978 WT18     1168     MECN     H12      HGA3     0.090000        1.0080           0
     56979 WT18     1168     MECN     H13      HGA3     0.090000        1.0080           0
     56980 WT18     1168     MECN     C2       CG1N1    0.360000       12.0110           0
     56981 WT18     1168     MECN     N3       NG1T1   -0.460000       14.0070           0
     56982 WT18     1170     MECN     C1       CG331   -0.170000       12.0110           0
     56983 WT18     1170     MECN     H11      HGA3     0.090000        1.0080           0
     56984 WT18     1170     MECN     H12      HGA3     0.090000        1.0080           0
     56985 WT18     1170     MECN     H13      HGA3     0.090000        1.0080           0
     56986 WT18     1170     MECN     C2       CG1N1    0.360000       12.0110           0
     56987 WT18     1170     MECN     N3       NG1T1   -0.460000       14.0070           0
     56988 WT18     1171     MECN     C1       CG331   -0.170000       12.0110           0
     56989 WT18     1171     MECN     H11      HGA3     0.090000        1.0080           0
     56990 WT18     1171     MECN     H12      HGA3     0.090000        1.0080           0
     56991 WT18     1171     MECN     H13      HGA3     0.090000        1.0080           0
     56992 WT18     1171     MECN     C2       CG1N1    0.360000       12.0110           0
     56993 WT18     1171     MECN     N3       NG1T1   -0.460000       14.0070           0
     56994 WT18     1175     MECN     C1       CG331   -0.170000       12.0110           0
     56995 WT18     1175     MECN     H11      HGA3     0.090000        1.0080           0
     56996 WT18     1175     MECN     H12      HGA3     0.090000        1.0080           0
     56997 WT18     1175     MECN     H13      HGA3     0.090000        1.0080           0
     56998 WT18     1175     MECN     C2       CG1N1    0.360000       12.0110           0
     56999 WT18     1175     MECN     N3       NG1T1   -0.460000       14.0070           0
     57000 WT18     1176     MECN     C1       CG331   -0.170000       12.0110           0
     57001 WT18     1176     MECN     H11      HGA3     0.090000        1.0080           0
     57002 WT18     1176     MECN     H12      HGA3     0.090000        1.0080           0
     57003 WT18     1176     MECN     H13      HGA3     0.090000        1.0080           0
     57004 WT18     1176     MECN     C2       CG1N1    0.360000       12.0110           0
     57005 WT18     1176     MECN     N3       NG1T1   -0.460000       14.0070           0
     57006 WT18     1177     MECN     C1       CG331   -0.170000       12.0110           0
     57007 WT18     1177     MECN     H11      HGA3     0.090000        1.0080           0
     57008 WT18     1177     MECN     H12      HGA3     0.090000        1.0080           0
     57009 WT18     1177     MECN     H13      HGA3     0.090000        1.0080           0
     57010 WT18     1177     MECN     C2       CG1N1    0.360000       12.0110           0
     57011 WT18     1177     MECN     N3       NG1T1   -0.460000       14.0070           0
     57012 WT18     1179     MECN     C1       CG331   -0.170000       12.0110           0
     57013 WT18     1179     MECN     H11      HGA3     0.090000        1.0080           0
     57014 WT18     1179     MECN     H12      HGA3     0.090000        1.0080           0
     57015 WT18     1179     MECN     H13      HGA3     0.090000        1.0080           0
     57016 WT18     1179     MECN     C2       CG1N1    0.360000       12.0110           0
     57017 WT18     1179     MECN     N3       NG1T1   -0.460000       14.0070           0
     57018 WT18     1180     MECN     C1       CG331   -0.170000       12.0110           0
     57019 WT18     1180     MECN     H11      HGA3     0.090000        1.0080           0
     57020 WT18     1180     MECN     H12      HGA3     0.090000        1.0080           0
     57021 WT18     1180     MECN     H13      HGA3     0.090000        1.0080           0
     57022 WT18     1180     MECN     C2       CG1N1    0.360000       12.0110           0
     57023 WT18     1180     MECN     N3       NG1T1   -0.460000       14.0070           0
     57024 WT18     1182     MECN     C1       CG331   -0.170000       12.0110           0
     57025 WT18     1182     MECN     H11      HGA3     0.090000        1.0080           0
     57026 WT18     1182     MECN     H12      HGA3     0.090000        1.0080           0
     57027 WT18     1182     MECN     H13      HGA3     0.090000        1.0080           0
     57028 WT18     1182     MECN     C2       CG1N1    0.360000       12.0110           0
     57029 WT18     1182     MECN     N3       NG1T1   -0.460000       14.0070           0
     57030 WT18     1183     MECN     C1       CG331   -0.170000       12.0110           0
     57031 WT18     1183     MECN     H11      HGA3     0.090000        1.0080           0
     57032 WT18     1183     MECN     H12      HGA3     0.090000        1.0080           0
     57033 WT18     1183     MECN     H13      HGA3     0.090000        1.0080           0
     57034 WT18     1183     MECN     C2       CG1N1    0.360000       12.0110           0
     57035 WT18     1183     MECN     N3       NG1T1   -0.460000       14.0070           0
     57036 WT18     1186     MECN     C1       CG331   -0.170000       12.0110           0
     57037 WT18     1186     MECN     H11      HGA3     0.090000        1.0080           0
     57038 WT18     1186     MECN     H12      HGA3     0.090000        1.0080           0
     57039 WT18     1186     MECN     H13      HGA3     0.090000        1.0080           0
     57040 WT18     1186     MECN     C2       CG1N1    0.360000       12.0110           0
     57041 WT18     1186     MECN     N3       NG1T1   -0.460000       14.0070           0
     57042 WT18     1193     MECN     C1       CG331   -0.170000       12.0110           0
     57043 WT18     1193     MECN     H11      HGA3     0.090000        1.0080           0
     57044 WT18     1193     MECN     H12      HGA3     0.090000        1.0080           0
     57045 WT18     1193     MECN     H13      HGA3     0.090000        1.0080           0
     57046 WT18     1193     MECN     C2       CG1N1    0.360000       12.0110           0
     57047 WT18     1193     MECN     N3       NG1T1   -0.460000       14.0070           0
     57048 WT18     1194     MECN     C1       CG331   -0.170000       12.0110           0
     57049 WT18     1194     MECN     H11      HGA3     0.090000        1.0080           0
     57050 WT18     1194     MECN     H12      HGA3     0.090000        1.0080           0
     57051 WT18     1194     MECN     H13      HGA3     0.090000        1.0080           0
     57052 WT18     1194     MECN     C2       CG1N1    0.360000       12.0110           0
     57053 WT18     1194     MECN     N3       NG1T1   -0.460000       14.0070           0
     57054 WT18     1196     MECN     C1       CG331   -0.170000       12.0110           0
     57055 WT18     1196     MECN     H11      HGA3     0.090000        1.0080           0
     57056 WT18     1196     MECN     H12      HGA3     0.090000        1.0080           0
     57057 WT18     1196     MECN     H13      HGA3     0.090000        1.0080           0
     57058 WT18     1196     MECN     C2       CG1N1    0.360000       12.0110           0
     57059 WT18     1196     MECN     N3       NG1T1   -0.460000       14.0070           0
     57060 WT18     1197     MECN     C1       CG331   -0.170000       12.0110           0
     57061 WT18     1197     MECN     H11      HGA3     0.090000        1.0080           0
     57062 WT18     1197     MECN     H12      HGA3     0.090000        1.0080           0
     57063 WT18     1197     MECN     H13      HGA3     0.090000        1.0080           0
     57064 WT18     1197     MECN     C2       CG1N1    0.360000       12.0110           0
     57065 WT18     1197     MECN     N3       NG1T1   -0.460000       14.0070           0
     57066 WT18     1201     MECN     C1       CG331   -0.170000       12.0110           0
     57067 WT18     1201     MECN     H11      HGA3     0.090000        1.0080           0
     57068 WT18     1201     MECN     H12      HGA3     0.090000        1.0080           0
     57069 WT18     1201     MECN     H13      HGA3     0.090000        1.0080           0
     57070 WT18     1201     MECN     C2       CG1N1    0.360000       12.0110           0
     57071 WT18     1201     MECN     N3       NG1T1   -0.460000       14.0070           0
     57072 WT18     1202     MECN     C1       CG331   -0.170000       12.0110           0
     57073 WT18     1202     MECN     H11      HGA3     0.090000        1.0080           0
     57074 WT18     1202     MECN     H12      HGA3     0.090000        1.0080           0
     57075 WT18     1202     MECN     H13      HGA3     0.090000        1.0080           0
     57076 WT18     1202     MECN     C2       CG1N1    0.360000       12.0110           0
     57077 WT18     1202     MECN     N3       NG1T1   -0.460000       14.0070           0
     57078 WT18     1203     MECN     C1       CG331   -0.170000       12.0110           0
     57079 WT18     1203     MECN     H11      HGA3     0.090000        1.0080           0
     57080 WT18     1203     MECN     H12      HGA3     0.090000        1.0080           0
     57081 WT18     1203     MECN     H13      HGA3     0.090000        1.0080           0
     57082 WT18     1203     MECN     C2       CG1N1    0.360000       12.0110           0
     57083 WT18     1203     MECN     N3       NG1T1   -0.460000       14.0070           0
     57084 WT18     1204     MECN     C1       CG331   -0.170000       12.0110           0
     57085 WT18     1204     MECN     H11      HGA3     0.090000        1.0080           0
     57086 WT18     1204     MECN     H12      HGA3     0.090000        1.0080           0
     57087 WT18     1204     MECN     H13      HGA3     0.090000        1.0080           0
     57088 WT18     1204     MECN     C2       CG1N1    0.360000       12.0110           0
     57089 WT18     1204     MECN     N3       NG1T1   -0.460000       14.0070           0
     57090 WT18     1206     MECN     C1       CG331   -0.170000       12.0110           0
     57091 WT18     1206     MECN     H11      HGA3     0.090000        1.0080           0
     57092 WT18     1206     MECN     H12      HGA3     0.090000        1.0080           0
     57093 WT18     1206     MECN     H13      HGA3     0.090000        1.0080           0
     57094 WT18     1206     MECN     C2       CG1N1    0.360000       12.0110           0
     57095 WT18     1206     MECN     N3       NG1T1   -0.460000       14.0070           0
     57096 WT18     1207     MECN     C1       CG331   -0.170000       12.0110           0
     57097 WT18     1207     MECN     H11      HGA3     0.090000        1.0080           0
     57098 WT18     1207     MECN     H12      HGA3     0.090000        1.0080           0
     57099 WT18     1207     MECN     H13      HGA3     0.090000        1.0080           0
     57100 WT18     1207     MECN     C2       CG1N1    0.360000       12.0110           0
     57101 WT18     1207     MECN     N3       NG1T1   -0.460000       14.0070           0
     57102 WT18     1208     MECN     C1       CG331   -0.170000       12.0110           0
     57103 WT18     1208     MECN     H11      HGA3     0.090000        1.0080           0
     57104 WT18     1208     MECN     H12      HGA3     0.090000        1.0080           0
     57105 WT18     1208     MECN     H13      HGA3     0.090000        1.0080           0
     57106 WT18     1208     MECN     C2       CG1N1    0.360000       12.0110           0
     57107 WT18     1208     MECN     N3       NG1T1   -0.460000       14.0070           0
     57108 WT18     1209     MECN     C1       CG331   -0.170000       12.0110           0
     57109 WT18     1209     MECN     H11      HGA3     0.090000        1.0080           0
     57110 WT18     1209     MECN     H12      HGA3     0.090000        1.0080           0
     57111 WT18     1209     MECN     H13      HGA3     0.090000        1.0080           0
     57112 WT18     1209     MECN     C2       CG1N1    0.360000       12.0110           0
     57113 WT18     1209     MECN     N3       NG1T1   -0.460000       14.0070           0
     57114 WT18     1210     MECN     C1       CG331   -0.170000       12.0110           0
     57115 WT18     1210     MECN     H11      HGA3     0.090000        1.0080           0
     57116 WT18     1210     MECN     H12      HGA3     0.090000        1.0080           0
     57117 WT18     1210     MECN     H13      HGA3     0.090000        1.0080           0
     57118 WT18     1210     MECN     C2       CG1N1    0.360000       12.0110           0
     57119 WT18     1210     MECN     N3       NG1T1   -0.460000       14.0070           0
     57120 WT18     1213     MECN     C1       CG331   -0.170000       12.0110           0
     57121 WT18     1213     MECN     H11      HGA3     0.090000        1.0080           0
     57122 WT18     1213     MECN     H12      HGA3     0.090000        1.0080           0
     57123 WT18     1213     MECN     H13      HGA3     0.090000        1.0080           0
     57124 WT18     1213     MECN     C2       CG1N1    0.360000       12.0110           0
     57125 WT18     1213     MECN     N3       NG1T1   -0.460000       14.0070           0
     57126 WT18     1215     MECN     C1       CG331   -0.170000       12.0110           0
     57127 WT18     1215     MECN     H11      HGA3     0.090000        1.0080           0
     57128 WT18     1215     MECN     H12      HGA3     0.090000        1.0080           0
     57129 WT18     1215     MECN     H13      HGA3     0.090000        1.0080           0
     57130 WT18     1215     MECN     C2       CG1N1    0.360000       12.0110           0
     57131 WT18     1215     MECN     N3       NG1T1   -0.460000       14.0070           0
     57132 WT18     1216     MECN     C1       CG331   -0.170000       12.0110           0
     57133 WT18     1216     MECN     H11      HGA3     0.090000        1.0080           0
     57134 WT18     1216     MECN     H12      HGA3     0.090000        1.0080           0
     57135 WT18     1216     MECN     H13      HGA3     0.090000        1.0080           0
     57136 WT18     1216     MECN     C2       CG1N1    0.360000       12.0110           0
     57137 WT18     1216     MECN     N3       NG1T1   -0.460000       14.0070           0
     57138 WT18     1217     MECN     C1       CG331   -0.170000       12.0110           0
     57139 WT18     1217     MECN     H11      HGA3     0.090000        1.0080           0
     57140 WT18     1217     MECN     H12      HGA3     0.090000        1.0080           0
     57141 WT18     1217     MECN     H13      HGA3     0.090000        1.0080           0
     57142 WT18     1217     MECN     C2       CG1N1    0.360000       12.0110           0
     57143 WT18     1217     MECN     N3       NG1T1   -0.460000       14.0070           0
     57144 WT18     1220     MECN     C1       CG331   -0.170000       12.0110           0
     57145 WT18     1220     MECN     H11      HGA3     0.090000        1.0080           0
     57146 WT18     1220     MECN     H12      HGA3     0.090000        1.0080           0
     57147 WT18     1220     MECN     H13      HGA3     0.090000        1.0080           0
     57148 WT18     1220     MECN     C2       CG1N1    0.360000       12.0110           0
     57149 WT18     1220     MECN     N3       NG1T1   -0.460000       14.0070           0
     57150 WT18     1221     MECN     C1       CG331   -0.170000       12.0110           0
     57151 WT18     1221     MECN     H11      HGA3     0.090000        1.0080           0
     57152 WT18     1221     MECN     H12      HGA3     0.090000        1.0080           0
     57153 WT18     1221     MECN     H13      HGA3     0.090000        1.0080           0
     57154 WT18     1221     MECN     C2       CG1N1    0.360000       12.0110           0
     57155 WT18     1221     MECN     N3       NG1T1   -0.460000       14.0070           0
     57156 WT18     1222     MECN     C1       CG331   -0.170000       12.0110           0
     57157 WT18     1222     MECN     H11      HGA3     0.090000        1.0080           0
     57158 WT18     1222     MECN     H12      HGA3     0.090000        1.0080           0
     57159 WT18     1222     MECN     H13      HGA3     0.090000        1.0080           0
     57160 WT18     1222     MECN     C2       CG1N1    0.360000       12.0110           0
     57161 WT18     1222     MECN     N3       NG1T1   -0.460000       14.0070           0
     57162 WT18     1224     MECN     C1       CG331   -0.170000       12.0110           0
     57163 WT18     1224     MECN     H11      HGA3     0.090000        1.0080           0
     57164 WT18     1224     MECN     H12      HGA3     0.090000        1.0080           0
     57165 WT18     1224     MECN     H13      HGA3     0.090000        1.0080           0
     57166 WT18     1224     MECN     C2       CG1N1    0.360000       12.0110           0
     57167 WT18     1224     MECN     N3       NG1T1   -0.460000       14.0070           0
     57168 WT18     1225     MECN     C1       CG331   -0.170000       12.0110           0
     57169 WT18     1225     MECN     H11      HGA3     0.090000        1.0080           0
     57170 WT18     1225     MECN     H12      HGA3     0.090000        1.0080           0
     57171 WT18     1225     MECN     H13      HGA3     0.090000        1.0080           0
     57172 WT18     1225     MECN     C2       CG1N1    0.360000       12.0110           0
     57173 WT18     1225     MECN     N3       NG1T1   -0.460000       14.0070           0
     57174 WT18     1226     MECN     C1       CG331   -0.170000       12.0110           0
     57175 WT18     1226     MECN     H11      HGA3     0.090000        1.0080           0
     57176 WT18     1226     MECN     H12      HGA3     0.090000        1.0080           0
     57177 WT18     1226     MECN     H13      HGA3     0.090000        1.0080           0
     57178 WT18     1226     MECN     C2       CG1N1    0.360000       12.0110           0
     57179 WT18     1226     MECN     N3       NG1T1   -0.460000       14.0070           0
     57180 WT18     1227     MECN     C1       CG331   -0.170000       12.0110           0
     57181 WT18     1227     MECN     H11      HGA3     0.090000        1.0080           0
     57182 WT18     1227     MECN     H12      HGA3     0.090000        1.0080           0
     57183 WT18     1227     MECN     H13      HGA3     0.090000        1.0080           0
     57184 WT18     1227     MECN     C2       CG1N1    0.360000       12.0110           0
     57185 WT18     1227     MECN     N3       NG1T1   -0.460000       14.0070           0
     57186 WT18     1233     MECN     C1       CG331   -0.170000       12.0110           0
     57187 WT18     1233     MECN     H11      HGA3     0.090000        1.0080           0
     57188 WT18     1233     MECN     H12      HGA3     0.090000        1.0080           0
     57189 WT18     1233     MECN     H13      HGA3     0.090000        1.0080           0
     57190 WT18     1233     MECN     C2       CG1N1    0.360000       12.0110           0
     57191 WT18     1233     MECN     N3       NG1T1   -0.460000       14.0070           0
     57192 WT18     1234     MECN     C1       CG331   -0.170000       12.0110           0
     57193 WT18     1234     MECN     H11      HGA3     0.090000        1.0080           0
     57194 WT18     1234     MECN     H12      HGA3     0.090000        1.0080           0
     57195 WT18     1234     MECN     H13      HGA3     0.090000        1.0080           0
     57196 WT18     1234     MECN     C2       CG1N1    0.360000       12.0110           0
     57197 WT18     1234     MECN     N3       NG1T1   -0.460000       14.0070           0
     57198 WT18     1235     MECN     C1       CG331   -0.170000       12.0110           0
     57199 WT18     1235     MECN     H11      HGA3     0.090000        1.0080           0
     57200 WT18     1235     MECN     H12      HGA3     0.090000        1.0080           0
     57201 WT18     1235     MECN     H13      HGA3     0.090000        1.0080           0
     57202 WT18     1235     MECN     C2       CG1N1    0.360000       12.0110           0
     57203 WT18     1235     MECN     N3       NG1T1   -0.460000       14.0070           0
     57204 WT18     1237     MECN     C1       CG331   -0.170000       12.0110           0
     57205 WT18     1237     MECN     H11      HGA3     0.090000        1.0080           0
     57206 WT18     1237     MECN     H12      HGA3     0.090000        1.0080           0
     57207 WT18     1237     MECN     H13      HGA3     0.090000        1.0080           0
     57208 WT18     1237     MECN     C2       CG1N1    0.360000       12.0110           0
     57209 WT18     1237     MECN     N3       NG1T1   -0.460000       14.0070           0
     57210 WT18     1241     MECN     C1       CG331   -0.170000       12.0110           0
     57211 WT18     1241     MECN     H11      HGA3     0.090000        1.0080           0
     57212 WT18     1241     MECN     H12      HGA3     0.090000        1.0080           0
     57213 WT18     1241     MECN     H13      HGA3     0.090000        1.0080           0
     57214 WT18     1241     MECN     C2       CG1N1    0.360000       12.0110           0
     57215 WT18     1241     MECN     N3       NG1T1   -0.460000       14.0070           0
     57216 WT18     1243     MECN     C1       CG331   -0.170000       12.0110           0
     57217 WT18     1243     MECN     H11      HGA3     0.090000        1.0080           0
     57218 WT18     1243     MECN     H12      HGA3     0.090000        1.0080           0
     57219 WT18     1243     MECN     H13      HGA3     0.090000        1.0080           0
     57220 WT18     1243     MECN     C2       CG1N1    0.360000       12.0110           0
     57221 WT18     1243     MECN     N3       NG1T1   -0.460000       14.0070           0
     57222 WT18     1244     MECN     C1       CG331   -0.170000       12.0110           0
     57223 WT18     1244     MECN     H11      HGA3     0.090000        1.0080           0
     57224 WT18     1244     MECN     H12      HGA3     0.090000        1.0080           0
     57225 WT18     1244     MECN     H13      HGA3     0.090000        1.0080           0
     57226 WT18     1244     MECN     C2       CG1N1    0.360000       12.0110           0
     57227 WT18     1244     MECN     N3       NG1T1   -0.460000       14.0070           0
     57228 WT18     1245     MECN     C1       CG331   -0.170000       12.0110           0
     57229 WT18     1245     MECN     H11      HGA3     0.090000        1.0080           0
     57230 WT18     1245     MECN     H12      HGA3     0.090000        1.0080           0
     57231 WT18     1245     MECN     H13      HGA3     0.090000        1.0080           0
     57232 WT18     1245     MECN     C2       CG1N1    0.360000       12.0110           0
     57233 WT18     1245     MECN     N3       NG1T1   -0.460000       14.0070           0
     57234 WT18     1247     MECN     C1       CG331   -0.170000       12.0110           0
     57235 WT18     1247     MECN     H11      HGA3     0.090000        1.0080           0
     57236 WT18     1247     MECN     H12      HGA3     0.090000        1.0080           0
     57237 WT18     1247     MECN     H13      HGA3     0.090000        1.0080           0
     57238 WT18     1247     MECN     C2       CG1N1    0.360000       12.0110           0
     57239 WT18     1247     MECN     N3       NG1T1   -0.460000       14.0070           0
     57240 WT18     1248     MECN     C1       CG331   -0.170000       12.0110           0
     57241 WT18     1248     MECN     H11      HGA3     0.090000        1.0080           0
     57242 WT18     1248     MECN     H12      HGA3     0.090000        1.0080           0
     57243 WT18     1248     MECN     H13      HGA3     0.090000        1.0080           0
     57244 WT18     1248     MECN     C2       CG1N1    0.360000       12.0110           0
     57245 WT18     1248     MECN     N3       NG1T1   -0.460000       14.0070           0
     57246 WT18     1250     MECN     C1       CG331   -0.170000       12.0110           0
     57247 WT18     1250     MECN     H11      HGA3     0.090000        1.0080           0
     57248 WT18     1250     MECN     H12      HGA3     0.090000        1.0080           0
     57249 WT18     1250     MECN     H13      HGA3     0.090000        1.0080           0
     57250 WT18     1250     MECN     C2       CG1N1    0.360000       12.0110           0
     57251 WT18     1250     MECN     N3       NG1T1   -0.460000       14.0070           0
     57252 WT18     1251     MECN     C1       CG331   -0.170000       12.0110           0
     57253 WT18     1251     MECN     H11      HGA3     0.090000        1.0080           0
     57254 WT18     1251     MECN     H12      HGA3     0.090000        1.0080           0
     57255 WT18     1251     MECN     H13      HGA3     0.090000        1.0080           0
     57256 WT18     1251     MECN     C2       CG1N1    0.360000       12.0110           0
     57257 WT18     1251     MECN     N3       NG1T1   -0.460000       14.0070           0
     57258 WT18     1254     MECN     C1       CG331   -0.170000       12.0110           0
     57259 WT18     1254     MECN     H11      HGA3     0.090000        1.0080           0
     57260 WT18     1254     MECN     H12      HGA3     0.090000        1.0080           0
     57261 WT18     1254     MECN     H13      HGA3     0.090000        1.0080           0
     57262 WT18     1254     MECN     C2       CG1N1    0.360000       12.0110           0
     57263 WT18     1254     MECN     N3       NG1T1   -0.460000       14.0070           0
     57264 WT18     1255     MECN     C1       CG331   -0.170000       12.0110           0
     57265 WT18     1255     MECN     H11      HGA3     0.090000        1.0080           0
     57266 WT18     1255     MECN     H12      HGA3     0.090000        1.0080           0
     57267 WT18     1255     MECN     H13      HGA3     0.090000        1.0080           0
     57268 WT18     1255     MECN     C2       CG1N1    0.360000       12.0110           0
     57269 WT18     1255     MECN     N3       NG1T1   -0.460000       14.0070           0
     57270 WT18     1258     MECN     C1       CG331   -0.170000       12.0110           0
     57271 WT18     1258     MECN     H11      HGA3     0.090000        1.0080           0
     57272 WT18     1258     MECN     H12      HGA3     0.090000        1.0080           0
     57273 WT18     1258     MECN     H13      HGA3     0.090000        1.0080           0
     57274 WT18     1258     MECN     C2       CG1N1    0.360000       12.0110           0
     57275 WT18     1258     MECN     N3       NG1T1   -0.460000       14.0070           0
     57276 WT18     1260     MECN     C1       CG331   -0.170000       12.0110           0
     57277 WT18     1260     MECN     H11      HGA3     0.090000        1.0080           0
     57278 WT18     1260     MECN     H12      HGA3     0.090000        1.0080           0
     57279 WT18     1260     MECN     H13      HGA3     0.090000        1.0080           0
     57280 WT18     1260     MECN     C2       CG1N1    0.360000       12.0110           0
     57281 WT18     1260     MECN     N3       NG1T1   -0.460000       14.0070           0
     57282 WT18     1262     MECN     C1       CG331   -0.170000       12.0110           0
     57283 WT18     1262     MECN     H11      HGA3     0.090000        1.0080           0
     57284 WT18     1262     MECN     H12      HGA3     0.090000        1.0080           0
     57285 WT18     1262     MECN     H13      HGA3     0.090000        1.0080           0
     57286 WT18     1262     MECN     C2       CG1N1    0.360000       12.0110           0
     57287 WT18     1262     MECN     N3       NG1T1   -0.460000       14.0070           0
     57288 WT18     1263     MECN     C1       CG331   -0.170000       12.0110           0
     57289 WT18     1263     MECN     H11      HGA3     0.090000        1.0080           0
     57290 WT18     1263     MECN     H12      HGA3     0.090000        1.0080           0
     57291 WT18     1263     MECN     H13      HGA3     0.090000        1.0080           0
     57292 WT18     1263     MECN     C2       CG1N1    0.360000       12.0110           0
     57293 WT18     1263     MECN     N3       NG1T1   -0.460000       14.0070           0
     57294 WT18     1264     MECN     C1       CG331   -0.170000       12.0110           0
     57295 WT18     1264     MECN     H11      HGA3     0.090000        1.0080           0
     57296 WT18     1264     MECN     H12      HGA3     0.090000        1.0080           0
     57297 WT18     1264     MECN     H13      HGA3     0.090000        1.0080           0
     57298 WT18     1264     MECN     C2       CG1N1    0.360000       12.0110           0
     57299 WT18     1264     MECN     N3       NG1T1   -0.460000       14.0070           0
     57300 WT18     1265     MECN     C1       CG331   -0.170000       12.0110           0
     57301 WT18     1265     MECN     H11      HGA3     0.090000        1.0080           0
     57302 WT18     1265     MECN     H12      HGA3     0.090000        1.0080           0
     57303 WT18     1265     MECN     H13      HGA3     0.090000        1.0080           0
     57304 WT18     1265     MECN     C2       CG1N1    0.360000       12.0110           0
     57305 WT18     1265     MECN     N3       NG1T1   -0.460000       14.0070           0
     57306 WT18     1268     MECN     C1       CG331   -0.170000       12.0110           0
     57307 WT18     1268     MECN     H11      HGA3     0.090000        1.0080           0
     57308 WT18     1268     MECN     H12      HGA3     0.090000        1.0080           0
     57309 WT18     1268     MECN     H13      HGA3     0.090000        1.0080           0
     57310 WT18     1268     MECN     C2       CG1N1    0.360000       12.0110           0
     57311 WT18     1268     MECN     N3       NG1T1   -0.460000       14.0070           0
     57312 WT18     1272     MECN     C1       CG331   -0.170000       12.0110           0
     57313 WT18     1272     MECN     H11      HGA3     0.090000        1.0080           0
     57314 WT18     1272     MECN     H12      HGA3     0.090000        1.0080           0
     57315 WT18     1272     MECN     H13      HGA3     0.090000        1.0080           0
     57316 WT18     1272     MECN     C2       CG1N1    0.360000       12.0110           0
     57317 WT18     1272     MECN     N3       NG1T1   -0.460000       14.0070           0
     57318 WT18     1277     MECN     C1       CG331   -0.170000       12.0110           0
     57319 WT18     1277     MECN     H11      HGA3     0.090000        1.0080           0
     57320 WT18     1277     MECN     H12      HGA3     0.090000        1.0080           0
     57321 WT18     1277     MECN     H13      HGA3     0.090000        1.0080           0
     57322 WT18     1277     MECN     C2       CG1N1    0.360000       12.0110           0
     57323 WT18     1277     MECN     N3       NG1T1   -0.460000       14.0070           0
     57324 WT18     1280     MECN     C1       CG331   -0.170000       12.0110           0
     57325 WT18     1280     MECN     H11      HGA3     0.090000        1.0080           0
     57326 WT18     1280     MECN     H12      HGA3     0.090000        1.0080           0
     57327 WT18     1280     MECN     H13      HGA3     0.090000        1.0080           0
     57328 WT18     1280     MECN     C2       CG1N1    0.360000       12.0110           0
     57329 WT18     1280     MECN     N3       NG1T1   -0.460000       14.0070           0
     57330 WT18     1282     MECN     C1       CG331   -0.170000       12.0110           0
     57331 WT18     1282     MECN     H11      HGA3     0.090000        1.0080           0
     57332 WT18     1282     MECN     H12      HGA3     0.090000        1.0080           0
     57333 WT18     1282     MECN     H13      HGA3     0.090000        1.0080           0
     57334 WT18     1282     MECN     C2       CG1N1    0.360000       12.0110           0
     57335 WT18     1282     MECN     N3       NG1T1   -0.460000       14.0070           0
     57336 WT18     1283     MECN     C1       CG331   -0.170000       12.0110           0
     57337 WT18     1283     MECN     H11      HGA3     0.090000        1.0080           0
     57338 WT18     1283     MECN     H12      HGA3     0.090000        1.0080           0
     57339 WT18     1283     MECN     H13      HGA3     0.090000        1.0080           0
     57340 WT18     1283     MECN     C2       CG1N1    0.360000       12.0110           0
     57341 WT18     1283     MECN     N3       NG1T1   -0.460000       14.0070           0
     57342 WT18     1285     MECN     C1       CG331   -0.170000       12.0110           0
     57343 WT18     1285     MECN     H11      HGA3     0.090000        1.0080           0
     57344 WT18     1285     MECN     H12      HGA3     0.090000        1.0080           0
     57345 WT18     1285     MECN     H13      HGA3     0.090000        1.0080           0
     57346 WT18     1285     MECN     C2       CG1N1    0.360000       12.0110           0
     57347 WT18     1285     MECN     N3       NG1T1   -0.460000       14.0070           0
     57348 WT18     1286     MECN     C1       CG331   -0.170000       12.0110           0
     57349 WT18     1286     MECN     H11      HGA3     0.090000        1.0080           0
     57350 WT18     1286     MECN     H12      HGA3     0.090000        1.0080           0
     57351 WT18     1286     MECN     H13      HGA3     0.090000        1.0080           0
     57352 WT18     1286     MECN     C2       CG1N1    0.360000       12.0110           0
     57353 WT18     1286     MECN     N3       NG1T1   -0.460000       14.0070           0
     57354 WT18     1297     MECN     C1       CG331   -0.170000       12.0110           0
     57355 WT18     1297     MECN     H11      HGA3     0.090000        1.0080           0
     57356 WT18     1297     MECN     H12      HGA3     0.090000        1.0080           0
     57357 WT18     1297     MECN     H13      HGA3     0.090000        1.0080           0
     57358 WT18     1297     MECN     C2       CG1N1    0.360000       12.0110           0
     57359 WT18     1297     MECN     N3       NG1T1   -0.460000       14.0070           0
     57360 WT18     1301     MECN     C1       CG331   -0.170000       12.0110           0
     57361 WT18     1301     MECN     H11      HGA3     0.090000        1.0080           0
     57362 WT18     1301     MECN     H12      HGA3     0.090000        1.0080           0
     57363 WT18     1301     MECN     H13      HGA3     0.090000        1.0080           0
     57364 WT18     1301     MECN     C2       CG1N1    0.360000       12.0110           0
     57365 WT18     1301     MECN     N3       NG1T1   -0.460000       14.0070           0
     57366 WT18     1305     MECN     C1       CG331   -0.170000       12.0110           0
     57367 WT18     1305     MECN     H11      HGA3     0.090000        1.0080           0
     57368 WT18     1305     MECN     H12      HGA3     0.090000        1.0080           0
     57369 WT18     1305     MECN     H13      HGA3     0.090000        1.0080           0
     57370 WT18     1305     MECN     C2       CG1N1    0.360000       12.0110           0
     57371 WT18     1305     MECN     N3       NG1T1   -0.460000       14.0070           0
     57372 WT18     1309     MECN     C1       CG331   -0.170000       12.0110           0
     57373 WT18     1309     MECN     H11      HGA3     0.090000        1.0080           0
     57374 WT18     1309     MECN     H12      HGA3     0.090000        1.0080           0
     57375 WT18     1309     MECN     H13      HGA3     0.090000        1.0080           0
     57376 WT18     1309     MECN     C2       CG1N1    0.360000       12.0110           0
     57377 WT18     1309     MECN     N3       NG1T1   -0.460000       14.0070           0
     57378 WT18     1311     MECN     C1       CG331   -0.170000       12.0110           0
     57379 WT18     1311     MECN     H11      HGA3     0.090000        1.0080           0
     57380 WT18     1311     MECN     H12      HGA3     0.090000        1.0080           0
     57381 WT18     1311     MECN     H13      HGA3     0.090000        1.0080           0
     57382 WT18     1311     MECN     C2       CG1N1    0.360000       12.0110           0
     57383 WT18     1311     MECN     N3       NG1T1   -0.460000       14.0070           0
     57384 WT18     1312     MECN     C1       CG331   -0.170000       12.0110           0
     57385 WT18     1312     MECN     H11      HGA3     0.090000        1.0080           0
     57386 WT18     1312     MECN     H12      HGA3     0.090000        1.0080           0
     57387 WT18     1312     MECN     H13      HGA3     0.090000        1.0080           0
     57388 WT18     1312     MECN     C2       CG1N1    0.360000       12.0110           0
     57389 WT18     1312     MECN     N3       NG1T1   -0.460000       14.0070           0
     57390 WT18     1314     MECN     C1       CG331   -0.170000       12.0110           0
     57391 WT18     1314     MECN     H11      HGA3     0.090000        1.0080           0
     57392 WT18     1314     MECN     H12      HGA3     0.090000        1.0080           0
     57393 WT18     1314     MECN     H13      HGA3     0.090000        1.0080           0
     57394 WT18     1314     MECN     C2       CG1N1    0.360000       12.0110           0
     57395 WT18     1314     MECN     N3       NG1T1   -0.460000       14.0070           0
     57396 WT18     1318     MECN     C1       CG331   -0.170000       12.0110           0
     57397 WT18     1318     MECN     H11      HGA3     0.090000        1.0080           0
     57398 WT18     1318     MECN     H12      HGA3     0.090000        1.0080           0
     57399 WT18     1318     MECN     H13      HGA3     0.090000        1.0080           0
     57400 WT18     1318     MECN     C2       CG1N1    0.360000       12.0110           0
     57401 WT18     1318     MECN     N3       NG1T1   -0.460000       14.0070           0
     57402 WT18     1320     MECN     C1       CG331   -0.170000       12.0110           0
     57403 WT18     1320     MECN     H11      HGA3     0.090000        1.0080           0
     57404 WT18     1320     MECN     H12      HGA3     0.090000        1.0080           0
     57405 WT18     1320     MECN     H13      HGA3     0.090000        1.0080           0
     57406 WT18     1320     MECN     C2       CG1N1    0.360000       12.0110           0
     57407 WT18     1320     MECN     N3       NG1T1   -0.460000       14.0070           0
     57408 WT18     1324     MECN     C1       CG331   -0.170000       12.0110           0
     57409 WT18     1324     MECN     H11      HGA3     0.090000        1.0080           0
     57410 WT18     1324     MECN     H12      HGA3     0.090000        1.0080           0
     57411 WT18     1324     MECN     H13      HGA3     0.090000        1.0080           0
     57412 WT18     1324     MECN     C2       CG1N1    0.360000       12.0110           0
     57413 WT18     1324     MECN     N3       NG1T1   -0.460000       14.0070           0
     57414 WT18     1327     MECN     C1       CG331   -0.170000       12.0110           0
     57415 WT18     1327     MECN     H11      HGA3     0.090000        1.0080           0
     57416 WT18     1327     MECN     H12      HGA3     0.090000        1.0080           0
     57417 WT18     1327     MECN     H13      HGA3     0.090000        1.0080           0
     57418 WT18     1327     MECN     C2       CG1N1    0.360000       12.0110           0
     57419 WT18     1327     MECN     N3       NG1T1   -0.460000       14.0070           0
     57420 WT18     1328     MECN     C1       CG331   -0.170000       12.0110           0
     57421 WT18     1328     MECN     H11      HGA3     0.090000        1.0080           0
     57422 WT18     1328     MECN     H12      HGA3     0.090000        1.0080           0
     57423 WT18     1328     MECN     H13      HGA3     0.090000        1.0080           0
     57424 WT18     1328     MECN     C2       CG1N1    0.360000       12.0110           0
     57425 WT18     1328     MECN     N3       NG1T1   -0.460000       14.0070           0
     57426 WT18     1329     MECN     C1       CG331   -0.170000       12.0110           0
     57427 WT18     1329     MECN     H11      HGA3     0.090000        1.0080           0
     57428 WT18     1329     MECN     H12      HGA3     0.090000        1.0080           0
     57429 WT18     1329     MECN     H13      HGA3     0.090000        1.0080           0
     57430 WT18     1329     MECN     C2       CG1N1    0.360000       12.0110           0
     57431 WT18     1329     MECN     N3       NG1T1   -0.460000       14.0070           0
     57432 WT18     1331     MECN     C1       CG331   -0.170000       12.0110           0
     57433 WT18     1331     MECN     H11      HGA3     0.090000        1.0080           0
     57434 WT18     1331     MECN     H12      HGA3     0.090000        1.0080           0
     57435 WT18     1331     MECN     H13      HGA3     0.090000        1.0080           0
     57436 WT18     1331     MECN     C2       CG1N1    0.360000       12.0110           0
     57437 WT18     1331     MECN     N3       NG1T1   -0.460000       14.0070           0
     57438 WT19     7        MECN     C1       CG331   -0.170000       12.0110           0
     57439 WT19     7        MECN     H11      HGA3     0.090000        1.0080           0
     57440 WT19     7        MECN     H12      HGA3     0.090000        1.0080           0
     57441 WT19     7        MECN     H13      HGA3     0.090000        1.0080           0
     57442 WT19     7        MECN     C2       CG1N1    0.360000       12.0110           0
     57443 WT19     7        MECN     N3       NG1T1   -0.460000       14.0070           0
     57444 WT19     9        MECN     C1       CG331   -0.170000       12.0110           0
     57445 WT19     9        MECN     H11      HGA3     0.090000        1.0080           0
     57446 WT19     9        MECN     H12      HGA3     0.090000        1.0080           0
     57447 WT19     9        MECN     H13      HGA3     0.090000        1.0080           0
     57448 WT19     9        MECN     C2       CG1N1    0.360000       12.0110           0
     57449 WT19     9        MECN     N3       NG1T1   -0.460000       14.0070           0
     57450 WT19     23       MECN     C1       CG331   -0.170000       12.0110           0
     57451 WT19     23       MECN     H11      HGA3     0.090000        1.0080           0
     57452 WT19     23       MECN     H12      HGA3     0.090000        1.0080           0
     57453 WT19     23       MECN     H13      HGA3     0.090000        1.0080           0
     57454 WT19     23       MECN     C2       CG1N1    0.360000       12.0110           0
     57455 WT19     23       MECN     N3       NG1T1   -0.460000       14.0070           0
     57456 WT19     38       MECN     C1       CG331   -0.170000       12.0110           0
     57457 WT19     38       MECN     H11      HGA3     0.090000        1.0080           0
     57458 WT19     38       MECN     H12      HGA3     0.090000        1.0080           0
     57459 WT19     38       MECN     H13      HGA3     0.090000        1.0080           0
     57460 WT19     38       MECN     C2       CG1N1    0.360000       12.0110           0
     57461 WT19     38       MECN     N3       NG1T1   -0.460000       14.0070           0
     57462 WT19     50       MECN     C1       CG331   -0.170000       12.0110           0
     57463 WT19     50       MECN     H11      HGA3     0.090000        1.0080           0
     57464 WT19     50       MECN     H12      HGA3     0.090000        1.0080           0
     57465 WT19     50       MECN     H13      HGA3     0.090000        1.0080           0
     57466 WT19     50       MECN     C2       CG1N1    0.360000       12.0110           0
     57467 WT19     50       MECN     N3       NG1T1   -0.460000       14.0070           0
     57468 WT19     56       MECN     C1       CG331   -0.170000       12.0110           0
     57469 WT19     56       MECN     H11      HGA3     0.090000        1.0080           0
     57470 WT19     56       MECN     H12      HGA3     0.090000        1.0080           0
     57471 WT19     56       MECN     H13      HGA3     0.090000        1.0080           0
     57472 WT19     56       MECN     C2       CG1N1    0.360000       12.0110           0
     57473 WT19     56       MECN     N3       NG1T1   -0.460000       14.0070           0
     57474 WT19     57       MECN     C1       CG331   -0.170000       12.0110           0
     57475 WT19     57       MECN     H11      HGA3     0.090000        1.0080           0
     57476 WT19     57       MECN     H12      HGA3     0.090000        1.0080           0
     57477 WT19     57       MECN     H13      HGA3     0.090000        1.0080           0
     57478 WT19     57       MECN     C2       CG1N1    0.360000       12.0110           0
     57479 WT19     57       MECN     N3       NG1T1   -0.460000       14.0070           0
     57480 WT19     59       MECN     C1       CG331   -0.170000       12.0110           0
     57481 WT19     59       MECN     H11      HGA3     0.090000        1.0080           0
     57482 WT19     59       MECN     H12      HGA3     0.090000        1.0080           0
     57483 WT19     59       MECN     H13      HGA3     0.090000        1.0080           0
     57484 WT19     59       MECN     C2       CG1N1    0.360000       12.0110           0
     57485 WT19     59       MECN     N3       NG1T1   -0.460000       14.0070           0
     57486 WT19     63       MECN     C1       CG331   -0.170000       12.0110           0
     57487 WT19     63       MECN     H11      HGA3     0.090000        1.0080           0
     57488 WT19     63       MECN     H12      HGA3     0.090000        1.0080           0
     57489 WT19     63       MECN     H13      HGA3     0.090000        1.0080           0
     57490 WT19     63       MECN     C2       CG1N1    0.360000       12.0110           0
     57491 WT19     63       MECN     N3       NG1T1   -0.460000       14.0070           0
     57492 WT19     71       MECN     C1       CG331   -0.170000       12.0110           0
     57493 WT19     71       MECN     H11      HGA3     0.090000        1.0080           0
     57494 WT19     71       MECN     H12      HGA3     0.090000        1.0080           0
     57495 WT19     71       MECN     H13      HGA3     0.090000        1.0080           0
     57496 WT19     71       MECN     C2       CG1N1    0.360000       12.0110           0
     57497 WT19     71       MECN     N3       NG1T1   -0.460000       14.0070           0
     57498 WT19     79       MECN     C1       CG331   -0.170000       12.0110           0
     57499 WT19     79       MECN     H11      HGA3     0.090000        1.0080           0
     57500 WT19     79       MECN     H12      HGA3     0.090000        1.0080           0
     57501 WT19     79       MECN     H13      HGA3     0.090000        1.0080           0
     57502 WT19     79       MECN     C2       CG1N1    0.360000       12.0110           0
     57503 WT19     79       MECN     N3       NG1T1   -0.460000       14.0070           0
     57504 WT19     83       MECN     C1       CG331   -0.170000       12.0110           0
     57505 WT19     83       MECN     H11      HGA3     0.090000        1.0080           0
     57506 WT19     83       MECN     H12      HGA3     0.090000        1.0080           0
     57507 WT19     83       MECN     H13      HGA3     0.090000        1.0080           0
     57508 WT19     83       MECN     C2       CG1N1    0.360000       12.0110           0
     57509 WT19     83       MECN     N3       NG1T1   -0.460000       14.0070           0
     57510 WT19     92       MECN     C1       CG331   -0.170000       12.0110           0
     57511 WT19     92       MECN     H11      HGA3     0.090000        1.0080           0
     57512 WT19     92       MECN     H12      HGA3     0.090000        1.0080           0
     57513 WT19     92       MECN     H13      HGA3     0.090000        1.0080           0
     57514 WT19     92       MECN     C2       CG1N1    0.360000       12.0110           0
     57515 WT19     92       MECN     N3       NG1T1   -0.460000       14.0070           0
     57516 WT19     96       MECN     C1       CG331   -0.170000       12.0110           0
     57517 WT19     96       MECN     H11      HGA3     0.090000        1.0080           0
     57518 WT19     96       MECN     H12      HGA3     0.090000        1.0080           0
     57519 WT19     96       MECN     H13      HGA3     0.090000        1.0080           0
     57520 WT19     96       MECN     C2       CG1N1    0.360000       12.0110           0
     57521 WT19     96       MECN     N3       NG1T1   -0.460000       14.0070           0
     57522 WT19     105      MECN     C1       CG331   -0.170000       12.0110           0
     57523 WT19     105      MECN     H11      HGA3     0.090000        1.0080           0
     57524 WT19     105      MECN     H12      HGA3     0.090000        1.0080           0
     57525 WT19     105      MECN     H13      HGA3     0.090000        1.0080           0
     57526 WT19     105      MECN     C2       CG1N1    0.360000       12.0110           0
     57527 WT19     105      MECN     N3       NG1T1   -0.460000       14.0070           0
     57528 WT19     108      MECN     C1       CG331   -0.170000       12.0110           0
     57529 WT19     108      MECN     H11      HGA3     0.090000        1.0080           0
     57530 WT19     108      MECN     H12      HGA3     0.090000        1.0080           0
     57531 WT19     108      MECN     H13      HGA3     0.090000        1.0080           0
     57532 WT19     108      MECN     C2       CG1N1    0.360000       12.0110           0
     57533 WT19     108      MECN     N3       NG1T1   -0.460000       14.0070           0
     57534 WT19     111      MECN     C1       CG331   -0.170000       12.0110           0
     57535 WT19     111      MECN     H11      HGA3     0.090000        1.0080           0
     57536 WT19     111      MECN     H12      HGA3     0.090000        1.0080           0
     57537 WT19     111      MECN     H13      HGA3     0.090000        1.0080           0
     57538 WT19     111      MECN     C2       CG1N1    0.360000       12.0110           0
     57539 WT19     111      MECN     N3       NG1T1   -0.460000       14.0070           0
     57540 WT19     112      MECN     C1       CG331   -0.170000       12.0110           0
     57541 WT19     112      MECN     H11      HGA3     0.090000        1.0080           0
     57542 WT19     112      MECN     H12      HGA3     0.090000        1.0080           0
     57543 WT19     112      MECN     H13      HGA3     0.090000        1.0080           0
     57544 WT19     112      MECN     C2       CG1N1    0.360000       12.0110           0
     57545 WT19     112      MECN     N3       NG1T1   -0.460000       14.0070           0
     57546 WT19     115      MECN     C1       CG331   -0.170000       12.0110           0
     57547 WT19     115      MECN     H11      HGA3     0.090000        1.0080           0
     57548 WT19     115      MECN     H12      HGA3     0.090000        1.0080           0
     57549 WT19     115      MECN     H13      HGA3     0.090000        1.0080           0
     57550 WT19     115      MECN     C2       CG1N1    0.360000       12.0110           0
     57551 WT19     115      MECN     N3       NG1T1   -0.460000       14.0070           0
     57552 WT19     117      MECN     C1       CG331   -0.170000       12.0110           0
     57553 WT19     117      MECN     H11      HGA3     0.090000        1.0080           0
     57554 WT19     117      MECN     H12      HGA3     0.090000        1.0080           0
     57555 WT19     117      MECN     H13      HGA3     0.090000        1.0080           0
     57556 WT19     117      MECN     C2       CG1N1    0.360000       12.0110           0
     57557 WT19     117      MECN     N3       NG1T1   -0.460000       14.0070           0
     57558 WT19     118      MECN     C1       CG331   -0.170000       12.0110           0
     57559 WT19     118      MECN     H11      HGA3     0.090000        1.0080           0
     57560 WT19     118      MECN     H12      HGA3     0.090000        1.0080           0
     57561 WT19     118      MECN     H13      HGA3     0.090000        1.0080           0
     57562 WT19     118      MECN     C2       CG1N1    0.360000       12.0110           0
     57563 WT19     118      MECN     N3       NG1T1   -0.460000       14.0070           0
     57564 WT19     121      MECN     C1       CG331   -0.170000       12.0110           0
     57565 WT19     121      MECN     H11      HGA3     0.090000        1.0080           0
     57566 WT19     121      MECN     H12      HGA3     0.090000        1.0080           0
     57567 WT19     121      MECN     H13      HGA3     0.090000        1.0080           0
     57568 WT19     121      MECN     C2       CG1N1    0.360000       12.0110           0
     57569 WT19     121      MECN     N3       NG1T1   -0.460000       14.0070           0
     57570 WT19     129      MECN     C1       CG331   -0.170000       12.0110           0
     57571 WT19     129      MECN     H11      HGA3     0.090000        1.0080           0
     57572 WT19     129      MECN     H12      HGA3     0.090000        1.0080           0
     57573 WT19     129      MECN     H13      HGA3     0.090000        1.0080           0
     57574 WT19     129      MECN     C2       CG1N1    0.360000       12.0110           0
     57575 WT19     129      MECN     N3       NG1T1   -0.460000       14.0070           0
     57576 WT19     134      MECN     C1       CG331   -0.170000       12.0110           0
     57577 WT19     134      MECN     H11      HGA3     0.090000        1.0080           0
     57578 WT19     134      MECN     H12      HGA3     0.090000        1.0080           0
     57579 WT19     134      MECN     H13      HGA3     0.090000        1.0080           0
     57580 WT19     134      MECN     C2       CG1N1    0.360000       12.0110           0
     57581 WT19     134      MECN     N3       NG1T1   -0.460000       14.0070           0
     57582 WT19     147      MECN     C1       CG331   -0.170000       12.0110           0
     57583 WT19     147      MECN     H11      HGA3     0.090000        1.0080           0
     57584 WT19     147      MECN     H12      HGA3     0.090000        1.0080           0
     57585 WT19     147      MECN     H13      HGA3     0.090000        1.0080           0
     57586 WT19     147      MECN     C2       CG1N1    0.360000       12.0110           0
     57587 WT19     147      MECN     N3       NG1T1   -0.460000       14.0070           0
     57588 WT19     151      MECN     C1       CG331   -0.170000       12.0110           0
     57589 WT19     151      MECN     H11      HGA3     0.090000        1.0080           0
     57590 WT19     151      MECN     H12      HGA3     0.090000        1.0080           0
     57591 WT19     151      MECN     H13      HGA3     0.090000        1.0080           0
     57592 WT19     151      MECN     C2       CG1N1    0.360000       12.0110           0
     57593 WT19     151      MECN     N3       NG1T1   -0.460000       14.0070           0
     57594 WT19     159      MECN     C1       CG331   -0.170000       12.0110           0
     57595 WT19     159      MECN     H11      HGA3     0.090000        1.0080           0
     57596 WT19     159      MECN     H12      HGA3     0.090000        1.0080           0
     57597 WT19     159      MECN     H13      HGA3     0.090000        1.0080           0
     57598 WT19     159      MECN     C2       CG1N1    0.360000       12.0110           0
     57599 WT19     159      MECN     N3       NG1T1   -0.460000       14.0070           0
     57600 WT19     173      MECN     C1       CG331   -0.170000       12.0110           0
     57601 WT19     173      MECN     H11      HGA3     0.090000        1.0080           0
     57602 WT19     173      MECN     H12      HGA3     0.090000        1.0080           0
     57603 WT19     173      MECN     H13      HGA3     0.090000        1.0080           0
     57604 WT19     173      MECN     C2       CG1N1    0.360000       12.0110           0
     57605 WT19     173      MECN     N3       NG1T1   -0.460000       14.0070           0
     57606 WT19     179      MECN     C1       CG331   -0.170000       12.0110           0
     57607 WT19     179      MECN     H11      HGA3     0.090000        1.0080           0
     57608 WT19     179      MECN     H12      HGA3     0.090000        1.0080           0
     57609 WT19     179      MECN     H13      HGA3     0.090000        1.0080           0
     57610 WT19     179      MECN     C2       CG1N1    0.360000       12.0110           0
     57611 WT19     179      MECN     N3       NG1T1   -0.460000       14.0070           0
     57612 WT19     182      MECN     C1       CG331   -0.170000       12.0110           0
     57613 WT19     182      MECN     H11      HGA3     0.090000        1.0080           0
     57614 WT19     182      MECN     H12      HGA3     0.090000        1.0080           0
     57615 WT19     182      MECN     H13      HGA3     0.090000        1.0080           0
     57616 WT19     182      MECN     C2       CG1N1    0.360000       12.0110           0
     57617 WT19     182      MECN     N3       NG1T1   -0.460000       14.0070           0
     57618 WT19     191      MECN     C1       CG331   -0.170000       12.0110           0
     57619 WT19     191      MECN     H11      HGA3     0.090000        1.0080           0
     57620 WT19     191      MECN     H12      HGA3     0.090000        1.0080           0
     57621 WT19     191      MECN     H13      HGA3     0.090000        1.0080           0
     57622 WT19     191      MECN     C2       CG1N1    0.360000       12.0110           0
     57623 WT19     191      MECN     N3       NG1T1   -0.460000       14.0070           0
     57624 WT19     201      MECN     C1       CG331   -0.170000       12.0110           0
     57625 WT19     201      MECN     H11      HGA3     0.090000        1.0080           0
     57626 WT19     201      MECN     H12      HGA3     0.090000        1.0080           0
     57627 WT19     201      MECN     H13      HGA3     0.090000        1.0080           0
     57628 WT19     201      MECN     C2       CG1N1    0.360000       12.0110           0
     57629 WT19     201      MECN     N3       NG1T1   -0.460000       14.0070           0
     57630 WT19     202      MECN     C1       CG331   -0.170000       12.0110           0
     57631 WT19     202      MECN     H11      HGA3     0.090000        1.0080           0
     57632 WT19     202      MECN     H12      HGA3     0.090000        1.0080           0
     57633 WT19     202      MECN     H13      HGA3     0.090000        1.0080           0
     57634 WT19     202      MECN     C2       CG1N1    0.360000       12.0110           0
     57635 WT19     202      MECN     N3       NG1T1   -0.460000       14.0070           0
     57636 WT19     204      MECN     C1       CG331   -0.170000       12.0110           0
     57637 WT19     204      MECN     H11      HGA3     0.090000        1.0080           0
     57638 WT19     204      MECN     H12      HGA3     0.090000        1.0080           0
     57639 WT19     204      MECN     H13      HGA3     0.090000        1.0080           0
     57640 WT19     204      MECN     C2       CG1N1    0.360000       12.0110           0
     57641 WT19     204      MECN     N3       NG1T1   -0.460000       14.0070           0
     57642 WT19     209      MECN     C1       CG331   -0.170000       12.0110           0
     57643 WT19     209      MECN     H11      HGA3     0.090000        1.0080           0
     57644 WT19     209      MECN     H12      HGA3     0.090000        1.0080           0
     57645 WT19     209      MECN     H13      HGA3     0.090000        1.0080           0
     57646 WT19     209      MECN     C2       CG1N1    0.360000       12.0110           0
     57647 WT19     209      MECN     N3       NG1T1   -0.460000       14.0070           0
     57648 WT19     216      MECN     C1       CG331   -0.170000       12.0110           0
     57649 WT19     216      MECN     H11      HGA3     0.090000        1.0080           0
     57650 WT19     216      MECN     H12      HGA3     0.090000        1.0080           0
     57651 WT19     216      MECN     H13      HGA3     0.090000        1.0080           0
     57652 WT19     216      MECN     C2       CG1N1    0.360000       12.0110           0
     57653 WT19     216      MECN     N3       NG1T1   -0.460000       14.0070           0
     57654 WT19     225      MECN     C1       CG331   -0.170000       12.0110           0
     57655 WT19     225      MECN     H11      HGA3     0.090000        1.0080           0
     57656 WT19     225      MECN     H12      HGA3     0.090000        1.0080           0
     57657 WT19     225      MECN     H13      HGA3     0.090000        1.0080           0
     57658 WT19     225      MECN     C2       CG1N1    0.360000       12.0110           0
     57659 WT19     225      MECN     N3       NG1T1   -0.460000       14.0070           0
     57660 WT19     230      MECN     C1       CG331   -0.170000       12.0110           0
     57661 WT19     230      MECN     H11      HGA3     0.090000        1.0080           0
     57662 WT19     230      MECN     H12      HGA3     0.090000        1.0080           0
     57663 WT19     230      MECN     H13      HGA3     0.090000        1.0080           0
     57664 WT19     230      MECN     C2       CG1N1    0.360000       12.0110           0
     57665 WT19     230      MECN     N3       NG1T1   -0.460000       14.0070           0
     57666 WT19     246      MECN     C1       CG331   -0.170000       12.0110           0
     57667 WT19     246      MECN     H11      HGA3     0.090000        1.0080           0
     57668 WT19     246      MECN     H12      HGA3     0.090000        1.0080           0
     57669 WT19     246      MECN     H13      HGA3     0.090000        1.0080           0
     57670 WT19     246      MECN     C2       CG1N1    0.360000       12.0110           0
     57671 WT19     246      MECN     N3       NG1T1   -0.460000       14.0070           0
     57672 WT19     247      MECN     C1       CG331   -0.170000       12.0110           0
     57673 WT19     247      MECN     H11      HGA3     0.090000        1.0080           0
     57674 WT19     247      MECN     H12      HGA3     0.090000        1.0080           0
     57675 WT19     247      MECN     H13      HGA3     0.090000        1.0080           0
     57676 WT19     247      MECN     C2       CG1N1    0.360000       12.0110           0
     57677 WT19     247      MECN     N3       NG1T1   -0.460000       14.0070           0
     57678 WT19     248      MECN     C1       CG331   -0.170000       12.0110           0
     57679 WT19     248      MECN     H11      HGA3     0.090000        1.0080           0
     57680 WT19     248      MECN     H12      HGA3     0.090000        1.0080           0
     57681 WT19     248      MECN     H13      HGA3     0.090000        1.0080           0
     57682 WT19     248      MECN     C2       CG1N1    0.360000       12.0110           0
     57683 WT19     248      MECN     N3       NG1T1   -0.460000       14.0070           0
     57684 WT19     251      MECN     C1       CG331   -0.170000       12.0110           0
     57685 WT19     251      MECN     H11      HGA3     0.090000        1.0080           0
     57686 WT19     251      MECN     H12      HGA3     0.090000        1.0080           0
     57687 WT19     251      MECN     H13      HGA3     0.090000        1.0080           0
     57688 WT19     251      MECN     C2       CG1N1    0.360000       12.0110           0
     57689 WT19     251      MECN     N3       NG1T1   -0.460000       14.0070           0
     57690 WT19     253      MECN     C1       CG331   -0.170000       12.0110           0
     57691 WT19     253      MECN     H11      HGA3     0.090000        1.0080           0
     57692 WT19     253      MECN     H12      HGA3     0.090000        1.0080           0
     57693 WT19     253      MECN     H13      HGA3     0.090000        1.0080           0
     57694 WT19     253      MECN     C2       CG1N1    0.360000       12.0110           0
     57695 WT19     253      MECN     N3       NG1T1   -0.460000       14.0070           0
     57696 WT19     255      MECN     C1       CG331   -0.170000       12.0110           0
     57697 WT19     255      MECN     H11      HGA3     0.090000        1.0080           0
     57698 WT19     255      MECN     H12      HGA3     0.090000        1.0080           0
     57699 WT19     255      MECN     H13      HGA3     0.090000        1.0080           0
     57700 WT19     255      MECN     C2       CG1N1    0.360000       12.0110           0
     57701 WT19     255      MECN     N3       NG1T1   -0.460000       14.0070           0
     57702 WT19     260      MECN     C1       CG331   -0.170000       12.0110           0
     57703 WT19     260      MECN     H11      HGA3     0.090000        1.0080           0
     57704 WT19     260      MECN     H12      HGA3     0.090000        1.0080           0
     57705 WT19     260      MECN     H13      HGA3     0.090000        1.0080           0
     57706 WT19     260      MECN     C2       CG1N1    0.360000       12.0110           0
     57707 WT19     260      MECN     N3       NG1T1   -0.460000       14.0070           0
     57708 WT19     270      MECN     C1       CG331   -0.170000       12.0110           0
     57709 WT19     270      MECN     H11      HGA3     0.090000        1.0080           0
     57710 WT19     270      MECN     H12      HGA3     0.090000        1.0080           0
     57711 WT19     270      MECN     H13      HGA3     0.090000        1.0080           0
     57712 WT19     270      MECN     C2       CG1N1    0.360000       12.0110           0
     57713 WT19     270      MECN     N3       NG1T1   -0.460000       14.0070           0
     57714 WT19     272      MECN     C1       CG331   -0.170000       12.0110           0
     57715 WT19     272      MECN     H11      HGA3     0.090000        1.0080           0
     57716 WT19     272      MECN     H12      HGA3     0.090000        1.0080           0
     57717 WT19     272      MECN     H13      HGA3     0.090000        1.0080           0
     57718 WT19     272      MECN     C2       CG1N1    0.360000       12.0110           0
     57719 WT19     272      MECN     N3       NG1T1   -0.460000       14.0070           0
     57720 WT19     274      MECN     C1       CG331   -0.170000       12.0110           0
     57721 WT19     274      MECN     H11      HGA3     0.090000        1.0080           0
     57722 WT19     274      MECN     H12      HGA3     0.090000        1.0080           0
     57723 WT19     274      MECN     H13      HGA3     0.090000        1.0080           0
     57724 WT19     274      MECN     C2       CG1N1    0.360000       12.0110           0
     57725 WT19     274      MECN     N3       NG1T1   -0.460000       14.0070           0
     57726 WT19     285      MECN     C1       CG331   -0.170000       12.0110           0
     57727 WT19     285      MECN     H11      HGA3     0.090000        1.0080           0
     57728 WT19     285      MECN     H12      HGA3     0.090000        1.0080           0
     57729 WT19     285      MECN     H13      HGA3     0.090000        1.0080           0
     57730 WT19     285      MECN     C2       CG1N1    0.360000       12.0110           0
     57731 WT19     285      MECN     N3       NG1T1   -0.460000       14.0070           0
     57732 WT19     292      MECN     C1       CG331   -0.170000       12.0110           0
     57733 WT19     292      MECN     H11      HGA3     0.090000        1.0080           0
     57734 WT19     292      MECN     H12      HGA3     0.090000        1.0080           0
     57735 WT19     292      MECN     H13      HGA3     0.090000        1.0080           0
     57736 WT19     292      MECN     C2       CG1N1    0.360000       12.0110           0
     57737 WT19     292      MECN     N3       NG1T1   -0.460000       14.0070           0
     57738 WT19     297      MECN     C1       CG331   -0.170000       12.0110           0
     57739 WT19     297      MECN     H11      HGA3     0.090000        1.0080           0
     57740 WT19     297      MECN     H12      HGA3     0.090000        1.0080           0
     57741 WT19     297      MECN     H13      HGA3     0.090000        1.0080           0
     57742 WT19     297      MECN     C2       CG1N1    0.360000       12.0110           0
     57743 WT19     297      MECN     N3       NG1T1   -0.460000       14.0070           0
     57744 WT19     304      MECN     C1       CG331   -0.170000       12.0110           0
     57745 WT19     304      MECN     H11      HGA3     0.090000        1.0080           0
     57746 WT19     304      MECN     H12      HGA3     0.090000        1.0080           0
     57747 WT19     304      MECN     H13      HGA3     0.090000        1.0080           0
     57748 WT19     304      MECN     C2       CG1N1    0.360000       12.0110           0
     57749 WT19     304      MECN     N3       NG1T1   -0.460000       14.0070           0
     57750 WT19     308      MECN     C1       CG331   -0.170000       12.0110           0
     57751 WT19     308      MECN     H11      HGA3     0.090000        1.0080           0
     57752 WT19     308      MECN     H12      HGA3     0.090000        1.0080           0
     57753 WT19     308      MECN     H13      HGA3     0.090000        1.0080           0
     57754 WT19     308      MECN     C2       CG1N1    0.360000       12.0110           0
     57755 WT19     308      MECN     N3       NG1T1   -0.460000       14.0070           0
     57756 WT19     310      MECN     C1       CG331   -0.170000       12.0110           0
     57757 WT19     310      MECN     H11      HGA3     0.090000        1.0080           0
     57758 WT19     310      MECN     H12      HGA3     0.090000        1.0080           0
     57759 WT19     310      MECN     H13      HGA3     0.090000        1.0080           0
     57760 WT19     310      MECN     C2       CG1N1    0.360000       12.0110           0
     57761 WT19     310      MECN     N3       NG1T1   -0.460000       14.0070           0
     57762 WT19     317      MECN     C1       CG331   -0.170000       12.0110           0
     57763 WT19     317      MECN     H11      HGA3     0.090000        1.0080           0
     57764 WT19     317      MECN     H12      HGA3     0.090000        1.0080           0
     57765 WT19     317      MECN     H13      HGA3     0.090000        1.0080           0
     57766 WT19     317      MECN     C2       CG1N1    0.360000       12.0110           0
     57767 WT19     317      MECN     N3       NG1T1   -0.460000       14.0070           0
     57768 WT19     325      MECN     C1       CG331   -0.170000       12.0110           0
     57769 WT19     325      MECN     H11      HGA3     0.090000        1.0080           0
     57770 WT19     325      MECN     H12      HGA3     0.090000        1.0080           0
     57771 WT19     325      MECN     H13      HGA3     0.090000        1.0080           0
     57772 WT19     325      MECN     C2       CG1N1    0.360000       12.0110           0
     57773 WT19     325      MECN     N3       NG1T1   -0.460000       14.0070           0
     57774 WT19     327      MECN     C1       CG331   -0.170000       12.0110           0
     57775 WT19     327      MECN     H11      HGA3     0.090000        1.0080           0
     57776 WT19     327      MECN     H12      HGA3     0.090000        1.0080           0
     57777 WT19     327      MECN     H13      HGA3     0.090000        1.0080           0
     57778 WT19     327      MECN     C2       CG1N1    0.360000       12.0110           0
     57779 WT19     327      MECN     N3       NG1T1   -0.460000       14.0070           0
     57780 WT19     328      MECN     C1       CG331   -0.170000       12.0110           0
     57781 WT19     328      MECN     H11      HGA3     0.090000        1.0080           0
     57782 WT19     328      MECN     H12      HGA3     0.090000        1.0080           0
     57783 WT19     328      MECN     H13      HGA3     0.090000        1.0080           0
     57784 WT19     328      MECN     C2       CG1N1    0.360000       12.0110           0
     57785 WT19     328      MECN     N3       NG1T1   -0.460000       14.0070           0
     57786 WT19     333      MECN     C1       CG331   -0.170000       12.0110           0
     57787 WT19     333      MECN     H11      HGA3     0.090000        1.0080           0
     57788 WT19     333      MECN     H12      HGA3     0.090000        1.0080           0
     57789 WT19     333      MECN     H13      HGA3     0.090000        1.0080           0
     57790 WT19     333      MECN     C2       CG1N1    0.360000       12.0110           0
     57791 WT19     333      MECN     N3       NG1T1   -0.460000       14.0070           0
     57792 WT19     336      MECN     C1       CG331   -0.170000       12.0110           0
     57793 WT19     336      MECN     H11      HGA3     0.090000        1.0080           0
     57794 WT19     336      MECN     H12      HGA3     0.090000        1.0080           0
     57795 WT19     336      MECN     H13      HGA3     0.090000        1.0080           0
     57796 WT19     336      MECN     C2       CG1N1    0.360000       12.0110           0
     57797 WT19     336      MECN     N3       NG1T1   -0.460000       14.0070           0
     57798 WT19     340      MECN     C1       CG331   -0.170000       12.0110           0
     57799 WT19     340      MECN     H11      HGA3     0.090000        1.0080           0
     57800 WT19     340      MECN     H12      HGA3     0.090000        1.0080           0
     57801 WT19     340      MECN     H13      HGA3     0.090000        1.0080           0
     57802 WT19     340      MECN     C2       CG1N1    0.360000       12.0110           0
     57803 WT19     340      MECN     N3       NG1T1   -0.460000       14.0070           0
     57804 WT19     341      MECN     C1       CG331   -0.170000       12.0110           0
     57805 WT19     341      MECN     H11      HGA3     0.090000        1.0080           0
     57806 WT19     341      MECN     H12      HGA3     0.090000        1.0080           0
     57807 WT19     341      MECN     H13      HGA3     0.090000        1.0080           0
     57808 WT19     341      MECN     C2       CG1N1    0.360000       12.0110           0
     57809 WT19     341      MECN     N3       NG1T1   -0.460000       14.0070           0
     57810 WT19     343      MECN     C1       CG331   -0.170000       12.0110           0
     57811 WT19     343      MECN     H11      HGA3     0.090000        1.0080           0
     57812 WT19     343      MECN     H12      HGA3     0.090000        1.0080           0
     57813 WT19     343      MECN     H13      HGA3     0.090000        1.0080           0
     57814 WT19     343      MECN     C2       CG1N1    0.360000       12.0110           0
     57815 WT19     343      MECN     N3       NG1T1   -0.460000       14.0070           0
     57816 WT19     344      MECN     C1       CG331   -0.170000       12.0110           0
     57817 WT19     344      MECN     H11      HGA3     0.090000        1.0080           0
     57818 WT19     344      MECN     H12      HGA3     0.090000        1.0080           0
     57819 WT19     344      MECN     H13      HGA3     0.090000        1.0080           0
     57820 WT19     344      MECN     C2       CG1N1    0.360000       12.0110           0
     57821 WT19     344      MECN     N3       NG1T1   -0.460000       14.0070           0
     57822 WT19     346      MECN     C1       CG331   -0.170000       12.0110           0
     57823 WT19     346      MECN     H11      HGA3     0.090000        1.0080           0
     57824 WT19     346      MECN     H12      HGA3     0.090000        1.0080           0
     57825 WT19     346      MECN     H13      HGA3     0.090000        1.0080           0
     57826 WT19     346      MECN     C2       CG1N1    0.360000       12.0110           0
     57827 WT19     346      MECN     N3       NG1T1   -0.460000       14.0070           0
     57828 WT19     349      MECN     C1       CG331   -0.170000       12.0110           0
     57829 WT19     349      MECN     H11      HGA3     0.090000        1.0080           0
     57830 WT19     349      MECN     H12      HGA3     0.090000        1.0080           0
     57831 WT19     349      MECN     H13      HGA3     0.090000        1.0080           0
     57832 WT19     349      MECN     C2       CG1N1    0.360000       12.0110           0
     57833 WT19     349      MECN     N3       NG1T1   -0.460000       14.0070           0
     57834 WT19     366      MECN     C1       CG331   -0.170000       12.0110           0
     57835 WT19     366      MECN     H11      HGA3     0.090000        1.0080           0
     57836 WT19     366      MECN     H12      HGA3     0.090000        1.0080           0
     57837 WT19     366      MECN     H13      HGA3     0.090000        1.0080           0
     57838 WT19     366      MECN     C2       CG1N1    0.360000       12.0110           0
     57839 WT19     366      MECN     N3       NG1T1   -0.460000       14.0070           0
     57840 WT19     367      MECN     C1       CG331   -0.170000       12.0110           0
     57841 WT19     367      MECN     H11      HGA3     0.090000        1.0080           0
     57842 WT19     367      MECN     H12      HGA3     0.090000        1.0080           0
     57843 WT19     367      MECN     H13      HGA3     0.090000        1.0080           0
     57844 WT19     367      MECN     C2       CG1N1    0.360000       12.0110           0
     57845 WT19     367      MECN     N3       NG1T1   -0.460000       14.0070           0
     57846 WT19     369      MECN     C1       CG331   -0.170000       12.0110           0
     57847 WT19     369      MECN     H11      HGA3     0.090000        1.0080           0
     57848 WT19     369      MECN     H12      HGA3     0.090000        1.0080           0
     57849 WT19     369      MECN     H13      HGA3     0.090000        1.0080           0
     57850 WT19     369      MECN     C2       CG1N1    0.360000       12.0110           0
     57851 WT19     369      MECN     N3       NG1T1   -0.460000       14.0070           0
     57852 WT19     378      MECN     C1       CG331   -0.170000       12.0110           0
     57853 WT19     378      MECN     H11      HGA3     0.090000        1.0080           0
     57854 WT19     378      MECN     H12      HGA3     0.090000        1.0080           0
     57855 WT19     378      MECN     H13      HGA3     0.090000        1.0080           0
     57856 WT19     378      MECN     C2       CG1N1    0.360000       12.0110           0
     57857 WT19     378      MECN     N3       NG1T1   -0.460000       14.0070           0
     57858 WT19     381      MECN     C1       CG331   -0.170000       12.0110           0
     57859 WT19     381      MECN     H11      HGA3     0.090000        1.0080           0
     57860 WT19     381      MECN     H12      HGA3     0.090000        1.0080           0
     57861 WT19     381      MECN     H13      HGA3     0.090000        1.0080           0
     57862 WT19     381      MECN     C2       CG1N1    0.360000       12.0110           0
     57863 WT19     381      MECN     N3       NG1T1   -0.460000       14.0070           0
     57864 WT19     391      MECN     C1       CG331   -0.170000       12.0110           0
     57865 WT19     391      MECN     H11      HGA3     0.090000        1.0080           0
     57866 WT19     391      MECN     H12      HGA3     0.090000        1.0080           0
     57867 WT19     391      MECN     H13      HGA3     0.090000        1.0080           0
     57868 WT19     391      MECN     C2       CG1N1    0.360000       12.0110           0
     57869 WT19     391      MECN     N3       NG1T1   -0.460000       14.0070           0
     57870 WT19     395      MECN     C1       CG331   -0.170000       12.0110           0
     57871 WT19     395      MECN     H11      HGA3     0.090000        1.0080           0
     57872 WT19     395      MECN     H12      HGA3     0.090000        1.0080           0
     57873 WT19     395      MECN     H13      HGA3     0.090000        1.0080           0
     57874 WT19     395      MECN     C2       CG1N1    0.360000       12.0110           0
     57875 WT19     395      MECN     N3       NG1T1   -0.460000       14.0070           0
     57876 WT19     400      MECN     C1       CG331   -0.170000       12.0110           0
     57877 WT19     400      MECN     H11      HGA3     0.090000        1.0080           0
     57878 WT19     400      MECN     H12      HGA3     0.090000        1.0080           0
     57879 WT19     400      MECN     H13      HGA3     0.090000        1.0080           0
     57880 WT19     400      MECN     C2       CG1N1    0.360000       12.0110           0
     57881 WT19     400      MECN     N3       NG1T1   -0.460000       14.0070           0
     57882 WT19     401      MECN     C1       CG331   -0.170000       12.0110           0
     57883 WT19     401      MECN     H11      HGA3     0.090000        1.0080           0
     57884 WT19     401      MECN     H12      HGA3     0.090000        1.0080           0
     57885 WT19     401      MECN     H13      HGA3     0.090000        1.0080           0
     57886 WT19     401      MECN     C2       CG1N1    0.360000       12.0110           0
     57887 WT19     401      MECN     N3       NG1T1   -0.460000       14.0070           0
     57888 WT19     403      MECN     C1       CG331   -0.170000       12.0110           0
     57889 WT19     403      MECN     H11      HGA3     0.090000        1.0080           0
     57890 WT19     403      MECN     H12      HGA3     0.090000        1.0080           0
     57891 WT19     403      MECN     H13      HGA3     0.090000        1.0080           0
     57892 WT19     403      MECN     C2       CG1N1    0.360000       12.0110           0
     57893 WT19     403      MECN     N3       NG1T1   -0.460000       14.0070           0
     57894 WT19     406      MECN     C1       CG331   -0.170000       12.0110           0
     57895 WT19     406      MECN     H11      HGA3     0.090000        1.0080           0
     57896 WT19     406      MECN     H12      HGA3     0.090000        1.0080           0
     57897 WT19     406      MECN     H13      HGA3     0.090000        1.0080           0
     57898 WT19     406      MECN     C2       CG1N1    0.360000       12.0110           0
     57899 WT19     406      MECN     N3       NG1T1   -0.460000       14.0070           0
     57900 WT19     408      MECN     C1       CG331   -0.170000       12.0110           0
     57901 WT19     408      MECN     H11      HGA3     0.090000        1.0080           0
     57902 WT19     408      MECN     H12      HGA3     0.090000        1.0080           0
     57903 WT19     408      MECN     H13      HGA3     0.090000        1.0080           0
     57904 WT19     408      MECN     C2       CG1N1    0.360000       12.0110           0
     57905 WT19     408      MECN     N3       NG1T1   -0.460000       14.0070           0
     57906 WT19     423      MECN     C1       CG331   -0.170000       12.0110           0
     57907 WT19     423      MECN     H11      HGA3     0.090000        1.0080           0
     57908 WT19     423      MECN     H12      HGA3     0.090000        1.0080           0
     57909 WT19     423      MECN     H13      HGA3     0.090000        1.0080           0
     57910 WT19     423      MECN     C2       CG1N1    0.360000       12.0110           0
     57911 WT19     423      MECN     N3       NG1T1   -0.460000       14.0070           0
     57912 WT19     440      MECN     C1       CG331   -0.170000       12.0110           0
     57913 WT19     440      MECN     H11      HGA3     0.090000        1.0080           0
     57914 WT19     440      MECN     H12      HGA3     0.090000        1.0080           0
     57915 WT19     440      MECN     H13      HGA3     0.090000        1.0080           0
     57916 WT19     440      MECN     C2       CG1N1    0.360000       12.0110           0
     57917 WT19     440      MECN     N3       NG1T1   -0.460000       14.0070           0
     57918 WT19     446      MECN     C1       CG331   -0.170000       12.0110           0
     57919 WT19     446      MECN     H11      HGA3     0.090000        1.0080           0
     57920 WT19     446      MECN     H12      HGA3     0.090000        1.0080           0
     57921 WT19     446      MECN     H13      HGA3     0.090000        1.0080           0
     57922 WT19     446      MECN     C2       CG1N1    0.360000       12.0110           0
     57923 WT19     446      MECN     N3       NG1T1   -0.460000       14.0070           0
     57924 WT19     449      MECN     C1       CG331   -0.170000       12.0110           0
     57925 WT19     449      MECN     H11      HGA3     0.090000        1.0080           0
     57926 WT19     449      MECN     H12      HGA3     0.090000        1.0080           0
     57927 WT19     449      MECN     H13      HGA3     0.090000        1.0080           0
     57928 WT19     449      MECN     C2       CG1N1    0.360000       12.0110           0
     57929 WT19     449      MECN     N3       NG1T1   -0.460000       14.0070           0
     57930 WT19     452      MECN     C1       CG331   -0.170000       12.0110           0
     57931 WT19     452      MECN     H11      HGA3     0.090000        1.0080           0
     57932 WT19     452      MECN     H12      HGA3     0.090000        1.0080           0
     57933 WT19     452      MECN     H13      HGA3     0.090000        1.0080           0
     57934 WT19     452      MECN     C2       CG1N1    0.360000       12.0110           0
     57935 WT19     452      MECN     N3       NG1T1   -0.460000       14.0070           0
     57936 WT19     454      MECN     C1       CG331   -0.170000       12.0110           0
     57937 WT19     454      MECN     H11      HGA3     0.090000        1.0080           0
     57938 WT19     454      MECN     H12      HGA3     0.090000        1.0080           0
     57939 WT19     454      MECN     H13      HGA3     0.090000        1.0080           0
     57940 WT19     454      MECN     C2       CG1N1    0.360000       12.0110           0
     57941 WT19     454      MECN     N3       NG1T1   -0.460000       14.0070           0
     57942 WT19     458      MECN     C1       CG331   -0.170000       12.0110           0
     57943 WT19     458      MECN     H11      HGA3     0.090000        1.0080           0
     57944 WT19     458      MECN     H12      HGA3     0.090000        1.0080           0
     57945 WT19     458      MECN     H13      HGA3     0.090000        1.0080           0
     57946 WT19     458      MECN     C2       CG1N1    0.360000       12.0110           0
     57947 WT19     458      MECN     N3       NG1T1   -0.460000       14.0070           0
     57948 WT19     464      MECN     C1       CG331   -0.170000       12.0110           0
     57949 WT19     464      MECN     H11      HGA3     0.090000        1.0080           0
     57950 WT19     464      MECN     H12      HGA3     0.090000        1.0080           0
     57951 WT19     464      MECN     H13      HGA3     0.090000        1.0080           0
     57952 WT19     464      MECN     C2       CG1N1    0.360000       12.0110           0
     57953 WT19     464      MECN     N3       NG1T1   -0.460000       14.0070           0
     57954 WT19     467      MECN     C1       CG331   -0.170000       12.0110           0
     57955 WT19     467      MECN     H11      HGA3     0.090000        1.0080           0
     57956 WT19     467      MECN     H12      HGA3     0.090000        1.0080           0
     57957 WT19     467      MECN     H13      HGA3     0.090000        1.0080           0
     57958 WT19     467      MECN     C2       CG1N1    0.360000       12.0110           0
     57959 WT19     467      MECN     N3       NG1T1   -0.460000       14.0070           0
     57960 WT19     471      MECN     C1       CG331   -0.170000       12.0110           0
     57961 WT19     471      MECN     H11      HGA3     0.090000        1.0080           0
     57962 WT19     471      MECN     H12      HGA3     0.090000        1.0080           0
     57963 WT19     471      MECN     H13      HGA3     0.090000        1.0080           0
     57964 WT19     471      MECN     C2       CG1N1    0.360000       12.0110           0
     57965 WT19     471      MECN     N3       NG1T1   -0.460000       14.0070           0
     57966 WT19     477      MECN     C1       CG331   -0.170000       12.0110           0
     57967 WT19     477      MECN     H11      HGA3     0.090000        1.0080           0
     57968 WT19     477      MECN     H12      HGA3     0.090000        1.0080           0
     57969 WT19     477      MECN     H13      HGA3     0.090000        1.0080           0
     57970 WT19     477      MECN     C2       CG1N1    0.360000       12.0110           0
     57971 WT19     477      MECN     N3       NG1T1   -0.460000       14.0070           0
     57972 WT19     480      MECN     C1       CG331   -0.170000       12.0110           0
     57973 WT19     480      MECN     H11      HGA3     0.090000        1.0080           0
     57974 WT19     480      MECN     H12      HGA3     0.090000        1.0080           0
     57975 WT19     480      MECN     H13      HGA3     0.090000        1.0080           0
     57976 WT19     480      MECN     C2       CG1N1    0.360000       12.0110           0
     57977 WT19     480      MECN     N3       NG1T1   -0.460000       14.0070           0
     57978 WT19     485      MECN     C1       CG331   -0.170000       12.0110           0
     57979 WT19     485      MECN     H11      HGA3     0.090000        1.0080           0
     57980 WT19     485      MECN     H12      HGA3     0.090000        1.0080           0
     57981 WT19     485      MECN     H13      HGA3     0.090000        1.0080           0
     57982 WT19     485      MECN     C2       CG1N1    0.360000       12.0110           0
     57983 WT19     485      MECN     N3       NG1T1   -0.460000       14.0070           0
     57984 WT19     494      MECN     C1       CG331   -0.170000       12.0110           0
     57985 WT19     494      MECN     H11      HGA3     0.090000        1.0080           0
     57986 WT19     494      MECN     H12      HGA3     0.090000        1.0080           0
     57987 WT19     494      MECN     H13      HGA3     0.090000        1.0080           0
     57988 WT19     494      MECN     C2       CG1N1    0.360000       12.0110           0
     57989 WT19     494      MECN     N3       NG1T1   -0.460000       14.0070           0
     57990 WT19     495      MECN     C1       CG331   -0.170000       12.0110           0
     57991 WT19     495      MECN     H11      HGA3     0.090000        1.0080           0
     57992 WT19     495      MECN     H12      HGA3     0.090000        1.0080           0
     57993 WT19     495      MECN     H13      HGA3     0.090000        1.0080           0
     57994 WT19     495      MECN     C2       CG1N1    0.360000       12.0110           0
     57995 WT19     495      MECN     N3       NG1T1   -0.460000       14.0070           0
     57996 WT19     497      MECN     C1       CG331   -0.170000       12.0110           0
     57997 WT19     497      MECN     H11      HGA3     0.090000        1.0080           0
     57998 WT19     497      MECN     H12      HGA3     0.090000        1.0080           0
     57999 WT19     497      MECN     H13      HGA3     0.090000        1.0080           0
     58000 WT19     497      MECN     C2       CG1N1    0.360000       12.0110           0
     58001 WT19     497      MECN     N3       NG1T1   -0.460000       14.0070           0
     58002 WT19     520      MECN     C1       CG331   -0.170000       12.0110           0
     58003 WT19     520      MECN     H11      HGA3     0.090000        1.0080           0
     58004 WT19     520      MECN     H12      HGA3     0.090000        1.0080           0
     58005 WT19     520      MECN     H13      HGA3     0.090000        1.0080           0
     58006 WT19     520      MECN     C2       CG1N1    0.360000       12.0110           0
     58007 WT19     520      MECN     N3       NG1T1   -0.460000       14.0070           0
     58008 WT19     528      MECN     C1       CG331   -0.170000       12.0110           0
     58009 WT19     528      MECN     H11      HGA3     0.090000        1.0080           0
     58010 WT19     528      MECN     H12      HGA3     0.090000        1.0080           0
     58011 WT19     528      MECN     H13      HGA3     0.090000        1.0080           0
     58012 WT19     528      MECN     C2       CG1N1    0.360000       12.0110           0
     58013 WT19     528      MECN     N3       NG1T1   -0.460000       14.0070           0
     58014 WT19     531      MECN     C1       CG331   -0.170000       12.0110           0
     58015 WT19     531      MECN     H11      HGA3     0.090000        1.0080           0
     58016 WT19     531      MECN     H12      HGA3     0.090000        1.0080           0
     58017 WT19     531      MECN     H13      HGA3     0.090000        1.0080           0
     58018 WT19     531      MECN     C2       CG1N1    0.360000       12.0110           0
     58019 WT19     531      MECN     N3       NG1T1   -0.460000       14.0070           0
     58020 WT19     544      MECN     C1       CG331   -0.170000       12.0110           0
     58021 WT19     544      MECN     H11      HGA3     0.090000        1.0080           0
     58022 WT19     544      MECN     H12      HGA3     0.090000        1.0080           0
     58023 WT19     544      MECN     H13      HGA3     0.090000        1.0080           0
     58024 WT19     544      MECN     C2       CG1N1    0.360000       12.0110           0
     58025 WT19     544      MECN     N3       NG1T1   -0.460000       14.0070           0
     58026 WT19     553      MECN     C1       CG331   -0.170000       12.0110           0
     58027 WT19     553      MECN     H11      HGA3     0.090000        1.0080           0
     58028 WT19     553      MECN     H12      HGA3     0.090000        1.0080           0
     58029 WT19     553      MECN     H13      HGA3     0.090000        1.0080           0
     58030 WT19     553      MECN     C2       CG1N1    0.360000       12.0110           0
     58031 WT19     553      MECN     N3       NG1T1   -0.460000       14.0070           0
     58032 WT19     555      MECN     C1       CG331   -0.170000       12.0110           0
     58033 WT19     555      MECN     H11      HGA3     0.090000        1.0080           0
     58034 WT19     555      MECN     H12      HGA3     0.090000        1.0080           0
     58035 WT19     555      MECN     H13      HGA3     0.090000        1.0080           0
     58036 WT19     555      MECN     C2       CG1N1    0.360000       12.0110           0
     58037 WT19     555      MECN     N3       NG1T1   -0.460000       14.0070           0
     58038 WT19     578      MECN     C1       CG331   -0.170000       12.0110           0
     58039 WT19     578      MECN     H11      HGA3     0.090000        1.0080           0
     58040 WT19     578      MECN     H12      HGA3     0.090000        1.0080           0
     58041 WT19     578      MECN     H13      HGA3     0.090000        1.0080           0
     58042 WT19     578      MECN     C2       CG1N1    0.360000       12.0110           0
     58043 WT19     578      MECN     N3       NG1T1   -0.460000       14.0070           0
     58044 WT19     580      MECN     C1       CG331   -0.170000       12.0110           0
     58045 WT19     580      MECN     H11      HGA3     0.090000        1.0080           0
     58046 WT19     580      MECN     H12      HGA3     0.090000        1.0080           0
     58047 WT19     580      MECN     H13      HGA3     0.090000        1.0080           0
     58048 WT19     580      MECN     C2       CG1N1    0.360000       12.0110           0
     58049 WT19     580      MECN     N3       NG1T1   -0.460000       14.0070           0
     58050 WT19     584      MECN     C1       CG331   -0.170000       12.0110           0
     58051 WT19     584      MECN     H11      HGA3     0.090000        1.0080           0
     58052 WT19     584      MECN     H12      HGA3     0.090000        1.0080           0
     58053 WT19     584      MECN     H13      HGA3     0.090000        1.0080           0
     58054 WT19     584      MECN     C2       CG1N1    0.360000       12.0110           0
     58055 WT19     584      MECN     N3       NG1T1   -0.460000       14.0070           0
     58056 WT19     585      MECN     C1       CG331   -0.170000       12.0110           0
     58057 WT19     585      MECN     H11      HGA3     0.090000        1.0080           0
     58058 WT19     585      MECN     H12      HGA3     0.090000        1.0080           0
     58059 WT19     585      MECN     H13      HGA3     0.090000        1.0080           0
     58060 WT19     585      MECN     C2       CG1N1    0.360000       12.0110           0
     58061 WT19     585      MECN     N3       NG1T1   -0.460000       14.0070           0
     58062 WT19     587      MECN     C1       CG331   -0.170000       12.0110           0
     58063 WT19     587      MECN     H11      HGA3     0.090000        1.0080           0
     58064 WT19     587      MECN     H12      HGA3     0.090000        1.0080           0
     58065 WT19     587      MECN     H13      HGA3     0.090000        1.0080           0
     58066 WT19     587      MECN     C2       CG1N1    0.360000       12.0110           0
     58067 WT19     587      MECN     N3       NG1T1   -0.460000       14.0070           0
     58068 WT19     589      MECN     C1       CG331   -0.170000       12.0110           0
     58069 WT19     589      MECN     H11      HGA3     0.090000        1.0080           0
     58070 WT19     589      MECN     H12      HGA3     0.090000        1.0080           0
     58071 WT19     589      MECN     H13      HGA3     0.090000        1.0080           0
     58072 WT19     589      MECN     C2       CG1N1    0.360000       12.0110           0
     58073 WT19     589      MECN     N3       NG1T1   -0.460000       14.0070           0
     58074 WT19     590      MECN     C1       CG331   -0.170000       12.0110           0
     58075 WT19     590      MECN     H11      HGA3     0.090000        1.0080           0
     58076 WT19     590      MECN     H12      HGA3     0.090000        1.0080           0
     58077 WT19     590      MECN     H13      HGA3     0.090000        1.0080           0
     58078 WT19     590      MECN     C2       CG1N1    0.360000       12.0110           0
     58079 WT19     590      MECN     N3       NG1T1   -0.460000       14.0070           0
     58080 WT19     595      MECN     C1       CG331   -0.170000       12.0110           0
     58081 WT19     595      MECN     H11      HGA3     0.090000        1.0080           0
     58082 WT19     595      MECN     H12      HGA3     0.090000        1.0080           0
     58083 WT19     595      MECN     H13      HGA3     0.090000        1.0080           0
     58084 WT19     595      MECN     C2       CG1N1    0.360000       12.0110           0
     58085 WT19     595      MECN     N3       NG1T1   -0.460000       14.0070           0
     58086 WT19     599      MECN     C1       CG331   -0.170000       12.0110           0
     58087 WT19     599      MECN     H11      HGA3     0.090000        1.0080           0
     58088 WT19     599      MECN     H12      HGA3     0.090000        1.0080           0
     58089 WT19     599      MECN     H13      HGA3     0.090000        1.0080           0
     58090 WT19     599      MECN     C2       CG1N1    0.360000       12.0110           0
     58091 WT19     599      MECN     N3       NG1T1   -0.460000       14.0070           0
     58092 WT19     613      MECN     C1       CG331   -0.170000       12.0110           0
     58093 WT19     613      MECN     H11      HGA3     0.090000        1.0080           0
     58094 WT19     613      MECN     H12      HGA3     0.090000        1.0080           0
     58095 WT19     613      MECN     H13      HGA3     0.090000        1.0080           0
     58096 WT19     613      MECN     C2       CG1N1    0.360000       12.0110           0
     58097 WT19     613      MECN     N3       NG1T1   -0.460000       14.0070           0
     58098 WT19     620      MECN     C1       CG331   -0.170000       12.0110           0
     58099 WT19     620      MECN     H11      HGA3     0.090000        1.0080           0
     58100 WT19     620      MECN     H12      HGA3     0.090000        1.0080           0
     58101 WT19     620      MECN     H13      HGA3     0.090000        1.0080           0
     58102 WT19     620      MECN     C2       CG1N1    0.360000       12.0110           0
     58103 WT19     620      MECN     N3       NG1T1   -0.460000       14.0070           0
     58104 WT19     623      MECN     C1       CG331   -0.170000       12.0110           0
     58105 WT19     623      MECN     H11      HGA3     0.090000        1.0080           0
     58106 WT19     623      MECN     H12      HGA3     0.090000        1.0080           0
     58107 WT19     623      MECN     H13      HGA3     0.090000        1.0080           0
     58108 WT19     623      MECN     C2       CG1N1    0.360000       12.0110           0
     58109 WT19     623      MECN     N3       NG1T1   -0.460000       14.0070           0
     58110 WT19     627      MECN     C1       CG331   -0.170000       12.0110           0
     58111 WT19     627      MECN     H11      HGA3     0.090000        1.0080           0
     58112 WT19     627      MECN     H12      HGA3     0.090000        1.0080           0
     58113 WT19     627      MECN     H13      HGA3     0.090000        1.0080           0
     58114 WT19     627      MECN     C2       CG1N1    0.360000       12.0110           0
     58115 WT19     627      MECN     N3       NG1T1   -0.460000       14.0070           0
     58116 WT19     633      MECN     C1       CG331   -0.170000       12.0110           0
     58117 WT19     633      MECN     H11      HGA3     0.090000        1.0080           0
     58118 WT19     633      MECN     H12      HGA3     0.090000        1.0080           0
     58119 WT19     633      MECN     H13      HGA3     0.090000        1.0080           0
     58120 WT19     633      MECN     C2       CG1N1    0.360000       12.0110           0
     58121 WT19     633      MECN     N3       NG1T1   -0.460000       14.0070           0
     58122 WT19     636      MECN     C1       CG331   -0.170000       12.0110           0
     58123 WT19     636      MECN     H11      HGA3     0.090000        1.0080           0
     58124 WT19     636      MECN     H12      HGA3     0.090000        1.0080           0
     58125 WT19     636      MECN     H13      HGA3     0.090000        1.0080           0
     58126 WT19     636      MECN     C2       CG1N1    0.360000       12.0110           0
     58127 WT19     636      MECN     N3       NG1T1   -0.460000       14.0070           0
     58128 WT19     637      MECN     C1       CG331   -0.170000       12.0110           0
     58129 WT19     637      MECN     H11      HGA3     0.090000        1.0080           0
     58130 WT19     637      MECN     H12      HGA3     0.090000        1.0080           0
     58131 WT19     637      MECN     H13      HGA3     0.090000        1.0080           0
     58132 WT19     637      MECN     C2       CG1N1    0.360000       12.0110           0
     58133 WT19     637      MECN     N3       NG1T1   -0.460000       14.0070           0
     58134 WT19     639      MECN     C1       CG331   -0.170000       12.0110           0
     58135 WT19     639      MECN     H11      HGA3     0.090000        1.0080           0
     58136 WT19     639      MECN     H12      HGA3     0.090000        1.0080           0
     58137 WT19     639      MECN     H13      HGA3     0.090000        1.0080           0
     58138 WT19     639      MECN     C2       CG1N1    0.360000       12.0110           0
     58139 WT19     639      MECN     N3       NG1T1   -0.460000       14.0070           0
     58140 WT19     649      MECN     C1       CG331   -0.170000       12.0110           0
     58141 WT19     649      MECN     H11      HGA3     0.090000        1.0080           0
     58142 WT19     649      MECN     H12      HGA3     0.090000        1.0080           0
     58143 WT19     649      MECN     H13      HGA3     0.090000        1.0080           0
     58144 WT19     649      MECN     C2       CG1N1    0.360000       12.0110           0
     58145 WT19     649      MECN     N3       NG1T1   -0.460000       14.0070           0
     58146 WT19     650      MECN     C1       CG331   -0.170000       12.0110           0
     58147 WT19     650      MECN     H11      HGA3     0.090000        1.0080           0
     58148 WT19     650      MECN     H12      HGA3     0.090000        1.0080           0
     58149 WT19     650      MECN     H13      HGA3     0.090000        1.0080           0
     58150 WT19     650      MECN     C2       CG1N1    0.360000       12.0110           0
     58151 WT19     650      MECN     N3       NG1T1   -0.460000       14.0070           0
     58152 WT19     665      MECN     C1       CG331   -0.170000       12.0110           0
     58153 WT19     665      MECN     H11      HGA3     0.090000        1.0080           0
     58154 WT19     665      MECN     H12      HGA3     0.090000        1.0080           0
     58155 WT19     665      MECN     H13      HGA3     0.090000        1.0080           0
     58156 WT19     665      MECN     C2       CG1N1    0.360000       12.0110           0
     58157 WT19     665      MECN     N3       NG1T1   -0.460000       14.0070           0
     58158 WT19     667      MECN     C1       CG331   -0.170000       12.0110           0
     58159 WT19     667      MECN     H11      HGA3     0.090000        1.0080           0
     58160 WT19     667      MECN     H12      HGA3     0.090000        1.0080           0
     58161 WT19     667      MECN     H13      HGA3     0.090000        1.0080           0
     58162 WT19     667      MECN     C2       CG1N1    0.360000       12.0110           0
     58163 WT19     667      MECN     N3       NG1T1   -0.460000       14.0070           0
     58164 WT19     673      MECN     C1       CG331   -0.170000       12.0110           0
     58165 WT19     673      MECN     H11      HGA3     0.090000        1.0080           0
     58166 WT19     673      MECN     H12      HGA3     0.090000        1.0080           0
     58167 WT19     673      MECN     H13      HGA3     0.090000        1.0080           0
     58168 WT19     673      MECN     C2       CG1N1    0.360000       12.0110           0
     58169 WT19     673      MECN     N3       NG1T1   -0.460000       14.0070           0
     58170 WT19     682      MECN     C1       CG331   -0.170000       12.0110           0
     58171 WT19     682      MECN     H11      HGA3     0.090000        1.0080           0
     58172 WT19     682      MECN     H12      HGA3     0.090000        1.0080           0
     58173 WT19     682      MECN     H13      HGA3     0.090000        1.0080           0
     58174 WT19     682      MECN     C2       CG1N1    0.360000       12.0110           0
     58175 WT19     682      MECN     N3       NG1T1   -0.460000       14.0070           0
     58176 WT19     694      MECN     C1       CG331   -0.170000       12.0110           0
     58177 WT19     694      MECN     H11      HGA3     0.090000        1.0080           0
     58178 WT19     694      MECN     H12      HGA3     0.090000        1.0080           0
     58179 WT19     694      MECN     H13      HGA3     0.090000        1.0080           0
     58180 WT19     694      MECN     C2       CG1N1    0.360000       12.0110           0
     58181 WT19     694      MECN     N3       NG1T1   -0.460000       14.0070           0
     58182 WT19     696      MECN     C1       CG331   -0.170000       12.0110           0
     58183 WT19     696      MECN     H11      HGA3     0.090000        1.0080           0
     58184 WT19     696      MECN     H12      HGA3     0.090000        1.0080           0
     58185 WT19     696      MECN     H13      HGA3     0.090000        1.0080           0
     58186 WT19     696      MECN     C2       CG1N1    0.360000       12.0110           0
     58187 WT19     696      MECN     N3       NG1T1   -0.460000       14.0070           0
     58188 WT19     699      MECN     C1       CG331   -0.170000       12.0110           0
     58189 WT19     699      MECN     H11      HGA3     0.090000        1.0080           0
     58190 WT19     699      MECN     H12      HGA3     0.090000        1.0080           0
     58191 WT19     699      MECN     H13      HGA3     0.090000        1.0080           0
     58192 WT19     699      MECN     C2       CG1N1    0.360000       12.0110           0
     58193 WT19     699      MECN     N3       NG1T1   -0.460000       14.0070           0
     58194 WT19     704      MECN     C1       CG331   -0.170000       12.0110           0
     58195 WT19     704      MECN     H11      HGA3     0.090000        1.0080           0
     58196 WT19     704      MECN     H12      HGA3     0.090000        1.0080           0
     58197 WT19     704      MECN     H13      HGA3     0.090000        1.0080           0
     58198 WT19     704      MECN     C2       CG1N1    0.360000       12.0110           0
     58199 WT19     704      MECN     N3       NG1T1   -0.460000       14.0070           0
     58200 WT19     717      MECN     C1       CG331   -0.170000       12.0110           0
     58201 WT19     717      MECN     H11      HGA3     0.090000        1.0080           0
     58202 WT19     717      MECN     H12      HGA3     0.090000        1.0080           0
     58203 WT19     717      MECN     H13      HGA3     0.090000        1.0080           0
     58204 WT19     717      MECN     C2       CG1N1    0.360000       12.0110           0
     58205 WT19     717      MECN     N3       NG1T1   -0.460000       14.0070           0
     58206 WT19     721      MECN     C1       CG331   -0.170000       12.0110           0
     58207 WT19     721      MECN     H11      HGA3     0.090000        1.0080           0
     58208 WT19     721      MECN     H12      HGA3     0.090000        1.0080           0
     58209 WT19     721      MECN     H13      HGA3     0.090000        1.0080           0
     58210 WT19     721      MECN     C2       CG1N1    0.360000       12.0110           0
     58211 WT19     721      MECN     N3       NG1T1   -0.460000       14.0070           0
     58212 WT19     723      MECN     C1       CG331   -0.170000       12.0110           0
     58213 WT19     723      MECN     H11      HGA3     0.090000        1.0080           0
     58214 WT19     723      MECN     H12      HGA3     0.090000        1.0080           0
     58215 WT19     723      MECN     H13      HGA3     0.090000        1.0080           0
     58216 WT19     723      MECN     C2       CG1N1    0.360000       12.0110           0
     58217 WT19     723      MECN     N3       NG1T1   -0.460000       14.0070           0
     58218 WT19     731      MECN     C1       CG331   -0.170000       12.0110           0
     58219 WT19     731      MECN     H11      HGA3     0.090000        1.0080           0
     58220 WT19     731      MECN     H12      HGA3     0.090000        1.0080           0
     58221 WT19     731      MECN     H13      HGA3     0.090000        1.0080           0
     58222 WT19     731      MECN     C2       CG1N1    0.360000       12.0110           0
     58223 WT19     731      MECN     N3       NG1T1   -0.460000       14.0070           0
     58224 WT19     743      MECN     C1       CG331   -0.170000       12.0110           0
     58225 WT19     743      MECN     H11      HGA3     0.090000        1.0080           0
     58226 WT19     743      MECN     H12      HGA3     0.090000        1.0080           0
     58227 WT19     743      MECN     H13      HGA3     0.090000        1.0080           0
     58228 WT19     743      MECN     C2       CG1N1    0.360000       12.0110           0
     58229 WT19     743      MECN     N3       NG1T1   -0.460000       14.0070           0
     58230 WT19     748      MECN     C1       CG331   -0.170000       12.0110           0
     58231 WT19     748      MECN     H11      HGA3     0.090000        1.0080           0
     58232 WT19     748      MECN     H12      HGA3     0.090000        1.0080           0
     58233 WT19     748      MECN     H13      HGA3     0.090000        1.0080           0
     58234 WT19     748      MECN     C2       CG1N1    0.360000       12.0110           0
     58235 WT19     748      MECN     N3       NG1T1   -0.460000       14.0070           0
     58236 WT19     761      MECN     C1       CG331   -0.170000       12.0110           0
     58237 WT19     761      MECN     H11      HGA3     0.090000        1.0080           0
     58238 WT19     761      MECN     H12      HGA3     0.090000        1.0080           0
     58239 WT19     761      MECN     H13      HGA3     0.090000        1.0080           0
     58240 WT19     761      MECN     C2       CG1N1    0.360000       12.0110           0
     58241 WT19     761      MECN     N3       NG1T1   -0.460000       14.0070           0
     58242 WT19     763      MECN     C1       CG331   -0.170000       12.0110           0
     58243 WT19     763      MECN     H11      HGA3     0.090000        1.0080           0
     58244 WT19     763      MECN     H12      HGA3     0.090000        1.0080           0
     58245 WT19     763      MECN     H13      HGA3     0.090000        1.0080           0
     58246 WT19     763      MECN     C2       CG1N1    0.360000       12.0110           0
     58247 WT19     763      MECN     N3       NG1T1   -0.460000       14.0070           0
     58248 WT19     768      MECN     C1       CG331   -0.170000       12.0110           0
     58249 WT19     768      MECN     H11      HGA3     0.090000        1.0080           0
     58250 WT19     768      MECN     H12      HGA3     0.090000        1.0080           0
     58251 WT19     768      MECN     H13      HGA3     0.090000        1.0080           0
     58252 WT19     768      MECN     C2       CG1N1    0.360000       12.0110           0
     58253 WT19     768      MECN     N3       NG1T1   -0.460000       14.0070           0
     58254 WT19     772      MECN     C1       CG331   -0.170000       12.0110           0
     58255 WT19     772      MECN     H11      HGA3     0.090000        1.0080           0
     58256 WT19     772      MECN     H12      HGA3     0.090000        1.0080           0
     58257 WT19     772      MECN     H13      HGA3     0.090000        1.0080           0
     58258 WT19     772      MECN     C2       CG1N1    0.360000       12.0110           0
     58259 WT19     772      MECN     N3       NG1T1   -0.460000       14.0070           0
     58260 WT19     774      MECN     C1       CG331   -0.170000       12.0110           0
     58261 WT19     774      MECN     H11      HGA3     0.090000        1.0080           0
     58262 WT19     774      MECN     H12      HGA3     0.090000        1.0080           0
     58263 WT19     774      MECN     H13      HGA3     0.090000        1.0080           0
     58264 WT19     774      MECN     C2       CG1N1    0.360000       12.0110           0
     58265 WT19     774      MECN     N3       NG1T1   -0.460000       14.0070           0
     58266 WT19     775      MECN     C1       CG331   -0.170000       12.0110           0
     58267 WT19     775      MECN     H11      HGA3     0.090000        1.0080           0
     58268 WT19     775      MECN     H12      HGA3     0.090000        1.0080           0
     58269 WT19     775      MECN     H13      HGA3     0.090000        1.0080           0
     58270 WT19     775      MECN     C2       CG1N1    0.360000       12.0110           0
     58271 WT19     775      MECN     N3       NG1T1   -0.460000       14.0070           0
     58272 WT19     778      MECN     C1       CG331   -0.170000       12.0110           0
     58273 WT19     778      MECN     H11      HGA3     0.090000        1.0080           0
     58274 WT19     778      MECN     H12      HGA3     0.090000        1.0080           0
     58275 WT19     778      MECN     H13      HGA3     0.090000        1.0080           0
     58276 WT19     778      MECN     C2       CG1N1    0.360000       12.0110           0
     58277 WT19     778      MECN     N3       NG1T1   -0.460000       14.0070           0
     58278 WT19     782      MECN     C1       CG331   -0.170000       12.0110           0
     58279 WT19     782      MECN     H11      HGA3     0.090000        1.0080           0
     58280 WT19     782      MECN     H12      HGA3     0.090000        1.0080           0
     58281 WT19     782      MECN     H13      HGA3     0.090000        1.0080           0
     58282 WT19     782      MECN     C2       CG1N1    0.360000       12.0110           0
     58283 WT19     782      MECN     N3       NG1T1   -0.460000       14.0070           0
     58284 WT19     797      MECN     C1       CG331   -0.170000       12.0110           0
     58285 WT19     797      MECN     H11      HGA3     0.090000        1.0080           0
     58286 WT19     797      MECN     H12      HGA3     0.090000        1.0080           0
     58287 WT19     797      MECN     H13      HGA3     0.090000        1.0080           0
     58288 WT19     797      MECN     C2       CG1N1    0.360000       12.0110           0
     58289 WT19     797      MECN     N3       NG1T1   -0.460000       14.0070           0
     58290 WT19     799      MECN     C1       CG331   -0.170000       12.0110           0
     58291 WT19     799      MECN     H11      HGA3     0.090000        1.0080           0
     58292 WT19     799      MECN     H12      HGA3     0.090000        1.0080           0
     58293 WT19     799      MECN     H13      HGA3     0.090000        1.0080           0
     58294 WT19     799      MECN     C2       CG1N1    0.360000       12.0110           0
     58295 WT19     799      MECN     N3       NG1T1   -0.460000       14.0070           0
     58296 WT19     817      MECN     C1       CG331   -0.170000       12.0110           0
     58297 WT19     817      MECN     H11      HGA3     0.090000        1.0080           0
     58298 WT19     817      MECN     H12      HGA3     0.090000        1.0080           0
     58299 WT19     817      MECN     H13      HGA3     0.090000        1.0080           0
     58300 WT19     817      MECN     C2       CG1N1    0.360000       12.0110           0
     58301 WT19     817      MECN     N3       NG1T1   -0.460000       14.0070           0
     58302 WT19     821      MECN     C1       CG331   -0.170000       12.0110           0
     58303 WT19     821      MECN     H11      HGA3     0.090000        1.0080           0
     58304 WT19     821      MECN     H12      HGA3     0.090000        1.0080           0
     58305 WT19     821      MECN     H13      HGA3     0.090000        1.0080           0
     58306 WT19     821      MECN     C2       CG1N1    0.360000       12.0110           0
     58307 WT19     821      MECN     N3       NG1T1   -0.460000       14.0070           0
     58308 WT19     822      MECN     C1       CG331   -0.170000       12.0110           0
     58309 WT19     822      MECN     H11      HGA3     0.090000        1.0080           0
     58310 WT19     822      MECN     H12      HGA3     0.090000        1.0080           0
     58311 WT19     822      MECN     H13      HGA3     0.090000        1.0080           0
     58312 WT19     822      MECN     C2       CG1N1    0.360000       12.0110           0
     58313 WT19     822      MECN     N3       NG1T1   -0.460000       14.0070           0
     58314 WT19     833      MECN     C1       CG331   -0.170000       12.0110           0
     58315 WT19     833      MECN     H11      HGA3     0.090000        1.0080           0
     58316 WT19     833      MECN     H12      HGA3     0.090000        1.0080           0
     58317 WT19     833      MECN     H13      HGA3     0.090000        1.0080           0
     58318 WT19     833      MECN     C2       CG1N1    0.360000       12.0110           0
     58319 WT19     833      MECN     N3       NG1T1   -0.460000       14.0070           0
     58320 WT19     834      MECN     C1       CG331   -0.170000       12.0110           0
     58321 WT19     834      MECN     H11      HGA3     0.090000        1.0080           0
     58322 WT19     834      MECN     H12      HGA3     0.090000        1.0080           0
     58323 WT19     834      MECN     H13      HGA3     0.090000        1.0080           0
     58324 WT19     834      MECN     C2       CG1N1    0.360000       12.0110           0
     58325 WT19     834      MECN     N3       NG1T1   -0.460000       14.0070           0
     58326 WT19     849      MECN     C1       CG331   -0.170000       12.0110           0
     58327 WT19     849      MECN     H11      HGA3     0.090000        1.0080           0
     58328 WT19     849      MECN     H12      HGA3     0.090000        1.0080           0
     58329 WT19     849      MECN     H13      HGA3     0.090000        1.0080           0
     58330 WT19     849      MECN     C2       CG1N1    0.360000       12.0110           0
     58331 WT19     849      MECN     N3       NG1T1   -0.460000       14.0070           0
     58332 WT19     859      MECN     C1       CG331   -0.170000       12.0110           0
     58333 WT19     859      MECN     H11      HGA3     0.090000        1.0080           0
     58334 WT19     859      MECN     H12      HGA3     0.090000        1.0080           0
     58335 WT19     859      MECN     H13      HGA3     0.090000        1.0080           0
     58336 WT19     859      MECN     C2       CG1N1    0.360000       12.0110           0
     58337 WT19     859      MECN     N3       NG1T1   -0.460000       14.0070           0
     58338 WT19     860      MECN     C1       CG331   -0.170000       12.0110           0
     58339 WT19     860      MECN     H11      HGA3     0.090000        1.0080           0
     58340 WT19     860      MECN     H12      HGA3     0.090000        1.0080           0
     58341 WT19     860      MECN     H13      HGA3     0.090000        1.0080           0
     58342 WT19     860      MECN     C2       CG1N1    0.360000       12.0110           0
     58343 WT19     860      MECN     N3       NG1T1   -0.460000       14.0070           0
     58344 WT19     864      MECN     C1       CG331   -0.170000       12.0110           0
     58345 WT19     864      MECN     H11      HGA3     0.090000        1.0080           0
     58346 WT19     864      MECN     H12      HGA3     0.090000        1.0080           0
     58347 WT19     864      MECN     H13      HGA3     0.090000        1.0080           0
     58348 WT19     864      MECN     C2       CG1N1    0.360000       12.0110           0
     58349 WT19     864      MECN     N3       NG1T1   -0.460000       14.0070           0
     58350 WT19     873      MECN     C1       CG331   -0.170000       12.0110           0
     58351 WT19     873      MECN     H11      HGA3     0.090000        1.0080           0
     58352 WT19     873      MECN     H12      HGA3     0.090000        1.0080           0
     58353 WT19     873      MECN     H13      HGA3     0.090000        1.0080           0
     58354 WT19     873      MECN     C2       CG1N1    0.360000       12.0110           0
     58355 WT19     873      MECN     N3       NG1T1   -0.460000       14.0070           0
     58356 WT19     875      MECN     C1       CG331   -0.170000       12.0110           0
     58357 WT19     875      MECN     H11      HGA3     0.090000        1.0080           0
     58358 WT19     875      MECN     H12      HGA3     0.090000        1.0080           0
     58359 WT19     875      MECN     H13      HGA3     0.090000        1.0080           0
     58360 WT19     875      MECN     C2       CG1N1    0.360000       12.0110           0
     58361 WT19     875      MECN     N3       NG1T1   -0.460000       14.0070           0
     58362 WT19     890      MECN     C1       CG331   -0.170000       12.0110           0
     58363 WT19     890      MECN     H11      HGA3     0.090000        1.0080           0
     58364 WT19     890      MECN     H12      HGA3     0.090000        1.0080           0
     58365 WT19     890      MECN     H13      HGA3     0.090000        1.0080           0
     58366 WT19     890      MECN     C2       CG1N1    0.360000       12.0110           0
     58367 WT19     890      MECN     N3       NG1T1   -0.460000       14.0070           0
     58368 WT19     891      MECN     C1       CG331   -0.170000       12.0110           0
     58369 WT19     891      MECN     H11      HGA3     0.090000        1.0080           0
     58370 WT19     891      MECN     H12      HGA3     0.090000        1.0080           0
     58371 WT19     891      MECN     H13      HGA3     0.090000        1.0080           0
     58372 WT19     891      MECN     C2       CG1N1    0.360000       12.0110           0
     58373 WT19     891      MECN     N3       NG1T1   -0.460000       14.0070           0
     58374 WT19     902      MECN     C1       CG331   -0.170000       12.0110           0
     58375 WT19     902      MECN     H11      HGA3     0.090000        1.0080           0
     58376 WT19     902      MECN     H12      HGA3     0.090000        1.0080           0
     58377 WT19     902      MECN     H13      HGA3     0.090000        1.0080           0
     58378 WT19     902      MECN     C2       CG1N1    0.360000       12.0110           0
     58379 WT19     902      MECN     N3       NG1T1   -0.460000       14.0070           0
     58380 WT19     904      MECN     C1       CG331   -0.170000       12.0110           0
     58381 WT19     904      MECN     H11      HGA3     0.090000        1.0080           0
     58382 WT19     904      MECN     H12      HGA3     0.090000        1.0080           0
     58383 WT19     904      MECN     H13      HGA3     0.090000        1.0080           0
     58384 WT19     904      MECN     C2       CG1N1    0.360000       12.0110           0
     58385 WT19     904      MECN     N3       NG1T1   -0.460000       14.0070           0
     58386 WT19     914      MECN     C1       CG331   -0.170000       12.0110           0
     58387 WT19     914      MECN     H11      HGA3     0.090000        1.0080           0
     58388 WT19     914      MECN     H12      HGA3     0.090000        1.0080           0
     58389 WT19     914      MECN     H13      HGA3     0.090000        1.0080           0
     58390 WT19     914      MECN     C2       CG1N1    0.360000       12.0110           0
     58391 WT19     914      MECN     N3       NG1T1   -0.460000       14.0070           0
     58392 WT19     915      MECN     C1       CG331   -0.170000       12.0110           0
     58393 WT19     915      MECN     H11      HGA3     0.090000        1.0080           0
     58394 WT19     915      MECN     H12      HGA3     0.090000        1.0080           0
     58395 WT19     915      MECN     H13      HGA3     0.090000        1.0080           0
     58396 WT19     915      MECN     C2       CG1N1    0.360000       12.0110           0
     58397 WT19     915      MECN     N3       NG1T1   -0.460000       14.0070           0
     58398 WT19     918      MECN     C1       CG331   -0.170000       12.0110           0
     58399 WT19     918      MECN     H11      HGA3     0.090000        1.0080           0
     58400 WT19     918      MECN     H12      HGA3     0.090000        1.0080           0
     58401 WT19     918      MECN     H13      HGA3     0.090000        1.0080           0
     58402 WT19     918      MECN     C2       CG1N1    0.360000       12.0110           0
     58403 WT19     918      MECN     N3       NG1T1   -0.460000       14.0070           0
     58404 WT19     920      MECN     C1       CG331   -0.170000       12.0110           0
     58405 WT19     920      MECN     H11      HGA3     0.090000        1.0080           0
     58406 WT19     920      MECN     H12      HGA3     0.090000        1.0080           0
     58407 WT19     920      MECN     H13      HGA3     0.090000        1.0080           0
     58408 WT19     920      MECN     C2       CG1N1    0.360000       12.0110           0
     58409 WT19     920      MECN     N3       NG1T1   -0.460000       14.0070           0
     58410 WT19     924      MECN     C1       CG331   -0.170000       12.0110           0
     58411 WT19     924      MECN     H11      HGA3     0.090000        1.0080           0
     58412 WT19     924      MECN     H12      HGA3     0.090000        1.0080           0
     58413 WT19     924      MECN     H13      HGA3     0.090000        1.0080           0
     58414 WT19     924      MECN     C2       CG1N1    0.360000       12.0110           0
     58415 WT19     924      MECN     N3       NG1T1   -0.460000       14.0070           0
     58416 WT19     926      MECN     C1       CG331   -0.170000       12.0110           0
     58417 WT19     926      MECN     H11      HGA3     0.090000        1.0080           0
     58418 WT19     926      MECN     H12      HGA3     0.090000        1.0080           0
     58419 WT19     926      MECN     H13      HGA3     0.090000        1.0080           0
     58420 WT19     926      MECN     C2       CG1N1    0.360000       12.0110           0
     58421 WT19     926      MECN     N3       NG1T1   -0.460000       14.0070           0
     58422 WT19     933      MECN     C1       CG331   -0.170000       12.0110           0
     58423 WT19     933      MECN     H11      HGA3     0.090000        1.0080           0
     58424 WT19     933      MECN     H12      HGA3     0.090000        1.0080           0
     58425 WT19     933      MECN     H13      HGA3     0.090000        1.0080           0
     58426 WT19     933      MECN     C2       CG1N1    0.360000       12.0110           0
     58427 WT19     933      MECN     N3       NG1T1   -0.460000       14.0070           0
     58428 WT19     934      MECN     C1       CG331   -0.170000       12.0110           0
     58429 WT19     934      MECN     H11      HGA3     0.090000        1.0080           0
     58430 WT19     934      MECN     H12      HGA3     0.090000        1.0080           0
     58431 WT19     934      MECN     H13      HGA3     0.090000        1.0080           0
     58432 WT19     934      MECN     C2       CG1N1    0.360000       12.0110           0
     58433 WT19     934      MECN     N3       NG1T1   -0.460000       14.0070           0
     58434 WT19     939      MECN     C1       CG331   -0.170000       12.0110           0
     58435 WT19     939      MECN     H11      HGA3     0.090000        1.0080           0
     58436 WT19     939      MECN     H12      HGA3     0.090000        1.0080           0
     58437 WT19     939      MECN     H13      HGA3     0.090000        1.0080           0
     58438 WT19     939      MECN     C2       CG1N1    0.360000       12.0110           0
     58439 WT19     939      MECN     N3       NG1T1   -0.460000       14.0070           0
     58440 WT19     943      MECN     C1       CG331   -0.170000       12.0110           0
     58441 WT19     943      MECN     H11      HGA3     0.090000        1.0080           0
     58442 WT19     943      MECN     H12      HGA3     0.090000        1.0080           0
     58443 WT19     943      MECN     H13      HGA3     0.090000        1.0080           0
     58444 WT19     943      MECN     C2       CG1N1    0.360000       12.0110           0
     58445 WT19     943      MECN     N3       NG1T1   -0.460000       14.0070           0
     58446 WT19     977      MECN     C1       CG331   -0.170000       12.0110           0
     58447 WT19     977      MECN     H11      HGA3     0.090000        1.0080           0
     58448 WT19     977      MECN     H12      HGA3     0.090000        1.0080           0
     58449 WT19     977      MECN     H13      HGA3     0.090000        1.0080           0
     58450 WT19     977      MECN     C2       CG1N1    0.360000       12.0110           0
     58451 WT19     977      MECN     N3       NG1T1   -0.460000       14.0070           0
     58452 WT19     983      MECN     C1       CG331   -0.170000       12.0110           0
     58453 WT19     983      MECN     H11      HGA3     0.090000        1.0080           0
     58454 WT19     983      MECN     H12      HGA3     0.090000        1.0080           0
     58455 WT19     983      MECN     H13      HGA3     0.090000        1.0080           0
     58456 WT19     983      MECN     C2       CG1N1    0.360000       12.0110           0
     58457 WT19     983      MECN     N3       NG1T1   -0.460000       14.0070           0
     58458 WT19     985      MECN     C1       CG331   -0.170000       12.0110           0
     58459 WT19     985      MECN     H11      HGA3     0.090000        1.0080           0
     58460 WT19     985      MECN     H12      HGA3     0.090000        1.0080           0
     58461 WT19     985      MECN     H13      HGA3     0.090000        1.0080           0
     58462 WT19     985      MECN     C2       CG1N1    0.360000       12.0110           0
     58463 WT19     985      MECN     N3       NG1T1   -0.460000       14.0070           0
     58464 WT19     986      MECN     C1       CG331   -0.170000       12.0110           0
     58465 WT19     986      MECN     H11      HGA3     0.090000        1.0080           0
     58466 WT19     986      MECN     H12      HGA3     0.090000        1.0080           0
     58467 WT19     986      MECN     H13      HGA3     0.090000        1.0080           0
     58468 WT19     986      MECN     C2       CG1N1    0.360000       12.0110           0
     58469 WT19     986      MECN     N3       NG1T1   -0.460000       14.0070           0
     58470 WT19     992      MECN     C1       CG331   -0.170000       12.0110           0
     58471 WT19     992      MECN     H11      HGA3     0.090000        1.0080           0
     58472 WT19     992      MECN     H12      HGA3     0.090000        1.0080           0
     58473 WT19     992      MECN     H13      HGA3     0.090000        1.0080           0
     58474 WT19     992      MECN     C2       CG1N1    0.360000       12.0110           0
     58475 WT19     992      MECN     N3       NG1T1   -0.460000       14.0070           0
     58476 WT19     1006     MECN     C1       CG331   -0.170000       12.0110           0
     58477 WT19     1006     MECN     H11      HGA3     0.090000        1.0080           0
     58478 WT19     1006     MECN     H12      HGA3     0.090000        1.0080           0
     58479 WT19     1006     MECN     H13      HGA3     0.090000        1.0080           0
     58480 WT19     1006     MECN     C2       CG1N1    0.360000       12.0110           0
     58481 WT19     1006     MECN     N3       NG1T1   -0.460000       14.0070           0
     58482 WT19     1021     MECN     C1       CG331   -0.170000       12.0110           0
     58483 WT19     1021     MECN     H11      HGA3     0.090000        1.0080           0
     58484 WT19     1021     MECN     H12      HGA3     0.090000        1.0080           0
     58485 WT19     1021     MECN     H13      HGA3     0.090000        1.0080           0
     58486 WT19     1021     MECN     C2       CG1N1    0.360000       12.0110           0
     58487 WT19     1021     MECN     N3       NG1T1   -0.460000       14.0070           0
     58488 WT19     1029     MECN     C1       CG331   -0.170000       12.0110           0
     58489 WT19     1029     MECN     H11      HGA3     0.090000        1.0080           0
     58490 WT19     1029     MECN     H12      HGA3     0.090000        1.0080           0
     58491 WT19     1029     MECN     H13      HGA3     0.090000        1.0080           0
     58492 WT19     1029     MECN     C2       CG1N1    0.360000       12.0110           0
     58493 WT19     1029     MECN     N3       NG1T1   -0.460000       14.0070           0
     58494 WT19     1030     MECN     C1       CG331   -0.170000       12.0110           0
     58495 WT19     1030     MECN     H11      HGA3     0.090000        1.0080           0
     58496 WT19     1030     MECN     H12      HGA3     0.090000        1.0080           0
     58497 WT19     1030     MECN     H13      HGA3     0.090000        1.0080           0
     58498 WT19     1030     MECN     C2       CG1N1    0.360000       12.0110           0
     58499 WT19     1030     MECN     N3       NG1T1   -0.460000       14.0070           0
     58500 WT19     1040     MECN     C1       CG331   -0.170000       12.0110           0
     58501 WT19     1040     MECN     H11      HGA3     0.090000        1.0080           0
     58502 WT19     1040     MECN     H12      HGA3     0.090000        1.0080           0
     58503 WT19     1040     MECN     H13      HGA3     0.090000        1.0080           0
     58504 WT19     1040     MECN     C2       CG1N1    0.360000       12.0110           0
     58505 WT19     1040     MECN     N3       NG1T1   -0.460000       14.0070           0
     58506 WT19     1043     MECN     C1       CG331   -0.170000       12.0110           0
     58507 WT19     1043     MECN     H11      HGA3     0.090000        1.0080           0
     58508 WT19     1043     MECN     H12      HGA3     0.090000        1.0080           0
     58509 WT19     1043     MECN     H13      HGA3     0.090000        1.0080           0
     58510 WT19     1043     MECN     C2       CG1N1    0.360000       12.0110           0
     58511 WT19     1043     MECN     N3       NG1T1   -0.460000       14.0070           0
     58512 WT19     1052     MECN     C1       CG331   -0.170000       12.0110           0
     58513 WT19     1052     MECN     H11      HGA3     0.090000        1.0080           0
     58514 WT19     1052     MECN     H12      HGA3     0.090000        1.0080           0
     58515 WT19     1052     MECN     H13      HGA3     0.090000        1.0080           0
     58516 WT19     1052     MECN     C2       CG1N1    0.360000       12.0110           0
     58517 WT19     1052     MECN     N3       NG1T1   -0.460000       14.0070           0
     58518 WT19     1054     MECN     C1       CG331   -0.170000       12.0110           0
     58519 WT19     1054     MECN     H11      HGA3     0.090000        1.0080           0
     58520 WT19     1054     MECN     H12      HGA3     0.090000        1.0080           0
     58521 WT19     1054     MECN     H13      HGA3     0.090000        1.0080           0
     58522 WT19     1054     MECN     C2       CG1N1    0.360000       12.0110           0
     58523 WT19     1054     MECN     N3       NG1T1   -0.460000       14.0070           0
     58524 WT19     1059     MECN     C1       CG331   -0.170000       12.0110           0
     58525 WT19     1059     MECN     H11      HGA3     0.090000        1.0080           0
     58526 WT19     1059     MECN     H12      HGA3     0.090000        1.0080           0
     58527 WT19     1059     MECN     H13      HGA3     0.090000        1.0080           0
     58528 WT19     1059     MECN     C2       CG1N1    0.360000       12.0110           0
     58529 WT19     1059     MECN     N3       NG1T1   -0.460000       14.0070           0
     58530 WT19     1061     MECN     C1       CG331   -0.170000       12.0110           0
     58531 WT19     1061     MECN     H11      HGA3     0.090000        1.0080           0
     58532 WT19     1061     MECN     H12      HGA3     0.090000        1.0080           0
     58533 WT19     1061     MECN     H13      HGA3     0.090000        1.0080           0
     58534 WT19     1061     MECN     C2       CG1N1    0.360000       12.0110           0
     58535 WT19     1061     MECN     N3       NG1T1   -0.460000       14.0070           0
     58536 WT19     1075     MECN     C1       CG331   -0.170000       12.0110           0
     58537 WT19     1075     MECN     H11      HGA3     0.090000        1.0080           0
     58538 WT19     1075     MECN     H12      HGA3     0.090000        1.0080           0
     58539 WT19     1075     MECN     H13      HGA3     0.090000        1.0080           0
     58540 WT19     1075     MECN     C2       CG1N1    0.360000       12.0110           0
     58541 WT19     1075     MECN     N3       NG1T1   -0.460000       14.0070           0
     58542 WT19     1087     MECN     C1       CG331   -0.170000       12.0110           0
     58543 WT19     1087     MECN     H11      HGA3     0.090000        1.0080           0
     58544 WT19     1087     MECN     H12      HGA3     0.090000        1.0080           0
     58545 WT19     1087     MECN     H13      HGA3     0.090000        1.0080           0
     58546 WT19     1087     MECN     C2       CG1N1    0.360000       12.0110           0
     58547 WT19     1087     MECN     N3       NG1T1   -0.460000       14.0070           0
     58548 WT19     1099     MECN     C1       CG331   -0.170000       12.0110           0
     58549 WT19     1099     MECN     H11      HGA3     0.090000        1.0080           0
     58550 WT19     1099     MECN     H12      HGA3     0.090000        1.0080           0
     58551 WT19     1099     MECN     H13      HGA3     0.090000        1.0080           0
     58552 WT19     1099     MECN     C2       CG1N1    0.360000       12.0110           0
     58553 WT19     1099     MECN     N3       NG1T1   -0.460000       14.0070           0
     58554 WT19     1113     MECN     C1       CG331   -0.170000       12.0110           0
     58555 WT19     1113     MECN     H11      HGA3     0.090000        1.0080           0
     58556 WT19     1113     MECN     H12      HGA3     0.090000        1.0080           0
     58557 WT19     1113     MECN     H13      HGA3     0.090000        1.0080           0
     58558 WT19     1113     MECN     C2       CG1N1    0.360000       12.0110           0
     58559 WT19     1113     MECN     N3       NG1T1   -0.460000       14.0070           0
     58560 WT19     1121     MECN     C1       CG331   -0.170000       12.0110           0
     58561 WT19     1121     MECN     H11      HGA3     0.090000        1.0080           0
     58562 WT19     1121     MECN     H12      HGA3     0.090000        1.0080           0
     58563 WT19     1121     MECN     H13      HGA3     0.090000        1.0080           0
     58564 WT19     1121     MECN     C2       CG1N1    0.360000       12.0110           0
     58565 WT19     1121     MECN     N3       NG1T1   -0.460000       14.0070           0
     58566 WT19     1130     MECN     C1       CG331   -0.170000       12.0110           0
     58567 WT19     1130     MECN     H11      HGA3     0.090000        1.0080           0
     58568 WT19     1130     MECN     H12      HGA3     0.090000        1.0080           0
     58569 WT19     1130     MECN     H13      HGA3     0.090000        1.0080           0
     58570 WT19     1130     MECN     C2       CG1N1    0.360000       12.0110           0
     58571 WT19     1130     MECN     N3       NG1T1   -0.460000       14.0070           0
     58572 WT19     1134     MECN     C1       CG331   -0.170000       12.0110           0
     58573 WT19     1134     MECN     H11      HGA3     0.090000        1.0080           0
     58574 WT19     1134     MECN     H12      HGA3     0.090000        1.0080           0
     58575 WT19     1134     MECN     H13      HGA3     0.090000        1.0080           0
     58576 WT19     1134     MECN     C2       CG1N1    0.360000       12.0110           0
     58577 WT19     1134     MECN     N3       NG1T1   -0.460000       14.0070           0
     58578 WT19     1143     MECN     C1       CG331   -0.170000       12.0110           0
     58579 WT19     1143     MECN     H11      HGA3     0.090000        1.0080           0
     58580 WT19     1143     MECN     H12      HGA3     0.090000        1.0080           0
     58581 WT19     1143     MECN     H13      HGA3     0.090000        1.0080           0
     58582 WT19     1143     MECN     C2       CG1N1    0.360000       12.0110           0
     58583 WT19     1143     MECN     N3       NG1T1   -0.460000       14.0070           0
     58584 WT19     1166     MECN     C1       CG331   -0.170000       12.0110           0
     58585 WT19     1166     MECN     H11      HGA3     0.090000        1.0080           0
     58586 WT19     1166     MECN     H12      HGA3     0.090000        1.0080           0
     58587 WT19     1166     MECN     H13      HGA3     0.090000        1.0080           0
     58588 WT19     1166     MECN     C2       CG1N1    0.360000       12.0110           0
     58589 WT19     1166     MECN     N3       NG1T1   -0.460000       14.0070           0
     58590 WT19     1174     MECN     C1       CG331   -0.170000       12.0110           0
     58591 WT19     1174     MECN     H11      HGA3     0.090000        1.0080           0
     58592 WT19     1174     MECN     H12      HGA3     0.090000        1.0080           0
     58593 WT19     1174     MECN     H13      HGA3     0.090000        1.0080           0
     58594 WT19     1174     MECN     C2       CG1N1    0.360000       12.0110           0
     58595 WT19     1174     MECN     N3       NG1T1   -0.460000       14.0070           0
     58596 WT19     1181     MECN     C1       CG331   -0.170000       12.0110           0
     58597 WT19     1181     MECN     H11      HGA3     0.090000        1.0080           0
     58598 WT19     1181     MECN     H12      HGA3     0.090000        1.0080           0
     58599 WT19     1181     MECN     H13      HGA3     0.090000        1.0080           0
     58600 WT19     1181     MECN     C2       CG1N1    0.360000       12.0110           0
     58601 WT19     1181     MECN     N3       NG1T1   -0.460000       14.0070           0
     58602 WT19     1191     MECN     C1       CG331   -0.170000       12.0110           0
     58603 WT19     1191     MECN     H11      HGA3     0.090000        1.0080           0
     58604 WT19     1191     MECN     H12      HGA3     0.090000        1.0080           0
     58605 WT19     1191     MECN     H13      HGA3     0.090000        1.0080           0
     58606 WT19     1191     MECN     C2       CG1N1    0.360000       12.0110           0
     58607 WT19     1191     MECN     N3       NG1T1   -0.460000       14.0070           0
     58608 WT19     1199     MECN     C1       CG331   -0.170000       12.0110           0
     58609 WT19     1199     MECN     H11      HGA3     0.090000        1.0080           0
     58610 WT19     1199     MECN     H12      HGA3     0.090000        1.0080           0
     58611 WT19     1199     MECN     H13      HGA3     0.090000        1.0080           0
     58612 WT19     1199     MECN     C2       CG1N1    0.360000       12.0110           0
     58613 WT19     1199     MECN     N3       NG1T1   -0.460000       14.0070           0
     58614 WT19     1205     MECN     C1       CG331   -0.170000       12.0110           0
     58615 WT19     1205     MECN     H11      HGA3     0.090000        1.0080           0
     58616 WT19     1205     MECN     H12      HGA3     0.090000        1.0080           0
     58617 WT19     1205     MECN     H13      HGA3     0.090000        1.0080           0
     58618 WT19     1205     MECN     C2       CG1N1    0.360000       12.0110           0
     58619 WT19     1205     MECN     N3       NG1T1   -0.460000       14.0070           0
     58620 WT19     1207     MECN     C1       CG331   -0.170000       12.0110           0
     58621 WT19     1207     MECN     H11      HGA3     0.090000        1.0080           0
     58622 WT19     1207     MECN     H12      HGA3     0.090000        1.0080           0
     58623 WT19     1207     MECN     H13      HGA3     0.090000        1.0080           0
     58624 WT19     1207     MECN     C2       CG1N1    0.360000       12.0110           0
     58625 WT19     1207     MECN     N3       NG1T1   -0.460000       14.0070           0
     58626 WT19     1211     MECN     C1       CG331   -0.170000       12.0110           0
     58627 WT19     1211     MECN     H11      HGA3     0.090000        1.0080           0
     58628 WT19     1211     MECN     H12      HGA3     0.090000        1.0080           0
     58629 WT19     1211     MECN     H13      HGA3     0.090000        1.0080           0
     58630 WT19     1211     MECN     C2       CG1N1    0.360000       12.0110           0
     58631 WT19     1211     MECN     N3       NG1T1   -0.460000       14.0070           0
     58632 WT19     1220     MECN     C1       CG331   -0.170000       12.0110           0
     58633 WT19     1220     MECN     H11      HGA3     0.090000        1.0080           0
     58634 WT19     1220     MECN     H12      HGA3     0.090000        1.0080           0
     58635 WT19     1220     MECN     H13      HGA3     0.090000        1.0080           0
     58636 WT19     1220     MECN     C2       CG1N1    0.360000       12.0110           0
     58637 WT19     1220     MECN     N3       NG1T1   -0.460000       14.0070           0
     58638 WT19     1223     MECN     C1       CG331   -0.170000       12.0110           0
     58639 WT19     1223     MECN     H11      HGA3     0.090000        1.0080           0
     58640 WT19     1223     MECN     H12      HGA3     0.090000        1.0080           0
     58641 WT19     1223     MECN     H13      HGA3     0.090000        1.0080           0
     58642 WT19     1223     MECN     C2       CG1N1    0.360000       12.0110           0
     58643 WT19     1223     MECN     N3       NG1T1   -0.460000       14.0070           0
     58644 WT19     1236     MECN     C1       CG331   -0.170000       12.0110           0
     58645 WT19     1236     MECN     H11      HGA3     0.090000        1.0080           0
     58646 WT19     1236     MECN     H12      HGA3     0.090000        1.0080           0
     58647 WT19     1236     MECN     H13      HGA3     0.090000        1.0080           0
     58648 WT19     1236     MECN     C2       CG1N1    0.360000       12.0110           0
     58649 WT19     1236     MECN     N3       NG1T1   -0.460000       14.0070           0
     58650 WT19     1249     MECN     C1       CG331   -0.170000       12.0110           0
     58651 WT19     1249     MECN     H11      HGA3     0.090000        1.0080           0
     58652 WT19     1249     MECN     H12      HGA3     0.090000        1.0080           0
     58653 WT19     1249     MECN     H13      HGA3     0.090000        1.0080           0
     58654 WT19     1249     MECN     C2       CG1N1    0.360000       12.0110           0
     58655 WT19     1249     MECN     N3       NG1T1   -0.460000       14.0070           0
     58656 WT19     1252     MECN     C1       CG331   -0.170000       12.0110           0
     58657 WT19     1252     MECN     H11      HGA3     0.090000        1.0080           0
     58658 WT19     1252     MECN     H12      HGA3     0.090000        1.0080           0
     58659 WT19     1252     MECN     H13      HGA3     0.090000        1.0080           0
     58660 WT19     1252     MECN     C2       CG1N1    0.360000       12.0110           0
     58661 WT19     1252     MECN     N3       NG1T1   -0.460000       14.0070           0
     58662 WT19     1256     MECN     C1       CG331   -0.170000       12.0110           0
     58663 WT19     1256     MECN     H11      HGA3     0.090000        1.0080           0
     58664 WT19     1256     MECN     H12      HGA3     0.090000        1.0080           0
     58665 WT19     1256     MECN     H13      HGA3     0.090000        1.0080           0
     58666 WT19     1256     MECN     C2       CG1N1    0.360000       12.0110           0
     58667 WT19     1256     MECN     N3       NG1T1   -0.460000       14.0070           0
     58668 WT19     1257     MECN     C1       CG331   -0.170000       12.0110           0
     58669 WT19     1257     MECN     H11      HGA3     0.090000        1.0080           0
     58670 WT19     1257     MECN     H12      HGA3     0.090000        1.0080           0
     58671 WT19     1257     MECN     H13      HGA3     0.090000        1.0080           0
     58672 WT19     1257     MECN     C2       CG1N1    0.360000       12.0110           0
     58673 WT19     1257     MECN     N3       NG1T1   -0.460000       14.0070           0
     58674 WT19     1269     MECN     C1       CG331   -0.170000       12.0110           0
     58675 WT19     1269     MECN     H11      HGA3     0.090000        1.0080           0
     58676 WT19     1269     MECN     H12      HGA3     0.090000        1.0080           0
     58677 WT19     1269     MECN     H13      HGA3     0.090000        1.0080           0
     58678 WT19     1269     MECN     C2       CG1N1    0.360000       12.0110           0
     58679 WT19     1269     MECN     N3       NG1T1   -0.460000       14.0070           0
     58680 WT19     1270     MECN     C1       CG331   -0.170000       12.0110           0
     58681 WT19     1270     MECN     H11      HGA3     0.090000        1.0080           0
     58682 WT19     1270     MECN     H12      HGA3     0.090000        1.0080           0
     58683 WT19     1270     MECN     H13      HGA3     0.090000        1.0080           0
     58684 WT19     1270     MECN     C2       CG1N1    0.360000       12.0110           0
     58685 WT19     1270     MECN     N3       NG1T1   -0.460000       14.0070           0
     58686 WT19     1276     MECN     C1       CG331   -0.170000       12.0110           0
     58687 WT19     1276     MECN     H11      HGA3     0.090000        1.0080           0
     58688 WT19     1276     MECN     H12      HGA3     0.090000        1.0080           0
     58689 WT19     1276     MECN     H13      HGA3     0.090000        1.0080           0
     58690 WT19     1276     MECN     C2       CG1N1    0.360000       12.0110           0
     58691 WT19     1276     MECN     N3       NG1T1   -0.460000       14.0070           0
     58692 WT19     1287     MECN     C1       CG331   -0.170000       12.0110           0
     58693 WT19     1287     MECN     H11      HGA3     0.090000        1.0080           0
     58694 WT19     1287     MECN     H12      HGA3     0.090000        1.0080           0
     58695 WT19     1287     MECN     H13      HGA3     0.090000        1.0080           0
     58696 WT19     1287     MECN     C2       CG1N1    0.360000       12.0110           0
     58697 WT19     1287     MECN     N3       NG1T1   -0.460000       14.0070           0
     58698 WT19     1288     MECN     C1       CG331   -0.170000       12.0110           0
     58699 WT19     1288     MECN     H11      HGA3     0.090000        1.0080           0
     58700 WT19     1288     MECN     H12      HGA3     0.090000        1.0080           0
     58701 WT19     1288     MECN     H13      HGA3     0.090000        1.0080           0
     58702 WT19     1288     MECN     C2       CG1N1    0.360000       12.0110           0
     58703 WT19     1288     MECN     N3       NG1T1   -0.460000       14.0070           0
     58704 WT19     1289     MECN     C1       CG331   -0.170000       12.0110           0
     58705 WT19     1289     MECN     H11      HGA3     0.090000        1.0080           0
     58706 WT19     1289     MECN     H12      HGA3     0.090000        1.0080           0
     58707 WT19     1289     MECN     H13      HGA3     0.090000        1.0080           0
     58708 WT19     1289     MECN     C2       CG1N1    0.360000       12.0110           0
     58709 WT19     1289     MECN     N3       NG1T1   -0.460000       14.0070           0
     58710 WT19     1291     MECN     C1       CG331   -0.170000       12.0110           0
     58711 WT19     1291     MECN     H11      HGA3     0.090000        1.0080           0
     58712 WT19     1291     MECN     H12      HGA3     0.090000        1.0080           0
     58713 WT19     1291     MECN     H13      HGA3     0.090000        1.0080           0
     58714 WT19     1291     MECN     C2       CG1N1    0.360000       12.0110           0
     58715 WT19     1291     MECN     N3       NG1T1   -0.460000       14.0070           0
     58716 WT19     1295     MECN     C1       CG331   -0.170000       12.0110           0
     58717 WT19     1295     MECN     H11      HGA3     0.090000        1.0080           0
     58718 WT19     1295     MECN     H12      HGA3     0.090000        1.0080           0
     58719 WT19     1295     MECN     H13      HGA3     0.090000        1.0080           0
     58720 WT19     1295     MECN     C2       CG1N1    0.360000       12.0110           0
     58721 WT19     1295     MECN     N3       NG1T1   -0.460000       14.0070           0
     58722 WT19     1296     MECN     C1       CG331   -0.170000       12.0110           0
     58723 WT19     1296     MECN     H11      HGA3     0.090000        1.0080           0
     58724 WT19     1296     MECN     H12      HGA3     0.090000        1.0080           0
     58725 WT19     1296     MECN     H13      HGA3     0.090000        1.0080           0
     58726 WT19     1296     MECN     C2       CG1N1    0.360000       12.0110           0
     58727 WT19     1296     MECN     N3       NG1T1   -0.460000       14.0070           0
     58728 WT19     1310     MECN     C1       CG331   -0.170000       12.0110           0
     58729 WT19     1310     MECN     H11      HGA3     0.090000        1.0080           0
     58730 WT19     1310     MECN     H12      HGA3     0.090000        1.0080           0
     58731 WT19     1310     MECN     H13      HGA3     0.090000        1.0080           0
     58732 WT19     1310     MECN     C2       CG1N1    0.360000       12.0110           0
     58733 WT19     1310     MECN     N3       NG1T1   -0.460000       14.0070           0
     58734 WT19     1322     MECN     C1       CG331   -0.170000       12.0110           0
     58735 WT19     1322     MECN     H11      HGA3     0.090000        1.0080           0
     58736 WT19     1322     MECN     H12      HGA3     0.090000        1.0080           0
     58737 WT19     1322     MECN     H13      HGA3     0.090000        1.0080           0
     58738 WT19     1322     MECN     C2       CG1N1    0.360000       12.0110           0
     58739 WT19     1322     MECN     N3       NG1T1   -0.460000       14.0070           0
     58740 WT20     6        MECN     C1       CG331   -0.170000       12.0110           0
     58741 WT20     6        MECN     H11      HGA3     0.090000        1.0080           0
     58742 WT20     6        MECN     H12      HGA3     0.090000        1.0080           0
     58743 WT20     6        MECN     H13      HGA3     0.090000        1.0080           0
     58744 WT20     6        MECN     C2       CG1N1    0.360000       12.0110           0
     58745 WT20     6        MECN     N3       NG1T1   -0.460000       14.0070           0
     58746 WT20     7        MECN     C1       CG331   -0.170000       12.0110           0
     58747 WT20     7        MECN     H11      HGA3     0.090000        1.0080           0
     58748 WT20     7        MECN     H12      HGA3     0.090000        1.0080           0
     58749 WT20     7        MECN     H13      HGA3     0.090000        1.0080           0
     58750 WT20     7        MECN     C2       CG1N1    0.360000       12.0110           0
     58751 WT20     7        MECN     N3       NG1T1   -0.460000       14.0070           0
     58752 WT20     9        MECN     C1       CG331   -0.170000       12.0110           0
     58753 WT20     9        MECN     H11      HGA3     0.090000        1.0080           0
     58754 WT20     9        MECN     H12      HGA3     0.090000        1.0080           0
     58755 WT20     9        MECN     H13      HGA3     0.090000        1.0080           0
     58756 WT20     9        MECN     C2       CG1N1    0.360000       12.0110           0
     58757 WT20     9        MECN     N3       NG1T1   -0.460000       14.0070           0
     58758 WT20     10       MECN     C1       CG331   -0.170000       12.0110           0
     58759 WT20     10       MECN     H11      HGA3     0.090000        1.0080           0
     58760 WT20     10       MECN     H12      HGA3     0.090000        1.0080           0
     58761 WT20     10       MECN     H13      HGA3     0.090000        1.0080           0
     58762 WT20     10       MECN     C2       CG1N1    0.360000       12.0110           0
     58763 WT20     10       MECN     N3       NG1T1   -0.460000       14.0070           0
     58764 WT20     18       MECN     C1       CG331   -0.170000       12.0110           0
     58765 WT20     18       MECN     H11      HGA3     0.090000        1.0080           0
     58766 WT20     18       MECN     H12      HGA3     0.090000        1.0080           0
     58767 WT20     18       MECN     H13      HGA3     0.090000        1.0080           0
     58768 WT20     18       MECN     C2       CG1N1    0.360000       12.0110           0
     58769 WT20     18       MECN     N3       NG1T1   -0.460000       14.0070           0
     58770 WT20     21       MECN     C1       CG331   -0.170000       12.0110           0
     58771 WT20     21       MECN     H11      HGA3     0.090000        1.0080           0
     58772 WT20     21       MECN     H12      HGA3     0.090000        1.0080           0
     58773 WT20     21       MECN     H13      HGA3     0.090000        1.0080           0
     58774 WT20     21       MECN     C2       CG1N1    0.360000       12.0110           0
     58775 WT20     21       MECN     N3       NG1T1   -0.460000       14.0070           0
     58776 WT20     23       MECN     C1       CG331   -0.170000       12.0110           0
     58777 WT20     23       MECN     H11      HGA3     0.090000        1.0080           0
     58778 WT20     23       MECN     H12      HGA3     0.090000        1.0080           0
     58779 WT20     23       MECN     H13      HGA3     0.090000        1.0080           0
     58780 WT20     23       MECN     C2       CG1N1    0.360000       12.0110           0
     58781 WT20     23       MECN     N3       NG1T1   -0.460000       14.0070           0
     58782 WT20     27       MECN     C1       CG331   -0.170000       12.0110           0
     58783 WT20     27       MECN     H11      HGA3     0.090000        1.0080           0
     58784 WT20     27       MECN     H12      HGA3     0.090000        1.0080           0
     58785 WT20     27       MECN     H13      HGA3     0.090000        1.0080           0
     58786 WT20     27       MECN     C2       CG1N1    0.360000       12.0110           0
     58787 WT20     27       MECN     N3       NG1T1   -0.460000       14.0070           0
     58788 WT20     28       MECN     C1       CG331   -0.170000       12.0110           0
     58789 WT20     28       MECN     H11      HGA3     0.090000        1.0080           0
     58790 WT20     28       MECN     H12      HGA3     0.090000        1.0080           0
     58791 WT20     28       MECN     H13      HGA3     0.090000        1.0080           0
     58792 WT20     28       MECN     C2       CG1N1    0.360000       12.0110           0
     58793 WT20     28       MECN     N3       NG1T1   -0.460000       14.0070           0
     58794 WT20     29       MECN     C1       CG331   -0.170000       12.0110           0
     58795 WT20     29       MECN     H11      HGA3     0.090000        1.0080           0
     58796 WT20     29       MECN     H12      HGA3     0.090000        1.0080           0
     58797 WT20     29       MECN     H13      HGA3     0.090000        1.0080           0
     58798 WT20     29       MECN     C2       CG1N1    0.360000       12.0110           0
     58799 WT20     29       MECN     N3       NG1T1   -0.460000       14.0070           0
     58800 WT20     32       MECN     C1       CG331   -0.170000       12.0110           0
     58801 WT20     32       MECN     H11      HGA3     0.090000        1.0080           0
     58802 WT20     32       MECN     H12      HGA3     0.090000        1.0080           0
     58803 WT20     32       MECN     H13      HGA3     0.090000        1.0080           0
     58804 WT20     32       MECN     C2       CG1N1    0.360000       12.0110           0
     58805 WT20     32       MECN     N3       NG1T1   -0.460000       14.0070           0
     58806 WT20     44       MECN     C1       CG331   -0.170000       12.0110           0
     58807 WT20     44       MECN     H11      HGA3     0.090000        1.0080           0
     58808 WT20     44       MECN     H12      HGA3     0.090000        1.0080           0
     58809 WT20     44       MECN     H13      HGA3     0.090000        1.0080           0
     58810 WT20     44       MECN     C2       CG1N1    0.360000       12.0110           0
     58811 WT20     44       MECN     N3       NG1T1   -0.460000       14.0070           0
     58812 WT20     47       MECN     C1       CG331   -0.170000       12.0110           0
     58813 WT20     47       MECN     H11      HGA3     0.090000        1.0080           0
     58814 WT20     47       MECN     H12      HGA3     0.090000        1.0080           0
     58815 WT20     47       MECN     H13      HGA3     0.090000        1.0080           0
     58816 WT20     47       MECN     C2       CG1N1    0.360000       12.0110           0
     58817 WT20     47       MECN     N3       NG1T1   -0.460000       14.0070           0
     58818 WT20     49       MECN     C1       CG331   -0.170000       12.0110           0
     58819 WT20     49       MECN     H11      HGA3     0.090000        1.0080           0
     58820 WT20     49       MECN     H12      HGA3     0.090000        1.0080           0
     58821 WT20     49       MECN     H13      HGA3     0.090000        1.0080           0
     58822 WT20     49       MECN     C2       CG1N1    0.360000       12.0110           0
     58823 WT20     49       MECN     N3       NG1T1   -0.460000       14.0070           0
     58824 WT20     50       MECN     C1       CG331   -0.170000       12.0110           0
     58825 WT20     50       MECN     H11      HGA3     0.090000        1.0080           0
     58826 WT20     50       MECN     H12      HGA3     0.090000        1.0080           0
     58827 WT20     50       MECN     H13      HGA3     0.090000        1.0080           0
     58828 WT20     50       MECN     C2       CG1N1    0.360000       12.0110           0
     58829 WT20     50       MECN     N3       NG1T1   -0.460000       14.0070           0
     58830 WT20     52       MECN     C1       CG331   -0.170000       12.0110           0
     58831 WT20     52       MECN     H11      HGA3     0.090000        1.0080           0
     58832 WT20     52       MECN     H12      HGA3     0.090000        1.0080           0
     58833 WT20     52       MECN     H13      HGA3     0.090000        1.0080           0
     58834 WT20     52       MECN     C2       CG1N1    0.360000       12.0110           0
     58835 WT20     52       MECN     N3       NG1T1   -0.460000       14.0070           0
     58836 WT20     55       MECN     C1       CG331   -0.170000       12.0110           0
     58837 WT20     55       MECN     H11      HGA3     0.090000        1.0080           0
     58838 WT20     55       MECN     H12      HGA3     0.090000        1.0080           0
     58839 WT20     55       MECN     H13      HGA3     0.090000        1.0080           0
     58840 WT20     55       MECN     C2       CG1N1    0.360000       12.0110           0
     58841 WT20     55       MECN     N3       NG1T1   -0.460000       14.0070           0
     58842 WT20     56       MECN     C1       CG331   -0.170000       12.0110           0
     58843 WT20     56       MECN     H11      HGA3     0.090000        1.0080           0
     58844 WT20     56       MECN     H12      HGA3     0.090000        1.0080           0
     58845 WT20     56       MECN     H13      HGA3     0.090000        1.0080           0
     58846 WT20     56       MECN     C2       CG1N1    0.360000       12.0110           0
     58847 WT20     56       MECN     N3       NG1T1   -0.460000       14.0070           0
     58848 WT20     57       MECN     C1       CG331   -0.170000       12.0110           0
     58849 WT20     57       MECN     H11      HGA3     0.090000        1.0080           0
     58850 WT20     57       MECN     H12      HGA3     0.090000        1.0080           0
     58851 WT20     57       MECN     H13      HGA3     0.090000        1.0080           0
     58852 WT20     57       MECN     C2       CG1N1    0.360000       12.0110           0
     58853 WT20     57       MECN     N3       NG1T1   -0.460000       14.0070           0
     58854 WT20     59       MECN     C1       CG331   -0.170000       12.0110           0
     58855 WT20     59       MECN     H11      HGA3     0.090000        1.0080           0
     58856 WT20     59       MECN     H12      HGA3     0.090000        1.0080           0
     58857 WT20     59       MECN     H13      HGA3     0.090000        1.0080           0
     58858 WT20     59       MECN     C2       CG1N1    0.360000       12.0110           0
     58859 WT20     59       MECN     N3       NG1T1   -0.460000       14.0070           0
     58860 WT20     61       MECN     C1       CG331   -0.170000       12.0110           0
     58861 WT20     61       MECN     H11      HGA3     0.090000        1.0080           0
     58862 WT20     61       MECN     H12      HGA3     0.090000        1.0080           0
     58863 WT20     61       MECN     H13      HGA3     0.090000        1.0080           0
     58864 WT20     61       MECN     C2       CG1N1    0.360000       12.0110           0
     58865 WT20     61       MECN     N3       NG1T1   -0.460000       14.0070           0
     58866 WT20     63       MECN     C1       CG331   -0.170000       12.0110           0
     58867 WT20     63       MECN     H11      HGA3     0.090000        1.0080           0
     58868 WT20     63       MECN     H12      HGA3     0.090000        1.0080           0
     58869 WT20     63       MECN     H13      HGA3     0.090000        1.0080           0
     58870 WT20     63       MECN     C2       CG1N1    0.360000       12.0110           0
     58871 WT20     63       MECN     N3       NG1T1   -0.460000       14.0070           0
     58872 WT20     64       MECN     C1       CG331   -0.170000       12.0110           0
     58873 WT20     64       MECN     H11      HGA3     0.090000        1.0080           0
     58874 WT20     64       MECN     H12      HGA3     0.090000        1.0080           0
     58875 WT20     64       MECN     H13      HGA3     0.090000        1.0080           0
     58876 WT20     64       MECN     C2       CG1N1    0.360000       12.0110           0
     58877 WT20     64       MECN     N3       NG1T1   -0.460000       14.0070           0
     58878 WT20     65       MECN     C1       CG331   -0.170000       12.0110           0
     58879 WT20     65       MECN     H11      HGA3     0.090000        1.0080           0
     58880 WT20     65       MECN     H12      HGA3     0.090000        1.0080           0
     58881 WT20     65       MECN     H13      HGA3     0.090000        1.0080           0
     58882 WT20     65       MECN     C2       CG1N1    0.360000       12.0110           0
     58883 WT20     65       MECN     N3       NG1T1   -0.460000       14.0070           0
     58884 WT20     66       MECN     C1       CG331   -0.170000       12.0110           0
     58885 WT20     66       MECN     H11      HGA3     0.090000        1.0080           0
     58886 WT20     66       MECN     H12      HGA3     0.090000        1.0080           0
     58887 WT20     66       MECN     H13      HGA3     0.090000        1.0080           0
     58888 WT20     66       MECN     C2       CG1N1    0.360000       12.0110           0
     58889 WT20     66       MECN     N3       NG1T1   -0.460000       14.0070           0
     58890 WT20     70       MECN     C1       CG331   -0.170000       12.0110           0
     58891 WT20     70       MECN     H11      HGA3     0.090000        1.0080           0
     58892 WT20     70       MECN     H12      HGA3     0.090000        1.0080           0
     58893 WT20     70       MECN     H13      HGA3     0.090000        1.0080           0
     58894 WT20     70       MECN     C2       CG1N1    0.360000       12.0110           0
     58895 WT20     70       MECN     N3       NG1T1   -0.460000       14.0070           0
     58896 WT20     79       MECN     C1       CG331   -0.170000       12.0110           0
     58897 WT20     79       MECN     H11      HGA3     0.090000        1.0080           0
     58898 WT20     79       MECN     H12      HGA3     0.090000        1.0080           0
     58899 WT20     79       MECN     H13      HGA3     0.090000        1.0080           0
     58900 WT20     79       MECN     C2       CG1N1    0.360000       12.0110           0
     58901 WT20     79       MECN     N3       NG1T1   -0.460000       14.0070           0
     58902 WT20     83       MECN     C1       CG331   -0.170000       12.0110           0
     58903 WT20     83       MECN     H11      HGA3     0.090000        1.0080           0
     58904 WT20     83       MECN     H12      HGA3     0.090000        1.0080           0
     58905 WT20     83       MECN     H13      HGA3     0.090000        1.0080           0
     58906 WT20     83       MECN     C2       CG1N1    0.360000       12.0110           0
     58907 WT20     83       MECN     N3       NG1T1   -0.460000       14.0070           0
     58908 WT20     88       MECN     C1       CG331   -0.170000       12.0110           0
     58909 WT20     88       MECN     H11      HGA3     0.090000        1.0080           0
     58910 WT20     88       MECN     H12      HGA3     0.090000        1.0080           0
     58911 WT20     88       MECN     H13      HGA3     0.090000        1.0080           0
     58912 WT20     88       MECN     C2       CG1N1    0.360000       12.0110           0
     58913 WT20     88       MECN     N3       NG1T1   -0.460000       14.0070           0
     58914 WT20     89       MECN     C1       CG331   -0.170000       12.0110           0
     58915 WT20     89       MECN     H11      HGA3     0.090000        1.0080           0
     58916 WT20     89       MECN     H12      HGA3     0.090000        1.0080           0
     58917 WT20     89       MECN     H13      HGA3     0.090000        1.0080           0
     58918 WT20     89       MECN     C2       CG1N1    0.360000       12.0110           0
     58919 WT20     89       MECN     N3       NG1T1   -0.460000       14.0070           0
     58920 WT20     92       MECN     C1       CG331   -0.170000       12.0110           0
     58921 WT20     92       MECN     H11      HGA3     0.090000        1.0080           0
     58922 WT20     92       MECN     H12      HGA3     0.090000        1.0080           0
     58923 WT20     92       MECN     H13      HGA3     0.090000        1.0080           0
     58924 WT20     92       MECN     C2       CG1N1    0.360000       12.0110           0
     58925 WT20     92       MECN     N3       NG1T1   -0.460000       14.0070           0
     58926 WT20     105      MECN     C1       CG331   -0.170000       12.0110           0
     58927 WT20     105      MECN     H11      HGA3     0.090000        1.0080           0
     58928 WT20     105      MECN     H12      HGA3     0.090000        1.0080           0
     58929 WT20     105      MECN     H13      HGA3     0.090000        1.0080           0
     58930 WT20     105      MECN     C2       CG1N1    0.360000       12.0110           0
     58931 WT20     105      MECN     N3       NG1T1   -0.460000       14.0070           0
     58932 WT20     106      MECN     C1       CG331   -0.170000       12.0110           0
     58933 WT20     106      MECN     H11      HGA3     0.090000        1.0080           0
     58934 WT20     106      MECN     H12      HGA3     0.090000        1.0080           0
     58935 WT20     106      MECN     H13      HGA3     0.090000        1.0080           0
     58936 WT20     106      MECN     C2       CG1N1    0.360000       12.0110           0
     58937 WT20     106      MECN     N3       NG1T1   -0.460000       14.0070           0
     58938 WT20     111      MECN     C1       CG331   -0.170000       12.0110           0
     58939 WT20     111      MECN     H11      HGA3     0.090000        1.0080           0
     58940 WT20     111      MECN     H12      HGA3     0.090000        1.0080           0
     58941 WT20     111      MECN     H13      HGA3     0.090000        1.0080           0
     58942 WT20     111      MECN     C2       CG1N1    0.360000       12.0110           0
     58943 WT20     111      MECN     N3       NG1T1   -0.460000       14.0070           0
     58944 WT20     112      MECN     C1       CG331   -0.170000       12.0110           0
     58945 WT20     112      MECN     H11      HGA3     0.090000        1.0080           0
     58946 WT20     112      MECN     H12      HGA3     0.090000        1.0080           0
     58947 WT20     112      MECN     H13      HGA3     0.090000        1.0080           0
     58948 WT20     112      MECN     C2       CG1N1    0.360000       12.0110           0
     58949 WT20     112      MECN     N3       NG1T1   -0.460000       14.0070           0
     58950 WT20     113      MECN     C1       CG331   -0.170000       12.0110           0
     58951 WT20     113      MECN     H11      HGA3     0.090000        1.0080           0
     58952 WT20     113      MECN     H12      HGA3     0.090000        1.0080           0
     58953 WT20     113      MECN     H13      HGA3     0.090000        1.0080           0
     58954 WT20     113      MECN     C2       CG1N1    0.360000       12.0110           0
     58955 WT20     113      MECN     N3       NG1T1   -0.460000       14.0070           0
     58956 WT20     115      MECN     C1       CG331   -0.170000       12.0110           0
     58957 WT20     115      MECN     H11      HGA3     0.090000        1.0080           0
     58958 WT20     115      MECN     H12      HGA3     0.090000        1.0080           0
     58959 WT20     115      MECN     H13      HGA3     0.090000        1.0080           0
     58960 WT20     115      MECN     C2       CG1N1    0.360000       12.0110           0
     58961 WT20     115      MECN     N3       NG1T1   -0.460000       14.0070           0
     58962 WT20     117      MECN     C1       CG331   -0.170000       12.0110           0
     58963 WT20     117      MECN     H11      HGA3     0.090000        1.0080           0
     58964 WT20     117      MECN     H12      HGA3     0.090000        1.0080           0
     58965 WT20     117      MECN     H13      HGA3     0.090000        1.0080           0
     58966 WT20     117      MECN     C2       CG1N1    0.360000       12.0110           0
     58967 WT20     117      MECN     N3       NG1T1   -0.460000       14.0070           0
     58968 WT20     118      MECN     C1       CG331   -0.170000       12.0110           0
     58969 WT20     118      MECN     H11      HGA3     0.090000        1.0080           0
     58970 WT20     118      MECN     H12      HGA3     0.090000        1.0080           0
     58971 WT20     118      MECN     H13      HGA3     0.090000        1.0080           0
     58972 WT20     118      MECN     C2       CG1N1    0.360000       12.0110           0
     58973 WT20     118      MECN     N3       NG1T1   -0.460000       14.0070           0
     58974 WT20     119      MECN     C1       CG331   -0.170000       12.0110           0
     58975 WT20     119      MECN     H11      HGA3     0.090000        1.0080           0
     58976 WT20     119      MECN     H12      HGA3     0.090000        1.0080           0
     58977 WT20     119      MECN     H13      HGA3     0.090000        1.0080           0
     58978 WT20     119      MECN     C2       CG1N1    0.360000       12.0110           0
     58979 WT20     119      MECN     N3       NG1T1   -0.460000       14.0070           0
     58980 WT20     121      MECN     C1       CG331   -0.170000       12.0110           0
     58981 WT20     121      MECN     H11      HGA3     0.090000        1.0080           0
     58982 WT20     121      MECN     H12      HGA3     0.090000        1.0080           0
     58983 WT20     121      MECN     H13      HGA3     0.090000        1.0080           0
     58984 WT20     121      MECN     C2       CG1N1    0.360000       12.0110           0
     58985 WT20     121      MECN     N3       NG1T1   -0.460000       14.0070           0
     58986 WT20     122      MECN     C1       CG331   -0.170000       12.0110           0
     58987 WT20     122      MECN     H11      HGA3     0.090000        1.0080           0
     58988 WT20     122      MECN     H12      HGA3     0.090000        1.0080           0
     58989 WT20     122      MECN     H13      HGA3     0.090000        1.0080           0
     58990 WT20     122      MECN     C2       CG1N1    0.360000       12.0110           0
     58991 WT20     122      MECN     N3       NG1T1   -0.460000       14.0070           0
     58992 WT20     123      MECN     C1       CG331   -0.170000       12.0110           0
     58993 WT20     123      MECN     H11      HGA3     0.090000        1.0080           0
     58994 WT20     123      MECN     H12      HGA3     0.090000        1.0080           0
     58995 WT20     123      MECN     H13      HGA3     0.090000        1.0080           0
     58996 WT20     123      MECN     C2       CG1N1    0.360000       12.0110           0
     58997 WT20     123      MECN     N3       NG1T1   -0.460000       14.0070           0
     58998 WT20     124      MECN     C1       CG331   -0.170000       12.0110           0
     58999 WT20     124      MECN     H11      HGA3     0.090000        1.0080           0
     59000 WT20     124      MECN     H12      HGA3     0.090000        1.0080           0
     59001 WT20     124      MECN     H13      HGA3     0.090000        1.0080           0
     59002 WT20     124      MECN     C2       CG1N1    0.360000       12.0110           0
     59003 WT20     124      MECN     N3       NG1T1   -0.460000       14.0070           0
     59004 WT20     127      MECN     C1       CG331   -0.170000       12.0110           0
     59005 WT20     127      MECN     H11      HGA3     0.090000        1.0080           0
     59006 WT20     127      MECN     H12      HGA3     0.090000        1.0080           0
     59007 WT20     127      MECN     H13      HGA3     0.090000        1.0080           0
     59008 WT20     127      MECN     C2       CG1N1    0.360000       12.0110           0
     59009 WT20     127      MECN     N3       NG1T1   -0.460000       14.0070           0
     59010 WT20     129      MECN     C1       CG331   -0.170000       12.0110           0
     59011 WT20     129      MECN     H11      HGA3     0.090000        1.0080           0
     59012 WT20     129      MECN     H12      HGA3     0.090000        1.0080           0
     59013 WT20     129      MECN     H13      HGA3     0.090000        1.0080           0
     59014 WT20     129      MECN     C2       CG1N1    0.360000       12.0110           0
     59015 WT20     129      MECN     N3       NG1T1   -0.460000       14.0070           0
     59016 WT20     134      MECN     C1       CG331   -0.170000       12.0110           0
     59017 WT20     134      MECN     H11      HGA3     0.090000        1.0080           0
     59018 WT20     134      MECN     H12      HGA3     0.090000        1.0080           0
     59019 WT20     134      MECN     H13      HGA3     0.090000        1.0080           0
     59020 WT20     134      MECN     C2       CG1N1    0.360000       12.0110           0
     59021 WT20     134      MECN     N3       NG1T1   -0.460000       14.0070           0
     59022 WT20     135      MECN     C1       CG331   -0.170000       12.0110           0
     59023 WT20     135      MECN     H11      HGA3     0.090000        1.0080           0
     59024 WT20     135      MECN     H12      HGA3     0.090000        1.0080           0
     59025 WT20     135      MECN     H13      HGA3     0.090000        1.0080           0
     59026 WT20     135      MECN     C2       CG1N1    0.360000       12.0110           0
     59027 WT20     135      MECN     N3       NG1T1   -0.460000       14.0070           0
     59028 WT20     143      MECN     C1       CG331   -0.170000       12.0110           0
     59029 WT20     143      MECN     H11      HGA3     0.090000        1.0080           0
     59030 WT20     143      MECN     H12      HGA3     0.090000        1.0080           0
     59031 WT20     143      MECN     H13      HGA3     0.090000        1.0080           0
     59032 WT20     143      MECN     C2       CG1N1    0.360000       12.0110           0
     59033 WT20     143      MECN     N3       NG1T1   -0.460000       14.0070           0
     59034 WT20     145      MECN     C1       CG331   -0.170000       12.0110           0
     59035 WT20     145      MECN     H11      HGA3     0.090000        1.0080           0
     59036 WT20     145      MECN     H12      HGA3     0.090000        1.0080           0
     59037 WT20     145      MECN     H13      HGA3     0.090000        1.0080           0
     59038 WT20     145      MECN     C2       CG1N1    0.360000       12.0110           0
     59039 WT20     145      MECN     N3       NG1T1   -0.460000       14.0070           0
     59040 WT20     147      MECN     C1       CG331   -0.170000       12.0110           0
     59041 WT20     147      MECN     H11      HGA3     0.090000        1.0080           0
     59042 WT20     147      MECN     H12      HGA3     0.090000        1.0080           0
     59043 WT20     147      MECN     H13      HGA3     0.090000        1.0080           0
     59044 WT20     147      MECN     C2       CG1N1    0.360000       12.0110           0
     59045 WT20     147      MECN     N3       NG1T1   -0.460000       14.0070           0
     59046 WT20     150      MECN     C1       CG331   -0.170000       12.0110           0
     59047 WT20     150      MECN     H11      HGA3     0.090000        1.0080           0
     59048 WT20     150      MECN     H12      HGA3     0.090000        1.0080           0
     59049 WT20     150      MECN     H13      HGA3     0.090000        1.0080           0
     59050 WT20     150      MECN     C2       CG1N1    0.360000       12.0110           0
     59051 WT20     150      MECN     N3       NG1T1   -0.460000       14.0070           0
     59052 WT20     154      MECN     C1       CG331   -0.170000       12.0110           0
     59053 WT20     154      MECN     H11      HGA3     0.090000        1.0080           0
     59054 WT20     154      MECN     H12      HGA3     0.090000        1.0080           0
     59055 WT20     154      MECN     H13      HGA3     0.090000        1.0080           0
     59056 WT20     154      MECN     C2       CG1N1    0.360000       12.0110           0
     59057 WT20     154      MECN     N3       NG1T1   -0.460000       14.0070           0
     59058 WT20     155      MECN     C1       CG331   -0.170000       12.0110           0
     59059 WT20     155      MECN     H11      HGA3     0.090000        1.0080           0
     59060 WT20     155      MECN     H12      HGA3     0.090000        1.0080           0
     59061 WT20     155      MECN     H13      HGA3     0.090000        1.0080           0
     59062 WT20     155      MECN     C2       CG1N1    0.360000       12.0110           0
     59063 WT20     155      MECN     N3       NG1T1   -0.460000       14.0070           0
     59064 WT20     159      MECN     C1       CG331   -0.170000       12.0110           0
     59065 WT20     159      MECN     H11      HGA3     0.090000        1.0080           0
     59066 WT20     159      MECN     H12      HGA3     0.090000        1.0080           0
     59067 WT20     159      MECN     H13      HGA3     0.090000        1.0080           0
     59068 WT20     159      MECN     C2       CG1N1    0.360000       12.0110           0
     59069 WT20     159      MECN     N3       NG1T1   -0.460000       14.0070           0
     59070 WT20     164      MECN     C1       CG331   -0.170000       12.0110           0
     59071 WT20     164      MECN     H11      HGA3     0.090000        1.0080           0
     59072 WT20     164      MECN     H12      HGA3     0.090000        1.0080           0
     59073 WT20     164      MECN     H13      HGA3     0.090000        1.0080           0
     59074 WT20     164      MECN     C2       CG1N1    0.360000       12.0110           0
     59075 WT20     164      MECN     N3       NG1T1   -0.460000       14.0070           0
     59076 WT20     168      MECN     C1       CG331   -0.170000       12.0110           0
     59077 WT20     168      MECN     H11      HGA3     0.090000        1.0080           0
     59078 WT20     168      MECN     H12      HGA3     0.090000        1.0080           0
     59079 WT20     168      MECN     H13      HGA3     0.090000        1.0080           0
     59080 WT20     168      MECN     C2       CG1N1    0.360000       12.0110           0
     59081 WT20     168      MECN     N3       NG1T1   -0.460000       14.0070           0
     59082 WT20     173      MECN     C1       CG331   -0.170000       12.0110           0
     59083 WT20     173      MECN     H11      HGA3     0.090000        1.0080           0
     59084 WT20     173      MECN     H12      HGA3     0.090000        1.0080           0
     59085 WT20     173      MECN     H13      HGA3     0.090000        1.0080           0
     59086 WT20     173      MECN     C2       CG1N1    0.360000       12.0110           0
     59087 WT20     173      MECN     N3       NG1T1   -0.460000       14.0070           0
     59088 WT20     175      MECN     C1       CG331   -0.170000       12.0110           0
     59089 WT20     175      MECN     H11      HGA3     0.090000        1.0080           0
     59090 WT20     175      MECN     H12      HGA3     0.090000        1.0080           0
     59091 WT20     175      MECN     H13      HGA3     0.090000        1.0080           0
     59092 WT20     175      MECN     C2       CG1N1    0.360000       12.0110           0
     59093 WT20     175      MECN     N3       NG1T1   -0.460000       14.0070           0
     59094 WT20     179      MECN     C1       CG331   -0.170000       12.0110           0
     59095 WT20     179      MECN     H11      HGA3     0.090000        1.0080           0
     59096 WT20     179      MECN     H12      HGA3     0.090000        1.0080           0
     59097 WT20     179      MECN     H13      HGA3     0.090000        1.0080           0
     59098 WT20     179      MECN     C2       CG1N1    0.360000       12.0110           0
     59099 WT20     179      MECN     N3       NG1T1   -0.460000       14.0070           0
     59100 WT20     181      MECN     C1       CG331   -0.170000       12.0110           0
     59101 WT20     181      MECN     H11      HGA3     0.090000        1.0080           0
     59102 WT20     181      MECN     H12      HGA3     0.090000        1.0080           0
     59103 WT20     181      MECN     H13      HGA3     0.090000        1.0080           0
     59104 WT20     181      MECN     C2       CG1N1    0.360000       12.0110           0
     59105 WT20     181      MECN     N3       NG1T1   -0.460000       14.0070           0
     59106 WT20     184      MECN     C1       CG331   -0.170000       12.0110           0
     59107 WT20     184      MECN     H11      HGA3     0.090000        1.0080           0
     59108 WT20     184      MECN     H12      HGA3     0.090000        1.0080           0
     59109 WT20     184      MECN     H13      HGA3     0.090000        1.0080           0
     59110 WT20     184      MECN     C2       CG1N1    0.360000       12.0110           0
     59111 WT20     184      MECN     N3       NG1T1   -0.460000       14.0070           0
     59112 WT20     186      MECN     C1       CG331   -0.170000       12.0110           0
     59113 WT20     186      MECN     H11      HGA3     0.090000        1.0080           0
     59114 WT20     186      MECN     H12      HGA3     0.090000        1.0080           0
     59115 WT20     186      MECN     H13      HGA3     0.090000        1.0080           0
     59116 WT20     186      MECN     C2       CG1N1    0.360000       12.0110           0
     59117 WT20     186      MECN     N3       NG1T1   -0.460000       14.0070           0
     59118 WT20     190      MECN     C1       CG331   -0.170000       12.0110           0
     59119 WT20     190      MECN     H11      HGA3     0.090000        1.0080           0
     59120 WT20     190      MECN     H12      HGA3     0.090000        1.0080           0
     59121 WT20     190      MECN     H13      HGA3     0.090000        1.0080           0
     59122 WT20     190      MECN     C2       CG1N1    0.360000       12.0110           0
     59123 WT20     190      MECN     N3       NG1T1   -0.460000       14.0070           0
     59124 WT20     191      MECN     C1       CG331   -0.170000       12.0110           0
     59125 WT20     191      MECN     H11      HGA3     0.090000        1.0080           0
     59126 WT20     191      MECN     H12      HGA3     0.090000        1.0080           0
     59127 WT20     191      MECN     H13      HGA3     0.090000        1.0080           0
     59128 WT20     191      MECN     C2       CG1N1    0.360000       12.0110           0
     59129 WT20     191      MECN     N3       NG1T1   -0.460000       14.0070           0
     59130 WT20     199      MECN     C1       CG331   -0.170000       12.0110           0
     59131 WT20     199      MECN     H11      HGA3     0.090000        1.0080           0
     59132 WT20     199      MECN     H12      HGA3     0.090000        1.0080           0
     59133 WT20     199      MECN     H13      HGA3     0.090000        1.0080           0
     59134 WT20     199      MECN     C2       CG1N1    0.360000       12.0110           0
     59135 WT20     199      MECN     N3       NG1T1   -0.460000       14.0070           0
     59136 WT20     202      MECN     C1       CG331   -0.170000       12.0110           0
     59137 WT20     202      MECN     H11      HGA3     0.090000        1.0080           0
     59138 WT20     202      MECN     H12      HGA3     0.090000        1.0080           0
     59139 WT20     202      MECN     H13      HGA3     0.090000        1.0080           0
     59140 WT20     202      MECN     C2       CG1N1    0.360000       12.0110           0
     59141 WT20     202      MECN     N3       NG1T1   -0.460000       14.0070           0
     59142 WT20     203      MECN     C1       CG331   -0.170000       12.0110           0
     59143 WT20     203      MECN     H11      HGA3     0.090000        1.0080           0
     59144 WT20     203      MECN     H12      HGA3     0.090000        1.0080           0
     59145 WT20     203      MECN     H13      HGA3     0.090000        1.0080           0
     59146 WT20     203      MECN     C2       CG1N1    0.360000       12.0110           0
     59147 WT20     203      MECN     N3       NG1T1   -0.460000       14.0070           0
     59148 WT20     205      MECN     C1       CG331   -0.170000       12.0110           0
     59149 WT20     205      MECN     H11      HGA3     0.090000        1.0080           0
     59150 WT20     205      MECN     H12      HGA3     0.090000        1.0080           0
     59151 WT20     205      MECN     H13      HGA3     0.090000        1.0080           0
     59152 WT20     205      MECN     C2       CG1N1    0.360000       12.0110           0
     59153 WT20     205      MECN     N3       NG1T1   -0.460000       14.0070           0
     59154 WT20     209      MECN     C1       CG331   -0.170000       12.0110           0
     59155 WT20     209      MECN     H11      HGA3     0.090000        1.0080           0
     59156 WT20     209      MECN     H12      HGA3     0.090000        1.0080           0
     59157 WT20     209      MECN     H13      HGA3     0.090000        1.0080           0
     59158 WT20     209      MECN     C2       CG1N1    0.360000       12.0110           0
     59159 WT20     209      MECN     N3       NG1T1   -0.460000       14.0070           0
     59160 WT20     216      MECN     C1       CG331   -0.170000       12.0110           0
     59161 WT20     216      MECN     H11      HGA3     0.090000        1.0080           0
     59162 WT20     216      MECN     H12      HGA3     0.090000        1.0080           0
     59163 WT20     216      MECN     H13      HGA3     0.090000        1.0080           0
     59164 WT20     216      MECN     C2       CG1N1    0.360000       12.0110           0
     59165 WT20     216      MECN     N3       NG1T1   -0.460000       14.0070           0
     59166 WT20     229      MECN     C1       CG331   -0.170000       12.0110           0
     59167 WT20     229      MECN     H11      HGA3     0.090000        1.0080           0
     59168 WT20     229      MECN     H12      HGA3     0.090000        1.0080           0
     59169 WT20     229      MECN     H13      HGA3     0.090000        1.0080           0
     59170 WT20     229      MECN     C2       CG1N1    0.360000       12.0110           0
     59171 WT20     229      MECN     N3       NG1T1   -0.460000       14.0070           0
     59172 WT20     230      MECN     C1       CG331   -0.170000       12.0110           0
     59173 WT20     230      MECN     H11      HGA3     0.090000        1.0080           0
     59174 WT20     230      MECN     H12      HGA3     0.090000        1.0080           0
     59175 WT20     230      MECN     H13      HGA3     0.090000        1.0080           0
     59176 WT20     230      MECN     C2       CG1N1    0.360000       12.0110           0
     59177 WT20     230      MECN     N3       NG1T1   -0.460000       14.0070           0
     59178 WT20     231      MECN     C1       CG331   -0.170000       12.0110           0
     59179 WT20     231      MECN     H11      HGA3     0.090000        1.0080           0
     59180 WT20     231      MECN     H12      HGA3     0.090000        1.0080           0
     59181 WT20     231      MECN     H13      HGA3     0.090000        1.0080           0
     59182 WT20     231      MECN     C2       CG1N1    0.360000       12.0110           0
     59183 WT20     231      MECN     N3       NG1T1   -0.460000       14.0070           0
     59184 WT20     246      MECN     C1       CG331   -0.170000       12.0110           0
     59185 WT20     246      MECN     H11      HGA3     0.090000        1.0080           0
     59186 WT20     246      MECN     H12      HGA3     0.090000        1.0080           0
     59187 WT20     246      MECN     H13      HGA3     0.090000        1.0080           0
     59188 WT20     246      MECN     C2       CG1N1    0.360000       12.0110           0
     59189 WT20     246      MECN     N3       NG1T1   -0.460000       14.0070           0
     59190 WT20     247      MECN     C1       CG331   -0.170000       12.0110           0
     59191 WT20     247      MECN     H11      HGA3     0.090000        1.0080           0
     59192 WT20     247      MECN     H12      HGA3     0.090000        1.0080           0
     59193 WT20     247      MECN     H13      HGA3     0.090000        1.0080           0
     59194 WT20     247      MECN     C2       CG1N1    0.360000       12.0110           0
     59195 WT20     247      MECN     N3       NG1T1   -0.460000       14.0070           0
     59196 WT20     248      MECN     C1       CG331   -0.170000       12.0110           0
     59197 WT20     248      MECN     H11      HGA3     0.090000        1.0080           0
     59198 WT20     248      MECN     H12      HGA3     0.090000        1.0080           0
     59199 WT20     248      MECN     H13      HGA3     0.090000        1.0080           0
     59200 WT20     248      MECN     C2       CG1N1    0.360000       12.0110           0
     59201 WT20     248      MECN     N3       NG1T1   -0.460000       14.0070           0
     59202 WT20     252      MECN     C1       CG331   -0.170000       12.0110           0
     59203 WT20     252      MECN     H11      HGA3     0.090000        1.0080           0
     59204 WT20     252      MECN     H12      HGA3     0.090000        1.0080           0
     59205 WT20     252      MECN     H13      HGA3     0.090000        1.0080           0
     59206 WT20     252      MECN     C2       CG1N1    0.360000       12.0110           0
     59207 WT20     252      MECN     N3       NG1T1   -0.460000       14.0070           0
     59208 WT20     253      MECN     C1       CG331   -0.170000       12.0110           0
     59209 WT20     253      MECN     H11      HGA3     0.090000        1.0080           0
     59210 WT20     253      MECN     H12      HGA3     0.090000        1.0080           0
     59211 WT20     253      MECN     H13      HGA3     0.090000        1.0080           0
     59212 WT20     253      MECN     C2       CG1N1    0.360000       12.0110           0
     59213 WT20     253      MECN     N3       NG1T1   -0.460000       14.0070           0
     59214 WT20     260      MECN     C1       CG331   -0.170000       12.0110           0
     59215 WT20     260      MECN     H11      HGA3     0.090000        1.0080           0
     59216 WT20     260      MECN     H12      HGA3     0.090000        1.0080           0
     59217 WT20     260      MECN     H13      HGA3     0.090000        1.0080           0
     59218 WT20     260      MECN     C2       CG1N1    0.360000       12.0110           0
     59219 WT20     260      MECN     N3       NG1T1   -0.460000       14.0070           0
     59220 WT20     270      MECN     C1       CG331   -0.170000       12.0110           0
     59221 WT20     270      MECN     H11      HGA3     0.090000        1.0080           0
     59222 WT20     270      MECN     H12      HGA3     0.090000        1.0080           0
     59223 WT20     270      MECN     H13      HGA3     0.090000        1.0080           0
     59224 WT20     270      MECN     C2       CG1N1    0.360000       12.0110           0
     59225 WT20     270      MECN     N3       NG1T1   -0.460000       14.0070           0
     59226 WT20     272      MECN     C1       CG331   -0.170000       12.0110           0
     59227 WT20     272      MECN     H11      HGA3     0.090000        1.0080           0
     59228 WT20     272      MECN     H12      HGA3     0.090000        1.0080           0
     59229 WT20     272      MECN     H13      HGA3     0.090000        1.0080           0
     59230 WT20     272      MECN     C2       CG1N1    0.360000       12.0110           0
     59231 WT20     272      MECN     N3       NG1T1   -0.460000       14.0070           0
     59232 WT20     274      MECN     C1       CG331   -0.170000       12.0110           0
     59233 WT20     274      MECN     H11      HGA3     0.090000        1.0080           0
     59234 WT20     274      MECN     H12      HGA3     0.090000        1.0080           0
     59235 WT20     274      MECN     H13      HGA3     0.090000        1.0080           0
     59236 WT20     274      MECN     C2       CG1N1    0.360000       12.0110           0
     59237 WT20     274      MECN     N3       NG1T1   -0.460000       14.0070           0
     59238 WT20     276      MECN     C1       CG331   -0.170000       12.0110           0
     59239 WT20     276      MECN     H11      HGA3     0.090000        1.0080           0
     59240 WT20     276      MECN     H12      HGA3     0.090000        1.0080           0
     59241 WT20     276      MECN     H13      HGA3     0.090000        1.0080           0
     59242 WT20     276      MECN     C2       CG1N1    0.360000       12.0110           0
     59243 WT20     276      MECN     N3       NG1T1   -0.460000       14.0070           0
     59244 WT20     279      MECN     C1       CG331   -0.170000       12.0110           0
     59245 WT20     279      MECN     H11      HGA3     0.090000        1.0080           0
     59246 WT20     279      MECN     H12      HGA3     0.090000        1.0080           0
     59247 WT20     279      MECN     H13      HGA3     0.090000        1.0080           0
     59248 WT20     279      MECN     C2       CG1N1    0.360000       12.0110           0
     59249 WT20     279      MECN     N3       NG1T1   -0.460000       14.0070           0
     59250 WT20     280      MECN     C1       CG331   -0.170000       12.0110           0
     59251 WT20     280      MECN     H11      HGA3     0.090000        1.0080           0
     59252 WT20     280      MECN     H12      HGA3     0.090000        1.0080           0
     59253 WT20     280      MECN     H13      HGA3     0.090000        1.0080           0
     59254 WT20     280      MECN     C2       CG1N1    0.360000       12.0110           0
     59255 WT20     280      MECN     N3       NG1T1   -0.460000       14.0070           0
     59256 WT20     286      MECN     C1       CG331   -0.170000       12.0110           0
     59257 WT20     286      MECN     H11      HGA3     0.090000        1.0080           0
     59258 WT20     286      MECN     H12      HGA3     0.090000        1.0080           0
     59259 WT20     286      MECN     H13      HGA3     0.090000        1.0080           0
     59260 WT20     286      MECN     C2       CG1N1    0.360000       12.0110           0
     59261 WT20     286      MECN     N3       NG1T1   -0.460000       14.0070           0
     59262 WT20     288      MECN     C1       CG331   -0.170000       12.0110           0
     59263 WT20     288      MECN     H11      HGA3     0.090000        1.0080           0
     59264 WT20     288      MECN     H12      HGA3     0.090000        1.0080           0
     59265 WT20     288      MECN     H13      HGA3     0.090000        1.0080           0
     59266 WT20     288      MECN     C2       CG1N1    0.360000       12.0110           0
     59267 WT20     288      MECN     N3       NG1T1   -0.460000       14.0070           0
     59268 WT20     292      MECN     C1       CG331   -0.170000       12.0110           0
     59269 WT20     292      MECN     H11      HGA3     0.090000        1.0080           0
     59270 WT20     292      MECN     H12      HGA3     0.090000        1.0080           0
     59271 WT20     292      MECN     H13      HGA3     0.090000        1.0080           0
     59272 WT20     292      MECN     C2       CG1N1    0.360000       12.0110           0
     59273 WT20     292      MECN     N3       NG1T1   -0.460000       14.0070           0
     59274 WT20     294      MECN     C1       CG331   -0.170000       12.0110           0
     59275 WT20     294      MECN     H11      HGA3     0.090000        1.0080           0
     59276 WT20     294      MECN     H12      HGA3     0.090000        1.0080           0
     59277 WT20     294      MECN     H13      HGA3     0.090000        1.0080           0
     59278 WT20     294      MECN     C2       CG1N1    0.360000       12.0110           0
     59279 WT20     294      MECN     N3       NG1T1   -0.460000       14.0070           0
     59280 WT20     297      MECN     C1       CG331   -0.170000       12.0110           0
     59281 WT20     297      MECN     H11      HGA3     0.090000        1.0080           0
     59282 WT20     297      MECN     H12      HGA3     0.090000        1.0080           0
     59283 WT20     297      MECN     H13      HGA3     0.090000        1.0080           0
     59284 WT20     297      MECN     C2       CG1N1    0.360000       12.0110           0
     59285 WT20     297      MECN     N3       NG1T1   -0.460000       14.0070           0
     59286 WT20     304      MECN     C1       CG331   -0.170000       12.0110           0
     59287 WT20     304      MECN     H11      HGA3     0.090000        1.0080           0
     59288 WT20     304      MECN     H12      HGA3     0.090000        1.0080           0
     59289 WT20     304      MECN     H13      HGA3     0.090000        1.0080           0
     59290 WT20     304      MECN     C2       CG1N1    0.360000       12.0110           0
     59291 WT20     304      MECN     N3       NG1T1   -0.460000       14.0070           0
     59292 WT20     310      MECN     C1       CG331   -0.170000       12.0110           0
     59293 WT20     310      MECN     H11      HGA3     0.090000        1.0080           0
     59294 WT20     310      MECN     H12      HGA3     0.090000        1.0080           0
     59295 WT20     310      MECN     H13      HGA3     0.090000        1.0080           0
     59296 WT20     310      MECN     C2       CG1N1    0.360000       12.0110           0
     59297 WT20     310      MECN     N3       NG1T1   -0.460000       14.0070           0
     59298 WT20     316      MECN     C1       CG331   -0.170000       12.0110           0
     59299 WT20     316      MECN     H11      HGA3     0.090000        1.0080           0
     59300 WT20     316      MECN     H12      HGA3     0.090000        1.0080           0
     59301 WT20     316      MECN     H13      HGA3     0.090000        1.0080           0
     59302 WT20     316      MECN     C2       CG1N1    0.360000       12.0110           0
     59303 WT20     316      MECN     N3       NG1T1   -0.460000       14.0070           0
     59304 WT20     317      MECN     C1       CG331   -0.170000       12.0110           0
     59305 WT20     317      MECN     H11      HGA3     0.090000        1.0080           0
     59306 WT20     317      MECN     H12      HGA3     0.090000        1.0080           0
     59307 WT20     317      MECN     H13      HGA3     0.090000        1.0080           0
     59308 WT20     317      MECN     C2       CG1N1    0.360000       12.0110           0
     59309 WT20     317      MECN     N3       NG1T1   -0.460000       14.0070           0
     59310 WT20     318      MECN     C1       CG331   -0.170000       12.0110           0
     59311 WT20     318      MECN     H11      HGA3     0.090000        1.0080           0
     59312 WT20     318      MECN     H12      HGA3     0.090000        1.0080           0
     59313 WT20     318      MECN     H13      HGA3     0.090000        1.0080           0
     59314 WT20     318      MECN     C2       CG1N1    0.360000       12.0110           0
     59315 WT20     318      MECN     N3       NG1T1   -0.460000       14.0070           0
     59316 WT20     319      MECN     C1       CG331   -0.170000       12.0110           0
     59317 WT20     319      MECN     H11      HGA3     0.090000        1.0080           0
     59318 WT20     319      MECN     H12      HGA3     0.090000        1.0080           0
     59319 WT20     319      MECN     H13      HGA3     0.090000        1.0080           0
     59320 WT20     319      MECN     C2       CG1N1    0.360000       12.0110           0
     59321 WT20     319      MECN     N3       NG1T1   -0.460000       14.0070           0
     59322 WT20     325      MECN     C1       CG331   -0.170000       12.0110           0
     59323 WT20     325      MECN     H11      HGA3     0.090000        1.0080           0
     59324 WT20     325      MECN     H12      HGA3     0.090000        1.0080           0
     59325 WT20     325      MECN     H13      HGA3     0.090000        1.0080           0
     59326 WT20     325      MECN     C2       CG1N1    0.360000       12.0110           0
     59327 WT20     325      MECN     N3       NG1T1   -0.460000       14.0070           0
     59328 WT20     327      MECN     C1       CG331   -0.170000       12.0110           0
     59329 WT20     327      MECN     H11      HGA3     0.090000        1.0080           0
     59330 WT20     327      MECN     H12      HGA3     0.090000        1.0080           0
     59331 WT20     327      MECN     H13      HGA3     0.090000        1.0080           0
     59332 WT20     327      MECN     C2       CG1N1    0.360000       12.0110           0
     59333 WT20     327      MECN     N3       NG1T1   -0.460000       14.0070           0
     59334 WT20     328      MECN     C1       CG331   -0.170000       12.0110           0
     59335 WT20     328      MECN     H11      HGA3     0.090000        1.0080           0
     59336 WT20     328      MECN     H12      HGA3     0.090000        1.0080           0
     59337 WT20     328      MECN     H13      HGA3     0.090000        1.0080           0
     59338 WT20     328      MECN     C2       CG1N1    0.360000       12.0110           0
     59339 WT20     328      MECN     N3       NG1T1   -0.460000       14.0070           0
     59340 WT20     329      MECN     C1       CG331   -0.170000       12.0110           0
     59341 WT20     329      MECN     H11      HGA3     0.090000        1.0080           0
     59342 WT20     329      MECN     H12      HGA3     0.090000        1.0080           0
     59343 WT20     329      MECN     H13      HGA3     0.090000        1.0080           0
     59344 WT20     329      MECN     C2       CG1N1    0.360000       12.0110           0
     59345 WT20     329      MECN     N3       NG1T1   -0.460000       14.0070           0
     59346 WT20     331      MECN     C1       CG331   -0.170000       12.0110           0
     59347 WT20     331      MECN     H11      HGA3     0.090000        1.0080           0
     59348 WT20     331      MECN     H12      HGA3     0.090000        1.0080           0
     59349 WT20     331      MECN     H13      HGA3     0.090000        1.0080           0
     59350 WT20     331      MECN     C2       CG1N1    0.360000       12.0110           0
     59351 WT20     331      MECN     N3       NG1T1   -0.460000       14.0070           0
     59352 WT20     336      MECN     C1       CG331   -0.170000       12.0110           0
     59353 WT20     336      MECN     H11      HGA3     0.090000        1.0080           0
     59354 WT20     336      MECN     H12      HGA3     0.090000        1.0080           0
     59355 WT20     336      MECN     H13      HGA3     0.090000        1.0080           0
     59356 WT20     336      MECN     C2       CG1N1    0.360000       12.0110           0
     59357 WT20     336      MECN     N3       NG1T1   -0.460000       14.0070           0
     59358 WT20     340      MECN     C1       CG331   -0.170000       12.0110           0
     59359 WT20     340      MECN     H11      HGA3     0.090000        1.0080           0
     59360 WT20     340      MECN     H12      HGA3     0.090000        1.0080           0
     59361 WT20     340      MECN     H13      HGA3     0.090000        1.0080           0
     59362 WT20     340      MECN     C2       CG1N1    0.360000       12.0110           0
     59363 WT20     340      MECN     N3       NG1T1   -0.460000       14.0070           0
     59364 WT20     341      MECN     C1       CG331   -0.170000       12.0110           0
     59365 WT20     341      MECN     H11      HGA3     0.090000        1.0080           0
     59366 WT20     341      MECN     H12      HGA3     0.090000        1.0080           0
     59367 WT20     341      MECN     H13      HGA3     0.090000        1.0080           0
     59368 WT20     341      MECN     C2       CG1N1    0.360000       12.0110           0
     59369 WT20     341      MECN     N3       NG1T1   -0.460000       14.0070           0
     59370 WT20     343      MECN     C1       CG331   -0.170000       12.0110           0
     59371 WT20     343      MECN     H11      HGA3     0.090000        1.0080           0
     59372 WT20     343      MECN     H12      HGA3     0.090000        1.0080           0
     59373 WT20     343      MECN     H13      HGA3     0.090000        1.0080           0
     59374 WT20     343      MECN     C2       CG1N1    0.360000       12.0110           0
     59375 WT20     343      MECN     N3       NG1T1   -0.460000       14.0070           0
     59376 WT20     344      MECN     C1       CG331   -0.170000       12.0110           0
     59377 WT20     344      MECN     H11      HGA3     0.090000        1.0080           0
     59378 WT20     344      MECN     H12      HGA3     0.090000        1.0080           0
     59379 WT20     344      MECN     H13      HGA3     0.090000        1.0080           0
     59380 WT20     344      MECN     C2       CG1N1    0.360000       12.0110           0
     59381 WT20     344      MECN     N3       NG1T1   -0.460000       14.0070           0
     59382 WT20     349      MECN     C1       CG331   -0.170000       12.0110           0
     59383 WT20     349      MECN     H11      HGA3     0.090000        1.0080           0
     59384 WT20     349      MECN     H12      HGA3     0.090000        1.0080           0
     59385 WT20     349      MECN     H13      HGA3     0.090000        1.0080           0
     59386 WT20     349      MECN     C2       CG1N1    0.360000       12.0110           0
     59387 WT20     349      MECN     N3       NG1T1   -0.460000       14.0070           0
     59388 WT20     351      MECN     C1       CG331   -0.170000       12.0110           0
     59389 WT20     351      MECN     H11      HGA3     0.090000        1.0080           0
     59390 WT20     351      MECN     H12      HGA3     0.090000        1.0080           0
     59391 WT20     351      MECN     H13      HGA3     0.090000        1.0080           0
     59392 WT20     351      MECN     C2       CG1N1    0.360000       12.0110           0
     59393 WT20     351      MECN     N3       NG1T1   -0.460000       14.0070           0
     59394 WT20     358      MECN     C1       CG331   -0.170000       12.0110           0
     59395 WT20     358      MECN     H11      HGA3     0.090000        1.0080           0
     59396 WT20     358      MECN     H12      HGA3     0.090000        1.0080           0
     59397 WT20     358      MECN     H13      HGA3     0.090000        1.0080           0
     59398 WT20     358      MECN     C2       CG1N1    0.360000       12.0110           0
     59399 WT20     358      MECN     N3       NG1T1   -0.460000       14.0070           0
     59400 WT20     359      MECN     C1       CG331   -0.170000       12.0110           0
     59401 WT20     359      MECN     H11      HGA3     0.090000        1.0080           0
     59402 WT20     359      MECN     H12      HGA3     0.090000        1.0080           0
     59403 WT20     359      MECN     H13      HGA3     0.090000        1.0080           0
     59404 WT20     359      MECN     C2       CG1N1    0.360000       12.0110           0
     59405 WT20     359      MECN     N3       NG1T1   -0.460000       14.0070           0
     59406 WT20     361      MECN     C1       CG331   -0.170000       12.0110           0
     59407 WT20     361      MECN     H11      HGA3     0.090000        1.0080           0
     59408 WT20     361      MECN     H12      HGA3     0.090000        1.0080           0
     59409 WT20     361      MECN     H13      HGA3     0.090000        1.0080           0
     59410 WT20     361      MECN     C2       CG1N1    0.360000       12.0110           0
     59411 WT20     361      MECN     N3       NG1T1   -0.460000       14.0070           0
     59412 WT20     366      MECN     C1       CG331   -0.170000       12.0110           0
     59413 WT20     366      MECN     H11      HGA3     0.090000        1.0080           0
     59414 WT20     366      MECN     H12      HGA3     0.090000        1.0080           0
     59415 WT20     366      MECN     H13      HGA3     0.090000        1.0080           0
     59416 WT20     366      MECN     C2       CG1N1    0.360000       12.0110           0
     59417 WT20     366      MECN     N3       NG1T1   -0.460000       14.0070           0
     59418 WT20     367      MECN     C1       CG331   -0.170000       12.0110           0
     59419 WT20     367      MECN     H11      HGA3     0.090000        1.0080           0
     59420 WT20     367      MECN     H12      HGA3     0.090000        1.0080           0
     59421 WT20     367      MECN     H13      HGA3     0.090000        1.0080           0
     59422 WT20     367      MECN     C2       CG1N1    0.360000       12.0110           0
     59423 WT20     367      MECN     N3       NG1T1   -0.460000       14.0070           0
     59424 WT20     373      MECN     C1       CG331   -0.170000       12.0110           0
     59425 WT20     373      MECN     H11      HGA3     0.090000        1.0080           0
     59426 WT20     373      MECN     H12      HGA3     0.090000        1.0080           0
     59427 WT20     373      MECN     H13      HGA3     0.090000        1.0080           0
     59428 WT20     373      MECN     C2       CG1N1    0.360000       12.0110           0
     59429 WT20     373      MECN     N3       NG1T1   -0.460000       14.0070           0
     59430 WT20     378      MECN     C1       CG331   -0.170000       12.0110           0
     59431 WT20     378      MECN     H11      HGA3     0.090000        1.0080           0
     59432 WT20     378      MECN     H12      HGA3     0.090000        1.0080           0
     59433 WT20     378      MECN     H13      HGA3     0.090000        1.0080           0
     59434 WT20     378      MECN     C2       CG1N1    0.360000       12.0110           0
     59435 WT20     378      MECN     N3       NG1T1   -0.460000       14.0070           0
     59436 WT20     381      MECN     C1       CG331   -0.170000       12.0110           0
     59437 WT20     381      MECN     H11      HGA3     0.090000        1.0080           0
     59438 WT20     381      MECN     H12      HGA3     0.090000        1.0080           0
     59439 WT20     381      MECN     H13      HGA3     0.090000        1.0080           0
     59440 WT20     381      MECN     C2       CG1N1    0.360000       12.0110           0
     59441 WT20     381      MECN     N3       NG1T1   -0.460000       14.0070           0
     59442 WT20     385      MECN     C1       CG331   -0.170000       12.0110           0
     59443 WT20     385      MECN     H11      HGA3     0.090000        1.0080           0
     59444 WT20     385      MECN     H12      HGA3     0.090000        1.0080           0
     59445 WT20     385      MECN     H13      HGA3     0.090000        1.0080           0
     59446 WT20     385      MECN     C2       CG1N1    0.360000       12.0110           0
     59447 WT20     385      MECN     N3       NG1T1   -0.460000       14.0070           0
     59448 WT20     393      MECN     C1       CG331   -0.170000       12.0110           0
     59449 WT20     393      MECN     H11      HGA3     0.090000        1.0080           0
     59450 WT20     393      MECN     H12      HGA3     0.090000        1.0080           0
     59451 WT20     393      MECN     H13      HGA3     0.090000        1.0080           0
     59452 WT20     393      MECN     C2       CG1N1    0.360000       12.0110           0
     59453 WT20     393      MECN     N3       NG1T1   -0.460000       14.0070           0
     59454 WT20     400      MECN     C1       CG331   -0.170000       12.0110           0
     59455 WT20     400      MECN     H11      HGA3     0.090000        1.0080           0
     59456 WT20     400      MECN     H12      HGA3     0.090000        1.0080           0
     59457 WT20     400      MECN     H13      HGA3     0.090000        1.0080           0
     59458 WT20     400      MECN     C2       CG1N1    0.360000       12.0110           0
     59459 WT20     400      MECN     N3       NG1T1   -0.460000       14.0070           0
     59460 WT20     403      MECN     C1       CG331   -0.170000       12.0110           0
     59461 WT20     403      MECN     H11      HGA3     0.090000        1.0080           0
     59462 WT20     403      MECN     H12      HGA3     0.090000        1.0080           0
     59463 WT20     403      MECN     H13      HGA3     0.090000        1.0080           0
     59464 WT20     403      MECN     C2       CG1N1    0.360000       12.0110           0
     59465 WT20     403      MECN     N3       NG1T1   -0.460000       14.0070           0
     59466 WT20     406      MECN     C1       CG331   -0.170000       12.0110           0
     59467 WT20     406      MECN     H11      HGA3     0.090000        1.0080           0
     59468 WT20     406      MECN     H12      HGA3     0.090000        1.0080           0
     59469 WT20     406      MECN     H13      HGA3     0.090000        1.0080           0
     59470 WT20     406      MECN     C2       CG1N1    0.360000       12.0110           0
     59471 WT20     406      MECN     N3       NG1T1   -0.460000       14.0070           0
     59472 WT20     408      MECN     C1       CG331   -0.170000       12.0110           0
     59473 WT20     408      MECN     H11      HGA3     0.090000        1.0080           0
     59474 WT20     408      MECN     H12      HGA3     0.090000        1.0080           0
     59475 WT20     408      MECN     H13      HGA3     0.090000        1.0080           0
     59476 WT20     408      MECN     C2       CG1N1    0.360000       12.0110           0
     59477 WT20     408      MECN     N3       NG1T1   -0.460000       14.0070           0
     59478 WT20     410      MECN     C1       CG331   -0.170000       12.0110           0
     59479 WT20     410      MECN     H11      HGA3     0.090000        1.0080           0
     59480 WT20     410      MECN     H12      HGA3     0.090000        1.0080           0
     59481 WT20     410      MECN     H13      HGA3     0.090000        1.0080           0
     59482 WT20     410      MECN     C2       CG1N1    0.360000       12.0110           0
     59483 WT20     410      MECN     N3       NG1T1   -0.460000       14.0070           0
     59484 WT20     411      MECN     C1       CG331   -0.170000       12.0110           0
     59485 WT20     411      MECN     H11      HGA3     0.090000        1.0080           0
     59486 WT20     411      MECN     H12      HGA3     0.090000        1.0080           0
     59487 WT20     411      MECN     H13      HGA3     0.090000        1.0080           0
     59488 WT20     411      MECN     C2       CG1N1    0.360000       12.0110           0
     59489 WT20     411      MECN     N3       NG1T1   -0.460000       14.0070           0
     59490 WT20     418      MECN     C1       CG331   -0.170000       12.0110           0
     59491 WT20     418      MECN     H11      HGA3     0.090000        1.0080           0
     59492 WT20     418      MECN     H12      HGA3     0.090000        1.0080           0
     59493 WT20     418      MECN     H13      HGA3     0.090000        1.0080           0
     59494 WT20     418      MECN     C2       CG1N1    0.360000       12.0110           0
     59495 WT20     418      MECN     N3       NG1T1   -0.460000       14.0070           0
     59496 WT20     419      MECN     C1       CG331   -0.170000       12.0110           0
     59497 WT20     419      MECN     H11      HGA3     0.090000        1.0080           0
     59498 WT20     419      MECN     H12      HGA3     0.090000        1.0080           0
     59499 WT20     419      MECN     H13      HGA3     0.090000        1.0080           0
     59500 WT20     419      MECN     C2       CG1N1    0.360000       12.0110           0
     59501 WT20     419      MECN     N3       NG1T1   -0.460000       14.0070           0
     59502 WT20     420      MECN     C1       CG331   -0.170000       12.0110           0
     59503 WT20     420      MECN     H11      HGA3     0.090000        1.0080           0
     59504 WT20     420      MECN     H12      HGA3     0.090000        1.0080           0
     59505 WT20     420      MECN     H13      HGA3     0.090000        1.0080           0
     59506 WT20     420      MECN     C2       CG1N1    0.360000       12.0110           0
     59507 WT20     420      MECN     N3       NG1T1   -0.460000       14.0070           0
     59508 WT20     422      MECN     C1       CG331   -0.170000       12.0110           0
     59509 WT20     422      MECN     H11      HGA3     0.090000        1.0080           0
     59510 WT20     422      MECN     H12      HGA3     0.090000        1.0080           0
     59511 WT20     422      MECN     H13      HGA3     0.090000        1.0080           0
     59512 WT20     422      MECN     C2       CG1N1    0.360000       12.0110           0
     59513 WT20     422      MECN     N3       NG1T1   -0.460000       14.0070           0
     59514 WT20     423      MECN     C1       CG331   -0.170000       12.0110           0
     59515 WT20     423      MECN     H11      HGA3     0.090000        1.0080           0
     59516 WT20     423      MECN     H12      HGA3     0.090000        1.0080           0
     59517 WT20     423      MECN     H13      HGA3     0.090000        1.0080           0
     59518 WT20     423      MECN     C2       CG1N1    0.360000       12.0110           0
     59519 WT20     423      MECN     N3       NG1T1   -0.460000       14.0070           0
     59520 WT20     427      MECN     C1       CG331   -0.170000       12.0110           0
     59521 WT20     427      MECN     H11      HGA3     0.090000        1.0080           0
     59522 WT20     427      MECN     H12      HGA3     0.090000        1.0080           0
     59523 WT20     427      MECN     H13      HGA3     0.090000        1.0080           0
     59524 WT20     427      MECN     C2       CG1N1    0.360000       12.0110           0
     59525 WT20     427      MECN     N3       NG1T1   -0.460000       14.0070           0
     59526 WT20     435      MECN     C1       CG331   -0.170000       12.0110           0
     59527 WT20     435      MECN     H11      HGA3     0.090000        1.0080           0
     59528 WT20     435      MECN     H12      HGA3     0.090000        1.0080           0
     59529 WT20     435      MECN     H13      HGA3     0.090000        1.0080           0
     59530 WT20     435      MECN     C2       CG1N1    0.360000       12.0110           0
     59531 WT20     435      MECN     N3       NG1T1   -0.460000       14.0070           0
     59532 WT20     441      MECN     C1       CG331   -0.170000       12.0110           0
     59533 WT20     441      MECN     H11      HGA3     0.090000        1.0080           0
     59534 WT20     441      MECN     H12      HGA3     0.090000        1.0080           0
     59535 WT20     441      MECN     H13      HGA3     0.090000        1.0080           0
     59536 WT20     441      MECN     C2       CG1N1    0.360000       12.0110           0
     59537 WT20     441      MECN     N3       NG1T1   -0.460000       14.0070           0
     59538 WT20     445      MECN     C1       CG331   -0.170000       12.0110           0
     59539 WT20     445      MECN     H11      HGA3     0.090000        1.0080           0
     59540 WT20     445      MECN     H12      HGA3     0.090000        1.0080           0
     59541 WT20     445      MECN     H13      HGA3     0.090000        1.0080           0
     59542 WT20     445      MECN     C2       CG1N1    0.360000       12.0110           0
     59543 WT20     445      MECN     N3       NG1T1   -0.460000       14.0070           0
     59544 WT20     446      MECN     C1       CG331   -0.170000       12.0110           0
     59545 WT20     446      MECN     H11      HGA3     0.090000        1.0080           0
     59546 WT20     446      MECN     H12      HGA3     0.090000        1.0080           0
     59547 WT20     446      MECN     H13      HGA3     0.090000        1.0080           0
     59548 WT20     446      MECN     C2       CG1N1    0.360000       12.0110           0
     59549 WT20     446      MECN     N3       NG1T1   -0.460000       14.0070           0
     59550 WT20     448      MECN     C1       CG331   -0.170000       12.0110           0
     59551 WT20     448      MECN     H11      HGA3     0.090000        1.0080           0
     59552 WT20     448      MECN     H12      HGA3     0.090000        1.0080           0
     59553 WT20     448      MECN     H13      HGA3     0.090000        1.0080           0
     59554 WT20     448      MECN     C2       CG1N1    0.360000       12.0110           0
     59555 WT20     448      MECN     N3       NG1T1   -0.460000       14.0070           0
     59556 WT20     450      MECN     C1       CG331   -0.170000       12.0110           0
     59557 WT20     450      MECN     H11      HGA3     0.090000        1.0080           0
     59558 WT20     450      MECN     H12      HGA3     0.090000        1.0080           0
     59559 WT20     450      MECN     H13      HGA3     0.090000        1.0080           0
     59560 WT20     450      MECN     C2       CG1N1    0.360000       12.0110           0
     59561 WT20     450      MECN     N3       NG1T1   -0.460000       14.0070           0
     59562 WT20     452      MECN     C1       CG331   -0.170000       12.0110           0
     59563 WT20     452      MECN     H11      HGA3     0.090000        1.0080           0
     59564 WT20     452      MECN     H12      HGA3     0.090000        1.0080           0
     59565 WT20     452      MECN     H13      HGA3     0.090000        1.0080           0
     59566 WT20     452      MECN     C2       CG1N1    0.360000       12.0110           0
     59567 WT20     452      MECN     N3       NG1T1   -0.460000       14.0070           0
     59568 WT20     458      MECN     C1       CG331   -0.170000       12.0110           0
     59569 WT20     458      MECN     H11      HGA3     0.090000        1.0080           0
     59570 WT20     458      MECN     H12      HGA3     0.090000        1.0080           0
     59571 WT20     458      MECN     H13      HGA3     0.090000        1.0080           0
     59572 WT20     458      MECN     C2       CG1N1    0.360000       12.0110           0
     59573 WT20     458      MECN     N3       NG1T1   -0.460000       14.0070           0
     59574 WT20     460      MECN     C1       CG331   -0.170000       12.0110           0
     59575 WT20     460      MECN     H11      HGA3     0.090000        1.0080           0
     59576 WT20     460      MECN     H12      HGA3     0.090000        1.0080           0
     59577 WT20     460      MECN     H13      HGA3     0.090000        1.0080           0
     59578 WT20     460      MECN     C2       CG1N1    0.360000       12.0110           0
     59579 WT20     460      MECN     N3       NG1T1   -0.460000       14.0070           0
     59580 WT20     461      MECN     C1       CG331   -0.170000       12.0110           0
     59581 WT20     461      MECN     H11      HGA3     0.090000        1.0080           0
     59582 WT20     461      MECN     H12      HGA3     0.090000        1.0080           0
     59583 WT20     461      MECN     H13      HGA3     0.090000        1.0080           0
     59584 WT20     461      MECN     C2       CG1N1    0.360000       12.0110           0
     59585 WT20     461      MECN     N3       NG1T1   -0.460000       14.0070           0
     59586 WT20     467      MECN     C1       CG331   -0.170000       12.0110           0
     59587 WT20     467      MECN     H11      HGA3     0.090000        1.0080           0
     59588 WT20     467      MECN     H12      HGA3     0.090000        1.0080           0
     59589 WT20     467      MECN     H13      HGA3     0.090000        1.0080           0
     59590 WT20     467      MECN     C2       CG1N1    0.360000       12.0110           0
     59591 WT20     467      MECN     N3       NG1T1   -0.460000       14.0070           0
     59592 WT20     468      MECN     C1       CG331   -0.170000       12.0110           0
     59593 WT20     468      MECN     H11      HGA3     0.090000        1.0080           0
     59594 WT20     468      MECN     H12      HGA3     0.090000        1.0080           0
     59595 WT20     468      MECN     H13      HGA3     0.090000        1.0080           0
     59596 WT20     468      MECN     C2       CG1N1    0.360000       12.0110           0
     59597 WT20     468      MECN     N3       NG1T1   -0.460000       14.0070           0
     59598 WT20     470      MECN     C1       CG331   -0.170000       12.0110           0
     59599 WT20     470      MECN     H11      HGA3     0.090000        1.0080           0
     59600 WT20     470      MECN     H12      HGA3     0.090000        1.0080           0
     59601 WT20     470      MECN     H13      HGA3     0.090000        1.0080           0
     59602 WT20     470      MECN     C2       CG1N1    0.360000       12.0110           0
     59603 WT20     470      MECN     N3       NG1T1   -0.460000       14.0070           0
     59604 WT20     471      MECN     C1       CG331   -0.170000       12.0110           0
     59605 WT20     471      MECN     H11      HGA3     0.090000        1.0080           0
     59606 WT20     471      MECN     H12      HGA3     0.090000        1.0080           0
     59607 WT20     471      MECN     H13      HGA3     0.090000        1.0080           0
     59608 WT20     471      MECN     C2       CG1N1    0.360000       12.0110           0
     59609 WT20     471      MECN     N3       NG1T1   -0.460000       14.0070           0
     59610 WT20     476      MECN     C1       CG331   -0.170000       12.0110           0
     59611 WT20     476      MECN     H11      HGA3     0.090000        1.0080           0
     59612 WT20     476      MECN     H12      HGA3     0.090000        1.0080           0
     59613 WT20     476      MECN     H13      HGA3     0.090000        1.0080           0
     59614 WT20     476      MECN     C2       CG1N1    0.360000       12.0110           0
     59615 WT20     476      MECN     N3       NG1T1   -0.460000       14.0070           0
     59616 WT20     482      MECN     C1       CG331   -0.170000       12.0110           0
     59617 WT20     482      MECN     H11      HGA3     0.090000        1.0080           0
     59618 WT20     482      MECN     H12      HGA3     0.090000        1.0080           0
     59619 WT20     482      MECN     H13      HGA3     0.090000        1.0080           0
     59620 WT20     482      MECN     C2       CG1N1    0.360000       12.0110           0
     59621 WT20     482      MECN     N3       NG1T1   -0.460000       14.0070           0
     59622 WT20     485      MECN     C1       CG331   -0.170000       12.0110           0
     59623 WT20     485      MECN     H11      HGA3     0.090000        1.0080           0
     59624 WT20     485      MECN     H12      HGA3     0.090000        1.0080           0
     59625 WT20     485      MECN     H13      HGA3     0.090000        1.0080           0
     59626 WT20     485      MECN     C2       CG1N1    0.360000       12.0110           0
     59627 WT20     485      MECN     N3       NG1T1   -0.460000       14.0070           0
     59628 WT20     489      MECN     C1       CG331   -0.170000       12.0110           0
     59629 WT20     489      MECN     H11      HGA3     0.090000        1.0080           0
     59630 WT20     489      MECN     H12      HGA3     0.090000        1.0080           0
     59631 WT20     489      MECN     H13      HGA3     0.090000        1.0080           0
     59632 WT20     489      MECN     C2       CG1N1    0.360000       12.0110           0
     59633 WT20     489      MECN     N3       NG1T1   -0.460000       14.0070           0
     59634 WT20     490      MECN     C1       CG331   -0.170000       12.0110           0
     59635 WT20     490      MECN     H11      HGA3     0.090000        1.0080           0
     59636 WT20     490      MECN     H12      HGA3     0.090000        1.0080           0
     59637 WT20     490      MECN     H13      HGA3     0.090000        1.0080           0
     59638 WT20     490      MECN     C2       CG1N1    0.360000       12.0110           0
     59639 WT20     490      MECN     N3       NG1T1   -0.460000       14.0070           0
     59640 WT20     493      MECN     C1       CG331   -0.170000       12.0110           0
     59641 WT20     493      MECN     H11      HGA3     0.090000        1.0080           0
     59642 WT20     493      MECN     H12      HGA3     0.090000        1.0080           0
     59643 WT20     493      MECN     H13      HGA3     0.090000        1.0080           0
     59644 WT20     493      MECN     C2       CG1N1    0.360000       12.0110           0
     59645 WT20     493      MECN     N3       NG1T1   -0.460000       14.0070           0
     59646 WT20     495      MECN     C1       CG331   -0.170000       12.0110           0
     59647 WT20     495      MECN     H11      HGA3     0.090000        1.0080           0
     59648 WT20     495      MECN     H12      HGA3     0.090000        1.0080           0
     59649 WT20     495      MECN     H13      HGA3     0.090000        1.0080           0
     59650 WT20     495      MECN     C2       CG1N1    0.360000       12.0110           0
     59651 WT20     495      MECN     N3       NG1T1   -0.460000       14.0070           0
     59652 WT20     498      MECN     C1       CG331   -0.170000       12.0110           0
     59653 WT20     498      MECN     H11      HGA3     0.090000        1.0080           0
     59654 WT20     498      MECN     H12      HGA3     0.090000        1.0080           0
     59655 WT20     498      MECN     H13      HGA3     0.090000        1.0080           0
     59656 WT20     498      MECN     C2       CG1N1    0.360000       12.0110           0
     59657 WT20     498      MECN     N3       NG1T1   -0.460000       14.0070           0
     59658 WT20     499      MECN     C1       CG331   -0.170000       12.0110           0
     59659 WT20     499      MECN     H11      HGA3     0.090000        1.0080           0
     59660 WT20     499      MECN     H12      HGA3     0.090000        1.0080           0
     59661 WT20     499      MECN     H13      HGA3     0.090000        1.0080           0
     59662 WT20     499      MECN     C2       CG1N1    0.360000       12.0110           0
     59663 WT20     499      MECN     N3       NG1T1   -0.460000       14.0070           0
     59664 WT20     501      MECN     C1       CG331   -0.170000       12.0110           0
     59665 WT20     501      MECN     H11      HGA3     0.090000        1.0080           0
     59666 WT20     501      MECN     H12      HGA3     0.090000        1.0080           0
     59667 WT20     501      MECN     H13      HGA3     0.090000        1.0080           0
     59668 WT20     501      MECN     C2       CG1N1    0.360000       12.0110           0
     59669 WT20     501      MECN     N3       NG1T1   -0.460000       14.0070           0
     59670 WT20     504      MECN     C1       CG331   -0.170000       12.0110           0
     59671 WT20     504      MECN     H11      HGA3     0.090000        1.0080           0
     59672 WT20     504      MECN     H12      HGA3     0.090000        1.0080           0
     59673 WT20     504      MECN     H13      HGA3     0.090000        1.0080           0
     59674 WT20     504      MECN     C2       CG1N1    0.360000       12.0110           0
     59675 WT20     504      MECN     N3       NG1T1   -0.460000       14.0070           0
     59676 WT20     506      MECN     C1       CG331   -0.170000       12.0110           0
     59677 WT20     506      MECN     H11      HGA3     0.090000        1.0080           0
     59678 WT20     506      MECN     H12      HGA3     0.090000        1.0080           0
     59679 WT20     506      MECN     H13      HGA3     0.090000        1.0080           0
     59680 WT20     506      MECN     C2       CG1N1    0.360000       12.0110           0
     59681 WT20     506      MECN     N3       NG1T1   -0.460000       14.0070           0
     59682 WT20     507      MECN     C1       CG331   -0.170000       12.0110           0
     59683 WT20     507      MECN     H11      HGA3     0.090000        1.0080           0
     59684 WT20     507      MECN     H12      HGA3     0.090000        1.0080           0
     59685 WT20     507      MECN     H13      HGA3     0.090000        1.0080           0
     59686 WT20     507      MECN     C2       CG1N1    0.360000       12.0110           0
     59687 WT20     507      MECN     N3       NG1T1   -0.460000       14.0070           0
     59688 WT20     509      MECN     C1       CG331   -0.170000       12.0110           0
     59689 WT20     509      MECN     H11      HGA3     0.090000        1.0080           0
     59690 WT20     509      MECN     H12      HGA3     0.090000        1.0080           0
     59691 WT20     509      MECN     H13      HGA3     0.090000        1.0080           0
     59692 WT20     509      MECN     C2       CG1N1    0.360000       12.0110           0
     59693 WT20     509      MECN     N3       NG1T1   -0.460000       14.0070           0
     59694 WT20     520      MECN     C1       CG331   -0.170000       12.0110           0
     59695 WT20     520      MECN     H11      HGA3     0.090000        1.0080           0
     59696 WT20     520      MECN     H12      HGA3     0.090000        1.0080           0
     59697 WT20     520      MECN     H13      HGA3     0.090000        1.0080           0
     59698 WT20     520      MECN     C2       CG1N1    0.360000       12.0110           0
     59699 WT20     520      MECN     N3       NG1T1   -0.460000       14.0070           0
     59700 WT20     521      MECN     C1       CG331   -0.170000       12.0110           0
     59701 WT20     521      MECN     H11      HGA3     0.090000        1.0080           0
     59702 WT20     521      MECN     H12      HGA3     0.090000        1.0080           0
     59703 WT20     521      MECN     H13      HGA3     0.090000        1.0080           0
     59704 WT20     521      MECN     C2       CG1N1    0.360000       12.0110           0
     59705 WT20     521      MECN     N3       NG1T1   -0.460000       14.0070           0
     59706 WT20     522      MECN     C1       CG331   -0.170000       12.0110           0
     59707 WT20     522      MECN     H11      HGA3     0.090000        1.0080           0
     59708 WT20     522      MECN     H12      HGA3     0.090000        1.0080           0
     59709 WT20     522      MECN     H13      HGA3     0.090000        1.0080           0
     59710 WT20     522      MECN     C2       CG1N1    0.360000       12.0110           0
     59711 WT20     522      MECN     N3       NG1T1   -0.460000       14.0070           0
     59712 WT20     523      MECN     C1       CG331   -0.170000       12.0110           0
     59713 WT20     523      MECN     H11      HGA3     0.090000        1.0080           0
     59714 WT20     523      MECN     H12      HGA3     0.090000        1.0080           0
     59715 WT20     523      MECN     H13      HGA3     0.090000        1.0080           0
     59716 WT20     523      MECN     C2       CG1N1    0.360000       12.0110           0
     59717 WT20     523      MECN     N3       NG1T1   -0.460000       14.0070           0
     59718 WT20     528      MECN     C1       CG331   -0.170000       12.0110           0
     59719 WT20     528      MECN     H11      HGA3     0.090000        1.0080           0
     59720 WT20     528      MECN     H12      HGA3     0.090000        1.0080           0
     59721 WT20     528      MECN     H13      HGA3     0.090000        1.0080           0
     59722 WT20     528      MECN     C2       CG1N1    0.360000       12.0110           0
     59723 WT20     528      MECN     N3       NG1T1   -0.460000       14.0070           0
     59724 WT20     529      MECN     C1       CG331   -0.170000       12.0110           0
     59725 WT20     529      MECN     H11      HGA3     0.090000        1.0080           0
     59726 WT20     529      MECN     H12      HGA3     0.090000        1.0080           0
     59727 WT20     529      MECN     H13      HGA3     0.090000        1.0080           0
     59728 WT20     529      MECN     C2       CG1N1    0.360000       12.0110           0
     59729 WT20     529      MECN     N3       NG1T1   -0.460000       14.0070           0
     59730 WT20     530      MECN     C1       CG331   -0.170000       12.0110           0
     59731 WT20     530      MECN     H11      HGA3     0.090000        1.0080           0
     59732 WT20     530      MECN     H12      HGA3     0.090000        1.0080           0
     59733 WT20     530      MECN     H13      HGA3     0.090000        1.0080           0
     59734 WT20     530      MECN     C2       CG1N1    0.360000       12.0110           0
     59735 WT20     530      MECN     N3       NG1T1   -0.460000       14.0070           0
     59736 WT20     531      MECN     C1       CG331   -0.170000       12.0110           0
     59737 WT20     531      MECN     H11      HGA3     0.090000        1.0080           0
     59738 WT20     531      MECN     H12      HGA3     0.090000        1.0080           0
     59739 WT20     531      MECN     H13      HGA3     0.090000        1.0080           0
     59740 WT20     531      MECN     C2       CG1N1    0.360000       12.0110           0
     59741 WT20     531      MECN     N3       NG1T1   -0.460000       14.0070           0
     59742 WT20     537      MECN     C1       CG331   -0.170000       12.0110           0
     59743 WT20     537      MECN     H11      HGA3     0.090000        1.0080           0
     59744 WT20     537      MECN     H12      HGA3     0.090000        1.0080           0
     59745 WT20     537      MECN     H13      HGA3     0.090000        1.0080           0
     59746 WT20     537      MECN     C2       CG1N1    0.360000       12.0110           0
     59747 WT20     537      MECN     N3       NG1T1   -0.460000       14.0070           0
     59748 WT20     544      MECN     C1       CG331   -0.170000       12.0110           0
     59749 WT20     544      MECN     H11      HGA3     0.090000        1.0080           0
     59750 WT20     544      MECN     H12      HGA3     0.090000        1.0080           0
     59751 WT20     544      MECN     H13      HGA3     0.090000        1.0080           0
     59752 WT20     544      MECN     C2       CG1N1    0.360000       12.0110           0
     59753 WT20     544      MECN     N3       NG1T1   -0.460000       14.0070           0
     59754 WT20     545      MECN     C1       CG331   -0.170000       12.0110           0
     59755 WT20     545      MECN     H11      HGA3     0.090000        1.0080           0
     59756 WT20     545      MECN     H12      HGA3     0.090000        1.0080           0
     59757 WT20     545      MECN     H13      HGA3     0.090000        1.0080           0
     59758 WT20     545      MECN     C2       CG1N1    0.360000       12.0110           0
     59759 WT20     545      MECN     N3       NG1T1   -0.460000       14.0070           0
     59760 WT20     547      MECN     C1       CG331   -0.170000       12.0110           0
     59761 WT20     547      MECN     H11      HGA3     0.090000        1.0080           0
     59762 WT20     547      MECN     H12      HGA3     0.090000        1.0080           0
     59763 WT20     547      MECN     H13      HGA3     0.090000        1.0080           0
     59764 WT20     547      MECN     C2       CG1N1    0.360000       12.0110           0
     59765 WT20     547      MECN     N3       NG1T1   -0.460000       14.0070           0
     59766 WT20     553      MECN     C1       CG331   -0.170000       12.0110           0
     59767 WT20     553      MECN     H11      HGA3     0.090000        1.0080           0
     59768 WT20     553      MECN     H12      HGA3     0.090000        1.0080           0
     59769 WT20     553      MECN     H13      HGA3     0.090000        1.0080           0
     59770 WT20     553      MECN     C2       CG1N1    0.360000       12.0110           0
     59771 WT20     553      MECN     N3       NG1T1   -0.460000       14.0070           0
     59772 WT20     561      MECN     C1       CG331   -0.170000       12.0110           0
     59773 WT20     561      MECN     H11      HGA3     0.090000        1.0080           0
     59774 WT20     561      MECN     H12      HGA3     0.090000        1.0080           0
     59775 WT20     561      MECN     H13      HGA3     0.090000        1.0080           0
     59776 WT20     561      MECN     C2       CG1N1    0.360000       12.0110           0
     59777 WT20     561      MECN     N3       NG1T1   -0.460000       14.0070           0
     59778 WT20     571      MECN     C1       CG331   -0.170000       12.0110           0
     59779 WT20     571      MECN     H11      HGA3     0.090000        1.0080           0
     59780 WT20     571      MECN     H12      HGA3     0.090000        1.0080           0
     59781 WT20     571      MECN     H13      HGA3     0.090000        1.0080           0
     59782 WT20     571      MECN     C2       CG1N1    0.360000       12.0110           0
     59783 WT20     571      MECN     N3       NG1T1   -0.460000       14.0070           0
     59784 WT20     573      MECN     C1       CG331   -0.170000       12.0110           0
     59785 WT20     573      MECN     H11      HGA3     0.090000        1.0080           0
     59786 WT20     573      MECN     H12      HGA3     0.090000        1.0080           0
     59787 WT20     573      MECN     H13      HGA3     0.090000        1.0080           0
     59788 WT20     573      MECN     C2       CG1N1    0.360000       12.0110           0
     59789 WT20     573      MECN     N3       NG1T1   -0.460000       14.0070           0
     59790 WT20     576      MECN     C1       CG331   -0.170000       12.0110           0
     59791 WT20     576      MECN     H11      HGA3     0.090000        1.0080           0
     59792 WT20     576      MECN     H12      HGA3     0.090000        1.0080           0
     59793 WT20     576      MECN     H13      HGA3     0.090000        1.0080           0
     59794 WT20     576      MECN     C2       CG1N1    0.360000       12.0110           0
     59795 WT20     576      MECN     N3       NG1T1   -0.460000       14.0070           0
     59796 WT20     582      MECN     C1       CG331   -0.170000       12.0110           0
     59797 WT20     582      MECN     H11      HGA3     0.090000        1.0080           0
     59798 WT20     582      MECN     H12      HGA3     0.090000        1.0080           0
     59799 WT20     582      MECN     H13      HGA3     0.090000        1.0080           0
     59800 WT20     582      MECN     C2       CG1N1    0.360000       12.0110           0
     59801 WT20     582      MECN     N3       NG1T1   -0.460000       14.0070           0
     59802 WT20     583      MECN     C1       CG331   -0.170000       12.0110           0
     59803 WT20     583      MECN     H11      HGA3     0.090000        1.0080           0
     59804 WT20     583      MECN     H12      HGA3     0.090000        1.0080           0
     59805 WT20     583      MECN     H13      HGA3     0.090000        1.0080           0
     59806 WT20     583      MECN     C2       CG1N1    0.360000       12.0110           0
     59807 WT20     583      MECN     N3       NG1T1   -0.460000       14.0070           0
     59808 WT20     584      MECN     C1       CG331   -0.170000       12.0110           0
     59809 WT20     584      MECN     H11      HGA3     0.090000        1.0080           0
     59810 WT20     584      MECN     H12      HGA3     0.090000        1.0080           0
     59811 WT20     584      MECN     H13      HGA3     0.090000        1.0080           0
     59812 WT20     584      MECN     C2       CG1N1    0.360000       12.0110           0
     59813 WT20     584      MECN     N3       NG1T1   -0.460000       14.0070           0
     59814 WT20     589      MECN     C1       CG331   -0.170000       12.0110           0
     59815 WT20     589      MECN     H11      HGA3     0.090000        1.0080           0
     59816 WT20     589      MECN     H12      HGA3     0.090000        1.0080           0
     59817 WT20     589      MECN     H13      HGA3     0.090000        1.0080           0
     59818 WT20     589      MECN     C2       CG1N1    0.360000       12.0110           0
     59819 WT20     589      MECN     N3       NG1T1   -0.460000       14.0070           0
     59820 WT20     591      MECN     C1       CG331   -0.170000       12.0110           0
     59821 WT20     591      MECN     H11      HGA3     0.090000        1.0080           0
     59822 WT20     591      MECN     H12      HGA3     0.090000        1.0080           0
     59823 WT20     591      MECN     H13      HGA3     0.090000        1.0080           0
     59824 WT20     591      MECN     C2       CG1N1    0.360000       12.0110           0
     59825 WT20     591      MECN     N3       NG1T1   -0.460000       14.0070           0
     59826 WT20     592      MECN     C1       CG331   -0.170000       12.0110           0
     59827 WT20     592      MECN     H11      HGA3     0.090000        1.0080           0
     59828 WT20     592      MECN     H12      HGA3     0.090000        1.0080           0
     59829 WT20     592      MECN     H13      HGA3     0.090000        1.0080           0
     59830 WT20     592      MECN     C2       CG1N1    0.360000       12.0110           0
     59831 WT20     592      MECN     N3       NG1T1   -0.460000       14.0070           0
     59832 WT20     593      MECN     C1       CG331   -0.170000       12.0110           0
     59833 WT20     593      MECN     H11      HGA3     0.090000        1.0080           0
     59834 WT20     593      MECN     H12      HGA3     0.090000        1.0080           0
     59835 WT20     593      MECN     H13      HGA3     0.090000        1.0080           0
     59836 WT20     593      MECN     C2       CG1N1    0.360000       12.0110           0
     59837 WT20     593      MECN     N3       NG1T1   -0.460000       14.0070           0
     59838 WT20     598      MECN     C1       CG331   -0.170000       12.0110           0
     59839 WT20     598      MECN     H11      HGA3     0.090000        1.0080           0
     59840 WT20     598      MECN     H12      HGA3     0.090000        1.0080           0
     59841 WT20     598      MECN     H13      HGA3     0.090000        1.0080           0
     59842 WT20     598      MECN     C2       CG1N1    0.360000       12.0110           0
     59843 WT20     598      MECN     N3       NG1T1   -0.460000       14.0070           0
     59844 WT20     599      MECN     C1       CG331   -0.170000       12.0110           0
     59845 WT20     599      MECN     H11      HGA3     0.090000        1.0080           0
     59846 WT20     599      MECN     H12      HGA3     0.090000        1.0080           0
     59847 WT20     599      MECN     H13      HGA3     0.090000        1.0080           0
     59848 WT20     599      MECN     C2       CG1N1    0.360000       12.0110           0
     59849 WT20     599      MECN     N3       NG1T1   -0.460000       14.0070           0
     59850 WT20     607      MECN     C1       CG331   -0.170000       12.0110           0
     59851 WT20     607      MECN     H11      HGA3     0.090000        1.0080           0
     59852 WT20     607      MECN     H12      HGA3     0.090000        1.0080           0
     59853 WT20     607      MECN     H13      HGA3     0.090000        1.0080           0
     59854 WT20     607      MECN     C2       CG1N1    0.360000       12.0110           0
     59855 WT20     607      MECN     N3       NG1T1   -0.460000       14.0070           0
     59856 WT20     612      MECN     C1       CG331   -0.170000       12.0110           0
     59857 WT20     612      MECN     H11      HGA3     0.090000        1.0080           0
     59858 WT20     612      MECN     H12      HGA3     0.090000        1.0080           0
     59859 WT20     612      MECN     H13      HGA3     0.090000        1.0080           0
     59860 WT20     612      MECN     C2       CG1N1    0.360000       12.0110           0
     59861 WT20     612      MECN     N3       NG1T1   -0.460000       14.0070           0
     59862 WT20     620      MECN     C1       CG331   -0.170000       12.0110           0
     59863 WT20     620      MECN     H11      HGA3     0.090000        1.0080           0
     59864 WT20     620      MECN     H12      HGA3     0.090000        1.0080           0
     59865 WT20     620      MECN     H13      HGA3     0.090000        1.0080           0
     59866 WT20     620      MECN     C2       CG1N1    0.360000       12.0110           0
     59867 WT20     620      MECN     N3       NG1T1   -0.460000       14.0070           0
     59868 WT20     624      MECN     C1       CG331   -0.170000       12.0110           0
     59869 WT20     624      MECN     H11      HGA3     0.090000        1.0080           0
     59870 WT20     624      MECN     H12      HGA3     0.090000        1.0080           0
     59871 WT20     624      MECN     H13      HGA3     0.090000        1.0080           0
     59872 WT20     624      MECN     C2       CG1N1    0.360000       12.0110           0
     59873 WT20     624      MECN     N3       NG1T1   -0.460000       14.0070           0
     59874 WT20     627      MECN     C1       CG331   -0.170000       12.0110           0
     59875 WT20     627      MECN     H11      HGA3     0.090000        1.0080           0
     59876 WT20     627      MECN     H12      HGA3     0.090000        1.0080           0
     59877 WT20     627      MECN     H13      HGA3     0.090000        1.0080           0
     59878 WT20     627      MECN     C2       CG1N1    0.360000       12.0110           0
     59879 WT20     627      MECN     N3       NG1T1   -0.460000       14.0070           0
     59880 WT20     628      MECN     C1       CG331   -0.170000       12.0110           0
     59881 WT20     628      MECN     H11      HGA3     0.090000        1.0080           0
     59882 WT20     628      MECN     H12      HGA3     0.090000        1.0080           0
     59883 WT20     628      MECN     H13      HGA3     0.090000        1.0080           0
     59884 WT20     628      MECN     C2       CG1N1    0.360000       12.0110           0
     59885 WT20     628      MECN     N3       NG1T1   -0.460000       14.0070           0
     59886 WT20     632      MECN     C1       CG331   -0.170000       12.0110           0
     59887 WT20     632      MECN     H11      HGA3     0.090000        1.0080           0
     59888 WT20     632      MECN     H12      HGA3     0.090000        1.0080           0
     59889 WT20     632      MECN     H13      HGA3     0.090000        1.0080           0
     59890 WT20     632      MECN     C2       CG1N1    0.360000       12.0110           0
     59891 WT20     632      MECN     N3       NG1T1   -0.460000       14.0070           0
     59892 WT20     633      MECN     C1       CG331   -0.170000       12.0110           0
     59893 WT20     633      MECN     H11      HGA3     0.090000        1.0080           0
     59894 WT20     633      MECN     H12      HGA3     0.090000        1.0080           0
     59895 WT20     633      MECN     H13      HGA3     0.090000        1.0080           0
     59896 WT20     633      MECN     C2       CG1N1    0.360000       12.0110           0
     59897 WT20     633      MECN     N3       NG1T1   -0.460000       14.0070           0
     59898 WT20     636      MECN     C1       CG331   -0.170000       12.0110           0
     59899 WT20     636      MECN     H11      HGA3     0.090000        1.0080           0
     59900 WT20     636      MECN     H12      HGA3     0.090000        1.0080           0
     59901 WT20     636      MECN     H13      HGA3     0.090000        1.0080           0
     59902 WT20     636      MECN     C2       CG1N1    0.360000       12.0110           0
     59903 WT20     636      MECN     N3       NG1T1   -0.460000       14.0070           0
     59904 WT20     637      MECN     C1       CG331   -0.170000       12.0110           0
     59905 WT20     637      MECN     H11      HGA3     0.090000        1.0080           0
     59906 WT20     637      MECN     H12      HGA3     0.090000        1.0080           0
     59907 WT20     637      MECN     H13      HGA3     0.090000        1.0080           0
     59908 WT20     637      MECN     C2       CG1N1    0.360000       12.0110           0
     59909 WT20     637      MECN     N3       NG1T1   -0.460000       14.0070           0
     59910 WT20     639      MECN     C1       CG331   -0.170000       12.0110           0
     59911 WT20     639      MECN     H11      HGA3     0.090000        1.0080           0
     59912 WT20     639      MECN     H12      HGA3     0.090000        1.0080           0
     59913 WT20     639      MECN     H13      HGA3     0.090000        1.0080           0
     59914 WT20     639      MECN     C2       CG1N1    0.360000       12.0110           0
     59915 WT20     639      MECN     N3       NG1T1   -0.460000       14.0070           0
     59916 WT20     647      MECN     C1       CG331   -0.170000       12.0110           0
     59917 WT20     647      MECN     H11      HGA3     0.090000        1.0080           0
     59918 WT20     647      MECN     H12      HGA3     0.090000        1.0080           0
     59919 WT20     647      MECN     H13      HGA3     0.090000        1.0080           0
     59920 WT20     647      MECN     C2       CG1N1    0.360000       12.0110           0
     59921 WT20     647      MECN     N3       NG1T1   -0.460000       14.0070           0
     59922 WT20     649      MECN     C1       CG331   -0.170000       12.0110           0
     59923 WT20     649      MECN     H11      HGA3     0.090000        1.0080           0
     59924 WT20     649      MECN     H12      HGA3     0.090000        1.0080           0
     59925 WT20     649      MECN     H13      HGA3     0.090000        1.0080           0
     59926 WT20     649      MECN     C2       CG1N1    0.360000       12.0110           0
     59927 WT20     649      MECN     N3       NG1T1   -0.460000       14.0070           0
     59928 WT20     650      MECN     C1       CG331   -0.170000       12.0110           0
     59929 WT20     650      MECN     H11      HGA3     0.090000        1.0080           0
     59930 WT20     650      MECN     H12      HGA3     0.090000        1.0080           0
     59931 WT20     650      MECN     H13      HGA3     0.090000        1.0080           0
     59932 WT20     650      MECN     C2       CG1N1    0.360000       12.0110           0
     59933 WT20     650      MECN     N3       NG1T1   -0.460000       14.0070           0
     59934 WT20     652      MECN     C1       CG331   -0.170000       12.0110           0
     59935 WT20     652      MECN     H11      HGA3     0.090000        1.0080           0
     59936 WT20     652      MECN     H12      HGA3     0.090000        1.0080           0
     59937 WT20     652      MECN     H13      HGA3     0.090000        1.0080           0
     59938 WT20     652      MECN     C2       CG1N1    0.360000       12.0110           0
     59939 WT20     652      MECN     N3       NG1T1   -0.460000       14.0070           0
     59940 WT20     653      MECN     C1       CG331   -0.170000       12.0110           0
     59941 WT20     653      MECN     H11      HGA3     0.090000        1.0080           0
     59942 WT20     653      MECN     H12      HGA3     0.090000        1.0080           0
     59943 WT20     653      MECN     H13      HGA3     0.090000        1.0080           0
     59944 WT20     653      MECN     C2       CG1N1    0.360000       12.0110           0
     59945 WT20     653      MECN     N3       NG1T1   -0.460000       14.0070           0
     59946 WT20     665      MECN     C1       CG331   -0.170000       12.0110           0
     59947 WT20     665      MECN     H11      HGA3     0.090000        1.0080           0
     59948 WT20     665      MECN     H12      HGA3     0.090000        1.0080           0
     59949 WT20     665      MECN     H13      HGA3     0.090000        1.0080           0
     59950 WT20     665      MECN     C2       CG1N1    0.360000       12.0110           0
     59951 WT20     665      MECN     N3       NG1T1   -0.460000       14.0070           0
     59952 WT20     667      MECN     C1       CG331   -0.170000       12.0110           0
     59953 WT20     667      MECN     H11      HGA3     0.090000        1.0080           0
     59954 WT20     667      MECN     H12      HGA3     0.090000        1.0080           0
     59955 WT20     667      MECN     H13      HGA3     0.090000        1.0080           0
     59956 WT20     667      MECN     C2       CG1N1    0.360000       12.0110           0
     59957 WT20     667      MECN     N3       NG1T1   -0.460000       14.0070           0
     59958 WT20     673      MECN     C1       CG331   -0.170000       12.0110           0
     59959 WT20     673      MECN     H11      HGA3     0.090000        1.0080           0
     59960 WT20     673      MECN     H12      HGA3     0.090000        1.0080           0
     59961 WT20     673      MECN     H13      HGA3     0.090000        1.0080           0
     59962 WT20     673      MECN     C2       CG1N1    0.360000       12.0110           0
     59963 WT20     673      MECN     N3       NG1T1   -0.460000       14.0070           0
     59964 WT20     679      MECN     C1       CG331   -0.170000       12.0110           0
     59965 WT20     679      MECN     H11      HGA3     0.090000        1.0080           0
     59966 WT20     679      MECN     H12      HGA3     0.090000        1.0080           0
     59967 WT20     679      MECN     H13      HGA3     0.090000        1.0080           0
     59968 WT20     679      MECN     C2       CG1N1    0.360000       12.0110           0
     59969 WT20     679      MECN     N3       NG1T1   -0.460000       14.0070           0
     59970 WT20     683      MECN     C1       CG331   -0.170000       12.0110           0
     59971 WT20     683      MECN     H11      HGA3     0.090000        1.0080           0
     59972 WT20     683      MECN     H12      HGA3     0.090000        1.0080           0
     59973 WT20     683      MECN     H13      HGA3     0.090000        1.0080           0
     59974 WT20     683      MECN     C2       CG1N1    0.360000       12.0110           0
     59975 WT20     683      MECN     N3       NG1T1   -0.460000       14.0070           0
     59976 WT20     684      MECN     C1       CG331   -0.170000       12.0110           0
     59977 WT20     684      MECN     H11      HGA3     0.090000        1.0080           0
     59978 WT20     684      MECN     H12      HGA3     0.090000        1.0080           0
     59979 WT20     684      MECN     H13      HGA3     0.090000        1.0080           0
     59980 WT20     684      MECN     C2       CG1N1    0.360000       12.0110           0
     59981 WT20     684      MECN     N3       NG1T1   -0.460000       14.0070           0
     59982 WT20     686      MECN     C1       CG331   -0.170000       12.0110           0
     59983 WT20     686      MECN     H11      HGA3     0.090000        1.0080           0
     59984 WT20     686      MECN     H12      HGA3     0.090000        1.0080           0
     59985 WT20     686      MECN     H13      HGA3     0.090000        1.0080           0
     59986 WT20     686      MECN     C2       CG1N1    0.360000       12.0110           0
     59987 WT20     686      MECN     N3       NG1T1   -0.460000       14.0070           0
     59988 WT20     692      MECN     C1       CG331   -0.170000       12.0110           0
     59989 WT20     692      MECN     H11      HGA3     0.090000        1.0080           0
     59990 WT20     692      MECN     H12      HGA3     0.090000        1.0080           0
     59991 WT20     692      MECN     H13      HGA3     0.090000        1.0080           0
     59992 WT20     692      MECN     C2       CG1N1    0.360000       12.0110           0
     59993 WT20     692      MECN     N3       NG1T1   -0.460000       14.0070           0
     59994 WT20     694      MECN     C1       CG331   -0.170000       12.0110           0
     59995 WT20     694      MECN     H11      HGA3     0.090000        1.0080           0
     59996 WT20     694      MECN     H12      HGA3     0.090000        1.0080           0
     59997 WT20     694      MECN     H13      HGA3     0.090000        1.0080           0
     59998 WT20     694      MECN     C2       CG1N1    0.360000       12.0110           0
     59999 WT20     694      MECN     N3       NG1T1   -0.460000       14.0070           0
     60000 WT20     696      MECN     C1       CG331   -0.170000       12.0110           0
     60001 WT20     696      MECN     H11      HGA3     0.090000        1.0080           0
     60002 WT20     696      MECN     H12      HGA3     0.090000        1.0080           0
     60003 WT20     696      MECN     H13      HGA3     0.090000        1.0080           0
     60004 WT20     696      MECN     C2       CG1N1    0.360000       12.0110           0
     60005 WT20     696      MECN     N3       NG1T1   -0.460000       14.0070           0
     60006 WT20     699      MECN     C1       CG331   -0.170000       12.0110           0
     60007 WT20     699      MECN     H11      HGA3     0.090000        1.0080           0
     60008 WT20     699      MECN     H12      HGA3     0.090000        1.0080           0
     60009 WT20     699      MECN     H13      HGA3     0.090000        1.0080           0
     60010 WT20     699      MECN     C2       CG1N1    0.360000       12.0110           0
     60011 WT20     699      MECN     N3       NG1T1   -0.460000       14.0070           0
     60012 WT20     701      MECN     C1       CG331   -0.170000       12.0110           0
     60013 WT20     701      MECN     H11      HGA3     0.090000        1.0080           0
     60014 WT20     701      MECN     H12      HGA3     0.090000        1.0080           0
     60015 WT20     701      MECN     H13      HGA3     0.090000        1.0080           0
     60016 WT20     701      MECN     C2       CG1N1    0.360000       12.0110           0
     60017 WT20     701      MECN     N3       NG1T1   -0.460000       14.0070           0
     60018 WT20     704      MECN     C1       CG331   -0.170000       12.0110           0
     60019 WT20     704      MECN     H11      HGA3     0.090000        1.0080           0
     60020 WT20     704      MECN     H12      HGA3     0.090000        1.0080           0
     60021 WT20     704      MECN     H13      HGA3     0.090000        1.0080           0
     60022 WT20     704      MECN     C2       CG1N1    0.360000       12.0110           0
     60023 WT20     704      MECN     N3       NG1T1   -0.460000       14.0070           0
     60024 WT20     708      MECN     C1       CG331   -0.170000       12.0110           0
     60025 WT20     708      MECN     H11      HGA3     0.090000        1.0080           0
     60026 WT20     708      MECN     H12      HGA3     0.090000        1.0080           0
     60027 WT20     708      MECN     H13      HGA3     0.090000        1.0080           0
     60028 WT20     708      MECN     C2       CG1N1    0.360000       12.0110           0
     60029 WT20     708      MECN     N3       NG1T1   -0.460000       14.0070           0
     60030 WT20     712      MECN     C1       CG331   -0.170000       12.0110           0
     60031 WT20     712      MECN     H11      HGA3     0.090000        1.0080           0
     60032 WT20     712      MECN     H12      HGA3     0.090000        1.0080           0
     60033 WT20     712      MECN     H13      HGA3     0.090000        1.0080           0
     60034 WT20     712      MECN     C2       CG1N1    0.360000       12.0110           0
     60035 WT20     712      MECN     N3       NG1T1   -0.460000       14.0070           0
     60036 WT20     721      MECN     C1       CG331   -0.170000       12.0110           0
     60037 WT20     721      MECN     H11      HGA3     0.090000        1.0080           0
     60038 WT20     721      MECN     H12      HGA3     0.090000        1.0080           0
     60039 WT20     721      MECN     H13      HGA3     0.090000        1.0080           0
     60040 WT20     721      MECN     C2       CG1N1    0.360000       12.0110           0
     60041 WT20     721      MECN     N3       NG1T1   -0.460000       14.0070           0
     60042 WT20     723      MECN     C1       CG331   -0.170000       12.0110           0
     60043 WT20     723      MECN     H11      HGA3     0.090000        1.0080           0
     60044 WT20     723      MECN     H12      HGA3     0.090000        1.0080           0
     60045 WT20     723      MECN     H13      HGA3     0.090000        1.0080           0
     60046 WT20     723      MECN     C2       CG1N1    0.360000       12.0110           0
     60047 WT20     723      MECN     N3       NG1T1   -0.460000       14.0070           0
     60048 WT20     729      MECN     C1       CG331   -0.170000       12.0110           0
     60049 WT20     729      MECN     H11      HGA3     0.090000        1.0080           0
     60050 WT20     729      MECN     H12      HGA3     0.090000        1.0080           0
     60051 WT20     729      MECN     H13      HGA3     0.090000        1.0080           0
     60052 WT20     729      MECN     C2       CG1N1    0.360000       12.0110           0
     60053 WT20     729      MECN     N3       NG1T1   -0.460000       14.0070           0
     60054 WT20     733      MECN     C1       CG331   -0.170000       12.0110           0
     60055 WT20     733      MECN     H11      HGA3     0.090000        1.0080           0
     60056 WT20     733      MECN     H12      HGA3     0.090000        1.0080           0
     60057 WT20     733      MECN     H13      HGA3     0.090000        1.0080           0
     60058 WT20     733      MECN     C2       CG1N1    0.360000       12.0110           0
     60059 WT20     733      MECN     N3       NG1T1   -0.460000       14.0070           0
     60060 WT20     734      MECN     C1       CG331   -0.170000       12.0110           0
     60061 WT20     734      MECN     H11      HGA3     0.090000        1.0080           0
     60062 WT20     734      MECN     H12      HGA3     0.090000        1.0080           0
     60063 WT20     734      MECN     H13      HGA3     0.090000        1.0080           0
     60064 WT20     734      MECN     C2       CG1N1    0.360000       12.0110           0
     60065 WT20     734      MECN     N3       NG1T1   -0.460000       14.0070           0
     60066 WT20     736      MECN     C1       CG331   -0.170000       12.0110           0
     60067 WT20     736      MECN     H11      HGA3     0.090000        1.0080           0
     60068 WT20     736      MECN     H12      HGA3     0.090000        1.0080           0
     60069 WT20     736      MECN     H13      HGA3     0.090000        1.0080           0
     60070 WT20     736      MECN     C2       CG1N1    0.360000       12.0110           0
     60071 WT20     736      MECN     N3       NG1T1   -0.460000       14.0070           0
     60072 WT20     737      MECN     C1       CG331   -0.170000       12.0110           0
     60073 WT20     737      MECN     H11      HGA3     0.090000        1.0080           0
     60074 WT20     737      MECN     H12      HGA3     0.090000        1.0080           0
     60075 WT20     737      MECN     H13      HGA3     0.090000        1.0080           0
     60076 WT20     737      MECN     C2       CG1N1    0.360000       12.0110           0
     60077 WT20     737      MECN     N3       NG1T1   -0.460000       14.0070           0
     60078 WT20     741      MECN     C1       CG331   -0.170000       12.0110           0
     60079 WT20     741      MECN     H11      HGA3     0.090000        1.0080           0
     60080 WT20     741      MECN     H12      HGA3     0.090000        1.0080           0
     60081 WT20     741      MECN     H13      HGA3     0.090000        1.0080           0
     60082 WT20     741      MECN     C2       CG1N1    0.360000       12.0110           0
     60083 WT20     741      MECN     N3       NG1T1   -0.460000       14.0070           0
     60084 WT20     744      MECN     C1       CG331   -0.170000       12.0110           0
     60085 WT20     744      MECN     H11      HGA3     0.090000        1.0080           0
     60086 WT20     744      MECN     H12      HGA3     0.090000        1.0080           0
     60087 WT20     744      MECN     H13      HGA3     0.090000        1.0080           0
     60088 WT20     744      MECN     C2       CG1N1    0.360000       12.0110           0
     60089 WT20     744      MECN     N3       NG1T1   -0.460000       14.0070           0
     60090 WT20     747      MECN     C1       CG331   -0.170000       12.0110           0
     60091 WT20     747      MECN     H11      HGA3     0.090000        1.0080           0
     60092 WT20     747      MECN     H12      HGA3     0.090000        1.0080           0
     60093 WT20     747      MECN     H13      HGA3     0.090000        1.0080           0
     60094 WT20     747      MECN     C2       CG1N1    0.360000       12.0110           0
     60095 WT20     747      MECN     N3       NG1T1   -0.460000       14.0070           0
     60096 WT20     748      MECN     C1       CG331   -0.170000       12.0110           0
     60097 WT20     748      MECN     H11      HGA3     0.090000        1.0080           0
     60098 WT20     748      MECN     H12      HGA3     0.090000        1.0080           0
     60099 WT20     748      MECN     H13      HGA3     0.090000        1.0080           0
     60100 WT20     748      MECN     C2       CG1N1    0.360000       12.0110           0
     60101 WT20     748      MECN     N3       NG1T1   -0.460000       14.0070           0
     60102 WT20     750      MECN     C1       CG331   -0.170000       12.0110           0
     60103 WT20     750      MECN     H11      HGA3     0.090000        1.0080           0
     60104 WT20     750      MECN     H12      HGA3     0.090000        1.0080           0
     60105 WT20     750      MECN     H13      HGA3     0.090000        1.0080           0
     60106 WT20     750      MECN     C2       CG1N1    0.360000       12.0110           0
     60107 WT20     750      MECN     N3       NG1T1   -0.460000       14.0070           0
     60108 WT20     752      MECN     C1       CG331   -0.170000       12.0110           0
     60109 WT20     752      MECN     H11      HGA3     0.090000        1.0080           0
     60110 WT20     752      MECN     H12      HGA3     0.090000        1.0080           0
     60111 WT20     752      MECN     H13      HGA3     0.090000        1.0080           0
     60112 WT20     752      MECN     C2       CG1N1    0.360000       12.0110           0
     60113 WT20     752      MECN     N3       NG1T1   -0.460000       14.0070           0
     60114 WT20     754      MECN     C1       CG331   -0.170000       12.0110           0
     60115 WT20     754      MECN     H11      HGA3     0.090000        1.0080           0
     60116 WT20     754      MECN     H12      HGA3     0.090000        1.0080           0
     60117 WT20     754      MECN     H13      HGA3     0.090000        1.0080           0
     60118 WT20     754      MECN     C2       CG1N1    0.360000       12.0110           0
     60119 WT20     754      MECN     N3       NG1T1   -0.460000       14.0070           0
     60120 WT20     755      MECN     C1       CG331   -0.170000       12.0110           0
     60121 WT20     755      MECN     H11      HGA3     0.090000        1.0080           0
     60122 WT20     755      MECN     H12      HGA3     0.090000        1.0080           0
     60123 WT20     755      MECN     H13      HGA3     0.090000        1.0080           0
     60124 WT20     755      MECN     C2       CG1N1    0.360000       12.0110           0
     60125 WT20     755      MECN     N3       NG1T1   -0.460000       14.0070           0
     60126 WT20     756      MECN     C1       CG331   -0.170000       12.0110           0
     60127 WT20     756      MECN     H11      HGA3     0.090000        1.0080           0
     60128 WT20     756      MECN     H12      HGA3     0.090000        1.0080           0
     60129 WT20     756      MECN     H13      HGA3     0.090000        1.0080           0
     60130 WT20     756      MECN     C2       CG1N1    0.360000       12.0110           0
     60131 WT20     756      MECN     N3       NG1T1   -0.460000       14.0070           0
     60132 WT20     757      MECN     C1       CG331   -0.170000       12.0110           0
     60133 WT20     757      MECN     H11      HGA3     0.090000        1.0080           0
     60134 WT20     757      MECN     H12      HGA3     0.090000        1.0080           0
     60135 WT20     757      MECN     H13      HGA3     0.090000        1.0080           0
     60136 WT20     757      MECN     C2       CG1N1    0.360000       12.0110           0
     60137 WT20     757      MECN     N3       NG1T1   -0.460000       14.0070           0
     60138 WT20     761      MECN     C1       CG331   -0.170000       12.0110           0
     60139 WT20     761      MECN     H11      HGA3     0.090000        1.0080           0
     60140 WT20     761      MECN     H12      HGA3     0.090000        1.0080           0
     60141 WT20     761      MECN     H13      HGA3     0.090000        1.0080           0
     60142 WT20     761      MECN     C2       CG1N1    0.360000       12.0110           0
     60143 WT20     761      MECN     N3       NG1T1   -0.460000       14.0070           0
     60144 WT20     765      MECN     C1       CG331   -0.170000       12.0110           0
     60145 WT20     765      MECN     H11      HGA3     0.090000        1.0080           0
     60146 WT20     765      MECN     H12      HGA3     0.090000        1.0080           0
     60147 WT20     765      MECN     H13      HGA3     0.090000        1.0080           0
     60148 WT20     765      MECN     C2       CG1N1    0.360000       12.0110           0
     60149 WT20     765      MECN     N3       NG1T1   -0.460000       14.0070           0
     60150 WT20     768      MECN     C1       CG331   -0.170000       12.0110           0
     60151 WT20     768      MECN     H11      HGA3     0.090000        1.0080           0
     60152 WT20     768      MECN     H12      HGA3     0.090000        1.0080           0
     60153 WT20     768      MECN     H13      HGA3     0.090000        1.0080           0
     60154 WT20     768      MECN     C2       CG1N1    0.360000       12.0110           0
     60155 WT20     768      MECN     N3       NG1T1   -0.460000       14.0070           0
     60156 WT20     772      MECN     C1       CG331   -0.170000       12.0110           0
     60157 WT20     772      MECN     H11      HGA3     0.090000        1.0080           0
     60158 WT20     772      MECN     H12      HGA3     0.090000        1.0080           0
     60159 WT20     772      MECN     H13      HGA3     0.090000        1.0080           0
     60160 WT20     772      MECN     C2       CG1N1    0.360000       12.0110           0
     60161 WT20     772      MECN     N3       NG1T1   -0.460000       14.0070           0
     60162 WT20     774      MECN     C1       CG331   -0.170000       12.0110           0
     60163 WT20     774      MECN     H11      HGA3     0.090000        1.0080           0
     60164 WT20     774      MECN     H12      HGA3     0.090000        1.0080           0
     60165 WT20     774      MECN     H13      HGA3     0.090000        1.0080           0
     60166 WT20     774      MECN     C2       CG1N1    0.360000       12.0110           0
     60167 WT20     774      MECN     N3       NG1T1   -0.460000       14.0070           0
     60168 WT20     777      MECN     C1       CG331   -0.170000       12.0110           0
     60169 WT20     777      MECN     H11      HGA3     0.090000        1.0080           0
     60170 WT20     777      MECN     H12      HGA3     0.090000        1.0080           0
     60171 WT20     777      MECN     H13      HGA3     0.090000        1.0080           0
     60172 WT20     777      MECN     C2       CG1N1    0.360000       12.0110           0
     60173 WT20     777      MECN     N3       NG1T1   -0.460000       14.0070           0
     60174 WT20     778      MECN     C1       CG331   -0.170000       12.0110           0
     60175 WT20     778      MECN     H11      HGA3     0.090000        1.0080           0
     60176 WT20     778      MECN     H12      HGA3     0.090000        1.0080           0
     60177 WT20     778      MECN     H13      HGA3     0.090000        1.0080           0
     60178 WT20     778      MECN     C2       CG1N1    0.360000       12.0110           0
     60179 WT20     778      MECN     N3       NG1T1   -0.460000       14.0070           0
     60180 WT20     783      MECN     C1       CG331   -0.170000       12.0110           0
     60181 WT20     783      MECN     H11      HGA3     0.090000        1.0080           0
     60182 WT20     783      MECN     H12      HGA3     0.090000        1.0080           0
     60183 WT20     783      MECN     H13      HGA3     0.090000        1.0080           0
     60184 WT20     783      MECN     C2       CG1N1    0.360000       12.0110           0
     60185 WT20     783      MECN     N3       NG1T1   -0.460000       14.0070           0
     60186 WT20     789      MECN     C1       CG331   -0.170000       12.0110           0
     60187 WT20     789      MECN     H11      HGA3     0.090000        1.0080           0
     60188 WT20     789      MECN     H12      HGA3     0.090000        1.0080           0
     60189 WT20     789      MECN     H13      HGA3     0.090000        1.0080           0
     60190 WT20     789      MECN     C2       CG1N1    0.360000       12.0110           0
     60191 WT20     789      MECN     N3       NG1T1   -0.460000       14.0070           0
     60192 WT20     795      MECN     C1       CG331   -0.170000       12.0110           0
     60193 WT20     795      MECN     H11      HGA3     0.090000        1.0080           0
     60194 WT20     795      MECN     H12      HGA3     0.090000        1.0080           0
     60195 WT20     795      MECN     H13      HGA3     0.090000        1.0080           0
     60196 WT20     795      MECN     C2       CG1N1    0.360000       12.0110           0
     60197 WT20     795      MECN     N3       NG1T1   -0.460000       14.0070           0
     60198 WT20     797      MECN     C1       CG331   -0.170000       12.0110           0
     60199 WT20     797      MECN     H11      HGA3     0.090000        1.0080           0
     60200 WT20     797      MECN     H12      HGA3     0.090000        1.0080           0
     60201 WT20     797      MECN     H13      HGA3     0.090000        1.0080           0
     60202 WT20     797      MECN     C2       CG1N1    0.360000       12.0110           0
     60203 WT20     797      MECN     N3       NG1T1   -0.460000       14.0070           0
     60204 WT20     799      MECN     C1       CG331   -0.170000       12.0110           0
     60205 WT20     799      MECN     H11      HGA3     0.090000        1.0080           0
     60206 WT20     799      MECN     H12      HGA3     0.090000        1.0080           0
     60207 WT20     799      MECN     H13      HGA3     0.090000        1.0080           0
     60208 WT20     799      MECN     C2       CG1N1    0.360000       12.0110           0
     60209 WT20     799      MECN     N3       NG1T1   -0.460000       14.0070           0
     60210 WT20     800      MECN     C1       CG331   -0.170000       12.0110           0
     60211 WT20     800      MECN     H11      HGA3     0.090000        1.0080           0
     60212 WT20     800      MECN     H12      HGA3     0.090000        1.0080           0
     60213 WT20     800      MECN     H13      HGA3     0.090000        1.0080           0
     60214 WT20     800      MECN     C2       CG1N1    0.360000       12.0110           0
     60215 WT20     800      MECN     N3       NG1T1   -0.460000       14.0070           0
     60216 WT20     801      MECN     C1       CG331   -0.170000       12.0110           0
     60217 WT20     801      MECN     H11      HGA3     0.090000        1.0080           0
     60218 WT20     801      MECN     H12      HGA3     0.090000        1.0080           0
     60219 WT20     801      MECN     H13      HGA3     0.090000        1.0080           0
     60220 WT20     801      MECN     C2       CG1N1    0.360000       12.0110           0
     60221 WT20     801      MECN     N3       NG1T1   -0.460000       14.0070           0
     60222 WT20     803      MECN     C1       CG331   -0.170000       12.0110           0
     60223 WT20     803      MECN     H11      HGA3     0.090000        1.0080           0
     60224 WT20     803      MECN     H12      HGA3     0.090000        1.0080           0
     60225 WT20     803      MECN     H13      HGA3     0.090000        1.0080           0
     60226 WT20     803      MECN     C2       CG1N1    0.360000       12.0110           0
     60227 WT20     803      MECN     N3       NG1T1   -0.460000       14.0070           0
     60228 WT20     810      MECN     C1       CG331   -0.170000       12.0110           0
     60229 WT20     810      MECN     H11      HGA3     0.090000        1.0080           0
     60230 WT20     810      MECN     H12      HGA3     0.090000        1.0080           0
     60231 WT20     810      MECN     H13      HGA3     0.090000        1.0080           0
     60232 WT20     810      MECN     C2       CG1N1    0.360000       12.0110           0
     60233 WT20     810      MECN     N3       NG1T1   -0.460000       14.0070           0
     60234 WT20     814      MECN     C1       CG331   -0.170000       12.0110           0
     60235 WT20     814      MECN     H11      HGA3     0.090000        1.0080           0
     60236 WT20     814      MECN     H12      HGA3     0.090000        1.0080           0
     60237 WT20     814      MECN     H13      HGA3     0.090000        1.0080           0
     60238 WT20     814      MECN     C2       CG1N1    0.360000       12.0110           0
     60239 WT20     814      MECN     N3       NG1T1   -0.460000       14.0070           0
     60240 WT20     817      MECN     C1       CG331   -0.170000       12.0110           0
     60241 WT20     817      MECN     H11      HGA3     0.090000        1.0080           0
     60242 WT20     817      MECN     H12      HGA3     0.090000        1.0080           0
     60243 WT20     817      MECN     H13      HGA3     0.090000        1.0080           0
     60244 WT20     817      MECN     C2       CG1N1    0.360000       12.0110           0
     60245 WT20     817      MECN     N3       NG1T1   -0.460000       14.0070           0
     60246 WT20     821      MECN     C1       CG331   -0.170000       12.0110           0
     60247 WT20     821      MECN     H11      HGA3     0.090000        1.0080           0
     60248 WT20     821      MECN     H12      HGA3     0.090000        1.0080           0
     60249 WT20     821      MECN     H13      HGA3     0.090000        1.0080           0
     60250 WT20     821      MECN     C2       CG1N1    0.360000       12.0110           0
     60251 WT20     821      MECN     N3       NG1T1   -0.460000       14.0070           0
     60252 WT20     829      MECN     C1       CG331   -0.170000       12.0110           0
     60253 WT20     829      MECN     H11      HGA3     0.090000        1.0080           0
     60254 WT20     829      MECN     H12      HGA3     0.090000        1.0080           0
     60255 WT20     829      MECN     H13      HGA3     0.090000        1.0080           0
     60256 WT20     829      MECN     C2       CG1N1    0.360000       12.0110           0
     60257 WT20     829      MECN     N3       NG1T1   -0.460000       14.0070           0
     60258 WT20     831      MECN     C1       CG331   -0.170000       12.0110           0
     60259 WT20     831      MECN     H11      HGA3     0.090000        1.0080           0
     60260 WT20     831      MECN     H12      HGA3     0.090000        1.0080           0
     60261 WT20     831      MECN     H13      HGA3     0.090000        1.0080           0
     60262 WT20     831      MECN     C2       CG1N1    0.360000       12.0110           0
     60263 WT20     831      MECN     N3       NG1T1   -0.460000       14.0070           0
     60264 WT20     833      MECN     C1       CG331   -0.170000       12.0110           0
     60265 WT20     833      MECN     H11      HGA3     0.090000        1.0080           0
     60266 WT20     833      MECN     H12      HGA3     0.090000        1.0080           0
     60267 WT20     833      MECN     H13      HGA3     0.090000        1.0080           0
     60268 WT20     833      MECN     C2       CG1N1    0.360000       12.0110           0
     60269 WT20     833      MECN     N3       NG1T1   -0.460000       14.0070           0
     60270 WT20     834      MECN     C1       CG331   -0.170000       12.0110           0
     60271 WT20     834      MECN     H11      HGA3     0.090000        1.0080           0
     60272 WT20     834      MECN     H12      HGA3     0.090000        1.0080           0
     60273 WT20     834      MECN     H13      HGA3     0.090000        1.0080           0
     60274 WT20     834      MECN     C2       CG1N1    0.360000       12.0110           0
     60275 WT20     834      MECN     N3       NG1T1   -0.460000       14.0070           0
     60276 WT20     838      MECN     C1       CG331   -0.170000       12.0110           0
     60277 WT20     838      MECN     H11      HGA3     0.090000        1.0080           0
     60278 WT20     838      MECN     H12      HGA3     0.090000        1.0080           0
     60279 WT20     838      MECN     H13      HGA3     0.090000        1.0080           0
     60280 WT20     838      MECN     C2       CG1N1    0.360000       12.0110           0
     60281 WT20     838      MECN     N3       NG1T1   -0.460000       14.0070           0
     60282 WT20     842      MECN     C1       CG331   -0.170000       12.0110           0
     60283 WT20     842      MECN     H11      HGA3     0.090000        1.0080           0
     60284 WT20     842      MECN     H12      HGA3     0.090000        1.0080           0
     60285 WT20     842      MECN     H13      HGA3     0.090000        1.0080           0
     60286 WT20     842      MECN     C2       CG1N1    0.360000       12.0110           0
     60287 WT20     842      MECN     N3       NG1T1   -0.460000       14.0070           0
     60288 WT20     849      MECN     C1       CG331   -0.170000       12.0110           0
     60289 WT20     849      MECN     H11      HGA3     0.090000        1.0080           0
     60290 WT20     849      MECN     H12      HGA3     0.090000        1.0080           0
     60291 WT20     849      MECN     H13      HGA3     0.090000        1.0080           0
     60292 WT20     849      MECN     C2       CG1N1    0.360000       12.0110           0
     60293 WT20     849      MECN     N3       NG1T1   -0.460000       14.0070           0
     60294 WT20     850      MECN     C1       CG331   -0.170000       12.0110           0
     60295 WT20     850      MECN     H11      HGA3     0.090000        1.0080           0
     60296 WT20     850      MECN     H12      HGA3     0.090000        1.0080           0
     60297 WT20     850      MECN     H13      HGA3     0.090000        1.0080           0
     60298 WT20     850      MECN     C2       CG1N1    0.360000       12.0110           0
     60299 WT20     850      MECN     N3       NG1T1   -0.460000       14.0070           0
     60300 WT20     851      MECN     C1       CG331   -0.170000       12.0110           0
     60301 WT20     851      MECN     H11      HGA3     0.090000        1.0080           0
     60302 WT20     851      MECN     H12      HGA3     0.090000        1.0080           0
     60303 WT20     851      MECN     H13      HGA3     0.090000        1.0080           0
     60304 WT20     851      MECN     C2       CG1N1    0.360000       12.0110           0
     60305 WT20     851      MECN     N3       NG1T1   -0.460000       14.0070           0
     60306 WT20     859      MECN     C1       CG331   -0.170000       12.0110           0
     60307 WT20     859      MECN     H11      HGA3     0.090000        1.0080           0
     60308 WT20     859      MECN     H12      HGA3     0.090000        1.0080           0
     60309 WT20     859      MECN     H13      HGA3     0.090000        1.0080           0
     60310 WT20     859      MECN     C2       CG1N1    0.360000       12.0110           0
     60311 WT20     859      MECN     N3       NG1T1   -0.460000       14.0070           0
     60312 WT20     860      MECN     C1       CG331   -0.170000       12.0110           0
     60313 WT20     860      MECN     H11      HGA3     0.090000        1.0080           0
     60314 WT20     860      MECN     H12      HGA3     0.090000        1.0080           0
     60315 WT20     860      MECN     H13      HGA3     0.090000        1.0080           0
     60316 WT20     860      MECN     C2       CG1N1    0.360000       12.0110           0
     60317 WT20     860      MECN     N3       NG1T1   -0.460000       14.0070           0
     60318 WT20     861      MECN     C1       CG331   -0.170000       12.0110           0
     60319 WT20     861      MECN     H11      HGA3     0.090000        1.0080           0
     60320 WT20     861      MECN     H12      HGA3     0.090000        1.0080           0
     60321 WT20     861      MECN     H13      HGA3     0.090000        1.0080           0
     60322 WT20     861      MECN     C2       CG1N1    0.360000       12.0110           0
     60323 WT20     861      MECN     N3       NG1T1   -0.460000       14.0070           0
     60324 WT20     864      MECN     C1       CG331   -0.170000       12.0110           0
     60325 WT20     864      MECN     H11      HGA3     0.090000        1.0080           0
     60326 WT20     864      MECN     H12      HGA3     0.090000        1.0080           0
     60327 WT20     864      MECN     H13      HGA3     0.090000        1.0080           0
     60328 WT20     864      MECN     C2       CG1N1    0.360000       12.0110           0
     60329 WT20     864      MECN     N3       NG1T1   -0.460000       14.0070           0
     60330 WT20     868      MECN     C1       CG331   -0.170000       12.0110           0
     60331 WT20     868      MECN     H11      HGA3     0.090000        1.0080           0
     60332 WT20     868      MECN     H12      HGA3     0.090000        1.0080           0
     60333 WT20     868      MECN     H13      HGA3     0.090000        1.0080           0
     60334 WT20     868      MECN     C2       CG1N1    0.360000       12.0110           0
     60335 WT20     868      MECN     N3       NG1T1   -0.460000       14.0070           0
     60336 WT20     871      MECN     C1       CG331   -0.170000       12.0110           0
     60337 WT20     871      MECN     H11      HGA3     0.090000        1.0080           0
     60338 WT20     871      MECN     H12      HGA3     0.090000        1.0080           0
     60339 WT20     871      MECN     H13      HGA3     0.090000        1.0080           0
     60340 WT20     871      MECN     C2       CG1N1    0.360000       12.0110           0
     60341 WT20     871      MECN     N3       NG1T1   -0.460000       14.0070           0
     60342 WT20     875      MECN     C1       CG331   -0.170000       12.0110           0
     60343 WT20     875      MECN     H11      HGA3     0.090000        1.0080           0
     60344 WT20     875      MECN     H12      HGA3     0.090000        1.0080           0
     60345 WT20     875      MECN     H13      HGA3     0.090000        1.0080           0
     60346 WT20     875      MECN     C2       CG1N1    0.360000       12.0110           0
     60347 WT20     875      MECN     N3       NG1T1   -0.460000       14.0070           0
     60348 WT20     879      MECN     C1       CG331   -0.170000       12.0110           0
     60349 WT20     879      MECN     H11      HGA3     0.090000        1.0080           0
     60350 WT20     879      MECN     H12      HGA3     0.090000        1.0080           0
     60351 WT20     879      MECN     H13      HGA3     0.090000        1.0080           0
     60352 WT20     879      MECN     C2       CG1N1    0.360000       12.0110           0
     60353 WT20     879      MECN     N3       NG1T1   -0.460000       14.0070           0
     60354 WT20     880      MECN     C1       CG331   -0.170000       12.0110           0
     60355 WT20     880      MECN     H11      HGA3     0.090000        1.0080           0
     60356 WT20     880      MECN     H12      HGA3     0.090000        1.0080           0
     60357 WT20     880      MECN     H13      HGA3     0.090000        1.0080           0
     60358 WT20     880      MECN     C2       CG1N1    0.360000       12.0110           0
     60359 WT20     880      MECN     N3       NG1T1   -0.460000       14.0070           0
     60360 WT20     883      MECN     C1       CG331   -0.170000       12.0110           0
     60361 WT20     883      MECN     H11      HGA3     0.090000        1.0080           0
     60362 WT20     883      MECN     H12      HGA3     0.090000        1.0080           0
     60363 WT20     883      MECN     H13      HGA3     0.090000        1.0080           0
     60364 WT20     883      MECN     C2       CG1N1    0.360000       12.0110           0
     60365 WT20     883      MECN     N3       NG1T1   -0.460000       14.0070           0
     60366 WT20     887      MECN     C1       CG331   -0.170000       12.0110           0
     60367 WT20     887      MECN     H11      HGA3     0.090000        1.0080           0
     60368 WT20     887      MECN     H12      HGA3     0.090000        1.0080           0
     60369 WT20     887      MECN     H13      HGA3     0.090000        1.0080           0
     60370 WT20     887      MECN     C2       CG1N1    0.360000       12.0110           0
     60371 WT20     887      MECN     N3       NG1T1   -0.460000       14.0070           0
     60372 WT20     889      MECN     C1       CG331   -0.170000       12.0110           0
     60373 WT20     889      MECN     H11      HGA3     0.090000        1.0080           0
     60374 WT20     889      MECN     H12      HGA3     0.090000        1.0080           0
     60375 WT20     889      MECN     H13      HGA3     0.090000        1.0080           0
     60376 WT20     889      MECN     C2       CG1N1    0.360000       12.0110           0
     60377 WT20     889      MECN     N3       NG1T1   -0.460000       14.0070           0
     60378 WT20     891      MECN     C1       CG331   -0.170000       12.0110           0
     60379 WT20     891      MECN     H11      HGA3     0.090000        1.0080           0
     60380 WT20     891      MECN     H12      HGA3     0.090000        1.0080           0
     60381 WT20     891      MECN     H13      HGA3     0.090000        1.0080           0
     60382 WT20     891      MECN     C2       CG1N1    0.360000       12.0110           0
     60383 WT20     891      MECN     N3       NG1T1   -0.460000       14.0070           0
     60384 WT20     893      MECN     C1       CG331   -0.170000       12.0110           0
     60385 WT20     893      MECN     H11      HGA3     0.090000        1.0080           0
     60386 WT20     893      MECN     H12      HGA3     0.090000        1.0080           0
     60387 WT20     893      MECN     H13      HGA3     0.090000        1.0080           0
     60388 WT20     893      MECN     C2       CG1N1    0.360000       12.0110           0
     60389 WT20     893      MECN     N3       NG1T1   -0.460000       14.0070           0
     60390 WT20     894      MECN     C1       CG331   -0.170000       12.0110           0
     60391 WT20     894      MECN     H11      HGA3     0.090000        1.0080           0
     60392 WT20     894      MECN     H12      HGA3     0.090000        1.0080           0
     60393 WT20     894      MECN     H13      HGA3     0.090000        1.0080           0
     60394 WT20     894      MECN     C2       CG1N1    0.360000       12.0110           0
     60395 WT20     894      MECN     N3       NG1T1   -0.460000       14.0070           0
     60396 WT20     896      MECN     C1       CG331   -0.170000       12.0110           0
     60397 WT20     896      MECN     H11      HGA3     0.090000        1.0080           0
     60398 WT20     896      MECN     H12      HGA3     0.090000        1.0080           0
     60399 WT20     896      MECN     H13      HGA3     0.090000        1.0080           0
     60400 WT20     896      MECN     C2       CG1N1    0.360000       12.0110           0
     60401 WT20     896      MECN     N3       NG1T1   -0.460000       14.0070           0
     60402 WT20     900      MECN     C1       CG331   -0.170000       12.0110           0
     60403 WT20     900      MECN     H11      HGA3     0.090000        1.0080           0
     60404 WT20     900      MECN     H12      HGA3     0.090000        1.0080           0
     60405 WT20     900      MECN     H13      HGA3     0.090000        1.0080           0
     60406 WT20     900      MECN     C2       CG1N1    0.360000       12.0110           0
     60407 WT20     900      MECN     N3       NG1T1   -0.460000       14.0070           0
     60408 WT20     901      MECN     C1       CG331   -0.170000       12.0110           0
     60409 WT20     901      MECN     H11      HGA3     0.090000        1.0080           0
     60410 WT20     901      MECN     H12      HGA3     0.090000        1.0080           0
     60411 WT20     901      MECN     H13      HGA3     0.090000        1.0080           0
     60412 WT20     901      MECN     C2       CG1N1    0.360000       12.0110           0
     60413 WT20     901      MECN     N3       NG1T1   -0.460000       14.0070           0
     60414 WT20     904      MECN     C1       CG331   -0.170000       12.0110           0
     60415 WT20     904      MECN     H11      HGA3     0.090000        1.0080           0
     60416 WT20     904      MECN     H12      HGA3     0.090000        1.0080           0
     60417 WT20     904      MECN     H13      HGA3     0.090000        1.0080           0
     60418 WT20     904      MECN     C2       CG1N1    0.360000       12.0110           0
     60419 WT20     904      MECN     N3       NG1T1   -0.460000       14.0070           0
     60420 WT20     906      MECN     C1       CG331   -0.170000       12.0110           0
     60421 WT20     906      MECN     H11      HGA3     0.090000        1.0080           0
     60422 WT20     906      MECN     H12      HGA3     0.090000        1.0080           0
     60423 WT20     906      MECN     H13      HGA3     0.090000        1.0080           0
     60424 WT20     906      MECN     C2       CG1N1    0.360000       12.0110           0
     60425 WT20     906      MECN     N3       NG1T1   -0.460000       14.0070           0
     60426 WT20     907      MECN     C1       CG331   -0.170000       12.0110           0
     60427 WT20     907      MECN     H11      HGA3     0.090000        1.0080           0
     60428 WT20     907      MECN     H12      HGA3     0.090000        1.0080           0
     60429 WT20     907      MECN     H13      HGA3     0.090000        1.0080           0
     60430 WT20     907      MECN     C2       CG1N1    0.360000       12.0110           0
     60431 WT20     907      MECN     N3       NG1T1   -0.460000       14.0070           0
     60432 WT20     912      MECN     C1       CG331   -0.170000       12.0110           0
     60433 WT20     912      MECN     H11      HGA3     0.090000        1.0080           0
     60434 WT20     912      MECN     H12      HGA3     0.090000        1.0080           0
     60435 WT20     912      MECN     H13      HGA3     0.090000        1.0080           0
     60436 WT20     912      MECN     C2       CG1N1    0.360000       12.0110           0
     60437 WT20     912      MECN     N3       NG1T1   -0.460000       14.0070           0
     60438 WT20     914      MECN     C1       CG331   -0.170000       12.0110           0
     60439 WT20     914      MECN     H11      HGA3     0.090000        1.0080           0
     60440 WT20     914      MECN     H12      HGA3     0.090000        1.0080           0
     60441 WT20     914      MECN     H13      HGA3     0.090000        1.0080           0
     60442 WT20     914      MECN     C2       CG1N1    0.360000       12.0110           0
     60443 WT20     914      MECN     N3       NG1T1   -0.460000       14.0070           0
     60444 WT20     915      MECN     C1       CG331   -0.170000       12.0110           0
     60445 WT20     915      MECN     H11      HGA3     0.090000        1.0080           0
     60446 WT20     915      MECN     H12      HGA3     0.090000        1.0080           0
     60447 WT20     915      MECN     H13      HGA3     0.090000        1.0080           0
     60448 WT20     915      MECN     C2       CG1N1    0.360000       12.0110           0
     60449 WT20     915      MECN     N3       NG1T1   -0.460000       14.0070           0
     60450 WT20     918      MECN     C1       CG331   -0.170000       12.0110           0
     60451 WT20     918      MECN     H11      HGA3     0.090000        1.0080           0
     60452 WT20     918      MECN     H12      HGA3     0.090000        1.0080           0
     60453 WT20     918      MECN     H13      HGA3     0.090000        1.0080           0
     60454 WT20     918      MECN     C2       CG1N1    0.360000       12.0110           0
     60455 WT20     918      MECN     N3       NG1T1   -0.460000       14.0070           0
     60456 WT20     920      MECN     C1       CG331   -0.170000       12.0110           0
     60457 WT20     920      MECN     H11      HGA3     0.090000        1.0080           0
     60458 WT20     920      MECN     H12      HGA3     0.090000        1.0080           0
     60459 WT20     920      MECN     H13      HGA3     0.090000        1.0080           0
     60460 WT20     920      MECN     C2       CG1N1    0.360000       12.0110           0
     60461 WT20     920      MECN     N3       NG1T1   -0.460000       14.0070           0
     60462 WT20     924      MECN     C1       CG331   -0.170000       12.0110           0
     60463 WT20     924      MECN     H11      HGA3     0.090000        1.0080           0
     60464 WT20     924      MECN     H12      HGA3     0.090000        1.0080           0
     60465 WT20     924      MECN     H13      HGA3     0.090000        1.0080           0
     60466 WT20     924      MECN     C2       CG1N1    0.360000       12.0110           0
     60467 WT20     924      MECN     N3       NG1T1   -0.460000       14.0070           0
     60468 WT20     925      MECN     C1       CG331   -0.170000       12.0110           0
     60469 WT20     925      MECN     H11      HGA3     0.090000        1.0080           0
     60470 WT20     925      MECN     H12      HGA3     0.090000        1.0080           0
     60471 WT20     925      MECN     H13      HGA3     0.090000        1.0080           0
     60472 WT20     925      MECN     C2       CG1N1    0.360000       12.0110           0
     60473 WT20     925      MECN     N3       NG1T1   -0.460000       14.0070           0
     60474 WT20     926      MECN     C1       CG331   -0.170000       12.0110           0
     60475 WT20     926      MECN     H11      HGA3     0.090000        1.0080           0
     60476 WT20     926      MECN     H12      HGA3     0.090000        1.0080           0
     60477 WT20     926      MECN     H13      HGA3     0.090000        1.0080           0
     60478 WT20     926      MECN     C2       CG1N1    0.360000       12.0110           0
     60479 WT20     926      MECN     N3       NG1T1   -0.460000       14.0070           0
     60480 WT20     933      MECN     C1       CG331   -0.170000       12.0110           0
     60481 WT20     933      MECN     H11      HGA3     0.090000        1.0080           0
     60482 WT20     933      MECN     H12      HGA3     0.090000        1.0080           0
     60483 WT20     933      MECN     H13      HGA3     0.090000        1.0080           0
     60484 WT20     933      MECN     C2       CG1N1    0.360000       12.0110           0
     60485 WT20     933      MECN     N3       NG1T1   -0.460000       14.0070           0
     60486 WT20     934      MECN     C1       CG331   -0.170000       12.0110           0
     60487 WT20     934      MECN     H11      HGA3     0.090000        1.0080           0
     60488 WT20     934      MECN     H12      HGA3     0.090000        1.0080           0
     60489 WT20     934      MECN     H13      HGA3     0.090000        1.0080           0
     60490 WT20     934      MECN     C2       CG1N1    0.360000       12.0110           0
     60491 WT20     934      MECN     N3       NG1T1   -0.460000       14.0070           0
     60492 WT20     939      MECN     C1       CG331   -0.170000       12.0110           0
     60493 WT20     939      MECN     H11      HGA3     0.090000        1.0080           0
     60494 WT20     939      MECN     H12      HGA3     0.090000        1.0080           0
     60495 WT20     939      MECN     H13      HGA3     0.090000        1.0080           0
     60496 WT20     939      MECN     C2       CG1N1    0.360000       12.0110           0
     60497 WT20     939      MECN     N3       NG1T1   -0.460000       14.0070           0
     60498 WT20     940      MECN     C1       CG331   -0.170000       12.0110           0
     60499 WT20     940      MECN     H11      HGA3     0.090000        1.0080           0
     60500 WT20     940      MECN     H12      HGA3     0.090000        1.0080           0
     60501 WT20     940      MECN     H13      HGA3     0.090000        1.0080           0
     60502 WT20     940      MECN     C2       CG1N1    0.360000       12.0110           0
     60503 WT20     940      MECN     N3       NG1T1   -0.460000       14.0070           0
     60504 WT20     971      MECN     C1       CG331   -0.170000       12.0110           0
     60505 WT20     971      MECN     H11      HGA3     0.090000        1.0080           0
     60506 WT20     971      MECN     H12      HGA3     0.090000        1.0080           0
     60507 WT20     971      MECN     H13      HGA3     0.090000        1.0080           0
     60508 WT20     971      MECN     C2       CG1N1    0.360000       12.0110           0
     60509 WT20     971      MECN     N3       NG1T1   -0.460000       14.0070           0
     60510 WT20     973      MECN     C1       CG331   -0.170000       12.0110           0
     60511 WT20     973      MECN     H11      HGA3     0.090000        1.0080           0
     60512 WT20     973      MECN     H12      HGA3     0.090000        1.0080           0
     60513 WT20     973      MECN     H13      HGA3     0.090000        1.0080           0
     60514 WT20     973      MECN     C2       CG1N1    0.360000       12.0110           0
     60515 WT20     973      MECN     N3       NG1T1   -0.460000       14.0070           0
     60516 WT20     976      MECN     C1       CG331   -0.170000       12.0110           0
     60517 WT20     976      MECN     H11      HGA3     0.090000        1.0080           0
     60518 WT20     976      MECN     H12      HGA3     0.090000        1.0080           0
     60519 WT20     976      MECN     H13      HGA3     0.090000        1.0080           0
     60520 WT20     976      MECN     C2       CG1N1    0.360000       12.0110           0
     60521 WT20     976      MECN     N3       NG1T1   -0.460000       14.0070           0
     60522 WT20     977      MECN     C1       CG331   -0.170000       12.0110           0
     60523 WT20     977      MECN     H11      HGA3     0.090000        1.0080           0
     60524 WT20     977      MECN     H12      HGA3     0.090000        1.0080           0
     60525 WT20     977      MECN     H13      HGA3     0.090000        1.0080           0
     60526 WT20     977      MECN     C2       CG1N1    0.360000       12.0110           0
     60527 WT20     977      MECN     N3       NG1T1   -0.460000       14.0070           0
     60528 WT20     979      MECN     C1       CG331   -0.170000       12.0110           0
     60529 WT20     979      MECN     H11      HGA3     0.090000        1.0080           0
     60530 WT20     979      MECN     H12      HGA3     0.090000        1.0080           0
     60531 WT20     979      MECN     H13      HGA3     0.090000        1.0080           0
     60532 WT20     979      MECN     C2       CG1N1    0.360000       12.0110           0
     60533 WT20     979      MECN     N3       NG1T1   -0.460000       14.0070           0
     60534 WT20     983      MECN     C1       CG331   -0.170000       12.0110           0
     60535 WT20     983      MECN     H11      HGA3     0.090000        1.0080           0
     60536 WT20     983      MECN     H12      HGA3     0.090000        1.0080           0
     60537 WT20     983      MECN     H13      HGA3     0.090000        1.0080           0
     60538 WT20     983      MECN     C2       CG1N1    0.360000       12.0110           0
     60539 WT20     983      MECN     N3       NG1T1   -0.460000       14.0070           0
     60540 WT20     985      MECN     C1       CG331   -0.170000       12.0110           0
     60541 WT20     985      MECN     H11      HGA3     0.090000        1.0080           0
     60542 WT20     985      MECN     H12      HGA3     0.090000        1.0080           0
     60543 WT20     985      MECN     H13      HGA3     0.090000        1.0080           0
     60544 WT20     985      MECN     C2       CG1N1    0.360000       12.0110           0
     60545 WT20     985      MECN     N3       NG1T1   -0.460000       14.0070           0
     60546 WT20     986      MECN     C1       CG331   -0.170000       12.0110           0
     60547 WT20     986      MECN     H11      HGA3     0.090000        1.0080           0
     60548 WT20     986      MECN     H12      HGA3     0.090000        1.0080           0
     60549 WT20     986      MECN     H13      HGA3     0.090000        1.0080           0
     60550 WT20     986      MECN     C2       CG1N1    0.360000       12.0110           0
     60551 WT20     986      MECN     N3       NG1T1   -0.460000       14.0070           0
     60552 WT20     992      MECN     C1       CG331   -0.170000       12.0110           0
     60553 WT20     992      MECN     H11      HGA3     0.090000        1.0080           0
     60554 WT20     992      MECN     H12      HGA3     0.090000        1.0080           0
     60555 WT20     992      MECN     H13      HGA3     0.090000        1.0080           0
     60556 WT20     992      MECN     C2       CG1N1    0.360000       12.0110           0
     60557 WT20     992      MECN     N3       NG1T1   -0.460000       14.0070           0
     60558 WT20     1000     MECN     C1       CG331   -0.170000       12.0110           0
     60559 WT20     1000     MECN     H11      HGA3     0.090000        1.0080           0
     60560 WT20     1000     MECN     H12      HGA3     0.090000        1.0080           0
     60561 WT20     1000     MECN     H13      HGA3     0.090000        1.0080           0
     60562 WT20     1000     MECN     C2       CG1N1    0.360000       12.0110           0
     60563 WT20     1000     MECN     N3       NG1T1   -0.460000       14.0070           0
     60564 WT20     1002     MECN     C1       CG331   -0.170000       12.0110           0
     60565 WT20     1002     MECN     H11      HGA3     0.090000        1.0080           0
     60566 WT20     1002     MECN     H12      HGA3     0.090000        1.0080           0
     60567 WT20     1002     MECN     H13      HGA3     0.090000        1.0080           0
     60568 WT20     1002     MECN     C2       CG1N1    0.360000       12.0110           0
     60569 WT20     1002     MECN     N3       NG1T1   -0.460000       14.0070           0
     60570 WT20     1003     MECN     C1       CG331   -0.170000       12.0110           0
     60571 WT20     1003     MECN     H11      HGA3     0.090000        1.0080           0
     60572 WT20     1003     MECN     H12      HGA3     0.090000        1.0080           0
     60573 WT20     1003     MECN     H13      HGA3     0.090000        1.0080           0
     60574 WT20     1003     MECN     C2       CG1N1    0.360000       12.0110           0
     60575 WT20     1003     MECN     N3       NG1T1   -0.460000       14.0070           0
     60576 WT20     1005     MECN     C1       CG331   -0.170000       12.0110           0
     60577 WT20     1005     MECN     H11      HGA3     0.090000        1.0080           0
     60578 WT20     1005     MECN     H12      HGA3     0.090000        1.0080           0
     60579 WT20     1005     MECN     H13      HGA3     0.090000        1.0080           0
     60580 WT20     1005     MECN     C2       CG1N1    0.360000       12.0110           0
     60581 WT20     1005     MECN     N3       NG1T1   -0.460000       14.0070           0
     60582 WT20     1017     MECN     C1       CG331   -0.170000       12.0110           0
     60583 WT20     1017     MECN     H11      HGA3     0.090000        1.0080           0
     60584 WT20     1017     MECN     H12      HGA3     0.090000        1.0080           0
     60585 WT20     1017     MECN     H13      HGA3     0.090000        1.0080           0
     60586 WT20     1017     MECN     C2       CG1N1    0.360000       12.0110           0
     60587 WT20     1017     MECN     N3       NG1T1   -0.460000       14.0070           0
     60588 WT20     1021     MECN     C1       CG331   -0.170000       12.0110           0
     60589 WT20     1021     MECN     H11      HGA3     0.090000        1.0080           0
     60590 WT20     1021     MECN     H12      HGA3     0.090000        1.0080           0
     60591 WT20     1021     MECN     H13      HGA3     0.090000        1.0080           0
     60592 WT20     1021     MECN     C2       CG1N1    0.360000       12.0110           0
     60593 WT20     1021     MECN     N3       NG1T1   -0.460000       14.0070           0
     60594 WT20     1028     MECN     C1       CG331   -0.170000       12.0110           0
     60595 WT20     1028     MECN     H11      HGA3     0.090000        1.0080           0
     60596 WT20     1028     MECN     H12      HGA3     0.090000        1.0080           0
     60597 WT20     1028     MECN     H13      HGA3     0.090000        1.0080           0
     60598 WT20     1028     MECN     C2       CG1N1    0.360000       12.0110           0
     60599 WT20     1028     MECN     N3       NG1T1   -0.460000       14.0070           0
     60600 WT20     1029     MECN     C1       CG331   -0.170000       12.0110           0
     60601 WT20     1029     MECN     H11      HGA3     0.090000        1.0080           0
     60602 WT20     1029     MECN     H12      HGA3     0.090000        1.0080           0
     60603 WT20     1029     MECN     H13      HGA3     0.090000        1.0080           0
     60604 WT20     1029     MECN     C2       CG1N1    0.360000       12.0110           0
     60605 WT20     1029     MECN     N3       NG1T1   -0.460000       14.0070           0
     60606 WT20     1030     MECN     C1       CG331   -0.170000       12.0110           0
     60607 WT20     1030     MECN     H11      HGA3     0.090000        1.0080           0
     60608 WT20     1030     MECN     H12      HGA3     0.090000        1.0080           0
     60609 WT20     1030     MECN     H13      HGA3     0.090000        1.0080           0
     60610 WT20     1030     MECN     C2       CG1N1    0.360000       12.0110           0
     60611 WT20     1030     MECN     N3       NG1T1   -0.460000       14.0070           0
     60612 WT20     1040     MECN     C1       CG331   -0.170000       12.0110           0
     60613 WT20     1040     MECN     H11      HGA3     0.090000        1.0080           0
     60614 WT20     1040     MECN     H12      HGA3     0.090000        1.0080           0
     60615 WT20     1040     MECN     H13      HGA3     0.090000        1.0080           0
     60616 WT20     1040     MECN     C2       CG1N1    0.360000       12.0110           0
     60617 WT20     1040     MECN     N3       NG1T1   -0.460000       14.0070           0
     60618 WT20     1042     MECN     C1       CG331   -0.170000       12.0110           0
     60619 WT20     1042     MECN     H11      HGA3     0.090000        1.0080           0
     60620 WT20     1042     MECN     H12      HGA3     0.090000        1.0080           0
     60621 WT20     1042     MECN     H13      HGA3     0.090000        1.0080           0
     60622 WT20     1042     MECN     C2       CG1N1    0.360000       12.0110           0
     60623 WT20     1042     MECN     N3       NG1T1   -0.460000       14.0070           0
     60624 WT20     1043     MECN     C1       CG331   -0.170000       12.0110           0
     60625 WT20     1043     MECN     H11      HGA3     0.090000        1.0080           0
     60626 WT20     1043     MECN     H12      HGA3     0.090000        1.0080           0
     60627 WT20     1043     MECN     H13      HGA3     0.090000        1.0080           0
     60628 WT20     1043     MECN     C2       CG1N1    0.360000       12.0110           0
     60629 WT20     1043     MECN     N3       NG1T1   -0.460000       14.0070           0
     60630 WT20     1049     MECN     C1       CG331   -0.170000       12.0110           0
     60631 WT20     1049     MECN     H11      HGA3     0.090000        1.0080           0
     60632 WT20     1049     MECN     H12      HGA3     0.090000        1.0080           0
     60633 WT20     1049     MECN     H13      HGA3     0.090000        1.0080           0
     60634 WT20     1049     MECN     C2       CG1N1    0.360000       12.0110           0
     60635 WT20     1049     MECN     N3       NG1T1   -0.460000       14.0070           0
     60636 WT20     1052     MECN     C1       CG331   -0.170000       12.0110           0
     60637 WT20     1052     MECN     H11      HGA3     0.090000        1.0080           0
     60638 WT20     1052     MECN     H12      HGA3     0.090000        1.0080           0
     60639 WT20     1052     MECN     H13      HGA3     0.090000        1.0080           0
     60640 WT20     1052     MECN     C2       CG1N1    0.360000       12.0110           0
     60641 WT20     1052     MECN     N3       NG1T1   -0.460000       14.0070           0
     60642 WT20     1070     MECN     C1       CG331   -0.170000       12.0110           0
     60643 WT20     1070     MECN     H11      HGA3     0.090000        1.0080           0
     60644 WT20     1070     MECN     H12      HGA3     0.090000        1.0080           0
     60645 WT20     1070     MECN     H13      HGA3     0.090000        1.0080           0
     60646 WT20     1070     MECN     C2       CG1N1    0.360000       12.0110           0
     60647 WT20     1070     MECN     N3       NG1T1   -0.460000       14.0070           0
     60648 WT20     1075     MECN     C1       CG331   -0.170000       12.0110           0
     60649 WT20     1075     MECN     H11      HGA3     0.090000        1.0080           0
     60650 WT20     1075     MECN     H12      HGA3     0.090000        1.0080           0
     60651 WT20     1075     MECN     H13      HGA3     0.090000        1.0080           0
     60652 WT20     1075     MECN     C2       CG1N1    0.360000       12.0110           0
     60653 WT20     1075     MECN     N3       NG1T1   -0.460000       14.0070           0
     60654 WT20     1083     MECN     C1       CG331   -0.170000       12.0110           0
     60655 WT20     1083     MECN     H11      HGA3     0.090000        1.0080           0
     60656 WT20     1083     MECN     H12      HGA3     0.090000        1.0080           0
     60657 WT20     1083     MECN     H13      HGA3     0.090000        1.0080           0
     60658 WT20     1083     MECN     C2       CG1N1    0.360000       12.0110           0
     60659 WT20     1083     MECN     N3       NG1T1   -0.460000       14.0070           0
     60660 WT20     1087     MECN     C1       CG331   -0.170000       12.0110           0
     60661 WT20     1087     MECN     H11      HGA3     0.090000        1.0080           0
     60662 WT20     1087     MECN     H12      HGA3     0.090000        1.0080           0
     60663 WT20     1087     MECN     H13      HGA3     0.090000        1.0080           0
     60664 WT20     1087     MECN     C2       CG1N1    0.360000       12.0110           0
     60665 WT20     1087     MECN     N3       NG1T1   -0.460000       14.0070           0
     60666 WT20     1096     MECN     C1       CG331   -0.170000       12.0110           0
     60667 WT20     1096     MECN     H11      HGA3     0.090000        1.0080           0
     60668 WT20     1096     MECN     H12      HGA3     0.090000        1.0080           0
     60669 WT20     1096     MECN     H13      HGA3     0.090000        1.0080           0
     60670 WT20     1096     MECN     C2       CG1N1    0.360000       12.0110           0
     60671 WT20     1096     MECN     N3       NG1T1   -0.460000       14.0070           0
     60672 WT20     1099     MECN     C1       CG331   -0.170000       12.0110           0
     60673 WT20     1099     MECN     H11      HGA3     0.090000        1.0080           0
     60674 WT20     1099     MECN     H12      HGA3     0.090000        1.0080           0
     60675 WT20     1099     MECN     H13      HGA3     0.090000        1.0080           0
     60676 WT20     1099     MECN     C2       CG1N1    0.360000       12.0110           0
     60677 WT20     1099     MECN     N3       NG1T1   -0.460000       14.0070           0
     60678 WT20     1100     MECN     C1       CG331   -0.170000       12.0110           0
     60679 WT20     1100     MECN     H11      HGA3     0.090000        1.0080           0
     60680 WT20     1100     MECN     H12      HGA3     0.090000        1.0080           0
     60681 WT20     1100     MECN     H13      HGA3     0.090000        1.0080           0
     60682 WT20     1100     MECN     C2       CG1N1    0.360000       12.0110           0
     60683 WT20     1100     MECN     N3       NG1T1   -0.460000       14.0070           0
     60684 WT20     1101     MECN     C1       CG331   -0.170000       12.0110           0
     60685 WT20     1101     MECN     H11      HGA3     0.090000        1.0080           0
     60686 WT20     1101     MECN     H12      HGA3     0.090000        1.0080           0
     60687 WT20     1101     MECN     H13      HGA3     0.090000        1.0080           0
     60688 WT20     1101     MECN     C2       CG1N1    0.360000       12.0110           0
     60689 WT20     1101     MECN     N3       NG1T1   -0.460000       14.0070           0
     60690 WT20     1105     MECN     C1       CG331   -0.170000       12.0110           0
     60691 WT20     1105     MECN     H11      HGA3     0.090000        1.0080           0
     60692 WT20     1105     MECN     H12      HGA3     0.090000        1.0080           0
     60693 WT20     1105     MECN     H13      HGA3     0.090000        1.0080           0
     60694 WT20     1105     MECN     C2       CG1N1    0.360000       12.0110           0
     60695 WT20     1105     MECN     N3       NG1T1   -0.460000       14.0070           0
     60696 WT20     1110     MECN     C1       CG331   -0.170000       12.0110           0
     60697 WT20     1110     MECN     H11      HGA3     0.090000        1.0080           0
     60698 WT20     1110     MECN     H12      HGA3     0.090000        1.0080           0
     60699 WT20     1110     MECN     H13      HGA3     0.090000        1.0080           0
     60700 WT20     1110     MECN     C2       CG1N1    0.360000       12.0110           0
     60701 WT20     1110     MECN     N3       NG1T1   -0.460000       14.0070           0
     60702 WT20     1112     MECN     C1       CG331   -0.170000       12.0110           0
     60703 WT20     1112     MECN     H11      HGA3     0.090000        1.0080           0
     60704 WT20     1112     MECN     H12      HGA3     0.090000        1.0080           0
     60705 WT20     1112     MECN     H13      HGA3     0.090000        1.0080           0
     60706 WT20     1112     MECN     C2       CG1N1    0.360000       12.0110           0
     60707 WT20     1112     MECN     N3       NG1T1   -0.460000       14.0070           0
     60708 WT20     1127     MECN     C1       CG331   -0.170000       12.0110           0
     60709 WT20     1127     MECN     H11      HGA3     0.090000        1.0080           0
     60710 WT20     1127     MECN     H12      HGA3     0.090000        1.0080           0
     60711 WT20     1127     MECN     H13      HGA3     0.090000        1.0080           0
     60712 WT20     1127     MECN     C2       CG1N1    0.360000       12.0110           0
     60713 WT20     1127     MECN     N3       NG1T1   -0.460000       14.0070           0
     60714 WT20     1129     MECN     C1       CG331   -0.170000       12.0110           0
     60715 WT20     1129     MECN     H11      HGA3     0.090000        1.0080           0
     60716 WT20     1129     MECN     H12      HGA3     0.090000        1.0080           0
     60717 WT20     1129     MECN     H13      HGA3     0.090000        1.0080           0
     60718 WT20     1129     MECN     C2       CG1N1    0.360000       12.0110           0
     60719 WT20     1129     MECN     N3       NG1T1   -0.460000       14.0070           0
     60720 WT20     1130     MECN     C1       CG331   -0.170000       12.0110           0
     60721 WT20     1130     MECN     H11      HGA3     0.090000        1.0080           0
     60722 WT20     1130     MECN     H12      HGA3     0.090000        1.0080           0
     60723 WT20     1130     MECN     H13      HGA3     0.090000        1.0080           0
     60724 WT20     1130     MECN     C2       CG1N1    0.360000       12.0110           0
     60725 WT20     1130     MECN     N3       NG1T1   -0.460000       14.0070           0
     60726 WT20     1134     MECN     C1       CG331   -0.170000       12.0110           0
     60727 WT20     1134     MECN     H11      HGA3     0.090000        1.0080           0
     60728 WT20     1134     MECN     H12      HGA3     0.090000        1.0080           0
     60729 WT20     1134     MECN     H13      HGA3     0.090000        1.0080           0
     60730 WT20     1134     MECN     C2       CG1N1    0.360000       12.0110           0
     60731 WT20     1134     MECN     N3       NG1T1   -0.460000       14.0070           0
     60732 WT20     1138     MECN     C1       CG331   -0.170000       12.0110           0
     60733 WT20     1138     MECN     H11      HGA3     0.090000        1.0080           0
     60734 WT20     1138     MECN     H12      HGA3     0.090000        1.0080           0
     60735 WT20     1138     MECN     H13      HGA3     0.090000        1.0080           0
     60736 WT20     1138     MECN     C2       CG1N1    0.360000       12.0110           0
     60737 WT20     1138     MECN     N3       NG1T1   -0.460000       14.0070           0
     60738 WT20     1139     MECN     C1       CG331   -0.170000       12.0110           0
     60739 WT20     1139     MECN     H11      HGA3     0.090000        1.0080           0
     60740 WT20     1139     MECN     H12      HGA3     0.090000        1.0080           0
     60741 WT20     1139     MECN     H13      HGA3     0.090000        1.0080           0
     60742 WT20     1139     MECN     C2       CG1N1    0.360000       12.0110           0
     60743 WT20     1139     MECN     N3       NG1T1   -0.460000       14.0070           0
     60744 WT20     1140     MECN     C1       CG331   -0.170000       12.0110           0
     60745 WT20     1140     MECN     H11      HGA3     0.090000        1.0080           0
     60746 WT20     1140     MECN     H12      HGA3     0.090000        1.0080           0
     60747 WT20     1140     MECN     H13      HGA3     0.090000        1.0080           0
     60748 WT20     1140     MECN     C2       CG1N1    0.360000       12.0110           0
     60749 WT20     1140     MECN     N3       NG1T1   -0.460000       14.0070           0
     60750 WT20     1142     MECN     C1       CG331   -0.170000       12.0110           0
     60751 WT20     1142     MECN     H11      HGA3     0.090000        1.0080           0
     60752 WT20     1142     MECN     H12      HGA3     0.090000        1.0080           0
     60753 WT20     1142     MECN     H13      HGA3     0.090000        1.0080           0
     60754 WT20     1142     MECN     C2       CG1N1    0.360000       12.0110           0
     60755 WT20     1142     MECN     N3       NG1T1   -0.460000       14.0070           0
     60756 WT20     1143     MECN     C1       CG331   -0.170000       12.0110           0
     60757 WT20     1143     MECN     H11      HGA3     0.090000        1.0080           0
     60758 WT20     1143     MECN     H12      HGA3     0.090000        1.0080           0
     60759 WT20     1143     MECN     H13      HGA3     0.090000        1.0080           0
     60760 WT20     1143     MECN     C2       CG1N1    0.360000       12.0110           0
     60761 WT20     1143     MECN     N3       NG1T1   -0.460000       14.0070           0
     60762 WT20     1157     MECN     C1       CG331   -0.170000       12.0110           0
     60763 WT20     1157     MECN     H11      HGA3     0.090000        1.0080           0
     60764 WT20     1157     MECN     H12      HGA3     0.090000        1.0080           0
     60765 WT20     1157     MECN     H13      HGA3     0.090000        1.0080           0
     60766 WT20     1157     MECN     C2       CG1N1    0.360000       12.0110           0
     60767 WT20     1157     MECN     N3       NG1T1   -0.460000       14.0070           0
     60768 WT20     1164     MECN     C1       CG331   -0.170000       12.0110           0
     60769 WT20     1164     MECN     H11      HGA3     0.090000        1.0080           0
     60770 WT20     1164     MECN     H12      HGA3     0.090000        1.0080           0
     60771 WT20     1164     MECN     H13      HGA3     0.090000        1.0080           0
     60772 WT20     1164     MECN     C2       CG1N1    0.360000       12.0110           0
     60773 WT20     1164     MECN     N3       NG1T1   -0.460000       14.0070           0
     60774 WT20     1165     MECN     C1       CG331   -0.170000       12.0110           0
     60775 WT20     1165     MECN     H11      HGA3     0.090000        1.0080           0
     60776 WT20     1165     MECN     H12      HGA3     0.090000        1.0080           0
     60777 WT20     1165     MECN     H13      HGA3     0.090000        1.0080           0
     60778 WT20     1165     MECN     C2       CG1N1    0.360000       12.0110           0
     60779 WT20     1165     MECN     N3       NG1T1   -0.460000       14.0070           0
     60780 WT20     1166     MECN     C1       CG331   -0.170000       12.0110           0
     60781 WT20     1166     MECN     H11      HGA3     0.090000        1.0080           0
     60782 WT20     1166     MECN     H12      HGA3     0.090000        1.0080           0
     60783 WT20     1166     MECN     H13      HGA3     0.090000        1.0080           0
     60784 WT20     1166     MECN     C2       CG1N1    0.360000       12.0110           0
     60785 WT20     1166     MECN     N3       NG1T1   -0.460000       14.0070           0
     60786 WT20     1167     MECN     C1       CG331   -0.170000       12.0110           0
     60787 WT20     1167     MECN     H11      HGA3     0.090000        1.0080           0
     60788 WT20     1167     MECN     H12      HGA3     0.090000        1.0080           0
     60789 WT20     1167     MECN     H13      HGA3     0.090000        1.0080           0
     60790 WT20     1167     MECN     C2       CG1N1    0.360000       12.0110           0
     60791 WT20     1167     MECN     N3       NG1T1   -0.460000       14.0070           0
     60792 WT20     1172     MECN     C1       CG331   -0.170000       12.0110           0
     60793 WT20     1172     MECN     H11      HGA3     0.090000        1.0080           0
     60794 WT20     1172     MECN     H12      HGA3     0.090000        1.0080           0
     60795 WT20     1172     MECN     H13      HGA3     0.090000        1.0080           0
     60796 WT20     1172     MECN     C2       CG1N1    0.360000       12.0110           0
     60797 WT20     1172     MECN     N3       NG1T1   -0.460000       14.0070           0
     60798 WT20     1173     MECN     C1       CG331   -0.170000       12.0110           0
     60799 WT20     1173     MECN     H11      HGA3     0.090000        1.0080           0
     60800 WT20     1173     MECN     H12      HGA3     0.090000        1.0080           0
     60801 WT20     1173     MECN     H13      HGA3     0.090000        1.0080           0
     60802 WT20     1173     MECN     C2       CG1N1    0.360000       12.0110           0
     60803 WT20     1173     MECN     N3       NG1T1   -0.460000       14.0070           0
     60804 WT20     1174     MECN     C1       CG331   -0.170000       12.0110           0
     60805 WT20     1174     MECN     H11      HGA3     0.090000        1.0080           0
     60806 WT20     1174     MECN     H12      HGA3     0.090000        1.0080           0
     60807 WT20     1174     MECN     H13      HGA3     0.090000        1.0080           0
     60808 WT20     1174     MECN     C2       CG1N1    0.360000       12.0110           0
     60809 WT20     1174     MECN     N3       NG1T1   -0.460000       14.0070           0
     60810 WT20     1180     MECN     C1       CG331   -0.170000       12.0110           0
     60811 WT20     1180     MECN     H11      HGA3     0.090000        1.0080           0
     60812 WT20     1180     MECN     H12      HGA3     0.090000        1.0080           0
     60813 WT20     1180     MECN     H13      HGA3     0.090000        1.0080           0
     60814 WT20     1180     MECN     C2       CG1N1    0.360000       12.0110           0
     60815 WT20     1180     MECN     N3       NG1T1   -0.460000       14.0070           0
     60816 WT20     1181     MECN     C1       CG331   -0.170000       12.0110           0
     60817 WT20     1181     MECN     H11      HGA3     0.090000        1.0080           0
     60818 WT20     1181     MECN     H12      HGA3     0.090000        1.0080           0
     60819 WT20     1181     MECN     H13      HGA3     0.090000        1.0080           0
     60820 WT20     1181     MECN     C2       CG1N1    0.360000       12.0110           0
     60821 WT20     1181     MECN     N3       NG1T1   -0.460000       14.0070           0
     60822 WT20     1190     MECN     C1       CG331   -0.170000       12.0110           0
     60823 WT20     1190     MECN     H11      HGA3     0.090000        1.0080           0
     60824 WT20     1190     MECN     H12      HGA3     0.090000        1.0080           0
     60825 WT20     1190     MECN     H13      HGA3     0.090000        1.0080           0
     60826 WT20     1190     MECN     C2       CG1N1    0.360000       12.0110           0
     60827 WT20     1190     MECN     N3       NG1T1   -0.460000       14.0070           0
     60828 WT20     1191     MECN     C1       CG331   -0.170000       12.0110           0
     60829 WT20     1191     MECN     H11      HGA3     0.090000        1.0080           0
     60830 WT20     1191     MECN     H12      HGA3     0.090000        1.0080           0
     60831 WT20     1191     MECN     H13      HGA3     0.090000        1.0080           0
     60832 WT20     1191     MECN     C2       CG1N1    0.360000       12.0110           0
     60833 WT20     1191     MECN     N3       NG1T1   -0.460000       14.0070           0
     60834 WT20     1199     MECN     C1       CG331   -0.170000       12.0110           0
     60835 WT20     1199     MECN     H11      HGA3     0.090000        1.0080           0
     60836 WT20     1199     MECN     H12      HGA3     0.090000        1.0080           0
     60837 WT20     1199     MECN     H13      HGA3     0.090000        1.0080           0
     60838 WT20     1199     MECN     C2       CG1N1    0.360000       12.0110           0
     60839 WT20     1199     MECN     N3       NG1T1   -0.460000       14.0070           0
     60840 WT20     1202     MECN     C1       CG331   -0.170000       12.0110           0
     60841 WT20     1202     MECN     H11      HGA3     0.090000        1.0080           0
     60842 WT20     1202     MECN     H12      HGA3     0.090000        1.0080           0
     60843 WT20     1202     MECN     H13      HGA3     0.090000        1.0080           0
     60844 WT20     1202     MECN     C2       CG1N1    0.360000       12.0110           0
     60845 WT20     1202     MECN     N3       NG1T1   -0.460000       14.0070           0
     60846 WT20     1207     MECN     C1       CG331   -0.170000       12.0110           0
     60847 WT20     1207     MECN     H11      HGA3     0.090000        1.0080           0
     60848 WT20     1207     MECN     H12      HGA3     0.090000        1.0080           0
     60849 WT20     1207     MECN     H13      HGA3     0.090000        1.0080           0
     60850 WT20     1207     MECN     C2       CG1N1    0.360000       12.0110           0
     60851 WT20     1207     MECN     N3       NG1T1   -0.460000       14.0070           0
     60852 WT20     1212     MECN     C1       CG331   -0.170000       12.0110           0
     60853 WT20     1212     MECN     H11      HGA3     0.090000        1.0080           0
     60854 WT20     1212     MECN     H12      HGA3     0.090000        1.0080           0
     60855 WT20     1212     MECN     H13      HGA3     0.090000        1.0080           0
     60856 WT20     1212     MECN     C2       CG1N1    0.360000       12.0110           0
     60857 WT20     1212     MECN     N3       NG1T1   -0.460000       14.0070           0
     60858 WT20     1219     MECN     C1       CG331   -0.170000       12.0110           0
     60859 WT20     1219     MECN     H11      HGA3     0.090000        1.0080           0
     60860 WT20     1219     MECN     H12      HGA3     0.090000        1.0080           0
     60861 WT20     1219     MECN     H13      HGA3     0.090000        1.0080           0
     60862 WT20     1219     MECN     C2       CG1N1    0.360000       12.0110           0
     60863 WT20     1219     MECN     N3       NG1T1   -0.460000       14.0070           0
     60864 WT20     1220     MECN     C1       CG331   -0.170000       12.0110           0
     60865 WT20     1220     MECN     H11      HGA3     0.090000        1.0080           0
     60866 WT20     1220     MECN     H12      HGA3     0.090000        1.0080           0
     60867 WT20     1220     MECN     H13      HGA3     0.090000        1.0080           0
     60868 WT20     1220     MECN     C2       CG1N1    0.360000       12.0110           0
     60869 WT20     1220     MECN     N3       NG1T1   -0.460000       14.0070           0
     60870 WT20     1223     MECN     C1       CG331   -0.170000       12.0110           0
     60871 WT20     1223     MECN     H11      HGA3     0.090000        1.0080           0
     60872 WT20     1223     MECN     H12      HGA3     0.090000        1.0080           0
     60873 WT20     1223     MECN     H13      HGA3     0.090000        1.0080           0
     60874 WT20     1223     MECN     C2       CG1N1    0.360000       12.0110           0
     60875 WT20     1223     MECN     N3       NG1T1   -0.460000       14.0070           0
     60876 WT20     1225     MECN     C1       CG331   -0.170000       12.0110           0
     60877 WT20     1225     MECN     H11      HGA3     0.090000        1.0080           0
     60878 WT20     1225     MECN     H12      HGA3     0.090000        1.0080           0
     60879 WT20     1225     MECN     H13      HGA3     0.090000        1.0080           0
     60880 WT20     1225     MECN     C2       CG1N1    0.360000       12.0110           0
     60881 WT20     1225     MECN     N3       NG1T1   -0.460000       14.0070           0
     60882 WT20     1226     MECN     C1       CG331   -0.170000       12.0110           0
     60883 WT20     1226     MECN     H11      HGA3     0.090000        1.0080           0
     60884 WT20     1226     MECN     H12      HGA3     0.090000        1.0080           0
     60885 WT20     1226     MECN     H13      HGA3     0.090000        1.0080           0
     60886 WT20     1226     MECN     C2       CG1N1    0.360000       12.0110           0
     60887 WT20     1226     MECN     N3       NG1T1   -0.460000       14.0070           0
     60888 WT20     1231     MECN     C1       CG331   -0.170000       12.0110           0
     60889 WT20     1231     MECN     H11      HGA3     0.090000        1.0080           0
     60890 WT20     1231     MECN     H12      HGA3     0.090000        1.0080           0
     60891 WT20     1231     MECN     H13      HGA3     0.090000        1.0080           0
     60892 WT20     1231     MECN     C2       CG1N1    0.360000       12.0110           0
     60893 WT20     1231     MECN     N3       NG1T1   -0.460000       14.0070           0
     60894 WT20     1232     MECN     C1       CG331   -0.170000       12.0110           0
     60895 WT20     1232     MECN     H11      HGA3     0.090000        1.0080           0
     60896 WT20     1232     MECN     H12      HGA3     0.090000        1.0080           0
     60897 WT20     1232     MECN     H13      HGA3     0.090000        1.0080           0
     60898 WT20     1232     MECN     C2       CG1N1    0.360000       12.0110           0
     60899 WT20     1232     MECN     N3       NG1T1   -0.460000       14.0070           0
     60900 WT20     1233     MECN     C1       CG331   -0.170000       12.0110           0
     60901 WT20     1233     MECN     H11      HGA3     0.090000        1.0080           0
     60902 WT20     1233     MECN     H12      HGA3     0.090000        1.0080           0
     60903 WT20     1233     MECN     H13      HGA3     0.090000        1.0080           0
     60904 WT20     1233     MECN     C2       CG1N1    0.360000       12.0110           0
     60905 WT20     1233     MECN     N3       NG1T1   -0.460000       14.0070           0
     60906 WT20     1236     MECN     C1       CG331   -0.170000       12.0110           0
     60907 WT20     1236     MECN     H11      HGA3     0.090000        1.0080           0
     60908 WT20     1236     MECN     H12      HGA3     0.090000        1.0080           0
     60909 WT20     1236     MECN     H13      HGA3     0.090000        1.0080           0
     60910 WT20     1236     MECN     C2       CG1N1    0.360000       12.0110           0
     60911 WT20     1236     MECN     N3       NG1T1   -0.460000       14.0070           0
     60912 WT20     1238     MECN     C1       CG331   -0.170000       12.0110           0
     60913 WT20     1238     MECN     H11      HGA3     0.090000        1.0080           0
     60914 WT20     1238     MECN     H12      HGA3     0.090000        1.0080           0
     60915 WT20     1238     MECN     H13      HGA3     0.090000        1.0080           0
     60916 WT20     1238     MECN     C2       CG1N1    0.360000       12.0110           0
     60917 WT20     1238     MECN     N3       NG1T1   -0.460000       14.0070           0
     60918 WT20     1247     MECN     C1       CG331   -0.170000       12.0110           0
     60919 WT20     1247     MECN     H11      HGA3     0.090000        1.0080           0
     60920 WT20     1247     MECN     H12      HGA3     0.090000        1.0080           0
     60921 WT20     1247     MECN     H13      HGA3     0.090000        1.0080           0
     60922 WT20     1247     MECN     C2       CG1N1    0.360000       12.0110           0
     60923 WT20     1247     MECN     N3       NG1T1   -0.460000       14.0070           0
     60924 WT20     1249     MECN     C1       CG331   -0.170000       12.0110           0
     60925 WT20     1249     MECN     H11      HGA3     0.090000        1.0080           0
     60926 WT20     1249     MECN     H12      HGA3     0.090000        1.0080           0
     60927 WT20     1249     MECN     H13      HGA3     0.090000        1.0080           0
     60928 WT20     1249     MECN     C2       CG1N1    0.360000       12.0110           0
     60929 WT20     1249     MECN     N3       NG1T1   -0.460000       14.0070           0
     60930 WT20     1252     MECN     C1       CG331   -0.170000       12.0110           0
     60931 WT20     1252     MECN     H11      HGA3     0.090000        1.0080           0
     60932 WT20     1252     MECN     H12      HGA3     0.090000        1.0080           0
     60933 WT20     1252     MECN     H13      HGA3     0.090000        1.0080           0
     60934 WT20     1252     MECN     C2       CG1N1    0.360000       12.0110           0
     60935 WT20     1252     MECN     N3       NG1T1   -0.460000       14.0070           0
     60936 WT20     1255     MECN     C1       CG331   -0.170000       12.0110           0
     60937 WT20     1255     MECN     H11      HGA3     0.090000        1.0080           0
     60938 WT20     1255     MECN     H12      HGA3     0.090000        1.0080           0
     60939 WT20     1255     MECN     H13      HGA3     0.090000        1.0080           0
     60940 WT20     1255     MECN     C2       CG1N1    0.360000       12.0110           0
     60941 WT20     1255     MECN     N3       NG1T1   -0.460000       14.0070           0
     60942 WT20     1256     MECN     C1       CG331   -0.170000       12.0110           0
     60943 WT20     1256     MECN     H11      HGA3     0.090000        1.0080           0
     60944 WT20     1256     MECN     H12      HGA3     0.090000        1.0080           0
     60945 WT20     1256     MECN     H13      HGA3     0.090000        1.0080           0
     60946 WT20     1256     MECN     C2       CG1N1    0.360000       12.0110           0
     60947 WT20     1256     MECN     N3       NG1T1   -0.460000       14.0070           0
     60948 WT20     1257     MECN     C1       CG331   -0.170000       12.0110           0
     60949 WT20     1257     MECN     H11      HGA3     0.090000        1.0080           0
     60950 WT20     1257     MECN     H12      HGA3     0.090000        1.0080           0
     60951 WT20     1257     MECN     H13      HGA3     0.090000        1.0080           0
     60952 WT20     1257     MECN     C2       CG1N1    0.360000       12.0110           0
     60953 WT20     1257     MECN     N3       NG1T1   -0.460000       14.0070           0
     60954 WT20     1259     MECN     C1       CG331   -0.170000       12.0110           0
     60955 WT20     1259     MECN     H11      HGA3     0.090000        1.0080           0
     60956 WT20     1259     MECN     H12      HGA3     0.090000        1.0080           0
     60957 WT20     1259     MECN     H13      HGA3     0.090000        1.0080           0
     60958 WT20     1259     MECN     C2       CG1N1    0.360000       12.0110           0
     60959 WT20     1259     MECN     N3       NG1T1   -0.460000       14.0070           0
     60960 WT20     1266     MECN     C1       CG331   -0.170000       12.0110           0
     60961 WT20     1266     MECN     H11      HGA3     0.090000        1.0080           0
     60962 WT20     1266     MECN     H12      HGA3     0.090000        1.0080           0
     60963 WT20     1266     MECN     H13      HGA3     0.090000        1.0080           0
     60964 WT20     1266     MECN     C2       CG1N1    0.360000       12.0110           0
     60965 WT20     1266     MECN     N3       NG1T1   -0.460000       14.0070           0
     60966 WT20     1270     MECN     C1       CG331   -0.170000       12.0110           0
     60967 WT20     1270     MECN     H11      HGA3     0.090000        1.0080           0
     60968 WT20     1270     MECN     H12      HGA3     0.090000        1.0080           0
     60969 WT20     1270     MECN     H13      HGA3     0.090000        1.0080           0
     60970 WT20     1270     MECN     C2       CG1N1    0.360000       12.0110           0
     60971 WT20     1270     MECN     N3       NG1T1   -0.460000       14.0070           0
     60972 WT20     1272     MECN     C1       CG331   -0.170000       12.0110           0
     60973 WT20     1272     MECN     H11      HGA3     0.090000        1.0080           0
     60974 WT20     1272     MECN     H12      HGA3     0.090000        1.0080           0
     60975 WT20     1272     MECN     H13      HGA3     0.090000        1.0080           0
     60976 WT20     1272     MECN     C2       CG1N1    0.360000       12.0110           0
     60977 WT20     1272     MECN     N3       NG1T1   -0.460000       14.0070           0
     60978 WT20     1276     MECN     C1       CG331   -0.170000       12.0110           0
     60979 WT20     1276     MECN     H11      HGA3     0.090000        1.0080           0
     60980 WT20     1276     MECN     H12      HGA3     0.090000        1.0080           0
     60981 WT20     1276     MECN     H13      HGA3     0.090000        1.0080           0
     60982 WT20     1276     MECN     C2       CG1N1    0.360000       12.0110           0
     60983 WT20     1276     MECN     N3       NG1T1   -0.460000       14.0070           0
     60984 WT20     1278     MECN     C1       CG331   -0.170000       12.0110           0
     60985 WT20     1278     MECN     H11      HGA3     0.090000        1.0080           0
     60986 WT20     1278     MECN     H12      HGA3     0.090000        1.0080           0
     60987 WT20     1278     MECN     H13      HGA3     0.090000        1.0080           0
     60988 WT20     1278     MECN     C2       CG1N1    0.360000       12.0110           0
     60989 WT20     1278     MECN     N3       NG1T1   -0.460000       14.0070           0
     60990 WT20     1280     MECN     C1       CG331   -0.170000       12.0110           0
     60991 WT20     1280     MECN     H11      HGA3     0.090000        1.0080           0
     60992 WT20     1280     MECN     H12      HGA3     0.090000        1.0080           0
     60993 WT20     1280     MECN     H13      HGA3     0.090000        1.0080           0
     60994 WT20     1280     MECN     C2       CG1N1    0.360000       12.0110           0
     60995 WT20     1280     MECN     N3       NG1T1   -0.460000       14.0070           0
     60996 WT20     1285     MECN     C1       CG331   -0.170000       12.0110           0
     60997 WT20     1285     MECN     H11      HGA3     0.090000        1.0080           0
     60998 WT20     1285     MECN     H12      HGA3     0.090000        1.0080           0
     60999 WT20     1285     MECN     H13      HGA3     0.090000        1.0080           0
     61000 WT20     1285     MECN     C2       CG1N1    0.360000       12.0110           0
     61001 WT20     1285     MECN     N3       NG1T1   -0.460000       14.0070           0
     61002 WT20     1287     MECN     C1       CG331   -0.170000       12.0110           0
     61003 WT20     1287     MECN     H11      HGA3     0.090000        1.0080           0
     61004 WT20     1287     MECN     H12      HGA3     0.090000        1.0080           0
     61005 WT20     1287     MECN     H13      HGA3     0.090000        1.0080           0
     61006 WT20     1287     MECN     C2       CG1N1    0.360000       12.0110           0
     61007 WT20     1287     MECN     N3       NG1T1   -0.460000       14.0070           0
     61008 WT20     1289     MECN     C1       CG331   -0.170000       12.0110           0
     61009 WT20     1289     MECN     H11      HGA3     0.090000        1.0080           0
     61010 WT20     1289     MECN     H12      HGA3     0.090000        1.0080           0
     61011 WT20     1289     MECN     H13      HGA3     0.090000        1.0080           0
     61012 WT20     1289     MECN     C2       CG1N1    0.360000       12.0110           0
     61013 WT20     1289     MECN     N3       NG1T1   -0.460000       14.0070           0
     61014 WT20     1290     MECN     C1       CG331   -0.170000       12.0110           0
     61015 WT20     1290     MECN     H11      HGA3     0.090000        1.0080           0
     61016 WT20     1290     MECN     H12      HGA3     0.090000        1.0080           0
     61017 WT20     1290     MECN     H13      HGA3     0.090000        1.0080           0
     61018 WT20     1290     MECN     C2       CG1N1    0.360000       12.0110           0
     61019 WT20     1290     MECN     N3       NG1T1   -0.460000       14.0070           0
     61020 WT20     1295     MECN     C1       CG331   -0.170000       12.0110           0
     61021 WT20     1295     MECN     H11      HGA3     0.090000        1.0080           0
     61022 WT20     1295     MECN     H12      HGA3     0.090000        1.0080           0
     61023 WT20     1295     MECN     H13      HGA3     0.090000        1.0080           0
     61024 WT20     1295     MECN     C2       CG1N1    0.360000       12.0110           0
     61025 WT20     1295     MECN     N3       NG1T1   -0.460000       14.0070           0
     61026 WT20     1299     MECN     C1       CG331   -0.170000       12.0110           0
     61027 WT20     1299     MECN     H11      HGA3     0.090000        1.0080           0
     61028 WT20     1299     MECN     H12      HGA3     0.090000        1.0080           0
     61029 WT20     1299     MECN     H13      HGA3     0.090000        1.0080           0
     61030 WT20     1299     MECN     C2       CG1N1    0.360000       12.0110           0
     61031 WT20     1299     MECN     N3       NG1T1   -0.460000       14.0070           0
     61032 WT20     1302     MECN     C1       CG331   -0.170000       12.0110           0
     61033 WT20     1302     MECN     H11      HGA3     0.090000        1.0080           0
     61034 WT20     1302     MECN     H12      HGA3     0.090000        1.0080           0
     61035 WT20     1302     MECN     H13      HGA3     0.090000        1.0080           0
     61036 WT20     1302     MECN     C2       CG1N1    0.360000       12.0110           0
     61037 WT20     1302     MECN     N3       NG1T1   -0.460000       14.0070           0
     61038 WT20     1310     MECN     C1       CG331   -0.170000       12.0110           0
     61039 WT20     1310     MECN     H11      HGA3     0.090000        1.0080           0
     61040 WT20     1310     MECN     H12      HGA3     0.090000        1.0080           0
     61041 WT20     1310     MECN     H13      HGA3     0.090000        1.0080           0
     61042 WT20     1310     MECN     C2       CG1N1    0.360000       12.0110           0
     61043 WT20     1310     MECN     N3       NG1T1   -0.460000       14.0070           0
     61044 WT20     1311     MECN     C1       CG331   -0.170000       12.0110           0
     61045 WT20     1311     MECN     H11      HGA3     0.090000        1.0080           0
     61046 WT20     1311     MECN     H12      HGA3     0.090000        1.0080           0
     61047 WT20     1311     MECN     H13      HGA3     0.090000        1.0080           0
     61048 WT20     1311     MECN     C2       CG1N1    0.360000       12.0110           0
     61049 WT20     1311     MECN     N3       NG1T1   -0.460000       14.0070           0
     61050 WT20     1312     MECN     C1       CG331   -0.170000       12.0110           0
     61051 WT20     1312     MECN     H11      HGA3     0.090000        1.0080           0
     61052 WT20     1312     MECN     H12      HGA3     0.090000        1.0080           0
     61053 WT20     1312     MECN     H13      HGA3     0.090000        1.0080           0
     61054 WT20     1312     MECN     C2       CG1N1    0.360000       12.0110           0
     61055 WT20     1312     MECN     N3       NG1T1   -0.460000       14.0070           0
     61056 WT20     1313     MECN     C1       CG331   -0.170000       12.0110           0
     61057 WT20     1313     MECN     H11      HGA3     0.090000        1.0080           0
     61058 WT20     1313     MECN     H12      HGA3     0.090000        1.0080           0
     61059 WT20     1313     MECN     H13      HGA3     0.090000        1.0080           0
     61060 WT20     1313     MECN     C2       CG1N1    0.360000       12.0110           0
     61061 WT20     1313     MECN     N3       NG1T1   -0.460000       14.0070           0
     61062 WT20     1316     MECN     C1       CG331   -0.170000       12.0110           0
     61063 WT20     1316     MECN     H11      HGA3     0.090000        1.0080           0
     61064 WT20     1316     MECN     H12      HGA3     0.090000        1.0080           0
     61065 WT20     1316     MECN     H13      HGA3     0.090000        1.0080           0
     61066 WT20     1316     MECN     C2       CG1N1    0.360000       12.0110           0
     61067 WT20     1316     MECN     N3       NG1T1   -0.460000       14.0070           0
     61068 WT20     1320     MECN     C1       CG331   -0.170000       12.0110           0
     61069 WT20     1320     MECN     H11      HGA3     0.090000        1.0080           0
     61070 WT20     1320     MECN     H12      HGA3     0.090000        1.0080           0
     61071 WT20     1320     MECN     H13      HGA3     0.090000        1.0080           0
     61072 WT20     1320     MECN     C2       CG1N1    0.360000       12.0110           0
     61073 WT20     1320     MECN     N3       NG1T1   -0.460000       14.0070           0
     61074 WT20     1327     MECN     C1       CG331   -0.170000       12.0110           0
     61075 WT20     1327     MECN     H11      HGA3     0.090000        1.0080           0
     61076 WT20     1327     MECN     H12      HGA3     0.090000        1.0080           0
     61077 WT20     1327     MECN     H13      HGA3     0.090000        1.0080           0
     61078 WT20     1327     MECN     C2       CG1N1    0.360000       12.0110           0
     61079 WT20     1327     MECN     N3       NG1T1   -0.460000       14.0070           0
     61080 WT20     1330     MECN     C1       CG331   -0.170000       12.0110           0
     61081 WT20     1330     MECN     H11      HGA3     0.090000        1.0080           0
     61082 WT20     1330     MECN     H12      HGA3     0.090000        1.0080           0
     61083 WT20     1330     MECN     H13      HGA3     0.090000        1.0080           0
     61084 WT20     1330     MECN     C2       CG1N1    0.360000       12.0110           0
     61085 WT20     1330     MECN     N3       NG1T1   -0.460000       14.0070           0
     61086 WT21     6        MECN     C1       CG331   -0.170000       12.0110           0
     61087 WT21     6        MECN     H11      HGA3     0.090000        1.0080           0
     61088 WT21     6        MECN     H12      HGA3     0.090000        1.0080           0
     61089 WT21     6        MECN     H13      HGA3     0.090000        1.0080           0
     61090 WT21     6        MECN     C2       CG1N1    0.360000       12.0110           0
     61091 WT21     6        MECN     N3       NG1T1   -0.460000       14.0070           0
     61092 WT21     10       MECN     C1       CG331   -0.170000       12.0110           0
     61093 WT21     10       MECN     H11      HGA3     0.090000        1.0080           0
     61094 WT21     10       MECN     H12      HGA3     0.090000        1.0080           0
     61095 WT21     10       MECN     H13      HGA3     0.090000        1.0080           0
     61096 WT21     10       MECN     C2       CG1N1    0.360000       12.0110           0
     61097 WT21     10       MECN     N3       NG1T1   -0.460000       14.0070           0
     61098 WT21     18       MECN     C1       CG331   -0.170000       12.0110           0
     61099 WT21     18       MECN     H11      HGA3     0.090000        1.0080           0
     61100 WT21     18       MECN     H12      HGA3     0.090000        1.0080           0
     61101 WT21     18       MECN     H13      HGA3     0.090000        1.0080           0
     61102 WT21     18       MECN     C2       CG1N1    0.360000       12.0110           0
     61103 WT21     18       MECN     N3       NG1T1   -0.460000       14.0070           0
     61104 WT21     21       MECN     C1       CG331   -0.170000       12.0110           0
     61105 WT21     21       MECN     H11      HGA3     0.090000        1.0080           0
     61106 WT21     21       MECN     H12      HGA3     0.090000        1.0080           0
     61107 WT21     21       MECN     H13      HGA3     0.090000        1.0080           0
     61108 WT21     21       MECN     C2       CG1N1    0.360000       12.0110           0
     61109 WT21     21       MECN     N3       NG1T1   -0.460000       14.0070           0
     61110 WT21     27       MECN     C1       CG331   -0.170000       12.0110           0
     61111 WT21     27       MECN     H11      HGA3     0.090000        1.0080           0
     61112 WT21     27       MECN     H12      HGA3     0.090000        1.0080           0
     61113 WT21     27       MECN     H13      HGA3     0.090000        1.0080           0
     61114 WT21     27       MECN     C2       CG1N1    0.360000       12.0110           0
     61115 WT21     27       MECN     N3       NG1T1   -0.460000       14.0070           0
     61116 WT21     28       MECN     C1       CG331   -0.170000       12.0110           0
     61117 WT21     28       MECN     H11      HGA3     0.090000        1.0080           0
     61118 WT21     28       MECN     H12      HGA3     0.090000        1.0080           0
     61119 WT21     28       MECN     H13      HGA3     0.090000        1.0080           0
     61120 WT21     28       MECN     C2       CG1N1    0.360000       12.0110           0
     61121 WT21     28       MECN     N3       NG1T1   -0.460000       14.0070           0
     61122 WT21     29       MECN     C1       CG331   -0.170000       12.0110           0
     61123 WT21     29       MECN     H11      HGA3     0.090000        1.0080           0
     61124 WT21     29       MECN     H12      HGA3     0.090000        1.0080           0
     61125 WT21     29       MECN     H13      HGA3     0.090000        1.0080           0
     61126 WT21     29       MECN     C2       CG1N1    0.360000       12.0110           0
     61127 WT21     29       MECN     N3       NG1T1   -0.460000       14.0070           0
     61128 WT21     32       MECN     C1       CG331   -0.170000       12.0110           0
     61129 WT21     32       MECN     H11      HGA3     0.090000        1.0080           0
     61130 WT21     32       MECN     H12      HGA3     0.090000        1.0080           0
     61131 WT21     32       MECN     H13      HGA3     0.090000        1.0080           0
     61132 WT21     32       MECN     C2       CG1N1    0.360000       12.0110           0
     61133 WT21     32       MECN     N3       NG1T1   -0.460000       14.0070           0
     61134 WT21     38       MECN     C1       CG331   -0.170000       12.0110           0
     61135 WT21     38       MECN     H11      HGA3     0.090000        1.0080           0
     61136 WT21     38       MECN     H12      HGA3     0.090000        1.0080           0
     61137 WT21     38       MECN     H13      HGA3     0.090000        1.0080           0
     61138 WT21     38       MECN     C2       CG1N1    0.360000       12.0110           0
     61139 WT21     38       MECN     N3       NG1T1   -0.460000       14.0070           0
     61140 WT21     44       MECN     C1       CG331   -0.170000       12.0110           0
     61141 WT21     44       MECN     H11      HGA3     0.090000        1.0080           0
     61142 WT21     44       MECN     H12      HGA3     0.090000        1.0080           0
     61143 WT21     44       MECN     H13      HGA3     0.090000        1.0080           0
     61144 WT21     44       MECN     C2       CG1N1    0.360000       12.0110           0
     61145 WT21     44       MECN     N3       NG1T1   -0.460000       14.0070           0
     61146 WT21     47       MECN     C1       CG331   -0.170000       12.0110           0
     61147 WT21     47       MECN     H11      HGA3     0.090000        1.0080           0
     61148 WT21     47       MECN     H12      HGA3     0.090000        1.0080           0
     61149 WT21     47       MECN     H13      HGA3     0.090000        1.0080           0
     61150 WT21     47       MECN     C2       CG1N1    0.360000       12.0110           0
     61151 WT21     47       MECN     N3       NG1T1   -0.460000       14.0070           0
     61152 WT21     49       MECN     C1       CG331   -0.170000       12.0110           0
     61153 WT21     49       MECN     H11      HGA3     0.090000        1.0080           0
     61154 WT21     49       MECN     H12      HGA3     0.090000        1.0080           0
     61155 WT21     49       MECN     H13      HGA3     0.090000        1.0080           0
     61156 WT21     49       MECN     C2       CG1N1    0.360000       12.0110           0
     61157 WT21     49       MECN     N3       NG1T1   -0.460000       14.0070           0
     61158 WT21     55       MECN     C1       CG331   -0.170000       12.0110           0
     61159 WT21     55       MECN     H11      HGA3     0.090000        1.0080           0
     61160 WT21     55       MECN     H12      HGA3     0.090000        1.0080           0
     61161 WT21     55       MECN     H13      HGA3     0.090000        1.0080           0
     61162 WT21     55       MECN     C2       CG1N1    0.360000       12.0110           0
     61163 WT21     55       MECN     N3       NG1T1   -0.460000       14.0070           0
     61164 WT21     61       MECN     C1       CG331   -0.170000       12.0110           0
     61165 WT21     61       MECN     H11      HGA3     0.090000        1.0080           0
     61166 WT21     61       MECN     H12      HGA3     0.090000        1.0080           0
     61167 WT21     61       MECN     H13      HGA3     0.090000        1.0080           0
     61168 WT21     61       MECN     C2       CG1N1    0.360000       12.0110           0
     61169 WT21     61       MECN     N3       NG1T1   -0.460000       14.0070           0
     61170 WT21     64       MECN     C1       CG331   -0.170000       12.0110           0
     61171 WT21     64       MECN     H11      HGA3     0.090000        1.0080           0
     61172 WT21     64       MECN     H12      HGA3     0.090000        1.0080           0
     61173 WT21     64       MECN     H13      HGA3     0.090000        1.0080           0
     61174 WT21     64       MECN     C2       CG1N1    0.360000       12.0110           0
     61175 WT21     64       MECN     N3       NG1T1   -0.460000       14.0070           0
     61176 WT21     65       MECN     C1       CG331   -0.170000       12.0110           0
     61177 WT21     65       MECN     H11      HGA3     0.090000        1.0080           0
     61178 WT21     65       MECN     H12      HGA3     0.090000        1.0080           0
     61179 WT21     65       MECN     H13      HGA3     0.090000        1.0080           0
     61180 WT21     65       MECN     C2       CG1N1    0.360000       12.0110           0
     61181 WT21     65       MECN     N3       NG1T1   -0.460000       14.0070           0
     61182 WT21     66       MECN     C1       CG331   -0.170000       12.0110           0
     61183 WT21     66       MECN     H11      HGA3     0.090000        1.0080           0
     61184 WT21     66       MECN     H12      HGA3     0.090000        1.0080           0
     61185 WT21     66       MECN     H13      HGA3     0.090000        1.0080           0
     61186 WT21     66       MECN     C2       CG1N1    0.360000       12.0110           0
     61187 WT21     66       MECN     N3       NG1T1   -0.460000       14.0070           0
     61188 WT21     70       MECN     C1       CG331   -0.170000       12.0110           0
     61189 WT21     70       MECN     H11      HGA3     0.090000        1.0080           0
     61190 WT21     70       MECN     H12      HGA3     0.090000        1.0080           0
     61191 WT21     70       MECN     H13      HGA3     0.090000        1.0080           0
     61192 WT21     70       MECN     C2       CG1N1    0.360000       12.0110           0
     61193 WT21     70       MECN     N3       NG1T1   -0.460000       14.0070           0
     61194 WT21     83       MECN     C1       CG331   -0.170000       12.0110           0
     61195 WT21     83       MECN     H11      HGA3     0.090000        1.0080           0
     61196 WT21     83       MECN     H12      HGA3     0.090000        1.0080           0
     61197 WT21     83       MECN     H13      HGA3     0.090000        1.0080           0
     61198 WT21     83       MECN     C2       CG1N1    0.360000       12.0110           0
     61199 WT21     83       MECN     N3       NG1T1   -0.460000       14.0070           0
     61200 WT21     88       MECN     C1       CG331   -0.170000       12.0110           0
     61201 WT21     88       MECN     H11      HGA3     0.090000        1.0080           0
     61202 WT21     88       MECN     H12      HGA3     0.090000        1.0080           0
     61203 WT21     88       MECN     H13      HGA3     0.090000        1.0080           0
     61204 WT21     88       MECN     C2       CG1N1    0.360000       12.0110           0
     61205 WT21     88       MECN     N3       NG1T1   -0.460000       14.0070           0
     61206 WT21     89       MECN     C1       CG331   -0.170000       12.0110           0
     61207 WT21     89       MECN     H11      HGA3     0.090000        1.0080           0
     61208 WT21     89       MECN     H12      HGA3     0.090000        1.0080           0
     61209 WT21     89       MECN     H13      HGA3     0.090000        1.0080           0
     61210 WT21     89       MECN     C2       CG1N1    0.360000       12.0110           0
     61211 WT21     89       MECN     N3       NG1T1   -0.460000       14.0070           0
     61212 WT21     96       MECN     C1       CG331   -0.170000       12.0110           0
     61213 WT21     96       MECN     H11      HGA3     0.090000        1.0080           0
     61214 WT21     96       MECN     H12      HGA3     0.090000        1.0080           0
     61215 WT21     96       MECN     H13      HGA3     0.090000        1.0080           0
     61216 WT21     96       MECN     C2       CG1N1    0.360000       12.0110           0
     61217 WT21     96       MECN     N3       NG1T1   -0.460000       14.0070           0
     61218 WT21     106      MECN     C1       CG331   -0.170000       12.0110           0
     61219 WT21     106      MECN     H11      HGA3     0.090000        1.0080           0
     61220 WT21     106      MECN     H12      HGA3     0.090000        1.0080           0
     61221 WT21     106      MECN     H13      HGA3     0.090000        1.0080           0
     61222 WT21     106      MECN     C2       CG1N1    0.360000       12.0110           0
     61223 WT21     106      MECN     N3       NG1T1   -0.460000       14.0070           0
     61224 WT21     108      MECN     C1       CG331   -0.170000       12.0110           0
     61225 WT21     108      MECN     H11      HGA3     0.090000        1.0080           0
     61226 WT21     108      MECN     H12      HGA3     0.090000        1.0080           0
     61227 WT21     108      MECN     H13      HGA3     0.090000        1.0080           0
     61228 WT21     108      MECN     C2       CG1N1    0.360000       12.0110           0
     61229 WT21     108      MECN     N3       NG1T1   -0.460000       14.0070           0
     61230 WT21     112      MECN     C1       CG331   -0.170000       12.0110           0
     61231 WT21     112      MECN     H11      HGA3     0.090000        1.0080           0
     61232 WT21     112      MECN     H12      HGA3     0.090000        1.0080           0
     61233 WT21     112      MECN     H13      HGA3     0.090000        1.0080           0
     61234 WT21     112      MECN     C2       CG1N1    0.360000       12.0110           0
     61235 WT21     112      MECN     N3       NG1T1   -0.460000       14.0070           0
     61236 WT21     113      MECN     C1       CG331   -0.170000       12.0110           0
     61237 WT21     113      MECN     H11      HGA3     0.090000        1.0080           0
     61238 WT21     113      MECN     H12      HGA3     0.090000        1.0080           0
     61239 WT21     113      MECN     H13      HGA3     0.090000        1.0080           0
     61240 WT21     113      MECN     C2       CG1N1    0.360000       12.0110           0
     61241 WT21     113      MECN     N3       NG1T1   -0.460000       14.0070           0
     61242 WT21     117      MECN     C1       CG331   -0.170000       12.0110           0
     61243 WT21     117      MECN     H11      HGA3     0.090000        1.0080           0
     61244 WT21     117      MECN     H12      HGA3     0.090000        1.0080           0
     61245 WT21     117      MECN     H13      HGA3     0.090000        1.0080           0
     61246 WT21     117      MECN     C2       CG1N1    0.360000       12.0110           0
     61247 WT21     117      MECN     N3       NG1T1   -0.460000       14.0070           0
     61248 WT21     118      MECN     C1       CG331   -0.170000       12.0110           0
     61249 WT21     118      MECN     H11      HGA3     0.090000        1.0080           0
     61250 WT21     118      MECN     H12      HGA3     0.090000        1.0080           0
     61251 WT21     118      MECN     H13      HGA3     0.090000        1.0080           0
     61252 WT21     118      MECN     C2       CG1N1    0.360000       12.0110           0
     61253 WT21     118      MECN     N3       NG1T1   -0.460000       14.0070           0
     61254 WT21     119      MECN     C1       CG331   -0.170000       12.0110           0
     61255 WT21     119      MECN     H11      HGA3     0.090000        1.0080           0
     61256 WT21     119      MECN     H12      HGA3     0.090000        1.0080           0
     61257 WT21     119      MECN     H13      HGA3     0.090000        1.0080           0
     61258 WT21     119      MECN     C2       CG1N1    0.360000       12.0110           0
     61259 WT21     119      MECN     N3       NG1T1   -0.460000       14.0070           0
     61260 WT21     122      MECN     C1       CG331   -0.170000       12.0110           0
     61261 WT21     122      MECN     H11      HGA3     0.090000        1.0080           0
     61262 WT21     122      MECN     H12      HGA3     0.090000        1.0080           0
     61263 WT21     122      MECN     H13      HGA3     0.090000        1.0080           0
     61264 WT21     122      MECN     C2       CG1N1    0.360000       12.0110           0
     61265 WT21     122      MECN     N3       NG1T1   -0.460000       14.0070           0
     61266 WT21     123      MECN     C1       CG331   -0.170000       12.0110           0
     61267 WT21     123      MECN     H11      HGA3     0.090000        1.0080           0
     61268 WT21     123      MECN     H12      HGA3     0.090000        1.0080           0
     61269 WT21     123      MECN     H13      HGA3     0.090000        1.0080           0
     61270 WT21     123      MECN     C2       CG1N1    0.360000       12.0110           0
     61271 WT21     123      MECN     N3       NG1T1   -0.460000       14.0070           0
     61272 WT21     124      MECN     C1       CG331   -0.170000       12.0110           0
     61273 WT21     124      MECN     H11      HGA3     0.090000        1.0080           0
     61274 WT21     124      MECN     H12      HGA3     0.090000        1.0080           0
     61275 WT21     124      MECN     H13      HGA3     0.090000        1.0080           0
     61276 WT21     124      MECN     C2       CG1N1    0.360000       12.0110           0
     61277 WT21     124      MECN     N3       NG1T1   -0.460000       14.0070           0
     61278 WT21     127      MECN     C1       CG331   -0.170000       12.0110           0
     61279 WT21     127      MECN     H11      HGA3     0.090000        1.0080           0
     61280 WT21     127      MECN     H12      HGA3     0.090000        1.0080           0
     61281 WT21     127      MECN     H13      HGA3     0.090000        1.0080           0
     61282 WT21     127      MECN     C2       CG1N1    0.360000       12.0110           0
     61283 WT21     127      MECN     N3       NG1T1   -0.460000       14.0070           0
     61284 WT21     135      MECN     C1       CG331   -0.170000       12.0110           0
     61285 WT21     135      MECN     H11      HGA3     0.090000        1.0080           0
     61286 WT21     135      MECN     H12      HGA3     0.090000        1.0080           0
     61287 WT21     135      MECN     H13      HGA3     0.090000        1.0080           0
     61288 WT21     135      MECN     C2       CG1N1    0.360000       12.0110           0
     61289 WT21     135      MECN     N3       NG1T1   -0.460000       14.0070           0
     61290 WT21     145      MECN     C1       CG331   -0.170000       12.0110           0
     61291 WT21     145      MECN     H11      HGA3     0.090000        1.0080           0
     61292 WT21     145      MECN     H12      HGA3     0.090000        1.0080           0
     61293 WT21     145      MECN     H13      HGA3     0.090000        1.0080           0
     61294 WT21     145      MECN     C2       CG1N1    0.360000       12.0110           0
     61295 WT21     145      MECN     N3       NG1T1   -0.460000       14.0070           0
     61296 WT21     150      MECN     C1       CG331   -0.170000       12.0110           0
     61297 WT21     150      MECN     H11      HGA3     0.090000        1.0080           0
     61298 WT21     150      MECN     H12      HGA3     0.090000        1.0080           0
     61299 WT21     150      MECN     H13      HGA3     0.090000        1.0080           0
     61300 WT21     150      MECN     C2       CG1N1    0.360000       12.0110           0
     61301 WT21     150      MECN     N3       NG1T1   -0.460000       14.0070           0
     61302 WT21     151      MECN     C1       CG331   -0.170000       12.0110           0
     61303 WT21     151      MECN     H11      HGA3     0.090000        1.0080           0
     61304 WT21     151      MECN     H12      HGA3     0.090000        1.0080           0
     61305 WT21     151      MECN     H13      HGA3     0.090000        1.0080           0
     61306 WT21     151      MECN     C2       CG1N1    0.360000       12.0110           0
     61307 WT21     151      MECN     N3       NG1T1   -0.460000       14.0070           0
     61308 WT21     154      MECN     C1       CG331   -0.170000       12.0110           0
     61309 WT21     154      MECN     H11      HGA3     0.090000        1.0080           0
     61310 WT21     154      MECN     H12      HGA3     0.090000        1.0080           0
     61311 WT21     154      MECN     H13      HGA3     0.090000        1.0080           0
     61312 WT21     154      MECN     C2       CG1N1    0.360000       12.0110           0
     61313 WT21     154      MECN     N3       NG1T1   -0.460000       14.0070           0
     61314 WT21     164      MECN     C1       CG331   -0.170000       12.0110           0
     61315 WT21     164      MECN     H11      HGA3     0.090000        1.0080           0
     61316 WT21     164      MECN     H12      HGA3     0.090000        1.0080           0
     61317 WT21     164      MECN     H13      HGA3     0.090000        1.0080           0
     61318 WT21     164      MECN     C2       CG1N1    0.360000       12.0110           0
     61319 WT21     164      MECN     N3       NG1T1   -0.460000       14.0070           0
     61320 WT21     168      MECN     C1       CG331   -0.170000       12.0110           0
     61321 WT21     168      MECN     H11      HGA3     0.090000        1.0080           0
     61322 WT21     168      MECN     H12      HGA3     0.090000        1.0080           0
     61323 WT21     168      MECN     H13      HGA3     0.090000        1.0080           0
     61324 WT21     168      MECN     C2       CG1N1    0.360000       12.0110           0
     61325 WT21     168      MECN     N3       NG1T1   -0.460000       14.0070           0
     61326 WT21     175      MECN     C1       CG331   -0.170000       12.0110           0
     61327 WT21     175      MECN     H11      HGA3     0.090000        1.0080           0
     61328 WT21     175      MECN     H12      HGA3     0.090000        1.0080           0
     61329 WT21     175      MECN     H13      HGA3     0.090000        1.0080           0
     61330 WT21     175      MECN     C2       CG1N1    0.360000       12.0110           0
     61331 WT21     175      MECN     N3       NG1T1   -0.460000       14.0070           0
     61332 WT21     181      MECN     C1       CG331   -0.170000       12.0110           0
     61333 WT21     181      MECN     H11      HGA3     0.090000        1.0080           0
     61334 WT21     181      MECN     H12      HGA3     0.090000        1.0080           0
     61335 WT21     181      MECN     H13      HGA3     0.090000        1.0080           0
     61336 WT21     181      MECN     C2       CG1N1    0.360000       12.0110           0
     61337 WT21     181      MECN     N3       NG1T1   -0.460000       14.0070           0
     61338 WT21     182      MECN     C1       CG331   -0.170000       12.0110           0
     61339 WT21     182      MECN     H11      HGA3     0.090000        1.0080           0
     61340 WT21     182      MECN     H12      HGA3     0.090000        1.0080           0
     61341 WT21     182      MECN     H13      HGA3     0.090000        1.0080           0
     61342 WT21     182      MECN     C2       CG1N1    0.360000       12.0110           0
     61343 WT21     182      MECN     N3       NG1T1   -0.460000       14.0070           0
     61344 WT21     184      MECN     C1       CG331   -0.170000       12.0110           0
     61345 WT21     184      MECN     H11      HGA3     0.090000        1.0080           0
     61346 WT21     184      MECN     H12      HGA3     0.090000        1.0080           0
     61347 WT21     184      MECN     H13      HGA3     0.090000        1.0080           0
     61348 WT21     184      MECN     C2       CG1N1    0.360000       12.0110           0
     61349 WT21     184      MECN     N3       NG1T1   -0.460000       14.0070           0
     61350 WT21     186      MECN     C1       CG331   -0.170000       12.0110           0
     61351 WT21     186      MECN     H11      HGA3     0.090000        1.0080           0
     61352 WT21     186      MECN     H12      HGA3     0.090000        1.0080           0
     61353 WT21     186      MECN     H13      HGA3     0.090000        1.0080           0
     61354 WT21     186      MECN     C2       CG1N1    0.360000       12.0110           0
     61355 WT21     186      MECN     N3       NG1T1   -0.460000       14.0070           0
     61356 WT21     190      MECN     C1       CG331   -0.170000       12.0110           0
     61357 WT21     190      MECN     H11      HGA3     0.090000        1.0080           0
     61358 WT21     190      MECN     H12      HGA3     0.090000        1.0080           0
     61359 WT21     190      MECN     H13      HGA3     0.090000        1.0080           0
     61360 WT21     190      MECN     C2       CG1N1    0.360000       12.0110           0
     61361 WT21     190      MECN     N3       NG1T1   -0.460000       14.0070           0
     61362 WT21     199      MECN     C1       CG331   -0.170000       12.0110           0
     61363 WT21     199      MECN     H11      HGA3     0.090000        1.0080           0
     61364 WT21     199      MECN     H12      HGA3     0.090000        1.0080           0
     61365 WT21     199      MECN     H13      HGA3     0.090000        1.0080           0
     61366 WT21     199      MECN     C2       CG1N1    0.360000       12.0110           0
     61367 WT21     199      MECN     N3       NG1T1   -0.460000       14.0070           0
     61368 WT21     201      MECN     C1       CG331   -0.170000       12.0110           0
     61369 WT21     201      MECN     H11      HGA3     0.090000        1.0080           0
     61370 WT21     201      MECN     H12      HGA3     0.090000        1.0080           0
     61371 WT21     201      MECN     H13      HGA3     0.090000        1.0080           0
     61372 WT21     201      MECN     C2       CG1N1    0.360000       12.0110           0
     61373 WT21     201      MECN     N3       NG1T1   -0.460000       14.0070           0
     61374 WT21     203      MECN     C1       CG331   -0.170000       12.0110           0
     61375 WT21     203      MECN     H11      HGA3     0.090000        1.0080           0
     61376 WT21     203      MECN     H12      HGA3     0.090000        1.0080           0
     61377 WT21     203      MECN     H13      HGA3     0.090000        1.0080           0
     61378 WT21     203      MECN     C2       CG1N1    0.360000       12.0110           0
     61379 WT21     203      MECN     N3       NG1T1   -0.460000       14.0070           0
     61380 WT21     205      MECN     C1       CG331   -0.170000       12.0110           0
     61381 WT21     205      MECN     H11      HGA3     0.090000        1.0080           0
     61382 WT21     205      MECN     H12      HGA3     0.090000        1.0080           0
     61383 WT21     205      MECN     H13      HGA3     0.090000        1.0080           0
     61384 WT21     205      MECN     C2       CG1N1    0.360000       12.0110           0
     61385 WT21     205      MECN     N3       NG1T1   -0.460000       14.0070           0
     61386 WT21     212      MECN     C1       CG331   -0.170000       12.0110           0
     61387 WT21     212      MECN     H11      HGA3     0.090000        1.0080           0
     61388 WT21     212      MECN     H12      HGA3     0.090000        1.0080           0
     61389 WT21     212      MECN     H13      HGA3     0.090000        1.0080           0
     61390 WT21     212      MECN     C2       CG1N1    0.360000       12.0110           0
     61391 WT21     212      MECN     N3       NG1T1   -0.460000       14.0070           0
     61392 WT21     225      MECN     C1       CG331   -0.170000       12.0110           0
     61393 WT21     225      MECN     H11      HGA3     0.090000        1.0080           0
     61394 WT21     225      MECN     H12      HGA3     0.090000        1.0080           0
     61395 WT21     225      MECN     H13      HGA3     0.090000        1.0080           0
     61396 WT21     225      MECN     C2       CG1N1    0.360000       12.0110           0
     61397 WT21     225      MECN     N3       NG1T1   -0.460000       14.0070           0
     61398 WT21     229      MECN     C1       CG331   -0.170000       12.0110           0
     61399 WT21     229      MECN     H11      HGA3     0.090000        1.0080           0
     61400 WT21     229      MECN     H12      HGA3     0.090000        1.0080           0
     61401 WT21     229      MECN     H13      HGA3     0.090000        1.0080           0
     61402 WT21     229      MECN     C2       CG1N1    0.360000       12.0110           0
     61403 WT21     229      MECN     N3       NG1T1   -0.460000       14.0070           0
     61404 WT21     231      MECN     C1       CG331   -0.170000       12.0110           0
     61405 WT21     231      MECN     H11      HGA3     0.090000        1.0080           0
     61406 WT21     231      MECN     H12      HGA3     0.090000        1.0080           0
     61407 WT21     231      MECN     H13      HGA3     0.090000        1.0080           0
     61408 WT21     231      MECN     C2       CG1N1    0.360000       12.0110           0
     61409 WT21     231      MECN     N3       NG1T1   -0.460000       14.0070           0
     61410 WT21     246      MECN     C1       CG331   -0.170000       12.0110           0
     61411 WT21     246      MECN     H11      HGA3     0.090000        1.0080           0
     61412 WT21     246      MECN     H12      HGA3     0.090000        1.0080           0
     61413 WT21     246      MECN     H13      HGA3     0.090000        1.0080           0
     61414 WT21     246      MECN     C2       CG1N1    0.360000       12.0110           0
     61415 WT21     246      MECN     N3       NG1T1   -0.460000       14.0070           0
     61416 WT21     251      MECN     C1       CG331   -0.170000       12.0110           0
     61417 WT21     251      MECN     H11      HGA3     0.090000        1.0080           0
     61418 WT21     251      MECN     H12      HGA3     0.090000        1.0080           0
     61419 WT21     251      MECN     H13      HGA3     0.090000        1.0080           0
     61420 WT21     251      MECN     C2       CG1N1    0.360000       12.0110           0
     61421 WT21     251      MECN     N3       NG1T1   -0.460000       14.0070           0
     61422 WT21     252      MECN     C1       CG331   -0.170000       12.0110           0
     61423 WT21     252      MECN     H11      HGA3     0.090000        1.0080           0
     61424 WT21     252      MECN     H12      HGA3     0.090000        1.0080           0
     61425 WT21     252      MECN     H13      HGA3     0.090000        1.0080           0
     61426 WT21     252      MECN     C2       CG1N1    0.360000       12.0110           0
     61427 WT21     252      MECN     N3       NG1T1   -0.460000       14.0070           0
     61428 WT21     255      MECN     C1       CG331   -0.170000       12.0110           0
     61429 WT21     255      MECN     H11      HGA3     0.090000        1.0080           0
     61430 WT21     255      MECN     H12      HGA3     0.090000        1.0080           0
     61431 WT21     255      MECN     H13      HGA3     0.090000        1.0080           0
     61432 WT21     255      MECN     C2       CG1N1    0.360000       12.0110           0
     61433 WT21     255      MECN     N3       NG1T1   -0.460000       14.0070           0
     61434 WT21     276      MECN     C1       CG331   -0.170000       12.0110           0
     61435 WT21     276      MECN     H11      HGA3     0.090000        1.0080           0
     61436 WT21     276      MECN     H12      HGA3     0.090000        1.0080           0
     61437 WT21     276      MECN     H13      HGA3     0.090000        1.0080           0
     61438 WT21     276      MECN     C2       CG1N1    0.360000       12.0110           0
     61439 WT21     276      MECN     N3       NG1T1   -0.460000       14.0070           0
     61440 WT21     279      MECN     C1       CG331   -0.170000       12.0110           0
     61441 WT21     279      MECN     H11      HGA3     0.090000        1.0080           0
     61442 WT21     279      MECN     H12      HGA3     0.090000        1.0080           0
     61443 WT21     279      MECN     H13      HGA3     0.090000        1.0080           0
     61444 WT21     279      MECN     C2       CG1N1    0.360000       12.0110           0
     61445 WT21     279      MECN     N3       NG1T1   -0.460000       14.0070           0
     61446 WT21     280      MECN     C1       CG331   -0.170000       12.0110           0
     61447 WT21     280      MECN     H11      HGA3     0.090000        1.0080           0
     61448 WT21     280      MECN     H12      HGA3     0.090000        1.0080           0
     61449 WT21     280      MECN     H13      HGA3     0.090000        1.0080           0
     61450 WT21     280      MECN     C2       CG1N1    0.360000       12.0110           0
     61451 WT21     280      MECN     N3       NG1T1   -0.460000       14.0070           0
     61452 WT21     285      MECN     C1       CG331   -0.170000       12.0110           0
     61453 WT21     285      MECN     H11      HGA3     0.090000        1.0080           0
     61454 WT21     285      MECN     H12      HGA3     0.090000        1.0080           0
     61455 WT21     285      MECN     H13      HGA3     0.090000        1.0080           0
     61456 WT21     285      MECN     C2       CG1N1    0.360000       12.0110           0
     61457 WT21     285      MECN     N3       NG1T1   -0.460000       14.0070           0
     61458 WT21     286      MECN     C1       CG331   -0.170000       12.0110           0
     61459 WT21     286      MECN     H11      HGA3     0.090000        1.0080           0
     61460 WT21     286      MECN     H12      HGA3     0.090000        1.0080           0
     61461 WT21     286      MECN     H13      HGA3     0.090000        1.0080           0
     61462 WT21     286      MECN     C2       CG1N1    0.360000       12.0110           0
     61463 WT21     286      MECN     N3       NG1T1   -0.460000       14.0070           0
     61464 WT21     294      MECN     C1       CG331   -0.170000       12.0110           0
     61465 WT21     294      MECN     H11      HGA3     0.090000        1.0080           0
     61466 WT21     294      MECN     H12      HGA3     0.090000        1.0080           0
     61467 WT21     294      MECN     H13      HGA3     0.090000        1.0080           0
     61468 WT21     294      MECN     C2       CG1N1    0.360000       12.0110           0
     61469 WT21     294      MECN     N3       NG1T1   -0.460000       14.0070           0
     61470 WT21     304      MECN     C1       CG331   -0.170000       12.0110           0
     61471 WT21     304      MECN     H11      HGA3     0.090000        1.0080           0
     61472 WT21     304      MECN     H12      HGA3     0.090000        1.0080           0
     61473 WT21     304      MECN     H13      HGA3     0.090000        1.0080           0
     61474 WT21     304      MECN     C2       CG1N1    0.360000       12.0110           0
     61475 WT21     304      MECN     N3       NG1T1   -0.460000       14.0070           0
     61476 WT21     308      MECN     C1       CG331   -0.170000       12.0110           0
     61477 WT21     308      MECN     H11      HGA3     0.090000        1.0080           0
     61478 WT21     308      MECN     H12      HGA3     0.090000        1.0080           0
     61479 WT21     308      MECN     H13      HGA3     0.090000        1.0080           0
     61480 WT21     308      MECN     C2       CG1N1    0.360000       12.0110           0
     61481 WT21     308      MECN     N3       NG1T1   -0.460000       14.0070           0
     61482 WT21     316      MECN     C1       CG331   -0.170000       12.0110           0
     61483 WT21     316      MECN     H11      HGA3     0.090000        1.0080           0
     61484 WT21     316      MECN     H12      HGA3     0.090000        1.0080           0
     61485 WT21     316      MECN     H13      HGA3     0.090000        1.0080           0
     61486 WT21     316      MECN     C2       CG1N1    0.360000       12.0110           0
     61487 WT21     316      MECN     N3       NG1T1   -0.460000       14.0070           0
     61488 WT21     318      MECN     C1       CG331   -0.170000       12.0110           0
     61489 WT21     318      MECN     H11      HGA3     0.090000        1.0080           0
     61490 WT21     318      MECN     H12      HGA3     0.090000        1.0080           0
     61491 WT21     318      MECN     H13      HGA3     0.090000        1.0080           0
     61492 WT21     318      MECN     C2       CG1N1    0.360000       12.0110           0
     61493 WT21     318      MECN     N3       NG1T1   -0.460000       14.0070           0
     61494 WT21     319      MECN     C1       CG331   -0.170000       12.0110           0
     61495 WT21     319      MECN     H11      HGA3     0.090000        1.0080           0
     61496 WT21     319      MECN     H12      HGA3     0.090000        1.0080           0
     61497 WT21     319      MECN     H13      HGA3     0.090000        1.0080           0
     61498 WT21     319      MECN     C2       CG1N1    0.360000       12.0110           0
     61499 WT21     319      MECN     N3       NG1T1   -0.460000       14.0070           0
     61500 WT21     329      MECN     C1       CG331   -0.170000       12.0110           0
     61501 WT21     329      MECN     H11      HGA3     0.090000        1.0080           0
     61502 WT21     329      MECN     H12      HGA3     0.090000        1.0080           0
     61503 WT21     329      MECN     H13      HGA3     0.090000        1.0080           0
     61504 WT21     329      MECN     C2       CG1N1    0.360000       12.0110           0
     61505 WT21     329      MECN     N3       NG1T1   -0.460000       14.0070           0
     61506 WT21     331      MECN     C1       CG331   -0.170000       12.0110           0
     61507 WT21     331      MECN     H11      HGA3     0.090000        1.0080           0
     61508 WT21     331      MECN     H12      HGA3     0.090000        1.0080           0
     61509 WT21     331      MECN     H13      HGA3     0.090000        1.0080           0
     61510 WT21     331      MECN     C2       CG1N1    0.360000       12.0110           0
     61511 WT21     331      MECN     N3       NG1T1   -0.460000       14.0070           0
     61512 WT21     333      MECN     C1       CG331   -0.170000       12.0110           0
     61513 WT21     333      MECN     H11      HGA3     0.090000        1.0080           0
     61514 WT21     333      MECN     H12      HGA3     0.090000        1.0080           0
     61515 WT21     333      MECN     H13      HGA3     0.090000        1.0080           0
     61516 WT21     333      MECN     C2       CG1N1    0.360000       12.0110           0
     61517 WT21     333      MECN     N3       NG1T1   -0.460000       14.0070           0
     61518 WT21     341      MECN     C1       CG331   -0.170000       12.0110           0
     61519 WT21     341      MECN     H11      HGA3     0.090000        1.0080           0
     61520 WT21     341      MECN     H12      HGA3     0.090000        1.0080           0
     61521 WT21     341      MECN     H13      HGA3     0.090000        1.0080           0
     61522 WT21     341      MECN     C2       CG1N1    0.360000       12.0110           0
     61523 WT21     341      MECN     N3       NG1T1   -0.460000       14.0070           0
     61524 WT21     343      MECN     C1       CG331   -0.170000       12.0110           0
     61525 WT21     343      MECN     H11      HGA3     0.090000        1.0080           0
     61526 WT21     343      MECN     H12      HGA3     0.090000        1.0080           0
     61527 WT21     343      MECN     H13      HGA3     0.090000        1.0080           0
     61528 WT21     343      MECN     C2       CG1N1    0.360000       12.0110           0
     61529 WT21     343      MECN     N3       NG1T1   -0.460000       14.0070           0
     61530 WT21     346      MECN     C1       CG331   -0.170000       12.0110           0
     61531 WT21     346      MECN     H11      HGA3     0.090000        1.0080           0
     61532 WT21     346      MECN     H12      HGA3     0.090000        1.0080           0
     61533 WT21     346      MECN     H13      HGA3     0.090000        1.0080           0
     61534 WT21     346      MECN     C2       CG1N1    0.360000       12.0110           0
     61535 WT21     346      MECN     N3       NG1T1   -0.460000       14.0070           0
     61536 WT21     351      MECN     C1       CG331   -0.170000       12.0110           0
     61537 WT21     351      MECN     H11      HGA3     0.090000        1.0080           0
     61538 WT21     351      MECN     H12      HGA3     0.090000        1.0080           0
     61539 WT21     351      MECN     H13      HGA3     0.090000        1.0080           0
     61540 WT21     351      MECN     C2       CG1N1    0.360000       12.0110           0
     61541 WT21     351      MECN     N3       NG1T1   -0.460000       14.0070           0
     61542 WT21     358      MECN     C1       CG331   -0.170000       12.0110           0
     61543 WT21     358      MECN     H11      HGA3     0.090000        1.0080           0
     61544 WT21     358      MECN     H12      HGA3     0.090000        1.0080           0
     61545 WT21     358      MECN     H13      HGA3     0.090000        1.0080           0
     61546 WT21     358      MECN     C2       CG1N1    0.360000       12.0110           0
     61547 WT21     358      MECN     N3       NG1T1   -0.460000       14.0070           0
     61548 WT21     359      MECN     C1       CG331   -0.170000       12.0110           0
     61549 WT21     359      MECN     H11      HGA3     0.090000        1.0080           0
     61550 WT21     359      MECN     H12      HGA3     0.090000        1.0080           0
     61551 WT21     359      MECN     H13      HGA3     0.090000        1.0080           0
     61552 WT21     359      MECN     C2       CG1N1    0.360000       12.0110           0
     61553 WT21     359      MECN     N3       NG1T1   -0.460000       14.0070           0
     61554 WT21     361      MECN     C1       CG331   -0.170000       12.0110           0
     61555 WT21     361      MECN     H11      HGA3     0.090000        1.0080           0
     61556 WT21     361      MECN     H12      HGA3     0.090000        1.0080           0
     61557 WT21     361      MECN     H13      HGA3     0.090000        1.0080           0
     61558 WT21     361      MECN     C2       CG1N1    0.360000       12.0110           0
     61559 WT21     361      MECN     N3       NG1T1   -0.460000       14.0070           0
     61560 WT21     369      MECN     C1       CG331   -0.170000       12.0110           0
     61561 WT21     369      MECN     H11      HGA3     0.090000        1.0080           0
     61562 WT21     369      MECN     H12      HGA3     0.090000        1.0080           0
     61563 WT21     369      MECN     H13      HGA3     0.090000        1.0080           0
     61564 WT21     369      MECN     C2       CG1N1    0.360000       12.0110           0
     61565 WT21     369      MECN     N3       NG1T1   -0.460000       14.0070           0
     61566 WT21     373      MECN     C1       CG331   -0.170000       12.0110           0
     61567 WT21     373      MECN     H11      HGA3     0.090000        1.0080           0
     61568 WT21     373      MECN     H12      HGA3     0.090000        1.0080           0
     61569 WT21     373      MECN     H13      HGA3     0.090000        1.0080           0
     61570 WT21     373      MECN     C2       CG1N1    0.360000       12.0110           0
     61571 WT21     373      MECN     N3       NG1T1   -0.460000       14.0070           0
     61572 WT21     385      MECN     C1       CG331   -0.170000       12.0110           0
     61573 WT21     385      MECN     H11      HGA3     0.090000        1.0080           0
     61574 WT21     385      MECN     H12      HGA3     0.090000        1.0080           0
     61575 WT21     385      MECN     H13      HGA3     0.090000        1.0080           0
     61576 WT21     385      MECN     C2       CG1N1    0.360000       12.0110           0
     61577 WT21     385      MECN     N3       NG1T1   -0.460000       14.0070           0
     61578 WT21     391      MECN     C1       CG331   -0.170000       12.0110           0
     61579 WT21     391      MECN     H11      HGA3     0.090000        1.0080           0
     61580 WT21     391      MECN     H12      HGA3     0.090000        1.0080           0
     61581 WT21     391      MECN     H13      HGA3     0.090000        1.0080           0
     61582 WT21     391      MECN     C2       CG1N1    0.360000       12.0110           0
     61583 WT21     391      MECN     N3       NG1T1   -0.460000       14.0070           0
     61584 WT21     393      MECN     C1       CG331   -0.170000       12.0110           0
     61585 WT21     393      MECN     H11      HGA3     0.090000        1.0080           0
     61586 WT21     393      MECN     H12      HGA3     0.090000        1.0080           0
     61587 WT21     393      MECN     H13      HGA3     0.090000        1.0080           0
     61588 WT21     393      MECN     C2       CG1N1    0.360000       12.0110           0
     61589 WT21     393      MECN     N3       NG1T1   -0.460000       14.0070           0
     61590 WT21     395      MECN     C1       CG331   -0.170000       12.0110           0
     61591 WT21     395      MECN     H11      HGA3     0.090000        1.0080           0
     61592 WT21     395      MECN     H12      HGA3     0.090000        1.0080           0
     61593 WT21     395      MECN     H13      HGA3     0.090000        1.0080           0
     61594 WT21     395      MECN     C2       CG1N1    0.360000       12.0110           0
     61595 WT21     395      MECN     N3       NG1T1   -0.460000       14.0070           0
     61596 WT21     401      MECN     C1       CG331   -0.170000       12.0110           0
     61597 WT21     401      MECN     H11      HGA3     0.090000        1.0080           0
     61598 WT21     401      MECN     H12      HGA3     0.090000        1.0080           0
     61599 WT21     401      MECN     H13      HGA3     0.090000        1.0080           0
     61600 WT21     401      MECN     C2       CG1N1    0.360000       12.0110           0
     61601 WT21     401      MECN     N3       NG1T1   -0.460000       14.0070           0
     61602 WT21     406      MECN     C1       CG331   -0.170000       12.0110           0
     61603 WT21     406      MECN     H11      HGA3     0.090000        1.0080           0
     61604 WT21     406      MECN     H12      HGA3     0.090000        1.0080           0
     61605 WT21     406      MECN     H13      HGA3     0.090000        1.0080           0
     61606 WT21     406      MECN     C2       CG1N1    0.360000       12.0110           0
     61607 WT21     406      MECN     N3       NG1T1   -0.460000       14.0070           0
     61608 WT21     410      MECN     C1       CG331   -0.170000       12.0110           0
     61609 WT21     410      MECN     H11      HGA3     0.090000        1.0080           0
     61610 WT21     410      MECN     H12      HGA3     0.090000        1.0080           0
     61611 WT21     410      MECN     H13      HGA3     0.090000        1.0080           0
     61612 WT21     410      MECN     C2       CG1N1    0.360000       12.0110           0
     61613 WT21     410      MECN     N3       NG1T1   -0.460000       14.0070           0
     61614 WT21     411      MECN     C1       CG331   -0.170000       12.0110           0
     61615 WT21     411      MECN     H11      HGA3     0.090000        1.0080           0
     61616 WT21     411      MECN     H12      HGA3     0.090000        1.0080           0
     61617 WT21     411      MECN     H13      HGA3     0.090000        1.0080           0
     61618 WT21     411      MECN     C2       CG1N1    0.360000       12.0110           0
     61619 WT21     411      MECN     N3       NG1T1   -0.460000       14.0070           0
     61620 WT21     418      MECN     C1       CG331   -0.170000       12.0110           0
     61621 WT21     418      MECN     H11      HGA3     0.090000        1.0080           0
     61622 WT21     418      MECN     H12      HGA3     0.090000        1.0080           0
     61623 WT21     418      MECN     H13      HGA3     0.090000        1.0080           0
     61624 WT21     418      MECN     C2       CG1N1    0.360000       12.0110           0
     61625 WT21     418      MECN     N3       NG1T1   -0.460000       14.0070           0
     61626 WT21     419      MECN     C1       CG331   -0.170000       12.0110           0
     61627 WT21     419      MECN     H11      HGA3     0.090000        1.0080           0
     61628 WT21     419      MECN     H12      HGA3     0.090000        1.0080           0
     61629 WT21     419      MECN     H13      HGA3     0.090000        1.0080           0
     61630 WT21     419      MECN     C2       CG1N1    0.360000       12.0110           0
     61631 WT21     419      MECN     N3       NG1T1   -0.460000       14.0070           0
     61632 WT21     420      MECN     C1       CG331   -0.170000       12.0110           0
     61633 WT21     420      MECN     H11      HGA3     0.090000        1.0080           0
     61634 WT21     420      MECN     H12      HGA3     0.090000        1.0080           0
     61635 WT21     420      MECN     H13      HGA3     0.090000        1.0080           0
     61636 WT21     420      MECN     C2       CG1N1    0.360000       12.0110           0
     61637 WT21     420      MECN     N3       NG1T1   -0.460000       14.0070           0
     61638 WT21     422      MECN     C1       CG331   -0.170000       12.0110           0
     61639 WT21     422      MECN     H11      HGA3     0.090000        1.0080           0
     61640 WT21     422      MECN     H12      HGA3     0.090000        1.0080           0
     61641 WT21     422      MECN     H13      HGA3     0.090000        1.0080           0
     61642 WT21     422      MECN     C2       CG1N1    0.360000       12.0110           0
     61643 WT21     422      MECN     N3       NG1T1   -0.460000       14.0070           0
     61644 WT21     427      MECN     C1       CG331   -0.170000       12.0110           0
     61645 WT21     427      MECN     H11      HGA3     0.090000        1.0080           0
     61646 WT21     427      MECN     H12      HGA3     0.090000        1.0080           0
     61647 WT21     427      MECN     H13      HGA3     0.090000        1.0080           0
     61648 WT21     427      MECN     C2       CG1N1    0.360000       12.0110           0
     61649 WT21     427      MECN     N3       NG1T1   -0.460000       14.0070           0
     61650 WT21     435      MECN     C1       CG331   -0.170000       12.0110           0
     61651 WT21     435      MECN     H11      HGA3     0.090000        1.0080           0
     61652 WT21     435      MECN     H12      HGA3     0.090000        1.0080           0
     61653 WT21     435      MECN     H13      HGA3     0.090000        1.0080           0
     61654 WT21     435      MECN     C2       CG1N1    0.360000       12.0110           0
     61655 WT21     435      MECN     N3       NG1T1   -0.460000       14.0070           0
     61656 WT21     440      MECN     C1       CG331   -0.170000       12.0110           0
     61657 WT21     440      MECN     H11      HGA3     0.090000        1.0080           0
     61658 WT21     440      MECN     H12      HGA3     0.090000        1.0080           0
     61659 WT21     440      MECN     H13      HGA3     0.090000        1.0080           0
     61660 WT21     440      MECN     C2       CG1N1    0.360000       12.0110           0
     61661 WT21     440      MECN     N3       NG1T1   -0.460000       14.0070           0
     61662 WT21     441      MECN     C1       CG331   -0.170000       12.0110           0
     61663 WT21     441      MECN     H11      HGA3     0.090000        1.0080           0
     61664 WT21     441      MECN     H12      HGA3     0.090000        1.0080           0
     61665 WT21     441      MECN     H13      HGA3     0.090000        1.0080           0
     61666 WT21     441      MECN     C2       CG1N1    0.360000       12.0110           0
     61667 WT21     441      MECN     N3       NG1T1   -0.460000       14.0070           0
     61668 WT21     445      MECN     C1       CG331   -0.170000       12.0110           0
     61669 WT21     445      MECN     H11      HGA3     0.090000        1.0080           0
     61670 WT21     445      MECN     H12      HGA3     0.090000        1.0080           0
     61671 WT21     445      MECN     H13      HGA3     0.090000        1.0080           0
     61672 WT21     445      MECN     C2       CG1N1    0.360000       12.0110           0
     61673 WT21     445      MECN     N3       NG1T1   -0.460000       14.0070           0
     61674 WT21     448      MECN     C1       CG331   -0.170000       12.0110           0
     61675 WT21     448      MECN     H11      HGA3     0.090000        1.0080           0
     61676 WT21     448      MECN     H12      HGA3     0.090000        1.0080           0
     61677 WT21     448      MECN     H13      HGA3     0.090000        1.0080           0
     61678 WT21     448      MECN     C2       CG1N1    0.360000       12.0110           0
     61679 WT21     448      MECN     N3       NG1T1   -0.460000       14.0070           0
     61680 WT21     449      MECN     C1       CG331   -0.170000       12.0110           0
     61681 WT21     449      MECN     H11      HGA3     0.090000        1.0080           0
     61682 WT21     449      MECN     H12      HGA3     0.090000        1.0080           0
     61683 WT21     449      MECN     H13      HGA3     0.090000        1.0080           0
     61684 WT21     449      MECN     C2       CG1N1    0.360000       12.0110           0
     61685 WT21     449      MECN     N3       NG1T1   -0.460000       14.0070           0
     61686 WT21     450      MECN     C1       CG331   -0.170000       12.0110           0
     61687 WT21     450      MECN     H11      HGA3     0.090000        1.0080           0
     61688 WT21     450      MECN     H12      HGA3     0.090000        1.0080           0
     61689 WT21     450      MECN     H13      HGA3     0.090000        1.0080           0
     61690 WT21     450      MECN     C2       CG1N1    0.360000       12.0110           0
     61691 WT21     450      MECN     N3       NG1T1   -0.460000       14.0070           0
     61692 WT21     452      MECN     C1       CG331   -0.170000       12.0110           0
     61693 WT21     452      MECN     H11      HGA3     0.090000        1.0080           0
     61694 WT21     452      MECN     H12      HGA3     0.090000        1.0080           0
     61695 WT21     452      MECN     H13      HGA3     0.090000        1.0080           0
     61696 WT21     452      MECN     C2       CG1N1    0.360000       12.0110           0
     61697 WT21     452      MECN     N3       NG1T1   -0.460000       14.0070           0
     61698 WT21     454      MECN     C1       CG331   -0.170000       12.0110           0
     61699 WT21     454      MECN     H11      HGA3     0.090000        1.0080           0
     61700 WT21     454      MECN     H12      HGA3     0.090000        1.0080           0
     61701 WT21     454      MECN     H13      HGA3     0.090000        1.0080           0
     61702 WT21     454      MECN     C2       CG1N1    0.360000       12.0110           0
     61703 WT21     454      MECN     N3       NG1T1   -0.460000       14.0070           0
     61704 WT21     460      MECN     C1       CG331   -0.170000       12.0110           0
     61705 WT21     460      MECN     H11      HGA3     0.090000        1.0080           0
     61706 WT21     460      MECN     H12      HGA3     0.090000        1.0080           0
     61707 WT21     460      MECN     H13      HGA3     0.090000        1.0080           0
     61708 WT21     460      MECN     C2       CG1N1    0.360000       12.0110           0
     61709 WT21     460      MECN     N3       NG1T1   -0.460000       14.0070           0
     61710 WT21     461      MECN     C1       CG331   -0.170000       12.0110           0
     61711 WT21     461      MECN     H11      HGA3     0.090000        1.0080           0
     61712 WT21     461      MECN     H12      HGA3     0.090000        1.0080           0
     61713 WT21     461      MECN     H13      HGA3     0.090000        1.0080           0
     61714 WT21     461      MECN     C2       CG1N1    0.360000       12.0110           0
     61715 WT21     461      MECN     N3       NG1T1   -0.460000       14.0070           0
     61716 WT21     464      MECN     C1       CG331   -0.170000       12.0110           0
     61717 WT21     464      MECN     H11      HGA3     0.090000        1.0080           0
     61718 WT21     464      MECN     H12      HGA3     0.090000        1.0080           0
     61719 WT21     464      MECN     H13      HGA3     0.090000        1.0080           0
     61720 WT21     464      MECN     C2       CG1N1    0.360000       12.0110           0
     61721 WT21     464      MECN     N3       NG1T1   -0.460000       14.0070           0
     61722 WT21     468      MECN     C1       CG331   -0.170000       12.0110           0
     61723 WT21     468      MECN     H11      HGA3     0.090000        1.0080           0
     61724 WT21     468      MECN     H12      HGA3     0.090000        1.0080           0
     61725 WT21     468      MECN     H13      HGA3     0.090000        1.0080           0
     61726 WT21     468      MECN     C2       CG1N1    0.360000       12.0110           0
     61727 WT21     468      MECN     N3       NG1T1   -0.460000       14.0070           0
     61728 WT21     470      MECN     C1       CG331   -0.170000       12.0110           0
     61729 WT21     470      MECN     H11      HGA3     0.090000        1.0080           0
     61730 WT21     470      MECN     H12      HGA3     0.090000        1.0080           0
     61731 WT21     470      MECN     H13      HGA3     0.090000        1.0080           0
     61732 WT21     470      MECN     C2       CG1N1    0.360000       12.0110           0
     61733 WT21     470      MECN     N3       NG1T1   -0.460000       14.0070           0
     61734 WT21     476      MECN     C1       CG331   -0.170000       12.0110           0
     61735 WT21     476      MECN     H11      HGA3     0.090000        1.0080           0
     61736 WT21     476      MECN     H12      HGA3     0.090000        1.0080           0
     61737 WT21     476      MECN     H13      HGA3     0.090000        1.0080           0
     61738 WT21     476      MECN     C2       CG1N1    0.360000       12.0110           0
     61739 WT21     476      MECN     N3       NG1T1   -0.460000       14.0070           0
     61740 WT21     477      MECN     C1       CG331   -0.170000       12.0110           0
     61741 WT21     477      MECN     H11      HGA3     0.090000        1.0080           0
     61742 WT21     477      MECN     H12      HGA3     0.090000        1.0080           0
     61743 WT21     477      MECN     H13      HGA3     0.090000        1.0080           0
     61744 WT21     477      MECN     C2       CG1N1    0.360000       12.0110           0
     61745 WT21     477      MECN     N3       NG1T1   -0.460000       14.0070           0
     61746 WT21     480      MECN     C1       CG331   -0.170000       12.0110           0
     61747 WT21     480      MECN     H11      HGA3     0.090000        1.0080           0
     61748 WT21     480      MECN     H12      HGA3     0.090000        1.0080           0
     61749 WT21     480      MECN     H13      HGA3     0.090000        1.0080           0
     61750 WT21     480      MECN     C2       CG1N1    0.360000       12.0110           0
     61751 WT21     480      MECN     N3       NG1T1   -0.460000       14.0070           0
     61752 WT21     482      MECN     C1       CG331   -0.170000       12.0110           0
     61753 WT21     482      MECN     H11      HGA3     0.090000        1.0080           0
     61754 WT21     482      MECN     H12      HGA3     0.090000        1.0080           0
     61755 WT21     482      MECN     H13      HGA3     0.090000        1.0080           0
     61756 WT21     482      MECN     C2       CG1N1    0.360000       12.0110           0
     61757 WT21     482      MECN     N3       NG1T1   -0.460000       14.0070           0
     61758 WT21     485      MECN     C1       CG331   -0.170000       12.0110           0
     61759 WT21     485      MECN     H11      HGA3     0.090000        1.0080           0
     61760 WT21     485      MECN     H12      HGA3     0.090000        1.0080           0
     61761 WT21     485      MECN     H13      HGA3     0.090000        1.0080           0
     61762 WT21     485      MECN     C2       CG1N1    0.360000       12.0110           0
     61763 WT21     485      MECN     N3       NG1T1   -0.460000       14.0070           0
     61764 WT21     489      MECN     C1       CG331   -0.170000       12.0110           0
     61765 WT21     489      MECN     H11      HGA3     0.090000        1.0080           0
     61766 WT21     489      MECN     H12      HGA3     0.090000        1.0080           0
     61767 WT21     489      MECN     H13      HGA3     0.090000        1.0080           0
     61768 WT21     489      MECN     C2       CG1N1    0.360000       12.0110           0
     61769 WT21     489      MECN     N3       NG1T1   -0.460000       14.0070           0
     61770 WT21     490      MECN     C1       CG331   -0.170000       12.0110           0
     61771 WT21     490      MECN     H11      HGA3     0.090000        1.0080           0
     61772 WT21     490      MECN     H12      HGA3     0.090000        1.0080           0
     61773 WT21     490      MECN     H13      HGA3     0.090000        1.0080           0
     61774 WT21     490      MECN     C2       CG1N1    0.360000       12.0110           0
     61775 WT21     490      MECN     N3       NG1T1   -0.460000       14.0070           0
     61776 WT21     493      MECN     C1       CG331   -0.170000       12.0110           0
     61777 WT21     493      MECN     H11      HGA3     0.090000        1.0080           0
     61778 WT21     493      MECN     H12      HGA3     0.090000        1.0080           0
     61779 WT21     493      MECN     H13      HGA3     0.090000        1.0080           0
     61780 WT21     493      MECN     C2       CG1N1    0.360000       12.0110           0
     61781 WT21     493      MECN     N3       NG1T1   -0.460000       14.0070           0
     61782 WT21     494      MECN     C1       CG331   -0.170000       12.0110           0
     61783 WT21     494      MECN     H11      HGA3     0.090000        1.0080           0
     61784 WT21     494      MECN     H12      HGA3     0.090000        1.0080           0
     61785 WT21     494      MECN     H13      HGA3     0.090000        1.0080           0
     61786 WT21     494      MECN     C2       CG1N1    0.360000       12.0110           0
     61787 WT21     494      MECN     N3       NG1T1   -0.460000       14.0070           0
     61788 WT21     497      MECN     C1       CG331   -0.170000       12.0110           0
     61789 WT21     497      MECN     H11      HGA3     0.090000        1.0080           0
     61790 WT21     497      MECN     H12      HGA3     0.090000        1.0080           0
     61791 WT21     497      MECN     H13      HGA3     0.090000        1.0080           0
     61792 WT21     497      MECN     C2       CG1N1    0.360000       12.0110           0
     61793 WT21     497      MECN     N3       NG1T1   -0.460000       14.0070           0
     61794 WT21     498      MECN     C1       CG331   -0.170000       12.0110           0
     61795 WT21     498      MECN     H11      HGA3     0.090000        1.0080           0
     61796 WT21     498      MECN     H12      HGA3     0.090000        1.0080           0
     61797 WT21     498      MECN     H13      HGA3     0.090000        1.0080           0
     61798 WT21     498      MECN     C2       CG1N1    0.360000       12.0110           0
     61799 WT21     498      MECN     N3       NG1T1   -0.460000       14.0070           0
     61800 WT21     499      MECN     C1       CG331   -0.170000       12.0110           0
     61801 WT21     499      MECN     H11      HGA3     0.090000        1.0080           0
     61802 WT21     499      MECN     H12      HGA3     0.090000        1.0080           0
     61803 WT21     499      MECN     H13      HGA3     0.090000        1.0080           0
     61804 WT21     499      MECN     C2       CG1N1    0.360000       12.0110           0
     61805 WT21     499      MECN     N3       NG1T1   -0.460000       14.0070           0
     61806 WT21     501      MECN     C1       CG331   -0.170000       12.0110           0
     61807 WT21     501      MECN     H11      HGA3     0.090000        1.0080           0
     61808 WT21     501      MECN     H12      HGA3     0.090000        1.0080           0
     61809 WT21     501      MECN     H13      HGA3     0.090000        1.0080           0
     61810 WT21     501      MECN     C2       CG1N1    0.360000       12.0110           0
     61811 WT21     501      MECN     N3       NG1T1   -0.460000       14.0070           0
     61812 WT21     504      MECN     C1       CG331   -0.170000       12.0110           0
     61813 WT21     504      MECN     H11      HGA3     0.090000        1.0080           0
     61814 WT21     504      MECN     H12      HGA3     0.090000        1.0080           0
     61815 WT21     504      MECN     H13      HGA3     0.090000        1.0080           0
     61816 WT21     504      MECN     C2       CG1N1    0.360000       12.0110           0
     61817 WT21     504      MECN     N3       NG1T1   -0.460000       14.0070           0
     61818 WT21     506      MECN     C1       CG331   -0.170000       12.0110           0
     61819 WT21     506      MECN     H11      HGA3     0.090000        1.0080           0
     61820 WT21     506      MECN     H12      HGA3     0.090000        1.0080           0
     61821 WT21     506      MECN     H13      HGA3     0.090000        1.0080           0
     61822 WT21     506      MECN     C2       CG1N1    0.360000       12.0110           0
     61823 WT21     506      MECN     N3       NG1T1   -0.460000       14.0070           0
     61824 WT21     507      MECN     C1       CG331   -0.170000       12.0110           0
     61825 WT21     507      MECN     H11      HGA3     0.090000        1.0080           0
     61826 WT21     507      MECN     H12      HGA3     0.090000        1.0080           0
     61827 WT21     507      MECN     H13      HGA3     0.090000        1.0080           0
     61828 WT21     507      MECN     C2       CG1N1    0.360000       12.0110           0
     61829 WT21     507      MECN     N3       NG1T1   -0.460000       14.0070           0
     61830 WT21     509      MECN     C1       CG331   -0.170000       12.0110           0
     61831 WT21     509      MECN     H11      HGA3     0.090000        1.0080           0
     61832 WT21     509      MECN     H12      HGA3     0.090000        1.0080           0
     61833 WT21     509      MECN     H13      HGA3     0.090000        1.0080           0
     61834 WT21     509      MECN     C2       CG1N1    0.360000       12.0110           0
     61835 WT21     509      MECN     N3       NG1T1   -0.460000       14.0070           0
     61836 WT21     519      MECN     C1       CG331   -0.170000       12.0110           0
     61837 WT21     519      MECN     H11      HGA3     0.090000        1.0080           0
     61838 WT21     519      MECN     H12      HGA3     0.090000        1.0080           0
     61839 WT21     519      MECN     H13      HGA3     0.090000        1.0080           0
     61840 WT21     519      MECN     C2       CG1N1    0.360000       12.0110           0
     61841 WT21     519      MECN     N3       NG1T1   -0.460000       14.0070           0
     61842 WT21     521      MECN     C1       CG331   -0.170000       12.0110           0
     61843 WT21     521      MECN     H11      HGA3     0.090000        1.0080           0
     61844 WT21     521      MECN     H12      HGA3     0.090000        1.0080           0
     61845 WT21     521      MECN     H13      HGA3     0.090000        1.0080           0
     61846 WT21     521      MECN     C2       CG1N1    0.360000       12.0110           0
     61847 WT21     521      MECN     N3       NG1T1   -0.460000       14.0070           0
     61848 WT21     522      MECN     C1       CG331   -0.170000       12.0110           0
     61849 WT21     522      MECN     H11      HGA3     0.090000        1.0080           0
     61850 WT21     522      MECN     H12      HGA3     0.090000        1.0080           0
     61851 WT21     522      MECN     H13      HGA3     0.090000        1.0080           0
     61852 WT21     522      MECN     C2       CG1N1    0.360000       12.0110           0
     61853 WT21     522      MECN     N3       NG1T1   -0.460000       14.0070           0
     61854 WT21     523      MECN     C1       CG331   -0.170000       12.0110           0
     61855 WT21     523      MECN     H11      HGA3     0.090000        1.0080           0
     61856 WT21     523      MECN     H12      HGA3     0.090000        1.0080           0
     61857 WT21     523      MECN     H13      HGA3     0.090000        1.0080           0
     61858 WT21     523      MECN     C2       CG1N1    0.360000       12.0110           0
     61859 WT21     523      MECN     N3       NG1T1   -0.460000       14.0070           0
     61860 WT21     529      MECN     C1       CG331   -0.170000       12.0110           0
     61861 WT21     529      MECN     H11      HGA3     0.090000        1.0080           0
     61862 WT21     529      MECN     H12      HGA3     0.090000        1.0080           0
     61863 WT21     529      MECN     H13      HGA3     0.090000        1.0080           0
     61864 WT21     529      MECN     C2       CG1N1    0.360000       12.0110           0
     61865 WT21     529      MECN     N3       NG1T1   -0.460000       14.0070           0
     61866 WT21     530      MECN     C1       CG331   -0.170000       12.0110           0
     61867 WT21     530      MECN     H11      HGA3     0.090000        1.0080           0
     61868 WT21     530      MECN     H12      HGA3     0.090000        1.0080           0
     61869 WT21     530      MECN     H13      HGA3     0.090000        1.0080           0
     61870 WT21     530      MECN     C2       CG1N1    0.360000       12.0110           0
     61871 WT21     530      MECN     N3       NG1T1   -0.460000       14.0070           0
     61872 WT21     537      MECN     C1       CG331   -0.170000       12.0110           0
     61873 WT21     537      MECN     H11      HGA3     0.090000        1.0080           0
     61874 WT21     537      MECN     H12      HGA3     0.090000        1.0080           0
     61875 WT21     537      MECN     H13      HGA3     0.090000        1.0080           0
     61876 WT21     537      MECN     C2       CG1N1    0.360000       12.0110           0
     61877 WT21     537      MECN     N3       NG1T1   -0.460000       14.0070           0
     61878 WT21     545      MECN     C1       CG331   -0.170000       12.0110           0
     61879 WT21     545      MECN     H11      HGA3     0.090000        1.0080           0
     61880 WT21     545      MECN     H12      HGA3     0.090000        1.0080           0
     61881 WT21     545      MECN     H13      HGA3     0.090000        1.0080           0
     61882 WT21     545      MECN     C2       CG1N1    0.360000       12.0110           0
     61883 WT21     545      MECN     N3       NG1T1   -0.460000       14.0070           0
     61884 WT21     547      MECN     C1       CG331   -0.170000       12.0110           0
     61885 WT21     547      MECN     H11      HGA3     0.090000        1.0080           0
     61886 WT21     547      MECN     H12      HGA3     0.090000        1.0080           0
     61887 WT21     547      MECN     H13      HGA3     0.090000        1.0080           0
     61888 WT21     547      MECN     C2       CG1N1    0.360000       12.0110           0
     61889 WT21     547      MECN     N3       NG1T1   -0.460000       14.0070           0
     61890 WT21     555      MECN     C1       CG331   -0.170000       12.0110           0
     61891 WT21     555      MECN     H11      HGA3     0.090000        1.0080           0
     61892 WT21     555      MECN     H12      HGA3     0.090000        1.0080           0
     61893 WT21     555      MECN     H13      HGA3     0.090000        1.0080           0
     61894 WT21     555      MECN     C2       CG1N1    0.360000       12.0110           0
     61895 WT21     555      MECN     N3       NG1T1   -0.460000       14.0070           0
     61896 WT21     561      MECN     C1       CG331   -0.170000       12.0110           0
     61897 WT21     561      MECN     H11      HGA3     0.090000        1.0080           0
     61898 WT21     561      MECN     H12      HGA3     0.090000        1.0080           0
     61899 WT21     561      MECN     H13      HGA3     0.090000        1.0080           0
     61900 WT21     561      MECN     C2       CG1N1    0.360000       12.0110           0
     61901 WT21     561      MECN     N3       NG1T1   -0.460000       14.0070           0
     61902 WT21     571      MECN     C1       CG331   -0.170000       12.0110           0
     61903 WT21     571      MECN     H11      HGA3     0.090000        1.0080           0
     61904 WT21     571      MECN     H12      HGA3     0.090000        1.0080           0
     61905 WT21     571      MECN     H13      HGA3     0.090000        1.0080           0
     61906 WT21     571      MECN     C2       CG1N1    0.360000       12.0110           0
     61907 WT21     571      MECN     N3       NG1T1   -0.460000       14.0070           0
     61908 WT21     573      MECN     C1       CG331   -0.170000       12.0110           0
     61909 WT21     573      MECN     H11      HGA3     0.090000        1.0080           0
     61910 WT21     573      MECN     H12      HGA3     0.090000        1.0080           0
     61911 WT21     573      MECN     H13      HGA3     0.090000        1.0080           0
     61912 WT21     573      MECN     C2       CG1N1    0.360000       12.0110           0
     61913 WT21     573      MECN     N3       NG1T1   -0.460000       14.0070           0
     61914 WT21     576      MECN     C1       CG331   -0.170000       12.0110           0
     61915 WT21     576      MECN     H11      HGA3     0.090000        1.0080           0
     61916 WT21     576      MECN     H12      HGA3     0.090000        1.0080           0
     61917 WT21     576      MECN     H13      HGA3     0.090000        1.0080           0
     61918 WT21     576      MECN     C2       CG1N1    0.360000       12.0110           0
     61919 WT21     576      MECN     N3       NG1T1   -0.460000       14.0070           0
     61920 WT21     578      MECN     C1       CG331   -0.170000       12.0110           0
     61921 WT21     578      MECN     H11      HGA3     0.090000        1.0080           0
     61922 WT21     578      MECN     H12      HGA3     0.090000        1.0080           0
     61923 WT21     578      MECN     H13      HGA3     0.090000        1.0080           0
     61924 WT21     578      MECN     C2       CG1N1    0.360000       12.0110           0
     61925 WT21     578      MECN     N3       NG1T1   -0.460000       14.0070           0
     61926 WT21     580      MECN     C1       CG331   -0.170000       12.0110           0
     61927 WT21     580      MECN     H11      HGA3     0.090000        1.0080           0
     61928 WT21     580      MECN     H12      HGA3     0.090000        1.0080           0
     61929 WT21     580      MECN     H13      HGA3     0.090000        1.0080           0
     61930 WT21     580      MECN     C2       CG1N1    0.360000       12.0110           0
     61931 WT21     580      MECN     N3       NG1T1   -0.460000       14.0070           0
     61932 WT21     582      MECN     C1       CG331   -0.170000       12.0110           0
     61933 WT21     582      MECN     H11      HGA3     0.090000        1.0080           0
     61934 WT21     582      MECN     H12      HGA3     0.090000        1.0080           0
     61935 WT21     582      MECN     H13      HGA3     0.090000        1.0080           0
     61936 WT21     582      MECN     C2       CG1N1    0.360000       12.0110           0
     61937 WT21     582      MECN     N3       NG1T1   -0.460000       14.0070           0
     61938 WT21     583      MECN     C1       CG331   -0.170000       12.0110           0
     61939 WT21     583      MECN     H11      HGA3     0.090000        1.0080           0
     61940 WT21     583      MECN     H12      HGA3     0.090000        1.0080           0
     61941 WT21     583      MECN     H13      HGA3     0.090000        1.0080           0
     61942 WT21     583      MECN     C2       CG1N1    0.360000       12.0110           0
     61943 WT21     583      MECN     N3       NG1T1   -0.460000       14.0070           0
     61944 WT21     584      MECN     C1       CG331   -0.170000       12.0110           0
     61945 WT21     584      MECN     H11      HGA3     0.090000        1.0080           0
     61946 WT21     584      MECN     H12      HGA3     0.090000        1.0080           0
     61947 WT21     584      MECN     H13      HGA3     0.090000        1.0080           0
     61948 WT21     584      MECN     C2       CG1N1    0.360000       12.0110           0
     61949 WT21     584      MECN     N3       NG1T1   -0.460000       14.0070           0
     61950 WT21     585      MECN     C1       CG331   -0.170000       12.0110           0
     61951 WT21     585      MECN     H11      HGA3     0.090000        1.0080           0
     61952 WT21     585      MECN     H12      HGA3     0.090000        1.0080           0
     61953 WT21     585      MECN     H13      HGA3     0.090000        1.0080           0
     61954 WT21     585      MECN     C2       CG1N1    0.360000       12.0110           0
     61955 WT21     585      MECN     N3       NG1T1   -0.460000       14.0070           0
     61956 WT21     587      MECN     C1       CG331   -0.170000       12.0110           0
     61957 WT21     587      MECN     H11      HGA3     0.090000        1.0080           0
     61958 WT21     587      MECN     H12      HGA3     0.090000        1.0080           0
     61959 WT21     587      MECN     H13      HGA3     0.090000        1.0080           0
     61960 WT21     587      MECN     C2       CG1N1    0.360000       12.0110           0
     61961 WT21     587      MECN     N3       NG1T1   -0.460000       14.0070           0
     61962 WT21     590      MECN     C1       CG331   -0.170000       12.0110           0
     61963 WT21     590      MECN     H11      HGA3     0.090000        1.0080           0
     61964 WT21     590      MECN     H12      HGA3     0.090000        1.0080           0
     61965 WT21     590      MECN     H13      HGA3     0.090000        1.0080           0
     61966 WT21     590      MECN     C2       CG1N1    0.360000       12.0110           0
     61967 WT21     590      MECN     N3       NG1T1   -0.460000       14.0070           0
     61968 WT21     591      MECN     C1       CG331   -0.170000       12.0110           0
     61969 WT21     591      MECN     H11      HGA3     0.090000        1.0080           0
     61970 WT21     591      MECN     H12      HGA3     0.090000        1.0080           0
     61971 WT21     591      MECN     H13      HGA3     0.090000        1.0080           0
     61972 WT21     591      MECN     C2       CG1N1    0.360000       12.0110           0
     61973 WT21     591      MECN     N3       NG1T1   -0.460000       14.0070           0
     61974 WT21     592      MECN     C1       CG331   -0.170000       12.0110           0
     61975 WT21     592      MECN     H11      HGA3     0.090000        1.0080           0
     61976 WT21     592      MECN     H12      HGA3     0.090000        1.0080           0
     61977 WT21     592      MECN     H13      HGA3     0.090000        1.0080           0
     61978 WT21     592      MECN     C2       CG1N1    0.360000       12.0110           0
     61979 WT21     592      MECN     N3       NG1T1   -0.460000       14.0070           0
     61980 WT21     595      MECN     C1       CG331   -0.170000       12.0110           0
     61981 WT21     595      MECN     H11      HGA3     0.090000        1.0080           0
     61982 WT21     595      MECN     H12      HGA3     0.090000        1.0080           0
     61983 WT21     595      MECN     H13      HGA3     0.090000        1.0080           0
     61984 WT21     595      MECN     C2       CG1N1    0.360000       12.0110           0
     61985 WT21     595      MECN     N3       NG1T1   -0.460000       14.0070           0
     61986 WT21     598      MECN     C1       CG331   -0.170000       12.0110           0
     61987 WT21     598      MECN     H11      HGA3     0.090000        1.0080           0
     61988 WT21     598      MECN     H12      HGA3     0.090000        1.0080           0
     61989 WT21     598      MECN     H13      HGA3     0.090000        1.0080           0
     61990 WT21     598      MECN     C2       CG1N1    0.360000       12.0110           0
     61991 WT21     598      MECN     N3       NG1T1   -0.460000       14.0070           0
     61992 WT21     607      MECN     C1       CG331   -0.170000       12.0110           0
     61993 WT21     607      MECN     H11      HGA3     0.090000        1.0080           0
     61994 WT21     607      MECN     H12      HGA3     0.090000        1.0080           0
     61995 WT21     607      MECN     H13      HGA3     0.090000        1.0080           0
     61996 WT21     607      MECN     C2       CG1N1    0.360000       12.0110           0
     61997 WT21     607      MECN     N3       NG1T1   -0.460000       14.0070           0
     61998 WT21     612      MECN     C1       CG331   -0.170000       12.0110           0
     61999 WT21     612      MECN     H11      HGA3     0.090000        1.0080           0
     62000 WT21     612      MECN     H12      HGA3     0.090000        1.0080           0
     62001 WT21     612      MECN     H13      HGA3     0.090000        1.0080           0
     62002 WT21     612      MECN     C2       CG1N1    0.360000       12.0110           0
     62003 WT21     612      MECN     N3       NG1T1   -0.460000       14.0070           0
     62004 WT21     613      MECN     C1       CG331   -0.170000       12.0110           0
     62005 WT21     613      MECN     H11      HGA3     0.090000        1.0080           0
     62006 WT21     613      MECN     H12      HGA3     0.090000        1.0080           0
     62007 WT21     613      MECN     H13      HGA3     0.090000        1.0080           0
     62008 WT21     613      MECN     C2       CG1N1    0.360000       12.0110           0
     62009 WT21     613      MECN     N3       NG1T1   -0.460000       14.0070           0
     62010 WT21     623      MECN     C1       CG331   -0.170000       12.0110           0
     62011 WT21     623      MECN     H11      HGA3     0.090000        1.0080           0
     62012 WT21     623      MECN     H12      HGA3     0.090000        1.0080           0
     62013 WT21     623      MECN     H13      HGA3     0.090000        1.0080           0
     62014 WT21     623      MECN     C2       CG1N1    0.360000       12.0110           0
     62015 WT21     623      MECN     N3       NG1T1   -0.460000       14.0070           0
     62016 WT21     624      MECN     C1       CG331   -0.170000       12.0110           0
     62017 WT21     624      MECN     H11      HGA3     0.090000        1.0080           0
     62018 WT21     624      MECN     H12      HGA3     0.090000        1.0080           0
     62019 WT21     624      MECN     H13      HGA3     0.090000        1.0080           0
     62020 WT21     624      MECN     C2       CG1N1    0.360000       12.0110           0
     62021 WT21     624      MECN     N3       NG1T1   -0.460000       14.0070           0
     62022 WT21     628      MECN     C1       CG331   -0.170000       12.0110           0
     62023 WT21     628      MECN     H11      HGA3     0.090000        1.0080           0
     62024 WT21     628      MECN     H12      HGA3     0.090000        1.0080           0
     62025 WT21     628      MECN     H13      HGA3     0.090000        1.0080           0
     62026 WT21     628      MECN     C2       CG1N1    0.360000       12.0110           0
     62027 WT21     628      MECN     N3       NG1T1   -0.460000       14.0070           0
     62028 WT21     632      MECN     C1       CG331   -0.170000       12.0110           0
     62029 WT21     632      MECN     H11      HGA3     0.090000        1.0080           0
     62030 WT21     632      MECN     H12      HGA3     0.090000        1.0080           0
     62031 WT21     632      MECN     H13      HGA3     0.090000        1.0080           0
     62032 WT21     632      MECN     C2       CG1N1    0.360000       12.0110           0
     62033 WT21     632      MECN     N3       NG1T1   -0.460000       14.0070           0
     62034 WT21     637      MECN     C1       CG331   -0.170000       12.0110           0
     62035 WT21     637      MECN     H11      HGA3     0.090000        1.0080           0
     62036 WT21     637      MECN     H12      HGA3     0.090000        1.0080           0
     62037 WT21     637      MECN     H13      HGA3     0.090000        1.0080           0
     62038 WT21     637      MECN     C2       CG1N1    0.360000       12.0110           0
     62039 WT21     637      MECN     N3       NG1T1   -0.460000       14.0070           0
     62040 WT21     647      MECN     C1       CG331   -0.170000       12.0110           0
     62041 WT21     647      MECN     H11      HGA3     0.090000        1.0080           0
     62042 WT21     647      MECN     H12      HGA3     0.090000        1.0080           0
     62043 WT21     647      MECN     H13      HGA3     0.090000        1.0080           0
     62044 WT21     647      MECN     C2       CG1N1    0.360000       12.0110           0
     62045 WT21     647      MECN     N3       NG1T1   -0.460000       14.0070           0
     62046 WT21     650      MECN     C1       CG331   -0.170000       12.0110           0
     62047 WT21     650      MECN     H11      HGA3     0.090000        1.0080           0
     62048 WT21     650      MECN     H12      HGA3     0.090000        1.0080           0
     62049 WT21     650      MECN     H13      HGA3     0.090000        1.0080           0
     62050 WT21     650      MECN     C2       CG1N1    0.360000       12.0110           0
     62051 WT21     650      MECN     N3       NG1T1   -0.460000       14.0070           0
     62052 WT21     652      MECN     C1       CG331   -0.170000       12.0110           0
     62053 WT21     652      MECN     H11      HGA3     0.090000        1.0080           0
     62054 WT21     652      MECN     H12      HGA3     0.090000        1.0080           0
     62055 WT21     652      MECN     H13      HGA3     0.090000        1.0080           0
     62056 WT21     652      MECN     C2       CG1N1    0.360000       12.0110           0
     62057 WT21     652      MECN     N3       NG1T1   -0.460000       14.0070           0
     62058 WT21     653      MECN     C1       CG331   -0.170000       12.0110           0
     62059 WT21     653      MECN     H11      HGA3     0.090000        1.0080           0
     62060 WT21     653      MECN     H12      HGA3     0.090000        1.0080           0
     62061 WT21     653      MECN     H13      HGA3     0.090000        1.0080           0
     62062 WT21     653      MECN     C2       CG1N1    0.360000       12.0110           0
     62063 WT21     653      MECN     N3       NG1T1   -0.460000       14.0070           0
     62064 WT21     665      MECN     C1       CG331   -0.170000       12.0110           0
     62065 WT21     665      MECN     H11      HGA3     0.090000        1.0080           0
     62066 WT21     665      MECN     H12      HGA3     0.090000        1.0080           0
     62067 WT21     665      MECN     H13      HGA3     0.090000        1.0080           0
     62068 WT21     665      MECN     C2       CG1N1    0.360000       12.0110           0
     62069 WT21     665      MECN     N3       NG1T1   -0.460000       14.0070           0
     62070 WT21     679      MECN     C1       CG331   -0.170000       12.0110           0
     62071 WT21     679      MECN     H11      HGA3     0.090000        1.0080           0
     62072 WT21     679      MECN     H12      HGA3     0.090000        1.0080           0
     62073 WT21     679      MECN     H13      HGA3     0.090000        1.0080           0
     62074 WT21     679      MECN     C2       CG1N1    0.360000       12.0110           0
     62075 WT21     679      MECN     N3       NG1T1   -0.460000       14.0070           0
     62076 WT21     682      MECN     C1       CG331   -0.170000       12.0110           0
     62077 WT21     682      MECN     H11      HGA3     0.090000        1.0080           0
     62078 WT21     682      MECN     H12      HGA3     0.090000        1.0080           0
     62079 WT21     682      MECN     H13      HGA3     0.090000        1.0080           0
     62080 WT21     682      MECN     C2       CG1N1    0.360000       12.0110           0
     62081 WT21     682      MECN     N3       NG1T1   -0.460000       14.0070           0
     62082 WT21     683      MECN     C1       CG331   -0.170000       12.0110           0
     62083 WT21     683      MECN     H11      HGA3     0.090000        1.0080           0
     62084 WT21     683      MECN     H12      HGA3     0.090000        1.0080           0
     62085 WT21     683      MECN     H13      HGA3     0.090000        1.0080           0
     62086 WT21     683      MECN     C2       CG1N1    0.360000       12.0110           0
     62087 WT21     683      MECN     N3       NG1T1   -0.460000       14.0070           0
     62088 WT21     684      MECN     C1       CG331   -0.170000       12.0110           0
     62089 WT21     684      MECN     H11      HGA3     0.090000        1.0080           0
     62090 WT21     684      MECN     H12      HGA3     0.090000        1.0080           0
     62091 WT21     684      MECN     H13      HGA3     0.090000        1.0080           0
     62092 WT21     684      MECN     C2       CG1N1    0.360000       12.0110           0
     62093 WT21     684      MECN     N3       NG1T1   -0.460000       14.0070           0
     62094 WT21     686      MECN     C1       CG331   -0.170000       12.0110           0
     62095 WT21     686      MECN     H11      HGA3     0.090000        1.0080           0
     62096 WT21     686      MECN     H12      HGA3     0.090000        1.0080           0
     62097 WT21     686      MECN     H13      HGA3     0.090000        1.0080           0
     62098 WT21     686      MECN     C2       CG1N1    0.360000       12.0110           0
     62099 WT21     686      MECN     N3       NG1T1   -0.460000       14.0070           0
     62100 WT21     692      MECN     C1       CG331   -0.170000       12.0110           0
     62101 WT21     692      MECN     H11      HGA3     0.090000        1.0080           0
     62102 WT21     692      MECN     H12      HGA3     0.090000        1.0080           0
     62103 WT21     692      MECN     H13      HGA3     0.090000        1.0080           0
     62104 WT21     692      MECN     C2       CG1N1    0.360000       12.0110           0
     62105 WT21     692      MECN     N3       NG1T1   -0.460000       14.0070           0
     62106 WT21     696      MECN     C1       CG331   -0.170000       12.0110           0
     62107 WT21     696      MECN     H11      HGA3     0.090000        1.0080           0
     62108 WT21     696      MECN     H12      HGA3     0.090000        1.0080           0
     62109 WT21     696      MECN     H13      HGA3     0.090000        1.0080           0
     62110 WT21     696      MECN     C2       CG1N1    0.360000       12.0110           0
     62111 WT21     696      MECN     N3       NG1T1   -0.460000       14.0070           0
     62112 WT21     701      MECN     C1       CG331   -0.170000       12.0110           0
     62113 WT21     701      MECN     H11      HGA3     0.090000        1.0080           0
     62114 WT21     701      MECN     H12      HGA3     0.090000        1.0080           0
     62115 WT21     701      MECN     H13      HGA3     0.090000        1.0080           0
     62116 WT21     701      MECN     C2       CG1N1    0.360000       12.0110           0
     62117 WT21     701      MECN     N3       NG1T1   -0.460000       14.0070           0
     62118 WT21     708      MECN     C1       CG331   -0.170000       12.0110           0
     62119 WT21     708      MECN     H11      HGA3     0.090000        1.0080           0
     62120 WT21     708      MECN     H12      HGA3     0.090000        1.0080           0
     62121 WT21     708      MECN     H13      HGA3     0.090000        1.0080           0
     62122 WT21     708      MECN     C2       CG1N1    0.360000       12.0110           0
     62123 WT21     708      MECN     N3       NG1T1   -0.460000       14.0070           0
     62124 WT21     712      MECN     C1       CG331   -0.170000       12.0110           0
     62125 WT21     712      MECN     H11      HGA3     0.090000        1.0080           0
     62126 WT21     712      MECN     H12      HGA3     0.090000        1.0080           0
     62127 WT21     712      MECN     H13      HGA3     0.090000        1.0080           0
     62128 WT21     712      MECN     C2       CG1N1    0.360000       12.0110           0
     62129 WT21     712      MECN     N3       NG1T1   -0.460000       14.0070           0
     62130 WT21     717      MECN     C1       CG331   -0.170000       12.0110           0
     62131 WT21     717      MECN     H11      HGA3     0.090000        1.0080           0
     62132 WT21     717      MECN     H12      HGA3     0.090000        1.0080           0
     62133 WT21     717      MECN     H13      HGA3     0.090000        1.0080           0
     62134 WT21     717      MECN     C2       CG1N1    0.360000       12.0110           0
     62135 WT21     717      MECN     N3       NG1T1   -0.460000       14.0070           0
     62136 WT21     729      MECN     C1       CG331   -0.170000       12.0110           0
     62137 WT21     729      MECN     H11      HGA3     0.090000        1.0080           0
     62138 WT21     729      MECN     H12      HGA3     0.090000        1.0080           0
     62139 WT21     729      MECN     H13      HGA3     0.090000        1.0080           0
     62140 WT21     729      MECN     C2       CG1N1    0.360000       12.0110           0
     62141 WT21     729      MECN     N3       NG1T1   -0.460000       14.0070           0
     62142 WT21     731      MECN     C1       CG331   -0.170000       12.0110           0
     62143 WT21     731      MECN     H11      HGA3     0.090000        1.0080           0
     62144 WT21     731      MECN     H12      HGA3     0.090000        1.0080           0
     62145 WT21     731      MECN     H13      HGA3     0.090000        1.0080           0
     62146 WT21     731      MECN     C2       CG1N1    0.360000       12.0110           0
     62147 WT21     731      MECN     N3       NG1T1   -0.460000       14.0070           0
     62148 WT21     733      MECN     C1       CG331   -0.170000       12.0110           0
     62149 WT21     733      MECN     H11      HGA3     0.090000        1.0080           0
     62150 WT21     733      MECN     H12      HGA3     0.090000        1.0080           0
     62151 WT21     733      MECN     H13      HGA3     0.090000        1.0080           0
     62152 WT21     733      MECN     C2       CG1N1    0.360000       12.0110           0
     62153 WT21     733      MECN     N3       NG1T1   -0.460000       14.0070           0
     62154 WT21     734      MECN     C1       CG331   -0.170000       12.0110           0
     62155 WT21     734      MECN     H11      HGA3     0.090000        1.0080           0
     62156 WT21     734      MECN     H12      HGA3     0.090000        1.0080           0
     62157 WT21     734      MECN     H13      HGA3     0.090000        1.0080           0
     62158 WT21     734      MECN     C2       CG1N1    0.360000       12.0110           0
     62159 WT21     734      MECN     N3       NG1T1   -0.460000       14.0070           0
     62160 WT21     736      MECN     C1       CG331   -0.170000       12.0110           0
     62161 WT21     736      MECN     H11      HGA3     0.090000        1.0080           0
     62162 WT21     736      MECN     H12      HGA3     0.090000        1.0080           0
     62163 WT21     736      MECN     H13      HGA3     0.090000        1.0080           0
     62164 WT21     736      MECN     C2       CG1N1    0.360000       12.0110           0
     62165 WT21     736      MECN     N3       NG1T1   -0.460000       14.0070           0
     62166 WT21     737      MECN     C1       CG331   -0.170000       12.0110           0
     62167 WT21     737      MECN     H11      HGA3     0.090000        1.0080           0
     62168 WT21     737      MECN     H12      HGA3     0.090000        1.0080           0
     62169 WT21     737      MECN     H13      HGA3     0.090000        1.0080           0
     62170 WT21     737      MECN     C2       CG1N1    0.360000       12.0110           0
     62171 WT21     737      MECN     N3       NG1T1   -0.460000       14.0070           0
     62172 WT21     741      MECN     C1       CG331   -0.170000       12.0110           0
     62173 WT21     741      MECN     H11      HGA3     0.090000        1.0080           0
     62174 WT21     741      MECN     H12      HGA3     0.090000        1.0080           0
     62175 WT21     741      MECN     H13      HGA3     0.090000        1.0080           0
     62176 WT21     741      MECN     C2       CG1N1    0.360000       12.0110           0
     62177 WT21     741      MECN     N3       NG1T1   -0.460000       14.0070           0
     62178 WT21     743      MECN     C1       CG331   -0.170000       12.0110           0
     62179 WT21     743      MECN     H11      HGA3     0.090000        1.0080           0
     62180 WT21     743      MECN     H12      HGA3     0.090000        1.0080           0
     62181 WT21     743      MECN     H13      HGA3     0.090000        1.0080           0
     62182 WT21     743      MECN     C2       CG1N1    0.360000       12.0110           0
     62183 WT21     743      MECN     N3       NG1T1   -0.460000       14.0070           0
     62184 WT21     744      MECN     C1       CG331   -0.170000       12.0110           0
     62185 WT21     744      MECN     H11      HGA3     0.090000        1.0080           0
     62186 WT21     744      MECN     H12      HGA3     0.090000        1.0080           0
     62187 WT21     744      MECN     H13      HGA3     0.090000        1.0080           0
     62188 WT21     744      MECN     C2       CG1N1    0.360000       12.0110           0
     62189 WT21     744      MECN     N3       NG1T1   -0.460000       14.0070           0
     62190 WT21     747      MECN     C1       CG331   -0.170000       12.0110           0
     62191 WT21     747      MECN     H11      HGA3     0.090000        1.0080           0
     62192 WT21     747      MECN     H12      HGA3     0.090000        1.0080           0
     62193 WT21     747      MECN     H13      HGA3     0.090000        1.0080           0
     62194 WT21     747      MECN     C2       CG1N1    0.360000       12.0110           0
     62195 WT21     747      MECN     N3       NG1T1   -0.460000       14.0070           0
     62196 WT21     750      MECN     C1       CG331   -0.170000       12.0110           0
     62197 WT21     750      MECN     H11      HGA3     0.090000        1.0080           0
     62198 WT21     750      MECN     H12      HGA3     0.090000        1.0080           0
     62199 WT21     750      MECN     H13      HGA3     0.090000        1.0080           0
     62200 WT21     750      MECN     C2       CG1N1    0.360000       12.0110           0
     62201 WT21     750      MECN     N3       NG1T1   -0.460000       14.0070           0
     62202 WT21     752      MECN     C1       CG331   -0.170000       12.0110           0
     62203 WT21     752      MECN     H11      HGA3     0.090000        1.0080           0
     62204 WT21     752      MECN     H12      HGA3     0.090000        1.0080           0
     62205 WT21     752      MECN     H13      HGA3     0.090000        1.0080           0
     62206 WT21     752      MECN     C2       CG1N1    0.360000       12.0110           0
     62207 WT21     752      MECN     N3       NG1T1   -0.460000       14.0070           0
     62208 WT21     754      MECN     C1       CG331   -0.170000       12.0110           0
     62209 WT21     754      MECN     H11      HGA3     0.090000        1.0080           0
     62210 WT21     754      MECN     H12      HGA3     0.090000        1.0080           0
     62211 WT21     754      MECN     H13      HGA3     0.090000        1.0080           0
     62212 WT21     754      MECN     C2       CG1N1    0.360000       12.0110           0
     62213 WT21     754      MECN     N3       NG1T1   -0.460000       14.0070           0
     62214 WT21     755      MECN     C1       CG331   -0.170000       12.0110           0
     62215 WT21     755      MECN     H11      HGA3     0.090000        1.0080           0
     62216 WT21     755      MECN     H12      HGA3     0.090000        1.0080           0
     62217 WT21     755      MECN     H13      HGA3     0.090000        1.0080           0
     62218 WT21     755      MECN     C2       CG1N1    0.360000       12.0110           0
     62219 WT21     755      MECN     N3       NG1T1   -0.460000       14.0070           0
     62220 WT21     756      MECN     C1       CG331   -0.170000       12.0110           0
     62221 WT21     756      MECN     H11      HGA3     0.090000        1.0080           0
     62222 WT21     756      MECN     H12      HGA3     0.090000        1.0080           0
     62223 WT21     756      MECN     H13      HGA3     0.090000        1.0080           0
     62224 WT21     756      MECN     C2       CG1N1    0.360000       12.0110           0
     62225 WT21     756      MECN     N3       NG1T1   -0.460000       14.0070           0
     62226 WT21     757      MECN     C1       CG331   -0.170000       12.0110           0
     62227 WT21     757      MECN     H11      HGA3     0.090000        1.0080           0
     62228 WT21     757      MECN     H12      HGA3     0.090000        1.0080           0
     62229 WT21     757      MECN     H13      HGA3     0.090000        1.0080           0
     62230 WT21     757      MECN     C2       CG1N1    0.360000       12.0110           0
     62231 WT21     757      MECN     N3       NG1T1   -0.460000       14.0070           0
     62232 WT21     761      MECN     C1       CG331   -0.170000       12.0110           0
     62233 WT21     761      MECN     H11      HGA3     0.090000        1.0080           0
     62234 WT21     761      MECN     H12      HGA3     0.090000        1.0080           0
     62235 WT21     761      MECN     H13      HGA3     0.090000        1.0080           0
     62236 WT21     761      MECN     C2       CG1N1    0.360000       12.0110           0
     62237 WT21     761      MECN     N3       NG1T1   -0.460000       14.0070           0
     62238 WT21     763      MECN     C1       CG331   -0.170000       12.0110           0
     62239 WT21     763      MECN     H11      HGA3     0.090000        1.0080           0
     62240 WT21     763      MECN     H12      HGA3     0.090000        1.0080           0
     62241 WT21     763      MECN     H13      HGA3     0.090000        1.0080           0
     62242 WT21     763      MECN     C2       CG1N1    0.360000       12.0110           0
     62243 WT21     763      MECN     N3       NG1T1   -0.460000       14.0070           0
     62244 WT21     775      MECN     C1       CG331   -0.170000       12.0110           0
     62245 WT21     775      MECN     H11      HGA3     0.090000        1.0080           0
     62246 WT21     775      MECN     H12      HGA3     0.090000        1.0080           0
     62247 WT21     775      MECN     H13      HGA3     0.090000        1.0080           0
     62248 WT21     775      MECN     C2       CG1N1    0.360000       12.0110           0
     62249 WT21     775      MECN     N3       NG1T1   -0.460000       14.0070           0
     62250 WT21     777      MECN     C1       CG331   -0.170000       12.0110           0
     62251 WT21     777      MECN     H11      HGA3     0.090000        1.0080           0
     62252 WT21     777      MECN     H12      HGA3     0.090000        1.0080           0
     62253 WT21     777      MECN     H13      HGA3     0.090000        1.0080           0
     62254 WT21     777      MECN     C2       CG1N1    0.360000       12.0110           0
     62255 WT21     777      MECN     N3       NG1T1   -0.460000       14.0070           0
     62256 WT21     782      MECN     C1       CG331   -0.170000       12.0110           0
     62257 WT21     782      MECN     H11      HGA3     0.090000        1.0080           0
     62258 WT21     782      MECN     H12      HGA3     0.090000        1.0080           0
     62259 WT21     782      MECN     H13      HGA3     0.090000        1.0080           0
     62260 WT21     782      MECN     C2       CG1N1    0.360000       12.0110           0
     62261 WT21     782      MECN     N3       NG1T1   -0.460000       14.0070           0
     62262 WT21     789      MECN     C1       CG331   -0.170000       12.0110           0
     62263 WT21     789      MECN     H11      HGA3     0.090000        1.0080           0
     62264 WT21     789      MECN     H12      HGA3     0.090000        1.0080           0
     62265 WT21     789      MECN     H13      HGA3     0.090000        1.0080           0
     62266 WT21     789      MECN     C2       CG1N1    0.360000       12.0110           0
     62267 WT21     789      MECN     N3       NG1T1   -0.460000       14.0070           0
     62268 WT21     795      MECN     C1       CG331   -0.170000       12.0110           0
     62269 WT21     795      MECN     H11      HGA3     0.090000        1.0080           0
     62270 WT21     795      MECN     H12      HGA3     0.090000        1.0080           0
     62271 WT21     795      MECN     H13      HGA3     0.090000        1.0080           0
     62272 WT21     795      MECN     C2       CG1N1    0.360000       12.0110           0
     62273 WT21     795      MECN     N3       NG1T1   -0.460000       14.0070           0
     62274 WT21     800      MECN     C1       CG331   -0.170000       12.0110           0
     62275 WT21     800      MECN     H11      HGA3     0.090000        1.0080           0
     62276 WT21     800      MECN     H12      HGA3     0.090000        1.0080           0
     62277 WT21     800      MECN     H13      HGA3     0.090000        1.0080           0
     62278 WT21     800      MECN     C2       CG1N1    0.360000       12.0110           0
     62279 WT21     800      MECN     N3       NG1T1   -0.460000       14.0070           0
     62280 WT21     801      MECN     C1       CG331   -0.170000       12.0110           0
     62281 WT21     801      MECN     H11      HGA3     0.090000        1.0080           0
     62282 WT21     801      MECN     H12      HGA3     0.090000        1.0080           0
     62283 WT21     801      MECN     H13      HGA3     0.090000        1.0080           0
     62284 WT21     801      MECN     C2       CG1N1    0.360000       12.0110           0
     62285 WT21     801      MECN     N3       NG1T1   -0.460000       14.0070           0
     62286 WT21     803      MECN     C1       CG331   -0.170000       12.0110           0
     62287 WT21     803      MECN     H11      HGA3     0.090000        1.0080           0
     62288 WT21     803      MECN     H12      HGA3     0.090000        1.0080           0
     62289 WT21     803      MECN     H13      HGA3     0.090000        1.0080           0
     62290 WT21     803      MECN     C2       CG1N1    0.360000       12.0110           0
     62291 WT21     803      MECN     N3       NG1T1   -0.460000       14.0070           0
     62292 WT21     810      MECN     C1       CG331   -0.170000       12.0110           0
     62293 WT21     810      MECN     H11      HGA3     0.090000        1.0080           0
     62294 WT21     810      MECN     H12      HGA3     0.090000        1.0080           0
     62295 WT21     810      MECN     H13      HGA3     0.090000        1.0080           0
     62296 WT21     810      MECN     C2       CG1N1    0.360000       12.0110           0
     62297 WT21     810      MECN     N3       NG1T1   -0.460000       14.0070           0
     62298 WT21     814      MECN     C1       CG331   -0.170000       12.0110           0
     62299 WT21     814      MECN     H11      HGA3     0.090000        1.0080           0
     62300 WT21     814      MECN     H12      HGA3     0.090000        1.0080           0
     62301 WT21     814      MECN     H13      HGA3     0.090000        1.0080           0
     62302 WT21     814      MECN     C2       CG1N1    0.360000       12.0110           0
     62303 WT21     814      MECN     N3       NG1T1   -0.460000       14.0070           0
     62304 WT21     822      MECN     C1       CG331   -0.170000       12.0110           0
     62305 WT21     822      MECN     H11      HGA3     0.090000        1.0080           0
     62306 WT21     822      MECN     H12      HGA3     0.090000        1.0080           0
     62307 WT21     822      MECN     H13      HGA3     0.090000        1.0080           0
     62308 WT21     822      MECN     C2       CG1N1    0.360000       12.0110           0
     62309 WT21     822      MECN     N3       NG1T1   -0.460000       14.0070           0
     62310 WT21     829      MECN     C1       CG331   -0.170000       12.0110           0
     62311 WT21     829      MECN     H11      HGA3     0.090000        1.0080           0
     62312 WT21     829      MECN     H12      HGA3     0.090000        1.0080           0
     62313 WT21     829      MECN     H13      HGA3     0.090000        1.0080           0
     62314 WT21     829      MECN     C2       CG1N1    0.360000       12.0110           0
     62315 WT21     829      MECN     N3       NG1T1   -0.460000       14.0070           0
     62316 WT21     831      MECN     C1       CG331   -0.170000       12.0110           0
     62317 WT21     831      MECN     H11      HGA3     0.090000        1.0080           0
     62318 WT21     831      MECN     H12      HGA3     0.090000        1.0080           0
     62319 WT21     831      MECN     H13      HGA3     0.090000        1.0080           0
     62320 WT21     831      MECN     C2       CG1N1    0.360000       12.0110           0
     62321 WT21     831      MECN     N3       NG1T1   -0.460000       14.0070           0
     62322 WT21     838      MECN     C1       CG331   -0.170000       12.0110           0
     62323 WT21     838      MECN     H11      HGA3     0.090000        1.0080           0
     62324 WT21     838      MECN     H12      HGA3     0.090000        1.0080           0
     62325 WT21     838      MECN     H13      HGA3     0.090000        1.0080           0
     62326 WT21     838      MECN     C2       CG1N1    0.360000       12.0110           0
     62327 WT21     838      MECN     N3       NG1T1   -0.460000       14.0070           0
     62328 WT21     842      MECN     C1       CG331   -0.170000       12.0110           0
     62329 WT21     842      MECN     H11      HGA3     0.090000        1.0080           0
     62330 WT21     842      MECN     H12      HGA3     0.090000        1.0080           0
     62331 WT21     842      MECN     H13      HGA3     0.090000        1.0080           0
     62332 WT21     842      MECN     C2       CG1N1    0.360000       12.0110           0
     62333 WT21     842      MECN     N3       NG1T1   -0.460000       14.0070           0
     62334 WT21     844      MECN     C1       CG331   -0.170000       12.0110           0
     62335 WT21     844      MECN     H11      HGA3     0.090000        1.0080           0
     62336 WT21     844      MECN     H12      HGA3     0.090000        1.0080           0
     62337 WT21     844      MECN     H13      HGA3     0.090000        1.0080           0
     62338 WT21     844      MECN     C2       CG1N1    0.360000       12.0110           0
     62339 WT21     844      MECN     N3       NG1T1   -0.460000       14.0070           0
     62340 WT21     850      MECN     C1       CG331   -0.170000       12.0110           0
     62341 WT21     850      MECN     H11      HGA3     0.090000        1.0080           0
     62342 WT21     850      MECN     H12      HGA3     0.090000        1.0080           0
     62343 WT21     850      MECN     H13      HGA3     0.090000        1.0080           0
     62344 WT21     850      MECN     C2       CG1N1    0.360000       12.0110           0
     62345 WT21     850      MECN     N3       NG1T1   -0.460000       14.0070           0
     62346 WT21     851      MECN     C1       CG331   -0.170000       12.0110           0
     62347 WT21     851      MECN     H11      HGA3     0.090000        1.0080           0
     62348 WT21     851      MECN     H12      HGA3     0.090000        1.0080           0
     62349 WT21     851      MECN     H13      HGA3     0.090000        1.0080           0
     62350 WT21     851      MECN     C2       CG1N1    0.360000       12.0110           0
     62351 WT21     851      MECN     N3       NG1T1   -0.460000       14.0070           0
     62352 WT21     859      MECN     C1       CG331   -0.170000       12.0110           0
     62353 WT21     859      MECN     H11      HGA3     0.090000        1.0080           0
     62354 WT21     859      MECN     H12      HGA3     0.090000        1.0080           0
     62355 WT21     859      MECN     H13      HGA3     0.090000        1.0080           0
     62356 WT21     859      MECN     C2       CG1N1    0.360000       12.0110           0
     62357 WT21     859      MECN     N3       NG1T1   -0.460000       14.0070           0
     62358 WT21     861      MECN     C1       CG331   -0.170000       12.0110           0
     62359 WT21     861      MECN     H11      HGA3     0.090000        1.0080           0
     62360 WT21     861      MECN     H12      HGA3     0.090000        1.0080           0
     62361 WT21     861      MECN     H13      HGA3     0.090000        1.0080           0
     62362 WT21     861      MECN     C2       CG1N1    0.360000       12.0110           0
     62363 WT21     861      MECN     N3       NG1T1   -0.460000       14.0070           0
     62364 WT21     868      MECN     C1       CG331   -0.170000       12.0110           0
     62365 WT21     868      MECN     H11      HGA3     0.090000        1.0080           0
     62366 WT21     868      MECN     H12      HGA3     0.090000        1.0080           0
     62367 WT21     868      MECN     H13      HGA3     0.090000        1.0080           0
     62368 WT21     868      MECN     C2       CG1N1    0.360000       12.0110           0
     62369 WT21     868      MECN     N3       NG1T1   -0.460000       14.0070           0
     62370 WT21     871      MECN     C1       CG331   -0.170000       12.0110           0
     62371 WT21     871      MECN     H11      HGA3     0.090000        1.0080           0
     62372 WT21     871      MECN     H12      HGA3     0.090000        1.0080           0
     62373 WT21     871      MECN     H13      HGA3     0.090000        1.0080           0
     62374 WT21     871      MECN     C2       CG1N1    0.360000       12.0110           0
     62375 WT21     871      MECN     N3       NG1T1   -0.460000       14.0070           0
     62376 WT21     873      MECN     C1       CG331   -0.170000       12.0110           0
     62377 WT21     873      MECN     H11      HGA3     0.090000        1.0080           0
     62378 WT21     873      MECN     H12      HGA3     0.090000        1.0080           0
     62379 WT21     873      MECN     H13      HGA3     0.090000        1.0080           0
     62380 WT21     873      MECN     C2       CG1N1    0.360000       12.0110           0
     62381 WT21     873      MECN     N3       NG1T1   -0.460000       14.0070           0
     62382 WT21     879      MECN     C1       CG331   -0.170000       12.0110           0
     62383 WT21     879      MECN     H11      HGA3     0.090000        1.0080           0
     62384 WT21     879      MECN     H12      HGA3     0.090000        1.0080           0
     62385 WT21     879      MECN     H13      HGA3     0.090000        1.0080           0
     62386 WT21     879      MECN     C2       CG1N1    0.360000       12.0110           0
     62387 WT21     879      MECN     N3       NG1T1   -0.460000       14.0070           0
     62388 WT21     880      MECN     C1       CG331   -0.170000       12.0110           0
     62389 WT21     880      MECN     H11      HGA3     0.090000        1.0080           0
     62390 WT21     880      MECN     H12      HGA3     0.090000        1.0080           0
     62391 WT21     880      MECN     H13      HGA3     0.090000        1.0080           0
     62392 WT21     880      MECN     C2       CG1N1    0.360000       12.0110           0
     62393 WT21     880      MECN     N3       NG1T1   -0.460000       14.0070           0
     62394 WT21     883      MECN     C1       CG331   -0.170000       12.0110           0
     62395 WT21     883      MECN     H11      HGA3     0.090000        1.0080           0
     62396 WT21     883      MECN     H12      HGA3     0.090000        1.0080           0
     62397 WT21     883      MECN     H13      HGA3     0.090000        1.0080           0
     62398 WT21     883      MECN     C2       CG1N1    0.360000       12.0110           0
     62399 WT21     883      MECN     N3       NG1T1   -0.460000       14.0070           0
     62400 WT21     887      MECN     C1       CG331   -0.170000       12.0110           0
     62401 WT21     887      MECN     H11      HGA3     0.090000        1.0080           0
     62402 WT21     887      MECN     H12      HGA3     0.090000        1.0080           0
     62403 WT21     887      MECN     H13      HGA3     0.090000        1.0080           0
     62404 WT21     887      MECN     C2       CG1N1    0.360000       12.0110           0
     62405 WT21     887      MECN     N3       NG1T1   -0.460000       14.0070           0
     62406 WT21     889      MECN     C1       CG331   -0.170000       12.0110           0
     62407 WT21     889      MECN     H11      HGA3     0.090000        1.0080           0
     62408 WT21     889      MECN     H12      HGA3     0.090000        1.0080           0
     62409 WT21     889      MECN     H13      HGA3     0.090000        1.0080           0
     62410 WT21     889      MECN     C2       CG1N1    0.360000       12.0110           0
     62411 WT21     889      MECN     N3       NG1T1   -0.460000       14.0070           0
     62412 WT21     890      MECN     C1       CG331   -0.170000       12.0110           0
     62413 WT21     890      MECN     H11      HGA3     0.090000        1.0080           0
     62414 WT21     890      MECN     H12      HGA3     0.090000        1.0080           0
     62415 WT21     890      MECN     H13      HGA3     0.090000        1.0080           0
     62416 WT21     890      MECN     C2       CG1N1    0.360000       12.0110           0
     62417 WT21     890      MECN     N3       NG1T1   -0.460000       14.0070           0
     62418 WT21     893      MECN     C1       CG331   -0.170000       12.0110           0
     62419 WT21     893      MECN     H11      HGA3     0.090000        1.0080           0
     62420 WT21     893      MECN     H12      HGA3     0.090000        1.0080           0
     62421 WT21     893      MECN     H13      HGA3     0.090000        1.0080           0
     62422 WT21     893      MECN     C2       CG1N1    0.360000       12.0110           0
     62423 WT21     893      MECN     N3       NG1T1   -0.460000       14.0070           0
     62424 WT21     894      MECN     C1       CG331   -0.170000       12.0110           0
     62425 WT21     894      MECN     H11      HGA3     0.090000        1.0080           0
     62426 WT21     894      MECN     H12      HGA3     0.090000        1.0080           0
     62427 WT21     894      MECN     H13      HGA3     0.090000        1.0080           0
     62428 WT21     894      MECN     C2       CG1N1    0.360000       12.0110           0
     62429 WT21     894      MECN     N3       NG1T1   -0.460000       14.0070           0
     62430 WT21     896      MECN     C1       CG331   -0.170000       12.0110           0
     62431 WT21     896      MECN     H11      HGA3     0.090000        1.0080           0
     62432 WT21     896      MECN     H12      HGA3     0.090000        1.0080           0
     62433 WT21     896      MECN     H13      HGA3     0.090000        1.0080           0
     62434 WT21     896      MECN     C2       CG1N1    0.360000       12.0110           0
     62435 WT21     896      MECN     N3       NG1T1   -0.460000       14.0070           0
     62436 WT21     900      MECN     C1       CG331   -0.170000       12.0110           0
     62437 WT21     900      MECN     H11      HGA3     0.090000        1.0080           0
     62438 WT21     900      MECN     H12      HGA3     0.090000        1.0080           0
     62439 WT21     900      MECN     H13      HGA3     0.090000        1.0080           0
     62440 WT21     900      MECN     C2       CG1N1    0.360000       12.0110           0
     62441 WT21     900      MECN     N3       NG1T1   -0.460000       14.0070           0
     62442 WT21     901      MECN     C1       CG331   -0.170000       12.0110           0
     62443 WT21     901      MECN     H11      HGA3     0.090000        1.0080           0
     62444 WT21     901      MECN     H12      HGA3     0.090000        1.0080           0
     62445 WT21     901      MECN     H13      HGA3     0.090000        1.0080           0
     62446 WT21     901      MECN     C2       CG1N1    0.360000       12.0110           0
     62447 WT21     901      MECN     N3       NG1T1   -0.460000       14.0070           0
     62448 WT21     902      MECN     C1       CG331   -0.170000       12.0110           0
     62449 WT21     902      MECN     H11      HGA3     0.090000        1.0080           0
     62450 WT21     902      MECN     H12      HGA3     0.090000        1.0080           0
     62451 WT21     902      MECN     H13      HGA3     0.090000        1.0080           0
     62452 WT21     902      MECN     C2       CG1N1    0.360000       12.0110           0
     62453 WT21     902      MECN     N3       NG1T1   -0.460000       14.0070           0
     62454 WT21     904      MECN     C1       CG331   -0.170000       12.0110           0
     62455 WT21     904      MECN     H11      HGA3     0.090000        1.0080           0
     62456 WT21     904      MECN     H12      HGA3     0.090000        1.0080           0
     62457 WT21     904      MECN     H13      HGA3     0.090000        1.0080           0
     62458 WT21     904      MECN     C2       CG1N1    0.360000       12.0110           0
     62459 WT21     904      MECN     N3       NG1T1   -0.460000       14.0070           0
     62460 WT21     906      MECN     C1       CG331   -0.170000       12.0110           0
     62461 WT21     906      MECN     H11      HGA3     0.090000        1.0080           0
     62462 WT21     906      MECN     H12      HGA3     0.090000        1.0080           0
     62463 WT21     906      MECN     H13      HGA3     0.090000        1.0080           0
     62464 WT21     906      MECN     C2       CG1N1    0.360000       12.0110           0
     62465 WT21     906      MECN     N3       NG1T1   -0.460000       14.0070           0
     62466 WT21     907      MECN     C1       CG331   -0.170000       12.0110           0
     62467 WT21     907      MECN     H11      HGA3     0.090000        1.0080           0
     62468 WT21     907      MECN     H12      HGA3     0.090000        1.0080           0
     62469 WT21     907      MECN     H13      HGA3     0.090000        1.0080           0
     62470 WT21     907      MECN     C2       CG1N1    0.360000       12.0110           0
     62471 WT21     907      MECN     N3       NG1T1   -0.460000       14.0070           0
     62472 WT21     912      MECN     C1       CG331   -0.170000       12.0110           0
     62473 WT21     912      MECN     H11      HGA3     0.090000        1.0080           0
     62474 WT21     912      MECN     H12      HGA3     0.090000        1.0080           0
     62475 WT21     912      MECN     H13      HGA3     0.090000        1.0080           0
     62476 WT21     912      MECN     C2       CG1N1    0.360000       12.0110           0
     62477 WT21     912      MECN     N3       NG1T1   -0.460000       14.0070           0
     62478 WT21     925      MECN     C1       CG331   -0.170000       12.0110           0
     62479 WT21     925      MECN     H11      HGA3     0.090000        1.0080           0
     62480 WT21     925      MECN     H12      HGA3     0.090000        1.0080           0
     62481 WT21     925      MECN     H13      HGA3     0.090000        1.0080           0
     62482 WT21     925      MECN     C2       CG1N1    0.360000       12.0110           0
     62483 WT21     925      MECN     N3       NG1T1   -0.460000       14.0070           0
     62484 WT21     934      MECN     C1       CG331   -0.170000       12.0110           0
     62485 WT21     934      MECN     H11      HGA3     0.090000        1.0080           0
     62486 WT21     934      MECN     H12      HGA3     0.090000        1.0080           0
     62487 WT21     934      MECN     H13      HGA3     0.090000        1.0080           0
     62488 WT21     934      MECN     C2       CG1N1    0.360000       12.0110           0
     62489 WT21     934      MECN     N3       NG1T1   -0.460000       14.0070           0
     62490 WT21     940      MECN     C1       CG331   -0.170000       12.0110           0
     62491 WT21     940      MECN     H11      HGA3     0.090000        1.0080           0
     62492 WT21     940      MECN     H12      HGA3     0.090000        1.0080           0
     62493 WT21     940      MECN     H13      HGA3     0.090000        1.0080           0
     62494 WT21     940      MECN     C2       CG1N1    0.360000       12.0110           0
     62495 WT21     940      MECN     N3       NG1T1   -0.460000       14.0070           0
     62496 WT21     943      MECN     C1       CG331   -0.170000       12.0110           0
     62497 WT21     943      MECN     H11      HGA3     0.090000        1.0080           0
     62498 WT21     943      MECN     H12      HGA3     0.090000        1.0080           0
     62499 WT21     943      MECN     H13      HGA3     0.090000        1.0080           0
     62500 WT21     943      MECN     C2       CG1N1    0.360000       12.0110           0
     62501 WT21     943      MECN     N3       NG1T1   -0.460000       14.0070           0
     62502 WT21     959      MECN     C1       CG331   -0.170000       12.0110           0
     62503 WT21     959      MECN     H11      HGA3     0.090000        1.0080           0
     62504 WT21     959      MECN     H12      HGA3     0.090000        1.0080           0
     62505 WT21     959      MECN     H13      HGA3     0.090000        1.0080           0
     62506 WT21     959      MECN     C2       CG1N1    0.360000       12.0110           0
     62507 WT21     959      MECN     N3       NG1T1   -0.460000       14.0070           0
     62508 WT21     971      MECN     C1       CG331   -0.170000       12.0110           0
     62509 WT21     971      MECN     H11      HGA3     0.090000        1.0080           0
     62510 WT21     971      MECN     H12      HGA3     0.090000        1.0080           0
     62511 WT21     971      MECN     H13      HGA3     0.090000        1.0080           0
     62512 WT21     971      MECN     C2       CG1N1    0.360000       12.0110           0
     62513 WT21     971      MECN     N3       NG1T1   -0.460000       14.0070           0
     62514 WT21     973      MECN     C1       CG331   -0.170000       12.0110           0
     62515 WT21     973      MECN     H11      HGA3     0.090000        1.0080           0
     62516 WT21     973      MECN     H12      HGA3     0.090000        1.0080           0
     62517 WT21     973      MECN     H13      HGA3     0.090000        1.0080           0
     62518 WT21     973      MECN     C2       CG1N1    0.360000       12.0110           0
     62519 WT21     973      MECN     N3       NG1T1   -0.460000       14.0070           0
     62520 WT21     976      MECN     C1       CG331   -0.170000       12.0110           0
     62521 WT21     976      MECN     H11      HGA3     0.090000        1.0080           0
     62522 WT21     976      MECN     H12      HGA3     0.090000        1.0080           0
     62523 WT21     976      MECN     H13      HGA3     0.090000        1.0080           0
     62524 WT21     976      MECN     C2       CG1N1    0.360000       12.0110           0
     62525 WT21     976      MECN     N3       NG1T1   -0.460000       14.0070           0
     62526 WT21     979      MECN     C1       CG331   -0.170000       12.0110           0
     62527 WT21     979      MECN     H11      HGA3     0.090000        1.0080           0
     62528 WT21     979      MECN     H12      HGA3     0.090000        1.0080           0
     62529 WT21     979      MECN     H13      HGA3     0.090000        1.0080           0
     62530 WT21     979      MECN     C2       CG1N1    0.360000       12.0110           0
     62531 WT21     979      MECN     N3       NG1T1   -0.460000       14.0070           0
     62532 WT21     1000     MECN     C1       CG331   -0.170000       12.0110           0
     62533 WT21     1000     MECN     H11      HGA3     0.090000        1.0080           0
     62534 WT21     1000     MECN     H12      HGA3     0.090000        1.0080           0
     62535 WT21     1000     MECN     H13      HGA3     0.090000        1.0080           0
     62536 WT21     1000     MECN     C2       CG1N1    0.360000       12.0110           0
     62537 WT21     1000     MECN     N3       NG1T1   -0.460000       14.0070           0
     62538 WT21     1003     MECN     C1       CG331   -0.170000       12.0110           0
     62539 WT21     1003     MECN     H11      HGA3     0.090000        1.0080           0
     62540 WT21     1003     MECN     H12      HGA3     0.090000        1.0080           0
     62541 WT21     1003     MECN     H13      HGA3     0.090000        1.0080           0
     62542 WT21     1003     MECN     C2       CG1N1    0.360000       12.0110           0
     62543 WT21     1003     MECN     N3       NG1T1   -0.460000       14.0070           0
     62544 WT21     1005     MECN     C1       CG331   -0.170000       12.0110           0
     62545 WT21     1005     MECN     H11      HGA3     0.090000        1.0080           0
     62546 WT21     1005     MECN     H12      HGA3     0.090000        1.0080           0
     62547 WT21     1005     MECN     H13      HGA3     0.090000        1.0080           0
     62548 WT21     1005     MECN     C2       CG1N1    0.360000       12.0110           0
     62549 WT21     1005     MECN     N3       NG1T1   -0.460000       14.0070           0
     62550 WT21     1006     MECN     C1       CG331   -0.170000       12.0110           0
     62551 WT21     1006     MECN     H11      HGA3     0.090000        1.0080           0
     62552 WT21     1006     MECN     H12      HGA3     0.090000        1.0080           0
     62553 WT21     1006     MECN     H13      HGA3     0.090000        1.0080           0
     62554 WT21     1006     MECN     C2       CG1N1    0.360000       12.0110           0
     62555 WT21     1006     MECN     N3       NG1T1   -0.460000       14.0070           0
     62556 WT21     1017     MECN     C1       CG331   -0.170000       12.0110           0
     62557 WT21     1017     MECN     H11      HGA3     0.090000        1.0080           0
     62558 WT21     1017     MECN     H12      HGA3     0.090000        1.0080           0
     62559 WT21     1017     MECN     H13      HGA3     0.090000        1.0080           0
     62560 WT21     1017     MECN     C2       CG1N1    0.360000       12.0110           0
     62561 WT21     1017     MECN     N3       NG1T1   -0.460000       14.0070           0
     62562 WT21     1028     MECN     C1       CG331   -0.170000       12.0110           0
     62563 WT21     1028     MECN     H11      HGA3     0.090000        1.0080           0
     62564 WT21     1028     MECN     H12      HGA3     0.090000        1.0080           0
     62565 WT21     1028     MECN     H13      HGA3     0.090000        1.0080           0
     62566 WT21     1028     MECN     C2       CG1N1    0.360000       12.0110           0
     62567 WT21     1028     MECN     N3       NG1T1   -0.460000       14.0070           0
     62568 WT21     1042     MECN     C1       CG331   -0.170000       12.0110           0
     62569 WT21     1042     MECN     H11      HGA3     0.090000        1.0080           0
     62570 WT21     1042     MECN     H12      HGA3     0.090000        1.0080           0
     62571 WT21     1042     MECN     H13      HGA3     0.090000        1.0080           0
     62572 WT21     1042     MECN     C2       CG1N1    0.360000       12.0110           0
     62573 WT21     1042     MECN     N3       NG1T1   -0.460000       14.0070           0
     62574 WT21     1049     MECN     C1       CG331   -0.170000       12.0110           0
     62575 WT21     1049     MECN     H11      HGA3     0.090000        1.0080           0
     62576 WT21     1049     MECN     H12      HGA3     0.090000        1.0080           0
     62577 WT21     1049     MECN     H13      HGA3     0.090000        1.0080           0
     62578 WT21     1049     MECN     C2       CG1N1    0.360000       12.0110           0
     62579 WT21     1049     MECN     N3       NG1T1   -0.460000       14.0070           0
     62580 WT21     1054     MECN     C1       CG331   -0.170000       12.0110           0
     62581 WT21     1054     MECN     H11      HGA3     0.090000        1.0080           0
     62582 WT21     1054     MECN     H12      HGA3     0.090000        1.0080           0
     62583 WT21     1054     MECN     H13      HGA3     0.090000        1.0080           0
     62584 WT21     1054     MECN     C2       CG1N1    0.360000       12.0110           0
     62585 WT21     1054     MECN     N3       NG1T1   -0.460000       14.0070           0
     62586 WT21     1059     MECN     C1       CG331   -0.170000       12.0110           0
     62587 WT21     1059     MECN     H11      HGA3     0.090000        1.0080           0
     62588 WT21     1059     MECN     H12      HGA3     0.090000        1.0080           0
     62589 WT21     1059     MECN     H13      HGA3     0.090000        1.0080           0
     62590 WT21     1059     MECN     C2       CG1N1    0.360000       12.0110           0
     62591 WT21     1059     MECN     N3       NG1T1   -0.460000       14.0070           0
     62592 WT21     1061     MECN     C1       CG331   -0.170000       12.0110           0
     62593 WT21     1061     MECN     H11      HGA3     0.090000        1.0080           0
     62594 WT21     1061     MECN     H12      HGA3     0.090000        1.0080           0
     62595 WT21     1061     MECN     H13      HGA3     0.090000        1.0080           0
     62596 WT21     1061     MECN     C2       CG1N1    0.360000       12.0110           0
     62597 WT21     1061     MECN     N3       NG1T1   -0.460000       14.0070           0
     62598 WT21     1070     MECN     C1       CG331   -0.170000       12.0110           0
     62599 WT21     1070     MECN     H11      HGA3     0.090000        1.0080           0
     62600 WT21     1070     MECN     H12      HGA3     0.090000        1.0080           0
     62601 WT21     1070     MECN     H13      HGA3     0.090000        1.0080           0
     62602 WT21     1070     MECN     C2       CG1N1    0.360000       12.0110           0
     62603 WT21     1070     MECN     N3       NG1T1   -0.460000       14.0070           0
     62604 WT21     1083     MECN     C1       CG331   -0.170000       12.0110           0
     62605 WT21     1083     MECN     H11      HGA3     0.090000        1.0080           0
     62606 WT21     1083     MECN     H12      HGA3     0.090000        1.0080           0
     62607 WT21     1083     MECN     H13      HGA3     0.090000        1.0080           0
     62608 WT21     1083     MECN     C2       CG1N1    0.360000       12.0110           0
     62609 WT21     1083     MECN     N3       NG1T1   -0.460000       14.0070           0
     62610 WT21     1096     MECN     C1       CG331   -0.170000       12.0110           0
     62611 WT21     1096     MECN     H11      HGA3     0.090000        1.0080           0
     62612 WT21     1096     MECN     H12      HGA3     0.090000        1.0080           0
     62613 WT21     1096     MECN     H13      HGA3     0.090000        1.0080           0
     62614 WT21     1096     MECN     C2       CG1N1    0.360000       12.0110           0
     62615 WT21     1096     MECN     N3       NG1T1   -0.460000       14.0070           0
     62616 WT21     1099     MECN     C1       CG331   -0.170000       12.0110           0
     62617 WT21     1099     MECN     H11      HGA3     0.090000        1.0080           0
     62618 WT21     1099     MECN     H12      HGA3     0.090000        1.0080           0
     62619 WT21     1099     MECN     H13      HGA3     0.090000        1.0080           0
     62620 WT21     1099     MECN     C2       CG1N1    0.360000       12.0110           0
     62621 WT21     1099     MECN     N3       NG1T1   -0.460000       14.0070           0
     62622 WT21     1100     MECN     C1       CG331   -0.170000       12.0110           0
     62623 WT21     1100     MECN     H11      HGA3     0.090000        1.0080           0
     62624 WT21     1100     MECN     H12      HGA3     0.090000        1.0080           0
     62625 WT21     1100     MECN     H13      HGA3     0.090000        1.0080           0
     62626 WT21     1100     MECN     C2       CG1N1    0.360000       12.0110           0
     62627 WT21     1100     MECN     N3       NG1T1   -0.460000       14.0070           0
     62628 WT21     1101     MECN     C1       CG331   -0.170000       12.0110           0
     62629 WT21     1101     MECN     H11      HGA3     0.090000        1.0080           0
     62630 WT21     1101     MECN     H12      HGA3     0.090000        1.0080           0
     62631 WT21     1101     MECN     H13      HGA3     0.090000        1.0080           0
     62632 WT21     1101     MECN     C2       CG1N1    0.360000       12.0110           0
     62633 WT21     1101     MECN     N3       NG1T1   -0.460000       14.0070           0
     62634 WT21     1105     MECN     C1       CG331   -0.170000       12.0110           0
     62635 WT21     1105     MECN     H11      HGA3     0.090000        1.0080           0
     62636 WT21     1105     MECN     H12      HGA3     0.090000        1.0080           0
     62637 WT21     1105     MECN     H13      HGA3     0.090000        1.0080           0
     62638 WT21     1105     MECN     C2       CG1N1    0.360000       12.0110           0
     62639 WT21     1105     MECN     N3       NG1T1   -0.460000       14.0070           0
     62640 WT21     1110     MECN     C1       CG331   -0.170000       12.0110           0
     62641 WT21     1110     MECN     H11      HGA3     0.090000        1.0080           0
     62642 WT21     1110     MECN     H12      HGA3     0.090000        1.0080           0
     62643 WT21     1110     MECN     H13      HGA3     0.090000        1.0080           0
     62644 WT21     1110     MECN     C2       CG1N1    0.360000       12.0110           0
     62645 WT21     1110     MECN     N3       NG1T1   -0.460000       14.0070           0
     62646 WT21     1112     MECN     C1       CG331   -0.170000       12.0110           0
     62647 WT21     1112     MECN     H11      HGA3     0.090000        1.0080           0
     62648 WT21     1112     MECN     H12      HGA3     0.090000        1.0080           0
     62649 WT21     1112     MECN     H13      HGA3     0.090000        1.0080           0
     62650 WT21     1112     MECN     C2       CG1N1    0.360000       12.0110           0
     62651 WT21     1112     MECN     N3       NG1T1   -0.460000       14.0070           0
     62652 WT21     1113     MECN     C1       CG331   -0.170000       12.0110           0
     62653 WT21     1113     MECN     H11      HGA3     0.090000        1.0080           0
     62654 WT21     1113     MECN     H12      HGA3     0.090000        1.0080           0
     62655 WT21     1113     MECN     H13      HGA3     0.090000        1.0080           0
     62656 WT21     1113     MECN     C2       CG1N1    0.360000       12.0110           0
     62657 WT21     1113     MECN     N3       NG1T1   -0.460000       14.0070           0
     62658 WT21     1121     MECN     C1       CG331   -0.170000       12.0110           0
     62659 WT21     1121     MECN     H11      HGA3     0.090000        1.0080           0
     62660 WT21     1121     MECN     H12      HGA3     0.090000        1.0080           0
     62661 WT21     1121     MECN     H13      HGA3     0.090000        1.0080           0
     62662 WT21     1121     MECN     C2       CG1N1    0.360000       12.0110           0
     62663 WT21     1121     MECN     N3       NG1T1   -0.460000       14.0070           0
     62664 WT21     1127     MECN     C1       CG331   -0.170000       12.0110           0
     62665 WT21     1127     MECN     H11      HGA3     0.090000        1.0080           0
     62666 WT21     1127     MECN     H12      HGA3     0.090000        1.0080           0
     62667 WT21     1127     MECN     H13      HGA3     0.090000        1.0080           0
     62668 WT21     1127     MECN     C2       CG1N1    0.360000       12.0110           0
     62669 WT21     1127     MECN     N3       NG1T1   -0.460000       14.0070           0
     62670 WT21     1134     MECN     C1       CG331   -0.170000       12.0110           0
     62671 WT21     1134     MECN     H11      HGA3     0.090000        1.0080           0
     62672 WT21     1134     MECN     H12      HGA3     0.090000        1.0080           0
     62673 WT21     1134     MECN     H13      HGA3     0.090000        1.0080           0
     62674 WT21     1134     MECN     C2       CG1N1    0.360000       12.0110           0
     62675 WT21     1134     MECN     N3       NG1T1   -0.460000       14.0070           0
     62676 WT21     1138     MECN     C1       CG331   -0.170000       12.0110           0
     62677 WT21     1138     MECN     H11      HGA3     0.090000        1.0080           0
     62678 WT21     1138     MECN     H12      HGA3     0.090000        1.0080           0
     62679 WT21     1138     MECN     H13      HGA3     0.090000        1.0080           0
     62680 WT21     1138     MECN     C2       CG1N1    0.360000       12.0110           0
     62681 WT21     1138     MECN     N3       NG1T1   -0.460000       14.0070           0
     62682 WT21     1139     MECN     C1       CG331   -0.170000       12.0110           0
     62683 WT21     1139     MECN     H11      HGA3     0.090000        1.0080           0
     62684 WT21     1139     MECN     H12      HGA3     0.090000        1.0080           0
     62685 WT21     1139     MECN     H13      HGA3     0.090000        1.0080           0
     62686 WT21     1139     MECN     C2       CG1N1    0.360000       12.0110           0
     62687 WT21     1139     MECN     N3       NG1T1   -0.460000       14.0070           0
     62688 WT21     1140     MECN     C1       CG331   -0.170000       12.0110           0
     62689 WT21     1140     MECN     H11      HGA3     0.090000        1.0080           0
     62690 WT21     1140     MECN     H12      HGA3     0.090000        1.0080           0
     62691 WT21     1140     MECN     H13      HGA3     0.090000        1.0080           0
     62692 WT21     1140     MECN     C2       CG1N1    0.360000       12.0110           0
     62693 WT21     1140     MECN     N3       NG1T1   -0.460000       14.0070           0
     62694 WT21     1142     MECN     C1       CG331   -0.170000       12.0110           0
     62695 WT21     1142     MECN     H11      HGA3     0.090000        1.0080           0
     62696 WT21     1142     MECN     H12      HGA3     0.090000        1.0080           0
     62697 WT21     1142     MECN     H13      HGA3     0.090000        1.0080           0
     62698 WT21     1142     MECN     C2       CG1N1    0.360000       12.0110           0
     62699 WT21     1142     MECN     N3       NG1T1   -0.460000       14.0070           0
     62700 WT21     1157     MECN     C1       CG331   -0.170000       12.0110           0
     62701 WT21     1157     MECN     H11      HGA3     0.090000        1.0080           0
     62702 WT21     1157     MECN     H12      HGA3     0.090000        1.0080           0
     62703 WT21     1157     MECN     H13      HGA3     0.090000        1.0080           0
     62704 WT21     1157     MECN     C2       CG1N1    0.360000       12.0110           0
     62705 WT21     1157     MECN     N3       NG1T1   -0.460000       14.0070           0
     62706 WT21     1164     MECN     C1       CG331   -0.170000       12.0110           0
     62707 WT21     1164     MECN     H11      HGA3     0.090000        1.0080           0
     62708 WT21     1164     MECN     H12      HGA3     0.090000        1.0080           0
     62709 WT21     1164     MECN     H13      HGA3     0.090000        1.0080           0
     62710 WT21     1164     MECN     C2       CG1N1    0.360000       12.0110           0
     62711 WT21     1164     MECN     N3       NG1T1   -0.460000       14.0070           0
     62712 WT21     1165     MECN     C1       CG331   -0.170000       12.0110           0
     62713 WT21     1165     MECN     H11      HGA3     0.090000        1.0080           0
     62714 WT21     1165     MECN     H12      HGA3     0.090000        1.0080           0
     62715 WT21     1165     MECN     H13      HGA3     0.090000        1.0080           0
     62716 WT21     1165     MECN     C2       CG1N1    0.360000       12.0110           0
     62717 WT21     1165     MECN     N3       NG1T1   -0.460000       14.0070           0
     62718 WT21     1166     MECN     C1       CG331   -0.170000       12.0110           0
     62719 WT21     1166     MECN     H11      HGA3     0.090000        1.0080           0
     62720 WT21     1166     MECN     H12      HGA3     0.090000        1.0080           0
     62721 WT21     1166     MECN     H13      HGA3     0.090000        1.0080           0
     62722 WT21     1166     MECN     C2       CG1N1    0.360000       12.0110           0
     62723 WT21     1166     MECN     N3       NG1T1   -0.460000       14.0070           0
     62724 WT21     1167     MECN     C1       CG331   -0.170000       12.0110           0
     62725 WT21     1167     MECN     H11      HGA3     0.090000        1.0080           0
     62726 WT21     1167     MECN     H12      HGA3     0.090000        1.0080           0
     62727 WT21     1167     MECN     H13      HGA3     0.090000        1.0080           0
     62728 WT21     1167     MECN     C2       CG1N1    0.360000       12.0110           0
     62729 WT21     1167     MECN     N3       NG1T1   -0.460000       14.0070           0
     62730 WT21     1172     MECN     C1       CG331   -0.170000       12.0110           0
     62731 WT21     1172     MECN     H11      HGA3     0.090000        1.0080           0
     62732 WT21     1172     MECN     H12      HGA3     0.090000        1.0080           0
     62733 WT21     1172     MECN     H13      HGA3     0.090000        1.0080           0
     62734 WT21     1172     MECN     C2       CG1N1    0.360000       12.0110           0
     62735 WT21     1172     MECN     N3       NG1T1   -0.460000       14.0070           0
     62736 WT21     1173     MECN     C1       CG331   -0.170000       12.0110           0
     62737 WT21     1173     MECN     H11      HGA3     0.090000        1.0080           0
     62738 WT21     1173     MECN     H12      HGA3     0.090000        1.0080           0
     62739 WT21     1173     MECN     H13      HGA3     0.090000        1.0080           0
     62740 WT21     1173     MECN     C2       CG1N1    0.360000       12.0110           0
     62741 WT21     1173     MECN     N3       NG1T1   -0.460000       14.0070           0
     62742 WT21     1180     MECN     C1       CG331   -0.170000       12.0110           0
     62743 WT21     1180     MECN     H11      HGA3     0.090000        1.0080           0
     62744 WT21     1180     MECN     H12      HGA3     0.090000        1.0080           0
     62745 WT21     1180     MECN     H13      HGA3     0.090000        1.0080           0
     62746 WT21     1180     MECN     C2       CG1N1    0.360000       12.0110           0
     62747 WT21     1180     MECN     N3       NG1T1   -0.460000       14.0070           0
     62748 WT21     1190     MECN     C1       CG331   -0.170000       12.0110           0
     62749 WT21     1190     MECN     H11      HGA3     0.090000        1.0080           0
     62750 WT21     1190     MECN     H12      HGA3     0.090000        1.0080           0
     62751 WT21     1190     MECN     H13      HGA3     0.090000        1.0080           0
     62752 WT21     1190     MECN     C2       CG1N1    0.360000       12.0110           0
     62753 WT21     1190     MECN     N3       NG1T1   -0.460000       14.0070           0
     62754 WT21     1202     MECN     C1       CG331   -0.170000       12.0110           0
     62755 WT21     1202     MECN     H11      HGA3     0.090000        1.0080           0
     62756 WT21     1202     MECN     H12      HGA3     0.090000        1.0080           0
     62757 WT21     1202     MECN     H13      HGA3     0.090000        1.0080           0
     62758 WT21     1202     MECN     C2       CG1N1    0.360000       12.0110           0
     62759 WT21     1202     MECN     N3       NG1T1   -0.460000       14.0070           0
     62760 WT21     1205     MECN     C1       CG331   -0.170000       12.0110           0
     62761 WT21     1205     MECN     H11      HGA3     0.090000        1.0080           0
     62762 WT21     1205     MECN     H12      HGA3     0.090000        1.0080           0
     62763 WT21     1205     MECN     H13      HGA3     0.090000        1.0080           0
     62764 WT21     1205     MECN     C2       CG1N1    0.360000       12.0110           0
     62765 WT21     1205     MECN     N3       NG1T1   -0.460000       14.0070           0
     62766 WT21     1207     MECN     C1       CG331   -0.170000       12.0110           0
     62767 WT21     1207     MECN     H11      HGA3     0.090000        1.0080           0
     62768 WT21     1207     MECN     H12      HGA3     0.090000        1.0080           0
     62769 WT21     1207     MECN     H13      HGA3     0.090000        1.0080           0
     62770 WT21     1207     MECN     C2       CG1N1    0.360000       12.0110           0
     62771 WT21     1207     MECN     N3       NG1T1   -0.460000       14.0070           0
     62772 WT21     1211     MECN     C1       CG331   -0.170000       12.0110           0
     62773 WT21     1211     MECN     H11      HGA3     0.090000        1.0080           0
     62774 WT21     1211     MECN     H12      HGA3     0.090000        1.0080           0
     62775 WT21     1211     MECN     H13      HGA3     0.090000        1.0080           0
     62776 WT21     1211     MECN     C2       CG1N1    0.360000       12.0110           0
     62777 WT21     1211     MECN     N3       NG1T1   -0.460000       14.0070           0
     62778 WT21     1212     MECN     C1       CG331   -0.170000       12.0110           0
     62779 WT21     1212     MECN     H11      HGA3     0.090000        1.0080           0
     62780 WT21     1212     MECN     H12      HGA3     0.090000        1.0080           0
     62781 WT21     1212     MECN     H13      HGA3     0.090000        1.0080           0
     62782 WT21     1212     MECN     C2       CG1N1    0.360000       12.0110           0
     62783 WT21     1212     MECN     N3       NG1T1   -0.460000       14.0070           0
     62784 WT21     1219     MECN     C1       CG331   -0.170000       12.0110           0
     62785 WT21     1219     MECN     H11      HGA3     0.090000        1.0080           0
     62786 WT21     1219     MECN     H12      HGA3     0.090000        1.0080           0
     62787 WT21     1219     MECN     H13      HGA3     0.090000        1.0080           0
     62788 WT21     1219     MECN     C2       CG1N1    0.360000       12.0110           0
     62789 WT21     1219     MECN     N3       NG1T1   -0.460000       14.0070           0
     62790 WT21     1220     MECN     C1       CG331   -0.170000       12.0110           0
     62791 WT21     1220     MECN     H11      HGA3     0.090000        1.0080           0
     62792 WT21     1220     MECN     H12      HGA3     0.090000        1.0080           0
     62793 WT21     1220     MECN     H13      HGA3     0.090000        1.0080           0
     62794 WT21     1220     MECN     C2       CG1N1    0.360000       12.0110           0
     62795 WT21     1220     MECN     N3       NG1T1   -0.460000       14.0070           0
     62796 WT21     1225     MECN     C1       CG331   -0.170000       12.0110           0
     62797 WT21     1225     MECN     H11      HGA3     0.090000        1.0080           0
     62798 WT21     1225     MECN     H12      HGA3     0.090000        1.0080           0
     62799 WT21     1225     MECN     H13      HGA3     0.090000        1.0080           0
     62800 WT21     1225     MECN     C2       CG1N1    0.360000       12.0110           0
     62801 WT21     1225     MECN     N3       NG1T1   -0.460000       14.0070           0
     62802 WT21     1226     MECN     C1       CG331   -0.170000       12.0110           0
     62803 WT21     1226     MECN     H11      HGA3     0.090000        1.0080           0
     62804 WT21     1226     MECN     H12      HGA3     0.090000        1.0080           0
     62805 WT21     1226     MECN     H13      HGA3     0.090000        1.0080           0
     62806 WT21     1226     MECN     C2       CG1N1    0.360000       12.0110           0
     62807 WT21     1226     MECN     N3       NG1T1   -0.460000       14.0070           0
     62808 WT21     1231     MECN     C1       CG331   -0.170000       12.0110           0
     62809 WT21     1231     MECN     H11      HGA3     0.090000        1.0080           0
     62810 WT21     1231     MECN     H12      HGA3     0.090000        1.0080           0
     62811 WT21     1231     MECN     H13      HGA3     0.090000        1.0080           0
     62812 WT21     1231     MECN     C2       CG1N1    0.360000       12.0110           0
     62813 WT21     1231     MECN     N3       NG1T1   -0.460000       14.0070           0
     62814 WT21     1232     MECN     C1       CG331   -0.170000       12.0110           0
     62815 WT21     1232     MECN     H11      HGA3     0.090000        1.0080           0
     62816 WT21     1232     MECN     H12      HGA3     0.090000        1.0080           0
     62817 WT21     1232     MECN     H13      HGA3     0.090000        1.0080           0
     62818 WT21     1232     MECN     C2       CG1N1    0.360000       12.0110           0
     62819 WT21     1232     MECN     N3       NG1T1   -0.460000       14.0070           0
     62820 WT21     1233     MECN     C1       CG331   -0.170000       12.0110           0
     62821 WT21     1233     MECN     H11      HGA3     0.090000        1.0080           0
     62822 WT21     1233     MECN     H12      HGA3     0.090000        1.0080           0
     62823 WT21     1233     MECN     H13      HGA3     0.090000        1.0080           0
     62824 WT21     1233     MECN     C2       CG1N1    0.360000       12.0110           0
     62825 WT21     1233     MECN     N3       NG1T1   -0.460000       14.0070           0
     62826 WT21     1236     MECN     C1       CG331   -0.170000       12.0110           0
     62827 WT21     1236     MECN     H11      HGA3     0.090000        1.0080           0
     62828 WT21     1236     MECN     H12      HGA3     0.090000        1.0080           0
     62829 WT21     1236     MECN     H13      HGA3     0.090000        1.0080           0
     62830 WT21     1236     MECN     C2       CG1N1    0.360000       12.0110           0
     62831 WT21     1236     MECN     N3       NG1T1   -0.460000       14.0070           0
     62832 WT21     1238     MECN     C1       CG331   -0.170000       12.0110           0
     62833 WT21     1238     MECN     H11      HGA3     0.090000        1.0080           0
     62834 WT21     1238     MECN     H12      HGA3     0.090000        1.0080           0
     62835 WT21     1238     MECN     H13      HGA3     0.090000        1.0080           0
     62836 WT21     1238     MECN     C2       CG1N1    0.360000       12.0110           0
     62837 WT21     1238     MECN     N3       NG1T1   -0.460000       14.0070           0
     62838 WT21     1247     MECN     C1       CG331   -0.170000       12.0110           0
     62839 WT21     1247     MECN     H11      HGA3     0.090000        1.0080           0
     62840 WT21     1247     MECN     H12      HGA3     0.090000        1.0080           0
     62841 WT21     1247     MECN     H13      HGA3     0.090000        1.0080           0
     62842 WT21     1247     MECN     C2       CG1N1    0.360000       12.0110           0
     62843 WT21     1247     MECN     N3       NG1T1   -0.460000       14.0070           0
     62844 WT21     1252     MECN     C1       CG331   -0.170000       12.0110           0
     62845 WT21     1252     MECN     H11      HGA3     0.090000        1.0080           0
     62846 WT21     1252     MECN     H12      HGA3     0.090000        1.0080           0
     62847 WT21     1252     MECN     H13      HGA3     0.090000        1.0080           0
     62848 WT21     1252     MECN     C2       CG1N1    0.360000       12.0110           0
     62849 WT21     1252     MECN     N3       NG1T1   -0.460000       14.0070           0
     62850 WT21     1255     MECN     C1       CG331   -0.170000       12.0110           0
     62851 WT21     1255     MECN     H11      HGA3     0.090000        1.0080           0
     62852 WT21     1255     MECN     H12      HGA3     0.090000        1.0080           0
     62853 WT21     1255     MECN     H13      HGA3     0.090000        1.0080           0
     62854 WT21     1255     MECN     C2       CG1N1    0.360000       12.0110           0
     62855 WT21     1255     MECN     N3       NG1T1   -0.460000       14.0070           0
     62856 WT21     1256     MECN     C1       CG331   -0.170000       12.0110           0
     62857 WT21     1256     MECN     H11      HGA3     0.090000        1.0080           0
     62858 WT21     1256     MECN     H12      HGA3     0.090000        1.0080           0
     62859 WT21     1256     MECN     H13      HGA3     0.090000        1.0080           0
     62860 WT21     1256     MECN     C2       CG1N1    0.360000       12.0110           0
     62861 WT21     1256     MECN     N3       NG1T1   -0.460000       14.0070           0
     62862 WT21     1259     MECN     C1       CG331   -0.170000       12.0110           0
     62863 WT21     1259     MECN     H11      HGA3     0.090000        1.0080           0
     62864 WT21     1259     MECN     H12      HGA3     0.090000        1.0080           0
     62865 WT21     1259     MECN     H13      HGA3     0.090000        1.0080           0
     62866 WT21     1259     MECN     C2       CG1N1    0.360000       12.0110           0
     62867 WT21     1259     MECN     N3       NG1T1   -0.460000       14.0070           0
     62868 WT21     1266     MECN     C1       CG331   -0.170000       12.0110           0
     62869 WT21     1266     MECN     H11      HGA3     0.090000        1.0080           0
     62870 WT21     1266     MECN     H12      HGA3     0.090000        1.0080           0
     62871 WT21     1266     MECN     H13      HGA3     0.090000        1.0080           0
     62872 WT21     1266     MECN     C2       CG1N1    0.360000       12.0110           0
     62873 WT21     1266     MECN     N3       NG1T1   -0.460000       14.0070           0
     62874 WT21     1269     MECN     C1       CG331   -0.170000       12.0110           0
     62875 WT21     1269     MECN     H11      HGA3     0.090000        1.0080           0
     62876 WT21     1269     MECN     H12      HGA3     0.090000        1.0080           0
     62877 WT21     1269     MECN     H13      HGA3     0.090000        1.0080           0
     62878 WT21     1269     MECN     C2       CG1N1    0.360000       12.0110           0
     62879 WT21     1269     MECN     N3       NG1T1   -0.460000       14.0070           0
     62880 WT21     1272     MECN     C1       CG331   -0.170000       12.0110           0
     62881 WT21     1272     MECN     H11      HGA3     0.090000        1.0080           0
     62882 WT21     1272     MECN     H12      HGA3     0.090000        1.0080           0
     62883 WT21     1272     MECN     H13      HGA3     0.090000        1.0080           0
     62884 WT21     1272     MECN     C2       CG1N1    0.360000       12.0110           0
     62885 WT21     1272     MECN     N3       NG1T1   -0.460000       14.0070           0
     62886 WT21     1278     MECN     C1       CG331   -0.170000       12.0110           0
     62887 WT21     1278     MECN     H11      HGA3     0.090000        1.0080           0
     62888 WT21     1278     MECN     H12      HGA3     0.090000        1.0080           0
     62889 WT21     1278     MECN     H13      HGA3     0.090000        1.0080           0
     62890 WT21     1278     MECN     C2       CG1N1    0.360000       12.0110           0
     62891 WT21     1278     MECN     N3       NG1T1   -0.460000       14.0070           0
     62892 WT21     1280     MECN     C1       CG331   -0.170000       12.0110           0
     62893 WT21     1280     MECN     H11      HGA3     0.090000        1.0080           0
     62894 WT21     1280     MECN     H12      HGA3     0.090000        1.0080           0
     62895 WT21     1280     MECN     H13      HGA3     0.090000        1.0080           0
     62896 WT21     1280     MECN     C2       CG1N1    0.360000       12.0110           0
     62897 WT21     1280     MECN     N3       NG1T1   -0.460000       14.0070           0
     62898 WT21     1285     MECN     C1       CG331   -0.170000       12.0110           0
     62899 WT21     1285     MECN     H11      HGA3     0.090000        1.0080           0
     62900 WT21     1285     MECN     H12      HGA3     0.090000        1.0080           0
     62901 WT21     1285     MECN     H13      HGA3     0.090000        1.0080           0
     62902 WT21     1285     MECN     C2       CG1N1    0.360000       12.0110           0
     62903 WT21     1285     MECN     N3       NG1T1   -0.460000       14.0070           0
     62904 WT21     1288     MECN     C1       CG331   -0.170000       12.0110           0
     62905 WT21     1288     MECN     H11      HGA3     0.090000        1.0080           0
     62906 WT21     1288     MECN     H12      HGA3     0.090000        1.0080           0
     62907 WT21     1288     MECN     H13      HGA3     0.090000        1.0080           0
     62908 WT21     1288     MECN     C2       CG1N1    0.360000       12.0110           0
     62909 WT21     1288     MECN     N3       NG1T1   -0.460000       14.0070           0
     62910 WT21     1290     MECN     C1       CG331   -0.170000       12.0110           0
     62911 WT21     1290     MECN     H11      HGA3     0.090000        1.0080           0
     62912 WT21     1290     MECN     H12      HGA3     0.090000        1.0080           0
     62913 WT21     1290     MECN     H13      HGA3     0.090000        1.0080           0
     62914 WT21     1290     MECN     C2       CG1N1    0.360000       12.0110           0
     62915 WT21     1290     MECN     N3       NG1T1   -0.460000       14.0070           0
     62916 WT21     1291     MECN     C1       CG331   -0.170000       12.0110           0
     62917 WT21     1291     MECN     H11      HGA3     0.090000        1.0080           0
     62918 WT21     1291     MECN     H12      HGA3     0.090000        1.0080           0
     62919 WT21     1291     MECN     H13      HGA3     0.090000        1.0080           0
     62920 WT21     1291     MECN     C2       CG1N1    0.360000       12.0110           0
     62921 WT21     1291     MECN     N3       NG1T1   -0.460000       14.0070           0
     62922 WT21     1296     MECN     C1       CG331   -0.170000       12.0110           0
     62923 WT21     1296     MECN     H11      HGA3     0.090000        1.0080           0
     62924 WT21     1296     MECN     H12      HGA3     0.090000        1.0080           0
     62925 WT21     1296     MECN     H13      HGA3     0.090000        1.0080           0
     62926 WT21     1296     MECN     C2       CG1N1    0.360000       12.0110           0
     62927 WT21     1296     MECN     N3       NG1T1   -0.460000       14.0070           0
     62928 WT21     1299     MECN     C1       CG331   -0.170000       12.0110           0
     62929 WT21     1299     MECN     H11      HGA3     0.090000        1.0080           0
     62930 WT21     1299     MECN     H12      HGA3     0.090000        1.0080           0
     62931 WT21     1299     MECN     H13      HGA3     0.090000        1.0080           0
     62932 WT21     1299     MECN     C2       CG1N1    0.360000       12.0110           0
     62933 WT21     1299     MECN     N3       NG1T1   -0.460000       14.0070           0
     62934 WT21     1302     MECN     C1       CG331   -0.170000       12.0110           0
     62935 WT21     1302     MECN     H11      HGA3     0.090000        1.0080           0
     62936 WT21     1302     MECN     H12      HGA3     0.090000        1.0080           0
     62937 WT21     1302     MECN     H13      HGA3     0.090000        1.0080           0
     62938 WT21     1302     MECN     C2       CG1N1    0.360000       12.0110           0
     62939 WT21     1302     MECN     N3       NG1T1   -0.460000       14.0070           0
     62940 WT21     1308     MECN     C1       CG331   -0.170000       12.0110           0
     62941 WT21     1308     MECN     H11      HGA3     0.090000        1.0080           0
     62942 WT21     1308     MECN     H12      HGA3     0.090000        1.0080           0
     62943 WT21     1308     MECN     H13      HGA3     0.090000        1.0080           0
     62944 WT21     1308     MECN     C2       CG1N1    0.360000       12.0110           0
     62945 WT21     1308     MECN     N3       NG1T1   -0.460000       14.0070           0
     62946 WT21     1311     MECN     C1       CG331   -0.170000       12.0110           0
     62947 WT21     1311     MECN     H11      HGA3     0.090000        1.0080           0
     62948 WT21     1311     MECN     H12      HGA3     0.090000        1.0080           0
     62949 WT21     1311     MECN     H13      HGA3     0.090000        1.0080           0
     62950 WT21     1311     MECN     C2       CG1N1    0.360000       12.0110           0
     62951 WT21     1311     MECN     N3       NG1T1   -0.460000       14.0070           0
     62952 WT21     1312     MECN     C1       CG331   -0.170000       12.0110           0
     62953 WT21     1312     MECN     H11      HGA3     0.090000        1.0080           0
     62954 WT21     1312     MECN     H12      HGA3     0.090000        1.0080           0
     62955 WT21     1312     MECN     H13      HGA3     0.090000        1.0080           0
     62956 WT21     1312     MECN     C2       CG1N1    0.360000       12.0110           0
     62957 WT21     1312     MECN     N3       NG1T1   -0.460000       14.0070           0
     62958 WT21     1313     MECN     C1       CG331   -0.170000       12.0110           0
     62959 WT21     1313     MECN     H11      HGA3     0.090000        1.0080           0
     62960 WT21     1313     MECN     H12      HGA3     0.090000        1.0080           0
     62961 WT21     1313     MECN     H13      HGA3     0.090000        1.0080           0
     62962 WT21     1313     MECN     C2       CG1N1    0.360000       12.0110           0
     62963 WT21     1313     MECN     N3       NG1T1   -0.460000       14.0070           0
     62964 WT21     1316     MECN     C1       CG331   -0.170000       12.0110           0
     62965 WT21     1316     MECN     H11      HGA3     0.090000        1.0080           0
     62966 WT21     1316     MECN     H12      HGA3     0.090000        1.0080           0
     62967 WT21     1316     MECN     H13      HGA3     0.090000        1.0080           0
     62968 WT21     1316     MECN     C2       CG1N1    0.360000       12.0110           0
     62969 WT21     1316     MECN     N3       NG1T1   -0.460000       14.0070           0
     62970 WT21     1320     MECN     C1       CG331   -0.170000       12.0110           0
     62971 WT21     1320     MECN     H11      HGA3     0.090000        1.0080           0
     62972 WT21     1320     MECN     H12      HGA3     0.090000        1.0080           0
     62973 WT21     1320     MECN     H13      HGA3     0.090000        1.0080           0
     62974 WT21     1320     MECN     C2       CG1N1    0.360000       12.0110           0
     62975 WT21     1320     MECN     N3       NG1T1   -0.460000       14.0070           0
     62976 WT21     1322     MECN     C1       CG331   -0.170000       12.0110           0
     62977 WT21     1322     MECN     H11      HGA3     0.090000        1.0080           0
     62978 WT21     1322     MECN     H12      HGA3     0.090000        1.0080           0
     62979 WT21     1322     MECN     H13      HGA3     0.090000        1.0080           0
     62980 WT21     1322     MECN     C2       CG1N1    0.360000       12.0110           0
     62981 WT21     1322     MECN     N3       NG1T1   -0.460000       14.0070           0
     62982 WT21     1327     MECN     C1       CG331   -0.170000       12.0110           0
     62983 WT21     1327     MECN     H11      HGA3     0.090000        1.0080           0
     62984 WT21     1327     MECN     H12      HGA3     0.090000        1.0080           0
     62985 WT21     1327     MECN     H13      HGA3     0.090000        1.0080           0
     62986 WT21     1327     MECN     C2       CG1N1    0.360000       12.0110           0
     62987 WT21     1327     MECN     N3       NG1T1   -0.460000       14.0070           0
     62988 WT21     1330     MECN     C1       CG331   -0.170000       12.0110           0
     62989 WT21     1330     MECN     H11      HGA3     0.090000        1.0080           0
     62990 WT21     1330     MECN     H12      HGA3     0.090000        1.0080           0
     62991 WT21     1330     MECN     H13      HGA3     0.090000        1.0080           0
     62992 WT21     1330     MECN     C2       CG1N1    0.360000       12.0110           0
     62993 WT21     1330     MECN     N3       NG1T1   -0.460000       14.0070           0
     62994 WT22     1        MECN     C1       CG331   -0.170000       12.0110           0
     62995 WT22     1        MECN     H11      HGA3     0.090000        1.0080           0
     62996 WT22     1        MECN     H12      HGA3     0.090000        1.0080           0
     62997 WT22     1        MECN     H13      HGA3     0.090000        1.0080           0
     62998 WT22     1        MECN     C2       CG1N1    0.360000       12.0110           0
     62999 WT22     1        MECN     N3       NG1T1   -0.460000       14.0070           0
     63000 WT22     7        MECN     C1       CG331   -0.170000       12.0110           0
     63001 WT22     7        MECN     H11      HGA3     0.090000        1.0080           0
     63002 WT22     7        MECN     H12      HGA3     0.090000        1.0080           0
     63003 WT22     7        MECN     H13      HGA3     0.090000        1.0080           0
     63004 WT22     7        MECN     C2       CG1N1    0.360000       12.0110           0
     63005 WT22     7        MECN     N3       NG1T1   -0.460000       14.0070           0
     63006 WT22     8        MECN     C1       CG331   -0.170000       12.0110           0
     63007 WT22     8        MECN     H11      HGA3     0.090000        1.0080           0
     63008 WT22     8        MECN     H12      HGA3     0.090000        1.0080           0
     63009 WT22     8        MECN     H13      HGA3     0.090000        1.0080           0
     63010 WT22     8        MECN     C2       CG1N1    0.360000       12.0110           0
     63011 WT22     8        MECN     N3       NG1T1   -0.460000       14.0070           0
     63012 WT22     9        MECN     C1       CG331   -0.170000       12.0110           0
     63013 WT22     9        MECN     H11      HGA3     0.090000        1.0080           0
     63014 WT22     9        MECN     H12      HGA3     0.090000        1.0080           0
     63015 WT22     9        MECN     H13      HGA3     0.090000        1.0080           0
     63016 WT22     9        MECN     C2       CG1N1    0.360000       12.0110           0
     63017 WT22     9        MECN     N3       NG1T1   -0.460000       14.0070           0
     63018 WT22     17       MECN     C1       CG331   -0.170000       12.0110           0
     63019 WT22     17       MECN     H11      HGA3     0.090000        1.0080           0
     63020 WT22     17       MECN     H12      HGA3     0.090000        1.0080           0
     63021 WT22     17       MECN     H13      HGA3     0.090000        1.0080           0
     63022 WT22     17       MECN     C2       CG1N1    0.360000       12.0110           0
     63023 WT22     17       MECN     N3       NG1T1   -0.460000       14.0070           0
     63024 WT22     23       MECN     C1       CG331   -0.170000       12.0110           0
     63025 WT22     23       MECN     H11      HGA3     0.090000        1.0080           0
     63026 WT22     23       MECN     H12      HGA3     0.090000        1.0080           0
     63027 WT22     23       MECN     H13      HGA3     0.090000        1.0080           0
     63028 WT22     23       MECN     C2       CG1N1    0.360000       12.0110           0
     63029 WT22     23       MECN     N3       NG1T1   -0.460000       14.0070           0
     63030 WT22     25       MECN     C1       CG331   -0.170000       12.0110           0
     63031 WT22     25       MECN     H11      HGA3     0.090000        1.0080           0
     63032 WT22     25       MECN     H12      HGA3     0.090000        1.0080           0
     63033 WT22     25       MECN     H13      HGA3     0.090000        1.0080           0
     63034 WT22     25       MECN     C2       CG1N1    0.360000       12.0110           0
     63035 WT22     25       MECN     N3       NG1T1   -0.460000       14.0070           0
     63036 WT22     36       MECN     C1       CG331   -0.170000       12.0110           0
     63037 WT22     36       MECN     H11      HGA3     0.090000        1.0080           0
     63038 WT22     36       MECN     H12      HGA3     0.090000        1.0080           0
     63039 WT22     36       MECN     H13      HGA3     0.090000        1.0080           0
     63040 WT22     36       MECN     C2       CG1N1    0.360000       12.0110           0
     63041 WT22     36       MECN     N3       NG1T1   -0.460000       14.0070           0
     63042 WT22     37       MECN     C1       CG331   -0.170000       12.0110           0
     63043 WT22     37       MECN     H11      HGA3     0.090000        1.0080           0
     63044 WT22     37       MECN     H12      HGA3     0.090000        1.0080           0
     63045 WT22     37       MECN     H13      HGA3     0.090000        1.0080           0
     63046 WT22     37       MECN     C2       CG1N1    0.360000       12.0110           0
     63047 WT22     37       MECN     N3       NG1T1   -0.460000       14.0070           0
     63048 WT22     38       MECN     C1       CG331   -0.170000       12.0110           0
     63049 WT22     38       MECN     H11      HGA3     0.090000        1.0080           0
     63050 WT22     38       MECN     H12      HGA3     0.090000        1.0080           0
     63051 WT22     38       MECN     H13      HGA3     0.090000        1.0080           0
     63052 WT22     38       MECN     C2       CG1N1    0.360000       12.0110           0
     63053 WT22     38       MECN     N3       NG1T1   -0.460000       14.0070           0
     63054 WT22     39       MECN     C1       CG331   -0.170000       12.0110           0
     63055 WT22     39       MECN     H11      HGA3     0.090000        1.0080           0
     63056 WT22     39       MECN     H12      HGA3     0.090000        1.0080           0
     63057 WT22     39       MECN     H13      HGA3     0.090000        1.0080           0
     63058 WT22     39       MECN     C2       CG1N1    0.360000       12.0110           0
     63059 WT22     39       MECN     N3       NG1T1   -0.460000       14.0070           0
     63060 WT22     43       MECN     C1       CG331   -0.170000       12.0110           0
     63061 WT22     43       MECN     H11      HGA3     0.090000        1.0080           0
     63062 WT22     43       MECN     H12      HGA3     0.090000        1.0080           0
     63063 WT22     43       MECN     H13      HGA3     0.090000        1.0080           0
     63064 WT22     43       MECN     C2       CG1N1    0.360000       12.0110           0
     63065 WT22     43       MECN     N3       NG1T1   -0.460000       14.0070           0
     63066 WT22     45       MECN     C1       CG331   -0.170000       12.0110           0
     63067 WT22     45       MECN     H11      HGA3     0.090000        1.0080           0
     63068 WT22     45       MECN     H12      HGA3     0.090000        1.0080           0
     63069 WT22     45       MECN     H13      HGA3     0.090000        1.0080           0
     63070 WT22     45       MECN     C2       CG1N1    0.360000       12.0110           0
     63071 WT22     45       MECN     N3       NG1T1   -0.460000       14.0070           0
     63072 WT22     46       MECN     C1       CG331   -0.170000       12.0110           0
     63073 WT22     46       MECN     H11      HGA3     0.090000        1.0080           0
     63074 WT22     46       MECN     H12      HGA3     0.090000        1.0080           0
     63075 WT22     46       MECN     H13      HGA3     0.090000        1.0080           0
     63076 WT22     46       MECN     C2       CG1N1    0.360000       12.0110           0
     63077 WT22     46       MECN     N3       NG1T1   -0.460000       14.0070           0
     63078 WT22     50       MECN     C1       CG331   -0.170000       12.0110           0
     63079 WT22     50       MECN     H11      HGA3     0.090000        1.0080           0
     63080 WT22     50       MECN     H12      HGA3     0.090000        1.0080           0
     63081 WT22     50       MECN     H13      HGA3     0.090000        1.0080           0
     63082 WT22     50       MECN     C2       CG1N1    0.360000       12.0110           0
     63083 WT22     50       MECN     N3       NG1T1   -0.460000       14.0070           0
     63084 WT22     52       MECN     C1       CG331   -0.170000       12.0110           0
     63085 WT22     52       MECN     H11      HGA3     0.090000        1.0080           0
     63086 WT22     52       MECN     H12      HGA3     0.090000        1.0080           0
     63087 WT22     52       MECN     H13      HGA3     0.090000        1.0080           0
     63088 WT22     52       MECN     C2       CG1N1    0.360000       12.0110           0
     63089 WT22     52       MECN     N3       NG1T1   -0.460000       14.0070           0
     63090 WT22     56       MECN     C1       CG331   -0.170000       12.0110           0
     63091 WT22     56       MECN     H11      HGA3     0.090000        1.0080           0
     63092 WT22     56       MECN     H12      HGA3     0.090000        1.0080           0
     63093 WT22     56       MECN     H13      HGA3     0.090000        1.0080           0
     63094 WT22     56       MECN     C2       CG1N1    0.360000       12.0110           0
     63095 WT22     56       MECN     N3       NG1T1   -0.460000       14.0070           0
     63096 WT22     57       MECN     C1       CG331   -0.170000       12.0110           0
     63097 WT22     57       MECN     H11      HGA3     0.090000        1.0080           0
     63098 WT22     57       MECN     H12      HGA3     0.090000        1.0080           0
     63099 WT22     57       MECN     H13      HGA3     0.090000        1.0080           0
     63100 WT22     57       MECN     C2       CG1N1    0.360000       12.0110           0
     63101 WT22     57       MECN     N3       NG1T1   -0.460000       14.0070           0
     63102 WT22     59       MECN     C1       CG331   -0.170000       12.0110           0
     63103 WT22     59       MECN     H11      HGA3     0.090000        1.0080           0
     63104 WT22     59       MECN     H12      HGA3     0.090000        1.0080           0
     63105 WT22     59       MECN     H13      HGA3     0.090000        1.0080           0
     63106 WT22     59       MECN     C2       CG1N1    0.360000       12.0110           0
     63107 WT22     59       MECN     N3       NG1T1   -0.460000       14.0070           0
     63108 WT22     60       MECN     C1       CG331   -0.170000       12.0110           0
     63109 WT22     60       MECN     H11      HGA3     0.090000        1.0080           0
     63110 WT22     60       MECN     H12      HGA3     0.090000        1.0080           0
     63111 WT22     60       MECN     H13      HGA3     0.090000        1.0080           0
     63112 WT22     60       MECN     C2       CG1N1    0.360000       12.0110           0
     63113 WT22     60       MECN     N3       NG1T1   -0.460000       14.0070           0
     63114 WT22     63       MECN     C1       CG331   -0.170000       12.0110           0
     63115 WT22     63       MECN     H11      HGA3     0.090000        1.0080           0
     63116 WT22     63       MECN     H12      HGA3     0.090000        1.0080           0
     63117 WT22     63       MECN     H13      HGA3     0.090000        1.0080           0
     63118 WT22     63       MECN     C2       CG1N1    0.360000       12.0110           0
     63119 WT22     63       MECN     N3       NG1T1   -0.460000       14.0070           0
     63120 WT22     71       MECN     C1       CG331   -0.170000       12.0110           0
     63121 WT22     71       MECN     H11      HGA3     0.090000        1.0080           0
     63122 WT22     71       MECN     H12      HGA3     0.090000        1.0080           0
     63123 WT22     71       MECN     H13      HGA3     0.090000        1.0080           0
     63124 WT22     71       MECN     C2       CG1N1    0.360000       12.0110           0
     63125 WT22     71       MECN     N3       NG1T1   -0.460000       14.0070           0
     63126 WT22     72       MECN     C1       CG331   -0.170000       12.0110           0
     63127 WT22     72       MECN     H11      HGA3     0.090000        1.0080           0
     63128 WT22     72       MECN     H12      HGA3     0.090000        1.0080           0
     63129 WT22     72       MECN     H13      HGA3     0.090000        1.0080           0
     63130 WT22     72       MECN     C2       CG1N1    0.360000       12.0110           0
     63131 WT22     72       MECN     N3       NG1T1   -0.460000       14.0070           0
     63132 WT22     75       MECN     C1       CG331   -0.170000       12.0110           0
     63133 WT22     75       MECN     H11      HGA3     0.090000        1.0080           0
     63134 WT22     75       MECN     H12      HGA3     0.090000        1.0080           0
     63135 WT22     75       MECN     H13      HGA3     0.090000        1.0080           0
     63136 WT22     75       MECN     C2       CG1N1    0.360000       12.0110           0
     63137 WT22     75       MECN     N3       NG1T1   -0.460000       14.0070           0
     63138 WT22     78       MECN     C1       CG331   -0.170000       12.0110           0
     63139 WT22     78       MECN     H11      HGA3     0.090000        1.0080           0
     63140 WT22     78       MECN     H12      HGA3     0.090000        1.0080           0
     63141 WT22     78       MECN     H13      HGA3     0.090000        1.0080           0
     63142 WT22     78       MECN     C2       CG1N1    0.360000       12.0110           0
     63143 WT22     78       MECN     N3       NG1T1   -0.460000       14.0070           0
     63144 WT22     79       MECN     C1       CG331   -0.170000       12.0110           0
     63145 WT22     79       MECN     H11      HGA3     0.090000        1.0080           0
     63146 WT22     79       MECN     H12      HGA3     0.090000        1.0080           0
     63147 WT22     79       MECN     H13      HGA3     0.090000        1.0080           0
     63148 WT22     79       MECN     C2       CG1N1    0.360000       12.0110           0
     63149 WT22     79       MECN     N3       NG1T1   -0.460000       14.0070           0
     63150 WT22     80       MECN     C1       CG331   -0.170000       12.0110           0
     63151 WT22     80       MECN     H11      HGA3     0.090000        1.0080           0
     63152 WT22     80       MECN     H12      HGA3     0.090000        1.0080           0
     63153 WT22     80       MECN     H13      HGA3     0.090000        1.0080           0
     63154 WT22     80       MECN     C2       CG1N1    0.360000       12.0110           0
     63155 WT22     80       MECN     N3       NG1T1   -0.460000       14.0070           0
     63156 WT22     83       MECN     C1       CG331   -0.170000       12.0110           0
     63157 WT22     83       MECN     H11      HGA3     0.090000        1.0080           0
     63158 WT22     83       MECN     H12      HGA3     0.090000        1.0080           0
     63159 WT22     83       MECN     H13      HGA3     0.090000        1.0080           0
     63160 WT22     83       MECN     C2       CG1N1    0.360000       12.0110           0
     63161 WT22     83       MECN     N3       NG1T1   -0.460000       14.0070           0
     63162 WT22     86       MECN     C1       CG331   -0.170000       12.0110           0
     63163 WT22     86       MECN     H11      HGA3     0.090000        1.0080           0
     63164 WT22     86       MECN     H12      HGA3     0.090000        1.0080           0
     63165 WT22     86       MECN     H13      HGA3     0.090000        1.0080           0
     63166 WT22     86       MECN     C2       CG1N1    0.360000       12.0110           0
     63167 WT22     86       MECN     N3       NG1T1   -0.460000       14.0070           0
     63168 WT22     90       MECN     C1       CG331   -0.170000       12.0110           0
     63169 WT22     90       MECN     H11      HGA3     0.090000        1.0080           0
     63170 WT22     90       MECN     H12      HGA3     0.090000        1.0080           0
     63171 WT22     90       MECN     H13      HGA3     0.090000        1.0080           0
     63172 WT22     90       MECN     C2       CG1N1    0.360000       12.0110           0
     63173 WT22     90       MECN     N3       NG1T1   -0.460000       14.0070           0
     63174 WT22     92       MECN     C1       CG331   -0.170000       12.0110           0
     63175 WT22     92       MECN     H11      HGA3     0.090000        1.0080           0
     63176 WT22     92       MECN     H12      HGA3     0.090000        1.0080           0
     63177 WT22     92       MECN     H13      HGA3     0.090000        1.0080           0
     63178 WT22     92       MECN     C2       CG1N1    0.360000       12.0110           0
     63179 WT22     92       MECN     N3       NG1T1   -0.460000       14.0070           0
     63180 WT22     95       MECN     C1       CG331   -0.170000       12.0110           0
     63181 WT22     95       MECN     H11      HGA3     0.090000        1.0080           0
     63182 WT22     95       MECN     H12      HGA3     0.090000        1.0080           0
     63183 WT22     95       MECN     H13      HGA3     0.090000        1.0080           0
     63184 WT22     95       MECN     C2       CG1N1    0.360000       12.0110           0
     63185 WT22     95       MECN     N3       NG1T1   -0.460000       14.0070           0
     63186 WT22     96       MECN     C1       CG331   -0.170000       12.0110           0
     63187 WT22     96       MECN     H11      HGA3     0.090000        1.0080           0
     63188 WT22     96       MECN     H12      HGA3     0.090000        1.0080           0
     63189 WT22     96       MECN     H13      HGA3     0.090000        1.0080           0
     63190 WT22     96       MECN     C2       CG1N1    0.360000       12.0110           0
     63191 WT22     96       MECN     N3       NG1T1   -0.460000       14.0070           0
     63192 WT22     100      MECN     C1       CG331   -0.170000       12.0110           0
     63193 WT22     100      MECN     H11      HGA3     0.090000        1.0080           0
     63194 WT22     100      MECN     H12      HGA3     0.090000        1.0080           0
     63195 WT22     100      MECN     H13      HGA3     0.090000        1.0080           0
     63196 WT22     100      MECN     C2       CG1N1    0.360000       12.0110           0
     63197 WT22     100      MECN     N3       NG1T1   -0.460000       14.0070           0
     63198 WT22     102      MECN     C1       CG331   -0.170000       12.0110           0
     63199 WT22     102      MECN     H11      HGA3     0.090000        1.0080           0
     63200 WT22     102      MECN     H12      HGA3     0.090000        1.0080           0
     63201 WT22     102      MECN     H13      HGA3     0.090000        1.0080           0
     63202 WT22     102      MECN     C2       CG1N1    0.360000       12.0110           0
     63203 WT22     102      MECN     N3       NG1T1   -0.460000       14.0070           0
     63204 WT22     104      MECN     C1       CG331   -0.170000       12.0110           0
     63205 WT22     104      MECN     H11      HGA3     0.090000        1.0080           0
     63206 WT22     104      MECN     H12      HGA3     0.090000        1.0080           0
     63207 WT22     104      MECN     H13      HGA3     0.090000        1.0080           0
     63208 WT22     104      MECN     C2       CG1N1    0.360000       12.0110           0
     63209 WT22     104      MECN     N3       NG1T1   -0.460000       14.0070           0
     63210 WT22     105      MECN     C1       CG331   -0.170000       12.0110           0
     63211 WT22     105      MECN     H11      HGA3     0.090000        1.0080           0
     63212 WT22     105      MECN     H12      HGA3     0.090000        1.0080           0
     63213 WT22     105      MECN     H13      HGA3     0.090000        1.0080           0
     63214 WT22     105      MECN     C2       CG1N1    0.360000       12.0110           0
     63215 WT22     105      MECN     N3       NG1T1   -0.460000       14.0070           0
     63216 WT22     108      MECN     C1       CG331   -0.170000       12.0110           0
     63217 WT22     108      MECN     H11      HGA3     0.090000        1.0080           0
     63218 WT22     108      MECN     H12      HGA3     0.090000        1.0080           0
     63219 WT22     108      MECN     H13      HGA3     0.090000        1.0080           0
     63220 WT22     108      MECN     C2       CG1N1    0.360000       12.0110           0
     63221 WT22     108      MECN     N3       NG1T1   -0.460000       14.0070           0
     63222 WT22     111      MECN     C1       CG331   -0.170000       12.0110           0
     63223 WT22     111      MECN     H11      HGA3     0.090000        1.0080           0
     63224 WT22     111      MECN     H12      HGA3     0.090000        1.0080           0
     63225 WT22     111      MECN     H13      HGA3     0.090000        1.0080           0
     63226 WT22     111      MECN     C2       CG1N1    0.360000       12.0110           0
     63227 WT22     111      MECN     N3       NG1T1   -0.460000       14.0070           0
     63228 WT22     112      MECN     C1       CG331   -0.170000       12.0110           0
     63229 WT22     112      MECN     H11      HGA3     0.090000        1.0080           0
     63230 WT22     112      MECN     H12      HGA3     0.090000        1.0080           0
     63231 WT22     112      MECN     H13      HGA3     0.090000        1.0080           0
     63232 WT22     112      MECN     C2       CG1N1    0.360000       12.0110           0
     63233 WT22     112      MECN     N3       NG1T1   -0.460000       14.0070           0
     63234 WT22     115      MECN     C1       CG331   -0.170000       12.0110           0
     63235 WT22     115      MECN     H11      HGA3     0.090000        1.0080           0
     63236 WT22     115      MECN     H12      HGA3     0.090000        1.0080           0
     63237 WT22     115      MECN     H13      HGA3     0.090000        1.0080           0
     63238 WT22     115      MECN     C2       CG1N1    0.360000       12.0110           0
     63239 WT22     115      MECN     N3       NG1T1   -0.460000       14.0070           0
     63240 WT22     117      MECN     C1       CG331   -0.170000       12.0110           0
     63241 WT22     117      MECN     H11      HGA3     0.090000        1.0080           0
     63242 WT22     117      MECN     H12      HGA3     0.090000        1.0080           0
     63243 WT22     117      MECN     H13      HGA3     0.090000        1.0080           0
     63244 WT22     117      MECN     C2       CG1N1    0.360000       12.0110           0
     63245 WT22     117      MECN     N3       NG1T1   -0.460000       14.0070           0
     63246 WT22     118      MECN     C1       CG331   -0.170000       12.0110           0
     63247 WT22     118      MECN     H11      HGA3     0.090000        1.0080           0
     63248 WT22     118      MECN     H12      HGA3     0.090000        1.0080           0
     63249 WT22     118      MECN     H13      HGA3     0.090000        1.0080           0
     63250 WT22     118      MECN     C2       CG1N1    0.360000       12.0110           0
     63251 WT22     118      MECN     N3       NG1T1   -0.460000       14.0070           0
     63252 WT22     121      MECN     C1       CG331   -0.170000       12.0110           0
     63253 WT22     121      MECN     H11      HGA3     0.090000        1.0080           0
     63254 WT22     121      MECN     H12      HGA3     0.090000        1.0080           0
     63255 WT22     121      MECN     H13      HGA3     0.090000        1.0080           0
     63256 WT22     121      MECN     C2       CG1N1    0.360000       12.0110           0
     63257 WT22     121      MECN     N3       NG1T1   -0.460000       14.0070           0
     63258 WT22     126      MECN     C1       CG331   -0.170000       12.0110           0
     63259 WT22     126      MECN     H11      HGA3     0.090000        1.0080           0
     63260 WT22     126      MECN     H12      HGA3     0.090000        1.0080           0
     63261 WT22     126      MECN     H13      HGA3     0.090000        1.0080           0
     63262 WT22     126      MECN     C2       CG1N1    0.360000       12.0110           0
     63263 WT22     126      MECN     N3       NG1T1   -0.460000       14.0070           0
     63264 WT22     129      MECN     C1       CG331   -0.170000       12.0110           0
     63265 WT22     129      MECN     H11      HGA3     0.090000        1.0080           0
     63266 WT22     129      MECN     H12      HGA3     0.090000        1.0080           0
     63267 WT22     129      MECN     H13      HGA3     0.090000        1.0080           0
     63268 WT22     129      MECN     C2       CG1N1    0.360000       12.0110           0
     63269 WT22     129      MECN     N3       NG1T1   -0.460000       14.0070           0
     63270 WT22     133      MECN     C1       CG331   -0.170000       12.0110           0
     63271 WT22     133      MECN     H11      HGA3     0.090000        1.0080           0
     63272 WT22     133      MECN     H12      HGA3     0.090000        1.0080           0
     63273 WT22     133      MECN     H13      HGA3     0.090000        1.0080           0
     63274 WT22     133      MECN     C2       CG1N1    0.360000       12.0110           0
     63275 WT22     133      MECN     N3       NG1T1   -0.460000       14.0070           0
     63276 WT22     134      MECN     C1       CG331   -0.170000       12.0110           0
     63277 WT22     134      MECN     H11      HGA3     0.090000        1.0080           0
     63278 WT22     134      MECN     H12      HGA3     0.090000        1.0080           0
     63279 WT22     134      MECN     H13      HGA3     0.090000        1.0080           0
     63280 WT22     134      MECN     C2       CG1N1    0.360000       12.0110           0
     63281 WT22     134      MECN     N3       NG1T1   -0.460000       14.0070           0
     63282 WT22     141      MECN     C1       CG331   -0.170000       12.0110           0
     63283 WT22     141      MECN     H11      HGA3     0.090000        1.0080           0
     63284 WT22     141      MECN     H12      HGA3     0.090000        1.0080           0
     63285 WT22     141      MECN     H13      HGA3     0.090000        1.0080           0
     63286 WT22     141      MECN     C2       CG1N1    0.360000       12.0110           0
     63287 WT22     141      MECN     N3       NG1T1   -0.460000       14.0070           0
     63288 WT22     144      MECN     C1       CG331   -0.170000       12.0110           0
     63289 WT22     144      MECN     H11      HGA3     0.090000        1.0080           0
     63290 WT22     144      MECN     H12      HGA3     0.090000        1.0080           0
     63291 WT22     144      MECN     H13      HGA3     0.090000        1.0080           0
     63292 WT22     144      MECN     C2       CG1N1    0.360000       12.0110           0
     63293 WT22     144      MECN     N3       NG1T1   -0.460000       14.0070           0
     63294 WT22     146      MECN     C1       CG331   -0.170000       12.0110           0
     63295 WT22     146      MECN     H11      HGA3     0.090000        1.0080           0
     63296 WT22     146      MECN     H12      HGA3     0.090000        1.0080           0
     63297 WT22     146      MECN     H13      HGA3     0.090000        1.0080           0
     63298 WT22     146      MECN     C2       CG1N1    0.360000       12.0110           0
     63299 WT22     146      MECN     N3       NG1T1   -0.460000       14.0070           0
     63300 WT22     147      MECN     C1       CG331   -0.170000       12.0110           0
     63301 WT22     147      MECN     H11      HGA3     0.090000        1.0080           0
     63302 WT22     147      MECN     H12      HGA3     0.090000        1.0080           0
     63303 WT22     147      MECN     H13      HGA3     0.090000        1.0080           0
     63304 WT22     147      MECN     C2       CG1N1    0.360000       12.0110           0
     63305 WT22     147      MECN     N3       NG1T1   -0.460000       14.0070           0
     63306 WT22     148      MECN     C1       CG331   -0.170000       12.0110           0
     63307 WT22     148      MECN     H11      HGA3     0.090000        1.0080           0
     63308 WT22     148      MECN     H12      HGA3     0.090000        1.0080           0
     63309 WT22     148      MECN     H13      HGA3     0.090000        1.0080           0
     63310 WT22     148      MECN     C2       CG1N1    0.360000       12.0110           0
     63311 WT22     148      MECN     N3       NG1T1   -0.460000       14.0070           0
     63312 WT22     149      MECN     C1       CG331   -0.170000       12.0110           0
     63313 WT22     149      MECN     H11      HGA3     0.090000        1.0080           0
     63314 WT22     149      MECN     H12      HGA3     0.090000        1.0080           0
     63315 WT22     149      MECN     H13      HGA3     0.090000        1.0080           0
     63316 WT22     149      MECN     C2       CG1N1    0.360000       12.0110           0
     63317 WT22     149      MECN     N3       NG1T1   -0.460000       14.0070           0
     63318 WT22     151      MECN     C1       CG331   -0.170000       12.0110           0
     63319 WT22     151      MECN     H11      HGA3     0.090000        1.0080           0
     63320 WT22     151      MECN     H12      HGA3     0.090000        1.0080           0
     63321 WT22     151      MECN     H13      HGA3     0.090000        1.0080           0
     63322 WT22     151      MECN     C2       CG1N1    0.360000       12.0110           0
     63323 WT22     151      MECN     N3       NG1T1   -0.460000       14.0070           0
     63324 WT22     158      MECN     C1       CG331   -0.170000       12.0110           0
     63325 WT22     158      MECN     H11      HGA3     0.090000        1.0080           0
     63326 WT22     158      MECN     H12      HGA3     0.090000        1.0080           0
     63327 WT22     158      MECN     H13      HGA3     0.090000        1.0080           0
     63328 WT22     158      MECN     C2       CG1N1    0.360000       12.0110           0
     63329 WT22     158      MECN     N3       NG1T1   -0.460000       14.0070           0
     63330 WT22     159      MECN     C1       CG331   -0.170000       12.0110           0
     63331 WT22     159      MECN     H11      HGA3     0.090000        1.0080           0
     63332 WT22     159      MECN     H12      HGA3     0.090000        1.0080           0
     63333 WT22     159      MECN     H13      HGA3     0.090000        1.0080           0
     63334 WT22     159      MECN     C2       CG1N1    0.360000       12.0110           0
     63335 WT22     159      MECN     N3       NG1T1   -0.460000       14.0070           0
     63336 WT22     161      MECN     C1       CG331   -0.170000       12.0110           0
     63337 WT22     161      MECN     H11      HGA3     0.090000        1.0080           0
     63338 WT22     161      MECN     H12      HGA3     0.090000        1.0080           0
     63339 WT22     161      MECN     H13      HGA3     0.090000        1.0080           0
     63340 WT22     161      MECN     C2       CG1N1    0.360000       12.0110           0
     63341 WT22     161      MECN     N3       NG1T1   -0.460000       14.0070           0
     63342 WT22     162      MECN     C1       CG331   -0.170000       12.0110           0
     63343 WT22     162      MECN     H11      HGA3     0.090000        1.0080           0
     63344 WT22     162      MECN     H12      HGA3     0.090000        1.0080           0
     63345 WT22     162      MECN     H13      HGA3     0.090000        1.0080           0
     63346 WT22     162      MECN     C2       CG1N1    0.360000       12.0110           0
     63347 WT22     162      MECN     N3       NG1T1   -0.460000       14.0070           0
     63348 WT22     173      MECN     C1       CG331   -0.170000       12.0110           0
     63349 WT22     173      MECN     H11      HGA3     0.090000        1.0080           0
     63350 WT22     173      MECN     H12      HGA3     0.090000        1.0080           0
     63351 WT22     173      MECN     H13      HGA3     0.090000        1.0080           0
     63352 WT22     173      MECN     C2       CG1N1    0.360000       12.0110           0
     63353 WT22     173      MECN     N3       NG1T1   -0.460000       14.0070           0
     63354 WT22     179      MECN     C1       CG331   -0.170000       12.0110           0
     63355 WT22     179      MECN     H11      HGA3     0.090000        1.0080           0
     63356 WT22     179      MECN     H12      HGA3     0.090000        1.0080           0
     63357 WT22     179      MECN     H13      HGA3     0.090000        1.0080           0
     63358 WT22     179      MECN     C2       CG1N1    0.360000       12.0110           0
     63359 WT22     179      MECN     N3       NG1T1   -0.460000       14.0070           0
     63360 WT22     182      MECN     C1       CG331   -0.170000       12.0110           0
     63361 WT22     182      MECN     H11      HGA3     0.090000        1.0080           0
     63362 WT22     182      MECN     H12      HGA3     0.090000        1.0080           0
     63363 WT22     182      MECN     H13      HGA3     0.090000        1.0080           0
     63364 WT22     182      MECN     C2       CG1N1    0.360000       12.0110           0
     63365 WT22     182      MECN     N3       NG1T1   -0.460000       14.0070           0
     63366 WT22     189      MECN     C1       CG331   -0.170000       12.0110           0
     63367 WT22     189      MECN     H11      HGA3     0.090000        1.0080           0
     63368 WT22     189      MECN     H12      HGA3     0.090000        1.0080           0
     63369 WT22     189      MECN     H13      HGA3     0.090000        1.0080           0
     63370 WT22     189      MECN     C2       CG1N1    0.360000       12.0110           0
     63371 WT22     189      MECN     N3       NG1T1   -0.460000       14.0070           0
     63372 WT22     191      MECN     C1       CG331   -0.170000       12.0110           0
     63373 WT22     191      MECN     H11      HGA3     0.090000        1.0080           0
     63374 WT22     191      MECN     H12      HGA3     0.090000        1.0080           0
     63375 WT22     191      MECN     H13      HGA3     0.090000        1.0080           0
     63376 WT22     191      MECN     C2       CG1N1    0.360000       12.0110           0
     63377 WT22     191      MECN     N3       NG1T1   -0.460000       14.0070           0
     63378 WT22     193      MECN     C1       CG331   -0.170000       12.0110           0
     63379 WT22     193      MECN     H11      HGA3     0.090000        1.0080           0
     63380 WT22     193      MECN     H12      HGA3     0.090000        1.0080           0
     63381 WT22     193      MECN     H13      HGA3     0.090000        1.0080           0
     63382 WT22     193      MECN     C2       CG1N1    0.360000       12.0110           0
     63383 WT22     193      MECN     N3       NG1T1   -0.460000       14.0070           0
     63384 WT22     194      MECN     C1       CG331   -0.170000       12.0110           0
     63385 WT22     194      MECN     H11      HGA3     0.090000        1.0080           0
     63386 WT22     194      MECN     H12      HGA3     0.090000        1.0080           0
     63387 WT22     194      MECN     H13      HGA3     0.090000        1.0080           0
     63388 WT22     194      MECN     C2       CG1N1    0.360000       12.0110           0
     63389 WT22     194      MECN     N3       NG1T1   -0.460000       14.0070           0
     63390 WT22     195      MECN     C1       CG331   -0.170000       12.0110           0
     63391 WT22     195      MECN     H11      HGA3     0.090000        1.0080           0
     63392 WT22     195      MECN     H12      HGA3     0.090000        1.0080           0
     63393 WT22     195      MECN     H13      HGA3     0.090000        1.0080           0
     63394 WT22     195      MECN     C2       CG1N1    0.360000       12.0110           0
     63395 WT22     195      MECN     N3       NG1T1   -0.460000       14.0070           0
     63396 WT22     198      MECN     C1       CG331   -0.170000       12.0110           0
     63397 WT22     198      MECN     H11      HGA3     0.090000        1.0080           0
     63398 WT22     198      MECN     H12      HGA3     0.090000        1.0080           0
     63399 WT22     198      MECN     H13      HGA3     0.090000        1.0080           0
     63400 WT22     198      MECN     C2       CG1N1    0.360000       12.0110           0
     63401 WT22     198      MECN     N3       NG1T1   -0.460000       14.0070           0
     63402 WT22     201      MECN     C1       CG331   -0.170000       12.0110           0
     63403 WT22     201      MECN     H11      HGA3     0.090000        1.0080           0
     63404 WT22     201      MECN     H12      HGA3     0.090000        1.0080           0
     63405 WT22     201      MECN     H13      HGA3     0.090000        1.0080           0
     63406 WT22     201      MECN     C2       CG1N1    0.360000       12.0110           0
     63407 WT22     201      MECN     N3       NG1T1   -0.460000       14.0070           0
     63408 WT22     202      MECN     C1       CG331   -0.170000       12.0110           0
     63409 WT22     202      MECN     H11      HGA3     0.090000        1.0080           0
     63410 WT22     202      MECN     H12      HGA3     0.090000        1.0080           0
     63411 WT22     202      MECN     H13      HGA3     0.090000        1.0080           0
     63412 WT22     202      MECN     C2       CG1N1    0.360000       12.0110           0
     63413 WT22     202      MECN     N3       NG1T1   -0.460000       14.0070           0
     63414 WT22     204      MECN     C1       CG331   -0.170000       12.0110           0
     63415 WT22     204      MECN     H11      HGA3     0.090000        1.0080           0
     63416 WT22     204      MECN     H12      HGA3     0.090000        1.0080           0
     63417 WT22     204      MECN     H13      HGA3     0.090000        1.0080           0
     63418 WT22     204      MECN     C2       CG1N1    0.360000       12.0110           0
     63419 WT22     204      MECN     N3       NG1T1   -0.460000       14.0070           0
     63420 WT22     207      MECN     C1       CG331   -0.170000       12.0110           0
     63421 WT22     207      MECN     H11      HGA3     0.090000        1.0080           0
     63422 WT22     207      MECN     H12      HGA3     0.090000        1.0080           0
     63423 WT22     207      MECN     H13      HGA3     0.090000        1.0080           0
     63424 WT22     207      MECN     C2       CG1N1    0.360000       12.0110           0
     63425 WT22     207      MECN     N3       NG1T1   -0.460000       14.0070           0
     63426 WT22     209      MECN     C1       CG331   -0.170000       12.0110           0
     63427 WT22     209      MECN     H11      HGA3     0.090000        1.0080           0
     63428 WT22     209      MECN     H12      HGA3     0.090000        1.0080           0
     63429 WT22     209      MECN     H13      HGA3     0.090000        1.0080           0
     63430 WT22     209      MECN     C2       CG1N1    0.360000       12.0110           0
     63431 WT22     209      MECN     N3       NG1T1   -0.460000       14.0070           0
     63432 WT22     210      MECN     C1       CG331   -0.170000       12.0110           0
     63433 WT22     210      MECN     H11      HGA3     0.090000        1.0080           0
     63434 WT22     210      MECN     H12      HGA3     0.090000        1.0080           0
     63435 WT22     210      MECN     H13      HGA3     0.090000        1.0080           0
     63436 WT22     210      MECN     C2       CG1N1    0.360000       12.0110           0
     63437 WT22     210      MECN     N3       NG1T1   -0.460000       14.0070           0
     63438 WT22     216      MECN     C1       CG331   -0.170000       12.0110           0
     63439 WT22     216      MECN     H11      HGA3     0.090000        1.0080           0
     63440 WT22     216      MECN     H12      HGA3     0.090000        1.0080           0
     63441 WT22     216      MECN     H13      HGA3     0.090000        1.0080           0
     63442 WT22     216      MECN     C2       CG1N1    0.360000       12.0110           0
     63443 WT22     216      MECN     N3       NG1T1   -0.460000       14.0070           0
     63444 WT22     219      MECN     C1       CG331   -0.170000       12.0110           0
     63445 WT22     219      MECN     H11      HGA3     0.090000        1.0080           0
     63446 WT22     219      MECN     H12      HGA3     0.090000        1.0080           0
     63447 WT22     219      MECN     H13      HGA3     0.090000        1.0080           0
     63448 WT22     219      MECN     C2       CG1N1    0.360000       12.0110           0
     63449 WT22     219      MECN     N3       NG1T1   -0.460000       14.0070           0
     63450 WT22     221      MECN     C1       CG331   -0.170000       12.0110           0
     63451 WT22     221      MECN     H11      HGA3     0.090000        1.0080           0
     63452 WT22     221      MECN     H12      HGA3     0.090000        1.0080           0
     63453 WT22     221      MECN     H13      HGA3     0.090000        1.0080           0
     63454 WT22     221      MECN     C2       CG1N1    0.360000       12.0110           0
     63455 WT22     221      MECN     N3       NG1T1   -0.460000       14.0070           0
     63456 WT22     225      MECN     C1       CG331   -0.170000       12.0110           0
     63457 WT22     225      MECN     H11      HGA3     0.090000        1.0080           0
     63458 WT22     225      MECN     H12      HGA3     0.090000        1.0080           0
     63459 WT22     225      MECN     H13      HGA3     0.090000        1.0080           0
     63460 WT22     225      MECN     C2       CG1N1    0.360000       12.0110           0
     63461 WT22     225      MECN     N3       NG1T1   -0.460000       14.0070           0
     63462 WT22     230      MECN     C1       CG331   -0.170000       12.0110           0
     63463 WT22     230      MECN     H11      HGA3     0.090000        1.0080           0
     63464 WT22     230      MECN     H12      HGA3     0.090000        1.0080           0
     63465 WT22     230      MECN     H13      HGA3     0.090000        1.0080           0
     63466 WT22     230      MECN     C2       CG1N1    0.360000       12.0110           0
     63467 WT22     230      MECN     N3       NG1T1   -0.460000       14.0070           0
     63468 WT22     233      MECN     C1       CG331   -0.170000       12.0110           0
     63469 WT22     233      MECN     H11      HGA3     0.090000        1.0080           0
     63470 WT22     233      MECN     H12      HGA3     0.090000        1.0080           0
     63471 WT22     233      MECN     H13      HGA3     0.090000        1.0080           0
     63472 WT22     233      MECN     C2       CG1N1    0.360000       12.0110           0
     63473 WT22     233      MECN     N3       NG1T1   -0.460000       14.0070           0
     63474 WT22     241      MECN     C1       CG331   -0.170000       12.0110           0
     63475 WT22     241      MECN     H11      HGA3     0.090000        1.0080           0
     63476 WT22     241      MECN     H12      HGA3     0.090000        1.0080           0
     63477 WT22     241      MECN     H13      HGA3     0.090000        1.0080           0
     63478 WT22     241      MECN     C2       CG1N1    0.360000       12.0110           0
     63479 WT22     241      MECN     N3       NG1T1   -0.460000       14.0070           0
     63480 WT22     246      MECN     C1       CG331   -0.170000       12.0110           0
     63481 WT22     246      MECN     H11      HGA3     0.090000        1.0080           0
     63482 WT22     246      MECN     H12      HGA3     0.090000        1.0080           0
     63483 WT22     246      MECN     H13      HGA3     0.090000        1.0080           0
     63484 WT22     246      MECN     C2       CG1N1    0.360000       12.0110           0
     63485 WT22     246      MECN     N3       NG1T1   -0.460000       14.0070           0
     63486 WT22     247      MECN     C1       CG331   -0.170000       12.0110           0
     63487 WT22     247      MECN     H11      HGA3     0.090000        1.0080           0
     63488 WT22     247      MECN     H12      HGA3     0.090000        1.0080           0
     63489 WT22     247      MECN     H13      HGA3     0.090000        1.0080           0
     63490 WT22     247      MECN     C2       CG1N1    0.360000       12.0110           0
     63491 WT22     247      MECN     N3       NG1T1   -0.460000       14.0070           0
     63492 WT22     248      MECN     C1       CG331   -0.170000       12.0110           0
     63493 WT22     248      MECN     H11      HGA3     0.090000        1.0080           0
     63494 WT22     248      MECN     H12      HGA3     0.090000        1.0080           0
     63495 WT22     248      MECN     H13      HGA3     0.090000        1.0080           0
     63496 WT22     248      MECN     C2       CG1N1    0.360000       12.0110           0
     63497 WT22     248      MECN     N3       NG1T1   -0.460000       14.0070           0
     63498 WT22     251      MECN     C1       CG331   -0.170000       12.0110           0
     63499 WT22     251      MECN     H11      HGA3     0.090000        1.0080           0
     63500 WT22     251      MECN     H12      HGA3     0.090000        1.0080           0
     63501 WT22     251      MECN     H13      HGA3     0.090000        1.0080           0
     63502 WT22     251      MECN     C2       CG1N1    0.360000       12.0110           0
     63503 WT22     251      MECN     N3       NG1T1   -0.460000       14.0070           0
     63504 WT22     253      MECN     C1       CG331   -0.170000       12.0110           0
     63505 WT22     253      MECN     H11      HGA3     0.090000        1.0080           0
     63506 WT22     253      MECN     H12      HGA3     0.090000        1.0080           0
     63507 WT22     253      MECN     H13      HGA3     0.090000        1.0080           0
     63508 WT22     253      MECN     C2       CG1N1    0.360000       12.0110           0
     63509 WT22     253      MECN     N3       NG1T1   -0.460000       14.0070           0
     63510 WT22     255      MECN     C1       CG331   -0.170000       12.0110           0
     63511 WT22     255      MECN     H11      HGA3     0.090000        1.0080           0
     63512 WT22     255      MECN     H12      HGA3     0.090000        1.0080           0
     63513 WT22     255      MECN     H13      HGA3     0.090000        1.0080           0
     63514 WT22     255      MECN     C2       CG1N1    0.360000       12.0110           0
     63515 WT22     255      MECN     N3       NG1T1   -0.460000       14.0070           0
     63516 WT22     256      MECN     C1       CG331   -0.170000       12.0110           0
     63517 WT22     256      MECN     H11      HGA3     0.090000        1.0080           0
     63518 WT22     256      MECN     H12      HGA3     0.090000        1.0080           0
     63519 WT22     256      MECN     H13      HGA3     0.090000        1.0080           0
     63520 WT22     256      MECN     C2       CG1N1    0.360000       12.0110           0
     63521 WT22     256      MECN     N3       NG1T1   -0.460000       14.0070           0
     63522 WT22     260      MECN     C1       CG331   -0.170000       12.0110           0
     63523 WT22     260      MECN     H11      HGA3     0.090000        1.0080           0
     63524 WT22     260      MECN     H12      HGA3     0.090000        1.0080           0
     63525 WT22     260      MECN     H13      HGA3     0.090000        1.0080           0
     63526 WT22     260      MECN     C2       CG1N1    0.360000       12.0110           0
     63527 WT22     260      MECN     N3       NG1T1   -0.460000       14.0070           0
     63528 WT22     262      MECN     C1       CG331   -0.170000       12.0110           0
     63529 WT22     262      MECN     H11      HGA3     0.090000        1.0080           0
     63530 WT22     262      MECN     H12      HGA3     0.090000        1.0080           0
     63531 WT22     262      MECN     H13      HGA3     0.090000        1.0080           0
     63532 WT22     262      MECN     C2       CG1N1    0.360000       12.0110           0
     63533 WT22     262      MECN     N3       NG1T1   -0.460000       14.0070           0
     63534 WT22     265      MECN     C1       CG331   -0.170000       12.0110           0
     63535 WT22     265      MECN     H11      HGA3     0.090000        1.0080           0
     63536 WT22     265      MECN     H12      HGA3     0.090000        1.0080           0
     63537 WT22     265      MECN     H13      HGA3     0.090000        1.0080           0
     63538 WT22     265      MECN     C2       CG1N1    0.360000       12.0110           0
     63539 WT22     265      MECN     N3       NG1T1   -0.460000       14.0070           0
     63540 WT22     266      MECN     C1       CG331   -0.170000       12.0110           0
     63541 WT22     266      MECN     H11      HGA3     0.090000        1.0080           0
     63542 WT22     266      MECN     H12      HGA3     0.090000        1.0080           0
     63543 WT22     266      MECN     H13      HGA3     0.090000        1.0080           0
     63544 WT22     266      MECN     C2       CG1N1    0.360000       12.0110           0
     63545 WT22     266      MECN     N3       NG1T1   -0.460000       14.0070           0
     63546 WT22     270      MECN     C1       CG331   -0.170000       12.0110           0
     63547 WT22     270      MECN     H11      HGA3     0.090000        1.0080           0
     63548 WT22     270      MECN     H12      HGA3     0.090000        1.0080           0
     63549 WT22     270      MECN     H13      HGA3     0.090000        1.0080           0
     63550 WT22     270      MECN     C2       CG1N1    0.360000       12.0110           0
     63551 WT22     270      MECN     N3       NG1T1   -0.460000       14.0070           0
     63552 WT22     271      MECN     C1       CG331   -0.170000       12.0110           0
     63553 WT22     271      MECN     H11      HGA3     0.090000        1.0080           0
     63554 WT22     271      MECN     H12      HGA3     0.090000        1.0080           0
     63555 WT22     271      MECN     H13      HGA3     0.090000        1.0080           0
     63556 WT22     271      MECN     C2       CG1N1    0.360000       12.0110           0
     63557 WT22     271      MECN     N3       NG1T1   -0.460000       14.0070           0
     63558 WT22     272      MECN     C1       CG331   -0.170000       12.0110           0
     63559 WT22     272      MECN     H11      HGA3     0.090000        1.0080           0
     63560 WT22     272      MECN     H12      HGA3     0.090000        1.0080           0
     63561 WT22     272      MECN     H13      HGA3     0.090000        1.0080           0
     63562 WT22     272      MECN     C2       CG1N1    0.360000       12.0110           0
     63563 WT22     272      MECN     N3       NG1T1   -0.460000       14.0070           0
     63564 WT22     274      MECN     C1       CG331   -0.170000       12.0110           0
     63565 WT22     274      MECN     H11      HGA3     0.090000        1.0080           0
     63566 WT22     274      MECN     H12      HGA3     0.090000        1.0080           0
     63567 WT22     274      MECN     H13      HGA3     0.090000        1.0080           0
     63568 WT22     274      MECN     C2       CG1N1    0.360000       12.0110           0
     63569 WT22     274      MECN     N3       NG1T1   -0.460000       14.0070           0
     63570 WT22     275      MECN     C1       CG331   -0.170000       12.0110           0
     63571 WT22     275      MECN     H11      HGA3     0.090000        1.0080           0
     63572 WT22     275      MECN     H12      HGA3     0.090000        1.0080           0
     63573 WT22     275      MECN     H13      HGA3     0.090000        1.0080           0
     63574 WT22     275      MECN     C2       CG1N1    0.360000       12.0110           0
     63575 WT22     275      MECN     N3       NG1T1   -0.460000       14.0070           0
     63576 WT22     282      MECN     C1       CG331   -0.170000       12.0110           0
     63577 WT22     282      MECN     H11      HGA3     0.090000        1.0080           0
     63578 WT22     282      MECN     H12      HGA3     0.090000        1.0080           0
     63579 WT22     282      MECN     H13      HGA3     0.090000        1.0080           0
     63580 WT22     282      MECN     C2       CG1N1    0.360000       12.0110           0
     63581 WT22     282      MECN     N3       NG1T1   -0.460000       14.0070           0
     63582 WT22     285      MECN     C1       CG331   -0.170000       12.0110           0
     63583 WT22     285      MECN     H11      HGA3     0.090000        1.0080           0
     63584 WT22     285      MECN     H12      HGA3     0.090000        1.0080           0
     63585 WT22     285      MECN     H13      HGA3     0.090000        1.0080           0
     63586 WT22     285      MECN     C2       CG1N1    0.360000       12.0110           0
     63587 WT22     285      MECN     N3       NG1T1   -0.460000       14.0070           0
     63588 WT22     290      MECN     C1       CG331   -0.170000       12.0110           0
     63589 WT22     290      MECN     H11      HGA3     0.090000        1.0080           0
     63590 WT22     290      MECN     H12      HGA3     0.090000        1.0080           0
     63591 WT22     290      MECN     H13      HGA3     0.090000        1.0080           0
     63592 WT22     290      MECN     C2       CG1N1    0.360000       12.0110           0
     63593 WT22     290      MECN     N3       NG1T1   -0.460000       14.0070           0
     63594 WT22     292      MECN     C1       CG331   -0.170000       12.0110           0
     63595 WT22     292      MECN     H11      HGA3     0.090000        1.0080           0
     63596 WT22     292      MECN     H12      HGA3     0.090000        1.0080           0
     63597 WT22     292      MECN     H13      HGA3     0.090000        1.0080           0
     63598 WT22     292      MECN     C2       CG1N1    0.360000       12.0110           0
     63599 WT22     292      MECN     N3       NG1T1   -0.460000       14.0070           0
     63600 WT22     295      MECN     C1       CG331   -0.170000       12.0110           0
     63601 WT22     295      MECN     H11      HGA3     0.090000        1.0080           0
     63602 WT22     295      MECN     H12      HGA3     0.090000        1.0080           0
     63603 WT22     295      MECN     H13      HGA3     0.090000        1.0080           0
     63604 WT22     295      MECN     C2       CG1N1    0.360000       12.0110           0
     63605 WT22     295      MECN     N3       NG1T1   -0.460000       14.0070           0
     63606 WT22     297      MECN     C1       CG331   -0.170000       12.0110           0
     63607 WT22     297      MECN     H11      HGA3     0.090000        1.0080           0
     63608 WT22     297      MECN     H12      HGA3     0.090000        1.0080           0
     63609 WT22     297      MECN     H13      HGA3     0.090000        1.0080           0
     63610 WT22     297      MECN     C2       CG1N1    0.360000       12.0110           0
     63611 WT22     297      MECN     N3       NG1T1   -0.460000       14.0070           0
     63612 WT22     300      MECN     C1       CG331   -0.170000       12.0110           0
     63613 WT22     300      MECN     H11      HGA3     0.090000        1.0080           0
     63614 WT22     300      MECN     H12      HGA3     0.090000        1.0080           0
     63615 WT22     300      MECN     H13      HGA3     0.090000        1.0080           0
     63616 WT22     300      MECN     C2       CG1N1    0.360000       12.0110           0
     63617 WT22     300      MECN     N3       NG1T1   -0.460000       14.0070           0
     63618 WT22     301      MECN     C1       CG331   -0.170000       12.0110           0
     63619 WT22     301      MECN     H11      HGA3     0.090000        1.0080           0
     63620 WT22     301      MECN     H12      HGA3     0.090000        1.0080           0
     63621 WT22     301      MECN     H13      HGA3     0.090000        1.0080           0
     63622 WT22     301      MECN     C2       CG1N1    0.360000       12.0110           0
     63623 WT22     301      MECN     N3       NG1T1   -0.460000       14.0070           0
     63624 WT22     302      MECN     C1       CG331   -0.170000       12.0110           0
     63625 WT22     302      MECN     H11      HGA3     0.090000        1.0080           0
     63626 WT22     302      MECN     H12      HGA3     0.090000        1.0080           0
     63627 WT22     302      MECN     H13      HGA3     0.090000        1.0080           0
     63628 WT22     302      MECN     C2       CG1N1    0.360000       12.0110           0
     63629 WT22     302      MECN     N3       NG1T1   -0.460000       14.0070           0
     63630 WT22     303      MECN     C1       CG331   -0.170000       12.0110           0
     63631 WT22     303      MECN     H11      HGA3     0.090000        1.0080           0
     63632 WT22     303      MECN     H12      HGA3     0.090000        1.0080           0
     63633 WT22     303      MECN     H13      HGA3     0.090000        1.0080           0
     63634 WT22     303      MECN     C2       CG1N1    0.360000       12.0110           0
     63635 WT22     303      MECN     N3       NG1T1   -0.460000       14.0070           0
     63636 WT22     304      MECN     C1       CG331   -0.170000       12.0110           0
     63637 WT22     304      MECN     H11      HGA3     0.090000        1.0080           0
     63638 WT22     304      MECN     H12      HGA3     0.090000        1.0080           0
     63639 WT22     304      MECN     H13      HGA3     0.090000        1.0080           0
     63640 WT22     304      MECN     C2       CG1N1    0.360000       12.0110           0
     63641 WT22     304      MECN     N3       NG1T1   -0.460000       14.0070           0
     63642 WT22     308      MECN     C1       CG331   -0.170000       12.0110           0
     63643 WT22     308      MECN     H11      HGA3     0.090000        1.0080           0
     63644 WT22     308      MECN     H12      HGA3     0.090000        1.0080           0
     63645 WT22     308      MECN     H13      HGA3     0.090000        1.0080           0
     63646 WT22     308      MECN     C2       CG1N1    0.360000       12.0110           0
     63647 WT22     308      MECN     N3       NG1T1   -0.460000       14.0070           0
     63648 WT22     310      MECN     C1       CG331   -0.170000       12.0110           0
     63649 WT22     310      MECN     H11      HGA3     0.090000        1.0080           0
     63650 WT22     310      MECN     H12      HGA3     0.090000        1.0080           0
     63651 WT22     310      MECN     H13      HGA3     0.090000        1.0080           0
     63652 WT22     310      MECN     C2       CG1N1    0.360000       12.0110           0
     63653 WT22     310      MECN     N3       NG1T1   -0.460000       14.0070           0
     63654 WT22     311      MECN     C1       CG331   -0.170000       12.0110           0
     63655 WT22     311      MECN     H11      HGA3     0.090000        1.0080           0
     63656 WT22     311      MECN     H12      HGA3     0.090000        1.0080           0
     63657 WT22     311      MECN     H13      HGA3     0.090000        1.0080           0
     63658 WT22     311      MECN     C2       CG1N1    0.360000       12.0110           0
     63659 WT22     311      MECN     N3       NG1T1   -0.460000       14.0070           0
     63660 WT22     312      MECN     C1       CG331   -0.170000       12.0110           0
     63661 WT22     312      MECN     H11      HGA3     0.090000        1.0080           0
     63662 WT22     312      MECN     H12      HGA3     0.090000        1.0080           0
     63663 WT22     312      MECN     H13      HGA3     0.090000        1.0080           0
     63664 WT22     312      MECN     C2       CG1N1    0.360000       12.0110           0
     63665 WT22     312      MECN     N3       NG1T1   -0.460000       14.0070           0
     63666 WT22     313      MECN     C1       CG331   -0.170000       12.0110           0
     63667 WT22     313      MECN     H11      HGA3     0.090000        1.0080           0
     63668 WT22     313      MECN     H12      HGA3     0.090000        1.0080           0
     63669 WT22     313      MECN     H13      HGA3     0.090000        1.0080           0
     63670 WT22     313      MECN     C2       CG1N1    0.360000       12.0110           0
     63671 WT22     313      MECN     N3       NG1T1   -0.460000       14.0070           0
     63672 WT22     315      MECN     C1       CG331   -0.170000       12.0110           0
     63673 WT22     315      MECN     H11      HGA3     0.090000        1.0080           0
     63674 WT22     315      MECN     H12      HGA3     0.090000        1.0080           0
     63675 WT22     315      MECN     H13      HGA3     0.090000        1.0080           0
     63676 WT22     315      MECN     C2       CG1N1    0.360000       12.0110           0
     63677 WT22     315      MECN     N3       NG1T1   -0.460000       14.0070           0
     63678 WT22     317      MECN     C1       CG331   -0.170000       12.0110           0
     63679 WT22     317      MECN     H11      HGA3     0.090000        1.0080           0
     63680 WT22     317      MECN     H12      HGA3     0.090000        1.0080           0
     63681 WT22     317      MECN     H13      HGA3     0.090000        1.0080           0
     63682 WT22     317      MECN     C2       CG1N1    0.360000       12.0110           0
     63683 WT22     317      MECN     N3       NG1T1   -0.460000       14.0070           0
     63684 WT22     325      MECN     C1       CG331   -0.170000       12.0110           0
     63685 WT22     325      MECN     H11      HGA3     0.090000        1.0080           0
     63686 WT22     325      MECN     H12      HGA3     0.090000        1.0080           0
     63687 WT22     325      MECN     H13      HGA3     0.090000        1.0080           0
     63688 WT22     325      MECN     C2       CG1N1    0.360000       12.0110           0
     63689 WT22     325      MECN     N3       NG1T1   -0.460000       14.0070           0
     63690 WT22     327      MECN     C1       CG331   -0.170000       12.0110           0
     63691 WT22     327      MECN     H11      HGA3     0.090000        1.0080           0
     63692 WT22     327      MECN     H12      HGA3     0.090000        1.0080           0
     63693 WT22     327      MECN     H13      HGA3     0.090000        1.0080           0
     63694 WT22     327      MECN     C2       CG1N1    0.360000       12.0110           0
     63695 WT22     327      MECN     N3       NG1T1   -0.460000       14.0070           0
     63696 WT22     328      MECN     C1       CG331   -0.170000       12.0110           0
     63697 WT22     328      MECN     H11      HGA3     0.090000        1.0080           0
     63698 WT22     328      MECN     H12      HGA3     0.090000        1.0080           0
     63699 WT22     328      MECN     H13      HGA3     0.090000        1.0080           0
     63700 WT22     328      MECN     C2       CG1N1    0.360000       12.0110           0
     63701 WT22     328      MECN     N3       NG1T1   -0.460000       14.0070           0
     63702 WT22     332      MECN     C1       CG331   -0.170000       12.0110           0
     63703 WT22     332      MECN     H11      HGA3     0.090000        1.0080           0
     63704 WT22     332      MECN     H12      HGA3     0.090000        1.0080           0
     63705 WT22     332      MECN     H13      HGA3     0.090000        1.0080           0
     63706 WT22     332      MECN     C2       CG1N1    0.360000       12.0110           0
     63707 WT22     332      MECN     N3       NG1T1   -0.460000       14.0070           0
     63708 WT22     333      MECN     C1       CG331   -0.170000       12.0110           0
     63709 WT22     333      MECN     H11      HGA3     0.090000        1.0080           0
     63710 WT22     333      MECN     H12      HGA3     0.090000        1.0080           0
     63711 WT22     333      MECN     H13      HGA3     0.090000        1.0080           0
     63712 WT22     333      MECN     C2       CG1N1    0.360000       12.0110           0
     63713 WT22     333      MECN     N3       NG1T1   -0.460000       14.0070           0
     63714 WT22     335      MECN     C1       CG331   -0.170000       12.0110           0
     63715 WT22     335      MECN     H11      HGA3     0.090000        1.0080           0
     63716 WT22     335      MECN     H12      HGA3     0.090000        1.0080           0
     63717 WT22     335      MECN     H13      HGA3     0.090000        1.0080           0
     63718 WT22     335      MECN     C2       CG1N1    0.360000       12.0110           0
     63719 WT22     335      MECN     N3       NG1T1   -0.460000       14.0070           0
     63720 WT22     336      MECN     C1       CG331   -0.170000       12.0110           0
     63721 WT22     336      MECN     H11      HGA3     0.090000        1.0080           0
     63722 WT22     336      MECN     H12      HGA3     0.090000        1.0080           0
     63723 WT22     336      MECN     H13      HGA3     0.090000        1.0080           0
     63724 WT22     336      MECN     C2       CG1N1    0.360000       12.0110           0
     63725 WT22     336      MECN     N3       NG1T1   -0.460000       14.0070           0
     63726 WT22     339      MECN     C1       CG331   -0.170000       12.0110           0
     63727 WT22     339      MECN     H11      HGA3     0.090000        1.0080           0
     63728 WT22     339      MECN     H12      HGA3     0.090000        1.0080           0
     63729 WT22     339      MECN     H13      HGA3     0.090000        1.0080           0
     63730 WT22     339      MECN     C2       CG1N1    0.360000       12.0110           0
     63731 WT22     339      MECN     N3       NG1T1   -0.460000       14.0070           0
     63732 WT22     340      MECN     C1       CG331   -0.170000       12.0110           0
     63733 WT22     340      MECN     H11      HGA3     0.090000        1.0080           0
     63734 WT22     340      MECN     H12      HGA3     0.090000        1.0080           0
     63735 WT22     340      MECN     H13      HGA3     0.090000        1.0080           0
     63736 WT22     340      MECN     C2       CG1N1    0.360000       12.0110           0
     63737 WT22     340      MECN     N3       NG1T1   -0.460000       14.0070           0
     63738 WT22     341      MECN     C1       CG331   -0.170000       12.0110           0
     63739 WT22     341      MECN     H11      HGA3     0.090000        1.0080           0
     63740 WT22     341      MECN     H12      HGA3     0.090000        1.0080           0
     63741 WT22     341      MECN     H13      HGA3     0.090000        1.0080           0
     63742 WT22     341      MECN     C2       CG1N1    0.360000       12.0110           0
     63743 WT22     341      MECN     N3       NG1T1   -0.460000       14.0070           0
     63744 WT22     343      MECN     C1       CG331   -0.170000       12.0110           0
     63745 WT22     343      MECN     H11      HGA3     0.090000        1.0080           0
     63746 WT22     343      MECN     H12      HGA3     0.090000        1.0080           0
     63747 WT22     343      MECN     H13      HGA3     0.090000        1.0080           0
     63748 WT22     343      MECN     C2       CG1N1    0.360000       12.0110           0
     63749 WT22     343      MECN     N3       NG1T1   -0.460000       14.0070           0
     63750 WT22     344      MECN     C1       CG331   -0.170000       12.0110           0
     63751 WT22     344      MECN     H11      HGA3     0.090000        1.0080           0
     63752 WT22     344      MECN     H12      HGA3     0.090000        1.0080           0
     63753 WT22     344      MECN     H13      HGA3     0.090000        1.0080           0
     63754 WT22     344      MECN     C2       CG1N1    0.360000       12.0110           0
     63755 WT22     344      MECN     N3       NG1T1   -0.460000       14.0070           0
     63756 WT22     346      MECN     C1       CG331   -0.170000       12.0110           0
     63757 WT22     346      MECN     H11      HGA3     0.090000        1.0080           0
     63758 WT22     346      MECN     H12      HGA3     0.090000        1.0080           0
     63759 WT22     346      MECN     H13      HGA3     0.090000        1.0080           0
     63760 WT22     346      MECN     C2       CG1N1    0.360000       12.0110           0
     63761 WT22     346      MECN     N3       NG1T1   -0.460000       14.0070           0
     63762 WT22     349      MECN     C1       CG331   -0.170000       12.0110           0
     63763 WT22     349      MECN     H11      HGA3     0.090000        1.0080           0
     63764 WT22     349      MECN     H12      HGA3     0.090000        1.0080           0
     63765 WT22     349      MECN     H13      HGA3     0.090000        1.0080           0
     63766 WT22     349      MECN     C2       CG1N1    0.360000       12.0110           0
     63767 WT22     349      MECN     N3       NG1T1   -0.460000       14.0070           0
     63768 WT22     360      MECN     C1       CG331   -0.170000       12.0110           0
     63769 WT22     360      MECN     H11      HGA3     0.090000        1.0080           0
     63770 WT22     360      MECN     H12      HGA3     0.090000        1.0080           0
     63771 WT22     360      MECN     H13      HGA3     0.090000        1.0080           0
     63772 WT22     360      MECN     C2       CG1N1    0.360000       12.0110           0
     63773 WT22     360      MECN     N3       NG1T1   -0.460000       14.0070           0
     63774 WT22     366      MECN     C1       CG331   -0.170000       12.0110           0
     63775 WT22     366      MECN     H11      HGA3     0.090000        1.0080           0
     63776 WT22     366      MECN     H12      HGA3     0.090000        1.0080           0
     63777 WT22     366      MECN     H13      HGA3     0.090000        1.0080           0
     63778 WT22     366      MECN     C2       CG1N1    0.360000       12.0110           0
     63779 WT22     366      MECN     N3       NG1T1   -0.460000       14.0070           0
     63780 WT22     367      MECN     C1       CG331   -0.170000       12.0110           0
     63781 WT22     367      MECN     H11      HGA3     0.090000        1.0080           0
     63782 WT22     367      MECN     H12      HGA3     0.090000        1.0080           0
     63783 WT22     367      MECN     H13      HGA3     0.090000        1.0080           0
     63784 WT22     367      MECN     C2       CG1N1    0.360000       12.0110           0
     63785 WT22     367      MECN     N3       NG1T1   -0.460000       14.0070           0
     63786 WT22     369      MECN     C1       CG331   -0.170000       12.0110           0
     63787 WT22     369      MECN     H11      HGA3     0.090000        1.0080           0
     63788 WT22     369      MECN     H12      HGA3     0.090000        1.0080           0
     63789 WT22     369      MECN     H13      HGA3     0.090000        1.0080           0
     63790 WT22     369      MECN     C2       CG1N1    0.360000       12.0110           0
     63791 WT22     369      MECN     N3       NG1T1   -0.460000       14.0070           0
     63792 WT22     374      MECN     C1       CG331   -0.170000       12.0110           0
     63793 WT22     374      MECN     H11      HGA3     0.090000        1.0080           0
     63794 WT22     374      MECN     H12      HGA3     0.090000        1.0080           0
     63795 WT22     374      MECN     H13      HGA3     0.090000        1.0080           0
     63796 WT22     374      MECN     C2       CG1N1    0.360000       12.0110           0
     63797 WT22     374      MECN     N3       NG1T1   -0.460000       14.0070           0
     63798 WT22     376      MECN     C1       CG331   -0.170000       12.0110           0
     63799 WT22     376      MECN     H11      HGA3     0.090000        1.0080           0
     63800 WT22     376      MECN     H12      HGA3     0.090000        1.0080           0
     63801 WT22     376      MECN     H13      HGA3     0.090000        1.0080           0
     63802 WT22     376      MECN     C2       CG1N1    0.360000       12.0110           0
     63803 WT22     376      MECN     N3       NG1T1   -0.460000       14.0070           0
     63804 WT22     378      MECN     C1       CG331   -0.170000       12.0110           0
     63805 WT22     378      MECN     H11      HGA3     0.090000        1.0080           0
     63806 WT22     378      MECN     H12      HGA3     0.090000        1.0080           0
     63807 WT22     378      MECN     H13      HGA3     0.090000        1.0080           0
     63808 WT22     378      MECN     C2       CG1N1    0.360000       12.0110           0
     63809 WT22     378      MECN     N3       NG1T1   -0.460000       14.0070           0
     63810 WT22     381      MECN     C1       CG331   -0.170000       12.0110           0
     63811 WT22     381      MECN     H11      HGA3     0.090000        1.0080           0
     63812 WT22     381      MECN     H12      HGA3     0.090000        1.0080           0
     63813 WT22     381      MECN     H13      HGA3     0.090000        1.0080           0
     63814 WT22     381      MECN     C2       CG1N1    0.360000       12.0110           0
     63815 WT22     381      MECN     N3       NG1T1   -0.460000       14.0070           0
     63816 WT22     383      MECN     C1       CG331   -0.170000       12.0110           0
     63817 WT22     383      MECN     H11      HGA3     0.090000        1.0080           0
     63818 WT22     383      MECN     H12      HGA3     0.090000        1.0080           0
     63819 WT22     383      MECN     H13      HGA3     0.090000        1.0080           0
     63820 WT22     383      MECN     C2       CG1N1    0.360000       12.0110           0
     63821 WT22     383      MECN     N3       NG1T1   -0.460000       14.0070           0
     63822 WT22     384      MECN     C1       CG331   -0.170000       12.0110           0
     63823 WT22     384      MECN     H11      HGA3     0.090000        1.0080           0
     63824 WT22     384      MECN     H12      HGA3     0.090000        1.0080           0
     63825 WT22     384      MECN     H13      HGA3     0.090000        1.0080           0
     63826 WT22     384      MECN     C2       CG1N1    0.360000       12.0110           0
     63827 WT22     384      MECN     N3       NG1T1   -0.460000       14.0070           0
     63828 WT22     386      MECN     C1       CG331   -0.170000       12.0110           0
     63829 WT22     386      MECN     H11      HGA3     0.090000        1.0080           0
     63830 WT22     386      MECN     H12      HGA3     0.090000        1.0080           0
     63831 WT22     386      MECN     H13      HGA3     0.090000        1.0080           0
     63832 WT22     386      MECN     C2       CG1N1    0.360000       12.0110           0
     63833 WT22     386      MECN     N3       NG1T1   -0.460000       14.0070           0
     63834 WT22     391      MECN     C1       CG331   -0.170000       12.0110           0
     63835 WT22     391      MECN     H11      HGA3     0.090000        1.0080           0
     63836 WT22     391      MECN     H12      HGA3     0.090000        1.0080           0
     63837 WT22     391      MECN     H13      HGA3     0.090000        1.0080           0
     63838 WT22     391      MECN     C2       CG1N1    0.360000       12.0110           0
     63839 WT22     391      MECN     N3       NG1T1   -0.460000       14.0070           0
     63840 WT22     395      MECN     C1       CG331   -0.170000       12.0110           0
     63841 WT22     395      MECN     H11      HGA3     0.090000        1.0080           0
     63842 WT22     395      MECN     H12      HGA3     0.090000        1.0080           0
     63843 WT22     395      MECN     H13      HGA3     0.090000        1.0080           0
     63844 WT22     395      MECN     C2       CG1N1    0.360000       12.0110           0
     63845 WT22     395      MECN     N3       NG1T1   -0.460000       14.0070           0
     63846 WT22     400      MECN     C1       CG331   -0.170000       12.0110           0
     63847 WT22     400      MECN     H11      HGA3     0.090000        1.0080           0
     63848 WT22     400      MECN     H12      HGA3     0.090000        1.0080           0
     63849 WT22     400      MECN     H13      HGA3     0.090000        1.0080           0
     63850 WT22     400      MECN     C2       CG1N1    0.360000       12.0110           0
     63851 WT22     400      MECN     N3       NG1T1   -0.460000       14.0070           0
     63852 WT22     401      MECN     C1       CG331   -0.170000       12.0110           0
     63853 WT22     401      MECN     H11      HGA3     0.090000        1.0080           0
     63854 WT22     401      MECN     H12      HGA3     0.090000        1.0080           0
     63855 WT22     401      MECN     H13      HGA3     0.090000        1.0080           0
     63856 WT22     401      MECN     C2       CG1N1    0.360000       12.0110           0
     63857 WT22     401      MECN     N3       NG1T1   -0.460000       14.0070           0
     63858 WT22     404      MECN     C1       CG331   -0.170000       12.0110           0
     63859 WT22     404      MECN     H11      HGA3     0.090000        1.0080           0
     63860 WT22     404      MECN     H12      HGA3     0.090000        1.0080           0
     63861 WT22     404      MECN     H13      HGA3     0.090000        1.0080           0
     63862 WT22     404      MECN     C2       CG1N1    0.360000       12.0110           0
     63863 WT22     404      MECN     N3       NG1T1   -0.460000       14.0070           0
     63864 WT22     406      MECN     C1       CG331   -0.170000       12.0110           0
     63865 WT22     406      MECN     H11      HGA3     0.090000        1.0080           0
     63866 WT22     406      MECN     H12      HGA3     0.090000        1.0080           0
     63867 WT22     406      MECN     H13      HGA3     0.090000        1.0080           0
     63868 WT22     406      MECN     C2       CG1N1    0.360000       12.0110           0
     63869 WT22     406      MECN     N3       NG1T1   -0.460000       14.0070           0
     63870 WT22     407      MECN     C1       CG331   -0.170000       12.0110           0
     63871 WT22     407      MECN     H11      HGA3     0.090000        1.0080           0
     63872 WT22     407      MECN     H12      HGA3     0.090000        1.0080           0
     63873 WT22     407      MECN     H13      HGA3     0.090000        1.0080           0
     63874 WT22     407      MECN     C2       CG1N1    0.360000       12.0110           0
     63875 WT22     407      MECN     N3       NG1T1   -0.460000       14.0070           0
     63876 WT22     408      MECN     C1       CG331   -0.170000       12.0110           0
     63877 WT22     408      MECN     H11      HGA3     0.090000        1.0080           0
     63878 WT22     408      MECN     H12      HGA3     0.090000        1.0080           0
     63879 WT22     408      MECN     H13      HGA3     0.090000        1.0080           0
     63880 WT22     408      MECN     C2       CG1N1    0.360000       12.0110           0
     63881 WT22     408      MECN     N3       NG1T1   -0.460000       14.0070           0
     63882 WT22     412      MECN     C1       CG331   -0.170000       12.0110           0
     63883 WT22     412      MECN     H11      HGA3     0.090000        1.0080           0
     63884 WT22     412      MECN     H12      HGA3     0.090000        1.0080           0
     63885 WT22     412      MECN     H13      HGA3     0.090000        1.0080           0
     63886 WT22     412      MECN     C2       CG1N1    0.360000       12.0110           0
     63887 WT22     412      MECN     N3       NG1T1   -0.460000       14.0070           0
     63888 WT22     414      MECN     C1       CG331   -0.170000       12.0110           0
     63889 WT22     414      MECN     H11      HGA3     0.090000        1.0080           0
     63890 WT22     414      MECN     H12      HGA3     0.090000        1.0080           0
     63891 WT22     414      MECN     H13      HGA3     0.090000        1.0080           0
     63892 WT22     414      MECN     C2       CG1N1    0.360000       12.0110           0
     63893 WT22     414      MECN     N3       NG1T1   -0.460000       14.0070           0
     63894 WT22     421      MECN     C1       CG331   -0.170000       12.0110           0
     63895 WT22     421      MECN     H11      HGA3     0.090000        1.0080           0
     63896 WT22     421      MECN     H12      HGA3     0.090000        1.0080           0
     63897 WT22     421      MECN     H13      HGA3     0.090000        1.0080           0
     63898 WT22     421      MECN     C2       CG1N1    0.360000       12.0110           0
     63899 WT22     421      MECN     N3       NG1T1   -0.460000       14.0070           0
     63900 WT22     423      MECN     C1       CG331   -0.170000       12.0110           0
     63901 WT22     423      MECN     H11      HGA3     0.090000        1.0080           0
     63902 WT22     423      MECN     H12      HGA3     0.090000        1.0080           0
     63903 WT22     423      MECN     H13      HGA3     0.090000        1.0080           0
     63904 WT22     423      MECN     C2       CG1N1    0.360000       12.0110           0
     63905 WT22     423      MECN     N3       NG1T1   -0.460000       14.0070           0
     63906 WT22     432      MECN     C1       CG331   -0.170000       12.0110           0
     63907 WT22     432      MECN     H11      HGA3     0.090000        1.0080           0
     63908 WT22     432      MECN     H12      HGA3     0.090000        1.0080           0
     63909 WT22     432      MECN     H13      HGA3     0.090000        1.0080           0
     63910 WT22     432      MECN     C2       CG1N1    0.360000       12.0110           0
     63911 WT22     432      MECN     N3       NG1T1   -0.460000       14.0070           0
     63912 WT22     433      MECN     C1       CG331   -0.170000       12.0110           0
     63913 WT22     433      MECN     H11      HGA3     0.090000        1.0080           0
     63914 WT22     433      MECN     H12      HGA3     0.090000        1.0080           0
     63915 WT22     433      MECN     H13      HGA3     0.090000        1.0080           0
     63916 WT22     433      MECN     C2       CG1N1    0.360000       12.0110           0
     63917 WT22     433      MECN     N3       NG1T1   -0.460000       14.0070           0
     63918 WT22     437      MECN     C1       CG331   -0.170000       12.0110           0
     63919 WT22     437      MECN     H11      HGA3     0.090000        1.0080           0
     63920 WT22     437      MECN     H12      HGA3     0.090000        1.0080           0
     63921 WT22     437      MECN     H13      HGA3     0.090000        1.0080           0
     63922 WT22     437      MECN     C2       CG1N1    0.360000       12.0110           0
     63923 WT22     437      MECN     N3       NG1T1   -0.460000       14.0070           0
     63924 WT22     438      MECN     C1       CG331   -0.170000       12.0110           0
     63925 WT22     438      MECN     H11      HGA3     0.090000        1.0080           0
     63926 WT22     438      MECN     H12      HGA3     0.090000        1.0080           0
     63927 WT22     438      MECN     H13      HGA3     0.090000        1.0080           0
     63928 WT22     438      MECN     C2       CG1N1    0.360000       12.0110           0
     63929 WT22     438      MECN     N3       NG1T1   -0.460000       14.0070           0
     63930 WT22     439      MECN     C1       CG331   -0.170000       12.0110           0
     63931 WT22     439      MECN     H11      HGA3     0.090000        1.0080           0
     63932 WT22     439      MECN     H12      HGA3     0.090000        1.0080           0
     63933 WT22     439      MECN     H13      HGA3     0.090000        1.0080           0
     63934 WT22     439      MECN     C2       CG1N1    0.360000       12.0110           0
     63935 WT22     439      MECN     N3       NG1T1   -0.460000       14.0070           0
     63936 WT22     440      MECN     C1       CG331   -0.170000       12.0110           0
     63937 WT22     440      MECN     H11      HGA3     0.090000        1.0080           0
     63938 WT22     440      MECN     H12      HGA3     0.090000        1.0080           0
     63939 WT22     440      MECN     H13      HGA3     0.090000        1.0080           0
     63940 WT22     440      MECN     C2       CG1N1    0.360000       12.0110           0
     63941 WT22     440      MECN     N3       NG1T1   -0.460000       14.0070           0
     63942 WT22     443      MECN     C1       CG331   -0.170000       12.0110           0
     63943 WT22     443      MECN     H11      HGA3     0.090000        1.0080           0
     63944 WT22     443      MECN     H12      HGA3     0.090000        1.0080           0
     63945 WT22     443      MECN     H13      HGA3     0.090000        1.0080           0
     63946 WT22     443      MECN     C2       CG1N1    0.360000       12.0110           0
     63947 WT22     443      MECN     N3       NG1T1   -0.460000       14.0070           0
     63948 WT22     446      MECN     C1       CG331   -0.170000       12.0110           0
     63949 WT22     446      MECN     H11      HGA3     0.090000        1.0080           0
     63950 WT22     446      MECN     H12      HGA3     0.090000        1.0080           0
     63951 WT22     446      MECN     H13      HGA3     0.090000        1.0080           0
     63952 WT22     446      MECN     C2       CG1N1    0.360000       12.0110           0
     63953 WT22     446      MECN     N3       NG1T1   -0.460000       14.0070           0
     63954 WT22     449      MECN     C1       CG331   -0.170000       12.0110           0
     63955 WT22     449      MECN     H11      HGA3     0.090000        1.0080           0
     63956 WT22     449      MECN     H12      HGA3     0.090000        1.0080           0
     63957 WT22     449      MECN     H13      HGA3     0.090000        1.0080           0
     63958 WT22     449      MECN     C2       CG1N1    0.360000       12.0110           0
     63959 WT22     449      MECN     N3       NG1T1   -0.460000       14.0070           0
     63960 WT22     452      MECN     C1       CG331   -0.170000       12.0110           0
     63961 WT22     452      MECN     H11      HGA3     0.090000        1.0080           0
     63962 WT22     452      MECN     H12      HGA3     0.090000        1.0080           0
     63963 WT22     452      MECN     H13      HGA3     0.090000        1.0080           0
     63964 WT22     452      MECN     C2       CG1N1    0.360000       12.0110           0
     63965 WT22     452      MECN     N3       NG1T1   -0.460000       14.0070           0
     63966 WT22     453      MECN     C1       CG331   -0.170000       12.0110           0
     63967 WT22     453      MECN     H11      HGA3     0.090000        1.0080           0
     63968 WT22     453      MECN     H12      HGA3     0.090000        1.0080           0
     63969 WT22     453      MECN     H13      HGA3     0.090000        1.0080           0
     63970 WT22     453      MECN     C2       CG1N1    0.360000       12.0110           0
     63971 WT22     453      MECN     N3       NG1T1   -0.460000       14.0070           0
     63972 WT22     454      MECN     C1       CG331   -0.170000       12.0110           0
     63973 WT22     454      MECN     H11      HGA3     0.090000        1.0080           0
     63974 WT22     454      MECN     H12      HGA3     0.090000        1.0080           0
     63975 WT22     454      MECN     H13      HGA3     0.090000        1.0080           0
     63976 WT22     454      MECN     C2       CG1N1    0.360000       12.0110           0
     63977 WT22     454      MECN     N3       NG1T1   -0.460000       14.0070           0
     63978 WT22     456      MECN     C1       CG331   -0.170000       12.0110           0
     63979 WT22     456      MECN     H11      HGA3     0.090000        1.0080           0
     63980 WT22     456      MECN     H12      HGA3     0.090000        1.0080           0
     63981 WT22     456      MECN     H13      HGA3     0.090000        1.0080           0
     63982 WT22     456      MECN     C2       CG1N1    0.360000       12.0110           0
     63983 WT22     456      MECN     N3       NG1T1   -0.460000       14.0070           0
     63984 WT22     458      MECN     C1       CG331   -0.170000       12.0110           0
     63985 WT22     458      MECN     H11      HGA3     0.090000        1.0080           0
     63986 WT22     458      MECN     H12      HGA3     0.090000        1.0080           0
     63987 WT22     458      MECN     H13      HGA3     0.090000        1.0080           0
     63988 WT22     458      MECN     C2       CG1N1    0.360000       12.0110           0
     63989 WT22     458      MECN     N3       NG1T1   -0.460000       14.0070           0
     63990 WT22     464      MECN     C1       CG331   -0.170000       12.0110           0
     63991 WT22     464      MECN     H11      HGA3     0.090000        1.0080           0
     63992 WT22     464      MECN     H12      HGA3     0.090000        1.0080           0
     63993 WT22     464      MECN     H13      HGA3     0.090000        1.0080           0
     63994 WT22     464      MECN     C2       CG1N1    0.360000       12.0110           0
     63995 WT22     464      MECN     N3       NG1T1   -0.460000       14.0070           0
     63996 WT22     467      MECN     C1       CG331   -0.170000       12.0110           0
     63997 WT22     467      MECN     H11      HGA3     0.090000        1.0080           0
     63998 WT22     467      MECN     H12      HGA3     0.090000        1.0080           0
     63999 WT22     467      MECN     H13      HGA3     0.090000        1.0080           0
     64000 WT22     467      MECN     C2       CG1N1    0.360000       12.0110           0
     64001 WT22     467      MECN     N3       NG1T1   -0.460000       14.0070           0
     64002 WT22     471      MECN     C1       CG331   -0.170000       12.0110           0
     64003 WT22     471      MECN     H11      HGA3     0.090000        1.0080           0
     64004 WT22     471      MECN     H12      HGA3     0.090000        1.0080           0
     64005 WT22     471      MECN     H13      HGA3     0.090000        1.0080           0
     64006 WT22     471      MECN     C2       CG1N1    0.360000       12.0110           0
     64007 WT22     471      MECN     N3       NG1T1   -0.460000       14.0070           0
     64008 WT22     474      MECN     C1       CG331   -0.170000       12.0110           0
     64009 WT22     474      MECN     H11      HGA3     0.090000        1.0080           0
     64010 WT22     474      MECN     H12      HGA3     0.090000        1.0080           0
     64011 WT22     474      MECN     H13      HGA3     0.090000        1.0080           0
     64012 WT22     474      MECN     C2       CG1N1    0.360000       12.0110           0
     64013 WT22     474      MECN     N3       NG1T1   -0.460000       14.0070           0
     64014 WT22     477      MECN     C1       CG331   -0.170000       12.0110           0
     64015 WT22     477      MECN     H11      HGA3     0.090000        1.0080           0
     64016 WT22     477      MECN     H12      HGA3     0.090000        1.0080           0
     64017 WT22     477      MECN     H13      HGA3     0.090000        1.0080           0
     64018 WT22     477      MECN     C2       CG1N1    0.360000       12.0110           0
     64019 WT22     477      MECN     N3       NG1T1   -0.460000       14.0070           0
     64020 WT22     478      MECN     C1       CG331   -0.170000       12.0110           0
     64021 WT22     478      MECN     H11      HGA3     0.090000        1.0080           0
     64022 WT22     478      MECN     H12      HGA3     0.090000        1.0080           0
     64023 WT22     478      MECN     H13      HGA3     0.090000        1.0080           0
     64024 WT22     478      MECN     C2       CG1N1    0.360000       12.0110           0
     64025 WT22     478      MECN     N3       NG1T1   -0.460000       14.0070           0
     64026 WT22     479      MECN     C1       CG331   -0.170000       12.0110           0
     64027 WT22     479      MECN     H11      HGA3     0.090000        1.0080           0
     64028 WT22     479      MECN     H12      HGA3     0.090000        1.0080           0
     64029 WT22     479      MECN     H13      HGA3     0.090000        1.0080           0
     64030 WT22     479      MECN     C2       CG1N1    0.360000       12.0110           0
     64031 WT22     479      MECN     N3       NG1T1   -0.460000       14.0070           0
     64032 WT22     480      MECN     C1       CG331   -0.170000       12.0110           0
     64033 WT22     480      MECN     H11      HGA3     0.090000        1.0080           0
     64034 WT22     480      MECN     H12      HGA3     0.090000        1.0080           0
     64035 WT22     480      MECN     H13      HGA3     0.090000        1.0080           0
     64036 WT22     480      MECN     C2       CG1N1    0.360000       12.0110           0
     64037 WT22     480      MECN     N3       NG1T1   -0.460000       14.0070           0
     64038 WT22     481      MECN     C1       CG331   -0.170000       12.0110           0
     64039 WT22     481      MECN     H11      HGA3     0.090000        1.0080           0
     64040 WT22     481      MECN     H12      HGA3     0.090000        1.0080           0
     64041 WT22     481      MECN     H13      HGA3     0.090000        1.0080           0
     64042 WT22     481      MECN     C2       CG1N1    0.360000       12.0110           0
     64043 WT22     481      MECN     N3       NG1T1   -0.460000       14.0070           0
     64044 WT22     485      MECN     C1       CG331   -0.170000       12.0110           0
     64045 WT22     485      MECN     H11      HGA3     0.090000        1.0080           0
     64046 WT22     485      MECN     H12      HGA3     0.090000        1.0080           0
     64047 WT22     485      MECN     H13      HGA3     0.090000        1.0080           0
     64048 WT22     485      MECN     C2       CG1N1    0.360000       12.0110           0
     64049 WT22     485      MECN     N3       NG1T1   -0.460000       14.0070           0
     64050 WT22     494      MECN     C1       CG331   -0.170000       12.0110           0
     64051 WT22     494      MECN     H11      HGA3     0.090000        1.0080           0
     64052 WT22     494      MECN     H12      HGA3     0.090000        1.0080           0
     64053 WT22     494      MECN     H13      HGA3     0.090000        1.0080           0
     64054 WT22     494      MECN     C2       CG1N1    0.360000       12.0110           0
     64055 WT22     494      MECN     N3       NG1T1   -0.460000       14.0070           0
     64056 WT22     495      MECN     C1       CG331   -0.170000       12.0110           0
     64057 WT22     495      MECN     H11      HGA3     0.090000        1.0080           0
     64058 WT22     495      MECN     H12      HGA3     0.090000        1.0080           0
     64059 WT22     495      MECN     H13      HGA3     0.090000        1.0080           0
     64060 WT22     495      MECN     C2       CG1N1    0.360000       12.0110           0
     64061 WT22     495      MECN     N3       NG1T1   -0.460000       14.0070           0
     64062 WT22     497      MECN     C1       CG331   -0.170000       12.0110           0
     64063 WT22     497      MECN     H11      HGA3     0.090000        1.0080           0
     64064 WT22     497      MECN     H12      HGA3     0.090000        1.0080           0
     64065 WT22     497      MECN     H13      HGA3     0.090000        1.0080           0
     64066 WT22     497      MECN     C2       CG1N1    0.360000       12.0110           0
     64067 WT22     497      MECN     N3       NG1T1   -0.460000       14.0070           0
     64068 WT22     505      MECN     C1       CG331   -0.170000       12.0110           0
     64069 WT22     505      MECN     H11      HGA3     0.090000        1.0080           0
     64070 WT22     505      MECN     H12      HGA3     0.090000        1.0080           0
     64071 WT22     505      MECN     H13      HGA3     0.090000        1.0080           0
     64072 WT22     505      MECN     C2       CG1N1    0.360000       12.0110           0
     64073 WT22     505      MECN     N3       NG1T1   -0.460000       14.0070           0
     64074 WT22     508      MECN     C1       CG331   -0.170000       12.0110           0
     64075 WT22     508      MECN     H11      HGA3     0.090000        1.0080           0
     64076 WT22     508      MECN     H12      HGA3     0.090000        1.0080           0
     64077 WT22     508      MECN     H13      HGA3     0.090000        1.0080           0
     64078 WT22     508      MECN     C2       CG1N1    0.360000       12.0110           0
     64079 WT22     508      MECN     N3       NG1T1   -0.460000       14.0070           0
     64080 WT22     510      MECN     C1       CG331   -0.170000       12.0110           0
     64081 WT22     510      MECN     H11      HGA3     0.090000        1.0080           0
     64082 WT22     510      MECN     H12      HGA3     0.090000        1.0080           0
     64083 WT22     510      MECN     H13      HGA3     0.090000        1.0080           0
     64084 WT22     510      MECN     C2       CG1N1    0.360000       12.0110           0
     64085 WT22     510      MECN     N3       NG1T1   -0.460000       14.0070           0
     64086 WT22     511      MECN     C1       CG331   -0.170000       12.0110           0
     64087 WT22     511      MECN     H11      HGA3     0.090000        1.0080           0
     64088 WT22     511      MECN     H12      HGA3     0.090000        1.0080           0
     64089 WT22     511      MECN     H13      HGA3     0.090000        1.0080           0
     64090 WT22     511      MECN     C2       CG1N1    0.360000       12.0110           0
     64091 WT22     511      MECN     N3       NG1T1   -0.460000       14.0070           0
     64092 WT22     512      MECN     C1       CG331   -0.170000       12.0110           0
     64093 WT22     512      MECN     H11      HGA3     0.090000        1.0080           0
     64094 WT22     512      MECN     H12      HGA3     0.090000        1.0080           0
     64095 WT22     512      MECN     H13      HGA3     0.090000        1.0080           0
     64096 WT22     512      MECN     C2       CG1N1    0.360000       12.0110           0
     64097 WT22     512      MECN     N3       NG1T1   -0.460000       14.0070           0
     64098 WT22     517      MECN     C1       CG331   -0.170000       12.0110           0
     64099 WT22     517      MECN     H11      HGA3     0.090000        1.0080           0
     64100 WT22     517      MECN     H12      HGA3     0.090000        1.0080           0
     64101 WT22     517      MECN     H13      HGA3     0.090000        1.0080           0
     64102 WT22     517      MECN     C2       CG1N1    0.360000       12.0110           0
     64103 WT22     517      MECN     N3       NG1T1   -0.460000       14.0070           0
     64104 WT22     518      MECN     C1       CG331   -0.170000       12.0110           0
     64105 WT22     518      MECN     H11      HGA3     0.090000        1.0080           0
     64106 WT22     518      MECN     H12      HGA3     0.090000        1.0080           0
     64107 WT22     518      MECN     H13      HGA3     0.090000        1.0080           0
     64108 WT22     518      MECN     C2       CG1N1    0.360000       12.0110           0
     64109 WT22     518      MECN     N3       NG1T1   -0.460000       14.0070           0
     64110 WT22     519      MECN     C1       CG331   -0.170000       12.0110           0
     64111 WT22     519      MECN     H11      HGA3     0.090000        1.0080           0
     64112 WT22     519      MECN     H12      HGA3     0.090000        1.0080           0
     64113 WT22     519      MECN     H13      HGA3     0.090000        1.0080           0
     64114 WT22     519      MECN     C2       CG1N1    0.360000       12.0110           0
     64115 WT22     519      MECN     N3       NG1T1   -0.460000       14.0070           0
     64116 WT22     520      MECN     C1       CG331   -0.170000       12.0110           0
     64117 WT22     520      MECN     H11      HGA3     0.090000        1.0080           0
     64118 WT22     520      MECN     H12      HGA3     0.090000        1.0080           0
     64119 WT22     520      MECN     H13      HGA3     0.090000        1.0080           0
     64120 WT22     520      MECN     C2       CG1N1    0.360000       12.0110           0
     64121 WT22     520      MECN     N3       NG1T1   -0.460000       14.0070           0
     64122 WT22     525      MECN     C1       CG331   -0.170000       12.0110           0
     64123 WT22     525      MECN     H11      HGA3     0.090000        1.0080           0
     64124 WT22     525      MECN     H12      HGA3     0.090000        1.0080           0
     64125 WT22     525      MECN     H13      HGA3     0.090000        1.0080           0
     64126 WT22     525      MECN     C2       CG1N1    0.360000       12.0110           0
     64127 WT22     525      MECN     N3       NG1T1   -0.460000       14.0070           0
     64128 WT22     526      MECN     C1       CG331   -0.170000       12.0110           0
     64129 WT22     526      MECN     H11      HGA3     0.090000        1.0080           0
     64130 WT22     526      MECN     H12      HGA3     0.090000        1.0080           0
     64131 WT22     526      MECN     H13      HGA3     0.090000        1.0080           0
     64132 WT22     526      MECN     C2       CG1N1    0.360000       12.0110           0
     64133 WT22     526      MECN     N3       NG1T1   -0.460000       14.0070           0
     64134 WT22     527      MECN     C1       CG331   -0.170000       12.0110           0
     64135 WT22     527      MECN     H11      HGA3     0.090000        1.0080           0
     64136 WT22     527      MECN     H12      HGA3     0.090000        1.0080           0
     64137 WT22     527      MECN     H13      HGA3     0.090000        1.0080           0
     64138 WT22     527      MECN     C2       CG1N1    0.360000       12.0110           0
     64139 WT22     527      MECN     N3       NG1T1   -0.460000       14.0070           0
     64140 WT22     528      MECN     C1       CG331   -0.170000       12.0110           0
     64141 WT22     528      MECN     H11      HGA3     0.090000        1.0080           0
     64142 WT22     528      MECN     H12      HGA3     0.090000        1.0080           0
     64143 WT22     528      MECN     H13      HGA3     0.090000        1.0080           0
     64144 WT22     528      MECN     C2       CG1N1    0.360000       12.0110           0
     64145 WT22     528      MECN     N3       NG1T1   -0.460000       14.0070           0
     64146 WT22     531      MECN     C1       CG331   -0.170000       12.0110           0
     64147 WT22     531      MECN     H11      HGA3     0.090000        1.0080           0
     64148 WT22     531      MECN     H12      HGA3     0.090000        1.0080           0
     64149 WT22     531      MECN     H13      HGA3     0.090000        1.0080           0
     64150 WT22     531      MECN     C2       CG1N1    0.360000       12.0110           0
     64151 WT22     531      MECN     N3       NG1T1   -0.460000       14.0070           0
     64152 WT22     535      MECN     C1       CG331   -0.170000       12.0110           0
     64153 WT22     535      MECN     H11      HGA3     0.090000        1.0080           0
     64154 WT22     535      MECN     H12      HGA3     0.090000        1.0080           0
     64155 WT22     535      MECN     H13      HGA3     0.090000        1.0080           0
     64156 WT22     535      MECN     C2       CG1N1    0.360000       12.0110           0
     64157 WT22     535      MECN     N3       NG1T1   -0.460000       14.0070           0
     64158 WT22     544      MECN     C1       CG331   -0.170000       12.0110           0
     64159 WT22     544      MECN     H11      HGA3     0.090000        1.0080           0
     64160 WT22     544      MECN     H12      HGA3     0.090000        1.0080           0
     64161 WT22     544      MECN     H13      HGA3     0.090000        1.0080           0
     64162 WT22     544      MECN     C2       CG1N1    0.360000       12.0110           0
     64163 WT22     544      MECN     N3       NG1T1   -0.460000       14.0070           0
     64164 WT22     553      MECN     C1       CG331   -0.170000       12.0110           0
     64165 WT22     553      MECN     H11      HGA3     0.090000        1.0080           0
     64166 WT22     553      MECN     H12      HGA3     0.090000        1.0080           0
     64167 WT22     553      MECN     H13      HGA3     0.090000        1.0080           0
     64168 WT22     553      MECN     C2       CG1N1    0.360000       12.0110           0
     64169 WT22     553      MECN     N3       NG1T1   -0.460000       14.0070           0
     64170 WT22     554      MECN     C1       CG331   -0.170000       12.0110           0
     64171 WT22     554      MECN     H11      HGA3     0.090000        1.0080           0
     64172 WT22     554      MECN     H12      HGA3     0.090000        1.0080           0
     64173 WT22     554      MECN     H13      HGA3     0.090000        1.0080           0
     64174 WT22     554      MECN     C2       CG1N1    0.360000       12.0110           0
     64175 WT22     554      MECN     N3       NG1T1   -0.460000       14.0070           0
     64176 WT22     555      MECN     C1       CG331   -0.170000       12.0110           0
     64177 WT22     555      MECN     H11      HGA3     0.090000        1.0080           0
     64178 WT22     555      MECN     H12      HGA3     0.090000        1.0080           0
     64179 WT22     555      MECN     H13      HGA3     0.090000        1.0080           0
     64180 WT22     555      MECN     C2       CG1N1    0.360000       12.0110           0
     64181 WT22     555      MECN     N3       NG1T1   -0.460000       14.0070           0
     64182 WT22     556      MECN     C1       CG331   -0.170000       12.0110           0
     64183 WT22     556      MECN     H11      HGA3     0.090000        1.0080           0
     64184 WT22     556      MECN     H12      HGA3     0.090000        1.0080           0
     64185 WT22     556      MECN     H13      HGA3     0.090000        1.0080           0
     64186 WT22     556      MECN     C2       CG1N1    0.360000       12.0110           0
     64187 WT22     556      MECN     N3       NG1T1   -0.460000       14.0070           0
     64188 WT22     559      MECN     C1       CG331   -0.170000       12.0110           0
     64189 WT22     559      MECN     H11      HGA3     0.090000        1.0080           0
     64190 WT22     559      MECN     H12      HGA3     0.090000        1.0080           0
     64191 WT22     559      MECN     H13      HGA3     0.090000        1.0080           0
     64192 WT22     559      MECN     C2       CG1N1    0.360000       12.0110           0
     64193 WT22     559      MECN     N3       NG1T1   -0.460000       14.0070           0
     64194 WT22     562      MECN     C1       CG331   -0.170000       12.0110           0
     64195 WT22     562      MECN     H11      HGA3     0.090000        1.0080           0
     64196 WT22     562      MECN     H12      HGA3     0.090000        1.0080           0
     64197 WT22     562      MECN     H13      HGA3     0.090000        1.0080           0
     64198 WT22     562      MECN     C2       CG1N1    0.360000       12.0110           0
     64199 WT22     562      MECN     N3       NG1T1   -0.460000       14.0070           0
     64200 WT22     578      MECN     C1       CG331   -0.170000       12.0110           0
     64201 WT22     578      MECN     H11      HGA3     0.090000        1.0080           0
     64202 WT22     578      MECN     H12      HGA3     0.090000        1.0080           0
     64203 WT22     578      MECN     H13      HGA3     0.090000        1.0080           0
     64204 WT22     578      MECN     C2       CG1N1    0.360000       12.0110           0
     64205 WT22     578      MECN     N3       NG1T1   -0.460000       14.0070           0
     64206 WT22     584      MECN     C1       CG331   -0.170000       12.0110           0
     64207 WT22     584      MECN     H11      HGA3     0.090000        1.0080           0
     64208 WT22     584      MECN     H12      HGA3     0.090000        1.0080           0
     64209 WT22     584      MECN     H13      HGA3     0.090000        1.0080           0
     64210 WT22     584      MECN     C2       CG1N1    0.360000       12.0110           0
     64211 WT22     584      MECN     N3       NG1T1   -0.460000       14.0070           0
     64212 WT22     585      MECN     C1       CG331   -0.170000       12.0110           0
     64213 WT22     585      MECN     H11      HGA3     0.090000        1.0080           0
     64214 WT22     585      MECN     H12      HGA3     0.090000        1.0080           0
     64215 WT22     585      MECN     H13      HGA3     0.090000        1.0080           0
     64216 WT22     585      MECN     C2       CG1N1    0.360000       12.0110           0
     64217 WT22     585      MECN     N3       NG1T1   -0.460000       14.0070           0
     64218 WT22     587      MECN     C1       CG331   -0.170000       12.0110           0
     64219 WT22     587      MECN     H11      HGA3     0.090000        1.0080           0
     64220 WT22     587      MECN     H12      HGA3     0.090000        1.0080           0
     64221 WT22     587      MECN     H13      HGA3     0.090000        1.0080           0
     64222 WT22     587      MECN     C2       CG1N1    0.360000       12.0110           0
     64223 WT22     587      MECN     N3       NG1T1   -0.460000       14.0070           0
     64224 WT22     588      MECN     C1       CG331   -0.170000       12.0110           0
     64225 WT22     588      MECN     H11      HGA3     0.090000        1.0080           0
     64226 WT22     588      MECN     H12      HGA3     0.090000        1.0080           0
     64227 WT22     588      MECN     H13      HGA3     0.090000        1.0080           0
     64228 WT22     588      MECN     C2       CG1N1    0.360000       12.0110           0
     64229 WT22     588      MECN     N3       NG1T1   -0.460000       14.0070           0
     64230 WT22     589      MECN     C1       CG331   -0.170000       12.0110           0
     64231 WT22     589      MECN     H11      HGA3     0.090000        1.0080           0
     64232 WT22     589      MECN     H12      HGA3     0.090000        1.0080           0
     64233 WT22     589      MECN     H13      HGA3     0.090000        1.0080           0
     64234 WT22     589      MECN     C2       CG1N1    0.360000       12.0110           0
     64235 WT22     589      MECN     N3       NG1T1   -0.460000       14.0070           0
     64236 WT22     590      MECN     C1       CG331   -0.170000       12.0110           0
     64237 WT22     590      MECN     H11      HGA3     0.090000        1.0080           0
     64238 WT22     590      MECN     H12      HGA3     0.090000        1.0080           0
     64239 WT22     590      MECN     H13      HGA3     0.090000        1.0080           0
     64240 WT22     590      MECN     C2       CG1N1    0.360000       12.0110           0
     64241 WT22     590      MECN     N3       NG1T1   -0.460000       14.0070           0
     64242 WT22     595      MECN     C1       CG331   -0.170000       12.0110           0
     64243 WT22     595      MECN     H11      HGA3     0.090000        1.0080           0
     64244 WT22     595      MECN     H12      HGA3     0.090000        1.0080           0
     64245 WT22     595      MECN     H13      HGA3     0.090000        1.0080           0
     64246 WT22     595      MECN     C2       CG1N1    0.360000       12.0110           0
     64247 WT22     595      MECN     N3       NG1T1   -0.460000       14.0070           0
     64248 WT22     599      MECN     C1       CG331   -0.170000       12.0110           0
     64249 WT22     599      MECN     H11      HGA3     0.090000        1.0080           0
     64250 WT22     599      MECN     H12      HGA3     0.090000        1.0080           0
     64251 WT22     599      MECN     H13      HGA3     0.090000        1.0080           0
     64252 WT22     599      MECN     C2       CG1N1    0.360000       12.0110           0
     64253 WT22     599      MECN     N3       NG1T1   -0.460000       14.0070           0
     64254 WT22     601      MECN     C1       CG331   -0.170000       12.0110           0
     64255 WT22     601      MECN     H11      HGA3     0.090000        1.0080           0
     64256 WT22     601      MECN     H12      HGA3     0.090000        1.0080           0
     64257 WT22     601      MECN     H13      HGA3     0.090000        1.0080           0
     64258 WT22     601      MECN     C2       CG1N1    0.360000       12.0110           0
     64259 WT22     601      MECN     N3       NG1T1   -0.460000       14.0070           0
     64260 WT22     602      MECN     C1       CG331   -0.170000       12.0110           0
     64261 WT22     602      MECN     H11      HGA3     0.090000        1.0080           0
     64262 WT22     602      MECN     H12      HGA3     0.090000        1.0080           0
     64263 WT22     602      MECN     H13      HGA3     0.090000        1.0080           0
     64264 WT22     602      MECN     C2       CG1N1    0.360000       12.0110           0
     64265 WT22     602      MECN     N3       NG1T1   -0.460000       14.0070           0
     64266 WT22     608      MECN     C1       CG331   -0.170000       12.0110           0
     64267 WT22     608      MECN     H11      HGA3     0.090000        1.0080           0
     64268 WT22     608      MECN     H12      HGA3     0.090000        1.0080           0
     64269 WT22     608      MECN     H13      HGA3     0.090000        1.0080           0
     64270 WT22     608      MECN     C2       CG1N1    0.360000       12.0110           0
     64271 WT22     608      MECN     N3       NG1T1   -0.460000       14.0070           0
     64272 WT22     613      MECN     C1       CG331   -0.170000       12.0110           0
     64273 WT22     613      MECN     H11      HGA3     0.090000        1.0080           0
     64274 WT22     613      MECN     H12      HGA3     0.090000        1.0080           0
     64275 WT22     613      MECN     H13      HGA3     0.090000        1.0080           0
     64276 WT22     613      MECN     C2       CG1N1    0.360000       12.0110           0
     64277 WT22     613      MECN     N3       NG1T1   -0.460000       14.0070           0
     64278 WT22     615      MECN     C1       CG331   -0.170000       12.0110           0
     64279 WT22     615      MECN     H11      HGA3     0.090000        1.0080           0
     64280 WT22     615      MECN     H12      HGA3     0.090000        1.0080           0
     64281 WT22     615      MECN     H13      HGA3     0.090000        1.0080           0
     64282 WT22     615      MECN     C2       CG1N1    0.360000       12.0110           0
     64283 WT22     615      MECN     N3       NG1T1   -0.460000       14.0070           0
     64284 WT22     618      MECN     C1       CG331   -0.170000       12.0110           0
     64285 WT22     618      MECN     H11      HGA3     0.090000        1.0080           0
     64286 WT22     618      MECN     H12      HGA3     0.090000        1.0080           0
     64287 WT22     618      MECN     H13      HGA3     0.090000        1.0080           0
     64288 WT22     618      MECN     C2       CG1N1    0.360000       12.0110           0
     64289 WT22     618      MECN     N3       NG1T1   -0.460000       14.0070           0
     64290 WT22     619      MECN     C1       CG331   -0.170000       12.0110           0
     64291 WT22     619      MECN     H11      HGA3     0.090000        1.0080           0
     64292 WT22     619      MECN     H12      HGA3     0.090000        1.0080           0
     64293 WT22     619      MECN     H13      HGA3     0.090000        1.0080           0
     64294 WT22     619      MECN     C2       CG1N1    0.360000       12.0110           0
     64295 WT22     619      MECN     N3       NG1T1   -0.460000       14.0070           0
     64296 WT22     620      MECN     C1       CG331   -0.170000       12.0110           0
     64297 WT22     620      MECN     H11      HGA3     0.090000        1.0080           0
     64298 WT22     620      MECN     H12      HGA3     0.090000        1.0080           0
     64299 WT22     620      MECN     H13      HGA3     0.090000        1.0080           0
     64300 WT22     620      MECN     C2       CG1N1    0.360000       12.0110           0
     64301 WT22     620      MECN     N3       NG1T1   -0.460000       14.0070           0
     64302 WT22     621      MECN     C1       CG331   -0.170000       12.0110           0
     64303 WT22     621      MECN     H11      HGA3     0.090000        1.0080           0
     64304 WT22     621      MECN     H12      HGA3     0.090000        1.0080           0
     64305 WT22     621      MECN     H13      HGA3     0.090000        1.0080           0
     64306 WT22     621      MECN     C2       CG1N1    0.360000       12.0110           0
     64307 WT22     621      MECN     N3       NG1T1   -0.460000       14.0070           0
     64308 WT22     622      MECN     C1       CG331   -0.170000       12.0110           0
     64309 WT22     622      MECN     H11      HGA3     0.090000        1.0080           0
     64310 WT22     622      MECN     H12      HGA3     0.090000        1.0080           0
     64311 WT22     622      MECN     H13      HGA3     0.090000        1.0080           0
     64312 WT22     622      MECN     C2       CG1N1    0.360000       12.0110           0
     64313 WT22     622      MECN     N3       NG1T1   -0.460000       14.0070           0
     64314 WT22     623      MECN     C1       CG331   -0.170000       12.0110           0
     64315 WT22     623      MECN     H11      HGA3     0.090000        1.0080           0
     64316 WT22     623      MECN     H12      HGA3     0.090000        1.0080           0
     64317 WT22     623      MECN     H13      HGA3     0.090000        1.0080           0
     64318 WT22     623      MECN     C2       CG1N1    0.360000       12.0110           0
     64319 WT22     623      MECN     N3       NG1T1   -0.460000       14.0070           0
     64320 WT22     627      MECN     C1       CG331   -0.170000       12.0110           0
     64321 WT22     627      MECN     H11      HGA3     0.090000        1.0080           0
     64322 WT22     627      MECN     H12      HGA3     0.090000        1.0080           0
     64323 WT22     627      MECN     H13      HGA3     0.090000        1.0080           0
     64324 WT22     627      MECN     C2       CG1N1    0.360000       12.0110           0
     64325 WT22     627      MECN     N3       NG1T1   -0.460000       14.0070           0
     64326 WT22     633      MECN     C1       CG331   -0.170000       12.0110           0
     64327 WT22     633      MECN     H11      HGA3     0.090000        1.0080           0
     64328 WT22     633      MECN     H12      HGA3     0.090000        1.0080           0
     64329 WT22     633      MECN     H13      HGA3     0.090000        1.0080           0
     64330 WT22     633      MECN     C2       CG1N1    0.360000       12.0110           0
     64331 WT22     633      MECN     N3       NG1T1   -0.460000       14.0070           0
     64332 WT22     634      MECN     C1       CG331   -0.170000       12.0110           0
     64333 WT22     634      MECN     H11      HGA3     0.090000        1.0080           0
     64334 WT22     634      MECN     H12      HGA3     0.090000        1.0080           0
     64335 WT22     634      MECN     H13      HGA3     0.090000        1.0080           0
     64336 WT22     634      MECN     C2       CG1N1    0.360000       12.0110           0
     64337 WT22     634      MECN     N3       NG1T1   -0.460000       14.0070           0
     64338 WT22     636      MECN     C1       CG331   -0.170000       12.0110           0
     64339 WT22     636      MECN     H11      HGA3     0.090000        1.0080           0
     64340 WT22     636      MECN     H12      HGA3     0.090000        1.0080           0
     64341 WT22     636      MECN     H13      HGA3     0.090000        1.0080           0
     64342 WT22     636      MECN     C2       CG1N1    0.360000       12.0110           0
     64343 WT22     636      MECN     N3       NG1T1   -0.460000       14.0070           0
     64344 WT22     637      MECN     C1       CG331   -0.170000       12.0110           0
     64345 WT22     637      MECN     H11      HGA3     0.090000        1.0080           0
     64346 WT22     637      MECN     H12      HGA3     0.090000        1.0080           0
     64347 WT22     637      MECN     H13      HGA3     0.090000        1.0080           0
     64348 WT22     637      MECN     C2       CG1N1    0.360000       12.0110           0
     64349 WT22     637      MECN     N3       NG1T1   -0.460000       14.0070           0
     64350 WT22     639      MECN     C1       CG331   -0.170000       12.0110           0
     64351 WT22     639      MECN     H11      HGA3     0.090000        1.0080           0
     64352 WT22     639      MECN     H12      HGA3     0.090000        1.0080           0
     64353 WT22     639      MECN     H13      HGA3     0.090000        1.0080           0
     64354 WT22     639      MECN     C2       CG1N1    0.360000       12.0110           0
     64355 WT22     639      MECN     N3       NG1T1   -0.460000       14.0070           0
     64356 WT22     640      MECN     C1       CG331   -0.170000       12.0110           0
     64357 WT22     640      MECN     H11      HGA3     0.090000        1.0080           0
     64358 WT22     640      MECN     H12      HGA3     0.090000        1.0080           0
     64359 WT22     640      MECN     H13      HGA3     0.090000        1.0080           0
     64360 WT22     640      MECN     C2       CG1N1    0.360000       12.0110           0
     64361 WT22     640      MECN     N3       NG1T1   -0.460000       14.0070           0
     64362 WT22     645      MECN     C1       CG331   -0.170000       12.0110           0
     64363 WT22     645      MECN     H11      HGA3     0.090000        1.0080           0
     64364 WT22     645      MECN     H12      HGA3     0.090000        1.0080           0
     64365 WT22     645      MECN     H13      HGA3     0.090000        1.0080           0
     64366 WT22     645      MECN     C2       CG1N1    0.360000       12.0110           0
     64367 WT22     645      MECN     N3       NG1T1   -0.460000       14.0070           0
     64368 WT22     646      MECN     C1       CG331   -0.170000       12.0110           0
     64369 WT22     646      MECN     H11      HGA3     0.090000        1.0080           0
     64370 WT22     646      MECN     H12      HGA3     0.090000        1.0080           0
     64371 WT22     646      MECN     H13      HGA3     0.090000        1.0080           0
     64372 WT22     646      MECN     C2       CG1N1    0.360000       12.0110           0
     64373 WT22     646      MECN     N3       NG1T1   -0.460000       14.0070           0
     64374 WT22     648      MECN     C1       CG331   -0.170000       12.0110           0
     64375 WT22     648      MECN     H11      HGA3     0.090000        1.0080           0
     64376 WT22     648      MECN     H12      HGA3     0.090000        1.0080           0
     64377 WT22     648      MECN     H13      HGA3     0.090000        1.0080           0
     64378 WT22     648      MECN     C2       CG1N1    0.360000       12.0110           0
     64379 WT22     648      MECN     N3       NG1T1   -0.460000       14.0070           0
     64380 WT22     649      MECN     C1       CG331   -0.170000       12.0110           0
     64381 WT22     649      MECN     H11      HGA3     0.090000        1.0080           0
     64382 WT22     649      MECN     H12      HGA3     0.090000        1.0080           0
     64383 WT22     649      MECN     H13      HGA3     0.090000        1.0080           0
     64384 WT22     649      MECN     C2       CG1N1    0.360000       12.0110           0
     64385 WT22     649      MECN     N3       NG1T1   -0.460000       14.0070           0
     64386 WT22     650      MECN     C1       CG331   -0.170000       12.0110           0
     64387 WT22     650      MECN     H11      HGA3     0.090000        1.0080           0
     64388 WT22     650      MECN     H12      HGA3     0.090000        1.0080           0
     64389 WT22     650      MECN     H13      HGA3     0.090000        1.0080           0
     64390 WT22     650      MECN     C2       CG1N1    0.360000       12.0110           0
     64391 WT22     650      MECN     N3       NG1T1   -0.460000       14.0070           0
     64392 WT22     657      MECN     C1       CG331   -0.170000       12.0110           0
     64393 WT22     657      MECN     H11      HGA3     0.090000        1.0080           0
     64394 WT22     657      MECN     H12      HGA3     0.090000        1.0080           0
     64395 WT22     657      MECN     H13      HGA3     0.090000        1.0080           0
     64396 WT22     657      MECN     C2       CG1N1    0.360000       12.0110           0
     64397 WT22     657      MECN     N3       NG1T1   -0.460000       14.0070           0
     64398 WT22     665      MECN     C1       CG331   -0.170000       12.0110           0
     64399 WT22     665      MECN     H11      HGA3     0.090000        1.0080           0
     64400 WT22     665      MECN     H12      HGA3     0.090000        1.0080           0
     64401 WT22     665      MECN     H13      HGA3     0.090000        1.0080           0
     64402 WT22     665      MECN     C2       CG1N1    0.360000       12.0110           0
     64403 WT22     665      MECN     N3       NG1T1   -0.460000       14.0070           0
     64404 WT22     666      MECN     C1       CG331   -0.170000       12.0110           0
     64405 WT22     666      MECN     H11      HGA3     0.090000        1.0080           0
     64406 WT22     666      MECN     H12      HGA3     0.090000        1.0080           0
     64407 WT22     666      MECN     H13      HGA3     0.090000        1.0080           0
     64408 WT22     666      MECN     C2       CG1N1    0.360000       12.0110           0
     64409 WT22     666      MECN     N3       NG1T1   -0.460000       14.0070           0
     64410 WT22     667      MECN     C1       CG331   -0.170000       12.0110           0
     64411 WT22     667      MECN     H11      HGA3     0.090000        1.0080           0
     64412 WT22     667      MECN     H12      HGA3     0.090000        1.0080           0
     64413 WT22     667      MECN     H13      HGA3     0.090000        1.0080           0
     64414 WT22     667      MECN     C2       CG1N1    0.360000       12.0110           0
     64415 WT22     667      MECN     N3       NG1T1   -0.460000       14.0070           0
     64416 WT22     673      MECN     C1       CG331   -0.170000       12.0110           0
     64417 WT22     673      MECN     H11      HGA3     0.090000        1.0080           0
     64418 WT22     673      MECN     H12      HGA3     0.090000        1.0080           0
     64419 WT22     673      MECN     H13      HGA3     0.090000        1.0080           0
     64420 WT22     673      MECN     C2       CG1N1    0.360000       12.0110           0
     64421 WT22     673      MECN     N3       NG1T1   -0.460000       14.0070           0
     64422 WT22     678      MECN     C1       CG331   -0.170000       12.0110           0
     64423 WT22     678      MECN     H11      HGA3     0.090000        1.0080           0
     64424 WT22     678      MECN     H12      HGA3     0.090000        1.0080           0
     64425 WT22     678      MECN     H13      HGA3     0.090000        1.0080           0
     64426 WT22     678      MECN     C2       CG1N1    0.360000       12.0110           0
     64427 WT22     678      MECN     N3       NG1T1   -0.460000       14.0070           0
     64428 WT22     682      MECN     C1       CG331   -0.170000       12.0110           0
     64429 WT22     682      MECN     H11      HGA3     0.090000        1.0080           0
     64430 WT22     682      MECN     H12      HGA3     0.090000        1.0080           0
     64431 WT22     682      MECN     H13      HGA3     0.090000        1.0080           0
     64432 WT22     682      MECN     C2       CG1N1    0.360000       12.0110           0
     64433 WT22     682      MECN     N3       NG1T1   -0.460000       14.0070           0
     64434 WT22     691      MECN     C1       CG331   -0.170000       12.0110           0
     64435 WT22     691      MECN     H11      HGA3     0.090000        1.0080           0
     64436 WT22     691      MECN     H12      HGA3     0.090000        1.0080           0
     64437 WT22     691      MECN     H13      HGA3     0.090000        1.0080           0
     64438 WT22     691      MECN     C2       CG1N1    0.360000       12.0110           0
     64439 WT22     691      MECN     N3       NG1T1   -0.460000       14.0070           0
     64440 WT22     694      MECN     C1       CG331   -0.170000       12.0110           0
     64441 WT22     694      MECN     H11      HGA3     0.090000        1.0080           0
     64442 WT22     694      MECN     H12      HGA3     0.090000        1.0080           0
     64443 WT22     694      MECN     H13      HGA3     0.090000        1.0080           0
     64444 WT22     694      MECN     C2       CG1N1    0.360000       12.0110           0
     64445 WT22     694      MECN     N3       NG1T1   -0.460000       14.0070           0
     64446 WT22     696      MECN     C1       CG331   -0.170000       12.0110           0
     64447 WT22     696      MECN     H11      HGA3     0.090000        1.0080           0
     64448 WT22     696      MECN     H12      HGA3     0.090000        1.0080           0
     64449 WT22     696      MECN     H13      HGA3     0.090000        1.0080           0
     64450 WT22     696      MECN     C2       CG1N1    0.360000       12.0110           0
     64451 WT22     696      MECN     N3       NG1T1   -0.460000       14.0070           0
     64452 WT22     698      MECN     C1       CG331   -0.170000       12.0110           0
     64453 WT22     698      MECN     H11      HGA3     0.090000        1.0080           0
     64454 WT22     698      MECN     H12      HGA3     0.090000        1.0080           0
     64455 WT22     698      MECN     H13      HGA3     0.090000        1.0080           0
     64456 WT22     698      MECN     C2       CG1N1    0.360000       12.0110           0
     64457 WT22     698      MECN     N3       NG1T1   -0.460000       14.0070           0
     64458 WT22     699      MECN     C1       CG331   -0.170000       12.0110           0
     64459 WT22     699      MECN     H11      HGA3     0.090000        1.0080           0
     64460 WT22     699      MECN     H12      HGA3     0.090000        1.0080           0
     64461 WT22     699      MECN     H13      HGA3     0.090000        1.0080           0
     64462 WT22     699      MECN     C2       CG1N1    0.360000       12.0110           0
     64463 WT22     699      MECN     N3       NG1T1   -0.460000       14.0070           0
     64464 WT22     704      MECN     C1       CG331   -0.170000       12.0110           0
     64465 WT22     704      MECN     H11      HGA3     0.090000        1.0080           0
     64466 WT22     704      MECN     H12      HGA3     0.090000        1.0080           0
     64467 WT22     704      MECN     H13      HGA3     0.090000        1.0080           0
     64468 WT22     704      MECN     C2       CG1N1    0.360000       12.0110           0
     64469 WT22     704      MECN     N3       NG1T1   -0.460000       14.0070           0
     64470 WT22     709      MECN     C1       CG331   -0.170000       12.0110           0
     64471 WT22     709      MECN     H11      HGA3     0.090000        1.0080           0
     64472 WT22     709      MECN     H12      HGA3     0.090000        1.0080           0
     64473 WT22     709      MECN     H13      HGA3     0.090000        1.0080           0
     64474 WT22     709      MECN     C2       CG1N1    0.360000       12.0110           0
     64475 WT22     709      MECN     N3       NG1T1   -0.460000       14.0070           0
     64476 WT22     711      MECN     C1       CG331   -0.170000       12.0110           0
     64477 WT22     711      MECN     H11      HGA3     0.090000        1.0080           0
     64478 WT22     711      MECN     H12      HGA3     0.090000        1.0080           0
     64479 WT22     711      MECN     H13      HGA3     0.090000        1.0080           0
     64480 WT22     711      MECN     C2       CG1N1    0.360000       12.0110           0
     64481 WT22     711      MECN     N3       NG1T1   -0.460000       14.0070           0
     64482 WT22     714      MECN     C1       CG331   -0.170000       12.0110           0
     64483 WT22     714      MECN     H11      HGA3     0.090000        1.0080           0
     64484 WT22     714      MECN     H12      HGA3     0.090000        1.0080           0
     64485 WT22     714      MECN     H13      HGA3     0.090000        1.0080           0
     64486 WT22     714      MECN     C2       CG1N1    0.360000       12.0110           0
     64487 WT22     714      MECN     N3       NG1T1   -0.460000       14.0070           0
     64488 WT22     717      MECN     C1       CG331   -0.170000       12.0110           0
     64489 WT22     717      MECN     H11      HGA3     0.090000        1.0080           0
     64490 WT22     717      MECN     H12      HGA3     0.090000        1.0080           0
     64491 WT22     717      MECN     H13      HGA3     0.090000        1.0080           0
     64492 WT22     717      MECN     C2       CG1N1    0.360000       12.0110           0
     64493 WT22     717      MECN     N3       NG1T1   -0.460000       14.0070           0
     64494 WT22     721      MECN     C1       CG331   -0.170000       12.0110           0
     64495 WT22     721      MECN     H11      HGA3     0.090000        1.0080           0
     64496 WT22     721      MECN     H12      HGA3     0.090000        1.0080           0
     64497 WT22     721      MECN     H13      HGA3     0.090000        1.0080           0
     64498 WT22     721      MECN     C2       CG1N1    0.360000       12.0110           0
     64499 WT22     721      MECN     N3       NG1T1   -0.460000       14.0070           0
     64500 WT22     723      MECN     C1       CG331   -0.170000       12.0110           0
     64501 WT22     723      MECN     H11      HGA3     0.090000        1.0080           0
     64502 WT22     723      MECN     H12      HGA3     0.090000        1.0080           0
     64503 WT22     723      MECN     H13      HGA3     0.090000        1.0080           0
     64504 WT22     723      MECN     C2       CG1N1    0.360000       12.0110           0
     64505 WT22     723      MECN     N3       NG1T1   -0.460000       14.0070           0
     64506 WT22     731      MECN     C1       CG331   -0.170000       12.0110           0
     64507 WT22     731      MECN     H11      HGA3     0.090000        1.0080           0
     64508 WT22     731      MECN     H12      HGA3     0.090000        1.0080           0
     64509 WT22     731      MECN     H13      HGA3     0.090000        1.0080           0
     64510 WT22     731      MECN     C2       CG1N1    0.360000       12.0110           0
     64511 WT22     731      MECN     N3       NG1T1   -0.460000       14.0070           0
     64512 WT22     735      MECN     C1       CG331   -0.170000       12.0110           0
     64513 WT22     735      MECN     H11      HGA3     0.090000        1.0080           0
     64514 WT22     735      MECN     H12      HGA3     0.090000        1.0080           0
     64515 WT22     735      MECN     H13      HGA3     0.090000        1.0080           0
     64516 WT22     735      MECN     C2       CG1N1    0.360000       12.0110           0
     64517 WT22     735      MECN     N3       NG1T1   -0.460000       14.0070           0
     64518 WT22     743      MECN     C1       CG331   -0.170000       12.0110           0
     64519 WT22     743      MECN     H11      HGA3     0.090000        1.0080           0
     64520 WT22     743      MECN     H12      HGA3     0.090000        1.0080           0
     64521 WT22     743      MECN     H13      HGA3     0.090000        1.0080           0
     64522 WT22     743      MECN     C2       CG1N1    0.360000       12.0110           0
     64523 WT22     743      MECN     N3       NG1T1   -0.460000       14.0070           0
     64524 WT22     748      MECN     C1       CG331   -0.170000       12.0110           0
     64525 WT22     748      MECN     H11      HGA3     0.090000        1.0080           0
     64526 WT22     748      MECN     H12      HGA3     0.090000        1.0080           0
     64527 WT22     748      MECN     H13      HGA3     0.090000        1.0080           0
     64528 WT22     748      MECN     C2       CG1N1    0.360000       12.0110           0
     64529 WT22     748      MECN     N3       NG1T1   -0.460000       14.0070           0
     64530 WT22     751      MECN     C1       CG331   -0.170000       12.0110           0
     64531 WT22     751      MECN     H11      HGA3     0.090000        1.0080           0
     64532 WT22     751      MECN     H12      HGA3     0.090000        1.0080           0
     64533 WT22     751      MECN     H13      HGA3     0.090000        1.0080           0
     64534 WT22     751      MECN     C2       CG1N1    0.360000       12.0110           0
     64535 WT22     751      MECN     N3       NG1T1   -0.460000       14.0070           0
     64536 WT22     760      MECN     C1       CG331   -0.170000       12.0110           0
     64537 WT22     760      MECN     H11      HGA3     0.090000        1.0080           0
     64538 WT22     760      MECN     H12      HGA3     0.090000        1.0080           0
     64539 WT22     760      MECN     H13      HGA3     0.090000        1.0080           0
     64540 WT22     760      MECN     C2       CG1N1    0.360000       12.0110           0
     64541 WT22     760      MECN     N3       NG1T1   -0.460000       14.0070           0
     64542 WT22     761      MECN     C1       CG331   -0.170000       12.0110           0
     64543 WT22     761      MECN     H11      HGA3     0.090000        1.0080           0
     64544 WT22     761      MECN     H12      HGA3     0.090000        1.0080           0
     64545 WT22     761      MECN     H13      HGA3     0.090000        1.0080           0
     64546 WT22     761      MECN     C2       CG1N1    0.360000       12.0110           0
     64547 WT22     761      MECN     N3       NG1T1   -0.460000       14.0070           0
     64548 WT22     763      MECN     C1       CG331   -0.170000       12.0110           0
     64549 WT22     763      MECN     H11      HGA3     0.090000        1.0080           0
     64550 WT22     763      MECN     H12      HGA3     0.090000        1.0080           0
     64551 WT22     763      MECN     H13      HGA3     0.090000        1.0080           0
     64552 WT22     763      MECN     C2       CG1N1    0.360000       12.0110           0
     64553 WT22     763      MECN     N3       NG1T1   -0.460000       14.0070           0
     64554 WT22     765      MECN     C1       CG331   -0.170000       12.0110           0
     64555 WT22     765      MECN     H11      HGA3     0.090000        1.0080           0
     64556 WT22     765      MECN     H12      HGA3     0.090000        1.0080           0
     64557 WT22     765      MECN     H13      HGA3     0.090000        1.0080           0
     64558 WT22     765      MECN     C2       CG1N1    0.360000       12.0110           0
     64559 WT22     765      MECN     N3       NG1T1   -0.460000       14.0070           0
     64560 WT22     766      MECN     C1       CG331   -0.170000       12.0110           0
     64561 WT22     766      MECN     H11      HGA3     0.090000        1.0080           0
     64562 WT22     766      MECN     H12      HGA3     0.090000        1.0080           0
     64563 WT22     766      MECN     H13      HGA3     0.090000        1.0080           0
     64564 WT22     766      MECN     C2       CG1N1    0.360000       12.0110           0
     64565 WT22     766      MECN     N3       NG1T1   -0.460000       14.0070           0
     64566 WT22     767      MECN     C1       CG331   -0.170000       12.0110           0
     64567 WT22     767      MECN     H11      HGA3     0.090000        1.0080           0
     64568 WT22     767      MECN     H12      HGA3     0.090000        1.0080           0
     64569 WT22     767      MECN     H13      HGA3     0.090000        1.0080           0
     64570 WT22     767      MECN     C2       CG1N1    0.360000       12.0110           0
     64571 WT22     767      MECN     N3       NG1T1   -0.460000       14.0070           0
     64572 WT22     768      MECN     C1       CG331   -0.170000       12.0110           0
     64573 WT22     768      MECN     H11      HGA3     0.090000        1.0080           0
     64574 WT22     768      MECN     H12      HGA3     0.090000        1.0080           0
     64575 WT22     768      MECN     H13      HGA3     0.090000        1.0080           0
     64576 WT22     768      MECN     C2       CG1N1    0.360000       12.0110           0
     64577 WT22     768      MECN     N3       NG1T1   -0.460000       14.0070           0
     64578 WT22     769      MECN     C1       CG331   -0.170000       12.0110           0
     64579 WT22     769      MECN     H11      HGA3     0.090000        1.0080           0
     64580 WT22     769      MECN     H12      HGA3     0.090000        1.0080           0
     64581 WT22     769      MECN     H13      HGA3     0.090000        1.0080           0
     64582 WT22     769      MECN     C2       CG1N1    0.360000       12.0110           0
     64583 WT22     769      MECN     N3       NG1T1   -0.460000       14.0070           0
     64584 WT22     772      MECN     C1       CG331   -0.170000       12.0110           0
     64585 WT22     772      MECN     H11      HGA3     0.090000        1.0080           0
     64586 WT22     772      MECN     H12      HGA3     0.090000        1.0080           0
     64587 WT22     772      MECN     H13      HGA3     0.090000        1.0080           0
     64588 WT22     772      MECN     C2       CG1N1    0.360000       12.0110           0
     64589 WT22     772      MECN     N3       NG1T1   -0.460000       14.0070           0
     64590 WT22     773      MECN     C1       CG331   -0.170000       12.0110           0
     64591 WT22     773      MECN     H11      HGA3     0.090000        1.0080           0
     64592 WT22     773      MECN     H12      HGA3     0.090000        1.0080           0
     64593 WT22     773      MECN     H13      HGA3     0.090000        1.0080           0
     64594 WT22     773      MECN     C2       CG1N1    0.360000       12.0110           0
     64595 WT22     773      MECN     N3       NG1T1   -0.460000       14.0070           0
     64596 WT22     774      MECN     C1       CG331   -0.170000       12.0110           0
     64597 WT22     774      MECN     H11      HGA3     0.090000        1.0080           0
     64598 WT22     774      MECN     H12      HGA3     0.090000        1.0080           0
     64599 WT22     774      MECN     H13      HGA3     0.090000        1.0080           0
     64600 WT22     774      MECN     C2       CG1N1    0.360000       12.0110           0
     64601 WT22     774      MECN     N3       NG1T1   -0.460000       14.0070           0
     64602 WT22     775      MECN     C1       CG331   -0.170000       12.0110           0
     64603 WT22     775      MECN     H11      HGA3     0.090000        1.0080           0
     64604 WT22     775      MECN     H12      HGA3     0.090000        1.0080           0
     64605 WT22     775      MECN     H13      HGA3     0.090000        1.0080           0
     64606 WT22     775      MECN     C2       CG1N1    0.360000       12.0110           0
     64607 WT22     775      MECN     N3       NG1T1   -0.460000       14.0070           0
     64608 WT22     776      MECN     C1       CG331   -0.170000       12.0110           0
     64609 WT22     776      MECN     H11      HGA3     0.090000        1.0080           0
     64610 WT22     776      MECN     H12      HGA3     0.090000        1.0080           0
     64611 WT22     776      MECN     H13      HGA3     0.090000        1.0080           0
     64612 WT22     776      MECN     C2       CG1N1    0.360000       12.0110           0
     64613 WT22     776      MECN     N3       NG1T1   -0.460000       14.0070           0
     64614 WT22     778      MECN     C1       CG331   -0.170000       12.0110           0
     64615 WT22     778      MECN     H11      HGA3     0.090000        1.0080           0
     64616 WT22     778      MECN     H12      HGA3     0.090000        1.0080           0
     64617 WT22     778      MECN     H13      HGA3     0.090000        1.0080           0
     64618 WT22     778      MECN     C2       CG1N1    0.360000       12.0110           0
     64619 WT22     778      MECN     N3       NG1T1   -0.460000       14.0070           0
     64620 WT22     782      MECN     C1       CG331   -0.170000       12.0110           0
     64621 WT22     782      MECN     H11      HGA3     0.090000        1.0080           0
     64622 WT22     782      MECN     H12      HGA3     0.090000        1.0080           0
     64623 WT22     782      MECN     H13      HGA3     0.090000        1.0080           0
     64624 WT22     782      MECN     C2       CG1N1    0.360000       12.0110           0
     64625 WT22     782      MECN     N3       NG1T1   -0.460000       14.0070           0
     64626 WT22     783      MECN     C1       CG331   -0.170000       12.0110           0
     64627 WT22     783      MECN     H11      HGA3     0.090000        1.0080           0
     64628 WT22     783      MECN     H12      HGA3     0.090000        1.0080           0
     64629 WT22     783      MECN     H13      HGA3     0.090000        1.0080           0
     64630 WT22     783      MECN     C2       CG1N1    0.360000       12.0110           0
     64631 WT22     783      MECN     N3       NG1T1   -0.460000       14.0070           0
     64632 WT22     786      MECN     C1       CG331   -0.170000       12.0110           0
     64633 WT22     786      MECN     H11      HGA3     0.090000        1.0080           0
     64634 WT22     786      MECN     H12      HGA3     0.090000        1.0080           0
     64635 WT22     786      MECN     H13      HGA3     0.090000        1.0080           0
     64636 WT22     786      MECN     C2       CG1N1    0.360000       12.0110           0
     64637 WT22     786      MECN     N3       NG1T1   -0.460000       14.0070           0
     64638 WT22     788      MECN     C1       CG331   -0.170000       12.0110           0
     64639 WT22     788      MECN     H11      HGA3     0.090000        1.0080           0
     64640 WT22     788      MECN     H12      HGA3     0.090000        1.0080           0
     64641 WT22     788      MECN     H13      HGA3     0.090000        1.0080           0
     64642 WT22     788      MECN     C2       CG1N1    0.360000       12.0110           0
     64643 WT22     788      MECN     N3       NG1T1   -0.460000       14.0070           0
     64644 WT22     797      MECN     C1       CG331   -0.170000       12.0110           0
     64645 WT22     797      MECN     H11      HGA3     0.090000        1.0080           0
     64646 WT22     797      MECN     H12      HGA3     0.090000        1.0080           0
     64647 WT22     797      MECN     H13      HGA3     0.090000        1.0080           0
     64648 WT22     797      MECN     C2       CG1N1    0.360000       12.0110           0
     64649 WT22     797      MECN     N3       NG1T1   -0.460000       14.0070           0
     64650 WT22     799      MECN     C1       CG331   -0.170000       12.0110           0
     64651 WT22     799      MECN     H11      HGA3     0.090000        1.0080           0
     64652 WT22     799      MECN     H12      HGA3     0.090000        1.0080           0
     64653 WT22     799      MECN     H13      HGA3     0.090000        1.0080           0
     64654 WT22     799      MECN     C2       CG1N1    0.360000       12.0110           0
     64655 WT22     799      MECN     N3       NG1T1   -0.460000       14.0070           0
     64656 WT22     806      MECN     C1       CG331   -0.170000       12.0110           0
     64657 WT22     806      MECN     H11      HGA3     0.090000        1.0080           0
     64658 WT22     806      MECN     H12      HGA3     0.090000        1.0080           0
     64659 WT22     806      MECN     H13      HGA3     0.090000        1.0080           0
     64660 WT22     806      MECN     C2       CG1N1    0.360000       12.0110           0
     64661 WT22     806      MECN     N3       NG1T1   -0.460000       14.0070           0
     64662 WT22     809      MECN     C1       CG331   -0.170000       12.0110           0
     64663 WT22     809      MECN     H11      HGA3     0.090000        1.0080           0
     64664 WT22     809      MECN     H12      HGA3     0.090000        1.0080           0
     64665 WT22     809      MECN     H13      HGA3     0.090000        1.0080           0
     64666 WT22     809      MECN     C2       CG1N1    0.360000       12.0110           0
     64667 WT22     809      MECN     N3       NG1T1   -0.460000       14.0070           0
     64668 WT22     815      MECN     C1       CG331   -0.170000       12.0110           0
     64669 WT22     815      MECN     H11      HGA3     0.090000        1.0080           0
     64670 WT22     815      MECN     H12      HGA3     0.090000        1.0080           0
     64671 WT22     815      MECN     H13      HGA3     0.090000        1.0080           0
     64672 WT22     815      MECN     C2       CG1N1    0.360000       12.0110           0
     64673 WT22     815      MECN     N3       NG1T1   -0.460000       14.0070           0
     64674 WT22     817      MECN     C1       CG331   -0.170000       12.0110           0
     64675 WT22     817      MECN     H11      HGA3     0.090000        1.0080           0
     64676 WT22     817      MECN     H12      HGA3     0.090000        1.0080           0
     64677 WT22     817      MECN     H13      HGA3     0.090000        1.0080           0
     64678 WT22     817      MECN     C2       CG1N1    0.360000       12.0110           0
     64679 WT22     817      MECN     N3       NG1T1   -0.460000       14.0070           0
     64680 WT22     821      MECN     C1       CG331   -0.170000       12.0110           0
     64681 WT22     821      MECN     H11      HGA3     0.090000        1.0080           0
     64682 WT22     821      MECN     H12      HGA3     0.090000        1.0080           0
     64683 WT22     821      MECN     H13      HGA3     0.090000        1.0080           0
     64684 WT22     821      MECN     C2       CG1N1    0.360000       12.0110           0
     64685 WT22     821      MECN     N3       NG1T1   -0.460000       14.0070           0
     64686 WT22     822      MECN     C1       CG331   -0.170000       12.0110           0
     64687 WT22     822      MECN     H11      HGA3     0.090000        1.0080           0
     64688 WT22     822      MECN     H12      HGA3     0.090000        1.0080           0
     64689 WT22     822      MECN     H13      HGA3     0.090000        1.0080           0
     64690 WT22     822      MECN     C2       CG1N1    0.360000       12.0110           0
     64691 WT22     822      MECN     N3       NG1T1   -0.460000       14.0070           0
     64692 WT22     823      MECN     C1       CG331   -0.170000       12.0110           0
     64693 WT22     823      MECN     H11      HGA3     0.090000        1.0080           0
     64694 WT22     823      MECN     H12      HGA3     0.090000        1.0080           0
     64695 WT22     823      MECN     H13      HGA3     0.090000        1.0080           0
     64696 WT22     823      MECN     C2       CG1N1    0.360000       12.0110           0
     64697 WT22     823      MECN     N3       NG1T1   -0.460000       14.0070           0
     64698 WT22     827      MECN     C1       CG331   -0.170000       12.0110           0
     64699 WT22     827      MECN     H11      HGA3     0.090000        1.0080           0
     64700 WT22     827      MECN     H12      HGA3     0.090000        1.0080           0
     64701 WT22     827      MECN     H13      HGA3     0.090000        1.0080           0
     64702 WT22     827      MECN     C2       CG1N1    0.360000       12.0110           0
     64703 WT22     827      MECN     N3       NG1T1   -0.460000       14.0070           0
     64704 WT22     828      MECN     C1       CG331   -0.170000       12.0110           0
     64705 WT22     828      MECN     H11      HGA3     0.090000        1.0080           0
     64706 WT22     828      MECN     H12      HGA3     0.090000        1.0080           0
     64707 WT22     828      MECN     H13      HGA3     0.090000        1.0080           0
     64708 WT22     828      MECN     C2       CG1N1    0.360000       12.0110           0
     64709 WT22     828      MECN     N3       NG1T1   -0.460000       14.0070           0
     64710 WT22     832      MECN     C1       CG331   -0.170000       12.0110           0
     64711 WT22     832      MECN     H11      HGA3     0.090000        1.0080           0
     64712 WT22     832      MECN     H12      HGA3     0.090000        1.0080           0
     64713 WT22     832      MECN     H13      HGA3     0.090000        1.0080           0
     64714 WT22     832      MECN     C2       CG1N1    0.360000       12.0110           0
     64715 WT22     832      MECN     N3       NG1T1   -0.460000       14.0070           0
     64716 WT22     833      MECN     C1       CG331   -0.170000       12.0110           0
     64717 WT22     833      MECN     H11      HGA3     0.090000        1.0080           0
     64718 WT22     833      MECN     H12      HGA3     0.090000        1.0080           0
     64719 WT22     833      MECN     H13      HGA3     0.090000        1.0080           0
     64720 WT22     833      MECN     C2       CG1N1    0.360000       12.0110           0
     64721 WT22     833      MECN     N3       NG1T1   -0.460000       14.0070           0
     64722 WT22     834      MECN     C1       CG331   -0.170000       12.0110           0
     64723 WT22     834      MECN     H11      HGA3     0.090000        1.0080           0
     64724 WT22     834      MECN     H12      HGA3     0.090000        1.0080           0
     64725 WT22     834      MECN     H13      HGA3     0.090000        1.0080           0
     64726 WT22     834      MECN     C2       CG1N1    0.360000       12.0110           0
     64727 WT22     834      MECN     N3       NG1T1   -0.460000       14.0070           0
     64728 WT22     835      MECN     C1       CG331   -0.170000       12.0110           0
     64729 WT22     835      MECN     H11      HGA3     0.090000        1.0080           0
     64730 WT22     835      MECN     H12      HGA3     0.090000        1.0080           0
     64731 WT22     835      MECN     H13      HGA3     0.090000        1.0080           0
     64732 WT22     835      MECN     C2       CG1N1    0.360000       12.0110           0
     64733 WT22     835      MECN     N3       NG1T1   -0.460000       14.0070           0
     64734 WT22     840      MECN     C1       CG331   -0.170000       12.0110           0
     64735 WT22     840      MECN     H11      HGA3     0.090000        1.0080           0
     64736 WT22     840      MECN     H12      HGA3     0.090000        1.0080           0
     64737 WT22     840      MECN     H13      HGA3     0.090000        1.0080           0
     64738 WT22     840      MECN     C2       CG1N1    0.360000       12.0110           0
     64739 WT22     840      MECN     N3       NG1T1   -0.460000       14.0070           0
     64740 WT22     848      MECN     C1       CG331   -0.170000       12.0110           0
     64741 WT22     848      MECN     H11      HGA3     0.090000        1.0080           0
     64742 WT22     848      MECN     H12      HGA3     0.090000        1.0080           0
     64743 WT22     848      MECN     H13      HGA3     0.090000        1.0080           0
     64744 WT22     848      MECN     C2       CG1N1    0.360000       12.0110           0
     64745 WT22     848      MECN     N3       NG1T1   -0.460000       14.0070           0
     64746 WT22     849      MECN     C1       CG331   -0.170000       12.0110           0
     64747 WT22     849      MECN     H11      HGA3     0.090000        1.0080           0
     64748 WT22     849      MECN     H12      HGA3     0.090000        1.0080           0
     64749 WT22     849      MECN     H13      HGA3     0.090000        1.0080           0
     64750 WT22     849      MECN     C2       CG1N1    0.360000       12.0110           0
     64751 WT22     849      MECN     N3       NG1T1   -0.460000       14.0070           0
     64752 WT22     859      MECN     C1       CG331   -0.170000       12.0110           0
     64753 WT22     859      MECN     H11      HGA3     0.090000        1.0080           0
     64754 WT22     859      MECN     H12      HGA3     0.090000        1.0080           0
     64755 WT22     859      MECN     H13      HGA3     0.090000        1.0080           0
     64756 WT22     859      MECN     C2       CG1N1    0.360000       12.0110           0
     64757 WT22     859      MECN     N3       NG1T1   -0.460000       14.0070           0
     64758 WT22     860      MECN     C1       CG331   -0.170000       12.0110           0
     64759 WT22     860      MECN     H11      HGA3     0.090000        1.0080           0
     64760 WT22     860      MECN     H12      HGA3     0.090000        1.0080           0
     64761 WT22     860      MECN     H13      HGA3     0.090000        1.0080           0
     64762 WT22     860      MECN     C2       CG1N1    0.360000       12.0110           0
     64763 WT22     860      MECN     N3       NG1T1   -0.460000       14.0070           0
     64764 WT22     863      MECN     C1       CG331   -0.170000       12.0110           0
     64765 WT22     863      MECN     H11      HGA3     0.090000        1.0080           0
     64766 WT22     863      MECN     H12      HGA3     0.090000        1.0080           0
     64767 WT22     863      MECN     H13      HGA3     0.090000        1.0080           0
     64768 WT22     863      MECN     C2       CG1N1    0.360000       12.0110           0
     64769 WT22     863      MECN     N3       NG1T1   -0.460000       14.0070           0
     64770 WT22     864      MECN     C1       CG331   -0.170000       12.0110           0
     64771 WT22     864      MECN     H11      HGA3     0.090000        1.0080           0
     64772 WT22     864      MECN     H12      HGA3     0.090000        1.0080           0
     64773 WT22     864      MECN     H13      HGA3     0.090000        1.0080           0
     64774 WT22     864      MECN     C2       CG1N1    0.360000       12.0110           0
     64775 WT22     864      MECN     N3       NG1T1   -0.460000       14.0070           0
     64776 WT22     873      MECN     C1       CG331   -0.170000       12.0110           0
     64777 WT22     873      MECN     H11      HGA3     0.090000        1.0080           0
     64778 WT22     873      MECN     H12      HGA3     0.090000        1.0080           0
     64779 WT22     873      MECN     H13      HGA3     0.090000        1.0080           0
     64780 WT22     873      MECN     C2       CG1N1    0.360000       12.0110           0
     64781 WT22     873      MECN     N3       NG1T1   -0.460000       14.0070           0
     64782 WT22     875      MECN     C1       CG331   -0.170000       12.0110           0
     64783 WT22     875      MECN     H11      HGA3     0.090000        1.0080           0
     64784 WT22     875      MECN     H12      HGA3     0.090000        1.0080           0
     64785 WT22     875      MECN     H13      HGA3     0.090000        1.0080           0
     64786 WT22     875      MECN     C2       CG1N1    0.360000       12.0110           0
     64787 WT22     875      MECN     N3       NG1T1   -0.460000       14.0070           0
     64788 WT22     876      MECN     C1       CG331   -0.170000       12.0110           0
     64789 WT22     876      MECN     H11      HGA3     0.090000        1.0080           0
     64790 WT22     876      MECN     H12      HGA3     0.090000        1.0080           0
     64791 WT22     876      MECN     H13      HGA3     0.090000        1.0080           0
     64792 WT22     876      MECN     C2       CG1N1    0.360000       12.0110           0
     64793 WT22     876      MECN     N3       NG1T1   -0.460000       14.0070           0
     64794 WT22     878      MECN     C1       CG331   -0.170000       12.0110           0
     64795 WT22     878      MECN     H11      HGA3     0.090000        1.0080           0
     64796 WT22     878      MECN     H12      HGA3     0.090000        1.0080           0
     64797 WT22     878      MECN     H13      HGA3     0.090000        1.0080           0
     64798 WT22     878      MECN     C2       CG1N1    0.360000       12.0110           0
     64799 WT22     878      MECN     N3       NG1T1   -0.460000       14.0070           0
     64800 WT22     886      MECN     C1       CG331   -0.170000       12.0110           0
     64801 WT22     886      MECN     H11      HGA3     0.090000        1.0080           0
     64802 WT22     886      MECN     H12      HGA3     0.090000        1.0080           0
     64803 WT22     886      MECN     H13      HGA3     0.090000        1.0080           0
     64804 WT22     886      MECN     C2       CG1N1    0.360000       12.0110           0
     64805 WT22     886      MECN     N3       NG1T1   -0.460000       14.0070           0
     64806 WT22     888      MECN     C1       CG331   -0.170000       12.0110           0
     64807 WT22     888      MECN     H11      HGA3     0.090000        1.0080           0
     64808 WT22     888      MECN     H12      HGA3     0.090000        1.0080           0
     64809 WT22     888      MECN     H13      HGA3     0.090000        1.0080           0
     64810 WT22     888      MECN     C2       CG1N1    0.360000       12.0110           0
     64811 WT22     888      MECN     N3       NG1T1   -0.460000       14.0070           0
     64812 WT22     890      MECN     C1       CG331   -0.170000       12.0110           0
     64813 WT22     890      MECN     H11      HGA3     0.090000        1.0080           0
     64814 WT22     890      MECN     H12      HGA3     0.090000        1.0080           0
     64815 WT22     890      MECN     H13      HGA3     0.090000        1.0080           0
     64816 WT22     890      MECN     C2       CG1N1    0.360000       12.0110           0
     64817 WT22     890      MECN     N3       NG1T1   -0.460000       14.0070           0
     64818 WT22     891      MECN     C1       CG331   -0.170000       12.0110           0
     64819 WT22     891      MECN     H11      HGA3     0.090000        1.0080           0
     64820 WT22     891      MECN     H12      HGA3     0.090000        1.0080           0
     64821 WT22     891      MECN     H13      HGA3     0.090000        1.0080           0
     64822 WT22     891      MECN     C2       CG1N1    0.360000       12.0110           0
     64823 WT22     891      MECN     N3       NG1T1   -0.460000       14.0070           0
     64824 WT22     892      MECN     C1       CG331   -0.170000       12.0110           0
     64825 WT22     892      MECN     H11      HGA3     0.090000        1.0080           0
     64826 WT22     892      MECN     H12      HGA3     0.090000        1.0080           0
     64827 WT22     892      MECN     H13      HGA3     0.090000        1.0080           0
     64828 WT22     892      MECN     C2       CG1N1    0.360000       12.0110           0
     64829 WT22     892      MECN     N3       NG1T1   -0.460000       14.0070           0
     64830 WT22     902      MECN     C1       CG331   -0.170000       12.0110           0
     64831 WT22     902      MECN     H11      HGA3     0.090000        1.0080           0
     64832 WT22     902      MECN     H12      HGA3     0.090000        1.0080           0
     64833 WT22     902      MECN     H13      HGA3     0.090000        1.0080           0
     64834 WT22     902      MECN     C2       CG1N1    0.360000       12.0110           0
     64835 WT22     902      MECN     N3       NG1T1   -0.460000       14.0070           0
     64836 WT22     904      MECN     C1       CG331   -0.170000       12.0110           0
     64837 WT22     904      MECN     H11      HGA3     0.090000        1.0080           0
     64838 WT22     904      MECN     H12      HGA3     0.090000        1.0080           0
     64839 WT22     904      MECN     H13      HGA3     0.090000        1.0080           0
     64840 WT22     904      MECN     C2       CG1N1    0.360000       12.0110           0
     64841 WT22     904      MECN     N3       NG1T1   -0.460000       14.0070           0
     64842 WT22     905      MECN     C1       CG331   -0.170000       12.0110           0
     64843 WT22     905      MECN     H11      HGA3     0.090000        1.0080           0
     64844 WT22     905      MECN     H12      HGA3     0.090000        1.0080           0
     64845 WT22     905      MECN     H13      HGA3     0.090000        1.0080           0
     64846 WT22     905      MECN     C2       CG1N1    0.360000       12.0110           0
     64847 WT22     905      MECN     N3       NG1T1   -0.460000       14.0070           0
     64848 WT22     909      MECN     C1       CG331   -0.170000       12.0110           0
     64849 WT22     909      MECN     H11      HGA3     0.090000        1.0080           0
     64850 WT22     909      MECN     H12      HGA3     0.090000        1.0080           0
     64851 WT22     909      MECN     H13      HGA3     0.090000        1.0080           0
     64852 WT22     909      MECN     C2       CG1N1    0.360000       12.0110           0
     64853 WT22     909      MECN     N3       NG1T1   -0.460000       14.0070           0
     64854 WT22     910      MECN     C1       CG331   -0.170000       12.0110           0
     64855 WT22     910      MECN     H11      HGA3     0.090000        1.0080           0
     64856 WT22     910      MECN     H12      HGA3     0.090000        1.0080           0
     64857 WT22     910      MECN     H13      HGA3     0.090000        1.0080           0
     64858 WT22     910      MECN     C2       CG1N1    0.360000       12.0110           0
     64859 WT22     910      MECN     N3       NG1T1   -0.460000       14.0070           0
     64860 WT22     911      MECN     C1       CG331   -0.170000       12.0110           0
     64861 WT22     911      MECN     H11      HGA3     0.090000        1.0080           0
     64862 WT22     911      MECN     H12      HGA3     0.090000        1.0080           0
     64863 WT22     911      MECN     H13      HGA3     0.090000        1.0080           0
     64864 WT22     911      MECN     C2       CG1N1    0.360000       12.0110           0
     64865 WT22     911      MECN     N3       NG1T1   -0.460000       14.0070           0
     64866 WT22     913      MECN     C1       CG331   -0.170000       12.0110           0
     64867 WT22     913      MECN     H11      HGA3     0.090000        1.0080           0
     64868 WT22     913      MECN     H12      HGA3     0.090000        1.0080           0
     64869 WT22     913      MECN     H13      HGA3     0.090000        1.0080           0
     64870 WT22     913      MECN     C2       CG1N1    0.360000       12.0110           0
     64871 WT22     913      MECN     N3       NG1T1   -0.460000       14.0070           0
     64872 WT22     914      MECN     C1       CG331   -0.170000       12.0110           0
     64873 WT22     914      MECN     H11      HGA3     0.090000        1.0080           0
     64874 WT22     914      MECN     H12      HGA3     0.090000        1.0080           0
     64875 WT22     914      MECN     H13      HGA3     0.090000        1.0080           0
     64876 WT22     914      MECN     C2       CG1N1    0.360000       12.0110           0
     64877 WT22     914      MECN     N3       NG1T1   -0.460000       14.0070           0
     64878 WT22     915      MECN     C1       CG331   -0.170000       12.0110           0
     64879 WT22     915      MECN     H11      HGA3     0.090000        1.0080           0
     64880 WT22     915      MECN     H12      HGA3     0.090000        1.0080           0
     64881 WT22     915      MECN     H13      HGA3     0.090000        1.0080           0
     64882 WT22     915      MECN     C2       CG1N1    0.360000       12.0110           0
     64883 WT22     915      MECN     N3       NG1T1   -0.460000       14.0070           0
     64884 WT22     917      MECN     C1       CG331   -0.170000       12.0110           0
     64885 WT22     917      MECN     H11      HGA3     0.090000        1.0080           0
     64886 WT22     917      MECN     H12      HGA3     0.090000        1.0080           0
     64887 WT22     917      MECN     H13      HGA3     0.090000        1.0080           0
     64888 WT22     917      MECN     C2       CG1N1    0.360000       12.0110           0
     64889 WT22     917      MECN     N3       NG1T1   -0.460000       14.0070           0
     64890 WT22     918      MECN     C1       CG331   -0.170000       12.0110           0
     64891 WT22     918      MECN     H11      HGA3     0.090000        1.0080           0
     64892 WT22     918      MECN     H12      HGA3     0.090000        1.0080           0
     64893 WT22     918      MECN     H13      HGA3     0.090000        1.0080           0
     64894 WT22     918      MECN     C2       CG1N1    0.360000       12.0110           0
     64895 WT22     918      MECN     N3       NG1T1   -0.460000       14.0070           0
     64896 WT22     920      MECN     C1       CG331   -0.170000       12.0110           0
     64897 WT22     920      MECN     H11      HGA3     0.090000        1.0080           0
     64898 WT22     920      MECN     H12      HGA3     0.090000        1.0080           0
     64899 WT22     920      MECN     H13      HGA3     0.090000        1.0080           0
     64900 WT22     920      MECN     C2       CG1N1    0.360000       12.0110           0
     64901 WT22     920      MECN     N3       NG1T1   -0.460000       14.0070           0
     64902 WT22     923      MECN     C1       CG331   -0.170000       12.0110           0
     64903 WT22     923      MECN     H11      HGA3     0.090000        1.0080           0
     64904 WT22     923      MECN     H12      HGA3     0.090000        1.0080           0
     64905 WT22     923      MECN     H13      HGA3     0.090000        1.0080           0
     64906 WT22     923      MECN     C2       CG1N1    0.360000       12.0110           0
     64907 WT22     923      MECN     N3       NG1T1   -0.460000       14.0070           0
     64908 WT22     924      MECN     C1       CG331   -0.170000       12.0110           0
     64909 WT22     924      MECN     H11      HGA3     0.090000        1.0080           0
     64910 WT22     924      MECN     H12      HGA3     0.090000        1.0080           0
     64911 WT22     924      MECN     H13      HGA3     0.090000        1.0080           0
     64912 WT22     924      MECN     C2       CG1N1    0.360000       12.0110           0
     64913 WT22     924      MECN     N3       NG1T1   -0.460000       14.0070           0
     64914 WT22     926      MECN     C1       CG331   -0.170000       12.0110           0
     64915 WT22     926      MECN     H11      HGA3     0.090000        1.0080           0
     64916 WT22     926      MECN     H12      HGA3     0.090000        1.0080           0
     64917 WT22     926      MECN     H13      HGA3     0.090000        1.0080           0
     64918 WT22     926      MECN     C2       CG1N1    0.360000       12.0110           0
     64919 WT22     926      MECN     N3       NG1T1   -0.460000       14.0070           0
     64920 WT22     928      MECN     C1       CG331   -0.170000       12.0110           0
     64921 WT22     928      MECN     H11      HGA3     0.090000        1.0080           0
     64922 WT22     928      MECN     H12      HGA3     0.090000        1.0080           0
     64923 WT22     928      MECN     H13      HGA3     0.090000        1.0080           0
     64924 WT22     928      MECN     C2       CG1N1    0.360000       12.0110           0
     64925 WT22     928      MECN     N3       NG1T1   -0.460000       14.0070           0
     64926 WT22     933      MECN     C1       CG331   -0.170000       12.0110           0
     64927 WT22     933      MECN     H11      HGA3     0.090000        1.0080           0
     64928 WT22     933      MECN     H12      HGA3     0.090000        1.0080           0
     64929 WT22     933      MECN     H13      HGA3     0.090000        1.0080           0
     64930 WT22     933      MECN     C2       CG1N1    0.360000       12.0110           0
     64931 WT22     933      MECN     N3       NG1T1   -0.460000       14.0070           0
     64932 WT22     934      MECN     C1       CG331   -0.170000       12.0110           0
     64933 WT22     934      MECN     H11      HGA3     0.090000        1.0080           0
     64934 WT22     934      MECN     H12      HGA3     0.090000        1.0080           0
     64935 WT22     934      MECN     H13      HGA3     0.090000        1.0080           0
     64936 WT22     934      MECN     C2       CG1N1    0.360000       12.0110           0
     64937 WT22     934      MECN     N3       NG1T1   -0.460000       14.0070           0
     64938 WT22     939      MECN     C1       CG331   -0.170000       12.0110           0
     64939 WT22     939      MECN     H11      HGA3     0.090000        1.0080           0
     64940 WT22     939      MECN     H12      HGA3     0.090000        1.0080           0
     64941 WT22     939      MECN     H13      HGA3     0.090000        1.0080           0
     64942 WT22     939      MECN     C2       CG1N1    0.360000       12.0110           0
     64943 WT22     939      MECN     N3       NG1T1   -0.460000       14.0070           0
     64944 WT22     943      MECN     C1       CG331   -0.170000       12.0110           0
     64945 WT22     943      MECN     H11      HGA3     0.090000        1.0080           0
     64946 WT22     943      MECN     H12      HGA3     0.090000        1.0080           0
     64947 WT22     943      MECN     H13      HGA3     0.090000        1.0080           0
     64948 WT22     943      MECN     C2       CG1N1    0.360000       12.0110           0
     64949 WT22     943      MECN     N3       NG1T1   -0.460000       14.0070           0
     64950 WT22     949      MECN     C1       CG331   -0.170000       12.0110           0
     64951 WT22     949      MECN     H11      HGA3     0.090000        1.0080           0
     64952 WT22     949      MECN     H12      HGA3     0.090000        1.0080           0
     64953 WT22     949      MECN     H13      HGA3     0.090000        1.0080           0
     64954 WT22     949      MECN     C2       CG1N1    0.360000       12.0110           0
     64955 WT22     949      MECN     N3       NG1T1   -0.460000       14.0070           0
     64956 WT22     951      MECN     C1       CG331   -0.170000       12.0110           0
     64957 WT22     951      MECN     H11      HGA3     0.090000        1.0080           0
     64958 WT22     951      MECN     H12      HGA3     0.090000        1.0080           0
     64959 WT22     951      MECN     H13      HGA3     0.090000        1.0080           0
     64960 WT22     951      MECN     C2       CG1N1    0.360000       12.0110           0
     64961 WT22     951      MECN     N3       NG1T1   -0.460000       14.0070           0
     64962 WT22     955      MECN     C1       CG331   -0.170000       12.0110           0
     64963 WT22     955      MECN     H11      HGA3     0.090000        1.0080           0
     64964 WT22     955      MECN     H12      HGA3     0.090000        1.0080           0
     64965 WT22     955      MECN     H13      HGA3     0.090000        1.0080           0
     64966 WT22     955      MECN     C2       CG1N1    0.360000       12.0110           0
     64967 WT22     955      MECN     N3       NG1T1   -0.460000       14.0070           0
     64968 WT22     956      MECN     C1       CG331   -0.170000       12.0110           0
     64969 WT22     956      MECN     H11      HGA3     0.090000        1.0080           0
     64970 WT22     956      MECN     H12      HGA3     0.090000        1.0080           0
     64971 WT22     956      MECN     H13      HGA3     0.090000        1.0080           0
     64972 WT22     956      MECN     C2       CG1N1    0.360000       12.0110           0
     64973 WT22     956      MECN     N3       NG1T1   -0.460000       14.0070           0
     64974 WT22     961      MECN     C1       CG331   -0.170000       12.0110           0
     64975 WT22     961      MECN     H11      HGA3     0.090000        1.0080           0
     64976 WT22     961      MECN     H12      HGA3     0.090000        1.0080           0
     64977 WT22     961      MECN     H13      HGA3     0.090000        1.0080           0
     64978 WT22     961      MECN     C2       CG1N1    0.360000       12.0110           0
     64979 WT22     961      MECN     N3       NG1T1   -0.460000       14.0070           0
     64980 WT22     966      MECN     C1       CG331   -0.170000       12.0110           0
     64981 WT22     966      MECN     H11      HGA3     0.090000        1.0080           0
     64982 WT22     966      MECN     H12      HGA3     0.090000        1.0080           0
     64983 WT22     966      MECN     H13      HGA3     0.090000        1.0080           0
     64984 WT22     966      MECN     C2       CG1N1    0.360000       12.0110           0
     64985 WT22     966      MECN     N3       NG1T1   -0.460000       14.0070           0
     64986 WT22     968      MECN     C1       CG331   -0.170000       12.0110           0
     64987 WT22     968      MECN     H11      HGA3     0.090000        1.0080           0
     64988 WT22     968      MECN     H12      HGA3     0.090000        1.0080           0
     64989 WT22     968      MECN     H13      HGA3     0.090000        1.0080           0
     64990 WT22     968      MECN     C2       CG1N1    0.360000       12.0110           0
     64991 WT22     968      MECN     N3       NG1T1   -0.460000       14.0070           0
     64992 WT22     977      MECN     C1       CG331   -0.170000       12.0110           0
     64993 WT22     977      MECN     H11      HGA3     0.090000        1.0080           0
     64994 WT22     977      MECN     H12      HGA3     0.090000        1.0080           0
     64995 WT22     977      MECN     H13      HGA3     0.090000        1.0080           0
     64996 WT22     977      MECN     C2       CG1N1    0.360000       12.0110           0
     64997 WT22     977      MECN     N3       NG1T1   -0.460000       14.0070           0
     64998 WT22     978      MECN     C1       CG331   -0.170000       12.0110           0
     64999 WT22     978      MECN     H11      HGA3     0.090000        1.0080           0
     65000 WT22     978      MECN     H12      HGA3     0.090000        1.0080           0
     65001 WT22     978      MECN     H13      HGA3     0.090000        1.0080           0
     65002 WT22     978      MECN     C2       CG1N1    0.360000       12.0110           0
     65003 WT22     978      MECN     N3       NG1T1   -0.460000       14.0070           0
     65004 WT22     983      MECN     C1       CG331   -0.170000       12.0110           0
     65005 WT22     983      MECN     H11      HGA3     0.090000        1.0080           0
     65006 WT22     983      MECN     H12      HGA3     0.090000        1.0080           0
     65007 WT22     983      MECN     H13      HGA3     0.090000        1.0080           0
     65008 WT22     983      MECN     C2       CG1N1    0.360000       12.0110           0
     65009 WT22     983      MECN     N3       NG1T1   -0.460000       14.0070           0
     65010 WT22     984      MECN     C1       CG331   -0.170000       12.0110           0
     65011 WT22     984      MECN     H11      HGA3     0.090000        1.0080           0
     65012 WT22     984      MECN     H12      HGA3     0.090000        1.0080           0
     65013 WT22     984      MECN     H13      HGA3     0.090000        1.0080           0
     65014 WT22     984      MECN     C2       CG1N1    0.360000       12.0110           0
     65015 WT22     984      MECN     N3       NG1T1   -0.460000       14.0070           0
     65016 WT22     985      MECN     C1       CG331   -0.170000       12.0110           0
     65017 WT22     985      MECN     H11      HGA3     0.090000        1.0080           0
     65018 WT22     985      MECN     H12      HGA3     0.090000        1.0080           0
     65019 WT22     985      MECN     H13      HGA3     0.090000        1.0080           0
     65020 WT22     985      MECN     C2       CG1N1    0.360000       12.0110           0
     65021 WT22     985      MECN     N3       NG1T1   -0.460000       14.0070           0
     65022 WT22     986      MECN     C1       CG331   -0.170000       12.0110           0
     65023 WT22     986      MECN     H11      HGA3     0.090000        1.0080           0
     65024 WT22     986      MECN     H12      HGA3     0.090000        1.0080           0
     65025 WT22     986      MECN     H13      HGA3     0.090000        1.0080           0
     65026 WT22     986      MECN     C2       CG1N1    0.360000       12.0110           0
     65027 WT22     986      MECN     N3       NG1T1   -0.460000       14.0070           0
     65028 WT22     989      MECN     C1       CG331   -0.170000       12.0110           0
     65029 WT22     989      MECN     H11      HGA3     0.090000        1.0080           0
     65030 WT22     989      MECN     H12      HGA3     0.090000        1.0080           0
     65031 WT22     989      MECN     H13      HGA3     0.090000        1.0080           0
     65032 WT22     989      MECN     C2       CG1N1    0.360000       12.0110           0
     65033 WT22     989      MECN     N3       NG1T1   -0.460000       14.0070           0
     65034 WT22     990      MECN     C1       CG331   -0.170000       12.0110           0
     65035 WT22     990      MECN     H11      HGA3     0.090000        1.0080           0
     65036 WT22     990      MECN     H12      HGA3     0.090000        1.0080           0
     65037 WT22     990      MECN     H13      HGA3     0.090000        1.0080           0
     65038 WT22     990      MECN     C2       CG1N1    0.360000       12.0110           0
     65039 WT22     990      MECN     N3       NG1T1   -0.460000       14.0070           0
     65040 WT22     991      MECN     C1       CG331   -0.170000       12.0110           0
     65041 WT22     991      MECN     H11      HGA3     0.090000        1.0080           0
     65042 WT22     991      MECN     H12      HGA3     0.090000        1.0080           0
     65043 WT22     991      MECN     H13      HGA3     0.090000        1.0080           0
     65044 WT22     991      MECN     C2       CG1N1    0.360000       12.0110           0
     65045 WT22     991      MECN     N3       NG1T1   -0.460000       14.0070           0
     65046 WT22     992      MECN     C1       CG331   -0.170000       12.0110           0
     65047 WT22     992      MECN     H11      HGA3     0.090000        1.0080           0
     65048 WT22     992      MECN     H12      HGA3     0.090000        1.0080           0
     65049 WT22     992      MECN     H13      HGA3     0.090000        1.0080           0
     65050 WT22     992      MECN     C2       CG1N1    0.360000       12.0110           0
     65051 WT22     992      MECN     N3       NG1T1   -0.460000       14.0070           0
     65052 WT22     993      MECN     C1       CG331   -0.170000       12.0110           0
     65053 WT22     993      MECN     H11      HGA3     0.090000        1.0080           0
     65054 WT22     993      MECN     H12      HGA3     0.090000        1.0080           0
     65055 WT22     993      MECN     H13      HGA3     0.090000        1.0080           0
     65056 WT22     993      MECN     C2       CG1N1    0.360000       12.0110           0
     65057 WT22     993      MECN     N3       NG1T1   -0.460000       14.0070           0
     65058 WT22     994      MECN     C1       CG331   -0.170000       12.0110           0
     65059 WT22     994      MECN     H11      HGA3     0.090000        1.0080           0
     65060 WT22     994      MECN     H12      HGA3     0.090000        1.0080           0
     65061 WT22     994      MECN     H13      HGA3     0.090000        1.0080           0
     65062 WT22     994      MECN     C2       CG1N1    0.360000       12.0110           0
     65063 WT22     994      MECN     N3       NG1T1   -0.460000       14.0070           0
     65064 WT22     1004     MECN     C1       CG331   -0.170000       12.0110           0
     65065 WT22     1004     MECN     H11      HGA3     0.090000        1.0080           0
     65066 WT22     1004     MECN     H12      HGA3     0.090000        1.0080           0
     65067 WT22     1004     MECN     H13      HGA3     0.090000        1.0080           0
     65068 WT22     1004     MECN     C2       CG1N1    0.360000       12.0110           0
     65069 WT22     1004     MECN     N3       NG1T1   -0.460000       14.0070           0
     65070 WT22     1006     MECN     C1       CG331   -0.170000       12.0110           0
     65071 WT22     1006     MECN     H11      HGA3     0.090000        1.0080           0
     65072 WT22     1006     MECN     H12      HGA3     0.090000        1.0080           0
     65073 WT22     1006     MECN     H13      HGA3     0.090000        1.0080           0
     65074 WT22     1006     MECN     C2       CG1N1    0.360000       12.0110           0
     65075 WT22     1006     MECN     N3       NG1T1   -0.460000       14.0070           0
     65076 WT22     1008     MECN     C1       CG331   -0.170000       12.0110           0
     65077 WT22     1008     MECN     H11      HGA3     0.090000        1.0080           0
     65078 WT22     1008     MECN     H12      HGA3     0.090000        1.0080           0
     65079 WT22     1008     MECN     H13      HGA3     0.090000        1.0080           0
     65080 WT22     1008     MECN     C2       CG1N1    0.360000       12.0110           0
     65081 WT22     1008     MECN     N3       NG1T1   -0.460000       14.0070           0
     65082 WT22     1009     MECN     C1       CG331   -0.170000       12.0110           0
     65083 WT22     1009     MECN     H11      HGA3     0.090000        1.0080           0
     65084 WT22     1009     MECN     H12      HGA3     0.090000        1.0080           0
     65085 WT22     1009     MECN     H13      HGA3     0.090000        1.0080           0
     65086 WT22     1009     MECN     C2       CG1N1    0.360000       12.0110           0
     65087 WT22     1009     MECN     N3       NG1T1   -0.460000       14.0070           0
     65088 WT22     1010     MECN     C1       CG331   -0.170000       12.0110           0
     65089 WT22     1010     MECN     H11      HGA3     0.090000        1.0080           0
     65090 WT22     1010     MECN     H12      HGA3     0.090000        1.0080           0
     65091 WT22     1010     MECN     H13      HGA3     0.090000        1.0080           0
     65092 WT22     1010     MECN     C2       CG1N1    0.360000       12.0110           0
     65093 WT22     1010     MECN     N3       NG1T1   -0.460000       14.0070           0
     65094 WT22     1011     MECN     C1       CG331   -0.170000       12.0110           0
     65095 WT22     1011     MECN     H11      HGA3     0.090000        1.0080           0
     65096 WT22     1011     MECN     H12      HGA3     0.090000        1.0080           0
     65097 WT22     1011     MECN     H13      HGA3     0.090000        1.0080           0
     65098 WT22     1011     MECN     C2       CG1N1    0.360000       12.0110           0
     65099 WT22     1011     MECN     N3       NG1T1   -0.460000       14.0070           0
     65100 WT22     1012     MECN     C1       CG331   -0.170000       12.0110           0
     65101 WT22     1012     MECN     H11      HGA3     0.090000        1.0080           0
     65102 WT22     1012     MECN     H12      HGA3     0.090000        1.0080           0
     65103 WT22     1012     MECN     H13      HGA3     0.090000        1.0080           0
     65104 WT22     1012     MECN     C2       CG1N1    0.360000       12.0110           0
     65105 WT22     1012     MECN     N3       NG1T1   -0.460000       14.0070           0
     65106 WT22     1014     MECN     C1       CG331   -0.170000       12.0110           0
     65107 WT22     1014     MECN     H11      HGA3     0.090000        1.0080           0
     65108 WT22     1014     MECN     H12      HGA3     0.090000        1.0080           0
     65109 WT22     1014     MECN     H13      HGA3     0.090000        1.0080           0
     65110 WT22     1014     MECN     C2       CG1N1    0.360000       12.0110           0
     65111 WT22     1014     MECN     N3       NG1T1   -0.460000       14.0070           0
     65112 WT22     1019     MECN     C1       CG331   -0.170000       12.0110           0
     65113 WT22     1019     MECN     H11      HGA3     0.090000        1.0080           0
     65114 WT22     1019     MECN     H12      HGA3     0.090000        1.0080           0
     65115 WT22     1019     MECN     H13      HGA3     0.090000        1.0080           0
     65116 WT22     1019     MECN     C2       CG1N1    0.360000       12.0110           0
     65117 WT22     1019     MECN     N3       NG1T1   -0.460000       14.0070           0
     65118 WT22     1021     MECN     C1       CG331   -0.170000       12.0110           0
     65119 WT22     1021     MECN     H11      HGA3     0.090000        1.0080           0
     65120 WT22     1021     MECN     H12      HGA3     0.090000        1.0080           0
     65121 WT22     1021     MECN     H13      HGA3     0.090000        1.0080           0
     65122 WT22     1021     MECN     C2       CG1N1    0.360000       12.0110           0
     65123 WT22     1021     MECN     N3       NG1T1   -0.460000       14.0070           0
     65124 WT22     1029     MECN     C1       CG331   -0.170000       12.0110           0
     65125 WT22     1029     MECN     H11      HGA3     0.090000        1.0080           0
     65126 WT22     1029     MECN     H12      HGA3     0.090000        1.0080           0
     65127 WT22     1029     MECN     H13      HGA3     0.090000        1.0080           0
     65128 WT22     1029     MECN     C2       CG1N1    0.360000       12.0110           0
     65129 WT22     1029     MECN     N3       NG1T1   -0.460000       14.0070           0
     65130 WT22     1030     MECN     C1       CG331   -0.170000       12.0110           0
     65131 WT22     1030     MECN     H11      HGA3     0.090000        1.0080           0
     65132 WT22     1030     MECN     H12      HGA3     0.090000        1.0080           0
     65133 WT22     1030     MECN     H13      HGA3     0.090000        1.0080           0
     65134 WT22     1030     MECN     C2       CG1N1    0.360000       12.0110           0
     65135 WT22     1030     MECN     N3       NG1T1   -0.460000       14.0070           0
     65136 WT22     1033     MECN     C1       CG331   -0.170000       12.0110           0
     65137 WT22     1033     MECN     H11      HGA3     0.090000        1.0080           0
     65138 WT22     1033     MECN     H12      HGA3     0.090000        1.0080           0
     65139 WT22     1033     MECN     H13      HGA3     0.090000        1.0080           0
     65140 WT22     1033     MECN     C2       CG1N1    0.360000       12.0110           0
     65141 WT22     1033     MECN     N3       NG1T1   -0.460000       14.0070           0
     65142 WT22     1034     MECN     C1       CG331   -0.170000       12.0110           0
     65143 WT22     1034     MECN     H11      HGA3     0.090000        1.0080           0
     65144 WT22     1034     MECN     H12      HGA3     0.090000        1.0080           0
     65145 WT22     1034     MECN     H13      HGA3     0.090000        1.0080           0
     65146 WT22     1034     MECN     C2       CG1N1    0.360000       12.0110           0
     65147 WT22     1034     MECN     N3       NG1T1   -0.460000       14.0070           0
     65148 WT22     1035     MECN     C1       CG331   -0.170000       12.0110           0
     65149 WT22     1035     MECN     H11      HGA3     0.090000        1.0080           0
     65150 WT22     1035     MECN     H12      HGA3     0.090000        1.0080           0
     65151 WT22     1035     MECN     H13      HGA3     0.090000        1.0080           0
     65152 WT22     1035     MECN     C2       CG1N1    0.360000       12.0110           0
     65153 WT22     1035     MECN     N3       NG1T1   -0.460000       14.0070           0
     65154 WT22     1036     MECN     C1       CG331   -0.170000       12.0110           0
     65155 WT22     1036     MECN     H11      HGA3     0.090000        1.0080           0
     65156 WT22     1036     MECN     H12      HGA3     0.090000        1.0080           0
     65157 WT22     1036     MECN     H13      HGA3     0.090000        1.0080           0
     65158 WT22     1036     MECN     C2       CG1N1    0.360000       12.0110           0
     65159 WT22     1036     MECN     N3       NG1T1   -0.460000       14.0070           0
     65160 WT22     1039     MECN     C1       CG331   -0.170000       12.0110           0
     65161 WT22     1039     MECN     H11      HGA3     0.090000        1.0080           0
     65162 WT22     1039     MECN     H12      HGA3     0.090000        1.0080           0
     65163 WT22     1039     MECN     H13      HGA3     0.090000        1.0080           0
     65164 WT22     1039     MECN     C2       CG1N1    0.360000       12.0110           0
     65165 WT22     1039     MECN     N3       NG1T1   -0.460000       14.0070           0
     65166 WT22     1040     MECN     C1       CG331   -0.170000       12.0110           0
     65167 WT22     1040     MECN     H11      HGA3     0.090000        1.0080           0
     65168 WT22     1040     MECN     H12      HGA3     0.090000        1.0080           0
     65169 WT22     1040     MECN     H13      HGA3     0.090000        1.0080           0
     65170 WT22     1040     MECN     C2       CG1N1    0.360000       12.0110           0
     65171 WT22     1040     MECN     N3       NG1T1   -0.460000       14.0070           0
     65172 WT22     1043     MECN     C1       CG331   -0.170000       12.0110           0
     65173 WT22     1043     MECN     H11      HGA3     0.090000        1.0080           0
     65174 WT22     1043     MECN     H12      HGA3     0.090000        1.0080           0
     65175 WT22     1043     MECN     H13      HGA3     0.090000        1.0080           0
     65176 WT22     1043     MECN     C2       CG1N1    0.360000       12.0110           0
     65177 WT22     1043     MECN     N3       NG1T1   -0.460000       14.0070           0
     65178 WT22     1044     MECN     C1       CG331   -0.170000       12.0110           0
     65179 WT22     1044     MECN     H11      HGA3     0.090000        1.0080           0
     65180 WT22     1044     MECN     H12      HGA3     0.090000        1.0080           0
     65181 WT22     1044     MECN     H13      HGA3     0.090000        1.0080           0
     65182 WT22     1044     MECN     C2       CG1N1    0.360000       12.0110           0
     65183 WT22     1044     MECN     N3       NG1T1   -0.460000       14.0070           0
     65184 WT22     1048     MECN     C1       CG331   -0.170000       12.0110           0
     65185 WT22     1048     MECN     H11      HGA3     0.090000        1.0080           0
     65186 WT22     1048     MECN     H12      HGA3     0.090000        1.0080           0
     65187 WT22     1048     MECN     H13      HGA3     0.090000        1.0080           0
     65188 WT22     1048     MECN     C2       CG1N1    0.360000       12.0110           0
     65189 WT22     1048     MECN     N3       NG1T1   -0.460000       14.0070           0
     65190 WT22     1051     MECN     C1       CG331   -0.170000       12.0110           0
     65191 WT22     1051     MECN     H11      HGA3     0.090000        1.0080           0
     65192 WT22     1051     MECN     H12      HGA3     0.090000        1.0080           0
     65193 WT22     1051     MECN     H13      HGA3     0.090000        1.0080           0
     65194 WT22     1051     MECN     C2       CG1N1    0.360000       12.0110           0
     65195 WT22     1051     MECN     N3       NG1T1   -0.460000       14.0070           0
     65196 WT22     1052     MECN     C1       CG331   -0.170000       12.0110           0
     65197 WT22     1052     MECN     H11      HGA3     0.090000        1.0080           0
     65198 WT22     1052     MECN     H12      HGA3     0.090000        1.0080           0
     65199 WT22     1052     MECN     H13      HGA3     0.090000        1.0080           0
     65200 WT22     1052     MECN     C2       CG1N1    0.360000       12.0110           0
     65201 WT22     1052     MECN     N3       NG1T1   -0.460000       14.0070           0
     65202 WT22     1054     MECN     C1       CG331   -0.170000       12.0110           0
     65203 WT22     1054     MECN     H11      HGA3     0.090000        1.0080           0
     65204 WT22     1054     MECN     H12      HGA3     0.090000        1.0080           0
     65205 WT22     1054     MECN     H13      HGA3     0.090000        1.0080           0
     65206 WT22     1054     MECN     C2       CG1N1    0.360000       12.0110           0
     65207 WT22     1054     MECN     N3       NG1T1   -0.460000       14.0070           0
     65208 WT22     1055     MECN     C1       CG331   -0.170000       12.0110           0
     65209 WT22     1055     MECN     H11      HGA3     0.090000        1.0080           0
     65210 WT22     1055     MECN     H12      HGA3     0.090000        1.0080           0
     65211 WT22     1055     MECN     H13      HGA3     0.090000        1.0080           0
     65212 WT22     1055     MECN     C2       CG1N1    0.360000       12.0110           0
     65213 WT22     1055     MECN     N3       NG1T1   -0.460000       14.0070           0
     65214 WT22     1057     MECN     C1       CG331   -0.170000       12.0110           0
     65215 WT22     1057     MECN     H11      HGA3     0.090000        1.0080           0
     65216 WT22     1057     MECN     H12      HGA3     0.090000        1.0080           0
     65217 WT22     1057     MECN     H13      HGA3     0.090000        1.0080           0
     65218 WT22     1057     MECN     C2       CG1N1    0.360000       12.0110           0
     65219 WT22     1057     MECN     N3       NG1T1   -0.460000       14.0070           0
     65220 WT22     1058     MECN     C1       CG331   -0.170000       12.0110           0
     65221 WT22     1058     MECN     H11      HGA3     0.090000        1.0080           0
     65222 WT22     1058     MECN     H12      HGA3     0.090000        1.0080           0
     65223 WT22     1058     MECN     H13      HGA3     0.090000        1.0080           0
     65224 WT22     1058     MECN     C2       CG1N1    0.360000       12.0110           0
     65225 WT22     1058     MECN     N3       NG1T1   -0.460000       14.0070           0
     65226 WT22     1059     MECN     C1       CG331   -0.170000       12.0110           0
     65227 WT22     1059     MECN     H11      HGA3     0.090000        1.0080           0
     65228 WT22     1059     MECN     H12      HGA3     0.090000        1.0080           0
     65229 WT22     1059     MECN     H13      HGA3     0.090000        1.0080           0
     65230 WT22     1059     MECN     C2       CG1N1    0.360000       12.0110           0
     65231 WT22     1059     MECN     N3       NG1T1   -0.460000       14.0070           0
     65232 WT22     1061     MECN     C1       CG331   -0.170000       12.0110           0
     65233 WT22     1061     MECN     H11      HGA3     0.090000        1.0080           0
     65234 WT22     1061     MECN     H12      HGA3     0.090000        1.0080           0
     65235 WT22     1061     MECN     H13      HGA3     0.090000        1.0080           0
     65236 WT22     1061     MECN     C2       CG1N1    0.360000       12.0110           0
     65237 WT22     1061     MECN     N3       NG1T1   -0.460000       14.0070           0
     65238 WT22     1062     MECN     C1       CG331   -0.170000       12.0110           0
     65239 WT22     1062     MECN     H11      HGA3     0.090000        1.0080           0
     65240 WT22     1062     MECN     H12      HGA3     0.090000        1.0080           0
     65241 WT22     1062     MECN     H13      HGA3     0.090000        1.0080           0
     65242 WT22     1062     MECN     C2       CG1N1    0.360000       12.0110           0
     65243 WT22     1062     MECN     N3       NG1T1   -0.460000       14.0070           0
     65244 WT22     1063     MECN     C1       CG331   -0.170000       12.0110           0
     65245 WT22     1063     MECN     H11      HGA3     0.090000        1.0080           0
     65246 WT22     1063     MECN     H12      HGA3     0.090000        1.0080           0
     65247 WT22     1063     MECN     H13      HGA3     0.090000        1.0080           0
     65248 WT22     1063     MECN     C2       CG1N1    0.360000       12.0110           0
     65249 WT22     1063     MECN     N3       NG1T1   -0.460000       14.0070           0
     65250 WT22     1071     MECN     C1       CG331   -0.170000       12.0110           0
     65251 WT22     1071     MECN     H11      HGA3     0.090000        1.0080           0
     65252 WT22     1071     MECN     H12      HGA3     0.090000        1.0080           0
     65253 WT22     1071     MECN     H13      HGA3     0.090000        1.0080           0
     65254 WT22     1071     MECN     C2       CG1N1    0.360000       12.0110           0
     65255 WT22     1071     MECN     N3       NG1T1   -0.460000       14.0070           0
     65256 WT22     1072     MECN     C1       CG331   -0.170000       12.0110           0
     65257 WT22     1072     MECN     H11      HGA3     0.090000        1.0080           0
     65258 WT22     1072     MECN     H12      HGA3     0.090000        1.0080           0
     65259 WT22     1072     MECN     H13      HGA3     0.090000        1.0080           0
     65260 WT22     1072     MECN     C2       CG1N1    0.360000       12.0110           0
     65261 WT22     1072     MECN     N3       NG1T1   -0.460000       14.0070           0
     65262 WT22     1075     MECN     C1       CG331   -0.170000       12.0110           0
     65263 WT22     1075     MECN     H11      HGA3     0.090000        1.0080           0
     65264 WT22     1075     MECN     H12      HGA3     0.090000        1.0080           0
     65265 WT22     1075     MECN     H13      HGA3     0.090000        1.0080           0
     65266 WT22     1075     MECN     C2       CG1N1    0.360000       12.0110           0
     65267 WT22     1075     MECN     N3       NG1T1   -0.460000       14.0070           0
     65268 WT22     1076     MECN     C1       CG331   -0.170000       12.0110           0
     65269 WT22     1076     MECN     H11      HGA3     0.090000        1.0080           0
     65270 WT22     1076     MECN     H12      HGA3     0.090000        1.0080           0
     65271 WT22     1076     MECN     H13      HGA3     0.090000        1.0080           0
     65272 WT22     1076     MECN     C2       CG1N1    0.360000       12.0110           0
     65273 WT22     1076     MECN     N3       NG1T1   -0.460000       14.0070           0
     65274 WT22     1084     MECN     C1       CG331   -0.170000       12.0110           0
     65275 WT22     1084     MECN     H11      HGA3     0.090000        1.0080           0
     65276 WT22     1084     MECN     H12      HGA3     0.090000        1.0080           0
     65277 WT22     1084     MECN     H13      HGA3     0.090000        1.0080           0
     65278 WT22     1084     MECN     C2       CG1N1    0.360000       12.0110           0
     65279 WT22     1084     MECN     N3       NG1T1   -0.460000       14.0070           0
     65280 WT22     1087     MECN     C1       CG331   -0.170000       12.0110           0
     65281 WT22     1087     MECN     H11      HGA3     0.090000        1.0080           0
     65282 WT22     1087     MECN     H12      HGA3     0.090000        1.0080           0
     65283 WT22     1087     MECN     H13      HGA3     0.090000        1.0080           0
     65284 WT22     1087     MECN     C2       CG1N1    0.360000       12.0110           0
     65285 WT22     1087     MECN     N3       NG1T1   -0.460000       14.0070           0
     65286 WT22     1089     MECN     C1       CG331   -0.170000       12.0110           0
     65287 WT22     1089     MECN     H11      HGA3     0.090000        1.0080           0
     65288 WT22     1089     MECN     H12      HGA3     0.090000        1.0080           0
     65289 WT22     1089     MECN     H13      HGA3     0.090000        1.0080           0
     65290 WT22     1089     MECN     C2       CG1N1    0.360000       12.0110           0
     65291 WT22     1089     MECN     N3       NG1T1   -0.460000       14.0070           0
     65292 WT22     1091     MECN     C1       CG331   -0.170000       12.0110           0
     65293 WT22     1091     MECN     H11      HGA3     0.090000        1.0080           0
     65294 WT22     1091     MECN     H12      HGA3     0.090000        1.0080           0
     65295 WT22     1091     MECN     H13      HGA3     0.090000        1.0080           0
     65296 WT22     1091     MECN     C2       CG1N1    0.360000       12.0110           0
     65297 WT22     1091     MECN     N3       NG1T1   -0.460000       14.0070           0
     65298 WT22     1093     MECN     C1       CG331   -0.170000       12.0110           0
     65299 WT22     1093     MECN     H11      HGA3     0.090000        1.0080           0
     65300 WT22     1093     MECN     H12      HGA3     0.090000        1.0080           0
     65301 WT22     1093     MECN     H13      HGA3     0.090000        1.0080           0
     65302 WT22     1093     MECN     C2       CG1N1    0.360000       12.0110           0
     65303 WT22     1093     MECN     N3       NG1T1   -0.460000       14.0070           0
     65304 WT22     1099     MECN     C1       CG331   -0.170000       12.0110           0
     65305 WT22     1099     MECN     H11      HGA3     0.090000        1.0080           0
     65306 WT22     1099     MECN     H12      HGA3     0.090000        1.0080           0
     65307 WT22     1099     MECN     H13      HGA3     0.090000        1.0080           0
     65308 WT22     1099     MECN     C2       CG1N1    0.360000       12.0110           0
     65309 WT22     1099     MECN     N3       NG1T1   -0.460000       14.0070           0
     65310 WT22     1102     MECN     C1       CG331   -0.170000       12.0110           0
     65311 WT22     1102     MECN     H11      HGA3     0.090000        1.0080           0
     65312 WT22     1102     MECN     H12      HGA3     0.090000        1.0080           0
     65313 WT22     1102     MECN     H13      HGA3     0.090000        1.0080           0
     65314 WT22     1102     MECN     C2       CG1N1    0.360000       12.0110           0
     65315 WT22     1102     MECN     N3       NG1T1   -0.460000       14.0070           0
     65316 WT22     1106     MECN     C1       CG331   -0.170000       12.0110           0
     65317 WT22     1106     MECN     H11      HGA3     0.090000        1.0080           0
     65318 WT22     1106     MECN     H12      HGA3     0.090000        1.0080           0
     65319 WT22     1106     MECN     H13      HGA3     0.090000        1.0080           0
     65320 WT22     1106     MECN     C2       CG1N1    0.360000       12.0110           0
     65321 WT22     1106     MECN     N3       NG1T1   -0.460000       14.0070           0
     65322 WT22     1109     MECN     C1       CG331   -0.170000       12.0110           0
     65323 WT22     1109     MECN     H11      HGA3     0.090000        1.0080           0
     65324 WT22     1109     MECN     H12      HGA3     0.090000        1.0080           0
     65325 WT22     1109     MECN     H13      HGA3     0.090000        1.0080           0
     65326 WT22     1109     MECN     C2       CG1N1    0.360000       12.0110           0
     65327 WT22     1109     MECN     N3       NG1T1   -0.460000       14.0070           0
     65328 WT22     1113     MECN     C1       CG331   -0.170000       12.0110           0
     65329 WT22     1113     MECN     H11      HGA3     0.090000        1.0080           0
     65330 WT22     1113     MECN     H12      HGA3     0.090000        1.0080           0
     65331 WT22     1113     MECN     H13      HGA3     0.090000        1.0080           0
     65332 WT22     1113     MECN     C2       CG1N1    0.360000       12.0110           0
     65333 WT22     1113     MECN     N3       NG1T1   -0.460000       14.0070           0
     65334 WT22     1120     MECN     C1       CG331   -0.170000       12.0110           0
     65335 WT22     1120     MECN     H11      HGA3     0.090000        1.0080           0
     65336 WT22     1120     MECN     H12      HGA3     0.090000        1.0080           0
     65337 WT22     1120     MECN     H13      HGA3     0.090000        1.0080           0
     65338 WT22     1120     MECN     C2       CG1N1    0.360000       12.0110           0
     65339 WT22     1120     MECN     N3       NG1T1   -0.460000       14.0070           0
     65340 WT22     1121     MECN     C1       CG331   -0.170000       12.0110           0
     65341 WT22     1121     MECN     H11      HGA3     0.090000        1.0080           0
     65342 WT22     1121     MECN     H12      HGA3     0.090000        1.0080           0
     65343 WT22     1121     MECN     H13      HGA3     0.090000        1.0080           0
     65344 WT22     1121     MECN     C2       CG1N1    0.360000       12.0110           0
     65345 WT22     1121     MECN     N3       NG1T1   -0.460000       14.0070           0
     65346 WT22     1122     MECN     C1       CG331   -0.170000       12.0110           0
     65347 WT22     1122     MECN     H11      HGA3     0.090000        1.0080           0
     65348 WT22     1122     MECN     H12      HGA3     0.090000        1.0080           0
     65349 WT22     1122     MECN     H13      HGA3     0.090000        1.0080           0
     65350 WT22     1122     MECN     C2       CG1N1    0.360000       12.0110           0
     65351 WT22     1122     MECN     N3       NG1T1   -0.460000       14.0070           0
     65352 WT22     1124     MECN     C1       CG331   -0.170000       12.0110           0
     65353 WT22     1124     MECN     H11      HGA3     0.090000        1.0080           0
     65354 WT22     1124     MECN     H12      HGA3     0.090000        1.0080           0
     65355 WT22     1124     MECN     H13      HGA3     0.090000        1.0080           0
     65356 WT22     1124     MECN     C2       CG1N1    0.360000       12.0110           0
     65357 WT22     1124     MECN     N3       NG1T1   -0.460000       14.0070           0
     65358 WT22     1126     MECN     C1       CG331   -0.170000       12.0110           0
     65359 WT22     1126     MECN     H11      HGA3     0.090000        1.0080           0
     65360 WT22     1126     MECN     H12      HGA3     0.090000        1.0080           0
     65361 WT22     1126     MECN     H13      HGA3     0.090000        1.0080           0
     65362 WT22     1126     MECN     C2       CG1N1    0.360000       12.0110           0
     65363 WT22     1126     MECN     N3       NG1T1   -0.460000       14.0070           0
     65364 WT22     1130     MECN     C1       CG331   -0.170000       12.0110           0
     65365 WT22     1130     MECN     H11      HGA3     0.090000        1.0080           0
     65366 WT22     1130     MECN     H12      HGA3     0.090000        1.0080           0
     65367 WT22     1130     MECN     H13      HGA3     0.090000        1.0080           0
     65368 WT22     1130     MECN     C2       CG1N1    0.360000       12.0110           0
     65369 WT22     1130     MECN     N3       NG1T1   -0.460000       14.0070           0
     65370 WT22     1131     MECN     C1       CG331   -0.170000       12.0110           0
     65371 WT22     1131     MECN     H11      HGA3     0.090000        1.0080           0
     65372 WT22     1131     MECN     H12      HGA3     0.090000        1.0080           0
     65373 WT22     1131     MECN     H13      HGA3     0.090000        1.0080           0
     65374 WT22     1131     MECN     C2       CG1N1    0.360000       12.0110           0
     65375 WT22     1131     MECN     N3       NG1T1   -0.460000       14.0070           0
     65376 WT22     1132     MECN     C1       CG331   -0.170000       12.0110           0
     65377 WT22     1132     MECN     H11      HGA3     0.090000        1.0080           0
     65378 WT22     1132     MECN     H12      HGA3     0.090000        1.0080           0
     65379 WT22     1132     MECN     H13      HGA3     0.090000        1.0080           0
     65380 WT22     1132     MECN     C2       CG1N1    0.360000       12.0110           0
     65381 WT22     1132     MECN     N3       NG1T1   -0.460000       14.0070           0
     65382 WT22     1134     MECN     C1       CG331   -0.170000       12.0110           0
     65383 WT22     1134     MECN     H11      HGA3     0.090000        1.0080           0
     65384 WT22     1134     MECN     H12      HGA3     0.090000        1.0080           0
     65385 WT22     1134     MECN     H13      HGA3     0.090000        1.0080           0
     65386 WT22     1134     MECN     C2       CG1N1    0.360000       12.0110           0
     65387 WT22     1134     MECN     N3       NG1T1   -0.460000       14.0070           0
     65388 WT22     1137     MECN     C1       CG331   -0.170000       12.0110           0
     65389 WT22     1137     MECN     H11      HGA3     0.090000        1.0080           0
     65390 WT22     1137     MECN     H12      HGA3     0.090000        1.0080           0
     65391 WT22     1137     MECN     H13      HGA3     0.090000        1.0080           0
     65392 WT22     1137     MECN     C2       CG1N1    0.360000       12.0110           0
     65393 WT22     1137     MECN     N3       NG1T1   -0.460000       14.0070           0
     65394 WT22     1143     MECN     C1       CG331   -0.170000       12.0110           0
     65395 WT22     1143     MECN     H11      HGA3     0.090000        1.0080           0
     65396 WT22     1143     MECN     H12      HGA3     0.090000        1.0080           0
     65397 WT22     1143     MECN     H13      HGA3     0.090000        1.0080           0
     65398 WT22     1143     MECN     C2       CG1N1    0.360000       12.0110           0
     65399 WT22     1143     MECN     N3       NG1T1   -0.460000       14.0070           0
     65400 WT22     1146     MECN     C1       CG331   -0.170000       12.0110           0
     65401 WT22     1146     MECN     H11      HGA3     0.090000        1.0080           0
     65402 WT22     1146     MECN     H12      HGA3     0.090000        1.0080           0
     65403 WT22     1146     MECN     H13      HGA3     0.090000        1.0080           0
     65404 WT22     1146     MECN     C2       CG1N1    0.360000       12.0110           0
     65405 WT22     1146     MECN     N3       NG1T1   -0.460000       14.0070           0
     65406 WT22     1148     MECN     C1       CG331   -0.170000       12.0110           0
     65407 WT22     1148     MECN     H11      HGA3     0.090000        1.0080           0
     65408 WT22     1148     MECN     H12      HGA3     0.090000        1.0080           0
     65409 WT22     1148     MECN     H13      HGA3     0.090000        1.0080           0
     65410 WT22     1148     MECN     C2       CG1N1    0.360000       12.0110           0
     65411 WT22     1148     MECN     N3       NG1T1   -0.460000       14.0070           0
     65412 WT22     1155     MECN     C1       CG331   -0.170000       12.0110           0
     65413 WT22     1155     MECN     H11      HGA3     0.090000        1.0080           0
     65414 WT22     1155     MECN     H12      HGA3     0.090000        1.0080           0
     65415 WT22     1155     MECN     H13      HGA3     0.090000        1.0080           0
     65416 WT22     1155     MECN     C2       CG1N1    0.360000       12.0110           0
     65417 WT22     1155     MECN     N3       NG1T1   -0.460000       14.0070           0
     65418 WT22     1158     MECN     C1       CG331   -0.170000       12.0110           0
     65419 WT22     1158     MECN     H11      HGA3     0.090000        1.0080           0
     65420 WT22     1158     MECN     H12      HGA3     0.090000        1.0080           0
     65421 WT22     1158     MECN     H13      HGA3     0.090000        1.0080           0
     65422 WT22     1158     MECN     C2       CG1N1    0.360000       12.0110           0
     65423 WT22     1158     MECN     N3       NG1T1   -0.460000       14.0070           0
     65424 WT22     1161     MECN     C1       CG331   -0.170000       12.0110           0
     65425 WT22     1161     MECN     H11      HGA3     0.090000        1.0080           0
     65426 WT22     1161     MECN     H12      HGA3     0.090000        1.0080           0
     65427 WT22     1161     MECN     H13      HGA3     0.090000        1.0080           0
     65428 WT22     1161     MECN     C2       CG1N1    0.360000       12.0110           0
     65429 WT22     1161     MECN     N3       NG1T1   -0.460000       14.0070           0
     65430 WT22     1163     MECN     C1       CG331   -0.170000       12.0110           0
     65431 WT22     1163     MECN     H11      HGA3     0.090000        1.0080           0
     65432 WT22     1163     MECN     H12      HGA3     0.090000        1.0080           0
     65433 WT22     1163     MECN     H13      HGA3     0.090000        1.0080           0
     65434 WT22     1163     MECN     C2       CG1N1    0.360000       12.0110           0
     65435 WT22     1163     MECN     N3       NG1T1   -0.460000       14.0070           0
     65436 WT22     1166     MECN     C1       CG331   -0.170000       12.0110           0
     65437 WT22     1166     MECN     H11      HGA3     0.090000        1.0080           0
     65438 WT22     1166     MECN     H12      HGA3     0.090000        1.0080           0
     65439 WT22     1166     MECN     H13      HGA3     0.090000        1.0080           0
     65440 WT22     1166     MECN     C2       CG1N1    0.360000       12.0110           0
     65441 WT22     1166     MECN     N3       NG1T1   -0.460000       14.0070           0
     65442 WT22     1168     MECN     C1       CG331   -0.170000       12.0110           0
     65443 WT22     1168     MECN     H11      HGA3     0.090000        1.0080           0
     65444 WT22     1168     MECN     H12      HGA3     0.090000        1.0080           0
     65445 WT22     1168     MECN     H13      HGA3     0.090000        1.0080           0
     65446 WT22     1168     MECN     C2       CG1N1    0.360000       12.0110           0
     65447 WT22     1168     MECN     N3       NG1T1   -0.460000       14.0070           0
     65448 WT22     1171     MECN     C1       CG331   -0.170000       12.0110           0
     65449 WT22     1171     MECN     H11      HGA3     0.090000        1.0080           0
     65450 WT22     1171     MECN     H12      HGA3     0.090000        1.0080           0
     65451 WT22     1171     MECN     H13      HGA3     0.090000        1.0080           0
     65452 WT22     1171     MECN     C2       CG1N1    0.360000       12.0110           0
     65453 WT22     1171     MECN     N3       NG1T1   -0.460000       14.0070           0
     65454 WT22     1174     MECN     C1       CG331   -0.170000       12.0110           0
     65455 WT22     1174     MECN     H11      HGA3     0.090000        1.0080           0
     65456 WT22     1174     MECN     H12      HGA3     0.090000        1.0080           0
     65457 WT22     1174     MECN     H13      HGA3     0.090000        1.0080           0
     65458 WT22     1174     MECN     C2       CG1N1    0.360000       12.0110           0
     65459 WT22     1174     MECN     N3       NG1T1   -0.460000       14.0070           0
     65460 WT22     1181     MECN     C1       CG331   -0.170000       12.0110           0
     65461 WT22     1181     MECN     H11      HGA3     0.090000        1.0080           0
     65462 WT22     1181     MECN     H12      HGA3     0.090000        1.0080           0
     65463 WT22     1181     MECN     H13      HGA3     0.090000        1.0080           0
     65464 WT22     1181     MECN     C2       CG1N1    0.360000       12.0110           0
     65465 WT22     1181     MECN     N3       NG1T1   -0.460000       14.0070           0
     65466 WT22     1184     MECN     C1       CG331   -0.170000       12.0110           0
     65467 WT22     1184     MECN     H11      HGA3     0.090000        1.0080           0
     65468 WT22     1184     MECN     H12      HGA3     0.090000        1.0080           0
     65469 WT22     1184     MECN     H13      HGA3     0.090000        1.0080           0
     65470 WT22     1184     MECN     C2       CG1N1    0.360000       12.0110           0
     65471 WT22     1184     MECN     N3       NG1T1   -0.460000       14.0070           0
     65472 WT22     1188     MECN     C1       CG331   -0.170000       12.0110           0
     65473 WT22     1188     MECN     H11      HGA3     0.090000        1.0080           0
     65474 WT22     1188     MECN     H12      HGA3     0.090000        1.0080           0
     65475 WT22     1188     MECN     H13      HGA3     0.090000        1.0080           0
     65476 WT22     1188     MECN     C2       CG1N1    0.360000       12.0110           0
     65477 WT22     1188     MECN     N3       NG1T1   -0.460000       14.0070           0
     65478 WT22     1191     MECN     C1       CG331   -0.170000       12.0110           0
     65479 WT22     1191     MECN     H11      HGA3     0.090000        1.0080           0
     65480 WT22     1191     MECN     H12      HGA3     0.090000        1.0080           0
     65481 WT22     1191     MECN     H13      HGA3     0.090000        1.0080           0
     65482 WT22     1191     MECN     C2       CG1N1    0.360000       12.0110           0
     65483 WT22     1191     MECN     N3       NG1T1   -0.460000       14.0070           0
     65484 WT22     1193     MECN     C1       CG331   -0.170000       12.0110           0
     65485 WT22     1193     MECN     H11      HGA3     0.090000        1.0080           0
     65486 WT22     1193     MECN     H12      HGA3     0.090000        1.0080           0
     65487 WT22     1193     MECN     H13      HGA3     0.090000        1.0080           0
     65488 WT22     1193     MECN     C2       CG1N1    0.360000       12.0110           0
     65489 WT22     1193     MECN     N3       NG1T1   -0.460000       14.0070           0
     65490 WT22     1197     MECN     C1       CG331   -0.170000       12.0110           0
     65491 WT22     1197     MECN     H11      HGA3     0.090000        1.0080           0
     65492 WT22     1197     MECN     H12      HGA3     0.090000        1.0080           0
     65493 WT22     1197     MECN     H13      HGA3     0.090000        1.0080           0
     65494 WT22     1197     MECN     C2       CG1N1    0.360000       12.0110           0
     65495 WT22     1197     MECN     N3       NG1T1   -0.460000       14.0070           0
     65496 WT22     1200     MECN     C1       CG331   -0.170000       12.0110           0
     65497 WT22     1200     MECN     H11      HGA3     0.090000        1.0080           0
     65498 WT22     1200     MECN     H12      HGA3     0.090000        1.0080           0
     65499 WT22     1200     MECN     H13      HGA3     0.090000        1.0080           0
     65500 WT22     1200     MECN     C2       CG1N1    0.360000       12.0110           0
     65501 WT22     1200     MECN     N3       NG1T1   -0.460000       14.0070           0
     65502 WT22     1205     MECN     C1       CG331   -0.170000       12.0110           0
     65503 WT22     1205     MECN     H11      HGA3     0.090000        1.0080           0
     65504 WT22     1205     MECN     H12      HGA3     0.090000        1.0080           0
     65505 WT22     1205     MECN     H13      HGA3     0.090000        1.0080           0
     65506 WT22     1205     MECN     C2       CG1N1    0.360000       12.0110           0
     65507 WT22     1205     MECN     N3       NG1T1   -0.460000       14.0070           0
     65508 WT22     1207     MECN     C1       CG331   -0.170000       12.0110           0
     65509 WT22     1207     MECN     H11      HGA3     0.090000        1.0080           0
     65510 WT22     1207     MECN     H12      HGA3     0.090000        1.0080           0
     65511 WT22     1207     MECN     H13      HGA3     0.090000        1.0080           0
     65512 WT22     1207     MECN     C2       CG1N1    0.360000       12.0110           0
     65513 WT22     1207     MECN     N3       NG1T1   -0.460000       14.0070           0
     65514 WT22     1210     MECN     C1       CG331   -0.170000       12.0110           0
     65515 WT22     1210     MECN     H11      HGA3     0.090000        1.0080           0
     65516 WT22     1210     MECN     H12      HGA3     0.090000        1.0080           0
     65517 WT22     1210     MECN     H13      HGA3     0.090000        1.0080           0
     65518 WT22     1210     MECN     C2       CG1N1    0.360000       12.0110           0
     65519 WT22     1210     MECN     N3       NG1T1   -0.460000       14.0070           0
     65520 WT22     1211     MECN     C1       CG331   -0.170000       12.0110           0
     65521 WT22     1211     MECN     H11      HGA3     0.090000        1.0080           0
     65522 WT22     1211     MECN     H12      HGA3     0.090000        1.0080           0
     65523 WT22     1211     MECN     H13      HGA3     0.090000        1.0080           0
     65524 WT22     1211     MECN     C2       CG1N1    0.360000       12.0110           0
     65525 WT22     1211     MECN     N3       NG1T1   -0.460000       14.0070           0
     65526 WT22     1220     MECN     C1       CG331   -0.170000       12.0110           0
     65527 WT22     1220     MECN     H11      HGA3     0.090000        1.0080           0
     65528 WT22     1220     MECN     H12      HGA3     0.090000        1.0080           0
     65529 WT22     1220     MECN     H13      HGA3     0.090000        1.0080           0
     65530 WT22     1220     MECN     C2       CG1N1    0.360000       12.0110           0
     65531 WT22     1220     MECN     N3       NG1T1   -0.460000       14.0070           0
     65532 WT22     1222     MECN     C1       CG331   -0.170000       12.0110           0
     65533 WT22     1222     MECN     H11      HGA3     0.090000        1.0080           0
     65534 WT22     1222     MECN     H12      HGA3     0.090000        1.0080           0
     65535 WT22     1222     MECN     H13      HGA3     0.090000        1.0080           0
     65536 WT22     1222     MECN     C2       CG1N1    0.360000       12.0110           0
     65537 WT22     1222     MECN     N3       NG1T1   -0.460000       14.0070           0
     65538 WT22     1223     MECN     C1       CG331   -0.170000       12.0110           0
     65539 WT22     1223     MECN     H11      HGA3     0.090000        1.0080           0
     65540 WT22     1223     MECN     H12      HGA3     0.090000        1.0080           0
     65541 WT22     1223     MECN     H13      HGA3     0.090000        1.0080           0
     65542 WT22     1223     MECN     C2       CG1N1    0.360000       12.0110           0
     65543 WT22     1223     MECN     N3       NG1T1   -0.460000       14.0070           0
     65544 WT22     1229     MECN     C1       CG331   -0.170000       12.0110           0
     65545 WT22     1229     MECN     H11      HGA3     0.090000        1.0080           0
     65546 WT22     1229     MECN     H12      HGA3     0.090000        1.0080           0
     65547 WT22     1229     MECN     H13      HGA3     0.090000        1.0080           0
     65548 WT22     1229     MECN     C2       CG1N1    0.360000       12.0110           0
     65549 WT22     1229     MECN     N3       NG1T1   -0.460000       14.0070           0
     65550 WT22     1230     MECN     C1       CG331   -0.170000       12.0110           0
     65551 WT22     1230     MECN     H11      HGA3     0.090000        1.0080           0
     65552 WT22     1230     MECN     H12      HGA3     0.090000        1.0080           0
     65553 WT22     1230     MECN     H13      HGA3     0.090000        1.0080           0
     65554 WT22     1230     MECN     C2       CG1N1    0.360000       12.0110           0
     65555 WT22     1230     MECN     N3       NG1T1   -0.460000       14.0070           0
     65556 WT22     1236     MECN     C1       CG331   -0.170000       12.0110           0
     65557 WT22     1236     MECN     H11      HGA3     0.090000        1.0080           0
     65558 WT22     1236     MECN     H12      HGA3     0.090000        1.0080           0
     65559 WT22     1236     MECN     H13      HGA3     0.090000        1.0080           0
     65560 WT22     1236     MECN     C2       CG1N1    0.360000       12.0110           0
     65561 WT22     1236     MECN     N3       NG1T1   -0.460000       14.0070           0
     65562 WT22     1239     MECN     C1       CG331   -0.170000       12.0110           0
     65563 WT22     1239     MECN     H11      HGA3     0.090000        1.0080           0
     65564 WT22     1239     MECN     H12      HGA3     0.090000        1.0080           0
     65565 WT22     1239     MECN     H13      HGA3     0.090000        1.0080           0
     65566 WT22     1239     MECN     C2       CG1N1    0.360000       12.0110           0
     65567 WT22     1239     MECN     N3       NG1T1   -0.460000       14.0070           0
     65568 WT22     1249     MECN     C1       CG331   -0.170000       12.0110           0
     65569 WT22     1249     MECN     H11      HGA3     0.090000        1.0080           0
     65570 WT22     1249     MECN     H12      HGA3     0.090000        1.0080           0
     65571 WT22     1249     MECN     H13      HGA3     0.090000        1.0080           0
     65572 WT22     1249     MECN     C2       CG1N1    0.360000       12.0110           0
     65573 WT22     1249     MECN     N3       NG1T1   -0.460000       14.0070           0
     65574 WT22     1252     MECN     C1       CG331   -0.170000       12.0110           0
     65575 WT22     1252     MECN     H11      HGA3     0.090000        1.0080           0
     65576 WT22     1252     MECN     H12      HGA3     0.090000        1.0080           0
     65577 WT22     1252     MECN     H13      HGA3     0.090000        1.0080           0
     65578 WT22     1252     MECN     C2       CG1N1    0.360000       12.0110           0
     65579 WT22     1252     MECN     N3       NG1T1   -0.460000       14.0070           0
     65580 WT22     1253     MECN     C1       CG331   -0.170000       12.0110           0
     65581 WT22     1253     MECN     H11      HGA3     0.090000        1.0080           0
     65582 WT22     1253     MECN     H12      HGA3     0.090000        1.0080           0
     65583 WT22     1253     MECN     H13      HGA3     0.090000        1.0080           0
     65584 WT22     1253     MECN     C2       CG1N1    0.360000       12.0110           0
     65585 WT22     1253     MECN     N3       NG1T1   -0.460000       14.0070           0
     65586 WT22     1256     MECN     C1       CG331   -0.170000       12.0110           0
     65587 WT22     1256     MECN     H11      HGA3     0.090000        1.0080           0
     65588 WT22     1256     MECN     H12      HGA3     0.090000        1.0080           0
     65589 WT22     1256     MECN     H13      HGA3     0.090000        1.0080           0
     65590 WT22     1256     MECN     C2       CG1N1    0.360000       12.0110           0
     65591 WT22     1256     MECN     N3       NG1T1   -0.460000       14.0070           0
     65592 WT22     1257     MECN     C1       CG331   -0.170000       12.0110           0
     65593 WT22     1257     MECN     H11      HGA3     0.090000        1.0080           0
     65594 WT22     1257     MECN     H12      HGA3     0.090000        1.0080           0
     65595 WT22     1257     MECN     H13      HGA3     0.090000        1.0080           0
     65596 WT22     1257     MECN     C2       CG1N1    0.360000       12.0110           0
     65597 WT22     1257     MECN     N3       NG1T1   -0.460000       14.0070           0
     65598 WT22     1263     MECN     C1       CG331   -0.170000       12.0110           0
     65599 WT22     1263     MECN     H11      HGA3     0.090000        1.0080           0
     65600 WT22     1263     MECN     H12      HGA3     0.090000        1.0080           0
     65601 WT22     1263     MECN     H13      HGA3     0.090000        1.0080           0
     65602 WT22     1263     MECN     C2       CG1N1    0.360000       12.0110           0
     65603 WT22     1263     MECN     N3       NG1T1   -0.460000       14.0070           0
     65604 WT22     1264     MECN     C1       CG331   -0.170000       12.0110           0
     65605 WT22     1264     MECN     H11      HGA3     0.090000        1.0080           0
     65606 WT22     1264     MECN     H12      HGA3     0.090000        1.0080           0
     65607 WT22     1264     MECN     H13      HGA3     0.090000        1.0080           0
     65608 WT22     1264     MECN     C2       CG1N1    0.360000       12.0110           0
     65609 WT22     1264     MECN     N3       NG1T1   -0.460000       14.0070           0
     65610 WT22     1265     MECN     C1       CG331   -0.170000       12.0110           0
     65611 WT22     1265     MECN     H11      HGA3     0.090000        1.0080           0
     65612 WT22     1265     MECN     H12      HGA3     0.090000        1.0080           0
     65613 WT22     1265     MECN     H13      HGA3     0.090000        1.0080           0
     65614 WT22     1265     MECN     C2       CG1N1    0.360000       12.0110           0
     65615 WT22     1265     MECN     N3       NG1T1   -0.460000       14.0070           0
     65616 WT22     1269     MECN     C1       CG331   -0.170000       12.0110           0
     65617 WT22     1269     MECN     H11      HGA3     0.090000        1.0080           0
     65618 WT22     1269     MECN     H12      HGA3     0.090000        1.0080           0
     65619 WT22     1269     MECN     H13      HGA3     0.090000        1.0080           0
     65620 WT22     1269     MECN     C2       CG1N1    0.360000       12.0110           0
     65621 WT22     1269     MECN     N3       NG1T1   -0.460000       14.0070           0
     65622 WT22     1270     MECN     C1       CG331   -0.170000       12.0110           0
     65623 WT22     1270     MECN     H11      HGA3     0.090000        1.0080           0
     65624 WT22     1270     MECN     H12      HGA3     0.090000        1.0080           0
     65625 WT22     1270     MECN     H13      HGA3     0.090000        1.0080           0
     65626 WT22     1270     MECN     C2       CG1N1    0.360000       12.0110           0
     65627 WT22     1270     MECN     N3       NG1T1   -0.460000       14.0070           0
     65628 WT22     1271     MECN     C1       CG331   -0.170000       12.0110           0
     65629 WT22     1271     MECN     H11      HGA3     0.090000        1.0080           0
     65630 WT22     1271     MECN     H12      HGA3     0.090000        1.0080           0
     65631 WT22     1271     MECN     H13      HGA3     0.090000        1.0080           0
     65632 WT22     1271     MECN     C2       CG1N1    0.360000       12.0110           0
     65633 WT22     1271     MECN     N3       NG1T1   -0.460000       14.0070           0
     65634 WT22     1273     MECN     C1       CG331   -0.170000       12.0110           0
     65635 WT22     1273     MECN     H11      HGA3     0.090000        1.0080           0
     65636 WT22     1273     MECN     H12      HGA3     0.090000        1.0080           0
     65637 WT22     1273     MECN     H13      HGA3     0.090000        1.0080           0
     65638 WT22     1273     MECN     C2       CG1N1    0.360000       12.0110           0
     65639 WT22     1273     MECN     N3       NG1T1   -0.460000       14.0070           0
     65640 WT22     1274     MECN     C1       CG331   -0.170000       12.0110           0
     65641 WT22     1274     MECN     H11      HGA3     0.090000        1.0080           0
     65642 WT22     1274     MECN     H12      HGA3     0.090000        1.0080           0
     65643 WT22     1274     MECN     H13      HGA3     0.090000        1.0080           0
     65644 WT22     1274     MECN     C2       CG1N1    0.360000       12.0110           0
     65645 WT22     1274     MECN     N3       NG1T1   -0.460000       14.0070           0
     65646 WT22     1276     MECN     C1       CG331   -0.170000       12.0110           0
     65647 WT22     1276     MECN     H11      HGA3     0.090000        1.0080           0
     65648 WT22     1276     MECN     H12      HGA3     0.090000        1.0080           0
     65649 WT22     1276     MECN     H13      HGA3     0.090000        1.0080           0
     65650 WT22     1276     MECN     C2       CG1N1    0.360000       12.0110           0
     65651 WT22     1276     MECN     N3       NG1T1   -0.460000       14.0070           0
     65652 WT22     1287     MECN     C1       CG331   -0.170000       12.0110           0
     65653 WT22     1287     MECN     H11      HGA3     0.090000        1.0080           0
     65654 WT22     1287     MECN     H12      HGA3     0.090000        1.0080           0
     65655 WT22     1287     MECN     H13      HGA3     0.090000        1.0080           0
     65656 WT22     1287     MECN     C2       CG1N1    0.360000       12.0110           0
     65657 WT22     1287     MECN     N3       NG1T1   -0.460000       14.0070           0
     65658 WT22     1288     MECN     C1       CG331   -0.170000       12.0110           0
     65659 WT22     1288     MECN     H11      HGA3     0.090000        1.0080           0
     65660 WT22     1288     MECN     H12      HGA3     0.090000        1.0080           0
     65661 WT22     1288     MECN     H13      HGA3     0.090000        1.0080           0
     65662 WT22     1288     MECN     C2       CG1N1    0.360000       12.0110           0
     65663 WT22     1288     MECN     N3       NG1T1   -0.460000       14.0070           0
     65664 WT22     1289     MECN     C1       CG331   -0.170000       12.0110           0
     65665 WT22     1289     MECN     H11      HGA3     0.090000        1.0080           0
     65666 WT22     1289     MECN     H12      HGA3     0.090000        1.0080           0
     65667 WT22     1289     MECN     H13      HGA3     0.090000        1.0080           0
     65668 WT22     1289     MECN     C2       CG1N1    0.360000       12.0110           0
     65669 WT22     1289     MECN     N3       NG1T1   -0.460000       14.0070           0
     65670 WT22     1291     MECN     C1       CG331   -0.170000       12.0110           0
     65671 WT22     1291     MECN     H11      HGA3     0.090000        1.0080           0
     65672 WT22     1291     MECN     H12      HGA3     0.090000        1.0080           0
     65673 WT22     1291     MECN     H13      HGA3     0.090000        1.0080           0
     65674 WT22     1291     MECN     C2       CG1N1    0.360000       12.0110           0
     65675 WT22     1291     MECN     N3       NG1T1   -0.460000       14.0070           0
     65676 WT22     1292     MECN     C1       CG331   -0.170000       12.0110           0
     65677 WT22     1292     MECN     H11      HGA3     0.090000        1.0080           0
     65678 WT22     1292     MECN     H12      HGA3     0.090000        1.0080           0
     65679 WT22     1292     MECN     H13      HGA3     0.090000        1.0080           0
     65680 WT22     1292     MECN     C2       CG1N1    0.360000       12.0110           0
     65681 WT22     1292     MECN     N3       NG1T1   -0.460000       14.0070           0
     65682 WT22     1293     MECN     C1       CG331   -0.170000       12.0110           0
     65683 WT22     1293     MECN     H11      HGA3     0.090000        1.0080           0
     65684 WT22     1293     MECN     H12      HGA3     0.090000        1.0080           0
     65685 WT22     1293     MECN     H13      HGA3     0.090000        1.0080           0
     65686 WT22     1293     MECN     C2       CG1N1    0.360000       12.0110           0
     65687 WT22     1293     MECN     N3       NG1T1   -0.460000       14.0070           0
     65688 WT22     1295     MECN     C1       CG331   -0.170000       12.0110           0
     65689 WT22     1295     MECN     H11      HGA3     0.090000        1.0080           0
     65690 WT22     1295     MECN     H12      HGA3     0.090000        1.0080           0
     65691 WT22     1295     MECN     H13      HGA3     0.090000        1.0080           0
     65692 WT22     1295     MECN     C2       CG1N1    0.360000       12.0110           0
     65693 WT22     1295     MECN     N3       NG1T1   -0.460000       14.0070           0
     65694 WT22     1296     MECN     C1       CG331   -0.170000       12.0110           0
     65695 WT22     1296     MECN     H11      HGA3     0.090000        1.0080           0
     65696 WT22     1296     MECN     H12      HGA3     0.090000        1.0080           0
     65697 WT22     1296     MECN     H13      HGA3     0.090000        1.0080           0
     65698 WT22     1296     MECN     C2       CG1N1    0.360000       12.0110           0
     65699 WT22     1296     MECN     N3       NG1T1   -0.460000       14.0070           0
     65700 WT22     1298     MECN     C1       CG331   -0.170000       12.0110           0
     65701 WT22     1298     MECN     H11      HGA3     0.090000        1.0080           0
     65702 WT22     1298     MECN     H12      HGA3     0.090000        1.0080           0
     65703 WT22     1298     MECN     H13      HGA3     0.090000        1.0080           0
     65704 WT22     1298     MECN     C2       CG1N1    0.360000       12.0110           0
     65705 WT22     1298     MECN     N3       NG1T1   -0.460000       14.0070           0
     65706 WT22     1300     MECN     C1       CG331   -0.170000       12.0110           0
     65707 WT22     1300     MECN     H11      HGA3     0.090000        1.0080           0
     65708 WT22     1300     MECN     H12      HGA3     0.090000        1.0080           0
     65709 WT22     1300     MECN     H13      HGA3     0.090000        1.0080           0
     65710 WT22     1300     MECN     C2       CG1N1    0.360000       12.0110           0
     65711 WT22     1300     MECN     N3       NG1T1   -0.460000       14.0070           0
     65712 WT22     1305     MECN     C1       CG331   -0.170000       12.0110           0
     65713 WT22     1305     MECN     H11      HGA3     0.090000        1.0080           0
     65714 WT22     1305     MECN     H12      HGA3     0.090000        1.0080           0
     65715 WT22     1305     MECN     H13      HGA3     0.090000        1.0080           0
     65716 WT22     1305     MECN     C2       CG1N1    0.360000       12.0110           0
     65717 WT22     1305     MECN     N3       NG1T1   -0.460000       14.0070           0
     65718 WT22     1310     MECN     C1       CG331   -0.170000       12.0110           0
     65719 WT22     1310     MECN     H11      HGA3     0.090000        1.0080           0
     65720 WT22     1310     MECN     H12      HGA3     0.090000        1.0080           0
     65721 WT22     1310     MECN     H13      HGA3     0.090000        1.0080           0
     65722 WT22     1310     MECN     C2       CG1N1    0.360000       12.0110           0
     65723 WT22     1310     MECN     N3       NG1T1   -0.460000       14.0070           0
     65724 WT22     1322     MECN     C1       CG331   -0.170000       12.0110           0
     65725 WT22     1322     MECN     H11      HGA3     0.090000        1.0080           0
     65726 WT22     1322     MECN     H12      HGA3     0.090000        1.0080           0
     65727 WT22     1322     MECN     H13      HGA3     0.090000        1.0080           0
     65728 WT22     1322     MECN     C2       CG1N1    0.360000       12.0110           0
     65729 WT22     1322     MECN     N3       NG1T1   -0.460000       14.0070           0
     65730 WT22     1325     MECN     C1       CG331   -0.170000       12.0110           0
     65731 WT22     1325     MECN     H11      HGA3     0.090000        1.0080           0
     65732 WT22     1325     MECN     H12      HGA3     0.090000        1.0080           0
     65733 WT22     1325     MECN     H13      HGA3     0.090000        1.0080           0
     65734 WT22     1325     MECN     C2       CG1N1    0.360000       12.0110           0
     65735 WT22     1325     MECN     N3       NG1T1   -0.460000       14.0070           0
     65736 WT22     1328     MECN     C1       CG331   -0.170000       12.0110           0
     65737 WT22     1328     MECN     H11      HGA3     0.090000        1.0080           0
     65738 WT22     1328     MECN     H12      HGA3     0.090000        1.0080           0
     65739 WT22     1328     MECN     H13      HGA3     0.090000        1.0080           0
     65740 WT22     1328     MECN     C2       CG1N1    0.360000       12.0110           0
     65741 WT22     1328     MECN     N3       NG1T1   -0.460000       14.0070           0
     65742 WT23     5        MECN     C1       CG331   -0.170000       12.0110           0
     65743 WT23     5        MECN     H11      HGA3     0.090000        1.0080           0
     65744 WT23     5        MECN     H12      HGA3     0.090000        1.0080           0
     65745 WT23     5        MECN     H13      HGA3     0.090000        1.0080           0
     65746 WT23     5        MECN     C2       CG1N1    0.360000       12.0110           0
     65747 WT23     5        MECN     N3       NG1T1   -0.460000       14.0070           0
     65748 WT23     6        MECN     C1       CG331   -0.170000       12.0110           0
     65749 WT23     6        MECN     H11      HGA3     0.090000        1.0080           0
     65750 WT23     6        MECN     H12      HGA3     0.090000        1.0080           0
     65751 WT23     6        MECN     H13      HGA3     0.090000        1.0080           0
     65752 WT23     6        MECN     C2       CG1N1    0.360000       12.0110           0
     65753 WT23     6        MECN     N3       NG1T1   -0.460000       14.0070           0
     65754 WT23     7        MECN     C1       CG331   -0.170000       12.0110           0
     65755 WT23     7        MECN     H11      HGA3     0.090000        1.0080           0
     65756 WT23     7        MECN     H12      HGA3     0.090000        1.0080           0
     65757 WT23     7        MECN     H13      HGA3     0.090000        1.0080           0
     65758 WT23     7        MECN     C2       CG1N1    0.360000       12.0110           0
     65759 WT23     7        MECN     N3       NG1T1   -0.460000       14.0070           0
     65760 WT23     9        MECN     C1       CG331   -0.170000       12.0110           0
     65761 WT23     9        MECN     H11      HGA3     0.090000        1.0080           0
     65762 WT23     9        MECN     H12      HGA3     0.090000        1.0080           0
     65763 WT23     9        MECN     H13      HGA3     0.090000        1.0080           0
     65764 WT23     9        MECN     C2       CG1N1    0.360000       12.0110           0
     65765 WT23     9        MECN     N3       NG1T1   -0.460000       14.0070           0
     65766 WT23     10       MECN     C1       CG331   -0.170000       12.0110           0
     65767 WT23     10       MECN     H11      HGA3     0.090000        1.0080           0
     65768 WT23     10       MECN     H12      HGA3     0.090000        1.0080           0
     65769 WT23     10       MECN     H13      HGA3     0.090000        1.0080           0
     65770 WT23     10       MECN     C2       CG1N1    0.360000       12.0110           0
     65771 WT23     10       MECN     N3       NG1T1   -0.460000       14.0070           0
     65772 WT23     11       MECN     C1       CG331   -0.170000       12.0110           0
     65773 WT23     11       MECN     H11      HGA3     0.090000        1.0080           0
     65774 WT23     11       MECN     H12      HGA3     0.090000        1.0080           0
     65775 WT23     11       MECN     H13      HGA3     0.090000        1.0080           0
     65776 WT23     11       MECN     C2       CG1N1    0.360000       12.0110           0
     65777 WT23     11       MECN     N3       NG1T1   -0.460000       14.0070           0
     65778 WT23     13       MECN     C1       CG331   -0.170000       12.0110           0
     65779 WT23     13       MECN     H11      HGA3     0.090000        1.0080           0
     65780 WT23     13       MECN     H12      HGA3     0.090000        1.0080           0
     65781 WT23     13       MECN     H13      HGA3     0.090000        1.0080           0
     65782 WT23     13       MECN     C2       CG1N1    0.360000       12.0110           0
     65783 WT23     13       MECN     N3       NG1T1   -0.460000       14.0070           0
     65784 WT23     15       MECN     C1       CG331   -0.170000       12.0110           0
     65785 WT23     15       MECN     H11      HGA3     0.090000        1.0080           0
     65786 WT23     15       MECN     H12      HGA3     0.090000        1.0080           0
     65787 WT23     15       MECN     H13      HGA3     0.090000        1.0080           0
     65788 WT23     15       MECN     C2       CG1N1    0.360000       12.0110           0
     65789 WT23     15       MECN     N3       NG1T1   -0.460000       14.0070           0
     65790 WT23     18       MECN     C1       CG331   -0.170000       12.0110           0
     65791 WT23     18       MECN     H11      HGA3     0.090000        1.0080           0
     65792 WT23     18       MECN     H12      HGA3     0.090000        1.0080           0
     65793 WT23     18       MECN     H13      HGA3     0.090000        1.0080           0
     65794 WT23     18       MECN     C2       CG1N1    0.360000       12.0110           0
     65795 WT23     18       MECN     N3       NG1T1   -0.460000       14.0070           0
     65796 WT23     19       MECN     C1       CG331   -0.170000       12.0110           0
     65797 WT23     19       MECN     H11      HGA3     0.090000        1.0080           0
     65798 WT23     19       MECN     H12      HGA3     0.090000        1.0080           0
     65799 WT23     19       MECN     H13      HGA3     0.090000        1.0080           0
     65800 WT23     19       MECN     C2       CG1N1    0.360000       12.0110           0
     65801 WT23     19       MECN     N3       NG1T1   -0.460000       14.0070           0
     65802 WT23     20       MECN     C1       CG331   -0.170000       12.0110           0
     65803 WT23     20       MECN     H11      HGA3     0.090000        1.0080           0
     65804 WT23     20       MECN     H12      HGA3     0.090000        1.0080           0
     65805 WT23     20       MECN     H13      HGA3     0.090000        1.0080           0
     65806 WT23     20       MECN     C2       CG1N1    0.360000       12.0110           0
     65807 WT23     20       MECN     N3       NG1T1   -0.460000       14.0070           0
     65808 WT23     21       MECN     C1       CG331   -0.170000       12.0110           0
     65809 WT23     21       MECN     H11      HGA3     0.090000        1.0080           0
     65810 WT23     21       MECN     H12      HGA3     0.090000        1.0080           0
     65811 WT23     21       MECN     H13      HGA3     0.090000        1.0080           0
     65812 WT23     21       MECN     C2       CG1N1    0.360000       12.0110           0
     65813 WT23     21       MECN     N3       NG1T1   -0.460000       14.0070           0
     65814 WT23     23       MECN     C1       CG331   -0.170000       12.0110           0
     65815 WT23     23       MECN     H11      HGA3     0.090000        1.0080           0
     65816 WT23     23       MECN     H12      HGA3     0.090000        1.0080           0
     65817 WT23     23       MECN     H13      HGA3     0.090000        1.0080           0
     65818 WT23     23       MECN     C2       CG1N1    0.360000       12.0110           0
     65819 WT23     23       MECN     N3       NG1T1   -0.460000       14.0070           0
     65820 WT23     24       MECN     C1       CG331   -0.170000       12.0110           0
     65821 WT23     24       MECN     H11      HGA3     0.090000        1.0080           0
     65822 WT23     24       MECN     H12      HGA3     0.090000        1.0080           0
     65823 WT23     24       MECN     H13      HGA3     0.090000        1.0080           0
     65824 WT23     24       MECN     C2       CG1N1    0.360000       12.0110           0
     65825 WT23     24       MECN     N3       NG1T1   -0.460000       14.0070           0
     65826 WT23     27       MECN     C1       CG331   -0.170000       12.0110           0
     65827 WT23     27       MECN     H11      HGA3     0.090000        1.0080           0
     65828 WT23     27       MECN     H12      HGA3     0.090000        1.0080           0
     65829 WT23     27       MECN     H13      HGA3     0.090000        1.0080           0
     65830 WT23     27       MECN     C2       CG1N1    0.360000       12.0110           0
     65831 WT23     27       MECN     N3       NG1T1   -0.460000       14.0070           0
     65832 WT23     28       MECN     C1       CG331   -0.170000       12.0110           0
     65833 WT23     28       MECN     H11      HGA3     0.090000        1.0080           0
     65834 WT23     28       MECN     H12      HGA3     0.090000        1.0080           0
     65835 WT23     28       MECN     H13      HGA3     0.090000        1.0080           0
     65836 WT23     28       MECN     C2       CG1N1    0.360000       12.0110           0
     65837 WT23     28       MECN     N3       NG1T1   -0.460000       14.0070           0
     65838 WT23     29       MECN     C1       CG331   -0.170000       12.0110           0
     65839 WT23     29       MECN     H11      HGA3     0.090000        1.0080           0
     65840 WT23     29       MECN     H12      HGA3     0.090000        1.0080           0
     65841 WT23     29       MECN     H13      HGA3     0.090000        1.0080           0
     65842 WT23     29       MECN     C2       CG1N1    0.360000       12.0110           0
     65843 WT23     29       MECN     N3       NG1T1   -0.460000       14.0070           0
     65844 WT23     30       MECN     C1       CG331   -0.170000       12.0110           0
     65845 WT23     30       MECN     H11      HGA3     0.090000        1.0080           0
     65846 WT23     30       MECN     H12      HGA3     0.090000        1.0080           0
     65847 WT23     30       MECN     H13      HGA3     0.090000        1.0080           0
     65848 WT23     30       MECN     C2       CG1N1    0.360000       12.0110           0
     65849 WT23     30       MECN     N3       NG1T1   -0.460000       14.0070           0
     65850 WT23     32       MECN     C1       CG331   -0.170000       12.0110           0
     65851 WT23     32       MECN     H11      HGA3     0.090000        1.0080           0
     65852 WT23     32       MECN     H12      HGA3     0.090000        1.0080           0
     65853 WT23     32       MECN     H13      HGA3     0.090000        1.0080           0
     65854 WT23     32       MECN     C2       CG1N1    0.360000       12.0110           0
     65855 WT23     32       MECN     N3       NG1T1   -0.460000       14.0070           0
     65856 WT23     35       MECN     C1       CG331   -0.170000       12.0110           0
     65857 WT23     35       MECN     H11      HGA3     0.090000        1.0080           0
     65858 WT23     35       MECN     H12      HGA3     0.090000        1.0080           0
     65859 WT23     35       MECN     H13      HGA3     0.090000        1.0080           0
     65860 WT23     35       MECN     C2       CG1N1    0.360000       12.0110           0
     65861 WT23     35       MECN     N3       NG1T1   -0.460000       14.0070           0
     65862 WT23     36       MECN     C1       CG331   -0.170000       12.0110           0
     65863 WT23     36       MECN     H11      HGA3     0.090000        1.0080           0
     65864 WT23     36       MECN     H12      HGA3     0.090000        1.0080           0
     65865 WT23     36       MECN     H13      HGA3     0.090000        1.0080           0
     65866 WT23     36       MECN     C2       CG1N1    0.360000       12.0110           0
     65867 WT23     36       MECN     N3       NG1T1   -0.460000       14.0070           0
     65868 WT23     37       MECN     C1       CG331   -0.170000       12.0110           0
     65869 WT23     37       MECN     H11      HGA3     0.090000        1.0080           0
     65870 WT23     37       MECN     H12      HGA3     0.090000        1.0080           0
     65871 WT23     37       MECN     H13      HGA3     0.090000        1.0080           0
     65872 WT23     37       MECN     C2       CG1N1    0.360000       12.0110           0
     65873 WT23     37       MECN     N3       NG1T1   -0.460000       14.0070           0
     65874 WT23     40       MECN     C1       CG331   -0.170000       12.0110           0
     65875 WT23     40       MECN     H11      HGA3     0.090000        1.0080           0
     65876 WT23     40       MECN     H12      HGA3     0.090000        1.0080           0
     65877 WT23     40       MECN     H13      HGA3     0.090000        1.0080           0
     65878 WT23     40       MECN     C2       CG1N1    0.360000       12.0110           0
     65879 WT23     40       MECN     N3       NG1T1   -0.460000       14.0070           0
     65880 WT23     41       MECN     C1       CG331   -0.170000       12.0110           0
     65881 WT23     41       MECN     H11      HGA3     0.090000        1.0080           0
     65882 WT23     41       MECN     H12      HGA3     0.090000        1.0080           0
     65883 WT23     41       MECN     H13      HGA3     0.090000        1.0080           0
     65884 WT23     41       MECN     C2       CG1N1    0.360000       12.0110           0
     65885 WT23     41       MECN     N3       NG1T1   -0.460000       14.0070           0
     65886 WT23     43       MECN     C1       CG331   -0.170000       12.0110           0
     65887 WT23     43       MECN     H11      HGA3     0.090000        1.0080           0
     65888 WT23     43       MECN     H12      HGA3     0.090000        1.0080           0
     65889 WT23     43       MECN     H13      HGA3     0.090000        1.0080           0
     65890 WT23     43       MECN     C2       CG1N1    0.360000       12.0110           0
     65891 WT23     43       MECN     N3       NG1T1   -0.460000       14.0070           0
     65892 WT23     44       MECN     C1       CG331   -0.170000       12.0110           0
     65893 WT23     44       MECN     H11      HGA3     0.090000        1.0080           0
     65894 WT23     44       MECN     H12      HGA3     0.090000        1.0080           0
     65895 WT23     44       MECN     H13      HGA3     0.090000        1.0080           0
     65896 WT23     44       MECN     C2       CG1N1    0.360000       12.0110           0
     65897 WT23     44       MECN     N3       NG1T1   -0.460000       14.0070           0
     65898 WT23     45       MECN     C1       CG331   -0.170000       12.0110           0
     65899 WT23     45       MECN     H11      HGA3     0.090000        1.0080           0
     65900 WT23     45       MECN     H12      HGA3     0.090000        1.0080           0
     65901 WT23     45       MECN     H13      HGA3     0.090000        1.0080           0
     65902 WT23     45       MECN     C2       CG1N1    0.360000       12.0110           0
     65903 WT23     45       MECN     N3       NG1T1   -0.460000       14.0070           0
     65904 WT23     46       MECN     C1       CG331   -0.170000       12.0110           0
     65905 WT23     46       MECN     H11      HGA3     0.090000        1.0080           0
     65906 WT23     46       MECN     H12      HGA3     0.090000        1.0080           0
     65907 WT23     46       MECN     H13      HGA3     0.090000        1.0080           0
     65908 WT23     46       MECN     C2       CG1N1    0.360000       12.0110           0
     65909 WT23     46       MECN     N3       NG1T1   -0.460000       14.0070           0
     65910 WT23     47       MECN     C1       CG331   -0.170000       12.0110           0
     65911 WT23     47       MECN     H11      HGA3     0.090000        1.0080           0
     65912 WT23     47       MECN     H12      HGA3     0.090000        1.0080           0
     65913 WT23     47       MECN     H13      HGA3     0.090000        1.0080           0
     65914 WT23     47       MECN     C2       CG1N1    0.360000       12.0110           0
     65915 WT23     47       MECN     N3       NG1T1   -0.460000       14.0070           0
     65916 WT23     48       MECN     C1       CG331   -0.170000       12.0110           0
     65917 WT23     48       MECN     H11      HGA3     0.090000        1.0080           0
     65918 WT23     48       MECN     H12      HGA3     0.090000        1.0080           0
     65919 WT23     48       MECN     H13      HGA3     0.090000        1.0080           0
     65920 WT23     48       MECN     C2       CG1N1    0.360000       12.0110           0
     65921 WT23     48       MECN     N3       NG1T1   -0.460000       14.0070           0
     65922 WT23     49       MECN     C1       CG331   -0.170000       12.0110           0
     65923 WT23     49       MECN     H11      HGA3     0.090000        1.0080           0
     65924 WT23     49       MECN     H12      HGA3     0.090000        1.0080           0
     65925 WT23     49       MECN     H13      HGA3     0.090000        1.0080           0
     65926 WT23     49       MECN     C2       CG1N1    0.360000       12.0110           0
     65927 WT23     49       MECN     N3       NG1T1   -0.460000       14.0070           0
     65928 WT23     50       MECN     C1       CG331   -0.170000       12.0110           0
     65929 WT23     50       MECN     H11      HGA3     0.090000        1.0080           0
     65930 WT23     50       MECN     H12      HGA3     0.090000        1.0080           0
     65931 WT23     50       MECN     H13      HGA3     0.090000        1.0080           0
     65932 WT23     50       MECN     C2       CG1N1    0.360000       12.0110           0
     65933 WT23     50       MECN     N3       NG1T1   -0.460000       14.0070           0
     65934 WT23     52       MECN     C1       CG331   -0.170000       12.0110           0
     65935 WT23     52       MECN     H11      HGA3     0.090000        1.0080           0
     65936 WT23     52       MECN     H12      HGA3     0.090000        1.0080           0
     65937 WT23     52       MECN     H13      HGA3     0.090000        1.0080           0
     65938 WT23     52       MECN     C2       CG1N1    0.360000       12.0110           0
     65939 WT23     52       MECN     N3       NG1T1   -0.460000       14.0070           0
     65940 WT23     55       MECN     C1       CG331   -0.170000       12.0110           0
     65941 WT23     55       MECN     H11      HGA3     0.090000        1.0080           0
     65942 WT23     55       MECN     H12      HGA3     0.090000        1.0080           0
     65943 WT23     55       MECN     H13      HGA3     0.090000        1.0080           0
     65944 WT23     55       MECN     C2       CG1N1    0.360000       12.0110           0
     65945 WT23     55       MECN     N3       NG1T1   -0.460000       14.0070           0
     65946 WT23     56       MECN     C1       CG331   -0.170000       12.0110           0
     65947 WT23     56       MECN     H11      HGA3     0.090000        1.0080           0
     65948 WT23     56       MECN     H12      HGA3     0.090000        1.0080           0
     65949 WT23     56       MECN     H13      HGA3     0.090000        1.0080           0
     65950 WT23     56       MECN     C2       CG1N1    0.360000       12.0110           0
     65951 WT23     56       MECN     N3       NG1T1   -0.460000       14.0070           0
     65952 WT23     57       MECN     C1       CG331   -0.170000       12.0110           0
     65953 WT23     57       MECN     H11      HGA3     0.090000        1.0080           0
     65954 WT23     57       MECN     H12      HGA3     0.090000        1.0080           0
     65955 WT23     57       MECN     H13      HGA3     0.090000        1.0080           0
     65956 WT23     57       MECN     C2       CG1N1    0.360000       12.0110           0
     65957 WT23     57       MECN     N3       NG1T1   -0.460000       14.0070           0
     65958 WT23     59       MECN     C1       CG331   -0.170000       12.0110           0
     65959 WT23     59       MECN     H11      HGA3     0.090000        1.0080           0
     65960 WT23     59       MECN     H12      HGA3     0.090000        1.0080           0
     65961 WT23     59       MECN     H13      HGA3     0.090000        1.0080           0
     65962 WT23     59       MECN     C2       CG1N1    0.360000       12.0110           0
     65963 WT23     59       MECN     N3       NG1T1   -0.460000       14.0070           0
     65964 WT23     60       MECN     C1       CG331   -0.170000       12.0110           0
     65965 WT23     60       MECN     H11      HGA3     0.090000        1.0080           0
     65966 WT23     60       MECN     H12      HGA3     0.090000        1.0080           0
     65967 WT23     60       MECN     H13      HGA3     0.090000        1.0080           0
     65968 WT23     60       MECN     C2       CG1N1    0.360000       12.0110           0
     65969 WT23     60       MECN     N3       NG1T1   -0.460000       14.0070           0
     65970 WT23     61       MECN     C1       CG331   -0.170000       12.0110           0
     65971 WT23     61       MECN     H11      HGA3     0.090000        1.0080           0
     65972 WT23     61       MECN     H12      HGA3     0.090000        1.0080           0
     65973 WT23     61       MECN     H13      HGA3     0.090000        1.0080           0
     65974 WT23     61       MECN     C2       CG1N1    0.360000       12.0110           0
     65975 WT23     61       MECN     N3       NG1T1   -0.460000       14.0070           0
     65976 WT23     63       MECN     C1       CG331   -0.170000       12.0110           0
     65977 WT23     63       MECN     H11      HGA3     0.090000        1.0080           0
     65978 WT23     63       MECN     H12      HGA3     0.090000        1.0080           0
     65979 WT23     63       MECN     H13      HGA3     0.090000        1.0080           0
     65980 WT23     63       MECN     C2       CG1N1    0.360000       12.0110           0
     65981 WT23     63       MECN     N3       NG1T1   -0.460000       14.0070           0
     65982 WT23     64       MECN     C1       CG331   -0.170000       12.0110           0
     65983 WT23     64       MECN     H11      HGA3     0.090000        1.0080           0
     65984 WT23     64       MECN     H12      HGA3     0.090000        1.0080           0
     65985 WT23     64       MECN     H13      HGA3     0.090000        1.0080           0
     65986 WT23     64       MECN     C2       CG1N1    0.360000       12.0110           0
     65987 WT23     64       MECN     N3       NG1T1   -0.460000       14.0070           0
     65988 WT23     65       MECN     C1       CG331   -0.170000       12.0110           0
     65989 WT23     65       MECN     H11      HGA3     0.090000        1.0080           0
     65990 WT23     65       MECN     H12      HGA3     0.090000        1.0080           0
     65991 WT23     65       MECN     H13      HGA3     0.090000        1.0080           0
     65992 WT23     65       MECN     C2       CG1N1    0.360000       12.0110           0
     65993 WT23     65       MECN     N3       NG1T1   -0.460000       14.0070           0
     65994 WT23     66       MECN     C1       CG331   -0.170000       12.0110           0
     65995 WT23     66       MECN     H11      HGA3     0.090000        1.0080           0
     65996 WT23     66       MECN     H12      HGA3     0.090000        1.0080           0
     65997 WT23     66       MECN     H13      HGA3     0.090000        1.0080           0
     65998 WT23     66       MECN     C2       CG1N1    0.360000       12.0110           0
     65999 WT23     66       MECN     N3       NG1T1   -0.460000       14.0070           0
     66000 WT23     67       MECN     C1       CG331   -0.170000       12.0110           0
     66001 WT23     67       MECN     H11      HGA3     0.090000        1.0080           0
     66002 WT23     67       MECN     H12      HGA3     0.090000        1.0080           0
     66003 WT23     67       MECN     H13      HGA3     0.090000        1.0080           0
     66004 WT23     67       MECN     C2       CG1N1    0.360000       12.0110           0
     66005 WT23     67       MECN     N3       NG1T1   -0.460000       14.0070           0
     66006 WT23     68       MECN     C1       CG331   -0.170000       12.0110           0
     66007 WT23     68       MECN     H11      HGA3     0.090000        1.0080           0
     66008 WT23     68       MECN     H12      HGA3     0.090000        1.0080           0
     66009 WT23     68       MECN     H13      HGA3     0.090000        1.0080           0
     66010 WT23     68       MECN     C2       CG1N1    0.360000       12.0110           0
     66011 WT23     68       MECN     N3       NG1T1   -0.460000       14.0070           0
     66012 WT23     70       MECN     C1       CG331   -0.170000       12.0110           0
     66013 WT23     70       MECN     H11      HGA3     0.090000        1.0080           0
     66014 WT23     70       MECN     H12      HGA3     0.090000        1.0080           0
     66015 WT23     70       MECN     H13      HGA3     0.090000        1.0080           0
     66016 WT23     70       MECN     C2       CG1N1    0.360000       12.0110           0
     66017 WT23     70       MECN     N3       NG1T1   -0.460000       14.0070           0
     66018 WT23     71       MECN     C1       CG331   -0.170000       12.0110           0
     66019 WT23     71       MECN     H11      HGA3     0.090000        1.0080           0
     66020 WT23     71       MECN     H12      HGA3     0.090000        1.0080           0
     66021 WT23     71       MECN     H13      HGA3     0.090000        1.0080           0
     66022 WT23     71       MECN     C2       CG1N1    0.360000       12.0110           0
     66023 WT23     71       MECN     N3       NG1T1   -0.460000       14.0070           0
     66024 WT23     72       MECN     C1       CG331   -0.170000       12.0110           0
     66025 WT23     72       MECN     H11      HGA3     0.090000        1.0080           0
     66026 WT23     72       MECN     H12      HGA3     0.090000        1.0080           0
     66027 WT23     72       MECN     H13      HGA3     0.090000        1.0080           0
     66028 WT23     72       MECN     C2       CG1N1    0.360000       12.0110           0
     66029 WT23     72       MECN     N3       NG1T1   -0.460000       14.0070           0
     66030 WT23     75       MECN     C1       CG331   -0.170000       12.0110           0
     66031 WT23     75       MECN     H11      HGA3     0.090000        1.0080           0
     66032 WT23     75       MECN     H12      HGA3     0.090000        1.0080           0
     66033 WT23     75       MECN     H13      HGA3     0.090000        1.0080           0
     66034 WT23     75       MECN     C2       CG1N1    0.360000       12.0110           0
     66035 WT23     75       MECN     N3       NG1T1   -0.460000       14.0070           0
     66036 WT23     78       MECN     C1       CG331   -0.170000       12.0110           0
     66037 WT23     78       MECN     H11      HGA3     0.090000        1.0080           0
     66038 WT23     78       MECN     H12      HGA3     0.090000        1.0080           0
     66039 WT23     78       MECN     H13      HGA3     0.090000        1.0080           0
     66040 WT23     78       MECN     C2       CG1N1    0.360000       12.0110           0
     66041 WT23     78       MECN     N3       NG1T1   -0.460000       14.0070           0
     66042 WT23     79       MECN     C1       CG331   -0.170000       12.0110           0
     66043 WT23     79       MECN     H11      HGA3     0.090000        1.0080           0
     66044 WT23     79       MECN     H12      HGA3     0.090000        1.0080           0
     66045 WT23     79       MECN     H13      HGA3     0.090000        1.0080           0
     66046 WT23     79       MECN     C2       CG1N1    0.360000       12.0110           0
     66047 WT23     79       MECN     N3       NG1T1   -0.460000       14.0070           0
     66048 WT23     82       MECN     C1       CG331   -0.170000       12.0110           0
     66049 WT23     82       MECN     H11      HGA3     0.090000        1.0080           0
     66050 WT23     82       MECN     H12      HGA3     0.090000        1.0080           0
     66051 WT23     82       MECN     H13      HGA3     0.090000        1.0080           0
     66052 WT23     82       MECN     C2       CG1N1    0.360000       12.0110           0
     66053 WT23     82       MECN     N3       NG1T1   -0.460000       14.0070           0
     66054 WT23     83       MECN     C1       CG331   -0.170000       12.0110           0
     66055 WT23     83       MECN     H11      HGA3     0.090000        1.0080           0
     66056 WT23     83       MECN     H12      HGA3     0.090000        1.0080           0
     66057 WT23     83       MECN     H13      HGA3     0.090000        1.0080           0
     66058 WT23     83       MECN     C2       CG1N1    0.360000       12.0110           0
     66059 WT23     83       MECN     N3       NG1T1   -0.460000       14.0070           0
     66060 WT23     86       MECN     C1       CG331   -0.170000       12.0110           0
     66061 WT23     86       MECN     H11      HGA3     0.090000        1.0080           0
     66062 WT23     86       MECN     H12      HGA3     0.090000        1.0080           0
     66063 WT23     86       MECN     H13      HGA3     0.090000        1.0080           0
     66064 WT23     86       MECN     C2       CG1N1    0.360000       12.0110           0
     66065 WT23     86       MECN     N3       NG1T1   -0.460000       14.0070           0
     66066 WT23     88       MECN     C1       CG331   -0.170000       12.0110           0
     66067 WT23     88       MECN     H11      HGA3     0.090000        1.0080           0
     66068 WT23     88       MECN     H12      HGA3     0.090000        1.0080           0
     66069 WT23     88       MECN     H13      HGA3     0.090000        1.0080           0
     66070 WT23     88       MECN     C2       CG1N1    0.360000       12.0110           0
     66071 WT23     88       MECN     N3       NG1T1   -0.460000       14.0070           0
     66072 WT23     89       MECN     C1       CG331   -0.170000       12.0110           0
     66073 WT23     89       MECN     H11      HGA3     0.090000        1.0080           0
     66074 WT23     89       MECN     H12      HGA3     0.090000        1.0080           0
     66075 WT23     89       MECN     H13      HGA3     0.090000        1.0080           0
     66076 WT23     89       MECN     C2       CG1N1    0.360000       12.0110           0
     66077 WT23     89       MECN     N3       NG1T1   -0.460000       14.0070           0
     66078 WT23     90       MECN     C1       CG331   -0.170000       12.0110           0
     66079 WT23     90       MECN     H11      HGA3     0.090000        1.0080           0
     66080 WT23     90       MECN     H12      HGA3     0.090000        1.0080           0
     66081 WT23     90       MECN     H13      HGA3     0.090000        1.0080           0
     66082 WT23     90       MECN     C2       CG1N1    0.360000       12.0110           0
     66083 WT23     90       MECN     N3       NG1T1   -0.460000       14.0070           0
     66084 WT23     92       MECN     C1       CG331   -0.170000       12.0110           0
     66085 WT23     92       MECN     H11      HGA3     0.090000        1.0080           0
     66086 WT23     92       MECN     H12      HGA3     0.090000        1.0080           0
     66087 WT23     92       MECN     H13      HGA3     0.090000        1.0080           0
     66088 WT23     92       MECN     C2       CG1N1    0.360000       12.0110           0
     66089 WT23     92       MECN     N3       NG1T1   -0.460000       14.0070           0
     66090 WT23     93       MECN     C1       CG331   -0.170000       12.0110           0
     66091 WT23     93       MECN     H11      HGA3     0.090000        1.0080           0
     66092 WT23     93       MECN     H12      HGA3     0.090000        1.0080           0
     66093 WT23     93       MECN     H13      HGA3     0.090000        1.0080           0
     66094 WT23     93       MECN     C2       CG1N1    0.360000       12.0110           0
     66095 WT23     93       MECN     N3       NG1T1   -0.460000       14.0070           0
     66096 WT23     95       MECN     C1       CG331   -0.170000       12.0110           0
     66097 WT23     95       MECN     H11      HGA3     0.090000        1.0080           0
     66098 WT23     95       MECN     H12      HGA3     0.090000        1.0080           0
     66099 WT23     95       MECN     H13      HGA3     0.090000        1.0080           0
     66100 WT23     95       MECN     C2       CG1N1    0.360000       12.0110           0
     66101 WT23     95       MECN     N3       NG1T1   -0.460000       14.0070           0
     66102 WT23     97       MECN     C1       CG331   -0.170000       12.0110           0
     66103 WT23     97       MECN     H11      HGA3     0.090000        1.0080           0
     66104 WT23     97       MECN     H12      HGA3     0.090000        1.0080           0
     66105 WT23     97       MECN     H13      HGA3     0.090000        1.0080           0
     66106 WT23     97       MECN     C2       CG1N1    0.360000       12.0110           0
     66107 WT23     97       MECN     N3       NG1T1   -0.460000       14.0070           0
     66108 WT23     99       MECN     C1       CG331   -0.170000       12.0110           0
     66109 WT23     99       MECN     H11      HGA3     0.090000        1.0080           0
     66110 WT23     99       MECN     H12      HGA3     0.090000        1.0080           0
     66111 WT23     99       MECN     H13      HGA3     0.090000        1.0080           0
     66112 WT23     99       MECN     C2       CG1N1    0.360000       12.0110           0
     66113 WT23     99       MECN     N3       NG1T1   -0.460000       14.0070           0
     66114 WT23     104      MECN     C1       CG331   -0.170000       12.0110           0
     66115 WT23     104      MECN     H11      HGA3     0.090000        1.0080           0
     66116 WT23     104      MECN     H12      HGA3     0.090000        1.0080           0
     66117 WT23     104      MECN     H13      HGA3     0.090000        1.0080           0
     66118 WT23     104      MECN     C2       CG1N1    0.360000       12.0110           0
     66119 WT23     104      MECN     N3       NG1T1   -0.460000       14.0070           0
     66120 WT23     105      MECN     C1       CG331   -0.170000       12.0110           0
     66121 WT23     105      MECN     H11      HGA3     0.090000        1.0080           0
     66122 WT23     105      MECN     H12      HGA3     0.090000        1.0080           0
     66123 WT23     105      MECN     H13      HGA3     0.090000        1.0080           0
     66124 WT23     105      MECN     C2       CG1N1    0.360000       12.0110           0
     66125 WT23     105      MECN     N3       NG1T1   -0.460000       14.0070           0
     66126 WT23     106      MECN     C1       CG331   -0.170000       12.0110           0
     66127 WT23     106      MECN     H11      HGA3     0.090000        1.0080           0
     66128 WT23     106      MECN     H12      HGA3     0.090000        1.0080           0
     66129 WT23     106      MECN     H13      HGA3     0.090000        1.0080           0
     66130 WT23     106      MECN     C2       CG1N1    0.360000       12.0110           0
     66131 WT23     106      MECN     N3       NG1T1   -0.460000       14.0070           0
     66132 WT23     107      MECN     C1       CG331   -0.170000       12.0110           0
     66133 WT23     107      MECN     H11      HGA3     0.090000        1.0080           0
     66134 WT23     107      MECN     H12      HGA3     0.090000        1.0080           0
     66135 WT23     107      MECN     H13      HGA3     0.090000        1.0080           0
     66136 WT23     107      MECN     C2       CG1N1    0.360000       12.0110           0
     66137 WT23     107      MECN     N3       NG1T1   -0.460000       14.0070           0
     66138 WT23     111      MECN     C1       CG331   -0.170000       12.0110           0
     66139 WT23     111      MECN     H11      HGA3     0.090000        1.0080           0
     66140 WT23     111      MECN     H12      HGA3     0.090000        1.0080           0
     66141 WT23     111      MECN     H13      HGA3     0.090000        1.0080           0
     66142 WT23     111      MECN     C2       CG1N1    0.360000       12.0110           0
     66143 WT23     111      MECN     N3       NG1T1   -0.460000       14.0070           0
     66144 WT23     112      MECN     C1       CG331   -0.170000       12.0110           0
     66145 WT23     112      MECN     H11      HGA3     0.090000        1.0080           0
     66146 WT23     112      MECN     H12      HGA3     0.090000        1.0080           0
     66147 WT23     112      MECN     H13      HGA3     0.090000        1.0080           0
     66148 WT23     112      MECN     C2       CG1N1    0.360000       12.0110           0
     66149 WT23     112      MECN     N3       NG1T1   -0.460000       14.0070           0
     66150 WT23     113      MECN     C1       CG331   -0.170000       12.0110           0
     66151 WT23     113      MECN     H11      HGA3     0.090000        1.0080           0
     66152 WT23     113      MECN     H12      HGA3     0.090000        1.0080           0
     66153 WT23     113      MECN     H13      HGA3     0.090000        1.0080           0
     66154 WT23     113      MECN     C2       CG1N1    0.360000       12.0110           0
     66155 WT23     113      MECN     N3       NG1T1   -0.460000       14.0070           0
     66156 WT23     114      MECN     C1       CG331   -0.170000       12.0110           0
     66157 WT23     114      MECN     H11      HGA3     0.090000        1.0080           0
     66158 WT23     114      MECN     H12      HGA3     0.090000        1.0080           0
     66159 WT23     114      MECN     H13      HGA3     0.090000        1.0080           0
     66160 WT23     114      MECN     C2       CG1N1    0.360000       12.0110           0
     66161 WT23     114      MECN     N3       NG1T1   -0.460000       14.0070           0
     66162 WT23     115      MECN     C1       CG331   -0.170000       12.0110           0
     66163 WT23     115      MECN     H11      HGA3     0.090000        1.0080           0
     66164 WT23     115      MECN     H12      HGA3     0.090000        1.0080           0
     66165 WT23     115      MECN     H13      HGA3     0.090000        1.0080           0
     66166 WT23     115      MECN     C2       CG1N1    0.360000       12.0110           0
     66167 WT23     115      MECN     N3       NG1T1   -0.460000       14.0070           0
     66168 WT23     117      MECN     C1       CG331   -0.170000       12.0110           0
     66169 WT23     117      MECN     H11      HGA3     0.090000        1.0080           0
     66170 WT23     117      MECN     H12      HGA3     0.090000        1.0080           0
     66171 WT23     117      MECN     H13      HGA3     0.090000        1.0080           0
     66172 WT23     117      MECN     C2       CG1N1    0.360000       12.0110           0
     66173 WT23     117      MECN     N3       NG1T1   -0.460000       14.0070           0
     66174 WT23     118      MECN     C1       CG331   -0.170000       12.0110           0
     66175 WT23     118      MECN     H11      HGA3     0.090000        1.0080           0
     66176 WT23     118      MECN     H12      HGA3     0.090000        1.0080           0
     66177 WT23     118      MECN     H13      HGA3     0.090000        1.0080           0
     66178 WT23     118      MECN     C2       CG1N1    0.360000       12.0110           0
     66179 WT23     118      MECN     N3       NG1T1   -0.460000       14.0070           0
     66180 WT23     119      MECN     C1       CG331   -0.170000       12.0110           0
     66181 WT23     119      MECN     H11      HGA3     0.090000        1.0080           0
     66182 WT23     119      MECN     H12      HGA3     0.090000        1.0080           0
     66183 WT23     119      MECN     H13      HGA3     0.090000        1.0080           0
     66184 WT23     119      MECN     C2       CG1N1    0.360000       12.0110           0
     66185 WT23     119      MECN     N3       NG1T1   -0.460000       14.0070           0
     66186 WT23     121      MECN     C1       CG331   -0.170000       12.0110           0
     66187 WT23     121      MECN     H11      HGA3     0.090000        1.0080           0
     66188 WT23     121      MECN     H12      HGA3     0.090000        1.0080           0
     66189 WT23     121      MECN     H13      HGA3     0.090000        1.0080           0
     66190 WT23     121      MECN     C2       CG1N1    0.360000       12.0110           0
     66191 WT23     121      MECN     N3       NG1T1   -0.460000       14.0070           0
     66192 WT23     122      MECN     C1       CG331   -0.170000       12.0110           0
     66193 WT23     122      MECN     H11      HGA3     0.090000        1.0080           0
     66194 WT23     122      MECN     H12      HGA3     0.090000        1.0080           0
     66195 WT23     122      MECN     H13      HGA3     0.090000        1.0080           0
     66196 WT23     122      MECN     C2       CG1N1    0.360000       12.0110           0
     66197 WT23     122      MECN     N3       NG1T1   -0.460000       14.0070           0
     66198 WT23     123      MECN     C1       CG331   -0.170000       12.0110           0
     66199 WT23     123      MECN     H11      HGA3     0.090000        1.0080           0
     66200 WT23     123      MECN     H12      HGA3     0.090000        1.0080           0
     66201 WT23     123      MECN     H13      HGA3     0.090000        1.0080           0
     66202 WT23     123      MECN     C2       CG1N1    0.360000       12.0110           0
     66203 WT23     123      MECN     N3       NG1T1   -0.460000       14.0070           0
     66204 WT23     124      MECN     C1       CG331   -0.170000       12.0110           0
     66205 WT23     124      MECN     H11      HGA3     0.090000        1.0080           0
     66206 WT23     124      MECN     H12      HGA3     0.090000        1.0080           0
     66207 WT23     124      MECN     H13      HGA3     0.090000        1.0080           0
     66208 WT23     124      MECN     C2       CG1N1    0.360000       12.0110           0
     66209 WT23     124      MECN     N3       NG1T1   -0.460000       14.0070           0
     66210 WT23     126      MECN     C1       CG331   -0.170000       12.0110           0
     66211 WT23     126      MECN     H11      HGA3     0.090000        1.0080           0
     66212 WT23     126      MECN     H12      HGA3     0.090000        1.0080           0
     66213 WT23     126      MECN     H13      HGA3     0.090000        1.0080           0
     66214 WT23     126      MECN     C2       CG1N1    0.360000       12.0110           0
     66215 WT23     126      MECN     N3       NG1T1   -0.460000       14.0070           0
     66216 WT23     127      MECN     C1       CG331   -0.170000       12.0110           0
     66217 WT23     127      MECN     H11      HGA3     0.090000        1.0080           0
     66218 WT23     127      MECN     H12      HGA3     0.090000        1.0080           0
     66219 WT23     127      MECN     H13      HGA3     0.090000        1.0080           0
     66220 WT23     127      MECN     C2       CG1N1    0.360000       12.0110           0
     66221 WT23     127      MECN     N3       NG1T1   -0.460000       14.0070           0
     66222 WT23     128      MECN     C1       CG331   -0.170000       12.0110           0
     66223 WT23     128      MECN     H11      HGA3     0.090000        1.0080           0
     66224 WT23     128      MECN     H12      HGA3     0.090000        1.0080           0
     66225 WT23     128      MECN     H13      HGA3     0.090000        1.0080           0
     66226 WT23     128      MECN     C2       CG1N1    0.360000       12.0110           0
     66227 WT23     128      MECN     N3       NG1T1   -0.460000       14.0070           0
     66228 WT23     129      MECN     C1       CG331   -0.170000       12.0110           0
     66229 WT23     129      MECN     H11      HGA3     0.090000        1.0080           0
     66230 WT23     129      MECN     H12      HGA3     0.090000        1.0080           0
     66231 WT23     129      MECN     H13      HGA3     0.090000        1.0080           0
     66232 WT23     129      MECN     C2       CG1N1    0.360000       12.0110           0
     66233 WT23     129      MECN     N3       NG1T1   -0.460000       14.0070           0
     66234 WT23     130      MECN     C1       CG331   -0.170000       12.0110           0
     66235 WT23     130      MECN     H11      HGA3     0.090000        1.0080           0
     66236 WT23     130      MECN     H12      HGA3     0.090000        1.0080           0
     66237 WT23     130      MECN     H13      HGA3     0.090000        1.0080           0
     66238 WT23     130      MECN     C2       CG1N1    0.360000       12.0110           0
     66239 WT23     130      MECN     N3       NG1T1   -0.460000       14.0070           0
     66240 WT23     131      MECN     C1       CG331   -0.170000       12.0110           0
     66241 WT23     131      MECN     H11      HGA3     0.090000        1.0080           0
     66242 WT23     131      MECN     H12      HGA3     0.090000        1.0080           0
     66243 WT23     131      MECN     H13      HGA3     0.090000        1.0080           0
     66244 WT23     131      MECN     C2       CG1N1    0.360000       12.0110           0
     66245 WT23     131      MECN     N3       NG1T1   -0.460000       14.0070           0
     66246 WT23     133      MECN     C1       CG331   -0.170000       12.0110           0
     66247 WT23     133      MECN     H11      HGA3     0.090000        1.0080           0
     66248 WT23     133      MECN     H12      HGA3     0.090000        1.0080           0
     66249 WT23     133      MECN     H13      HGA3     0.090000        1.0080           0
     66250 WT23     133      MECN     C2       CG1N1    0.360000       12.0110           0
     66251 WT23     133      MECN     N3       NG1T1   -0.460000       14.0070           0
     66252 WT23     134      MECN     C1       CG331   -0.170000       12.0110           0
     66253 WT23     134      MECN     H11      HGA3     0.090000        1.0080           0
     66254 WT23     134      MECN     H12      HGA3     0.090000        1.0080           0
     66255 WT23     134      MECN     H13      HGA3     0.090000        1.0080           0
     66256 WT23     134      MECN     C2       CG1N1    0.360000       12.0110           0
     66257 WT23     134      MECN     N3       NG1T1   -0.460000       14.0070           0
     66258 WT23     135      MECN     C1       CG331   -0.170000       12.0110           0
     66259 WT23     135      MECN     H11      HGA3     0.090000        1.0080           0
     66260 WT23     135      MECN     H12      HGA3     0.090000        1.0080           0
     66261 WT23     135      MECN     H13      HGA3     0.090000        1.0080           0
     66262 WT23     135      MECN     C2       CG1N1    0.360000       12.0110           0
     66263 WT23     135      MECN     N3       NG1T1   -0.460000       14.0070           0
     66264 WT23     136      MECN     C1       CG331   -0.170000       12.0110           0
     66265 WT23     136      MECN     H11      HGA3     0.090000        1.0080           0
     66266 WT23     136      MECN     H12      HGA3     0.090000        1.0080           0
     66267 WT23     136      MECN     H13      HGA3     0.090000        1.0080           0
     66268 WT23     136      MECN     C2       CG1N1    0.360000       12.0110           0
     66269 WT23     136      MECN     N3       NG1T1   -0.460000       14.0070           0
     66270 WT23     137      MECN     C1       CG331   -0.170000       12.0110           0
     66271 WT23     137      MECN     H11      HGA3     0.090000        1.0080           0
     66272 WT23     137      MECN     H12      HGA3     0.090000        1.0080           0
     66273 WT23     137      MECN     H13      HGA3     0.090000        1.0080           0
     66274 WT23     137      MECN     C2       CG1N1    0.360000       12.0110           0
     66275 WT23     137      MECN     N3       NG1T1   -0.460000       14.0070           0
     66276 WT23     142      MECN     C1       CG331   -0.170000       12.0110           0
     66277 WT23     142      MECN     H11      HGA3     0.090000        1.0080           0
     66278 WT23     142      MECN     H12      HGA3     0.090000        1.0080           0
     66279 WT23     142      MECN     H13      HGA3     0.090000        1.0080           0
     66280 WT23     142      MECN     C2       CG1N1    0.360000       12.0110           0
     66281 WT23     142      MECN     N3       NG1T1   -0.460000       14.0070           0
     66282 WT23     143      MECN     C1       CG331   -0.170000       12.0110           0
     66283 WT23     143      MECN     H11      HGA3     0.090000        1.0080           0
     66284 WT23     143      MECN     H12      HGA3     0.090000        1.0080           0
     66285 WT23     143      MECN     H13      HGA3     0.090000        1.0080           0
     66286 WT23     143      MECN     C2       CG1N1    0.360000       12.0110           0
     66287 WT23     143      MECN     N3       NG1T1   -0.460000       14.0070           0
     66288 WT23     144      MECN     C1       CG331   -0.170000       12.0110           0
     66289 WT23     144      MECN     H11      HGA3     0.090000        1.0080           0
     66290 WT23     144      MECN     H12      HGA3     0.090000        1.0080           0
     66291 WT23     144      MECN     H13      HGA3     0.090000        1.0080           0
     66292 WT23     144      MECN     C2       CG1N1    0.360000       12.0110           0
     66293 WT23     144      MECN     N3       NG1T1   -0.460000       14.0070           0
     66294 WT23     145      MECN     C1       CG331   -0.170000       12.0110           0
     66295 WT23     145      MECN     H11      HGA3     0.090000        1.0080           0
     66296 WT23     145      MECN     H12      HGA3     0.090000        1.0080           0
     66297 WT23     145      MECN     H13      HGA3     0.090000        1.0080           0
     66298 WT23     145      MECN     C2       CG1N1    0.360000       12.0110           0
     66299 WT23     145      MECN     N3       NG1T1   -0.460000       14.0070           0
     66300 WT23     146      MECN     C1       CG331   -0.170000       12.0110           0
     66301 WT23     146      MECN     H11      HGA3     0.090000        1.0080           0
     66302 WT23     146      MECN     H12      HGA3     0.090000        1.0080           0
     66303 WT23     146      MECN     H13      HGA3     0.090000        1.0080           0
     66304 WT23     146      MECN     C2       CG1N1    0.360000       12.0110           0
     66305 WT23     146      MECN     N3       NG1T1   -0.460000       14.0070           0
     66306 WT23     147      MECN     C1       CG331   -0.170000       12.0110           0
     66307 WT23     147      MECN     H11      HGA3     0.090000        1.0080           0
     66308 WT23     147      MECN     H12      HGA3     0.090000        1.0080           0
     66309 WT23     147      MECN     H13      HGA3     0.090000        1.0080           0
     66310 WT23     147      MECN     C2       CG1N1    0.360000       12.0110           0
     66311 WT23     147      MECN     N3       NG1T1   -0.460000       14.0070           0
     66312 WT23     148      MECN     C1       CG331   -0.170000       12.0110           0
     66313 WT23     148      MECN     H11      HGA3     0.090000        1.0080           0
     66314 WT23     148      MECN     H12      HGA3     0.090000        1.0080           0
     66315 WT23     148      MECN     H13      HGA3     0.090000        1.0080           0
     66316 WT23     148      MECN     C2       CG1N1    0.360000       12.0110           0
     66317 WT23     148      MECN     N3       NG1T1   -0.460000       14.0070           0
     66318 WT23     149      MECN     C1       CG331   -0.170000       12.0110           0
     66319 WT23     149      MECN     H11      HGA3     0.090000        1.0080           0
     66320 WT23     149      MECN     H12      HGA3     0.090000        1.0080           0
     66321 WT23     149      MECN     H13      HGA3     0.090000        1.0080           0
     66322 WT23     149      MECN     C2       CG1N1    0.360000       12.0110           0
     66323 WT23     149      MECN     N3       NG1T1   -0.460000       14.0070           0
     66324 WT23     150      MECN     C1       CG331   -0.170000       12.0110           0
     66325 WT23     150      MECN     H11      HGA3     0.090000        1.0080           0
     66326 WT23     150      MECN     H12      HGA3     0.090000        1.0080           0
     66327 WT23     150      MECN     H13      HGA3     0.090000        1.0080           0
     66328 WT23     150      MECN     C2       CG1N1    0.360000       12.0110           0
     66329 WT23     150      MECN     N3       NG1T1   -0.460000       14.0070           0
     66330 WT23     152      MECN     C1       CG331   -0.170000       12.0110           0
     66331 WT23     152      MECN     H11      HGA3     0.090000        1.0080           0
     66332 WT23     152      MECN     H12      HGA3     0.090000        1.0080           0
     66333 WT23     152      MECN     H13      HGA3     0.090000        1.0080           0
     66334 WT23     152      MECN     C2       CG1N1    0.360000       12.0110           0
     66335 WT23     152      MECN     N3       NG1T1   -0.460000       14.0070           0
     66336 WT23     153      MECN     C1       CG331   -0.170000       12.0110           0
     66337 WT23     153      MECN     H11      HGA3     0.090000        1.0080           0
     66338 WT23     153      MECN     H12      HGA3     0.090000        1.0080           0
     66339 WT23     153      MECN     H13      HGA3     0.090000        1.0080           0
     66340 WT23     153      MECN     C2       CG1N1    0.360000       12.0110           0
     66341 WT23     153      MECN     N3       NG1T1   -0.460000       14.0070           0
     66342 WT23     154      MECN     C1       CG331   -0.170000       12.0110           0
     66343 WT23     154      MECN     H11      HGA3     0.090000        1.0080           0
     66344 WT23     154      MECN     H12      HGA3     0.090000        1.0080           0
     66345 WT23     154      MECN     H13      HGA3     0.090000        1.0080           0
     66346 WT23     154      MECN     C2       CG1N1    0.360000       12.0110           0
     66347 WT23     154      MECN     N3       NG1T1   -0.460000       14.0070           0
     66348 WT23     155      MECN     C1       CG331   -0.170000       12.0110           0
     66349 WT23     155      MECN     H11      HGA3     0.090000        1.0080           0
     66350 WT23     155      MECN     H12      HGA3     0.090000        1.0080           0
     66351 WT23     155      MECN     H13      HGA3     0.090000        1.0080           0
     66352 WT23     155      MECN     C2       CG1N1    0.360000       12.0110           0
     66353 WT23     155      MECN     N3       NG1T1   -0.460000       14.0070           0
     66354 WT23     157      MECN     C1       CG331   -0.170000       12.0110           0
     66355 WT23     157      MECN     H11      HGA3     0.090000        1.0080           0
     66356 WT23     157      MECN     H12      HGA3     0.090000        1.0080           0
     66357 WT23     157      MECN     H13      HGA3     0.090000        1.0080           0
     66358 WT23     157      MECN     C2       CG1N1    0.360000       12.0110           0
     66359 WT23     157      MECN     N3       NG1T1   -0.460000       14.0070           0
     66360 WT23     158      MECN     C1       CG331   -0.170000       12.0110           0
     66361 WT23     158      MECN     H11      HGA3     0.090000        1.0080           0
     66362 WT23     158      MECN     H12      HGA3     0.090000        1.0080           0
     66363 WT23     158      MECN     H13      HGA3     0.090000        1.0080           0
     66364 WT23     158      MECN     C2       CG1N1    0.360000       12.0110           0
     66365 WT23     158      MECN     N3       NG1T1   -0.460000       14.0070           0
     66366 WT23     159      MECN     C1       CG331   -0.170000       12.0110           0
     66367 WT23     159      MECN     H11      HGA3     0.090000        1.0080           0
     66368 WT23     159      MECN     H12      HGA3     0.090000        1.0080           0
     66369 WT23     159      MECN     H13      HGA3     0.090000        1.0080           0
     66370 WT23     159      MECN     C2       CG1N1    0.360000       12.0110           0
     66371 WT23     159      MECN     N3       NG1T1   -0.460000       14.0070           0
     66372 WT23     162      MECN     C1       CG331   -0.170000       12.0110           0
     66373 WT23     162      MECN     H11      HGA3     0.090000        1.0080           0
     66374 WT23     162      MECN     H12      HGA3     0.090000        1.0080           0
     66375 WT23     162      MECN     H13      HGA3     0.090000        1.0080           0
     66376 WT23     162      MECN     C2       CG1N1    0.360000       12.0110           0
     66377 WT23     162      MECN     N3       NG1T1   -0.460000       14.0070           0
     66378 WT23     163      MECN     C1       CG331   -0.170000       12.0110           0
     66379 WT23     163      MECN     H11      HGA3     0.090000        1.0080           0
     66380 WT23     163      MECN     H12      HGA3     0.090000        1.0080           0
     66381 WT23     163      MECN     H13      HGA3     0.090000        1.0080           0
     66382 WT23     163      MECN     C2       CG1N1    0.360000       12.0110           0
     66383 WT23     163      MECN     N3       NG1T1   -0.460000       14.0070           0
     66384 WT23     164      MECN     C1       CG331   -0.170000       12.0110           0
     66385 WT23     164      MECN     H11      HGA3     0.090000        1.0080           0
     66386 WT23     164      MECN     H12      HGA3     0.090000        1.0080           0
     66387 WT23     164      MECN     H13      HGA3     0.090000        1.0080           0
     66388 WT23     164      MECN     C2       CG1N1    0.360000       12.0110           0
     66389 WT23     164      MECN     N3       NG1T1   -0.460000       14.0070           0
     66390 WT23     165      MECN     C1       CG331   -0.170000       12.0110           0
     66391 WT23     165      MECN     H11      HGA3     0.090000        1.0080           0
     66392 WT23     165      MECN     H12      HGA3     0.090000        1.0080           0
     66393 WT23     165      MECN     H13      HGA3     0.090000        1.0080           0
     66394 WT23     165      MECN     C2       CG1N1    0.360000       12.0110           0
     66395 WT23     165      MECN     N3       NG1T1   -0.460000       14.0070           0
     66396 WT23     166      MECN     C1       CG331   -0.170000       12.0110           0
     66397 WT23     166      MECN     H11      HGA3     0.090000        1.0080           0
     66398 WT23     166      MECN     H12      HGA3     0.090000        1.0080           0
     66399 WT23     166      MECN     H13      HGA3     0.090000        1.0080           0
     66400 WT23     166      MECN     C2       CG1N1    0.360000       12.0110           0
     66401 WT23     166      MECN     N3       NG1T1   -0.460000       14.0070           0
     66402 WT23     167      MECN     C1       CG331   -0.170000       12.0110           0
     66403 WT23     167      MECN     H11      HGA3     0.090000        1.0080           0
     66404 WT23     167      MECN     H12      HGA3     0.090000        1.0080           0
     66405 WT23     167      MECN     H13      HGA3     0.090000        1.0080           0
     66406 WT23     167      MECN     C2       CG1N1    0.360000       12.0110           0
     66407 WT23     167      MECN     N3       NG1T1   -0.460000       14.0070           0
     66408 WT23     168      MECN     C1       CG331   -0.170000       12.0110           0
     66409 WT23     168      MECN     H11      HGA3     0.090000        1.0080           0
     66410 WT23     168      MECN     H12      HGA3     0.090000        1.0080           0
     66411 WT23     168      MECN     H13      HGA3     0.090000        1.0080           0
     66412 WT23     168      MECN     C2       CG1N1    0.360000       12.0110           0
     66413 WT23     168      MECN     N3       NG1T1   -0.460000       14.0070           0
     66414 WT23     173      MECN     C1       CG331   -0.170000       12.0110           0
     66415 WT23     173      MECN     H11      HGA3     0.090000        1.0080           0
     66416 WT23     173      MECN     H12      HGA3     0.090000        1.0080           0
     66417 WT23     173      MECN     H13      HGA3     0.090000        1.0080           0
     66418 WT23     173      MECN     C2       CG1N1    0.360000       12.0110           0
     66419 WT23     173      MECN     N3       NG1T1   -0.460000       14.0070           0
     66420 WT23     175      MECN     C1       CG331   -0.170000       12.0110           0
     66421 WT23     175      MECN     H11      HGA3     0.090000        1.0080           0
     66422 WT23     175      MECN     H12      HGA3     0.090000        1.0080           0
     66423 WT23     175      MECN     H13      HGA3     0.090000        1.0080           0
     66424 WT23     175      MECN     C2       CG1N1    0.360000       12.0110           0
     66425 WT23     175      MECN     N3       NG1T1   -0.460000       14.0070           0
     66426 WT23     178      MECN     C1       CG331   -0.170000       12.0110           0
     66427 WT23     178      MECN     H11      HGA3     0.090000        1.0080           0
     66428 WT23     178      MECN     H12      HGA3     0.090000        1.0080           0
     66429 WT23     178      MECN     H13      HGA3     0.090000        1.0080           0
     66430 WT23     178      MECN     C2       CG1N1    0.360000       12.0110           0
     66431 WT23     178      MECN     N3       NG1T1   -0.460000       14.0070           0
     66432 WT23     179      MECN     C1       CG331   -0.170000       12.0110           0
     66433 WT23     179      MECN     H11      HGA3     0.090000        1.0080           0
     66434 WT23     179      MECN     H12      HGA3     0.090000        1.0080           0
     66435 WT23     179      MECN     H13      HGA3     0.090000        1.0080           0
     66436 WT23     179      MECN     C2       CG1N1    0.360000       12.0110           0
     66437 WT23     179      MECN     N3       NG1T1   -0.460000       14.0070           0
     66438 WT23     181      MECN     C1       CG331   -0.170000       12.0110           0
     66439 WT23     181      MECN     H11      HGA3     0.090000        1.0080           0
     66440 WT23     181      MECN     H12      HGA3     0.090000        1.0080           0
     66441 WT23     181      MECN     H13      HGA3     0.090000        1.0080           0
     66442 WT23     181      MECN     C2       CG1N1    0.360000       12.0110           0
     66443 WT23     181      MECN     N3       NG1T1   -0.460000       14.0070           0
     66444 WT23     184      MECN     C1       CG331   -0.170000       12.0110           0
     66445 WT23     184      MECN     H11      HGA3     0.090000        1.0080           0
     66446 WT23     184      MECN     H12      HGA3     0.090000        1.0080           0
     66447 WT23     184      MECN     H13      HGA3     0.090000        1.0080           0
     66448 WT23     184      MECN     C2       CG1N1    0.360000       12.0110           0
     66449 WT23     184      MECN     N3       NG1T1   -0.460000       14.0070           0
     66450 WT23     186      MECN     C1       CG331   -0.170000       12.0110           0
     66451 WT23     186      MECN     H11      HGA3     0.090000        1.0080           0
     66452 WT23     186      MECN     H12      HGA3     0.090000        1.0080           0
     66453 WT23     186      MECN     H13      HGA3     0.090000        1.0080           0
     66454 WT23     186      MECN     C2       CG1N1    0.360000       12.0110           0
     66455 WT23     186      MECN     N3       NG1T1   -0.460000       14.0070           0
     66456 WT23     189      MECN     C1       CG331   -0.170000       12.0110           0
     66457 WT23     189      MECN     H11      HGA3     0.090000        1.0080           0
     66458 WT23     189      MECN     H12      HGA3     0.090000        1.0080           0
     66459 WT23     189      MECN     H13      HGA3     0.090000        1.0080           0
     66460 WT23     189      MECN     C2       CG1N1    0.360000       12.0110           0
     66461 WT23     189      MECN     N3       NG1T1   -0.460000       14.0070           0
     66462 WT23     190      MECN     C1       CG331   -0.170000       12.0110           0
     66463 WT23     190      MECN     H11      HGA3     0.090000        1.0080           0
     66464 WT23     190      MECN     H12      HGA3     0.090000        1.0080           0
     66465 WT23     190      MECN     H13      HGA3     0.090000        1.0080           0
     66466 WT23     190      MECN     C2       CG1N1    0.360000       12.0110           0
     66467 WT23     190      MECN     N3       NG1T1   -0.460000       14.0070           0
     66468 WT23     191      MECN     C1       CG331   -0.170000       12.0110           0
     66469 WT23     191      MECN     H11      HGA3     0.090000        1.0080           0
     66470 WT23     191      MECN     H12      HGA3     0.090000        1.0080           0
     66471 WT23     191      MECN     H13      HGA3     0.090000        1.0080           0
     66472 WT23     191      MECN     C2       CG1N1    0.360000       12.0110           0
     66473 WT23     191      MECN     N3       NG1T1   -0.460000       14.0070           0
     66474 WT23     192      MECN     C1       CG331   -0.170000       12.0110           0
     66475 WT23     192      MECN     H11      HGA3     0.090000        1.0080           0
     66476 WT23     192      MECN     H12      HGA3     0.090000        1.0080           0
     66477 WT23     192      MECN     H13      HGA3     0.090000        1.0080           0
     66478 WT23     192      MECN     C2       CG1N1    0.360000       12.0110           0
     66479 WT23     192      MECN     N3       NG1T1   -0.460000       14.0070           0
     66480 WT23     196      MECN     C1       CG331   -0.170000       12.0110           0
     66481 WT23     196      MECN     H11      HGA3     0.090000        1.0080           0
     66482 WT23     196      MECN     H12      HGA3     0.090000        1.0080           0
     66483 WT23     196      MECN     H13      HGA3     0.090000        1.0080           0
     66484 WT23     196      MECN     C2       CG1N1    0.360000       12.0110           0
     66485 WT23     196      MECN     N3       NG1T1   -0.460000       14.0070           0
     66486 WT23     198      MECN     C1       CG331   -0.170000       12.0110           0
     66487 WT23     198      MECN     H11      HGA3     0.090000        1.0080           0
     66488 WT23     198      MECN     H12      HGA3     0.090000        1.0080           0
     66489 WT23     198      MECN     H13      HGA3     0.090000        1.0080           0
     66490 WT23     198      MECN     C2       CG1N1    0.360000       12.0110           0
     66491 WT23     198      MECN     N3       NG1T1   -0.460000       14.0070           0
     66492 WT23     199      MECN     C1       CG331   -0.170000       12.0110           0
     66493 WT23     199      MECN     H11      HGA3     0.090000        1.0080           0
     66494 WT23     199      MECN     H12      HGA3     0.090000        1.0080           0
     66495 WT23     199      MECN     H13      HGA3     0.090000        1.0080           0
     66496 WT23     199      MECN     C2       CG1N1    0.360000       12.0110           0
     66497 WT23     199      MECN     N3       NG1T1   -0.460000       14.0070           0
     66498 WT23     202      MECN     C1       CG331   -0.170000       12.0110           0
     66499 WT23     202      MECN     H11      HGA3     0.090000        1.0080           0
     66500 WT23     202      MECN     H12      HGA3     0.090000        1.0080           0
     66501 WT23     202      MECN     H13      HGA3     0.090000        1.0080           0
     66502 WT23     202      MECN     C2       CG1N1    0.360000       12.0110           0
     66503 WT23     202      MECN     N3       NG1T1   -0.460000       14.0070           0
     66504 WT23     203      MECN     C1       CG331   -0.170000       12.0110           0
     66505 WT23     203      MECN     H11      HGA3     0.090000        1.0080           0
     66506 WT23     203      MECN     H12      HGA3     0.090000        1.0080           0
     66507 WT23     203      MECN     H13      HGA3     0.090000        1.0080           0
     66508 WT23     203      MECN     C2       CG1N1    0.360000       12.0110           0
     66509 WT23     203      MECN     N3       NG1T1   -0.460000       14.0070           0
     66510 WT23     204      MECN     C1       CG331   -0.170000       12.0110           0
     66511 WT23     204      MECN     H11      HGA3     0.090000        1.0080           0
     66512 WT23     204      MECN     H12      HGA3     0.090000        1.0080           0
     66513 WT23     204      MECN     H13      HGA3     0.090000        1.0080           0
     66514 WT23     204      MECN     C2       CG1N1    0.360000       12.0110           0
     66515 WT23     204      MECN     N3       NG1T1   -0.460000       14.0070           0
     66516 WT23     205      MECN     C1       CG331   -0.170000       12.0110           0
     66517 WT23     205      MECN     H11      HGA3     0.090000        1.0080           0
     66518 WT23     205      MECN     H12      HGA3     0.090000        1.0080           0
     66519 WT23     205      MECN     H13      HGA3     0.090000        1.0080           0
     66520 WT23     205      MECN     C2       CG1N1    0.360000       12.0110           0
     66521 WT23     205      MECN     N3       NG1T1   -0.460000       14.0070           0
     66522 WT23     207      MECN     C1       CG331   -0.170000       12.0110           0
     66523 WT23     207      MECN     H11      HGA3     0.090000        1.0080           0
     66524 WT23     207      MECN     H12      HGA3     0.090000        1.0080           0
     66525 WT23     207      MECN     H13      HGA3     0.090000        1.0080           0
     66526 WT23     207      MECN     C2       CG1N1    0.360000       12.0110           0
     66527 WT23     207      MECN     N3       NG1T1   -0.460000       14.0070           0
     66528 WT23     208      MECN     C1       CG331   -0.170000       12.0110           0
     66529 WT23     208      MECN     H11      HGA3     0.090000        1.0080           0
     66530 WT23     208      MECN     H12      HGA3     0.090000        1.0080           0
     66531 WT23     208      MECN     H13      HGA3     0.090000        1.0080           0
     66532 WT23     208      MECN     C2       CG1N1    0.360000       12.0110           0
     66533 WT23     208      MECN     N3       NG1T1   -0.460000       14.0070           0
     66534 WT23     209      MECN     C1       CG331   -0.170000       12.0110           0
     66535 WT23     209      MECN     H11      HGA3     0.090000        1.0080           0
     66536 WT23     209      MECN     H12      HGA3     0.090000        1.0080           0
     66537 WT23     209      MECN     H13      HGA3     0.090000        1.0080           0
     66538 WT23     209      MECN     C2       CG1N1    0.360000       12.0110           0
     66539 WT23     209      MECN     N3       NG1T1   -0.460000       14.0070           0
     66540 WT23     210      MECN     C1       CG331   -0.170000       12.0110           0
     66541 WT23     210      MECN     H11      HGA3     0.090000        1.0080           0
     66542 WT23     210      MECN     H12      HGA3     0.090000        1.0080           0
     66543 WT23     210      MECN     H13      HGA3     0.090000        1.0080           0
     66544 WT23     210      MECN     C2       CG1N1    0.360000       12.0110           0
     66545 WT23     210      MECN     N3       NG1T1   -0.460000       14.0070           0
     66546 WT23     212      MECN     C1       CG331   -0.170000       12.0110           0
     66547 WT23     212      MECN     H11      HGA3     0.090000        1.0080           0
     66548 WT23     212      MECN     H12      HGA3     0.090000        1.0080           0
     66549 WT23     212      MECN     H13      HGA3     0.090000        1.0080           0
     66550 WT23     212      MECN     C2       CG1N1    0.360000       12.0110           0
     66551 WT23     212      MECN     N3       NG1T1   -0.460000       14.0070           0
     66552 WT23     216      MECN     C1       CG331   -0.170000       12.0110           0
     66553 WT23     216      MECN     H11      HGA3     0.090000        1.0080           0
     66554 WT23     216      MECN     H12      HGA3     0.090000        1.0080           0
     66555 WT23     216      MECN     H13      HGA3     0.090000        1.0080           0
     66556 WT23     216      MECN     C2       CG1N1    0.360000       12.0110           0
     66557 WT23     216      MECN     N3       NG1T1   -0.460000       14.0070           0
     66558 WT23     217      MECN     C1       CG331   -0.170000       12.0110           0
     66559 WT23     217      MECN     H11      HGA3     0.090000        1.0080           0
     66560 WT23     217      MECN     H12      HGA3     0.090000        1.0080           0
     66561 WT23     217      MECN     H13      HGA3     0.090000        1.0080           0
     66562 WT23     217      MECN     C2       CG1N1    0.360000       12.0110           0
     66563 WT23     217      MECN     N3       NG1T1   -0.460000       14.0070           0
     66564 WT23     218      MECN     C1       CG331   -0.170000       12.0110           0
     66565 WT23     218      MECN     H11      HGA3     0.090000        1.0080           0
     66566 WT23     218      MECN     H12      HGA3     0.090000        1.0080           0
     66567 WT23     218      MECN     H13      HGA3     0.090000        1.0080           0
     66568 WT23     218      MECN     C2       CG1N1    0.360000       12.0110           0
     66569 WT23     218      MECN     N3       NG1T1   -0.460000       14.0070           0
     66570 WT23     219      MECN     C1       CG331   -0.170000       12.0110           0
     66571 WT23     219      MECN     H11      HGA3     0.090000        1.0080           0
     66572 WT23     219      MECN     H12      HGA3     0.090000        1.0080           0
     66573 WT23     219      MECN     H13      HGA3     0.090000        1.0080           0
     66574 WT23     219      MECN     C2       CG1N1    0.360000       12.0110           0
     66575 WT23     219      MECN     N3       NG1T1   -0.460000       14.0070           0
     66576 WT23     221      MECN     C1       CG331   -0.170000       12.0110           0
     66577 WT23     221      MECN     H11      HGA3     0.090000        1.0080           0
     66578 WT23     221      MECN     H12      HGA3     0.090000        1.0080           0
     66579 WT23     221      MECN     H13      HGA3     0.090000        1.0080           0
     66580 WT23     221      MECN     C2       CG1N1    0.360000       12.0110           0
     66581 WT23     221      MECN     N3       NG1T1   -0.460000       14.0070           0
     66582 WT23     223      MECN     C1       CG331   -0.170000       12.0110           0
     66583 WT23     223      MECN     H11      HGA3     0.090000        1.0080           0
     66584 WT23     223      MECN     H12      HGA3     0.090000        1.0080           0
     66585 WT23     223      MECN     H13      HGA3     0.090000        1.0080           0
     66586 WT23     223      MECN     C2       CG1N1    0.360000       12.0110           0
     66587 WT23     223      MECN     N3       NG1T1   -0.460000       14.0070           0
     66588 WT23     229      MECN     C1       CG331   -0.170000       12.0110           0
     66589 WT23     229      MECN     H11      HGA3     0.090000        1.0080           0
     66590 WT23     229      MECN     H12      HGA3     0.090000        1.0080           0
     66591 WT23     229      MECN     H13      HGA3     0.090000        1.0080           0
     66592 WT23     229      MECN     C2       CG1N1    0.360000       12.0110           0
     66593 WT23     229      MECN     N3       NG1T1   -0.460000       14.0070           0
     66594 WT23     230      MECN     C1       CG331   -0.170000       12.0110           0
     66595 WT23     230      MECN     H11      HGA3     0.090000        1.0080           0
     66596 WT23     230      MECN     H12      HGA3     0.090000        1.0080           0
     66597 WT23     230      MECN     H13      HGA3     0.090000        1.0080           0
     66598 WT23     230      MECN     C2       CG1N1    0.360000       12.0110           0
     66599 WT23     230      MECN     N3       NG1T1   -0.460000       14.0070           0
     66600 WT23     231      MECN     C1       CG331   -0.170000       12.0110           0
     66601 WT23     231      MECN     H11      HGA3     0.090000        1.0080           0
     66602 WT23     231      MECN     H12      HGA3     0.090000        1.0080           0
     66603 WT23     231      MECN     H13      HGA3     0.090000        1.0080           0
     66604 WT23     231      MECN     C2       CG1N1    0.360000       12.0110           0
     66605 WT23     231      MECN     N3       NG1T1   -0.460000       14.0070           0
     66606 WT23     232      MECN     C1       CG331   -0.170000       12.0110           0
     66607 WT23     232      MECN     H11      HGA3     0.090000        1.0080           0
     66608 WT23     232      MECN     H12      HGA3     0.090000        1.0080           0
     66609 WT23     232      MECN     H13      HGA3     0.090000        1.0080           0
     66610 WT23     232      MECN     C2       CG1N1    0.360000       12.0110           0
     66611 WT23     232      MECN     N3       NG1T1   -0.460000       14.0070           0
     66612 WT23     235      MECN     C1       CG331   -0.170000       12.0110           0
     66613 WT23     235      MECN     H11      HGA3     0.090000        1.0080           0
     66614 WT23     235      MECN     H12      HGA3     0.090000        1.0080           0
     66615 WT23     235      MECN     H13      HGA3     0.090000        1.0080           0
     66616 WT23     235      MECN     C2       CG1N1    0.360000       12.0110           0
     66617 WT23     235      MECN     N3       NG1T1   -0.460000       14.0070           0
     66618 WT23     239      MECN     C1       CG331   -0.170000       12.0110           0
     66619 WT23     239      MECN     H11      HGA3     0.090000        1.0080           0
     66620 WT23     239      MECN     H12      HGA3     0.090000        1.0080           0
     66621 WT23     239      MECN     H13      HGA3     0.090000        1.0080           0
     66622 WT23     239      MECN     C2       CG1N1    0.360000       12.0110           0
     66623 WT23     239      MECN     N3       NG1T1   -0.460000       14.0070           0
     66624 WT23     241      MECN     C1       CG331   -0.170000       12.0110           0
     66625 WT23     241      MECN     H11      HGA3     0.090000        1.0080           0
     66626 WT23     241      MECN     H12      HGA3     0.090000        1.0080           0
     66627 WT23     241      MECN     H13      HGA3     0.090000        1.0080           0
     66628 WT23     241      MECN     C2       CG1N1    0.360000       12.0110           0
     66629 WT23     241      MECN     N3       NG1T1   -0.460000       14.0070           0
     66630 WT23     243      MECN     C1       CG331   -0.170000       12.0110           0
     66631 WT23     243      MECN     H11      HGA3     0.090000        1.0080           0
     66632 WT23     243      MECN     H12      HGA3     0.090000        1.0080           0
     66633 WT23     243      MECN     H13      HGA3     0.090000        1.0080           0
     66634 WT23     243      MECN     C2       CG1N1    0.360000       12.0110           0
     66635 WT23     243      MECN     N3       NG1T1   -0.460000       14.0070           0
     66636 WT23     244      MECN     C1       CG331   -0.170000       12.0110           0
     66637 WT23     244      MECN     H11      HGA3     0.090000        1.0080           0
     66638 WT23     244      MECN     H12      HGA3     0.090000        1.0080           0
     66639 WT23     244      MECN     H13      HGA3     0.090000        1.0080           0
     66640 WT23     244      MECN     C2       CG1N1    0.360000       12.0110           0
     66641 WT23     244      MECN     N3       NG1T1   -0.460000       14.0070           0
     66642 WT23     246      MECN     C1       CG331   -0.170000       12.0110           0
     66643 WT23     246      MECN     H11      HGA3     0.090000        1.0080           0
     66644 WT23     246      MECN     H12      HGA3     0.090000        1.0080           0
     66645 WT23     246      MECN     H13      HGA3     0.090000        1.0080           0
     66646 WT23     246      MECN     C2       CG1N1    0.360000       12.0110           0
     66647 WT23     246      MECN     N3       NG1T1   -0.460000       14.0070           0
     66648 WT23     247      MECN     C1       CG331   -0.170000       12.0110           0
     66649 WT23     247      MECN     H11      HGA3     0.090000        1.0080           0
     66650 WT23     247      MECN     H12      HGA3     0.090000        1.0080           0
     66651 WT23     247      MECN     H13      HGA3     0.090000        1.0080           0
     66652 WT23     247      MECN     C2       CG1N1    0.360000       12.0110           0
     66653 WT23     247      MECN     N3       NG1T1   -0.460000       14.0070           0
     66654 WT23     248      MECN     C1       CG331   -0.170000       12.0110           0
     66655 WT23     248      MECN     H11      HGA3     0.090000        1.0080           0
     66656 WT23     248      MECN     H12      HGA3     0.090000        1.0080           0
     66657 WT23     248      MECN     H13      HGA3     0.090000        1.0080           0
     66658 WT23     248      MECN     C2       CG1N1    0.360000       12.0110           0
     66659 WT23     248      MECN     N3       NG1T1   -0.460000       14.0070           0
     66660 WT23     249      MECN     C1       CG331   -0.170000       12.0110           0
     66661 WT23     249      MECN     H11      HGA3     0.090000        1.0080           0
     66662 WT23     249      MECN     H12      HGA3     0.090000        1.0080           0
     66663 WT23     249      MECN     H13      HGA3     0.090000        1.0080           0
     66664 WT23     249      MECN     C2       CG1N1    0.360000       12.0110           0
     66665 WT23     249      MECN     N3       NG1T1   -0.460000       14.0070           0
     66666 WT23     250      MECN     C1       CG331   -0.170000       12.0110           0
     66667 WT23     250      MECN     H11      HGA3     0.090000        1.0080           0
     66668 WT23     250      MECN     H12      HGA3     0.090000        1.0080           0
     66669 WT23     250      MECN     H13      HGA3     0.090000        1.0080           0
     66670 WT23     250      MECN     C2       CG1N1    0.360000       12.0110           0
     66671 WT23     250      MECN     N3       NG1T1   -0.460000       14.0070           0
     66672 WT23     252      MECN     C1       CG331   -0.170000       12.0110           0
     66673 WT23     252      MECN     H11      HGA3     0.090000        1.0080           0
     66674 WT23     252      MECN     H12      HGA3     0.090000        1.0080           0
     66675 WT23     252      MECN     H13      HGA3     0.090000        1.0080           0
     66676 WT23     252      MECN     C2       CG1N1    0.360000       12.0110           0
     66677 WT23     252      MECN     N3       NG1T1   -0.460000       14.0070           0
     66678 WT23     253      MECN     C1       CG331   -0.170000       12.0110           0
     66679 WT23     253      MECN     H11      HGA3     0.090000        1.0080           0
     66680 WT23     253      MECN     H12      HGA3     0.090000        1.0080           0
     66681 WT23     253      MECN     H13      HGA3     0.090000        1.0080           0
     66682 WT23     253      MECN     C2       CG1N1    0.360000       12.0110           0
     66683 WT23     253      MECN     N3       NG1T1   -0.460000       14.0070           0
     66684 WT23     254      MECN     C1       CG331   -0.170000       12.0110           0
     66685 WT23     254      MECN     H11      HGA3     0.090000        1.0080           0
     66686 WT23     254      MECN     H12      HGA3     0.090000        1.0080           0
     66687 WT23     254      MECN     H13      HGA3     0.090000        1.0080           0
     66688 WT23     254      MECN     C2       CG1N1    0.360000       12.0110           0
     66689 WT23     254      MECN     N3       NG1T1   -0.460000       14.0070           0
     66690 WT23     256      MECN     C1       CG331   -0.170000       12.0110           0
     66691 WT23     256      MECN     H11      HGA3     0.090000        1.0080           0
     66692 WT23     256      MECN     H12      HGA3     0.090000        1.0080           0
     66693 WT23     256      MECN     H13      HGA3     0.090000        1.0080           0
     66694 WT23     256      MECN     C2       CG1N1    0.360000       12.0110           0
     66695 WT23     256      MECN     N3       NG1T1   -0.460000       14.0070           0
     66696 WT23     258      MECN     C1       CG331   -0.170000       12.0110           0
     66697 WT23     258      MECN     H11      HGA3     0.090000        1.0080           0
     66698 WT23     258      MECN     H12      HGA3     0.090000        1.0080           0
     66699 WT23     258      MECN     H13      HGA3     0.090000        1.0080           0
     66700 WT23     258      MECN     C2       CG1N1    0.360000       12.0110           0
     66701 WT23     258      MECN     N3       NG1T1   -0.460000       14.0070           0
     66702 WT23     260      MECN     C1       CG331   -0.170000       12.0110           0
     66703 WT23     260      MECN     H11      HGA3     0.090000        1.0080           0
     66704 WT23     260      MECN     H12      HGA3     0.090000        1.0080           0
     66705 WT23     260      MECN     H13      HGA3     0.090000        1.0080           0
     66706 WT23     260      MECN     C2       CG1N1    0.360000       12.0110           0
     66707 WT23     260      MECN     N3       NG1T1   -0.460000       14.0070           0
     66708 WT23     263      MECN     C1       CG331   -0.170000       12.0110           0
     66709 WT23     263      MECN     H11      HGA3     0.090000        1.0080           0
     66710 WT23     263      MECN     H12      HGA3     0.090000        1.0080           0
     66711 WT23     263      MECN     H13      HGA3     0.090000        1.0080           0
     66712 WT23     263      MECN     C2       CG1N1    0.360000       12.0110           0
     66713 WT23     263      MECN     N3       NG1T1   -0.460000       14.0070           0
     66714 WT23     264      MECN     C1       CG331   -0.170000       12.0110           0
     66715 WT23     264      MECN     H11      HGA3     0.090000        1.0080           0
     66716 WT23     264      MECN     H12      HGA3     0.090000        1.0080           0
     66717 WT23     264      MECN     H13      HGA3     0.090000        1.0080           0
     66718 WT23     264      MECN     C2       CG1N1    0.360000       12.0110           0
     66719 WT23     264      MECN     N3       NG1T1   -0.460000       14.0070           0
     66720 WT23     265      MECN     C1       CG331   -0.170000       12.0110           0
     66721 WT23     265      MECN     H11      HGA3     0.090000        1.0080           0
     66722 WT23     265      MECN     H12      HGA3     0.090000        1.0080           0
     66723 WT23     265      MECN     H13      HGA3     0.090000        1.0080           0
     66724 WT23     265      MECN     C2       CG1N1    0.360000       12.0110           0
     66725 WT23     265      MECN     N3       NG1T1   -0.460000       14.0070           0
     66726 WT23     266      MECN     C1       CG331   -0.170000       12.0110           0
     66727 WT23     266      MECN     H11      HGA3     0.090000        1.0080           0
     66728 WT23     266      MECN     H12      HGA3     0.090000        1.0080           0
     66729 WT23     266      MECN     H13      HGA3     0.090000        1.0080           0
     66730 WT23     266      MECN     C2       CG1N1    0.360000       12.0110           0
     66731 WT23     266      MECN     N3       NG1T1   -0.460000       14.0070           0
     66732 WT23     269      MECN     C1       CG331   -0.170000       12.0110           0
     66733 WT23     269      MECN     H11      HGA3     0.090000        1.0080           0
     66734 WT23     269      MECN     H12      HGA3     0.090000        1.0080           0
     66735 WT23     269      MECN     H13      HGA3     0.090000        1.0080           0
     66736 WT23     269      MECN     C2       CG1N1    0.360000       12.0110           0
     66737 WT23     269      MECN     N3       NG1T1   -0.460000       14.0070           0
     66738 WT23     270      MECN     C1       CG331   -0.170000       12.0110           0
     66739 WT23     270      MECN     H11      HGA3     0.090000        1.0080           0
     66740 WT23     270      MECN     H12      HGA3     0.090000        1.0080           0
     66741 WT23     270      MECN     H13      HGA3     0.090000        1.0080           0
     66742 WT23     270      MECN     C2       CG1N1    0.360000       12.0110           0
     66743 WT23     270      MECN     N3       NG1T1   -0.460000       14.0070           0
     66744 WT23     271      MECN     C1       CG331   -0.170000       12.0110           0
     66745 WT23     271      MECN     H11      HGA3     0.090000        1.0080           0
     66746 WT23     271      MECN     H12      HGA3     0.090000        1.0080           0
     66747 WT23     271      MECN     H13      HGA3     0.090000        1.0080           0
     66748 WT23     271      MECN     C2       CG1N1    0.360000       12.0110           0
     66749 WT23     271      MECN     N3       NG1T1   -0.460000       14.0070           0
     66750 WT23     272      MECN     C1       CG331   -0.170000       12.0110           0
     66751 WT23     272      MECN     H11      HGA3     0.090000        1.0080           0
     66752 WT23     272      MECN     H12      HGA3     0.090000        1.0080           0
     66753 WT23     272      MECN     H13      HGA3     0.090000        1.0080           0
     66754 WT23     272      MECN     C2       CG1N1    0.360000       12.0110           0
     66755 WT23     272      MECN     N3       NG1T1   -0.460000       14.0070           0
     66756 WT23     274      MECN     C1       CG331   -0.170000       12.0110           0
     66757 WT23     274      MECN     H11      HGA3     0.090000        1.0080           0
     66758 WT23     274      MECN     H12      HGA3     0.090000        1.0080           0
     66759 WT23     274      MECN     H13      HGA3     0.090000        1.0080           0
     66760 WT23     274      MECN     C2       CG1N1    0.360000       12.0110           0
     66761 WT23     274      MECN     N3       NG1T1   -0.460000       14.0070           0
     66762 WT23     275      MECN     C1       CG331   -0.170000       12.0110           0
     66763 WT23     275      MECN     H11      HGA3     0.090000        1.0080           0
     66764 WT23     275      MECN     H12      HGA3     0.090000        1.0080           0
     66765 WT23     275      MECN     H13      HGA3     0.090000        1.0080           0
     66766 WT23     275      MECN     C2       CG1N1    0.360000       12.0110           0
     66767 WT23     275      MECN     N3       NG1T1   -0.460000       14.0070           0
     66768 WT23     276      MECN     C1       CG331   -0.170000       12.0110           0
     66769 WT23     276      MECN     H11      HGA3     0.090000        1.0080           0
     66770 WT23     276      MECN     H12      HGA3     0.090000        1.0080           0
     66771 WT23     276      MECN     H13      HGA3     0.090000        1.0080           0
     66772 WT23     276      MECN     C2       CG1N1    0.360000       12.0110           0
     66773 WT23     276      MECN     N3       NG1T1   -0.460000       14.0070           0
     66774 WT23     278      MECN     C1       CG331   -0.170000       12.0110           0
     66775 WT23     278      MECN     H11      HGA3     0.090000        1.0080           0
     66776 WT23     278      MECN     H12      HGA3     0.090000        1.0080           0
     66777 WT23     278      MECN     H13      HGA3     0.090000        1.0080           0
     66778 WT23     278      MECN     C2       CG1N1    0.360000       12.0110           0
     66779 WT23     278      MECN     N3       NG1T1   -0.460000       14.0070           0
     66780 WT23     279      MECN     C1       CG331   -0.170000       12.0110           0
     66781 WT23     279      MECN     H11      HGA3     0.090000        1.0080           0
     66782 WT23     279      MECN     H12      HGA3     0.090000        1.0080           0
     66783 WT23     279      MECN     H13      HGA3     0.090000        1.0080           0
     66784 WT23     279      MECN     C2       CG1N1    0.360000       12.0110           0
     66785 WT23     279      MECN     N3       NG1T1   -0.460000       14.0070           0
     66786 WT23     280      MECN     C1       CG331   -0.170000       12.0110           0
     66787 WT23     280      MECN     H11      HGA3     0.090000        1.0080           0
     66788 WT23     280      MECN     H12      HGA3     0.090000        1.0080           0
     66789 WT23     280      MECN     H13      HGA3     0.090000        1.0080           0
     66790 WT23     280      MECN     C2       CG1N1    0.360000       12.0110           0
     66791 WT23     280      MECN     N3       NG1T1   -0.460000       14.0070           0
     66792 WT23     281      MECN     C1       CG331   -0.170000       12.0110           0
     66793 WT23     281      MECN     H11      HGA3     0.090000        1.0080           0
     66794 WT23     281      MECN     H12      HGA3     0.090000        1.0080           0
     66795 WT23     281      MECN     H13      HGA3     0.090000        1.0080           0
     66796 WT23     281      MECN     C2       CG1N1    0.360000       12.0110           0
     66797 WT23     281      MECN     N3       NG1T1   -0.460000       14.0070           0
     66798 WT23     283      MECN     C1       CG331   -0.170000       12.0110           0
     66799 WT23     283      MECN     H11      HGA3     0.090000        1.0080           0
     66800 WT23     283      MECN     H12      HGA3     0.090000        1.0080           0
     66801 WT23     283      MECN     H13      HGA3     0.090000        1.0080           0
     66802 WT23     283      MECN     C2       CG1N1    0.360000       12.0110           0
     66803 WT23     283      MECN     N3       NG1T1   -0.460000       14.0070           0
     66804 WT23     284      MECN     C1       CG331   -0.170000       12.0110           0
     66805 WT23     284      MECN     H11      HGA3     0.090000        1.0080           0
     66806 WT23     284      MECN     H12      HGA3     0.090000        1.0080           0
     66807 WT23     284      MECN     H13      HGA3     0.090000        1.0080           0
     66808 WT23     284      MECN     C2       CG1N1    0.360000       12.0110           0
     66809 WT23     284      MECN     N3       NG1T1   -0.460000       14.0070           0
     66810 WT23     286      MECN     C1       CG331   -0.170000       12.0110           0
     66811 WT23     286      MECN     H11      HGA3     0.090000        1.0080           0
     66812 WT23     286      MECN     H12      HGA3     0.090000        1.0080           0
     66813 WT23     286      MECN     H13      HGA3     0.090000        1.0080           0
     66814 WT23     286      MECN     C2       CG1N1    0.360000       12.0110           0
     66815 WT23     286      MECN     N3       NG1T1   -0.460000       14.0070           0
     66816 WT23     288      MECN     C1       CG331   -0.170000       12.0110           0
     66817 WT23     288      MECN     H11      HGA3     0.090000        1.0080           0
     66818 WT23     288      MECN     H12      HGA3     0.090000        1.0080           0
     66819 WT23     288      MECN     H13      HGA3     0.090000        1.0080           0
     66820 WT23     288      MECN     C2       CG1N1    0.360000       12.0110           0
     66821 WT23     288      MECN     N3       NG1T1   -0.460000       14.0070           0
     66822 WT23     290      MECN     C1       CG331   -0.170000       12.0110           0
     66823 WT23     290      MECN     H11      HGA3     0.090000        1.0080           0
     66824 WT23     290      MECN     H12      HGA3     0.090000        1.0080           0
     66825 WT23     290      MECN     H13      HGA3     0.090000        1.0080           0
     66826 WT23     290      MECN     C2       CG1N1    0.360000       12.0110           0
     66827 WT23     290      MECN     N3       NG1T1   -0.460000       14.0070           0
     66828 WT23     292      MECN     C1       CG331   -0.170000       12.0110           0
     66829 WT23     292      MECN     H11      HGA3     0.090000        1.0080           0
     66830 WT23     292      MECN     H12      HGA3     0.090000        1.0080           0
     66831 WT23     292      MECN     H13      HGA3     0.090000        1.0080           0
     66832 WT23     292      MECN     C2       CG1N1    0.360000       12.0110           0
     66833 WT23     292      MECN     N3       NG1T1   -0.460000       14.0070           0
     66834 WT23     294      MECN     C1       CG331   -0.170000       12.0110           0
     66835 WT23     294      MECN     H11      HGA3     0.090000        1.0080           0
     66836 WT23     294      MECN     H12      HGA3     0.090000        1.0080           0
     66837 WT23     294      MECN     H13      HGA3     0.090000        1.0080           0
     66838 WT23     294      MECN     C2       CG1N1    0.360000       12.0110           0
     66839 WT23     294      MECN     N3       NG1T1   -0.460000       14.0070           0
     66840 WT23     297      MECN     C1       CG331   -0.170000       12.0110           0
     66841 WT23     297      MECN     H11      HGA3     0.090000        1.0080           0
     66842 WT23     297      MECN     H12      HGA3     0.090000        1.0080           0
     66843 WT23     297      MECN     H13      HGA3     0.090000        1.0080           0
     66844 WT23     297      MECN     C2       CG1N1    0.360000       12.0110           0
     66845 WT23     297      MECN     N3       NG1T1   -0.460000       14.0070           0
     66846 WT23     300      MECN     C1       CG331   -0.170000       12.0110           0
     66847 WT23     300      MECN     H11      HGA3     0.090000        1.0080           0
     66848 WT23     300      MECN     H12      HGA3     0.090000        1.0080           0
     66849 WT23     300      MECN     H13      HGA3     0.090000        1.0080           0
     66850 WT23     300      MECN     C2       CG1N1    0.360000       12.0110           0
     66851 WT23     300      MECN     N3       NG1T1   -0.460000       14.0070           0
     66852 WT23     301      MECN     C1       CG331   -0.170000       12.0110           0
     66853 WT23     301      MECN     H11      HGA3     0.090000        1.0080           0
     66854 WT23     301      MECN     H12      HGA3     0.090000        1.0080           0
     66855 WT23     301      MECN     H13      HGA3     0.090000        1.0080           0
     66856 WT23     301      MECN     C2       CG1N1    0.360000       12.0110           0
     66857 WT23     301      MECN     N3       NG1T1   -0.460000       14.0070           0
     66858 WT23     303      MECN     C1       CG331   -0.170000       12.0110           0
     66859 WT23     303      MECN     H11      HGA3     0.090000        1.0080           0
     66860 WT23     303      MECN     H12      HGA3     0.090000        1.0080           0
     66861 WT23     303      MECN     H13      HGA3     0.090000        1.0080           0
     66862 WT23     303      MECN     C2       CG1N1    0.360000       12.0110           0
     66863 WT23     303      MECN     N3       NG1T1   -0.460000       14.0070           0
     66864 WT23     304      MECN     C1       CG331   -0.170000       12.0110           0
     66865 WT23     304      MECN     H11      HGA3     0.090000        1.0080           0
     66866 WT23     304      MECN     H12      HGA3     0.090000        1.0080           0
     66867 WT23     304      MECN     H13      HGA3     0.090000        1.0080           0
     66868 WT23     304      MECN     C2       CG1N1    0.360000       12.0110           0
     66869 WT23     304      MECN     N3       NG1T1   -0.460000       14.0070           0
     66870 WT23     305      MECN     C1       CG331   -0.170000       12.0110           0
     66871 WT23     305      MECN     H11      HGA3     0.090000        1.0080           0
     66872 WT23     305      MECN     H12      HGA3     0.090000        1.0080           0
     66873 WT23     305      MECN     H13      HGA3     0.090000        1.0080           0
     66874 WT23     305      MECN     C2       CG1N1    0.360000       12.0110           0
     66875 WT23     305      MECN     N3       NG1T1   -0.460000       14.0070           0
     66876 WT23     307      MECN     C1       CG331   -0.170000       12.0110           0
     66877 WT23     307      MECN     H11      HGA3     0.090000        1.0080           0
     66878 WT23     307      MECN     H12      HGA3     0.090000        1.0080           0
     66879 WT23     307      MECN     H13      HGA3     0.090000        1.0080           0
     66880 WT23     307      MECN     C2       CG1N1    0.360000       12.0110           0
     66881 WT23     307      MECN     N3       NG1T1   -0.460000       14.0070           0
     66882 WT23     309      MECN     C1       CG331   -0.170000       12.0110           0
     66883 WT23     309      MECN     H11      HGA3     0.090000        1.0080           0
     66884 WT23     309      MECN     H12      HGA3     0.090000        1.0080           0
     66885 WT23     309      MECN     H13      HGA3     0.090000        1.0080           0
     66886 WT23     309      MECN     C2       CG1N1    0.360000       12.0110           0
     66887 WT23     309      MECN     N3       NG1T1   -0.460000       14.0070           0
     66888 WT23     310      MECN     C1       CG331   -0.170000       12.0110           0
     66889 WT23     310      MECN     H11      HGA3     0.090000        1.0080           0
     66890 WT23     310      MECN     H12      HGA3     0.090000        1.0080           0
     66891 WT23     310      MECN     H13      HGA3     0.090000        1.0080           0
     66892 WT23     310      MECN     C2       CG1N1    0.360000       12.0110           0
     66893 WT23     310      MECN     N3       NG1T1   -0.460000       14.0070           0
     66894 WT23     311      MECN     C1       CG331   -0.170000       12.0110           0
     66895 WT23     311      MECN     H11      HGA3     0.090000        1.0080           0
     66896 WT23     311      MECN     H12      HGA3     0.090000        1.0080           0
     66897 WT23     311      MECN     H13      HGA3     0.090000        1.0080           0
     66898 WT23     311      MECN     C2       CG1N1    0.360000       12.0110           0
     66899 WT23     311      MECN     N3       NG1T1   -0.460000       14.0070           0
     66900 WT23     312      MECN     C1       CG331   -0.170000       12.0110           0
     66901 WT23     312      MECN     H11      HGA3     0.090000        1.0080           0
     66902 WT23     312      MECN     H12      HGA3     0.090000        1.0080           0
     66903 WT23     312      MECN     H13      HGA3     0.090000        1.0080           0
     66904 WT23     312      MECN     C2       CG1N1    0.360000       12.0110           0
     66905 WT23     312      MECN     N3       NG1T1   -0.460000       14.0070           0
     66906 WT23     313      MECN     C1       CG331   -0.170000       12.0110           0
     66907 WT23     313      MECN     H11      HGA3     0.090000        1.0080           0
     66908 WT23     313      MECN     H12      HGA3     0.090000        1.0080           0
     66909 WT23     313      MECN     H13      HGA3     0.090000        1.0080           0
     66910 WT23     313      MECN     C2       CG1N1    0.360000       12.0110           0
     66911 WT23     313      MECN     N3       NG1T1   -0.460000       14.0070           0
     66912 WT23     314      MECN     C1       CG331   -0.170000       12.0110           0
     66913 WT23     314      MECN     H11      HGA3     0.090000        1.0080           0
     66914 WT23     314      MECN     H12      HGA3     0.090000        1.0080           0
     66915 WT23     314      MECN     H13      HGA3     0.090000        1.0080           0
     66916 WT23     314      MECN     C2       CG1N1    0.360000       12.0110           0
     66917 WT23     314      MECN     N3       NG1T1   -0.460000       14.0070           0
     66918 WT23     315      MECN     C1       CG331   -0.170000       12.0110           0
     66919 WT23     315      MECN     H11      HGA3     0.090000        1.0080           0
     66920 WT23     315      MECN     H12      HGA3     0.090000        1.0080           0
     66921 WT23     315      MECN     H13      HGA3     0.090000        1.0080           0
     66922 WT23     315      MECN     C2       CG1N1    0.360000       12.0110           0
     66923 WT23     315      MECN     N3       NG1T1   -0.460000       14.0070           0
     66924 WT23     316      MECN     C1       CG331   -0.170000       12.0110           0
     66925 WT23     316      MECN     H11      HGA3     0.090000        1.0080           0
     66926 WT23     316      MECN     H12      HGA3     0.090000        1.0080           0
     66927 WT23     316      MECN     H13      HGA3     0.090000        1.0080           0
     66928 WT23     316      MECN     C2       CG1N1    0.360000       12.0110           0
     66929 WT23     316      MECN     N3       NG1T1   -0.460000       14.0070           0
     66930 WT23     317      MECN     C1       CG331   -0.170000       12.0110           0
     66931 WT23     317      MECN     H11      HGA3     0.090000        1.0080           0
     66932 WT23     317      MECN     H12      HGA3     0.090000        1.0080           0
     66933 WT23     317      MECN     H13      HGA3     0.090000        1.0080           0
     66934 WT23     317      MECN     C2       CG1N1    0.360000       12.0110           0
     66935 WT23     317      MECN     N3       NG1T1   -0.460000       14.0070           0
     66936 WT23     318      MECN     C1       CG331   -0.170000       12.0110           0
     66937 WT23     318      MECN     H11      HGA3     0.090000        1.0080           0
     66938 WT23     318      MECN     H12      HGA3     0.090000        1.0080           0
     66939 WT23     318      MECN     H13      HGA3     0.090000        1.0080           0
     66940 WT23     318      MECN     C2       CG1N1    0.360000       12.0110           0
     66941 WT23     318      MECN     N3       NG1T1   -0.460000       14.0070           0
     66942 WT23     319      MECN     C1       CG331   -0.170000       12.0110           0
     66943 WT23     319      MECN     H11      HGA3     0.090000        1.0080           0
     66944 WT23     319      MECN     H12      HGA3     0.090000        1.0080           0
     66945 WT23     319      MECN     H13      HGA3     0.090000        1.0080           0
     66946 WT23     319      MECN     C2       CG1N1    0.360000       12.0110           0
     66947 WT23     319      MECN     N3       NG1T1   -0.460000       14.0070           0
     66948 WT23     320      MECN     C1       CG331   -0.170000       12.0110           0
     66949 WT23     320      MECN     H11      HGA3     0.090000        1.0080           0
     66950 WT23     320      MECN     H12      HGA3     0.090000        1.0080           0
     66951 WT23     320      MECN     H13      HGA3     0.090000        1.0080           0
     66952 WT23     320      MECN     C2       CG1N1    0.360000       12.0110           0
     66953 WT23     320      MECN     N3       NG1T1   -0.460000       14.0070           0
     66954 WT23     325      MECN     C1       CG331   -0.170000       12.0110           0
     66955 WT23     325      MECN     H11      HGA3     0.090000        1.0080           0
     66956 WT23     325      MECN     H12      HGA3     0.090000        1.0080           0
     66957 WT23     325      MECN     H13      HGA3     0.090000        1.0080           0
     66958 WT23     325      MECN     C2       CG1N1    0.360000       12.0110           0
     66959 WT23     325      MECN     N3       NG1T1   -0.460000       14.0070           0
     66960 WT23     327      MECN     C1       CG331   -0.170000       12.0110           0
     66961 WT23     327      MECN     H11      HGA3     0.090000        1.0080           0
     66962 WT23     327      MECN     H12      HGA3     0.090000        1.0080           0
     66963 WT23     327      MECN     H13      HGA3     0.090000        1.0080           0
     66964 WT23     327      MECN     C2       CG1N1    0.360000       12.0110           0
     66965 WT23     327      MECN     N3       NG1T1   -0.460000       14.0070           0
     66966 WT23     328      MECN     C1       CG331   -0.170000       12.0110           0
     66967 WT23     328      MECN     H11      HGA3     0.090000        1.0080           0
     66968 WT23     328      MECN     H12      HGA3     0.090000        1.0080           0
     66969 WT23     328      MECN     H13      HGA3     0.090000        1.0080           0
     66970 WT23     328      MECN     C2       CG1N1    0.360000       12.0110           0
     66971 WT23     328      MECN     N3       NG1T1   -0.460000       14.0070           0
     66972 WT23     329      MECN     C1       CG331   -0.170000       12.0110           0
     66973 WT23     329      MECN     H11      HGA3     0.090000        1.0080           0
     66974 WT23     329      MECN     H12      HGA3     0.090000        1.0080           0
     66975 WT23     329      MECN     H13      HGA3     0.090000        1.0080           0
     66976 WT23     329      MECN     C2       CG1N1    0.360000       12.0110           0
     66977 WT23     329      MECN     N3       NG1T1   -0.460000       14.0070           0
     66978 WT23     330      MECN     C1       CG331   -0.170000       12.0110           0
     66979 WT23     330      MECN     H11      HGA3     0.090000        1.0080           0
     66980 WT23     330      MECN     H12      HGA3     0.090000        1.0080           0
     66981 WT23     330      MECN     H13      HGA3     0.090000        1.0080           0
     66982 WT23     330      MECN     C2       CG1N1    0.360000       12.0110           0
     66983 WT23     330      MECN     N3       NG1T1   -0.460000       14.0070           0
     66984 WT23     331      MECN     C1       CG331   -0.170000       12.0110           0
     66985 WT23     331      MECN     H11      HGA3     0.090000        1.0080           0
     66986 WT23     331      MECN     H12      HGA3     0.090000        1.0080           0
     66987 WT23     331      MECN     H13      HGA3     0.090000        1.0080           0
     66988 WT23     331      MECN     C2       CG1N1    0.360000       12.0110           0
     66989 WT23     331      MECN     N3       NG1T1   -0.460000       14.0070           0
     66990 WT23     332      MECN     C1       CG331   -0.170000       12.0110           0
     66991 WT23     332      MECN     H11      HGA3     0.090000        1.0080           0
     66992 WT23     332      MECN     H12      HGA3     0.090000        1.0080           0
     66993 WT23     332      MECN     H13      HGA3     0.090000        1.0080           0
     66994 WT23     332      MECN     C2       CG1N1    0.360000       12.0110           0
     66995 WT23     332      MECN     N3       NG1T1   -0.460000       14.0070           0
     66996 WT23     334      MECN     C1       CG331   -0.170000       12.0110           0
     66997 WT23     334      MECN     H11      HGA3     0.090000        1.0080           0
     66998 WT23     334      MECN     H12      HGA3     0.090000        1.0080           0
     66999 WT23     334      MECN     H13      HGA3     0.090000        1.0080           0
     67000 WT23     334      MECN     C2       CG1N1    0.360000       12.0110           0
     67001 WT23     334      MECN     N3       NG1T1   -0.460000       14.0070           0
     67002 WT23     335      MECN     C1       CG331   -0.170000       12.0110           0
     67003 WT23     335      MECN     H11      HGA3     0.090000        1.0080           0
     67004 WT23     335      MECN     H12      HGA3     0.090000        1.0080           0
     67005 WT23     335      MECN     H13      HGA3     0.090000        1.0080           0
     67006 WT23     335      MECN     C2       CG1N1    0.360000       12.0110           0
     67007 WT23     335      MECN     N3       NG1T1   -0.460000       14.0070           0
     67008 WT23     336      MECN     C1       CG331   -0.170000       12.0110           0
     67009 WT23     336      MECN     H11      HGA3     0.090000        1.0080           0
     67010 WT23     336      MECN     H12      HGA3     0.090000        1.0080           0
     67011 WT23     336      MECN     H13      HGA3     0.090000        1.0080           0
     67012 WT23     336      MECN     C2       CG1N1    0.360000       12.0110           0
     67013 WT23     336      MECN     N3       NG1T1   -0.460000       14.0070           0
     67014 WT23     339      MECN     C1       CG331   -0.170000       12.0110           0
     67015 WT23     339      MECN     H11      HGA3     0.090000        1.0080           0
     67016 WT23     339      MECN     H12      HGA3     0.090000        1.0080           0
     67017 WT23     339      MECN     H13      HGA3     0.090000        1.0080           0
     67018 WT23     339      MECN     C2       CG1N1    0.360000       12.0110           0
     67019 WT23     339      MECN     N3       NG1T1   -0.460000       14.0070           0
     67020 WT23     340      MECN     C1       CG331   -0.170000       12.0110           0
     67021 WT23     340      MECN     H11      HGA3     0.090000        1.0080           0
     67022 WT23     340      MECN     H12      HGA3     0.090000        1.0080           0
     67023 WT23     340      MECN     H13      HGA3     0.090000        1.0080           0
     67024 WT23     340      MECN     C2       CG1N1    0.360000       12.0110           0
     67025 WT23     340      MECN     N3       NG1T1   -0.460000       14.0070           0
     67026 WT23     341      MECN     C1       CG331   -0.170000       12.0110           0
     67027 WT23     341      MECN     H11      HGA3     0.090000        1.0080           0
     67028 WT23     341      MECN     H12      HGA3     0.090000        1.0080           0
     67029 WT23     341      MECN     H13      HGA3     0.090000        1.0080           0
     67030 WT23     341      MECN     C2       CG1N1    0.360000       12.0110           0
     67031 WT23     341      MECN     N3       NG1T1   -0.460000       14.0070           0
     67032 WT23     343      MECN     C1       CG331   -0.170000       12.0110           0
     67033 WT23     343      MECN     H11      HGA3     0.090000        1.0080           0
     67034 WT23     343      MECN     H12      HGA3     0.090000        1.0080           0
     67035 WT23     343      MECN     H13      HGA3     0.090000        1.0080           0
     67036 WT23     343      MECN     C2       CG1N1    0.360000       12.0110           0
     67037 WT23     343      MECN     N3       NG1T1   -0.460000       14.0070           0
     67038 WT23     344      MECN     C1       CG331   -0.170000       12.0110           0
     67039 WT23     344      MECN     H11      HGA3     0.090000        1.0080           0
     67040 WT23     344      MECN     H12      HGA3     0.090000        1.0080           0
     67041 WT23     344      MECN     H13      HGA3     0.090000        1.0080           0
     67042 WT23     344      MECN     C2       CG1N1    0.360000       12.0110           0
     67043 WT23     344      MECN     N3       NG1T1   -0.460000       14.0070           0
     67044 WT23     345      MECN     C1       CG331   -0.170000       12.0110           0
     67045 WT23     345      MECN     H11      HGA3     0.090000        1.0080           0
     67046 WT23     345      MECN     H12      HGA3     0.090000        1.0080           0
     67047 WT23     345      MECN     H13      HGA3     0.090000        1.0080           0
     67048 WT23     345      MECN     C2       CG1N1    0.360000       12.0110           0
     67049 WT23     345      MECN     N3       NG1T1   -0.460000       14.0070           0
     67050 WT23     347      MECN     C1       CG331   -0.170000       12.0110           0
     67051 WT23     347      MECN     H11      HGA3     0.090000        1.0080           0
     67052 WT23     347      MECN     H12      HGA3     0.090000        1.0080           0
     67053 WT23     347      MECN     H13      HGA3     0.090000        1.0080           0
     67054 WT23     347      MECN     C2       CG1N1    0.360000       12.0110           0
     67055 WT23     347      MECN     N3       NG1T1   -0.460000       14.0070           0
     67056 WT23     349      MECN     C1       CG331   -0.170000       12.0110           0
     67057 WT23     349      MECN     H11      HGA3     0.090000        1.0080           0
     67058 WT23     349      MECN     H12      HGA3     0.090000        1.0080           0
     67059 WT23     349      MECN     H13      HGA3     0.090000        1.0080           0
     67060 WT23     349      MECN     C2       CG1N1    0.360000       12.0110           0
     67061 WT23     349      MECN     N3       NG1T1   -0.460000       14.0070           0
     67062 WT23     350      MECN     C1       CG331   -0.170000       12.0110           0
     67063 WT23     350      MECN     H11      HGA3     0.090000        1.0080           0
     67064 WT23     350      MECN     H12      HGA3     0.090000        1.0080           0
     67065 WT23     350      MECN     H13      HGA3     0.090000        1.0080           0
     67066 WT23     350      MECN     C2       CG1N1    0.360000       12.0110           0
     67067 WT23     350      MECN     N3       NG1T1   -0.460000       14.0070           0
     67068 WT23     351      MECN     C1       CG331   -0.170000       12.0110           0
     67069 WT23     351      MECN     H11      HGA3     0.090000        1.0080           0
     67070 WT23     351      MECN     H12      HGA3     0.090000        1.0080           0
     67071 WT23     351      MECN     H13      HGA3     0.090000        1.0080           0
     67072 WT23     351      MECN     C2       CG1N1    0.360000       12.0110           0
     67073 WT23     351      MECN     N3       NG1T1   -0.460000       14.0070           0
     67074 WT23     353      MECN     C1       CG331   -0.170000       12.0110           0
     67075 WT23     353      MECN     H11      HGA3     0.090000        1.0080           0
     67076 WT23     353      MECN     H12      HGA3     0.090000        1.0080           0
     67077 WT23     353      MECN     H13      HGA3     0.090000        1.0080           0
     67078 WT23     353      MECN     C2       CG1N1    0.360000       12.0110           0
     67079 WT23     353      MECN     N3       NG1T1   -0.460000       14.0070           0
     67080 WT23     358      MECN     C1       CG331   -0.170000       12.0110           0
     67081 WT23     358      MECN     H11      HGA3     0.090000        1.0080           0
     67082 WT23     358      MECN     H12      HGA3     0.090000        1.0080           0
     67083 WT23     358      MECN     H13      HGA3     0.090000        1.0080           0
     67084 WT23     358      MECN     C2       CG1N1    0.360000       12.0110           0
     67085 WT23     358      MECN     N3       NG1T1   -0.460000       14.0070           0
     67086 WT23     359      MECN     C1       CG331   -0.170000       12.0110           0
     67087 WT23     359      MECN     H11      HGA3     0.090000        1.0080           0
     67088 WT23     359      MECN     H12      HGA3     0.090000        1.0080           0
     67089 WT23     359      MECN     H13      HGA3     0.090000        1.0080           0
     67090 WT23     359      MECN     C2       CG1N1    0.360000       12.0110           0
     67091 WT23     359      MECN     N3       NG1T1   -0.460000       14.0070           0
     67092 WT23     360      MECN     C1       CG331   -0.170000       12.0110           0
     67093 WT23     360      MECN     H11      HGA3     0.090000        1.0080           0
     67094 WT23     360      MECN     H12      HGA3     0.090000        1.0080           0
     67095 WT23     360      MECN     H13      HGA3     0.090000        1.0080           0
     67096 WT23     360      MECN     C2       CG1N1    0.360000       12.0110           0
     67097 WT23     360      MECN     N3       NG1T1   -0.460000       14.0070           0
     67098 WT23     361      MECN     C1       CG331   -0.170000       12.0110           0
     67099 WT23     361      MECN     H11      HGA3     0.090000        1.0080           0
     67100 WT23     361      MECN     H12      HGA3     0.090000        1.0080           0
     67101 WT23     361      MECN     H13      HGA3     0.090000        1.0080           0
     67102 WT23     361      MECN     C2       CG1N1    0.360000       12.0110           0
     67103 WT23     361      MECN     N3       NG1T1   -0.460000       14.0070           0
     67104 WT23     362      MECN     C1       CG331   -0.170000       12.0110           0
     67105 WT23     362      MECN     H11      HGA3     0.090000        1.0080           0
     67106 WT23     362      MECN     H12      HGA3     0.090000        1.0080           0
     67107 WT23     362      MECN     H13      HGA3     0.090000        1.0080           0
     67108 WT23     362      MECN     C2       CG1N1    0.360000       12.0110           0
     67109 WT23     362      MECN     N3       NG1T1   -0.460000       14.0070           0
     67110 WT23     363      MECN     C1       CG331   -0.170000       12.0110           0
     67111 WT23     363      MECN     H11      HGA3     0.090000        1.0080           0
     67112 WT23     363      MECN     H12      HGA3     0.090000        1.0080           0
     67113 WT23     363      MECN     H13      HGA3     0.090000        1.0080           0
     67114 WT23     363      MECN     C2       CG1N1    0.360000       12.0110           0
     67115 WT23     363      MECN     N3       NG1T1   -0.460000       14.0070           0
     67116 WT23     364      MECN     C1       CG331   -0.170000       12.0110           0
     67117 WT23     364      MECN     H11      HGA3     0.090000        1.0080           0
     67118 WT23     364      MECN     H12      HGA3     0.090000        1.0080           0
     67119 WT23     364      MECN     H13      HGA3     0.090000        1.0080           0
     67120 WT23     364      MECN     C2       CG1N1    0.360000       12.0110           0
     67121 WT23     364      MECN     N3       NG1T1   -0.460000       14.0070           0
     67122 WT23     365      MECN     C1       CG331   -0.170000       12.0110           0
     67123 WT23     365      MECN     H11      HGA3     0.090000        1.0080           0
     67124 WT23     365      MECN     H12      HGA3     0.090000        1.0080           0
     67125 WT23     365      MECN     H13      HGA3     0.090000        1.0080           0
     67126 WT23     365      MECN     C2       CG1N1    0.360000       12.0110           0
     67127 WT23     365      MECN     N3       NG1T1   -0.460000       14.0070           0
     67128 WT23     366      MECN     C1       CG331   -0.170000       12.0110           0
     67129 WT23     366      MECN     H11      HGA3     0.090000        1.0080           0
     67130 WT23     366      MECN     H12      HGA3     0.090000        1.0080           0
     67131 WT23     366      MECN     H13      HGA3     0.090000        1.0080           0
     67132 WT23     366      MECN     C2       CG1N1    0.360000       12.0110           0
     67133 WT23     366      MECN     N3       NG1T1   -0.460000       14.0070           0
     67134 WT23     367      MECN     C1       CG331   -0.170000       12.0110           0
     67135 WT23     367      MECN     H11      HGA3     0.090000        1.0080           0
     67136 WT23     367      MECN     H12      HGA3     0.090000        1.0080           0
     67137 WT23     367      MECN     H13      HGA3     0.090000        1.0080           0
     67138 WT23     367      MECN     C2       CG1N1    0.360000       12.0110           0
     67139 WT23     367      MECN     N3       NG1T1   -0.460000       14.0070           0
     67140 WT23     373      MECN     C1       CG331   -0.170000       12.0110           0
     67141 WT23     373      MECN     H11      HGA3     0.090000        1.0080           0
     67142 WT23     373      MECN     H12      HGA3     0.090000        1.0080           0
     67143 WT23     373      MECN     H13      HGA3     0.090000        1.0080           0
     67144 WT23     373      MECN     C2       CG1N1    0.360000       12.0110           0
     67145 WT23     373      MECN     N3       NG1T1   -0.460000       14.0070           0
     67146 WT23     374      MECN     C1       CG331   -0.170000       12.0110           0
     67147 WT23     374      MECN     H11      HGA3     0.090000        1.0080           0
     67148 WT23     374      MECN     H12      HGA3     0.090000        1.0080           0
     67149 WT23     374      MECN     H13      HGA3     0.090000        1.0080           0
     67150 WT23     374      MECN     C2       CG1N1    0.360000       12.0110           0
     67151 WT23     374      MECN     N3       NG1T1   -0.460000       14.0070           0
     67152 WT23     375      MECN     C1       CG331   -0.170000       12.0110           0
     67153 WT23     375      MECN     H11      HGA3     0.090000        1.0080           0
     67154 WT23     375      MECN     H12      HGA3     0.090000        1.0080           0
     67155 WT23     375      MECN     H13      HGA3     0.090000        1.0080           0
     67156 WT23     375      MECN     C2       CG1N1    0.360000       12.0110           0
     67157 WT23     375      MECN     N3       NG1T1   -0.460000       14.0070           0
     67158 WT23     376      MECN     C1       CG331   -0.170000       12.0110           0
     67159 WT23     376      MECN     H11      HGA3     0.090000        1.0080           0
     67160 WT23     376      MECN     H12      HGA3     0.090000        1.0080           0
     67161 WT23     376      MECN     H13      HGA3     0.090000        1.0080           0
     67162 WT23     376      MECN     C2       CG1N1    0.360000       12.0110           0
     67163 WT23     376      MECN     N3       NG1T1   -0.460000       14.0070           0
     67164 WT23     377      MECN     C1       CG331   -0.170000       12.0110           0
     67165 WT23     377      MECN     H11      HGA3     0.090000        1.0080           0
     67166 WT23     377      MECN     H12      HGA3     0.090000        1.0080           0
     67167 WT23     377      MECN     H13      HGA3     0.090000        1.0080           0
     67168 WT23     377      MECN     C2       CG1N1    0.360000       12.0110           0
     67169 WT23     377      MECN     N3       NG1T1   -0.460000       14.0070           0
     67170 WT23     378      MECN     C1       CG331   -0.170000       12.0110           0
     67171 WT23     378      MECN     H11      HGA3     0.090000        1.0080           0
     67172 WT23     378      MECN     H12      HGA3     0.090000        1.0080           0
     67173 WT23     378      MECN     H13      HGA3     0.090000        1.0080           0
     67174 WT23     378      MECN     C2       CG1N1    0.360000       12.0110           0
     67175 WT23     378      MECN     N3       NG1T1   -0.460000       14.0070           0
     67176 WT23     380      MECN     C1       CG331   -0.170000       12.0110           0
     67177 WT23     380      MECN     H11      HGA3     0.090000        1.0080           0
     67178 WT23     380      MECN     H12      HGA3     0.090000        1.0080           0
     67179 WT23     380      MECN     H13      HGA3     0.090000        1.0080           0
     67180 WT23     380      MECN     C2       CG1N1    0.360000       12.0110           0
     67181 WT23     380      MECN     N3       NG1T1   -0.460000       14.0070           0
     67182 WT23     381      MECN     C1       CG331   -0.170000       12.0110           0
     67183 WT23     381      MECN     H11      HGA3     0.090000        1.0080           0
     67184 WT23     381      MECN     H12      HGA3     0.090000        1.0080           0
     67185 WT23     381      MECN     H13      HGA3     0.090000        1.0080           0
     67186 WT23     381      MECN     C2       CG1N1    0.360000       12.0110           0
     67187 WT23     381      MECN     N3       NG1T1   -0.460000       14.0070           0
     67188 WT23     383      MECN     C1       CG331   -0.170000       12.0110           0
     67189 WT23     383      MECN     H11      HGA3     0.090000        1.0080           0
     67190 WT23     383      MECN     H12      HGA3     0.090000        1.0080           0
     67191 WT23     383      MECN     H13      HGA3     0.090000        1.0080           0
     67192 WT23     383      MECN     C2       CG1N1    0.360000       12.0110           0
     67193 WT23     383      MECN     N3       NG1T1   -0.460000       14.0070           0
     67194 WT23     384      MECN     C1       CG331   -0.170000       12.0110           0
     67195 WT23     384      MECN     H11      HGA3     0.090000        1.0080           0
     67196 WT23     384      MECN     H12      HGA3     0.090000        1.0080           0
     67197 WT23     384      MECN     H13      HGA3     0.090000        1.0080           0
     67198 WT23     384      MECN     C2       CG1N1    0.360000       12.0110           0
     67199 WT23     384      MECN     N3       NG1T1   -0.460000       14.0070           0
     67200 WT23     385      MECN     C1       CG331   -0.170000       12.0110           0
     67201 WT23     385      MECN     H11      HGA3     0.090000        1.0080           0
     67202 WT23     385      MECN     H12      HGA3     0.090000        1.0080           0
     67203 WT23     385      MECN     H13      HGA3     0.090000        1.0080           0
     67204 WT23     385      MECN     C2       CG1N1    0.360000       12.0110           0
     67205 WT23     385      MECN     N3       NG1T1   -0.460000       14.0070           0
     67206 WT23     386      MECN     C1       CG331   -0.170000       12.0110           0
     67207 WT23     386      MECN     H11      HGA3     0.090000        1.0080           0
     67208 WT23     386      MECN     H12      HGA3     0.090000        1.0080           0
     67209 WT23     386      MECN     H13      HGA3     0.090000        1.0080           0
     67210 WT23     386      MECN     C2       CG1N1    0.360000       12.0110           0
     67211 WT23     386      MECN     N3       NG1T1   -0.460000       14.0070           0
     67212 WT23     389      MECN     C1       CG331   -0.170000       12.0110           0
     67213 WT23     389      MECN     H11      HGA3     0.090000        1.0080           0
     67214 WT23     389      MECN     H12      HGA3     0.090000        1.0080           0
     67215 WT23     389      MECN     H13      HGA3     0.090000        1.0080           0
     67216 WT23     389      MECN     C2       CG1N1    0.360000       12.0110           0
     67217 WT23     389      MECN     N3       NG1T1   -0.460000       14.0070           0
     67218 WT23     393      MECN     C1       CG331   -0.170000       12.0110           0
     67219 WT23     393      MECN     H11      HGA3     0.090000        1.0080           0
     67220 WT23     393      MECN     H12      HGA3     0.090000        1.0080           0
     67221 WT23     393      MECN     H13      HGA3     0.090000        1.0080           0
     67222 WT23     393      MECN     C2       CG1N1    0.360000       12.0110           0
     67223 WT23     393      MECN     N3       NG1T1   -0.460000       14.0070           0
     67224 WT23     394      MECN     C1       CG331   -0.170000       12.0110           0
     67225 WT23     394      MECN     H11      HGA3     0.090000        1.0080           0
     67226 WT23     394      MECN     H12      HGA3     0.090000        1.0080           0
     67227 WT23     394      MECN     H13      HGA3     0.090000        1.0080           0
     67228 WT23     394      MECN     C2       CG1N1    0.360000       12.0110           0
     67229 WT23     394      MECN     N3       NG1T1   -0.460000       14.0070           0
     67230 WT23     400      MECN     C1       CG331   -0.170000       12.0110           0
     67231 WT23     400      MECN     H11      HGA3     0.090000        1.0080           0
     67232 WT23     400      MECN     H12      HGA3     0.090000        1.0080           0
     67233 WT23     400      MECN     H13      HGA3     0.090000        1.0080           0
     67234 WT23     400      MECN     C2       CG1N1    0.360000       12.0110           0
     67235 WT23     400      MECN     N3       NG1T1   -0.460000       14.0070           0
     67236 WT23     403      MECN     C1       CG331   -0.170000       12.0110           0
     67237 WT23     403      MECN     H11      HGA3     0.090000        1.0080           0
     67238 WT23     403      MECN     H12      HGA3     0.090000        1.0080           0
     67239 WT23     403      MECN     H13      HGA3     0.090000        1.0080           0
     67240 WT23     403      MECN     C2       CG1N1    0.360000       12.0110           0
     67241 WT23     403      MECN     N3       NG1T1   -0.460000       14.0070           0
     67242 WT23     404      MECN     C1       CG331   -0.170000       12.0110           0
     67243 WT23     404      MECN     H11      HGA3     0.090000        1.0080           0
     67244 WT23     404      MECN     H12      HGA3     0.090000        1.0080           0
     67245 WT23     404      MECN     H13      HGA3     0.090000        1.0080           0
     67246 WT23     404      MECN     C2       CG1N1    0.360000       12.0110           0
     67247 WT23     404      MECN     N3       NG1T1   -0.460000       14.0070           0
     67248 WT23     405      MECN     C1       CG331   -0.170000       12.0110           0
     67249 WT23     405      MECN     H11      HGA3     0.090000        1.0080           0
     67250 WT23     405      MECN     H12      HGA3     0.090000        1.0080           0
     67251 WT23     405      MECN     H13      HGA3     0.090000        1.0080           0
     67252 WT23     405      MECN     C2       CG1N1    0.360000       12.0110           0
     67253 WT23     405      MECN     N3       NG1T1   -0.460000       14.0070           0
     67254 WT23     406      MECN     C1       CG331   -0.170000       12.0110           0
     67255 WT23     406      MECN     H11      HGA3     0.090000        1.0080           0
     67256 WT23     406      MECN     H12      HGA3     0.090000        1.0080           0
     67257 WT23     406      MECN     H13      HGA3     0.090000        1.0080           0
     67258 WT23     406      MECN     C2       CG1N1    0.360000       12.0110           0
     67259 WT23     406      MECN     N3       NG1T1   -0.460000       14.0070           0
     67260 WT23     407      MECN     C1       CG331   -0.170000       12.0110           0
     67261 WT23     407      MECN     H11      HGA3     0.090000        1.0080           0
     67262 WT23     407      MECN     H12      HGA3     0.090000        1.0080           0
     67263 WT23     407      MECN     H13      HGA3     0.090000        1.0080           0
     67264 WT23     407      MECN     C2       CG1N1    0.360000       12.0110           0
     67265 WT23     407      MECN     N3       NG1T1   -0.460000       14.0070           0
     67266 WT23     408      MECN     C1       CG331   -0.170000       12.0110           0
     67267 WT23     408      MECN     H11      HGA3     0.090000        1.0080           0
     67268 WT23     408      MECN     H12      HGA3     0.090000        1.0080           0
     67269 WT23     408      MECN     H13      HGA3     0.090000        1.0080           0
     67270 WT23     408      MECN     C2       CG1N1    0.360000       12.0110           0
     67271 WT23     408      MECN     N3       NG1T1   -0.460000       14.0070           0
     67272 WT23     409      MECN     C1       CG331   -0.170000       12.0110           0
     67273 WT23     409      MECN     H11      HGA3     0.090000        1.0080           0
     67274 WT23     409      MECN     H12      HGA3     0.090000        1.0080           0
     67275 WT23     409      MECN     H13      HGA3     0.090000        1.0080           0
     67276 WT23     409      MECN     C2       CG1N1    0.360000       12.0110           0
     67277 WT23     409      MECN     N3       NG1T1   -0.460000       14.0070           0
     67278 WT23     410      MECN     C1       CG331   -0.170000       12.0110           0
     67279 WT23     410      MECN     H11      HGA3     0.090000        1.0080           0
     67280 WT23     410      MECN     H12      HGA3     0.090000        1.0080           0
     67281 WT23     410      MECN     H13      HGA3     0.090000        1.0080           0
     67282 WT23     410      MECN     C2       CG1N1    0.360000       12.0110           0
     67283 WT23     410      MECN     N3       NG1T1   -0.460000       14.0070           0
     67284 WT23     411      MECN     C1       CG331   -0.170000       12.0110           0
     67285 WT23     411      MECN     H11      HGA3     0.090000        1.0080           0
     67286 WT23     411      MECN     H12      HGA3     0.090000        1.0080           0
     67287 WT23     411      MECN     H13      HGA3     0.090000        1.0080           0
     67288 WT23     411      MECN     C2       CG1N1    0.360000       12.0110           0
     67289 WT23     411      MECN     N3       NG1T1   -0.460000       14.0070           0
     67290 WT23     412      MECN     C1       CG331   -0.170000       12.0110           0
     67291 WT23     412      MECN     H11      HGA3     0.090000        1.0080           0
     67292 WT23     412      MECN     H12      HGA3     0.090000        1.0080           0
     67293 WT23     412      MECN     H13      HGA3     0.090000        1.0080           0
     67294 WT23     412      MECN     C2       CG1N1    0.360000       12.0110           0
     67295 WT23     412      MECN     N3       NG1T1   -0.460000       14.0070           0
     67296 WT23     413      MECN     C1       CG331   -0.170000       12.0110           0
     67297 WT23     413      MECN     H11      HGA3     0.090000        1.0080           0
     67298 WT23     413      MECN     H12      HGA3     0.090000        1.0080           0
     67299 WT23     413      MECN     H13      HGA3     0.090000        1.0080           0
     67300 WT23     413      MECN     C2       CG1N1    0.360000       12.0110           0
     67301 WT23     413      MECN     N3       NG1T1   -0.460000       14.0070           0
     67302 WT23     417      MECN     C1       CG331   -0.170000       12.0110           0
     67303 WT23     417      MECN     H11      HGA3     0.090000        1.0080           0
     67304 WT23     417      MECN     H12      HGA3     0.090000        1.0080           0
     67305 WT23     417      MECN     H13      HGA3     0.090000        1.0080           0
     67306 WT23     417      MECN     C2       CG1N1    0.360000       12.0110           0
     67307 WT23     417      MECN     N3       NG1T1   -0.460000       14.0070           0
     67308 WT23     418      MECN     C1       CG331   -0.170000       12.0110           0
     67309 WT23     418      MECN     H11      HGA3     0.090000        1.0080           0
     67310 WT23     418      MECN     H12      HGA3     0.090000        1.0080           0
     67311 WT23     418      MECN     H13      HGA3     0.090000        1.0080           0
     67312 WT23     418      MECN     C2       CG1N1    0.360000       12.0110           0
     67313 WT23     418      MECN     N3       NG1T1   -0.460000       14.0070           0
     67314 WT23     419      MECN     C1       CG331   -0.170000       12.0110           0
     67315 WT23     419      MECN     H11      HGA3     0.090000        1.0080           0
     67316 WT23     419      MECN     H12      HGA3     0.090000        1.0080           0
     67317 WT23     419      MECN     H13      HGA3     0.090000        1.0080           0
     67318 WT23     419      MECN     C2       CG1N1    0.360000       12.0110           0
     67319 WT23     419      MECN     N3       NG1T1   -0.460000       14.0070           0
     67320 WT23     420      MECN     C1       CG331   -0.170000       12.0110           0
     67321 WT23     420      MECN     H11      HGA3     0.090000        1.0080           0
     67322 WT23     420      MECN     H12      HGA3     0.090000        1.0080           0
     67323 WT23     420      MECN     H13      HGA3     0.090000        1.0080           0
     67324 WT23     420      MECN     C2       CG1N1    0.360000       12.0110           0
     67325 WT23     420      MECN     N3       NG1T1   -0.460000       14.0070           0
     67326 WT23     421      MECN     C1       CG331   -0.170000       12.0110           0
     67327 WT23     421      MECN     H11      HGA3     0.090000        1.0080           0
     67328 WT23     421      MECN     H12      HGA3     0.090000        1.0080           0
     67329 WT23     421      MECN     H13      HGA3     0.090000        1.0080           0
     67330 WT23     421      MECN     C2       CG1N1    0.360000       12.0110           0
     67331 WT23     421      MECN     N3       NG1T1   -0.460000       14.0070           0
     67332 WT23     422      MECN     C1       CG331   -0.170000       12.0110           0
     67333 WT23     422      MECN     H11      HGA3     0.090000        1.0080           0
     67334 WT23     422      MECN     H12      HGA3     0.090000        1.0080           0
     67335 WT23     422      MECN     H13      HGA3     0.090000        1.0080           0
     67336 WT23     422      MECN     C2       CG1N1    0.360000       12.0110           0
     67337 WT23     422      MECN     N3       NG1T1   -0.460000       14.0070           0
     67338 WT23     427      MECN     C1       CG331   -0.170000       12.0110           0
     67339 WT23     427      MECN     H11      HGA3     0.090000        1.0080           0
     67340 WT23     427      MECN     H12      HGA3     0.090000        1.0080           0
     67341 WT23     427      MECN     H13      HGA3     0.090000        1.0080           0
     67342 WT23     427      MECN     C2       CG1N1    0.360000       12.0110           0
     67343 WT23     427      MECN     N3       NG1T1   -0.460000       14.0070           0
     67344 WT23     429      MECN     C1       CG331   -0.170000       12.0110           0
     67345 WT23     429      MECN     H11      HGA3     0.090000        1.0080           0
     67346 WT23     429      MECN     H12      HGA3     0.090000        1.0080           0
     67347 WT23     429      MECN     H13      HGA3     0.090000        1.0080           0
     67348 WT23     429      MECN     C2       CG1N1    0.360000       12.0110           0
     67349 WT23     429      MECN     N3       NG1T1   -0.460000       14.0070           0
     67350 WT23     431      MECN     C1       CG331   -0.170000       12.0110           0
     67351 WT23     431      MECN     H11      HGA3     0.090000        1.0080           0
     67352 WT23     431      MECN     H12      HGA3     0.090000        1.0080           0
     67353 WT23     431      MECN     H13      HGA3     0.090000        1.0080           0
     67354 WT23     431      MECN     C2       CG1N1    0.360000       12.0110           0
     67355 WT23     431      MECN     N3       NG1T1   -0.460000       14.0070           0
     67356 WT23     432      MECN     C1       CG331   -0.170000       12.0110           0
     67357 WT23     432      MECN     H11      HGA3     0.090000        1.0080           0
     67358 WT23     432      MECN     H12      HGA3     0.090000        1.0080           0
     67359 WT23     432      MECN     H13      HGA3     0.090000        1.0080           0
     67360 WT23     432      MECN     C2       CG1N1    0.360000       12.0110           0
     67361 WT23     432      MECN     N3       NG1T1   -0.460000       14.0070           0
     67362 WT23     433      MECN     C1       CG331   -0.170000       12.0110           0
     67363 WT23     433      MECN     H11      HGA3     0.090000        1.0080           0
     67364 WT23     433      MECN     H12      HGA3     0.090000        1.0080           0
     67365 WT23     433      MECN     H13      HGA3     0.090000        1.0080           0
     67366 WT23     433      MECN     C2       CG1N1    0.360000       12.0110           0
     67367 WT23     433      MECN     N3       NG1T1   -0.460000       14.0070           0
     67368 WT23     434      MECN     C1       CG331   -0.170000       12.0110           0
     67369 WT23     434      MECN     H11      HGA3     0.090000        1.0080           0
     67370 WT23     434      MECN     H12      HGA3     0.090000        1.0080           0
     67371 WT23     434      MECN     H13      HGA3     0.090000        1.0080           0
     67372 WT23     434      MECN     C2       CG1N1    0.360000       12.0110           0
     67373 WT23     434      MECN     N3       NG1T1   -0.460000       14.0070           0
     67374 WT23     435      MECN     C1       CG331   -0.170000       12.0110           0
     67375 WT23     435      MECN     H11      HGA3     0.090000        1.0080           0
     67376 WT23     435      MECN     H12      HGA3     0.090000        1.0080           0
     67377 WT23     435      MECN     H13      HGA3     0.090000        1.0080           0
     67378 WT23     435      MECN     C2       CG1N1    0.360000       12.0110           0
     67379 WT23     435      MECN     N3       NG1T1   -0.460000       14.0070           0
     67380 WT23     437      MECN     C1       CG331   -0.170000       12.0110           0
     67381 WT23     437      MECN     H11      HGA3     0.090000        1.0080           0
     67382 WT23     437      MECN     H12      HGA3     0.090000        1.0080           0
     67383 WT23     437      MECN     H13      HGA3     0.090000        1.0080           0
     67384 WT23     437      MECN     C2       CG1N1    0.360000       12.0110           0
     67385 WT23     437      MECN     N3       NG1T1   -0.460000       14.0070           0
     67386 WT23     438      MECN     C1       CG331   -0.170000       12.0110           0
     67387 WT23     438      MECN     H11      HGA3     0.090000        1.0080           0
     67388 WT23     438      MECN     H12      HGA3     0.090000        1.0080           0
     67389 WT23     438      MECN     H13      HGA3     0.090000        1.0080           0
     67390 WT23     438      MECN     C2       CG1N1    0.360000       12.0110           0
     67391 WT23     438      MECN     N3       NG1T1   -0.460000       14.0070           0
     67392 WT23     441      MECN     C1       CG331   -0.170000       12.0110           0
     67393 WT23     441      MECN     H11      HGA3     0.090000        1.0080           0
     67394 WT23     441      MECN     H12      HGA3     0.090000        1.0080           0
     67395 WT23     441      MECN     H13      HGA3     0.090000        1.0080           0
     67396 WT23     441      MECN     C2       CG1N1    0.360000       12.0110           0
     67397 WT23     441      MECN     N3       NG1T1   -0.460000       14.0070           0
     67398 WT23     443      MECN     C1       CG331   -0.170000       12.0110           0
     67399 WT23     443      MECN     H11      HGA3     0.090000        1.0080           0
     67400 WT23     443      MECN     H12      HGA3     0.090000        1.0080           0
     67401 WT23     443      MECN     H13      HGA3     0.090000        1.0080           0
     67402 WT23     443      MECN     C2       CG1N1    0.360000       12.0110           0
     67403 WT23     443      MECN     N3       NG1T1   -0.460000       14.0070           0
     67404 WT23     445      MECN     C1       CG331   -0.170000       12.0110           0
     67405 WT23     445      MECN     H11      HGA3     0.090000        1.0080           0
     67406 WT23     445      MECN     H12      HGA3     0.090000        1.0080           0
     67407 WT23     445      MECN     H13      HGA3     0.090000        1.0080           0
     67408 WT23     445      MECN     C2       CG1N1    0.360000       12.0110           0
     67409 WT23     445      MECN     N3       NG1T1   -0.460000       14.0070           0
     67410 WT23     446      MECN     C1       CG331   -0.170000       12.0110           0
     67411 WT23     446      MECN     H11      HGA3     0.090000        1.0080           0
     67412 WT23     446      MECN     H12      HGA3     0.090000        1.0080           0
     67413 WT23     446      MECN     H13      HGA3     0.090000        1.0080           0
     67414 WT23     446      MECN     C2       CG1N1    0.360000       12.0110           0
     67415 WT23     446      MECN     N3       NG1T1   -0.460000       14.0070           0
     67416 WT23     448      MECN     C1       CG331   -0.170000       12.0110           0
     67417 WT23     448      MECN     H11      HGA3     0.090000        1.0080           0
     67418 WT23     448      MECN     H12      HGA3     0.090000        1.0080           0
     67419 WT23     448      MECN     H13      HGA3     0.090000        1.0080           0
     67420 WT23     448      MECN     C2       CG1N1    0.360000       12.0110           0
     67421 WT23     448      MECN     N3       NG1T1   -0.460000       14.0070           0
     67422 WT23     450      MECN     C1       CG331   -0.170000       12.0110           0
     67423 WT23     450      MECN     H11      HGA3     0.090000        1.0080           0
     67424 WT23     450      MECN     H12      HGA3     0.090000        1.0080           0
     67425 WT23     450      MECN     H13      HGA3     0.090000        1.0080           0
     67426 WT23     450      MECN     C2       CG1N1    0.360000       12.0110           0
     67427 WT23     450      MECN     N3       NG1T1   -0.460000       14.0070           0
     67428 WT23     452      MECN     C1       CG331   -0.170000       12.0110           0
     67429 WT23     452      MECN     H11      HGA3     0.090000        1.0080           0
     67430 WT23     452      MECN     H12      HGA3     0.090000        1.0080           0
     67431 WT23     452      MECN     H13      HGA3     0.090000        1.0080           0
     67432 WT23     452      MECN     C2       CG1N1    0.360000       12.0110           0
     67433 WT23     452      MECN     N3       NG1T1   -0.460000       14.0070           0
     67434 WT23     453      MECN     C1       CG331   -0.170000       12.0110           0
     67435 WT23     453      MECN     H11      HGA3     0.090000        1.0080           0
     67436 WT23     453      MECN     H12      HGA3     0.090000        1.0080           0
     67437 WT23     453      MECN     H13      HGA3     0.090000        1.0080           0
     67438 WT23     453      MECN     C2       CG1N1    0.360000       12.0110           0
     67439 WT23     453      MECN     N3       NG1T1   -0.460000       14.0070           0
     67440 WT23     455      MECN     C1       CG331   -0.170000       12.0110           0
     67441 WT23     455      MECN     H11      HGA3     0.090000        1.0080           0
     67442 WT23     455      MECN     H12      HGA3     0.090000        1.0080           0
     67443 WT23     455      MECN     H13      HGA3     0.090000        1.0080           0
     67444 WT23     455      MECN     C2       CG1N1    0.360000       12.0110           0
     67445 WT23     455      MECN     N3       NG1T1   -0.460000       14.0070           0
     67446 WT23     458      MECN     C1       CG331   -0.170000       12.0110           0
     67447 WT23     458      MECN     H11      HGA3     0.090000        1.0080           0
     67448 WT23     458      MECN     H12      HGA3     0.090000        1.0080           0
     67449 WT23     458      MECN     H13      HGA3     0.090000        1.0080           0
     67450 WT23     458      MECN     C2       CG1N1    0.360000       12.0110           0
     67451 WT23     458      MECN     N3       NG1T1   -0.460000       14.0070           0
     67452 WT23     459      MECN     C1       CG331   -0.170000       12.0110           0
     67453 WT23     459      MECN     H11      HGA3     0.090000        1.0080           0
     67454 WT23     459      MECN     H12      HGA3     0.090000        1.0080           0
     67455 WT23     459      MECN     H13      HGA3     0.090000        1.0080           0
     67456 WT23     459      MECN     C2       CG1N1    0.360000       12.0110           0
     67457 WT23     459      MECN     N3       NG1T1   -0.460000       14.0070           0
     67458 WT23     460      MECN     C1       CG331   -0.170000       12.0110           0
     67459 WT23     460      MECN     H11      HGA3     0.090000        1.0080           0
     67460 WT23     460      MECN     H12      HGA3     0.090000        1.0080           0
     67461 WT23     460      MECN     H13      HGA3     0.090000        1.0080           0
     67462 WT23     460      MECN     C2       CG1N1    0.360000       12.0110           0
     67463 WT23     460      MECN     N3       NG1T1   -0.460000       14.0070           0
     67464 WT23     461      MECN     C1       CG331   -0.170000       12.0110           0
     67465 WT23     461      MECN     H11      HGA3     0.090000        1.0080           0
     67466 WT23     461      MECN     H12      HGA3     0.090000        1.0080           0
     67467 WT23     461      MECN     H13      HGA3     0.090000        1.0080           0
     67468 WT23     461      MECN     C2       CG1N1    0.360000       12.0110           0
     67469 WT23     461      MECN     N3       NG1T1   -0.460000       14.0070           0
     67470 WT23     462      MECN     C1       CG331   -0.170000       12.0110           0
     67471 WT23     462      MECN     H11      HGA3     0.090000        1.0080           0
     67472 WT23     462      MECN     H12      HGA3     0.090000        1.0080           0
     67473 WT23     462      MECN     H13      HGA3     0.090000        1.0080           0
     67474 WT23     462      MECN     C2       CG1N1    0.360000       12.0110           0
     67475 WT23     462      MECN     N3       NG1T1   -0.460000       14.0070           0
     67476 WT23     463      MECN     C1       CG331   -0.170000       12.0110           0
     67477 WT23     463      MECN     H11      HGA3     0.090000        1.0080           0
     67478 WT23     463      MECN     H12      HGA3     0.090000        1.0080           0
     67479 WT23     463      MECN     H13      HGA3     0.090000        1.0080           0
     67480 WT23     463      MECN     C2       CG1N1    0.360000       12.0110           0
     67481 WT23     463      MECN     N3       NG1T1   -0.460000       14.0070           0
     67482 WT23     466      MECN     C1       CG331   -0.170000       12.0110           0
     67483 WT23     466      MECN     H11      HGA3     0.090000        1.0080           0
     67484 WT23     466      MECN     H12      HGA3     0.090000        1.0080           0
     67485 WT23     466      MECN     H13      HGA3     0.090000        1.0080           0
     67486 WT23     466      MECN     C2       CG1N1    0.360000       12.0110           0
     67487 WT23     466      MECN     N3       NG1T1   -0.460000       14.0070           0
     67488 WT23     467      MECN     C1       CG331   -0.170000       12.0110           0
     67489 WT23     467      MECN     H11      HGA3     0.090000        1.0080           0
     67490 WT23     467      MECN     H12      HGA3     0.090000        1.0080           0
     67491 WT23     467      MECN     H13      HGA3     0.090000        1.0080           0
     67492 WT23     467      MECN     C2       CG1N1    0.360000       12.0110           0
     67493 WT23     467      MECN     N3       NG1T1   -0.460000       14.0070           0
     67494 WT23     468      MECN     C1       CG331   -0.170000       12.0110           0
     67495 WT23     468      MECN     H11      HGA3     0.090000        1.0080           0
     67496 WT23     468      MECN     H12      HGA3     0.090000        1.0080           0
     67497 WT23     468      MECN     H13      HGA3     0.090000        1.0080           0
     67498 WT23     468      MECN     C2       CG1N1    0.360000       12.0110           0
     67499 WT23     468      MECN     N3       NG1T1   -0.460000       14.0070           0
     67500 WT23     470      MECN     C1       CG331   -0.170000       12.0110           0
     67501 WT23     470      MECN     H11      HGA3     0.090000        1.0080           0
     67502 WT23     470      MECN     H12      HGA3     0.090000        1.0080           0
     67503 WT23     470      MECN     H13      HGA3     0.090000        1.0080           0
     67504 WT23     470      MECN     C2       CG1N1    0.360000       12.0110           0
     67505 WT23     470      MECN     N3       NG1T1   -0.460000       14.0070           0
     67506 WT23     471      MECN     C1       CG331   -0.170000       12.0110           0
     67507 WT23     471      MECN     H11      HGA3     0.090000        1.0080           0
     67508 WT23     471      MECN     H12      HGA3     0.090000        1.0080           0
     67509 WT23     471      MECN     H13      HGA3     0.090000        1.0080           0
     67510 WT23     471      MECN     C2       CG1N1    0.360000       12.0110           0
     67511 WT23     471      MECN     N3       NG1T1   -0.460000       14.0070           0
     67512 WT23     474      MECN     C1       CG331   -0.170000       12.0110           0
     67513 WT23     474      MECN     H11      HGA3     0.090000        1.0080           0
     67514 WT23     474      MECN     H12      HGA3     0.090000        1.0080           0
     67515 WT23     474      MECN     H13      HGA3     0.090000        1.0080           0
     67516 WT23     474      MECN     C2       CG1N1    0.360000       12.0110           0
     67517 WT23     474      MECN     N3       NG1T1   -0.460000       14.0070           0
     67518 WT23     476      MECN     C1       CG331   -0.170000       12.0110           0
     67519 WT23     476      MECN     H11      HGA3     0.090000        1.0080           0
     67520 WT23     476      MECN     H12      HGA3     0.090000        1.0080           0
     67521 WT23     476      MECN     H13      HGA3     0.090000        1.0080           0
     67522 WT23     476      MECN     C2       CG1N1    0.360000       12.0110           0
     67523 WT23     476      MECN     N3       NG1T1   -0.460000       14.0070           0
     67524 WT23     478      MECN     C1       CG331   -0.170000       12.0110           0
     67525 WT23     478      MECN     H11      HGA3     0.090000        1.0080           0
     67526 WT23     478      MECN     H12      HGA3     0.090000        1.0080           0
     67527 WT23     478      MECN     H13      HGA3     0.090000        1.0080           0
     67528 WT23     478      MECN     C2       CG1N1    0.360000       12.0110           0
     67529 WT23     478      MECN     N3       NG1T1   -0.460000       14.0070           0
     67530 WT23     479      MECN     C1       CG331   -0.170000       12.0110           0
     67531 WT23     479      MECN     H11      HGA3     0.090000        1.0080           0
     67532 WT23     479      MECN     H12      HGA3     0.090000        1.0080           0
     67533 WT23     479      MECN     H13      HGA3     0.090000        1.0080           0
     67534 WT23     479      MECN     C2       CG1N1    0.360000       12.0110           0
     67535 WT23     479      MECN     N3       NG1T1   -0.460000       14.0070           0
     67536 WT23     481      MECN     C1       CG331   -0.170000       12.0110           0
     67537 WT23     481      MECN     H11      HGA3     0.090000        1.0080           0
     67538 WT23     481      MECN     H12      HGA3     0.090000        1.0080           0
     67539 WT23     481      MECN     H13      HGA3     0.090000        1.0080           0
     67540 WT23     481      MECN     C2       CG1N1    0.360000       12.0110           0
     67541 WT23     481      MECN     N3       NG1T1   -0.460000       14.0070           0
     67542 WT23     482      MECN     C1       CG331   -0.170000       12.0110           0
     67543 WT23     482      MECN     H11      HGA3     0.090000        1.0080           0
     67544 WT23     482      MECN     H12      HGA3     0.090000        1.0080           0
     67545 WT23     482      MECN     H13      HGA3     0.090000        1.0080           0
     67546 WT23     482      MECN     C2       CG1N1    0.360000       12.0110           0
     67547 WT23     482      MECN     N3       NG1T1   -0.460000       14.0070           0
     67548 WT23     483      MECN     C1       CG331   -0.170000       12.0110           0
     67549 WT23     483      MECN     H11      HGA3     0.090000        1.0080           0
     67550 WT23     483      MECN     H12      HGA3     0.090000        1.0080           0
     67551 WT23     483      MECN     H13      HGA3     0.090000        1.0080           0
     67552 WT23     483      MECN     C2       CG1N1    0.360000       12.0110           0
     67553 WT23     483      MECN     N3       NG1T1   -0.460000       14.0070           0
     67554 WT23     485      MECN     C1       CG331   -0.170000       12.0110           0
     67555 WT23     485      MECN     H11      HGA3     0.090000        1.0080           0
     67556 WT23     485      MECN     H12      HGA3     0.090000        1.0080           0
     67557 WT23     485      MECN     H13      HGA3     0.090000        1.0080           0
     67558 WT23     485      MECN     C2       CG1N1    0.360000       12.0110           0
     67559 WT23     485      MECN     N3       NG1T1   -0.460000       14.0070           0
     67560 WT23     487      MECN     C1       CG331   -0.170000       12.0110           0
     67561 WT23     487      MECN     H11      HGA3     0.090000        1.0080           0
     67562 WT23     487      MECN     H12      HGA3     0.090000        1.0080           0
     67563 WT23     487      MECN     H13      HGA3     0.090000        1.0080           0
     67564 WT23     487      MECN     C2       CG1N1    0.360000       12.0110           0
     67565 WT23     487      MECN     N3       NG1T1   -0.460000       14.0070           0
     67566 WT23     489      MECN     C1       CG331   -0.170000       12.0110           0
     67567 WT23     489      MECN     H11      HGA3     0.090000        1.0080           0
     67568 WT23     489      MECN     H12      HGA3     0.090000        1.0080           0
     67569 WT23     489      MECN     H13      HGA3     0.090000        1.0080           0
     67570 WT23     489      MECN     C2       CG1N1    0.360000       12.0110           0
     67571 WT23     489      MECN     N3       NG1T1   -0.460000       14.0070           0
     67572 WT23     490      MECN     C1       CG331   -0.170000       12.0110           0
     67573 WT23     490      MECN     H11      HGA3     0.090000        1.0080           0
     67574 WT23     490      MECN     H12      HGA3     0.090000        1.0080           0
     67575 WT23     490      MECN     H13      HGA3     0.090000        1.0080           0
     67576 WT23     490      MECN     C2       CG1N1    0.360000       12.0110           0
     67577 WT23     490      MECN     N3       NG1T1   -0.460000       14.0070           0
     67578 WT23     491      MECN     C1       CG331   -0.170000       12.0110           0
     67579 WT23     491      MECN     H11      HGA3     0.090000        1.0080           0
     67580 WT23     491      MECN     H12      HGA3     0.090000        1.0080           0
     67581 WT23     491      MECN     H13      HGA3     0.090000        1.0080           0
     67582 WT23     491      MECN     C2       CG1N1    0.360000       12.0110           0
     67583 WT23     491      MECN     N3       NG1T1   -0.460000       14.0070           0
     67584 WT23     493      MECN     C1       CG331   -0.170000       12.0110           0
     67585 WT23     493      MECN     H11      HGA3     0.090000        1.0080           0
     67586 WT23     493      MECN     H12      HGA3     0.090000        1.0080           0
     67587 WT23     493      MECN     H13      HGA3     0.090000        1.0080           0
     67588 WT23     493      MECN     C2       CG1N1    0.360000       12.0110           0
     67589 WT23     493      MECN     N3       NG1T1   -0.460000       14.0070           0
     67590 WT23     495      MECN     C1       CG331   -0.170000       12.0110           0
     67591 WT23     495      MECN     H11      HGA3     0.090000        1.0080           0
     67592 WT23     495      MECN     H12      HGA3     0.090000        1.0080           0
     67593 WT23     495      MECN     H13      HGA3     0.090000        1.0080           0
     67594 WT23     495      MECN     C2       CG1N1    0.360000       12.0110           0
     67595 WT23     495      MECN     N3       NG1T1   -0.460000       14.0070           0
     67596 WT23     496      MECN     C1       CG331   -0.170000       12.0110           0
     67597 WT23     496      MECN     H11      HGA3     0.090000        1.0080           0
     67598 WT23     496      MECN     H12      HGA3     0.090000        1.0080           0
     67599 WT23     496      MECN     H13      HGA3     0.090000        1.0080           0
     67600 WT23     496      MECN     C2       CG1N1    0.360000       12.0110           0
     67601 WT23     496      MECN     N3       NG1T1   -0.460000       14.0070           0
     67602 WT23     498      MECN     C1       CG331   -0.170000       12.0110           0
     67603 WT23     498      MECN     H11      HGA3     0.090000        1.0080           0
     67604 WT23     498      MECN     H12      HGA3     0.090000        1.0080           0
     67605 WT23     498      MECN     H13      HGA3     0.090000        1.0080           0
     67606 WT23     498      MECN     C2       CG1N1    0.360000       12.0110           0
     67607 WT23     498      MECN     N3       NG1T1   -0.460000       14.0070           0
     67608 WT23     499      MECN     C1       CG331   -0.170000       12.0110           0
     67609 WT23     499      MECN     H11      HGA3     0.090000        1.0080           0
     67610 WT23     499      MECN     H12      HGA3     0.090000        1.0080           0
     67611 WT23     499      MECN     H13      HGA3     0.090000        1.0080           0
     67612 WT23     499      MECN     C2       CG1N1    0.360000       12.0110           0
     67613 WT23     499      MECN     N3       NG1T1   -0.460000       14.0070           0
     67614 WT23     501      MECN     C1       CG331   -0.170000       12.0110           0
     67615 WT23     501      MECN     H11      HGA3     0.090000        1.0080           0
     67616 WT23     501      MECN     H12      HGA3     0.090000        1.0080           0
     67617 WT23     501      MECN     H13      HGA3     0.090000        1.0080           0
     67618 WT23     501      MECN     C2       CG1N1    0.360000       12.0110           0
     67619 WT23     501      MECN     N3       NG1T1   -0.460000       14.0070           0
     67620 WT23     502      MECN     C1       CG331   -0.170000       12.0110           0
     67621 WT23     502      MECN     H11      HGA3     0.090000        1.0080           0
     67622 WT23     502      MECN     H12      HGA3     0.090000        1.0080           0
     67623 WT23     502      MECN     H13      HGA3     0.090000        1.0080           0
     67624 WT23     502      MECN     C2       CG1N1    0.360000       12.0110           0
     67625 WT23     502      MECN     N3       NG1T1   -0.460000       14.0070           0
     67626 WT23     503      MECN     C1       CG331   -0.170000       12.0110           0
     67627 WT23     503      MECN     H11      HGA3     0.090000        1.0080           0
     67628 WT23     503      MECN     H12      HGA3     0.090000        1.0080           0
     67629 WT23     503      MECN     H13      HGA3     0.090000        1.0080           0
     67630 WT23     503      MECN     C2       CG1N1    0.360000       12.0110           0
     67631 WT23     503      MECN     N3       NG1T1   -0.460000       14.0070           0
     67632 WT23     504      MECN     C1       CG331   -0.170000       12.0110           0
     67633 WT23     504      MECN     H11      HGA3     0.090000        1.0080           0
     67634 WT23     504      MECN     H12      HGA3     0.090000        1.0080           0
     67635 WT23     504      MECN     H13      HGA3     0.090000        1.0080           0
     67636 WT23     504      MECN     C2       CG1N1    0.360000       12.0110           0
     67637 WT23     504      MECN     N3       NG1T1   -0.460000       14.0070           0
     67638 WT23     505      MECN     C1       CG331   -0.170000       12.0110           0
     67639 WT23     505      MECN     H11      HGA3     0.090000        1.0080           0
     67640 WT23     505      MECN     H12      HGA3     0.090000        1.0080           0
     67641 WT23     505      MECN     H13      HGA3     0.090000        1.0080           0
     67642 WT23     505      MECN     C2       CG1N1    0.360000       12.0110           0
     67643 WT23     505      MECN     N3       NG1T1   -0.460000       14.0070           0
     67644 WT23     506      MECN     C1       CG331   -0.170000       12.0110           0
     67645 WT23     506      MECN     H11      HGA3     0.090000        1.0080           0
     67646 WT23     506      MECN     H12      HGA3     0.090000        1.0080           0
     67647 WT23     506      MECN     H13      HGA3     0.090000        1.0080           0
     67648 WT23     506      MECN     C2       CG1N1    0.360000       12.0110           0
     67649 WT23     506      MECN     N3       NG1T1   -0.460000       14.0070           0
     67650 WT23     507      MECN     C1       CG331   -0.170000       12.0110           0
     67651 WT23     507      MECN     H11      HGA3     0.090000        1.0080           0
     67652 WT23     507      MECN     H12      HGA3     0.090000        1.0080           0
     67653 WT23     507      MECN     H13      HGA3     0.090000        1.0080           0
     67654 WT23     507      MECN     C2       CG1N1    0.360000       12.0110           0
     67655 WT23     507      MECN     N3       NG1T1   -0.460000       14.0070           0
     67656 WT23     510      MECN     C1       CG331   -0.170000       12.0110           0
     67657 WT23     510      MECN     H11      HGA3     0.090000        1.0080           0
     67658 WT23     510      MECN     H12      HGA3     0.090000        1.0080           0
     67659 WT23     510      MECN     H13      HGA3     0.090000        1.0080           0
     67660 WT23     510      MECN     C2       CG1N1    0.360000       12.0110           0
     67661 WT23     510      MECN     N3       NG1T1   -0.460000       14.0070           0
     67662 WT23     512      MECN     C1       CG331   -0.170000       12.0110           0
     67663 WT23     512      MECN     H11      HGA3     0.090000        1.0080           0
     67664 WT23     512      MECN     H12      HGA3     0.090000        1.0080           0
     67665 WT23     512      MECN     H13      HGA3     0.090000        1.0080           0
     67666 WT23     512      MECN     C2       CG1N1    0.360000       12.0110           0
     67667 WT23     512      MECN     N3       NG1T1   -0.460000       14.0070           0
     67668 WT23     514      MECN     C1       CG331   -0.170000       12.0110           0
     67669 WT23     514      MECN     H11      HGA3     0.090000        1.0080           0
     67670 WT23     514      MECN     H12      HGA3     0.090000        1.0080           0
     67671 WT23     514      MECN     H13      HGA3     0.090000        1.0080           0
     67672 WT23     514      MECN     C2       CG1N1    0.360000       12.0110           0
     67673 WT23     514      MECN     N3       NG1T1   -0.460000       14.0070           0
     67674 WT23     515      MECN     C1       CG331   -0.170000       12.0110           0
     67675 WT23     515      MECN     H11      HGA3     0.090000        1.0080           0
     67676 WT23     515      MECN     H12      HGA3     0.090000        1.0080           0
     67677 WT23     515      MECN     H13      HGA3     0.090000        1.0080           0
     67678 WT23     515      MECN     C2       CG1N1    0.360000       12.0110           0
     67679 WT23     515      MECN     N3       NG1T1   -0.460000       14.0070           0
     67680 WT23     516      MECN     C1       CG331   -0.170000       12.0110           0
     67681 WT23     516      MECN     H11      HGA3     0.090000        1.0080           0
     67682 WT23     516      MECN     H12      HGA3     0.090000        1.0080           0
     67683 WT23     516      MECN     H13      HGA3     0.090000        1.0080           0
     67684 WT23     516      MECN     C2       CG1N1    0.360000       12.0110           0
     67685 WT23     516      MECN     N3       NG1T1   -0.460000       14.0070           0
     67686 WT23     517      MECN     C1       CG331   -0.170000       12.0110           0
     67687 WT23     517      MECN     H11      HGA3     0.090000        1.0080           0
     67688 WT23     517      MECN     H12      HGA3     0.090000        1.0080           0
     67689 WT23     517      MECN     H13      HGA3     0.090000        1.0080           0
     67690 WT23     517      MECN     C2       CG1N1    0.360000       12.0110           0
     67691 WT23     517      MECN     N3       NG1T1   -0.460000       14.0070           0
     67692 WT23     520      MECN     C1       CG331   -0.170000       12.0110           0
     67693 WT23     520      MECN     H11      HGA3     0.090000        1.0080           0
     67694 WT23     520      MECN     H12      HGA3     0.090000        1.0080           0
     67695 WT23     520      MECN     H13      HGA3     0.090000        1.0080           0
     67696 WT23     520      MECN     C2       CG1N1    0.360000       12.0110           0
     67697 WT23     520      MECN     N3       NG1T1   -0.460000       14.0070           0
     67698 WT23     521      MECN     C1       CG331   -0.170000       12.0110           0
     67699 WT23     521      MECN     H11      HGA3     0.090000        1.0080           0
     67700 WT23     521      MECN     H12      HGA3     0.090000        1.0080           0
     67701 WT23     521      MECN     H13      HGA3     0.090000        1.0080           0
     67702 WT23     521      MECN     C2       CG1N1    0.360000       12.0110           0
     67703 WT23     521      MECN     N3       NG1T1   -0.460000       14.0070           0
     67704 WT23     522      MECN     C1       CG331   -0.170000       12.0110           0
     67705 WT23     522      MECN     H11      HGA3     0.090000        1.0080           0
     67706 WT23     522      MECN     H12      HGA3     0.090000        1.0080           0
     67707 WT23     522      MECN     H13      HGA3     0.090000        1.0080           0
     67708 WT23     522      MECN     C2       CG1N1    0.360000       12.0110           0
     67709 WT23     522      MECN     N3       NG1T1   -0.460000       14.0070           0
     67710 WT23     523      MECN     C1       CG331   -0.170000       12.0110           0
     67711 WT23     523      MECN     H11      HGA3     0.090000        1.0080           0
     67712 WT23     523      MECN     H12      HGA3     0.090000        1.0080           0
     67713 WT23     523      MECN     H13      HGA3     0.090000        1.0080           0
     67714 WT23     523      MECN     C2       CG1N1    0.360000       12.0110           0
     67715 WT23     523      MECN     N3       NG1T1   -0.460000       14.0070           0
     67716 WT23     524      MECN     C1       CG331   -0.170000       12.0110           0
     67717 WT23     524      MECN     H11      HGA3     0.090000        1.0080           0
     67718 WT23     524      MECN     H12      HGA3     0.090000        1.0080           0
     67719 WT23     524      MECN     H13      HGA3     0.090000        1.0080           0
     67720 WT23     524      MECN     C2       CG1N1    0.360000       12.0110           0
     67721 WT23     524      MECN     N3       NG1T1   -0.460000       14.0070           0
     67722 WT23     525      MECN     C1       CG331   -0.170000       12.0110           0
     67723 WT23     525      MECN     H11      HGA3     0.090000        1.0080           0
     67724 WT23     525      MECN     H12      HGA3     0.090000        1.0080           0
     67725 WT23     525      MECN     H13      HGA3     0.090000        1.0080           0
     67726 WT23     525      MECN     C2       CG1N1    0.360000       12.0110           0
     67727 WT23     525      MECN     N3       NG1T1   -0.460000       14.0070           0
     67728 WT23     527      MECN     C1       CG331   -0.170000       12.0110           0
     67729 WT23     527      MECN     H11      HGA3     0.090000        1.0080           0
     67730 WT23     527      MECN     H12      HGA3     0.090000        1.0080           0
     67731 WT23     527      MECN     H13      HGA3     0.090000        1.0080           0
     67732 WT23     527      MECN     C2       CG1N1    0.360000       12.0110           0
     67733 WT23     527      MECN     N3       NG1T1   -0.460000       14.0070           0
     67734 WT23     528      MECN     C1       CG331   -0.170000       12.0110           0
     67735 WT23     528      MECN     H11      HGA3     0.090000        1.0080           0
     67736 WT23     528      MECN     H12      HGA3     0.090000        1.0080           0
     67737 WT23     528      MECN     H13      HGA3     0.090000        1.0080           0
     67738 WT23     528      MECN     C2       CG1N1    0.360000       12.0110           0
     67739 WT23     528      MECN     N3       NG1T1   -0.460000       14.0070           0
     67740 WT23     529      MECN     C1       CG331   -0.170000       12.0110           0
     67741 WT23     529      MECN     H11      HGA3     0.090000        1.0080           0
     67742 WT23     529      MECN     H12      HGA3     0.090000        1.0080           0
     67743 WT23     529      MECN     H13      HGA3     0.090000        1.0080           0
     67744 WT23     529      MECN     C2       CG1N1    0.360000       12.0110           0
     67745 WT23     529      MECN     N3       NG1T1   -0.460000       14.0070           0
     67746 WT23     530      MECN     C1       CG331   -0.170000       12.0110           0
     67747 WT23     530      MECN     H11      HGA3     0.090000        1.0080           0
     67748 WT23     530      MECN     H12      HGA3     0.090000        1.0080           0
     67749 WT23     530      MECN     H13      HGA3     0.090000        1.0080           0
     67750 WT23     530      MECN     C2       CG1N1    0.360000       12.0110           0
     67751 WT23     530      MECN     N3       NG1T1   -0.460000       14.0070           0
     67752 WT23     531      MECN     C1       CG331   -0.170000       12.0110           0
     67753 WT23     531      MECN     H11      HGA3     0.090000        1.0080           0
     67754 WT23     531      MECN     H12      HGA3     0.090000        1.0080           0
     67755 WT23     531      MECN     H13      HGA3     0.090000        1.0080           0
     67756 WT23     531      MECN     C2       CG1N1    0.360000       12.0110           0
     67757 WT23     531      MECN     N3       NG1T1   -0.460000       14.0070           0
     67758 WT23     533      MECN     C1       CG331   -0.170000       12.0110           0
     67759 WT23     533      MECN     H11      HGA3     0.090000        1.0080           0
     67760 WT23     533      MECN     H12      HGA3     0.090000        1.0080           0
     67761 WT23     533      MECN     H13      HGA3     0.090000        1.0080           0
     67762 WT23     533      MECN     C2       CG1N1    0.360000       12.0110           0
     67763 WT23     533      MECN     N3       NG1T1   -0.460000       14.0070           0
     67764 WT23     534      MECN     C1       CG331   -0.170000       12.0110           0
     67765 WT23     534      MECN     H11      HGA3     0.090000        1.0080           0
     67766 WT23     534      MECN     H12      HGA3     0.090000        1.0080           0
     67767 WT23     534      MECN     H13      HGA3     0.090000        1.0080           0
     67768 WT23     534      MECN     C2       CG1N1    0.360000       12.0110           0
     67769 WT23     534      MECN     N3       NG1T1   -0.460000       14.0070           0
     67770 WT23     535      MECN     C1       CG331   -0.170000       12.0110           0
     67771 WT23     535      MECN     H11      HGA3     0.090000        1.0080           0
     67772 WT23     535      MECN     H12      HGA3     0.090000        1.0080           0
     67773 WT23     535      MECN     H13      HGA3     0.090000        1.0080           0
     67774 WT23     535      MECN     C2       CG1N1    0.360000       12.0110           0
     67775 WT23     535      MECN     N3       NG1T1   -0.460000       14.0070           0
     67776 WT23     536      MECN     C1       CG331   -0.170000       12.0110           0
     67777 WT23     536      MECN     H11      HGA3     0.090000        1.0080           0
     67778 WT23     536      MECN     H12      HGA3     0.090000        1.0080           0
     67779 WT23     536      MECN     H13      HGA3     0.090000        1.0080           0
     67780 WT23     536      MECN     C2       CG1N1    0.360000       12.0110           0
     67781 WT23     536      MECN     N3       NG1T1   -0.460000       14.0070           0
     67782 WT23     537      MECN     C1       CG331   -0.170000       12.0110           0
     67783 WT23     537      MECN     H11      HGA3     0.090000        1.0080           0
     67784 WT23     537      MECN     H12      HGA3     0.090000        1.0080           0
     67785 WT23     537      MECN     H13      HGA3     0.090000        1.0080           0
     67786 WT23     537      MECN     C2       CG1N1    0.360000       12.0110           0
     67787 WT23     537      MECN     N3       NG1T1   -0.460000       14.0070           0
     67788 WT23     538      MECN     C1       CG331   -0.170000       12.0110           0
     67789 WT23     538      MECN     H11      HGA3     0.090000        1.0080           0
     67790 WT23     538      MECN     H12      HGA3     0.090000        1.0080           0
     67791 WT23     538      MECN     H13      HGA3     0.090000        1.0080           0
     67792 WT23     538      MECN     C2       CG1N1    0.360000       12.0110           0
     67793 WT23     538      MECN     N3       NG1T1   -0.460000       14.0070           0
     67794 WT23     539      MECN     C1       CG331   -0.170000       12.0110           0
     67795 WT23     539      MECN     H11      HGA3     0.090000        1.0080           0
     67796 WT23     539      MECN     H12      HGA3     0.090000        1.0080           0
     67797 WT23     539      MECN     H13      HGA3     0.090000        1.0080           0
     67798 WT23     539      MECN     C2       CG1N1    0.360000       12.0110           0
     67799 WT23     539      MECN     N3       NG1T1   -0.460000       14.0070           0
     67800 WT23     540      MECN     C1       CG331   -0.170000       12.0110           0
     67801 WT23     540      MECN     H11      HGA3     0.090000        1.0080           0
     67802 WT23     540      MECN     H12      HGA3     0.090000        1.0080           0
     67803 WT23     540      MECN     H13      HGA3     0.090000        1.0080           0
     67804 WT23     540      MECN     C2       CG1N1    0.360000       12.0110           0
     67805 WT23     540      MECN     N3       NG1T1   -0.460000       14.0070           0
     67806 WT23     544      MECN     C1       CG331   -0.170000       12.0110           0
     67807 WT23     544      MECN     H11      HGA3     0.090000        1.0080           0
     67808 WT23     544      MECN     H12      HGA3     0.090000        1.0080           0
     67809 WT23     544      MECN     H13      HGA3     0.090000        1.0080           0
     67810 WT23     544      MECN     C2       CG1N1    0.360000       12.0110           0
     67811 WT23     544      MECN     N3       NG1T1   -0.460000       14.0070           0
     67812 WT23     545      MECN     C1       CG331   -0.170000       12.0110           0
     67813 WT23     545      MECN     H11      HGA3     0.090000        1.0080           0
     67814 WT23     545      MECN     H12      HGA3     0.090000        1.0080           0
     67815 WT23     545      MECN     H13      HGA3     0.090000        1.0080           0
     67816 WT23     545      MECN     C2       CG1N1    0.360000       12.0110           0
     67817 WT23     545      MECN     N3       NG1T1   -0.460000       14.0070           0
     67818 WT23     547      MECN     C1       CG331   -0.170000       12.0110           0
     67819 WT23     547      MECN     H11      HGA3     0.090000        1.0080           0
     67820 WT23     547      MECN     H12      HGA3     0.090000        1.0080           0
     67821 WT23     547      MECN     H13      HGA3     0.090000        1.0080           0
     67822 WT23     547      MECN     C2       CG1N1    0.360000       12.0110           0
     67823 WT23     547      MECN     N3       NG1T1   -0.460000       14.0070           0
     67824 WT23     548      MECN     C1       CG331   -0.170000       12.0110           0
     67825 WT23     548      MECN     H11      HGA3     0.090000        1.0080           0
     67826 WT23     548      MECN     H12      HGA3     0.090000        1.0080           0
     67827 WT23     548      MECN     H13      HGA3     0.090000        1.0080           0
     67828 WT23     548      MECN     C2       CG1N1    0.360000       12.0110           0
     67829 WT23     548      MECN     N3       NG1T1   -0.460000       14.0070           0
     67830 WT23     549      MECN     C1       CG331   -0.170000       12.0110           0
     67831 WT23     549      MECN     H11      HGA3     0.090000        1.0080           0
     67832 WT23     549      MECN     H12      HGA3     0.090000        1.0080           0
     67833 WT23     549      MECN     H13      HGA3     0.090000        1.0080           0
     67834 WT23     549      MECN     C2       CG1N1    0.360000       12.0110           0
     67835 WT23     549      MECN     N3       NG1T1   -0.460000       14.0070           0
     67836 WT23     550      MECN     C1       CG331   -0.170000       12.0110           0
     67837 WT23     550      MECN     H11      HGA3     0.090000        1.0080           0
     67838 WT23     550      MECN     H12      HGA3     0.090000        1.0080           0
     67839 WT23     550      MECN     H13      HGA3     0.090000        1.0080           0
     67840 WT23     550      MECN     C2       CG1N1    0.360000       12.0110           0
     67841 WT23     550      MECN     N3       NG1T1   -0.460000       14.0070           0
     67842 WT23     551      MECN     C1       CG331   -0.170000       12.0110           0
     67843 WT23     551      MECN     H11      HGA3     0.090000        1.0080           0
     67844 WT23     551      MECN     H12      HGA3     0.090000        1.0080           0
     67845 WT23     551      MECN     H13      HGA3     0.090000        1.0080           0
     67846 WT23     551      MECN     C2       CG1N1    0.360000       12.0110           0
     67847 WT23     551      MECN     N3       NG1T1   -0.460000       14.0070           0
     67848 WT23     552      MECN     C1       CG331   -0.170000       12.0110           0
     67849 WT23     552      MECN     H11      HGA3     0.090000        1.0080           0
     67850 WT23     552      MECN     H12      HGA3     0.090000        1.0080           0
     67851 WT23     552      MECN     H13      HGA3     0.090000        1.0080           0
     67852 WT23     552      MECN     C2       CG1N1    0.360000       12.0110           0
     67853 WT23     552      MECN     N3       NG1T1   -0.460000       14.0070           0
     67854 WT23     553      MECN     C1       CG331   -0.170000       12.0110           0
     67855 WT23     553      MECN     H11      HGA3     0.090000        1.0080           0
     67856 WT23     553      MECN     H12      HGA3     0.090000        1.0080           0
     67857 WT23     553      MECN     H13      HGA3     0.090000        1.0080           0
     67858 WT23     553      MECN     C2       CG1N1    0.360000       12.0110           0
     67859 WT23     553      MECN     N3       NG1T1   -0.460000       14.0070           0
     67860 WT23     554      MECN     C1       CG331   -0.170000       12.0110           0
     67861 WT23     554      MECN     H11      HGA3     0.090000        1.0080           0
     67862 WT23     554      MECN     H12      HGA3     0.090000        1.0080           0
     67863 WT23     554      MECN     H13      HGA3     0.090000        1.0080           0
     67864 WT23     554      MECN     C2       CG1N1    0.360000       12.0110           0
     67865 WT23     554      MECN     N3       NG1T1   -0.460000       14.0070           0
     67866 WT23     556      MECN     C1       CG331   -0.170000       12.0110           0
     67867 WT23     556      MECN     H11      HGA3     0.090000        1.0080           0
     67868 WT23     556      MECN     H12      HGA3     0.090000        1.0080           0
     67869 WT23     556      MECN     H13      HGA3     0.090000        1.0080           0
     67870 WT23     556      MECN     C2       CG1N1    0.360000       12.0110           0
     67871 WT23     556      MECN     N3       NG1T1   -0.460000       14.0070           0
     67872 WT23     559      MECN     C1       CG331   -0.170000       12.0110           0
     67873 WT23     559      MECN     H11      HGA3     0.090000        1.0080           0
     67874 WT23     559      MECN     H12      HGA3     0.090000        1.0080           0
     67875 WT23     559      MECN     H13      HGA3     0.090000        1.0080           0
     67876 WT23     559      MECN     C2       CG1N1    0.360000       12.0110           0
     67877 WT23     559      MECN     N3       NG1T1   -0.460000       14.0070           0
     67878 WT23     561      MECN     C1       CG331   -0.170000       12.0110           0
     67879 WT23     561      MECN     H11      HGA3     0.090000        1.0080           0
     67880 WT23     561      MECN     H12      HGA3     0.090000        1.0080           0
     67881 WT23     561      MECN     H13      HGA3     0.090000        1.0080           0
     67882 WT23     561      MECN     C2       CG1N1    0.360000       12.0110           0
     67883 WT23     561      MECN     N3       NG1T1   -0.460000       14.0070           0
     67884 WT23     565      MECN     C1       CG331   -0.170000       12.0110           0
     67885 WT23     565      MECN     H11      HGA3     0.090000        1.0080           0
     67886 WT23     565      MECN     H12      HGA3     0.090000        1.0080           0
     67887 WT23     565      MECN     H13      HGA3     0.090000        1.0080           0
     67888 WT23     565      MECN     C2       CG1N1    0.360000       12.0110           0
     67889 WT23     565      MECN     N3       NG1T1   -0.460000       14.0070           0
     67890 WT23     571      MECN     C1       CG331   -0.170000       12.0110           0
     67891 WT23     571      MECN     H11      HGA3     0.090000        1.0080           0
     67892 WT23     571      MECN     H12      HGA3     0.090000        1.0080           0
     67893 WT23     571      MECN     H13      HGA3     0.090000        1.0080           0
     67894 WT23     571      MECN     C2       CG1N1    0.360000       12.0110           0
     67895 WT23     571      MECN     N3       NG1T1   -0.460000       14.0070           0
     67896 WT23     572      MECN     C1       CG331   -0.170000       12.0110           0
     67897 WT23     572      MECN     H11      HGA3     0.090000        1.0080           0
     67898 WT23     572      MECN     H12      HGA3     0.090000        1.0080           0
     67899 WT23     572      MECN     H13      HGA3     0.090000        1.0080           0
     67900 WT23     572      MECN     C2       CG1N1    0.360000       12.0110           0
     67901 WT23     572      MECN     N3       NG1T1   -0.460000       14.0070           0
     67902 WT23     573      MECN     C1       CG331   -0.170000       12.0110           0
     67903 WT23     573      MECN     H11      HGA3     0.090000        1.0080           0
     67904 WT23     573      MECN     H12      HGA3     0.090000        1.0080           0
     67905 WT23     573      MECN     H13      HGA3     0.090000        1.0080           0
     67906 WT23     573      MECN     C2       CG1N1    0.360000       12.0110           0
     67907 WT23     573      MECN     N3       NG1T1   -0.460000       14.0070           0
     67908 WT23     575      MECN     C1       CG331   -0.170000       12.0110           0
     67909 WT23     575      MECN     H11      HGA3     0.090000        1.0080           0
     67910 WT23     575      MECN     H12      HGA3     0.090000        1.0080           0
     67911 WT23     575      MECN     H13      HGA3     0.090000        1.0080           0
     67912 WT23     575      MECN     C2       CG1N1    0.360000       12.0110           0
     67913 WT23     575      MECN     N3       NG1T1   -0.460000       14.0070           0
     67914 WT23     576      MECN     C1       CG331   -0.170000       12.0110           0
     67915 WT23     576      MECN     H11      HGA3     0.090000        1.0080           0
     67916 WT23     576      MECN     H12      HGA3     0.090000        1.0080           0
     67917 WT23     576      MECN     H13      HGA3     0.090000        1.0080           0
     67918 WT23     576      MECN     C2       CG1N1    0.360000       12.0110           0
     67919 WT23     576      MECN     N3       NG1T1   -0.460000       14.0070           0
     67920 WT23     577      MECN     C1       CG331   -0.170000       12.0110           0
     67921 WT23     577      MECN     H11      HGA3     0.090000        1.0080           0
     67922 WT23     577      MECN     H12      HGA3     0.090000        1.0080           0
     67923 WT23     577      MECN     H13      HGA3     0.090000        1.0080           0
     67924 WT23     577      MECN     C2       CG1N1    0.360000       12.0110           0
     67925 WT23     577      MECN     N3       NG1T1   -0.460000       14.0070           0
     67926 WT23     582      MECN     C1       CG331   -0.170000       12.0110           0
     67927 WT23     582      MECN     H11      HGA3     0.090000        1.0080           0
     67928 WT23     582      MECN     H12      HGA3     0.090000        1.0080           0
     67929 WT23     582      MECN     H13      HGA3     0.090000        1.0080           0
     67930 WT23     582      MECN     C2       CG1N1    0.360000       12.0110           0
     67931 WT23     582      MECN     N3       NG1T1   -0.460000       14.0070           0
     67932 WT23     583      MECN     C1       CG331   -0.170000       12.0110           0
     67933 WT23     583      MECN     H11      HGA3     0.090000        1.0080           0
     67934 WT23     583      MECN     H12      HGA3     0.090000        1.0080           0
     67935 WT23     583      MECN     H13      HGA3     0.090000        1.0080           0
     67936 WT23     583      MECN     C2       CG1N1    0.360000       12.0110           0
     67937 WT23     583      MECN     N3       NG1T1   -0.460000       14.0070           0
     67938 WT23     584      MECN     C1       CG331   -0.170000       12.0110           0
     67939 WT23     584      MECN     H11      HGA3     0.090000        1.0080           0
     67940 WT23     584      MECN     H12      HGA3     0.090000        1.0080           0
     67941 WT23     584      MECN     H13      HGA3     0.090000        1.0080           0
     67942 WT23     584      MECN     C2       CG1N1    0.360000       12.0110           0
     67943 WT23     584      MECN     N3       NG1T1   -0.460000       14.0070           0
     67944 WT23     588      MECN     C1       CG331   -0.170000       12.0110           0
     67945 WT23     588      MECN     H11      HGA3     0.090000        1.0080           0
     67946 WT23     588      MECN     H12      HGA3     0.090000        1.0080           0
     67947 WT23     588      MECN     H13      HGA3     0.090000        1.0080           0
     67948 WT23     588      MECN     C2       CG1N1    0.360000       12.0110           0
     67949 WT23     588      MECN     N3       NG1T1   -0.460000       14.0070           0
     67950 WT23     591      MECN     C1       CG331   -0.170000       12.0110           0
     67951 WT23     591      MECN     H11      HGA3     0.090000        1.0080           0
     67952 WT23     591      MECN     H12      HGA3     0.090000        1.0080           0
     67953 WT23     591      MECN     H13      HGA3     0.090000        1.0080           0
     67954 WT23     591      MECN     C2       CG1N1    0.360000       12.0110           0
     67955 WT23     591      MECN     N3       NG1T1   -0.460000       14.0070           0
     67956 WT23     592      MECN     C1       CG331   -0.170000       12.0110           0
     67957 WT23     592      MECN     H11      HGA3     0.090000        1.0080           0
     67958 WT23     592      MECN     H12      HGA3     0.090000        1.0080           0
     67959 WT23     592      MECN     H13      HGA3     0.090000        1.0080           0
     67960 WT23     592      MECN     C2       CG1N1    0.360000       12.0110           0
     67961 WT23     592      MECN     N3       NG1T1   -0.460000       14.0070           0
     67962 WT23     593      MECN     C1       CG331   -0.170000       12.0110           0
     67963 WT23     593      MECN     H11      HGA3     0.090000        1.0080           0
     67964 WT23     593      MECN     H12      HGA3     0.090000        1.0080           0
     67965 WT23     593      MECN     H13      HGA3     0.090000        1.0080           0
     67966 WT23     593      MECN     C2       CG1N1    0.360000       12.0110           0
     67967 WT23     593      MECN     N3       NG1T1   -0.460000       14.0070           0
     67968 WT23     596      MECN     C1       CG331   -0.170000       12.0110           0
     67969 WT23     596      MECN     H11      HGA3     0.090000        1.0080           0
     67970 WT23     596      MECN     H12      HGA3     0.090000        1.0080           0
     67971 WT23     596      MECN     H13      HGA3     0.090000        1.0080           0
     67972 WT23     596      MECN     C2       CG1N1    0.360000       12.0110           0
     67973 WT23     596      MECN     N3       NG1T1   -0.460000       14.0070           0
     67974 WT23     597      MECN     C1       CG331   -0.170000       12.0110           0
     67975 WT23     597      MECN     H11      HGA3     0.090000        1.0080           0
     67976 WT23     597      MECN     H12      HGA3     0.090000        1.0080           0
     67977 WT23     597      MECN     H13      HGA3     0.090000        1.0080           0
     67978 WT23     597      MECN     C2       CG1N1    0.360000       12.0110           0
     67979 WT23     597      MECN     N3       NG1T1   -0.460000       14.0070           0
     67980 WT23     598      MECN     C1       CG331   -0.170000       12.0110           0
     67981 WT23     598      MECN     H11      HGA3     0.090000        1.0080           0
     67982 WT23     598      MECN     H12      HGA3     0.090000        1.0080           0
     67983 WT23     598      MECN     H13      HGA3     0.090000        1.0080           0
     67984 WT23     598      MECN     C2       CG1N1    0.360000       12.0110           0
     67985 WT23     598      MECN     N3       NG1T1   -0.460000       14.0070           0
     67986 WT23     599      MECN     C1       CG331   -0.170000       12.0110           0
     67987 WT23     599      MECN     H11      HGA3     0.090000        1.0080           0
     67988 WT23     599      MECN     H12      HGA3     0.090000        1.0080           0
     67989 WT23     599      MECN     H13      HGA3     0.090000        1.0080           0
     67990 WT23     599      MECN     C2       CG1N1    0.360000       12.0110           0
     67991 WT23     599      MECN     N3       NG1T1   -0.460000       14.0070           0
     67992 WT23     600      MECN     C1       CG331   -0.170000       12.0110           0
     67993 WT23     600      MECN     H11      HGA3     0.090000        1.0080           0
     67994 WT23     600      MECN     H12      HGA3     0.090000        1.0080           0
     67995 WT23     600      MECN     H13      HGA3     0.090000        1.0080           0
     67996 WT23     600      MECN     C2       CG1N1    0.360000       12.0110           0
     67997 WT23     600      MECN     N3       NG1T1   -0.460000       14.0070           0
     67998 WT23     601      MECN     C1       CG331   -0.170000       12.0110           0
     67999 WT23     601      MECN     H11      HGA3     0.090000        1.0080           0
     68000 WT23     601      MECN     H12      HGA3     0.090000        1.0080           0
     68001 WT23     601      MECN     H13      HGA3     0.090000        1.0080           0
     68002 WT23     601      MECN     C2       CG1N1    0.360000       12.0110           0
     68003 WT23     601      MECN     N3       NG1T1   -0.460000       14.0070           0
     68004 WT23     603      MECN     C1       CG331   -0.170000       12.0110           0
     68005 WT23     603      MECN     H11      HGA3     0.090000        1.0080           0
     68006 WT23     603      MECN     H12      HGA3     0.090000        1.0080           0
     68007 WT23     603      MECN     H13      HGA3     0.090000        1.0080           0
     68008 WT23     603      MECN     C2       CG1N1    0.360000       12.0110           0
     68009 WT23     603      MECN     N3       NG1T1   -0.460000       14.0070           0
     68010 WT23     604      MECN     C1       CG331   -0.170000       12.0110           0
     68011 WT23     604      MECN     H11      HGA3     0.090000        1.0080           0
     68012 WT23     604      MECN     H12      HGA3     0.090000        1.0080           0
     68013 WT23     604      MECN     H13      HGA3     0.090000        1.0080           0
     68014 WT23     604      MECN     C2       CG1N1    0.360000       12.0110           0
     68015 WT23     604      MECN     N3       NG1T1   -0.460000       14.0070           0
     68016 WT23     607      MECN     C1       CG331   -0.170000       12.0110           0
     68017 WT23     607      MECN     H11      HGA3     0.090000        1.0080           0
     68018 WT23     607      MECN     H12      HGA3     0.090000        1.0080           0
     68019 WT23     607      MECN     H13      HGA3     0.090000        1.0080           0
     68020 WT23     607      MECN     C2       CG1N1    0.360000       12.0110           0
     68021 WT23     607      MECN     N3       NG1T1   -0.460000       14.0070           0
     68022 WT23     608      MECN     C1       CG331   -0.170000       12.0110           0
     68023 WT23     608      MECN     H11      HGA3     0.090000        1.0080           0
     68024 WT23     608      MECN     H12      HGA3     0.090000        1.0080           0
     68025 WT23     608      MECN     H13      HGA3     0.090000        1.0080           0
     68026 WT23     608      MECN     C2       CG1N1    0.360000       12.0110           0
     68027 WT23     608      MECN     N3       NG1T1   -0.460000       14.0070           0
     68028 WT23     609      MECN     C1       CG331   -0.170000       12.0110           0
     68029 WT23     609      MECN     H11      HGA3     0.090000        1.0080           0
     68030 WT23     609      MECN     H12      HGA3     0.090000        1.0080           0
     68031 WT23     609      MECN     H13      HGA3     0.090000        1.0080           0
     68032 WT23     609      MECN     C2       CG1N1    0.360000       12.0110           0
     68033 WT23     609      MECN     N3       NG1T1   -0.460000       14.0070           0
     68034 WT23     612      MECN     C1       CG331   -0.170000       12.0110           0
     68035 WT23     612      MECN     H11      HGA3     0.090000        1.0080           0
     68036 WT23     612      MECN     H12      HGA3     0.090000        1.0080           0
     68037 WT23     612      MECN     H13      HGA3     0.090000        1.0080           0
     68038 WT23     612      MECN     C2       CG1N1    0.360000       12.0110           0
     68039 WT23     612      MECN     N3       NG1T1   -0.460000       14.0070           0
     68040 WT23     615      MECN     C1       CG331   -0.170000       12.0110           0
     68041 WT23     615      MECN     H11      HGA3     0.090000        1.0080           0
     68042 WT23     615      MECN     H12      HGA3     0.090000        1.0080           0
     68043 WT23     615      MECN     H13      HGA3     0.090000        1.0080           0
     68044 WT23     615      MECN     C2       CG1N1    0.360000       12.0110           0
     68045 WT23     615      MECN     N3       NG1T1   -0.460000       14.0070           0
     68046 WT23     616      MECN     C1       CG331   -0.170000       12.0110           0
     68047 WT23     616      MECN     H11      HGA3     0.090000        1.0080           0
     68048 WT23     616      MECN     H12      HGA3     0.090000        1.0080           0
     68049 WT23     616      MECN     H13      HGA3     0.090000        1.0080           0
     68050 WT23     616      MECN     C2       CG1N1    0.360000       12.0110           0
     68051 WT23     616      MECN     N3       NG1T1   -0.460000       14.0070           0
     68052 WT23     617      MECN     C1       CG331   -0.170000       12.0110           0
     68053 WT23     617      MECN     H11      HGA3     0.090000        1.0080           0
     68054 WT23     617      MECN     H12      HGA3     0.090000        1.0080           0
     68055 WT23     617      MECN     H13      HGA3     0.090000        1.0080           0
     68056 WT23     617      MECN     C2       CG1N1    0.360000       12.0110           0
     68057 WT23     617      MECN     N3       NG1T1   -0.460000       14.0070           0
     68058 WT23     618      MECN     C1       CG331   -0.170000       12.0110           0
     68059 WT23     618      MECN     H11      HGA3     0.090000        1.0080           0
     68060 WT23     618      MECN     H12      HGA3     0.090000        1.0080           0
     68061 WT23     618      MECN     H13      HGA3     0.090000        1.0080           0
     68062 WT23     618      MECN     C2       CG1N1    0.360000       12.0110           0
     68063 WT23     618      MECN     N3       NG1T1   -0.460000       14.0070           0
     68064 WT23     619      MECN     C1       CG331   -0.170000       12.0110           0
     68065 WT23     619      MECN     H11      HGA3     0.090000        1.0080           0
     68066 WT23     619      MECN     H12      HGA3     0.090000        1.0080           0
     68067 WT23     619      MECN     H13      HGA3     0.090000        1.0080           0
     68068 WT23     619      MECN     C2       CG1N1    0.360000       12.0110           0
     68069 WT23     619      MECN     N3       NG1T1   -0.460000       14.0070           0
     68070 WT23     620      MECN     C1       CG331   -0.170000       12.0110           0
     68071 WT23     620      MECN     H11      HGA3     0.090000        1.0080           0
     68072 WT23     620      MECN     H12      HGA3     0.090000        1.0080           0
     68073 WT23     620      MECN     H13      HGA3     0.090000        1.0080           0
     68074 WT23     620      MECN     C2       CG1N1    0.360000       12.0110           0
     68075 WT23     620      MECN     N3       NG1T1   -0.460000       14.0070           0
     68076 WT23     621      MECN     C1       CG331   -0.170000       12.0110           0
     68077 WT23     621      MECN     H11      HGA3     0.090000        1.0080           0
     68078 WT23     621      MECN     H12      HGA3     0.090000        1.0080           0
     68079 WT23     621      MECN     H13      HGA3     0.090000        1.0080           0
     68080 WT23     621      MECN     C2       CG1N1    0.360000       12.0110           0
     68081 WT23     621      MECN     N3       NG1T1   -0.460000       14.0070           0
     68082 WT23     622      MECN     C1       CG331   -0.170000       12.0110           0
     68083 WT23     622      MECN     H11      HGA3     0.090000        1.0080           0
     68084 WT23     622      MECN     H12      HGA3     0.090000        1.0080           0
     68085 WT23     622      MECN     H13      HGA3     0.090000        1.0080           0
     68086 WT23     622      MECN     C2       CG1N1    0.360000       12.0110           0
     68087 WT23     622      MECN     N3       NG1T1   -0.460000       14.0070           0
     68088 WT23     624      MECN     C1       CG331   -0.170000       12.0110           0
     68089 WT23     624      MECN     H11      HGA3     0.090000        1.0080           0
     68090 WT23     624      MECN     H12      HGA3     0.090000        1.0080           0
     68091 WT23     624      MECN     H13      HGA3     0.090000        1.0080           0
     68092 WT23     624      MECN     C2       CG1N1    0.360000       12.0110           0
     68093 WT23     624      MECN     N3       NG1T1   -0.460000       14.0070           0
     68094 WT23     626      MECN     C1       CG331   -0.170000       12.0110           0
     68095 WT23     626      MECN     H11      HGA3     0.090000        1.0080           0
     68096 WT23     626      MECN     H12      HGA3     0.090000        1.0080           0
     68097 WT23     626      MECN     H13      HGA3     0.090000        1.0080           0
     68098 WT23     626      MECN     C2       CG1N1    0.360000       12.0110           0
     68099 WT23     626      MECN     N3       NG1T1   -0.460000       14.0070           0
     68100 WT23     627      MECN     C1       CG331   -0.170000       12.0110           0
     68101 WT23     627      MECN     H11      HGA3     0.090000        1.0080           0
     68102 WT23     627      MECN     H12      HGA3     0.090000        1.0080           0
     68103 WT23     627      MECN     H13      HGA3     0.090000        1.0080           0
     68104 WT23     627      MECN     C2       CG1N1    0.360000       12.0110           0
     68105 WT23     627      MECN     N3       NG1T1   -0.460000       14.0070           0
     68106 WT23     628      MECN     C1       CG331   -0.170000       12.0110           0
     68107 WT23     628      MECN     H11      HGA3     0.090000        1.0080           0
     68108 WT23     628      MECN     H12      HGA3     0.090000        1.0080           0
     68109 WT23     628      MECN     H13      HGA3     0.090000        1.0080           0
     68110 WT23     628      MECN     C2       CG1N1    0.360000       12.0110           0
     68111 WT23     628      MECN     N3       NG1T1   -0.460000       14.0070           0
     68112 WT23     629      MECN     C1       CG331   -0.170000       12.0110           0
     68113 WT23     629      MECN     H11      HGA3     0.090000        1.0080           0
     68114 WT23     629      MECN     H12      HGA3     0.090000        1.0080           0
     68115 WT23     629      MECN     H13      HGA3     0.090000        1.0080           0
     68116 WT23     629      MECN     C2       CG1N1    0.360000       12.0110           0
     68117 WT23     629      MECN     N3       NG1T1   -0.460000       14.0070           0
     68118 WT23     631      MECN     C1       CG331   -0.170000       12.0110           0
     68119 WT23     631      MECN     H11      HGA3     0.090000        1.0080           0
     68120 WT23     631      MECN     H12      HGA3     0.090000        1.0080           0
     68121 WT23     631      MECN     H13      HGA3     0.090000        1.0080           0
     68122 WT23     631      MECN     C2       CG1N1    0.360000       12.0110           0
     68123 WT23     631      MECN     N3       NG1T1   -0.460000       14.0070           0
     68124 WT23     632      MECN     C1       CG331   -0.170000       12.0110           0
     68125 WT23     632      MECN     H11      HGA3     0.090000        1.0080           0
     68126 WT23     632      MECN     H12      HGA3     0.090000        1.0080           0
     68127 WT23     632      MECN     H13      HGA3     0.090000        1.0080           0
     68128 WT23     632      MECN     C2       CG1N1    0.360000       12.0110           0
     68129 WT23     632      MECN     N3       NG1T1   -0.460000       14.0070           0
     68130 WT23     633      MECN     C1       CG331   -0.170000       12.0110           0
     68131 WT23     633      MECN     H11      HGA3     0.090000        1.0080           0
     68132 WT23     633      MECN     H12      HGA3     0.090000        1.0080           0
     68133 WT23     633      MECN     H13      HGA3     0.090000        1.0080           0
     68134 WT23     633      MECN     C2       CG1N1    0.360000       12.0110           0
     68135 WT23     633      MECN     N3       NG1T1   -0.460000       14.0070           0
     68136 WT23     635      MECN     C1       CG331   -0.170000       12.0110           0
     68137 WT23     635      MECN     H11      HGA3     0.090000        1.0080           0
     68138 WT23     635      MECN     H12      HGA3     0.090000        1.0080           0
     68139 WT23     635      MECN     H13      HGA3     0.090000        1.0080           0
     68140 WT23     635      MECN     C2       CG1N1    0.360000       12.0110           0
     68141 WT23     635      MECN     N3       NG1T1   -0.460000       14.0070           0
     68142 WT23     636      MECN     C1       CG331   -0.170000       12.0110           0
     68143 WT23     636      MECN     H11      HGA3     0.090000        1.0080           0
     68144 WT23     636      MECN     H12      HGA3     0.090000        1.0080           0
     68145 WT23     636      MECN     H13      HGA3     0.090000        1.0080           0
     68146 WT23     636      MECN     C2       CG1N1    0.360000       12.0110           0
     68147 WT23     636      MECN     N3       NG1T1   -0.460000       14.0070           0
     68148 WT23     637      MECN     C1       CG331   -0.170000       12.0110           0
     68149 WT23     637      MECN     H11      HGA3     0.090000        1.0080           0
     68150 WT23     637      MECN     H12      HGA3     0.090000        1.0080           0
     68151 WT23     637      MECN     H13      HGA3     0.090000        1.0080           0
     68152 WT23     637      MECN     C2       CG1N1    0.360000       12.0110           0
     68153 WT23     637      MECN     N3       NG1T1   -0.460000       14.0070           0
     68154 WT23     639      MECN     C1       CG331   -0.170000       12.0110           0
     68155 WT23     639      MECN     H11      HGA3     0.090000        1.0080           0
     68156 WT23     639      MECN     H12      HGA3     0.090000        1.0080           0
     68157 WT23     639      MECN     H13      HGA3     0.090000        1.0080           0
     68158 WT23     639      MECN     C2       CG1N1    0.360000       12.0110           0
     68159 WT23     639      MECN     N3       NG1T1   -0.460000       14.0070           0
     68160 WT23     640      MECN     C1       CG331   -0.170000       12.0110           0
     68161 WT23     640      MECN     H11      HGA3     0.090000        1.0080           0
     68162 WT23     640      MECN     H12      HGA3     0.090000        1.0080           0
     68163 WT23     640      MECN     H13      HGA3     0.090000        1.0080           0
     68164 WT23     640      MECN     C2       CG1N1    0.360000       12.0110           0
     68165 WT23     640      MECN     N3       NG1T1   -0.460000       14.0070           0
     68166 WT23     643      MECN     C1       CG331   -0.170000       12.0110           0
     68167 WT23     643      MECN     H11      HGA3     0.090000        1.0080           0
     68168 WT23     643      MECN     H12      HGA3     0.090000        1.0080           0
     68169 WT23     643      MECN     H13      HGA3     0.090000        1.0080           0
     68170 WT23     643      MECN     C2       CG1N1    0.360000       12.0110           0
     68171 WT23     643      MECN     N3       NG1T1   -0.460000       14.0070           0
     68172 WT23     646      MECN     C1       CG331   -0.170000       12.0110           0
     68173 WT23     646      MECN     H11      HGA3     0.090000        1.0080           0
     68174 WT23     646      MECN     H12      HGA3     0.090000        1.0080           0
     68175 WT23     646      MECN     H13      HGA3     0.090000        1.0080           0
     68176 WT23     646      MECN     C2       CG1N1    0.360000       12.0110           0
     68177 WT23     646      MECN     N3       NG1T1   -0.460000       14.0070           0
     68178 WT23     647      MECN     C1       CG331   -0.170000       12.0110           0
     68179 WT23     647      MECN     H11      HGA3     0.090000        1.0080           0
     68180 WT23     647      MECN     H12      HGA3     0.090000        1.0080           0
     68181 WT23     647      MECN     H13      HGA3     0.090000        1.0080           0
     68182 WT23     647      MECN     C2       CG1N1    0.360000       12.0110           0
     68183 WT23     647      MECN     N3       NG1T1   -0.460000       14.0070           0
     68184 WT23     648      MECN     C1       CG331   -0.170000       12.0110           0
     68185 WT23     648      MECN     H11      HGA3     0.090000        1.0080           0
     68186 WT23     648      MECN     H12      HGA3     0.090000        1.0080           0
     68187 WT23     648      MECN     H13      HGA3     0.090000        1.0080           0
     68188 WT23     648      MECN     C2       CG1N1    0.360000       12.0110           0
     68189 WT23     648      MECN     N3       NG1T1   -0.460000       14.0070           0
     68190 WT23     649      MECN     C1       CG331   -0.170000       12.0110           0
     68191 WT23     649      MECN     H11      HGA3     0.090000        1.0080           0
     68192 WT23     649      MECN     H12      HGA3     0.090000        1.0080           0
     68193 WT23     649      MECN     H13      HGA3     0.090000        1.0080           0
     68194 WT23     649      MECN     C2       CG1N1    0.360000       12.0110           0
     68195 WT23     649      MECN     N3       NG1T1   -0.460000       14.0070           0
     68196 WT23     650      MECN     C1       CG331   -0.170000       12.0110           0
     68197 WT23     650      MECN     H11      HGA3     0.090000        1.0080           0
     68198 WT23     650      MECN     H12      HGA3     0.090000        1.0080           0
     68199 WT23     650      MECN     H13      HGA3     0.090000        1.0080           0
     68200 WT23     650      MECN     C2       CG1N1    0.360000       12.0110           0
     68201 WT23     650      MECN     N3       NG1T1   -0.460000       14.0070           0
     68202 WT23     652      MECN     C1       CG331   -0.170000       12.0110           0
     68203 WT23     652      MECN     H11      HGA3     0.090000        1.0080           0
     68204 WT23     652      MECN     H12      HGA3     0.090000        1.0080           0
     68205 WT23     652      MECN     H13      HGA3     0.090000        1.0080           0
     68206 WT23     652      MECN     C2       CG1N1    0.360000       12.0110           0
     68207 WT23     652      MECN     N3       NG1T1   -0.460000       14.0070           0
     68208 WT23     653      MECN     C1       CG331   -0.170000       12.0110           0
     68209 WT23     653      MECN     H11      HGA3     0.090000        1.0080           0
     68210 WT23     653      MECN     H12      HGA3     0.090000        1.0080           0
     68211 WT23     653      MECN     H13      HGA3     0.090000        1.0080           0
     68212 WT23     653      MECN     C2       CG1N1    0.360000       12.0110           0
     68213 WT23     653      MECN     N3       NG1T1   -0.460000       14.0070           0
     68214 WT23     654      MECN     C1       CG331   -0.170000       12.0110           0
     68215 WT23     654      MECN     H11      HGA3     0.090000        1.0080           0
     68216 WT23     654      MECN     H12      HGA3     0.090000        1.0080           0
     68217 WT23     654      MECN     H13      HGA3     0.090000        1.0080           0
     68218 WT23     654      MECN     C2       CG1N1    0.360000       12.0110           0
     68219 WT23     654      MECN     N3       NG1T1   -0.460000       14.0070           0
     68220 WT23     657      MECN     C1       CG331   -0.170000       12.0110           0
     68221 WT23     657      MECN     H11      HGA3     0.090000        1.0080           0
     68222 WT23     657      MECN     H12      HGA3     0.090000        1.0080           0
     68223 WT23     657      MECN     H13      HGA3     0.090000        1.0080           0
     68224 WT23     657      MECN     C2       CG1N1    0.360000       12.0110           0
     68225 WT23     657      MECN     N3       NG1T1   -0.460000       14.0070           0
     68226 WT23     660      MECN     C1       CG331   -0.170000       12.0110           0
     68227 WT23     660      MECN     H11      HGA3     0.090000        1.0080           0
     68228 WT23     660      MECN     H12      HGA3     0.090000        1.0080           0
     68229 WT23     660      MECN     H13      HGA3     0.090000        1.0080           0
     68230 WT23     660      MECN     C2       CG1N1    0.360000       12.0110           0
     68231 WT23     660      MECN     N3       NG1T1   -0.460000       14.0070           0
     68232 WT23     662      MECN     C1       CG331   -0.170000       12.0110           0
     68233 WT23     662      MECN     H11      HGA3     0.090000        1.0080           0
     68234 WT23     662      MECN     H12      HGA3     0.090000        1.0080           0
     68235 WT23     662      MECN     H13      HGA3     0.090000        1.0080           0
     68236 WT23     662      MECN     C2       CG1N1    0.360000       12.0110           0
     68237 WT23     662      MECN     N3       NG1T1   -0.460000       14.0070           0
     68238 WT23     665      MECN     C1       CG331   -0.170000       12.0110           0
     68239 WT23     665      MECN     H11      HGA3     0.090000        1.0080           0
     68240 WT23     665      MECN     H12      HGA3     0.090000        1.0080           0
     68241 WT23     665      MECN     H13      HGA3     0.090000        1.0080           0
     68242 WT23     665      MECN     C2       CG1N1    0.360000       12.0110           0
     68243 WT23     665      MECN     N3       NG1T1   -0.460000       14.0070           0
     68244 WT23     666      MECN     C1       CG331   -0.170000       12.0110           0
     68245 WT23     666      MECN     H11      HGA3     0.090000        1.0080           0
     68246 WT23     666      MECN     H12      HGA3     0.090000        1.0080           0
     68247 WT23     666      MECN     H13      HGA3     0.090000        1.0080           0
     68248 WT23     666      MECN     C2       CG1N1    0.360000       12.0110           0
     68249 WT23     666      MECN     N3       NG1T1   -0.460000       14.0070           0
     68250 WT23     667      MECN     C1       CG331   -0.170000       12.0110           0
     68251 WT23     667      MECN     H11      HGA3     0.090000        1.0080           0
     68252 WT23     667      MECN     H12      HGA3     0.090000        1.0080           0
     68253 WT23     667      MECN     H13      HGA3     0.090000        1.0080           0
     68254 WT23     667      MECN     C2       CG1N1    0.360000       12.0110           0
     68255 WT23     667      MECN     N3       NG1T1   -0.460000       14.0070           0
     68256 WT23     668      MECN     C1       CG331   -0.170000       12.0110           0
     68257 WT23     668      MECN     H11      HGA3     0.090000        1.0080           0
     68258 WT23     668      MECN     H12      HGA3     0.090000        1.0080           0
     68259 WT23     668      MECN     H13      HGA3     0.090000        1.0080           0
     68260 WT23     668      MECN     C2       CG1N1    0.360000       12.0110           0
     68261 WT23     668      MECN     N3       NG1T1   -0.460000       14.0070           0
     68262 WT23     669      MECN     C1       CG331   -0.170000       12.0110           0
     68263 WT23     669      MECN     H11      HGA3     0.090000        1.0080           0
     68264 WT23     669      MECN     H12      HGA3     0.090000        1.0080           0
     68265 WT23     669      MECN     H13      HGA3     0.090000        1.0080           0
     68266 WT23     669      MECN     C2       CG1N1    0.360000       12.0110           0
     68267 WT23     669      MECN     N3       NG1T1   -0.460000       14.0070           0
     68268 WT23     671      MECN     C1       CG331   -0.170000       12.0110           0
     68269 WT23     671      MECN     H11      HGA3     0.090000        1.0080           0
     68270 WT23     671      MECN     H12      HGA3     0.090000        1.0080           0
     68271 WT23     671      MECN     H13      HGA3     0.090000        1.0080           0
     68272 WT23     671      MECN     C2       CG1N1    0.360000       12.0110           0
     68273 WT23     671      MECN     N3       NG1T1   -0.460000       14.0070           0
     68274 WT23     673      MECN     C1       CG331   -0.170000       12.0110           0
     68275 WT23     673      MECN     H11      HGA3     0.090000        1.0080           0
     68276 WT23     673      MECN     H12      HGA3     0.090000        1.0080           0
     68277 WT23     673      MECN     H13      HGA3     0.090000        1.0080           0
     68278 WT23     673      MECN     C2       CG1N1    0.360000       12.0110           0
     68279 WT23     673      MECN     N3       NG1T1   -0.460000       14.0070           0
     68280 WT23     675      MECN     C1       CG331   -0.170000       12.0110           0
     68281 WT23     675      MECN     H11      HGA3     0.090000        1.0080           0
     68282 WT23     675      MECN     H12      HGA3     0.090000        1.0080           0
     68283 WT23     675      MECN     H13      HGA3     0.090000        1.0080           0
     68284 WT23     675      MECN     C2       CG1N1    0.360000       12.0110           0
     68285 WT23     675      MECN     N3       NG1T1   -0.460000       14.0070           0
     68286 WT23     676      MECN     C1       CG331   -0.170000       12.0110           0
     68287 WT23     676      MECN     H11      HGA3     0.090000        1.0080           0
     68288 WT23     676      MECN     H12      HGA3     0.090000        1.0080           0
     68289 WT23     676      MECN     H13      HGA3     0.090000        1.0080           0
     68290 WT23     676      MECN     C2       CG1N1    0.360000       12.0110           0
     68291 WT23     676      MECN     N3       NG1T1   -0.460000       14.0070           0
     68292 WT23     677      MECN     C1       CG331   -0.170000       12.0110           0
     68293 WT23     677      MECN     H11      HGA3     0.090000        1.0080           0
     68294 WT23     677      MECN     H12      HGA3     0.090000        1.0080           0
     68295 WT23     677      MECN     H13      HGA3     0.090000        1.0080           0
     68296 WT23     677      MECN     C2       CG1N1    0.360000       12.0110           0
     68297 WT23     677      MECN     N3       NG1T1   -0.460000       14.0070           0
     68298 WT23     678      MECN     C1       CG331   -0.170000       12.0110           0
     68299 WT23     678      MECN     H11      HGA3     0.090000        1.0080           0
     68300 WT23     678      MECN     H12      HGA3     0.090000        1.0080           0
     68301 WT23     678      MECN     H13      HGA3     0.090000        1.0080           0
     68302 WT23     678      MECN     C2       CG1N1    0.360000       12.0110           0
     68303 WT23     678      MECN     N3       NG1T1   -0.460000       14.0070           0
     68304 WT23     679      MECN     C1       CG331   -0.170000       12.0110           0
     68305 WT23     679      MECN     H11      HGA3     0.090000        1.0080           0
     68306 WT23     679      MECN     H12      HGA3     0.090000        1.0080           0
     68307 WT23     679      MECN     H13      HGA3     0.090000        1.0080           0
     68308 WT23     679      MECN     C2       CG1N1    0.360000       12.0110           0
     68309 WT23     679      MECN     N3       NG1T1   -0.460000       14.0070           0
     68310 WT23     683      MECN     C1       CG331   -0.170000       12.0110           0
     68311 WT23     683      MECN     H11      HGA3     0.090000        1.0080           0
     68312 WT23     683      MECN     H12      HGA3     0.090000        1.0080           0
     68313 WT23     683      MECN     H13      HGA3     0.090000        1.0080           0
     68314 WT23     683      MECN     C2       CG1N1    0.360000       12.0110           0
     68315 WT23     683      MECN     N3       NG1T1   -0.460000       14.0070           0
     68316 WT23     684      MECN     C1       CG331   -0.170000       12.0110           0
     68317 WT23     684      MECN     H11      HGA3     0.090000        1.0080           0
     68318 WT23     684      MECN     H12      HGA3     0.090000        1.0080           0
     68319 WT23     684      MECN     H13      HGA3     0.090000        1.0080           0
     68320 WT23     684      MECN     C2       CG1N1    0.360000       12.0110           0
     68321 WT23     684      MECN     N3       NG1T1   -0.460000       14.0070           0
     68322 WT23     685      MECN     C1       CG331   -0.170000       12.0110           0
     68323 WT23     685      MECN     H11      HGA3     0.090000        1.0080           0
     68324 WT23     685      MECN     H12      HGA3     0.090000        1.0080           0
     68325 WT23     685      MECN     H13      HGA3     0.090000        1.0080           0
     68326 WT23     685      MECN     C2       CG1N1    0.360000       12.0110           0
     68327 WT23     685      MECN     N3       NG1T1   -0.460000       14.0070           0
     68328 WT23     686      MECN     C1       CG331   -0.170000       12.0110           0
     68329 WT23     686      MECN     H11      HGA3     0.090000        1.0080           0
     68330 WT23     686      MECN     H12      HGA3     0.090000        1.0080           0
     68331 WT23     686      MECN     H13      HGA3     0.090000        1.0080           0
     68332 WT23     686      MECN     C2       CG1N1    0.360000       12.0110           0
     68333 WT23     686      MECN     N3       NG1T1   -0.460000       14.0070           0
     68334 WT23     690      MECN     C1       CG331   -0.170000       12.0110           0
     68335 WT23     690      MECN     H11      HGA3     0.090000        1.0080           0
     68336 WT23     690      MECN     H12      HGA3     0.090000        1.0080           0
     68337 WT23     690      MECN     H13      HGA3     0.090000        1.0080           0
     68338 WT23     690      MECN     C2       CG1N1    0.360000       12.0110           0
     68339 WT23     690      MECN     N3       NG1T1   -0.460000       14.0070           0
     68340 WT23     691      MECN     C1       CG331   -0.170000       12.0110           0
     68341 WT23     691      MECN     H11      HGA3     0.090000        1.0080           0
     68342 WT23     691      MECN     H12      HGA3     0.090000        1.0080           0
     68343 WT23     691      MECN     H13      HGA3     0.090000        1.0080           0
     68344 WT23     691      MECN     C2       CG1N1    0.360000       12.0110           0
     68345 WT23     691      MECN     N3       NG1T1   -0.460000       14.0070           0
     68346 WT23     692      MECN     C1       CG331   -0.170000       12.0110           0
     68347 WT23     692      MECN     H11      HGA3     0.090000        1.0080           0
     68348 WT23     692      MECN     H12      HGA3     0.090000        1.0080           0
     68349 WT23     692      MECN     H13      HGA3     0.090000        1.0080           0
     68350 WT23     692      MECN     C2       CG1N1    0.360000       12.0110           0
     68351 WT23     692      MECN     N3       NG1T1   -0.460000       14.0070           0
     68352 WT23     693      MECN     C1       CG331   -0.170000       12.0110           0
     68353 WT23     693      MECN     H11      HGA3     0.090000        1.0080           0
     68354 WT23     693      MECN     H12      HGA3     0.090000        1.0080           0
     68355 WT23     693      MECN     H13      HGA3     0.090000        1.0080           0
     68356 WT23     693      MECN     C2       CG1N1    0.360000       12.0110           0
     68357 WT23     693      MECN     N3       NG1T1   -0.460000       14.0070           0
     68358 WT23     694      MECN     C1       CG331   -0.170000       12.0110           0
     68359 WT23     694      MECN     H11      HGA3     0.090000        1.0080           0
     68360 WT23     694      MECN     H12      HGA3     0.090000        1.0080           0
     68361 WT23     694      MECN     H13      HGA3     0.090000        1.0080           0
     68362 WT23     694      MECN     C2       CG1N1    0.360000       12.0110           0
     68363 WT23     694      MECN     N3       NG1T1   -0.460000       14.0070           0
     68364 WT23     695      MECN     C1       CG331   -0.170000       12.0110           0
     68365 WT23     695      MECN     H11      HGA3     0.090000        1.0080           0
     68366 WT23     695      MECN     H12      HGA3     0.090000        1.0080           0
     68367 WT23     695      MECN     H13      HGA3     0.090000        1.0080           0
     68368 WT23     695      MECN     C2       CG1N1    0.360000       12.0110           0
     68369 WT23     695      MECN     N3       NG1T1   -0.460000       14.0070           0
     68370 WT23     696      MECN     C1       CG331   -0.170000       12.0110           0
     68371 WT23     696      MECN     H11      HGA3     0.090000        1.0080           0
     68372 WT23     696      MECN     H12      HGA3     0.090000        1.0080           0
     68373 WT23     696      MECN     H13      HGA3     0.090000        1.0080           0
     68374 WT23     696      MECN     C2       CG1N1    0.360000       12.0110           0
     68375 WT23     696      MECN     N3       NG1T1   -0.460000       14.0070           0
     68376 WT23     697      MECN     C1       CG331   -0.170000       12.0110           0
     68377 WT23     697      MECN     H11      HGA3     0.090000        1.0080           0
     68378 WT23     697      MECN     H12      HGA3     0.090000        1.0080           0
     68379 WT23     697      MECN     H13      HGA3     0.090000        1.0080           0
     68380 WT23     697      MECN     C2       CG1N1    0.360000       12.0110           0
     68381 WT23     697      MECN     N3       NG1T1   -0.460000       14.0070           0
     68382 WT23     698      MECN     C1       CG331   -0.170000       12.0110           0
     68383 WT23     698      MECN     H11      HGA3     0.090000        1.0080           0
     68384 WT23     698      MECN     H12      HGA3     0.090000        1.0080           0
     68385 WT23     698      MECN     H13      HGA3     0.090000        1.0080           0
     68386 WT23     698      MECN     C2       CG1N1    0.360000       12.0110           0
     68387 WT23     698      MECN     N3       NG1T1   -0.460000       14.0070           0
     68388 WT23     699      MECN     C1       CG331   -0.170000       12.0110           0
     68389 WT23     699      MECN     H11      HGA3     0.090000        1.0080           0
     68390 WT23     699      MECN     H12      HGA3     0.090000        1.0080           0
     68391 WT23     699      MECN     H13      HGA3     0.090000        1.0080           0
     68392 WT23     699      MECN     C2       CG1N1    0.360000       12.0110           0
     68393 WT23     699      MECN     N3       NG1T1   -0.460000       14.0070           0
     68394 WT23     701      MECN     C1       CG331   -0.170000       12.0110           0
     68395 WT23     701      MECN     H11      HGA3     0.090000        1.0080           0
     68396 WT23     701      MECN     H12      HGA3     0.090000        1.0080           0
     68397 WT23     701      MECN     H13      HGA3     0.090000        1.0080           0
     68398 WT23     701      MECN     C2       CG1N1    0.360000       12.0110           0
     68399 WT23     701      MECN     N3       NG1T1   -0.460000       14.0070           0
     68400 WT23     702      MECN     C1       CG331   -0.170000       12.0110           0
     68401 WT23     702      MECN     H11      HGA3     0.090000        1.0080           0
     68402 WT23     702      MECN     H12      HGA3     0.090000        1.0080           0
     68403 WT23     702      MECN     H13      HGA3     0.090000        1.0080           0
     68404 WT23     702      MECN     C2       CG1N1    0.360000       12.0110           0
     68405 WT23     702      MECN     N3       NG1T1   -0.460000       14.0070           0
     68406 WT23     704      MECN     C1       CG331   -0.170000       12.0110           0
     68407 WT23     704      MECN     H11      HGA3     0.090000        1.0080           0
     68408 WT23     704      MECN     H12      HGA3     0.090000        1.0080           0
     68409 WT23     704      MECN     H13      HGA3     0.090000        1.0080           0
     68410 WT23     704      MECN     C2       CG1N1    0.360000       12.0110           0
     68411 WT23     704      MECN     N3       NG1T1   -0.460000       14.0070           0
     68412 WT23     708      MECN     C1       CG331   -0.170000       12.0110           0
     68413 WT23     708      MECN     H11      HGA3     0.090000        1.0080           0
     68414 WT23     708      MECN     H12      HGA3     0.090000        1.0080           0
     68415 WT23     708      MECN     H13      HGA3     0.090000        1.0080           0
     68416 WT23     708      MECN     C2       CG1N1    0.360000       12.0110           0
     68417 WT23     708      MECN     N3       NG1T1   -0.460000       14.0070           0
     68418 WT23     711      MECN     C1       CG331   -0.170000       12.0110           0
     68419 WT23     711      MECN     H11      HGA3     0.090000        1.0080           0
     68420 WT23     711      MECN     H12      HGA3     0.090000        1.0080           0
     68421 WT23     711      MECN     H13      HGA3     0.090000        1.0080           0
     68422 WT23     711      MECN     C2       CG1N1    0.360000       12.0110           0
     68423 WT23     711      MECN     N3       NG1T1   -0.460000       14.0070           0
     68424 WT23     713      MECN     C1       CG331   -0.170000       12.0110           0
     68425 WT23     713      MECN     H11      HGA3     0.090000        1.0080           0
     68426 WT23     713      MECN     H12      HGA3     0.090000        1.0080           0
     68427 WT23     713      MECN     H13      HGA3     0.090000        1.0080           0
     68428 WT23     713      MECN     C2       CG1N1    0.360000       12.0110           0
     68429 WT23     713      MECN     N3       NG1T1   -0.460000       14.0070           0
     68430 WT23     716      MECN     C1       CG331   -0.170000       12.0110           0
     68431 WT23     716      MECN     H11      HGA3     0.090000        1.0080           0
     68432 WT23     716      MECN     H12      HGA3     0.090000        1.0080           0
     68433 WT23     716      MECN     H13      HGA3     0.090000        1.0080           0
     68434 WT23     716      MECN     C2       CG1N1    0.360000       12.0110           0
     68435 WT23     716      MECN     N3       NG1T1   -0.460000       14.0070           0
     68436 WT23     721      MECN     C1       CG331   -0.170000       12.0110           0
     68437 WT23     721      MECN     H11      HGA3     0.090000        1.0080           0
     68438 WT23     721      MECN     H12      HGA3     0.090000        1.0080           0
     68439 WT23     721      MECN     H13      HGA3     0.090000        1.0080           0
     68440 WT23     721      MECN     C2       CG1N1    0.360000       12.0110           0
     68441 WT23     721      MECN     N3       NG1T1   -0.460000       14.0070           0
     68442 WT23     723      MECN     C1       CG331   -0.170000       12.0110           0
     68443 WT23     723      MECN     H11      HGA3     0.090000        1.0080           0
     68444 WT23     723      MECN     H12      HGA3     0.090000        1.0080           0
     68445 WT23     723      MECN     H13      HGA3     0.090000        1.0080           0
     68446 WT23     723      MECN     C2       CG1N1    0.360000       12.0110           0
     68447 WT23     723      MECN     N3       NG1T1   -0.460000       14.0070           0
     68448 WT23     729      MECN     C1       CG331   -0.170000       12.0110           0
     68449 WT23     729      MECN     H11      HGA3     0.090000        1.0080           0
     68450 WT23     729      MECN     H12      HGA3     0.090000        1.0080           0
     68451 WT23     729      MECN     H13      HGA3     0.090000        1.0080           0
     68452 WT23     729      MECN     C2       CG1N1    0.360000       12.0110           0
     68453 WT23     729      MECN     N3       NG1T1   -0.460000       14.0070           0
     68454 WT23     730      MECN     C1       CG331   -0.170000       12.0110           0
     68455 WT23     730      MECN     H11      HGA3     0.090000        1.0080           0
     68456 WT23     730      MECN     H12      HGA3     0.090000        1.0080           0
     68457 WT23     730      MECN     H13      HGA3     0.090000        1.0080           0
     68458 WT23     730      MECN     C2       CG1N1    0.360000       12.0110           0
     68459 WT23     730      MECN     N3       NG1T1   -0.460000       14.0070           0
     68460 WT23     732      MECN     C1       CG331   -0.170000       12.0110           0
     68461 WT23     732      MECN     H11      HGA3     0.090000        1.0080           0
     68462 WT23     732      MECN     H12      HGA3     0.090000        1.0080           0
     68463 WT23     732      MECN     H13      HGA3     0.090000        1.0080           0
     68464 WT23     732      MECN     C2       CG1N1    0.360000       12.0110           0
     68465 WT23     732      MECN     N3       NG1T1   -0.460000       14.0070           0
     68466 WT23     733      MECN     C1       CG331   -0.170000       12.0110           0
     68467 WT23     733      MECN     H11      HGA3     0.090000        1.0080           0
     68468 WT23     733      MECN     H12      HGA3     0.090000        1.0080           0
     68469 WT23     733      MECN     H13      HGA3     0.090000        1.0080           0
     68470 WT23     733      MECN     C2       CG1N1    0.360000       12.0110           0
     68471 WT23     733      MECN     N3       NG1T1   -0.460000       14.0070           0
     68472 WT23     734      MECN     C1       CG331   -0.170000       12.0110           0
     68473 WT23     734      MECN     H11      HGA3     0.090000        1.0080           0
     68474 WT23     734      MECN     H12      HGA3     0.090000        1.0080           0
     68475 WT23     734      MECN     H13      HGA3     0.090000        1.0080           0
     68476 WT23     734      MECN     C2       CG1N1    0.360000       12.0110           0
     68477 WT23     734      MECN     N3       NG1T1   -0.460000       14.0070           0
     68478 WT23     735      MECN     C1       CG331   -0.170000       12.0110           0
     68479 WT23     735      MECN     H11      HGA3     0.090000        1.0080           0
     68480 WT23     735      MECN     H12      HGA3     0.090000        1.0080           0
     68481 WT23     735      MECN     H13      HGA3     0.090000        1.0080           0
     68482 WT23     735      MECN     C2       CG1N1    0.360000       12.0110           0
     68483 WT23     735      MECN     N3       NG1T1   -0.460000       14.0070           0
     68484 WT23     736      MECN     C1       CG331   -0.170000       12.0110           0
     68485 WT23     736      MECN     H11      HGA3     0.090000        1.0080           0
     68486 WT23     736      MECN     H12      HGA3     0.090000        1.0080           0
     68487 WT23     736      MECN     H13      HGA3     0.090000        1.0080           0
     68488 WT23     736      MECN     C2       CG1N1    0.360000       12.0110           0
     68489 WT23     736      MECN     N3       NG1T1   -0.460000       14.0070           0
     68490 WT23     737      MECN     C1       CG331   -0.170000       12.0110           0
     68491 WT23     737      MECN     H11      HGA3     0.090000        1.0080           0
     68492 WT23     737      MECN     H12      HGA3     0.090000        1.0080           0
     68493 WT23     737      MECN     H13      HGA3     0.090000        1.0080           0
     68494 WT23     737      MECN     C2       CG1N1    0.360000       12.0110           0
     68495 WT23     737      MECN     N3       NG1T1   -0.460000       14.0070           0
     68496 WT23     738      MECN     C1       CG331   -0.170000       12.0110           0
     68497 WT23     738      MECN     H11      HGA3     0.090000        1.0080           0
     68498 WT23     738      MECN     H12      HGA3     0.090000        1.0080           0
     68499 WT23     738      MECN     H13      HGA3     0.090000        1.0080           0
     68500 WT23     738      MECN     C2       CG1N1    0.360000       12.0110           0
     68501 WT23     738      MECN     N3       NG1T1   -0.460000       14.0070           0
     68502 WT23     739      MECN     C1       CG331   -0.170000       12.0110           0
     68503 WT23     739      MECN     H11      HGA3     0.090000        1.0080           0
     68504 WT23     739      MECN     H12      HGA3     0.090000        1.0080           0
     68505 WT23     739      MECN     H13      HGA3     0.090000        1.0080           0
     68506 WT23     739      MECN     C2       CG1N1    0.360000       12.0110           0
     68507 WT23     739      MECN     N3       NG1T1   -0.460000       14.0070           0
     68508 WT23     740      MECN     C1       CG331   -0.170000       12.0110           0
     68509 WT23     740      MECN     H11      HGA3     0.090000        1.0080           0
     68510 WT23     740      MECN     H12      HGA3     0.090000        1.0080           0
     68511 WT23     740      MECN     H13      HGA3     0.090000        1.0080           0
     68512 WT23     740      MECN     C2       CG1N1    0.360000       12.0110           0
     68513 WT23     740      MECN     N3       NG1T1   -0.460000       14.0070           0
     68514 WT23     741      MECN     C1       CG331   -0.170000       12.0110           0
     68515 WT23     741      MECN     H11      HGA3     0.090000        1.0080           0
     68516 WT23     741      MECN     H12      HGA3     0.090000        1.0080           0
     68517 WT23     741      MECN     H13      HGA3     0.090000        1.0080           0
     68518 WT23     741      MECN     C2       CG1N1    0.360000       12.0110           0
     68519 WT23     741      MECN     N3       NG1T1   -0.460000       14.0070           0
     68520 WT23     744      MECN     C1       CG331   -0.170000       12.0110           0
     68521 WT23     744      MECN     H11      HGA3     0.090000        1.0080           0
     68522 WT23     744      MECN     H12      HGA3     0.090000        1.0080           0
     68523 WT23     744      MECN     H13      HGA3     0.090000        1.0080           0
     68524 WT23     744      MECN     C2       CG1N1    0.360000       12.0110           0
     68525 WT23     744      MECN     N3       NG1T1   -0.460000       14.0070           0
     68526 WT23     745      MECN     C1       CG331   -0.170000       12.0110           0
     68527 WT23     745      MECN     H11      HGA3     0.090000        1.0080           0
     68528 WT23     745      MECN     H12      HGA3     0.090000        1.0080           0
     68529 WT23     745      MECN     H13      HGA3     0.090000        1.0080           0
     68530 WT23     745      MECN     C2       CG1N1    0.360000       12.0110           0
     68531 WT23     745      MECN     N3       NG1T1   -0.460000       14.0070           0
     68532 WT23     746      MECN     C1       CG331   -0.170000       12.0110           0
     68533 WT23     746      MECN     H11      HGA3     0.090000        1.0080           0
     68534 WT23     746      MECN     H12      HGA3     0.090000        1.0080           0
     68535 WT23     746      MECN     H13      HGA3     0.090000        1.0080           0
     68536 WT23     746      MECN     C2       CG1N1    0.360000       12.0110           0
     68537 WT23     746      MECN     N3       NG1T1   -0.460000       14.0070           0
     68538 WT23     747      MECN     C1       CG331   -0.170000       12.0110           0
     68539 WT23     747      MECN     H11      HGA3     0.090000        1.0080           0
     68540 WT23     747      MECN     H12      HGA3     0.090000        1.0080           0
     68541 WT23     747      MECN     H13      HGA3     0.090000        1.0080           0
     68542 WT23     747      MECN     C2       CG1N1    0.360000       12.0110           0
     68543 WT23     747      MECN     N3       NG1T1   -0.460000       14.0070           0
     68544 WT23     748      MECN     C1       CG331   -0.170000       12.0110           0
     68545 WT23     748      MECN     H11      HGA3     0.090000        1.0080           0
     68546 WT23     748      MECN     H12      HGA3     0.090000        1.0080           0
     68547 WT23     748      MECN     H13      HGA3     0.090000        1.0080           0
     68548 WT23     748      MECN     C2       CG1N1    0.360000       12.0110           0
     68549 WT23     748      MECN     N3       NG1T1   -0.460000       14.0070           0
     68550 WT23     750      MECN     C1       CG331   -0.170000       12.0110           0
     68551 WT23     750      MECN     H11      HGA3     0.090000        1.0080           0
     68552 WT23     750      MECN     H12      HGA3     0.090000        1.0080           0
     68553 WT23     750      MECN     H13      HGA3     0.090000        1.0080           0
     68554 WT23     750      MECN     C2       CG1N1    0.360000       12.0110           0
     68555 WT23     750      MECN     N3       NG1T1   -0.460000       14.0070           0
     68556 WT23     751      MECN     C1       CG331   -0.170000       12.0110           0
     68557 WT23     751      MECN     H11      HGA3     0.090000        1.0080           0
     68558 WT23     751      MECN     H12      HGA3     0.090000        1.0080           0
     68559 WT23     751      MECN     H13      HGA3     0.090000        1.0080           0
     68560 WT23     751      MECN     C2       CG1N1    0.360000       12.0110           0
     68561 WT23     751      MECN     N3       NG1T1   -0.460000       14.0070           0
     68562 WT23     752      MECN     C1       CG331   -0.170000       12.0110           0
     68563 WT23     752      MECN     H11      HGA3     0.090000        1.0080           0
     68564 WT23     752      MECN     H12      HGA3     0.090000        1.0080           0
     68565 WT23     752      MECN     H13      HGA3     0.090000        1.0080           0
     68566 WT23     752      MECN     C2       CG1N1    0.360000       12.0110           0
     68567 WT23     752      MECN     N3       NG1T1   -0.460000       14.0070           0
     68568 WT23     753      MECN     C1       CG331   -0.170000       12.0110           0
     68569 WT23     753      MECN     H11      HGA3     0.090000        1.0080           0
     68570 WT23     753      MECN     H12      HGA3     0.090000        1.0080           0
     68571 WT23     753      MECN     H13      HGA3     0.090000        1.0080           0
     68572 WT23     753      MECN     C2       CG1N1    0.360000       12.0110           0
     68573 WT23     753      MECN     N3       NG1T1   -0.460000       14.0070           0
     68574 WT23     754      MECN     C1       CG331   -0.170000       12.0110           0
     68575 WT23     754      MECN     H11      HGA3     0.090000        1.0080           0
     68576 WT23     754      MECN     H12      HGA3     0.090000        1.0080           0
     68577 WT23     754      MECN     H13      HGA3     0.090000        1.0080           0
     68578 WT23     754      MECN     C2       CG1N1    0.360000       12.0110           0
     68579 WT23     754      MECN     N3       NG1T1   -0.460000       14.0070           0
     68580 WT23     755      MECN     C1       CG331   -0.170000       12.0110           0
     68581 WT23     755      MECN     H11      HGA3     0.090000        1.0080           0
     68582 WT23     755      MECN     H12      HGA3     0.090000        1.0080           0
     68583 WT23     755      MECN     H13      HGA3     0.090000        1.0080           0
     68584 WT23     755      MECN     C2       CG1N1    0.360000       12.0110           0
     68585 WT23     755      MECN     N3       NG1T1   -0.460000       14.0070           0
     68586 WT23     756      MECN     C1       CG331   -0.170000       12.0110           0
     68587 WT23     756      MECN     H11      HGA3     0.090000        1.0080           0
     68588 WT23     756      MECN     H12      HGA3     0.090000        1.0080           0
     68589 WT23     756      MECN     H13      HGA3     0.090000        1.0080           0
     68590 WT23     756      MECN     C2       CG1N1    0.360000       12.0110           0
     68591 WT23     756      MECN     N3       NG1T1   -0.460000       14.0070           0
     68592 WT23     757      MECN     C1       CG331   -0.170000       12.0110           0
     68593 WT23     757      MECN     H11      HGA3     0.090000        1.0080           0
     68594 WT23     757      MECN     H12      HGA3     0.090000        1.0080           0
     68595 WT23     757      MECN     H13      HGA3     0.090000        1.0080           0
     68596 WT23     757      MECN     C2       CG1N1    0.360000       12.0110           0
     68597 WT23     757      MECN     N3       NG1T1   -0.460000       14.0070           0
     68598 WT23     759      MECN     C1       CG331   -0.170000       12.0110           0
     68599 WT23     759      MECN     H11      HGA3     0.090000        1.0080           0
     68600 WT23     759      MECN     H12      HGA3     0.090000        1.0080           0
     68601 WT23     759      MECN     H13      HGA3     0.090000        1.0080           0
     68602 WT23     759      MECN     C2       CG1N1    0.360000       12.0110           0
     68603 WT23     759      MECN     N3       NG1T1   -0.460000       14.0070           0
     68604 WT23     761      MECN     C1       CG331   -0.170000       12.0110           0
     68605 WT23     761      MECN     H11      HGA3     0.090000        1.0080           0
     68606 WT23     761      MECN     H12      HGA3     0.090000        1.0080           0
     68607 WT23     761      MECN     H13      HGA3     0.090000        1.0080           0
     68608 WT23     761      MECN     C2       CG1N1    0.360000       12.0110           0
     68609 WT23     761      MECN     N3       NG1T1   -0.460000       14.0070           0
     68610 WT23     764      MECN     C1       CG331   -0.170000       12.0110           0
     68611 WT23     764      MECN     H11      HGA3     0.090000        1.0080           0
     68612 WT23     764      MECN     H12      HGA3     0.090000        1.0080           0
     68613 WT23     764      MECN     H13      HGA3     0.090000        1.0080           0
     68614 WT23     764      MECN     C2       CG1N1    0.360000       12.0110           0
     68615 WT23     764      MECN     N3       NG1T1   -0.460000       14.0070           0
     68616 WT23     765      MECN     C1       CG331   -0.170000       12.0110           0
     68617 WT23     765      MECN     H11      HGA3     0.090000        1.0080           0
     68618 WT23     765      MECN     H12      HGA3     0.090000        1.0080           0
     68619 WT23     765      MECN     H13      HGA3     0.090000        1.0080           0
     68620 WT23     765      MECN     C2       CG1N1    0.360000       12.0110           0
     68621 WT23     765      MECN     N3       NG1T1   -0.460000       14.0070           0
     68622 WT23     767      MECN     C1       CG331   -0.170000       12.0110           0
     68623 WT23     767      MECN     H11      HGA3     0.090000        1.0080           0
     68624 WT23     767      MECN     H12      HGA3     0.090000        1.0080           0
     68625 WT23     767      MECN     H13      HGA3     0.090000        1.0080           0
     68626 WT23     767      MECN     C2       CG1N1    0.360000       12.0110           0
     68627 WT23     767      MECN     N3       NG1T1   -0.460000       14.0070           0
     68628 WT23     768      MECN     C1       CG331   -0.170000       12.0110           0
     68629 WT23     768      MECN     H11      HGA3     0.090000        1.0080           0
     68630 WT23     768      MECN     H12      HGA3     0.090000        1.0080           0
     68631 WT23     768      MECN     H13      HGA3     0.090000        1.0080           0
     68632 WT23     768      MECN     C2       CG1N1    0.360000       12.0110           0
     68633 WT23     768      MECN     N3       NG1T1   -0.460000       14.0070           0
     68634 WT23     769      MECN     C1       CG331   -0.170000       12.0110           0
     68635 WT23     769      MECN     H11      HGA3     0.090000        1.0080           0
     68636 WT23     769      MECN     H12      HGA3     0.090000        1.0080           0
     68637 WT23     769      MECN     H13      HGA3     0.090000        1.0080           0
     68638 WT23     769      MECN     C2       CG1N1    0.360000       12.0110           0
     68639 WT23     769      MECN     N3       NG1T1   -0.460000       14.0070           0
     68640 WT23     772      MECN     C1       CG331   -0.170000       12.0110           0
     68641 WT23     772      MECN     H11      HGA3     0.090000        1.0080           0
     68642 WT23     772      MECN     H12      HGA3     0.090000        1.0080           0
     68643 WT23     772      MECN     H13      HGA3     0.090000        1.0080           0
     68644 WT23     772      MECN     C2       CG1N1    0.360000       12.0110           0
     68645 WT23     772      MECN     N3       NG1T1   -0.460000       14.0070           0
     68646 WT23     774      MECN     C1       CG331   -0.170000       12.0110           0
     68647 WT23     774      MECN     H11      HGA3     0.090000        1.0080           0
     68648 WT23     774      MECN     H12      HGA3     0.090000        1.0080           0
     68649 WT23     774      MECN     H13      HGA3     0.090000        1.0080           0
     68650 WT23     774      MECN     C2       CG1N1    0.360000       12.0110           0
     68651 WT23     774      MECN     N3       NG1T1   -0.460000       14.0070           0
     68652 WT23     776      MECN     C1       CG331   -0.170000       12.0110           0
     68653 WT23     776      MECN     H11      HGA3     0.090000        1.0080           0
     68654 WT23     776      MECN     H12      HGA3     0.090000        1.0080           0
     68655 WT23     776      MECN     H13      HGA3     0.090000        1.0080           0
     68656 WT23     776      MECN     C2       CG1N1    0.360000       12.0110           0
     68657 WT23     776      MECN     N3       NG1T1   -0.460000       14.0070           0
     68658 WT23     777      MECN     C1       CG331   -0.170000       12.0110           0
     68659 WT23     777      MECN     H11      HGA3     0.090000        1.0080           0
     68660 WT23     777      MECN     H12      HGA3     0.090000        1.0080           0
     68661 WT23     777      MECN     H13      HGA3     0.090000        1.0080           0
     68662 WT23     777      MECN     C2       CG1N1    0.360000       12.0110           0
     68663 WT23     777      MECN     N3       NG1T1   -0.460000       14.0070           0
     68664 WT23     778      MECN     C1       CG331   -0.170000       12.0110           0
     68665 WT23     778      MECN     H11      HGA3     0.090000        1.0080           0
     68666 WT23     778      MECN     H12      HGA3     0.090000        1.0080           0
     68667 WT23     778      MECN     H13      HGA3     0.090000        1.0080           0
     68668 WT23     778      MECN     C2       CG1N1    0.360000       12.0110           0
     68669 WT23     778      MECN     N3       NG1T1   -0.460000       14.0070           0
     68670 WT23     779      MECN     C1       CG331   -0.170000       12.0110           0
     68671 WT23     779      MECN     H11      HGA3     0.090000        1.0080           0
     68672 WT23     779      MECN     H12      HGA3     0.090000        1.0080           0
     68673 WT23     779      MECN     H13      HGA3     0.090000        1.0080           0
     68674 WT23     779      MECN     C2       CG1N1    0.360000       12.0110           0
     68675 WT23     779      MECN     N3       NG1T1   -0.460000       14.0070           0
     68676 WT23     783      MECN     C1       CG331   -0.170000       12.0110           0
     68677 WT23     783      MECN     H11      HGA3     0.090000        1.0080           0
     68678 WT23     783      MECN     H12      HGA3     0.090000        1.0080           0
     68679 WT23     783      MECN     H13      HGA3     0.090000        1.0080           0
     68680 WT23     783      MECN     C2       CG1N1    0.360000       12.0110           0
     68681 WT23     783      MECN     N3       NG1T1   -0.460000       14.0070           0
     68682 WT23     784      MECN     C1       CG331   -0.170000       12.0110           0
     68683 WT23     784      MECN     H11      HGA3     0.090000        1.0080           0
     68684 WT23     784      MECN     H12      HGA3     0.090000        1.0080           0
     68685 WT23     784      MECN     H13      HGA3     0.090000        1.0080           0
     68686 WT23     784      MECN     C2       CG1N1    0.360000       12.0110           0
     68687 WT23     784      MECN     N3       NG1T1   -0.460000       14.0070           0
     68688 WT23     789      MECN     C1       CG331   -0.170000       12.0110           0
     68689 WT23     789      MECN     H11      HGA3     0.090000        1.0080           0
     68690 WT23     789      MECN     H12      HGA3     0.090000        1.0080           0
     68691 WT23     789      MECN     H13      HGA3     0.090000        1.0080           0
     68692 WT23     789      MECN     C2       CG1N1    0.360000       12.0110           0
     68693 WT23     789      MECN     N3       NG1T1   -0.460000       14.0070           0
     68694 WT23     792      MECN     C1       CG331   -0.170000       12.0110           0
     68695 WT23     792      MECN     H11      HGA3     0.090000        1.0080           0
     68696 WT23     792      MECN     H12      HGA3     0.090000        1.0080           0
     68697 WT23     792      MECN     H13      HGA3     0.090000        1.0080           0
     68698 WT23     792      MECN     C2       CG1N1    0.360000       12.0110           0
     68699 WT23     792      MECN     N3       NG1T1   -0.460000       14.0070           0
     68700 WT23     795      MECN     C1       CG331   -0.170000       12.0110           0
     68701 WT23     795      MECN     H11      HGA3     0.090000        1.0080           0
     68702 WT23     795      MECN     H12      HGA3     0.090000        1.0080           0
     68703 WT23     795      MECN     H13      HGA3     0.090000        1.0080           0
     68704 WT23     795      MECN     C2       CG1N1    0.360000       12.0110           0
     68705 WT23     795      MECN     N3       NG1T1   -0.460000       14.0070           0
     68706 WT23     796      MECN     C1       CG331   -0.170000       12.0110           0
     68707 WT23     796      MECN     H11      HGA3     0.090000        1.0080           0
     68708 WT23     796      MECN     H12      HGA3     0.090000        1.0080           0
     68709 WT23     796      MECN     H13      HGA3     0.090000        1.0080           0
     68710 WT23     796      MECN     C2       CG1N1    0.360000       12.0110           0
     68711 WT23     796      MECN     N3       NG1T1   -0.460000       14.0070           0
     68712 WT23     797      MECN     C1       CG331   -0.170000       12.0110           0
     68713 WT23     797      MECN     H11      HGA3     0.090000        1.0080           0
     68714 WT23     797      MECN     H12      HGA3     0.090000        1.0080           0
     68715 WT23     797      MECN     H13      HGA3     0.090000        1.0080           0
     68716 WT23     797      MECN     C2       CG1N1    0.360000       12.0110           0
     68717 WT23     797      MECN     N3       NG1T1   -0.460000       14.0070           0
     68718 WT23     798      MECN     C1       CG331   -0.170000       12.0110           0
     68719 WT23     798      MECN     H11      HGA3     0.090000        1.0080           0
     68720 WT23     798      MECN     H12      HGA3     0.090000        1.0080           0
     68721 WT23     798      MECN     H13      HGA3     0.090000        1.0080           0
     68722 WT23     798      MECN     C2       CG1N1    0.360000       12.0110           0
     68723 WT23     798      MECN     N3       NG1T1   -0.460000       14.0070           0
     68724 WT23     800      MECN     C1       CG331   -0.170000       12.0110           0
     68725 WT23     800      MECN     H11      HGA3     0.090000        1.0080           0
     68726 WT23     800      MECN     H12      HGA3     0.090000        1.0080           0
     68727 WT23     800      MECN     H13      HGA3     0.090000        1.0080           0
     68728 WT23     800      MECN     C2       CG1N1    0.360000       12.0110           0
     68729 WT23     800      MECN     N3       NG1T1   -0.460000       14.0070           0
     68730 WT23     801      MECN     C1       CG331   -0.170000       12.0110           0
     68731 WT23     801      MECN     H11      HGA3     0.090000        1.0080           0
     68732 WT23     801      MECN     H12      HGA3     0.090000        1.0080           0
     68733 WT23     801      MECN     H13      HGA3     0.090000        1.0080           0
     68734 WT23     801      MECN     C2       CG1N1    0.360000       12.0110           0
     68735 WT23     801      MECN     N3       NG1T1   -0.460000       14.0070           0
     68736 WT23     802      MECN     C1       CG331   -0.170000       12.0110           0
     68737 WT23     802      MECN     H11      HGA3     0.090000        1.0080           0
     68738 WT23     802      MECN     H12      HGA3     0.090000        1.0080           0
     68739 WT23     802      MECN     H13      HGA3     0.090000        1.0080           0
     68740 WT23     802      MECN     C2       CG1N1    0.360000       12.0110           0
     68741 WT23     802      MECN     N3       NG1T1   -0.460000       14.0070           0
     68742 WT23     803      MECN     C1       CG331   -0.170000       12.0110           0
     68743 WT23     803      MECN     H11      HGA3     0.090000        1.0080           0
     68744 WT23     803      MECN     H12      HGA3     0.090000        1.0080           0
     68745 WT23     803      MECN     H13      HGA3     0.090000        1.0080           0
     68746 WT23     803      MECN     C2       CG1N1    0.360000       12.0110           0
     68747 WT23     803      MECN     N3       NG1T1   -0.460000       14.0070           0
     68748 WT23     806      MECN     C1       CG331   -0.170000       12.0110           0
     68749 WT23     806      MECN     H11      HGA3     0.090000        1.0080           0
     68750 WT23     806      MECN     H12      HGA3     0.090000        1.0080           0
     68751 WT23     806      MECN     H13      HGA3     0.090000        1.0080           0
     68752 WT23     806      MECN     C2       CG1N1    0.360000       12.0110           0
     68753 WT23     806      MECN     N3       NG1T1   -0.460000       14.0070           0
     68754 WT23     810      MECN     C1       CG331   -0.170000       12.0110           0
     68755 WT23     810      MECN     H11      HGA3     0.090000        1.0080           0
     68756 WT23     810      MECN     H12      HGA3     0.090000        1.0080           0
     68757 WT23     810      MECN     H13      HGA3     0.090000        1.0080           0
     68758 WT23     810      MECN     C2       CG1N1    0.360000       12.0110           0
     68759 WT23     810      MECN     N3       NG1T1   -0.460000       14.0070           0
     68760 WT23     812      MECN     C1       CG331   -0.170000       12.0110           0
     68761 WT23     812      MECN     H11      HGA3     0.090000        1.0080           0
     68762 WT23     812      MECN     H12      HGA3     0.090000        1.0080           0
     68763 WT23     812      MECN     H13      HGA3     0.090000        1.0080           0
     68764 WT23     812      MECN     C2       CG1N1    0.360000       12.0110           0
     68765 WT23     812      MECN     N3       NG1T1   -0.460000       14.0070           0
     68766 WT23     813      MECN     C1       CG331   -0.170000       12.0110           0
     68767 WT23     813      MECN     H11      HGA3     0.090000        1.0080           0
     68768 WT23     813      MECN     H12      HGA3     0.090000        1.0080           0
     68769 WT23     813      MECN     H13      HGA3     0.090000        1.0080           0
     68770 WT23     813      MECN     C2       CG1N1    0.360000       12.0110           0
     68771 WT23     813      MECN     N3       NG1T1   -0.460000       14.0070           0
     68772 WT23     814      MECN     C1       CG331   -0.170000       12.0110           0
     68773 WT23     814      MECN     H11      HGA3     0.090000        1.0080           0
     68774 WT23     814      MECN     H12      HGA3     0.090000        1.0080           0
     68775 WT23     814      MECN     H13      HGA3     0.090000        1.0080           0
     68776 WT23     814      MECN     C2       CG1N1    0.360000       12.0110           0
     68777 WT23     814      MECN     N3       NG1T1   -0.460000       14.0070           0
     68778 WT23     816      MECN     C1       CG331   -0.170000       12.0110           0
     68779 WT23     816      MECN     H11      HGA3     0.090000        1.0080           0
     68780 WT23     816      MECN     H12      HGA3     0.090000        1.0080           0
     68781 WT23     816      MECN     H13      HGA3     0.090000        1.0080           0
     68782 WT23     816      MECN     C2       CG1N1    0.360000       12.0110           0
     68783 WT23     816      MECN     N3       NG1T1   -0.460000       14.0070           0
     68784 WT23     817      MECN     C1       CG331   -0.170000       12.0110           0
     68785 WT23     817      MECN     H11      HGA3     0.090000        1.0080           0
     68786 WT23     817      MECN     H12      HGA3     0.090000        1.0080           0
     68787 WT23     817      MECN     H13      HGA3     0.090000        1.0080           0
     68788 WT23     817      MECN     C2       CG1N1    0.360000       12.0110           0
     68789 WT23     817      MECN     N3       NG1T1   -0.460000       14.0070           0
     68790 WT23     819      MECN     C1       CG331   -0.170000       12.0110           0
     68791 WT23     819      MECN     H11      HGA3     0.090000        1.0080           0
     68792 WT23     819      MECN     H12      HGA3     0.090000        1.0080           0
     68793 WT23     819      MECN     H13      HGA3     0.090000        1.0080           0
     68794 WT23     819      MECN     C2       CG1N1    0.360000       12.0110           0
     68795 WT23     819      MECN     N3       NG1T1   -0.460000       14.0070           0
     68796 WT23     820      MECN     C1       CG331   -0.170000       12.0110           0
     68797 WT23     820      MECN     H11      HGA3     0.090000        1.0080           0
     68798 WT23     820      MECN     H12      HGA3     0.090000        1.0080           0
     68799 WT23     820      MECN     H13      HGA3     0.090000        1.0080           0
     68800 WT23     820      MECN     C2       CG1N1    0.360000       12.0110           0
     68801 WT23     820      MECN     N3       NG1T1   -0.460000       14.0070           0
     68802 WT23     821      MECN     C1       CG331   -0.170000       12.0110           0
     68803 WT23     821      MECN     H11      HGA3     0.090000        1.0080           0
     68804 WT23     821      MECN     H12      HGA3     0.090000        1.0080           0
     68805 WT23     821      MECN     H13      HGA3     0.090000        1.0080           0
     68806 WT23     821      MECN     C2       CG1N1    0.360000       12.0110           0
     68807 WT23     821      MECN     N3       NG1T1   -0.460000       14.0070           0
     68808 WT23     823      MECN     C1       CG331   -0.170000       12.0110           0
     68809 WT23     823      MECN     H11      HGA3     0.090000        1.0080           0
     68810 WT23     823      MECN     H12      HGA3     0.090000        1.0080           0
     68811 WT23     823      MECN     H13      HGA3     0.090000        1.0080           0
     68812 WT23     823      MECN     C2       CG1N1    0.360000       12.0110           0
     68813 WT23     823      MECN     N3       NG1T1   -0.460000       14.0070           0
     68814 WT23     824      MECN     C1       CG331   -0.170000       12.0110           0
     68815 WT23     824      MECN     H11      HGA3     0.090000        1.0080           0
     68816 WT23     824      MECN     H12      HGA3     0.090000        1.0080           0
     68817 WT23     824      MECN     H13      HGA3     0.090000        1.0080           0
     68818 WT23     824      MECN     C2       CG1N1    0.360000       12.0110           0
     68819 WT23     824      MECN     N3       NG1T1   -0.460000       14.0070           0
     68820 WT23     826      MECN     C1       CG331   -0.170000       12.0110           0
     68821 WT23     826      MECN     H11      HGA3     0.090000        1.0080           0
     68822 WT23     826      MECN     H12      HGA3     0.090000        1.0080           0
     68823 WT23     826      MECN     H13      HGA3     0.090000        1.0080           0
     68824 WT23     826      MECN     C2       CG1N1    0.360000       12.0110           0
     68825 WT23     826      MECN     N3       NG1T1   -0.460000       14.0070           0
     68826 WT23     827      MECN     C1       CG331   -0.170000       12.0110           0
     68827 WT23     827      MECN     H11      HGA3     0.090000        1.0080           0
     68828 WT23     827      MECN     H12      HGA3     0.090000        1.0080           0
     68829 WT23     827      MECN     H13      HGA3     0.090000        1.0080           0
     68830 WT23     827      MECN     C2       CG1N1    0.360000       12.0110           0
     68831 WT23     827      MECN     N3       NG1T1   -0.460000       14.0070           0
     68832 WT23     828      MECN     C1       CG331   -0.170000       12.0110           0
     68833 WT23     828      MECN     H11      HGA3     0.090000        1.0080           0
     68834 WT23     828      MECN     H12      HGA3     0.090000        1.0080           0
     68835 WT23     828      MECN     H13      HGA3     0.090000        1.0080           0
     68836 WT23     828      MECN     C2       CG1N1    0.360000       12.0110           0
     68837 WT23     828      MECN     N3       NG1T1   -0.460000       14.0070           0
     68838 WT23     829      MECN     C1       CG331   -0.170000       12.0110           0
     68839 WT23     829      MECN     H11      HGA3     0.090000        1.0080           0
     68840 WT23     829      MECN     H12      HGA3     0.090000        1.0080           0
     68841 WT23     829      MECN     H13      HGA3     0.090000        1.0080           0
     68842 WT23     829      MECN     C2       CG1N1    0.360000       12.0110           0
     68843 WT23     829      MECN     N3       NG1T1   -0.460000       14.0070           0
     68844 WT23     830      MECN     C1       CG331   -0.170000       12.0110           0
     68845 WT23     830      MECN     H11      HGA3     0.090000        1.0080           0
     68846 WT23     830      MECN     H12      HGA3     0.090000        1.0080           0
     68847 WT23     830      MECN     H13      HGA3     0.090000        1.0080           0
     68848 WT23     830      MECN     C2       CG1N1    0.360000       12.0110           0
     68849 WT23     830      MECN     N3       NG1T1   -0.460000       14.0070           0
     68850 WT23     831      MECN     C1       CG331   -0.170000       12.0110           0
     68851 WT23     831      MECN     H11      HGA3     0.090000        1.0080           0
     68852 WT23     831      MECN     H12      HGA3     0.090000        1.0080           0
     68853 WT23     831      MECN     H13      HGA3     0.090000        1.0080           0
     68854 WT23     831      MECN     C2       CG1N1    0.360000       12.0110           0
     68855 WT23     831      MECN     N3       NG1T1   -0.460000       14.0070           0
     68856 WT23     832      MECN     C1       CG331   -0.170000       12.0110           0
     68857 WT23     832      MECN     H11      HGA3     0.090000        1.0080           0
     68858 WT23     832      MECN     H12      HGA3     0.090000        1.0080           0
     68859 WT23     832      MECN     H13      HGA3     0.090000        1.0080           0
     68860 WT23     832      MECN     C2       CG1N1    0.360000       12.0110           0
     68861 WT23     832      MECN     N3       NG1T1   -0.460000       14.0070           0
     68862 WT23     833      MECN     C1       CG331   -0.170000       12.0110           0
     68863 WT23     833      MECN     H11      HGA3     0.090000        1.0080           0
     68864 WT23     833      MECN     H12      HGA3     0.090000        1.0080           0
     68865 WT23     833      MECN     H13      HGA3     0.090000        1.0080           0
     68866 WT23     833      MECN     C2       CG1N1    0.360000       12.0110           0
     68867 WT23     833      MECN     N3       NG1T1   -0.460000       14.0070           0
     68868 WT23     834      MECN     C1       CG331   -0.170000       12.0110           0
     68869 WT23     834      MECN     H11      HGA3     0.090000        1.0080           0
     68870 WT23     834      MECN     H12      HGA3     0.090000        1.0080           0
     68871 WT23     834      MECN     H13      HGA3     0.090000        1.0080           0
     68872 WT23     834      MECN     C2       CG1N1    0.360000       12.0110           0
     68873 WT23     834      MECN     N3       NG1T1   -0.460000       14.0070           0
     68874 WT23     838      MECN     C1       CG331   -0.170000       12.0110           0
     68875 WT23     838      MECN     H11      HGA3     0.090000        1.0080           0
     68876 WT23     838      MECN     H12      HGA3     0.090000        1.0080           0
     68877 WT23     838      MECN     H13      HGA3     0.090000        1.0080           0
     68878 WT23     838      MECN     C2       CG1N1    0.360000       12.0110           0
     68879 WT23     838      MECN     N3       NG1T1   -0.460000       14.0070           0
     68880 WT23     840      MECN     C1       CG331   -0.170000       12.0110           0
     68881 WT23     840      MECN     H11      HGA3     0.090000        1.0080           0
     68882 WT23     840      MECN     H12      HGA3     0.090000        1.0080           0
     68883 WT23     840      MECN     H13      HGA3     0.090000        1.0080           0
     68884 WT23     840      MECN     C2       CG1N1    0.360000       12.0110           0
     68885 WT23     840      MECN     N3       NG1T1   -0.460000       14.0070           0
     68886 WT23     842      MECN     C1       CG331   -0.170000       12.0110           0
     68887 WT23     842      MECN     H11      HGA3     0.090000        1.0080           0
     68888 WT23     842      MECN     H12      HGA3     0.090000        1.0080           0
     68889 WT23     842      MECN     H13      HGA3     0.090000        1.0080           0
     68890 WT23     842      MECN     C2       CG1N1    0.360000       12.0110           0
     68891 WT23     842      MECN     N3       NG1T1   -0.460000       14.0070           0
     68892 WT23     843      MECN     C1       CG331   -0.170000       12.0110           0
     68893 WT23     843      MECN     H11      HGA3     0.090000        1.0080           0
     68894 WT23     843      MECN     H12      HGA3     0.090000        1.0080           0
     68895 WT23     843      MECN     H13      HGA3     0.090000        1.0080           0
     68896 WT23     843      MECN     C2       CG1N1    0.360000       12.0110           0
     68897 WT23     843      MECN     N3       NG1T1   -0.460000       14.0070           0
     68898 WT23     844      MECN     C1       CG331   -0.170000       12.0110           0
     68899 WT23     844      MECN     H11      HGA3     0.090000        1.0080           0
     68900 WT23     844      MECN     H12      HGA3     0.090000        1.0080           0
     68901 WT23     844      MECN     H13      HGA3     0.090000        1.0080           0
     68902 WT23     844      MECN     C2       CG1N1    0.360000       12.0110           0
     68903 WT23     844      MECN     N3       NG1T1   -0.460000       14.0070           0
     68904 WT23     847      MECN     C1       CG331   -0.170000       12.0110           0
     68905 WT23     847      MECN     H11      HGA3     0.090000        1.0080           0
     68906 WT23     847      MECN     H12      HGA3     0.090000        1.0080           0
     68907 WT23     847      MECN     H13      HGA3     0.090000        1.0080           0
     68908 WT23     847      MECN     C2       CG1N1    0.360000       12.0110           0
     68909 WT23     847      MECN     N3       NG1T1   -0.460000       14.0070           0
     68910 WT23     849      MECN     C1       CG331   -0.170000       12.0110           0
     68911 WT23     849      MECN     H11      HGA3     0.090000        1.0080           0
     68912 WT23     849      MECN     H12      HGA3     0.090000        1.0080           0
     68913 WT23     849      MECN     H13      HGA3     0.090000        1.0080           0
     68914 WT23     849      MECN     C2       CG1N1    0.360000       12.0110           0
     68915 WT23     849      MECN     N3       NG1T1   -0.460000       14.0070           0
     68916 WT23     850      MECN     C1       CG331   -0.170000       12.0110           0
     68917 WT23     850      MECN     H11      HGA3     0.090000        1.0080           0
     68918 WT23     850      MECN     H12      HGA3     0.090000        1.0080           0
     68919 WT23     850      MECN     H13      HGA3     0.090000        1.0080           0
     68920 WT23     850      MECN     C2       CG1N1    0.360000       12.0110           0
     68921 WT23     850      MECN     N3       NG1T1   -0.460000       14.0070           0
     68922 WT23     851      MECN     C1       CG331   -0.170000       12.0110           0
     68923 WT23     851      MECN     H11      HGA3     0.090000        1.0080           0
     68924 WT23     851      MECN     H12      HGA3     0.090000        1.0080           0
     68925 WT23     851      MECN     H13      HGA3     0.090000        1.0080           0
     68926 WT23     851      MECN     C2       CG1N1    0.360000       12.0110           0
     68927 WT23     851      MECN     N3       NG1T1   -0.460000       14.0070           0
     68928 WT23     852      MECN     C1       CG331   -0.170000       12.0110           0
     68929 WT23     852      MECN     H11      HGA3     0.090000        1.0080           0
     68930 WT23     852      MECN     H12      HGA3     0.090000        1.0080           0
     68931 WT23     852      MECN     H13      HGA3     0.090000        1.0080           0
     68932 WT23     852      MECN     C2       CG1N1    0.360000       12.0110           0
     68933 WT23     852      MECN     N3       NG1T1   -0.460000       14.0070           0
     68934 WT23     857      MECN     C1       CG331   -0.170000       12.0110           0
     68935 WT23     857      MECN     H11      HGA3     0.090000        1.0080           0
     68936 WT23     857      MECN     H12      HGA3     0.090000        1.0080           0
     68937 WT23     857      MECN     H13      HGA3     0.090000        1.0080           0
     68938 WT23     857      MECN     C2       CG1N1    0.360000       12.0110           0
     68939 WT23     857      MECN     N3       NG1T1   -0.460000       14.0070           0
     68940 WT23     858      MECN     C1       CG331   -0.170000       12.0110           0
     68941 WT23     858      MECN     H11      HGA3     0.090000        1.0080           0
     68942 WT23     858      MECN     H12      HGA3     0.090000        1.0080           0
     68943 WT23     858      MECN     H13      HGA3     0.090000        1.0080           0
     68944 WT23     858      MECN     C2       CG1N1    0.360000       12.0110           0
     68945 WT23     858      MECN     N3       NG1T1   -0.460000       14.0070           0
     68946 WT23     859      MECN     C1       CG331   -0.170000       12.0110           0
     68947 WT23     859      MECN     H11      HGA3     0.090000        1.0080           0
     68948 WT23     859      MECN     H12      HGA3     0.090000        1.0080           0
     68949 WT23     859      MECN     H13      HGA3     0.090000        1.0080           0
     68950 WT23     859      MECN     C2       CG1N1    0.360000       12.0110           0
     68951 WT23     859      MECN     N3       NG1T1   -0.460000       14.0070           0
     68952 WT23     860      MECN     C1       CG331   -0.170000       12.0110           0
     68953 WT23     860      MECN     H11      HGA3     0.090000        1.0080           0
     68954 WT23     860      MECN     H12      HGA3     0.090000        1.0080           0
     68955 WT23     860      MECN     H13      HGA3     0.090000        1.0080           0
     68956 WT23     860      MECN     C2       CG1N1    0.360000       12.0110           0
     68957 WT23     860      MECN     N3       NG1T1   -0.460000       14.0070           0
     68958 WT23     861      MECN     C1       CG331   -0.170000       12.0110           0
     68959 WT23     861      MECN     H11      HGA3     0.090000        1.0080           0
     68960 WT23     861      MECN     H12      HGA3     0.090000        1.0080           0
     68961 WT23     861      MECN     H13      HGA3     0.090000        1.0080           0
     68962 WT23     861      MECN     C2       CG1N1    0.360000       12.0110           0
     68963 WT23     861      MECN     N3       NG1T1   -0.460000       14.0070           0
     68964 WT23     864      MECN     C1       CG331   -0.170000       12.0110           0
     68965 WT23     864      MECN     H11      HGA3     0.090000        1.0080           0
     68966 WT23     864      MECN     H12      HGA3     0.090000        1.0080           0
     68967 WT23     864      MECN     H13      HGA3     0.090000        1.0080           0
     68968 WT23     864      MECN     C2       CG1N1    0.360000       12.0110           0
     68969 WT23     864      MECN     N3       NG1T1   -0.460000       14.0070           0
     68970 WT23     865      MECN     C1       CG331   -0.170000       12.0110           0
     68971 WT23     865      MECN     H11      HGA3     0.090000        1.0080           0
     68972 WT23     865      MECN     H12      HGA3     0.090000        1.0080           0
     68973 WT23     865      MECN     H13      HGA3     0.090000        1.0080           0
     68974 WT23     865      MECN     C2       CG1N1    0.360000       12.0110           0
     68975 WT23     865      MECN     N3       NG1T1   -0.460000       14.0070           0
     68976 WT23     868      MECN     C1       CG331   -0.170000       12.0110           0
     68977 WT23     868      MECN     H11      HGA3     0.090000        1.0080           0
     68978 WT23     868      MECN     H12      HGA3     0.090000        1.0080           0
     68979 WT23     868      MECN     H13      HGA3     0.090000        1.0080           0
     68980 WT23     868      MECN     C2       CG1N1    0.360000       12.0110           0
     68981 WT23     868      MECN     N3       NG1T1   -0.460000       14.0070           0
     68982 WT23     869      MECN     C1       CG331   -0.170000       12.0110           0
     68983 WT23     869      MECN     H11      HGA3     0.090000        1.0080           0
     68984 WT23     869      MECN     H12      HGA3     0.090000        1.0080           0
     68985 WT23     869      MECN     H13      HGA3     0.090000        1.0080           0
     68986 WT23     869      MECN     C2       CG1N1    0.360000       12.0110           0
     68987 WT23     869      MECN     N3       NG1T1   -0.460000       14.0070           0
     68988 WT23     871      MECN     C1       CG331   -0.170000       12.0110           0
     68989 WT23     871      MECN     H11      HGA3     0.090000        1.0080           0
     68990 WT23     871      MECN     H12      HGA3     0.090000        1.0080           0
     68991 WT23     871      MECN     H13      HGA3     0.090000        1.0080           0
     68992 WT23     871      MECN     C2       CG1N1    0.360000       12.0110           0
     68993 WT23     871      MECN     N3       NG1T1   -0.460000       14.0070           0
     68994 WT23     872      MECN     C1       CG331   -0.170000       12.0110           0
     68995 WT23     872      MECN     H11      HGA3     0.090000        1.0080           0
     68996 WT23     872      MECN     H12      HGA3     0.090000        1.0080           0
     68997 WT23     872      MECN     H13      HGA3     0.090000        1.0080           0
     68998 WT23     872      MECN     C2       CG1N1    0.360000       12.0110           0
     68999 WT23     872      MECN     N3       NG1T1   -0.460000       14.0070           0
     69000 WT23     874      MECN     C1       CG331   -0.170000       12.0110           0
     69001 WT23     874      MECN     H11      HGA3     0.090000        1.0080           0
     69002 WT23     874      MECN     H12      HGA3     0.090000        1.0080           0
     69003 WT23     874      MECN     H13      HGA3     0.090000        1.0080           0
     69004 WT23     874      MECN     C2       CG1N1    0.360000       12.0110           0
     69005 WT23     874      MECN     N3       NG1T1   -0.460000       14.0070           0
     69006 WT23     875      MECN     C1       CG331   -0.170000       12.0110           0
     69007 WT23     875      MECN     H11      HGA3     0.090000        1.0080           0
     69008 WT23     875      MECN     H12      HGA3     0.090000        1.0080           0
     69009 WT23     875      MECN     H13      HGA3     0.090000        1.0080           0
     69010 WT23     875      MECN     C2       CG1N1    0.360000       12.0110           0
     69011 WT23     875      MECN     N3       NG1T1   -0.460000       14.0070           0
     69012 WT23     877      MECN     C1       CG331   -0.170000       12.0110           0
     69013 WT23     877      MECN     H11      HGA3     0.090000        1.0080           0
     69014 WT23     877      MECN     H12      HGA3     0.090000        1.0080           0
     69015 WT23     877      MECN     H13      HGA3     0.090000        1.0080           0
     69016 WT23     877      MECN     C2       CG1N1    0.360000       12.0110           0
     69017 WT23     877      MECN     N3       NG1T1   -0.460000       14.0070           0
     69018 WT23     879      MECN     C1       CG331   -0.170000       12.0110           0
     69019 WT23     879      MECN     H11      HGA3     0.090000        1.0080           0
     69020 WT23     879      MECN     H12      HGA3     0.090000        1.0080           0
     69021 WT23     879      MECN     H13      HGA3     0.090000        1.0080           0
     69022 WT23     879      MECN     C2       CG1N1    0.360000       12.0110           0
     69023 WT23     879      MECN     N3       NG1T1   -0.460000       14.0070           0
     69024 WT23     880      MECN     C1       CG331   -0.170000       12.0110           0
     69025 WT23     880      MECN     H11      HGA3     0.090000        1.0080           0
     69026 WT23     880      MECN     H12      HGA3     0.090000        1.0080           0
     69027 WT23     880      MECN     H13      HGA3     0.090000        1.0080           0
     69028 WT23     880      MECN     C2       CG1N1    0.360000       12.0110           0
     69029 WT23     880      MECN     N3       NG1T1   -0.460000       14.0070           0
     69030 WT23     881      MECN     C1       CG331   -0.170000       12.0110           0
     69031 WT23     881      MECN     H11      HGA3     0.090000        1.0080           0
     69032 WT23     881      MECN     H12      HGA3     0.090000        1.0080           0
     69033 WT23     881      MECN     H13      HGA3     0.090000        1.0080           0
     69034 WT23     881      MECN     C2       CG1N1    0.360000       12.0110           0
     69035 WT23     881      MECN     N3       NG1T1   -0.460000       14.0070           0
     69036 WT23     883      MECN     C1       CG331   -0.170000       12.0110           0
     69037 WT23     883      MECN     H11      HGA3     0.090000        1.0080           0
     69038 WT23     883      MECN     H12      HGA3     0.090000        1.0080           0
     69039 WT23     883      MECN     H13      HGA3     0.090000        1.0080           0
     69040 WT23     883      MECN     C2       CG1N1    0.360000       12.0110           0
     69041 WT23     883      MECN     N3       NG1T1   -0.460000       14.0070           0
     69042 WT23     885      MECN     C1       CG331   -0.170000       12.0110           0
     69043 WT23     885      MECN     H11      HGA3     0.090000        1.0080           0
     69044 WT23     885      MECN     H12      HGA3     0.090000        1.0080           0
     69045 WT23     885      MECN     H13      HGA3     0.090000        1.0080           0
     69046 WT23     885      MECN     C2       CG1N1    0.360000       12.0110           0
     69047 WT23     885      MECN     N3       NG1T1   -0.460000       14.0070           0
     69048 WT23     886      MECN     C1       CG331   -0.170000       12.0110           0
     69049 WT23     886      MECN     H11      HGA3     0.090000        1.0080           0
     69050 WT23     886      MECN     H12      HGA3     0.090000        1.0080           0
     69051 WT23     886      MECN     H13      HGA3     0.090000        1.0080           0
     69052 WT23     886      MECN     C2       CG1N1    0.360000       12.0110           0
     69053 WT23     886      MECN     N3       NG1T1   -0.460000       14.0070           0
     69054 WT23     887      MECN     C1       CG331   -0.170000       12.0110           0
     69055 WT23     887      MECN     H11      HGA3     0.090000        1.0080           0
     69056 WT23     887      MECN     H12      HGA3     0.090000        1.0080           0
     69057 WT23     887      MECN     H13      HGA3     0.090000        1.0080           0
     69058 WT23     887      MECN     C2       CG1N1    0.360000       12.0110           0
     69059 WT23     887      MECN     N3       NG1T1   -0.460000       14.0070           0
     69060 WT23     888      MECN     C1       CG331   -0.170000       12.0110           0
     69061 WT23     888      MECN     H11      HGA3     0.090000        1.0080           0
     69062 WT23     888      MECN     H12      HGA3     0.090000        1.0080           0
     69063 WT23     888      MECN     H13      HGA3     0.090000        1.0080           0
     69064 WT23     888      MECN     C2       CG1N1    0.360000       12.0110           0
     69065 WT23     888      MECN     N3       NG1T1   -0.460000       14.0070           0
     69066 WT23     889      MECN     C1       CG331   -0.170000       12.0110           0
     69067 WT23     889      MECN     H11      HGA3     0.090000        1.0080           0
     69068 WT23     889      MECN     H12      HGA3     0.090000        1.0080           0
     69069 WT23     889      MECN     H13      HGA3     0.090000        1.0080           0
     69070 WT23     889      MECN     C2       CG1N1    0.360000       12.0110           0
     69071 WT23     889      MECN     N3       NG1T1   -0.460000       14.0070           0
     69072 WT23     891      MECN     C1       CG331   -0.170000       12.0110           0
     69073 WT23     891      MECN     H11      HGA3     0.090000        1.0080           0
     69074 WT23     891      MECN     H12      HGA3     0.090000        1.0080           0
     69075 WT23     891      MECN     H13      HGA3     0.090000        1.0080           0
     69076 WT23     891      MECN     C2       CG1N1    0.360000       12.0110           0
     69077 WT23     891      MECN     N3       NG1T1   -0.460000       14.0070           0
     69078 WT23     892      MECN     C1       CG331   -0.170000       12.0110           0
     69079 WT23     892      MECN     H11      HGA3     0.090000        1.0080           0
     69080 WT23     892      MECN     H12      HGA3     0.090000        1.0080           0
     69081 WT23     892      MECN     H13      HGA3     0.090000        1.0080           0
     69082 WT23     892      MECN     C2       CG1N1    0.360000       12.0110           0
     69083 WT23     892      MECN     N3       NG1T1   -0.460000       14.0070           0
     69084 WT23     893      MECN     C1       CG331   -0.170000       12.0110           0
     69085 WT23     893      MECN     H11      HGA3     0.090000        1.0080           0
     69086 WT23     893      MECN     H12      HGA3     0.090000        1.0080           0
     69087 WT23     893      MECN     H13      HGA3     0.090000        1.0080           0
     69088 WT23     893      MECN     C2       CG1N1    0.360000       12.0110           0
     69089 WT23     893      MECN     N3       NG1T1   -0.460000       14.0070           0
     69090 WT23     894      MECN     C1       CG331   -0.170000       12.0110           0
     69091 WT23     894      MECN     H11      HGA3     0.090000        1.0080           0
     69092 WT23     894      MECN     H12      HGA3     0.090000        1.0080           0
     69093 WT23     894      MECN     H13      HGA3     0.090000        1.0080           0
     69094 WT23     894      MECN     C2       CG1N1    0.360000       12.0110           0
     69095 WT23     894      MECN     N3       NG1T1   -0.460000       14.0070           0
     69096 WT23     896      MECN     C1       CG331   -0.170000       12.0110           0
     69097 WT23     896      MECN     H11      HGA3     0.090000        1.0080           0
     69098 WT23     896      MECN     H12      HGA3     0.090000        1.0080           0
     69099 WT23     896      MECN     H13      HGA3     0.090000        1.0080           0
     69100 WT23     896      MECN     C2       CG1N1    0.360000       12.0110           0
     69101 WT23     896      MECN     N3       NG1T1   -0.460000       14.0070           0
     69102 WT23     900      MECN     C1       CG331   -0.170000       12.0110           0
     69103 WT23     900      MECN     H11      HGA3     0.090000        1.0080           0
     69104 WT23     900      MECN     H12      HGA3     0.090000        1.0080           0
     69105 WT23     900      MECN     H13      HGA3     0.090000        1.0080           0
     69106 WT23     900      MECN     C2       CG1N1    0.360000       12.0110           0
     69107 WT23     900      MECN     N3       NG1T1   -0.460000       14.0070           0
     69108 WT23     901      MECN     C1       CG331   -0.170000       12.0110           0
     69109 WT23     901      MECN     H11      HGA3     0.090000        1.0080           0
     69110 WT23     901      MECN     H12      HGA3     0.090000        1.0080           0
     69111 WT23     901      MECN     H13      HGA3     0.090000        1.0080           0
     69112 WT23     901      MECN     C2       CG1N1    0.360000       12.0110           0
     69113 WT23     901      MECN     N3       NG1T1   -0.460000       14.0070           0
     69114 WT23     903      MECN     C1       CG331   -0.170000       12.0110           0
     69115 WT23     903      MECN     H11      HGA3     0.090000        1.0080           0
     69116 WT23     903      MECN     H12      HGA3     0.090000        1.0080           0
     69117 WT23     903      MECN     H13      HGA3     0.090000        1.0080           0
     69118 WT23     903      MECN     C2       CG1N1    0.360000       12.0110           0
     69119 WT23     903      MECN     N3       NG1T1   -0.460000       14.0070           0
     69120 WT23     904      MECN     C1       CG331   -0.170000       12.0110           0
     69121 WT23     904      MECN     H11      HGA3     0.090000        1.0080           0
     69122 WT23     904      MECN     H12      HGA3     0.090000        1.0080           0
     69123 WT23     904      MECN     H13      HGA3     0.090000        1.0080           0
     69124 WT23     904      MECN     C2       CG1N1    0.360000       12.0110           0
     69125 WT23     904      MECN     N3       NG1T1   -0.460000       14.0070           0
     69126 WT23     905      MECN     C1       CG331   -0.170000       12.0110           0
     69127 WT23     905      MECN     H11      HGA3     0.090000        1.0080           0
     69128 WT23     905      MECN     H12      HGA3     0.090000        1.0080           0
     69129 WT23     905      MECN     H13      HGA3     0.090000        1.0080           0
     69130 WT23     905      MECN     C2       CG1N1    0.360000       12.0110           0
     69131 WT23     905      MECN     N3       NG1T1   -0.460000       14.0070           0
     69132 WT23     906      MECN     C1       CG331   -0.170000       12.0110           0
     69133 WT23     906      MECN     H11      HGA3     0.090000        1.0080           0
     69134 WT23     906      MECN     H12      HGA3     0.090000        1.0080           0
     69135 WT23     906      MECN     H13      HGA3     0.090000        1.0080           0
     69136 WT23     906      MECN     C2       CG1N1    0.360000       12.0110           0
     69137 WT23     906      MECN     N3       NG1T1   -0.460000       14.0070           0
     69138 WT23     907      MECN     C1       CG331   -0.170000       12.0110           0
     69139 WT23     907      MECN     H11      HGA3     0.090000        1.0080           0
     69140 WT23     907      MECN     H12      HGA3     0.090000        1.0080           0
     69141 WT23     907      MECN     H13      HGA3     0.090000        1.0080           0
     69142 WT23     907      MECN     C2       CG1N1    0.360000       12.0110           0
     69143 WT23     907      MECN     N3       NG1T1   -0.460000       14.0070           0
     69144 WT23     910      MECN     C1       CG331   -0.170000       12.0110           0
     69145 WT23     910      MECN     H11      HGA3     0.090000        1.0080           0
     69146 WT23     910      MECN     H12      HGA3     0.090000        1.0080           0
     69147 WT23     910      MECN     H13      HGA3     0.090000        1.0080           0
     69148 WT23     910      MECN     C2       CG1N1    0.360000       12.0110           0
     69149 WT23     910      MECN     N3       NG1T1   -0.460000       14.0070           0
     69150 WT23     912      MECN     C1       CG331   -0.170000       12.0110           0
     69151 WT23     912      MECN     H11      HGA3     0.090000        1.0080           0
     69152 WT23     912      MECN     H12      HGA3     0.090000        1.0080           0
     69153 WT23     912      MECN     H13      HGA3     0.090000        1.0080           0
     69154 WT23     912      MECN     C2       CG1N1    0.360000       12.0110           0
     69155 WT23     912      MECN     N3       NG1T1   -0.460000       14.0070           0
     69156 WT23     914      MECN     C1       CG331   -0.170000       12.0110           0
     69157 WT23     914      MECN     H11      HGA3     0.090000        1.0080           0
     69158 WT23     914      MECN     H12      HGA3     0.090000        1.0080           0
     69159 WT23     914      MECN     H13      HGA3     0.090000        1.0080           0
     69160 WT23     914      MECN     C2       CG1N1    0.360000       12.0110           0
     69161 WT23     914      MECN     N3       NG1T1   -0.460000       14.0070           0
     69162 WT23     915      MECN     C1       CG331   -0.170000       12.0110           0
     69163 WT23     915      MECN     H11      HGA3     0.090000        1.0080           0
     69164 WT23     915      MECN     H12      HGA3     0.090000        1.0080           0
     69165 WT23     915      MECN     H13      HGA3     0.090000        1.0080           0
     69166 WT23     915      MECN     C2       CG1N1    0.360000       12.0110           0
     69167 WT23     915      MECN     N3       NG1T1   -0.460000       14.0070           0
     69168 WT23     918      MECN     C1       CG331   -0.170000       12.0110           0
     69169 WT23     918      MECN     H11      HGA3     0.090000        1.0080           0
     69170 WT23     918      MECN     H12      HGA3     0.090000        1.0080           0
     69171 WT23     918      MECN     H13      HGA3     0.090000        1.0080           0
     69172 WT23     918      MECN     C2       CG1N1    0.360000       12.0110           0
     69173 WT23     918      MECN     N3       NG1T1   -0.460000       14.0070           0
     69174 WT23     920      MECN     C1       CG331   -0.170000       12.0110           0
     69175 WT23     920      MECN     H11      HGA3     0.090000        1.0080           0
     69176 WT23     920      MECN     H12      HGA3     0.090000        1.0080           0
     69177 WT23     920      MECN     H13      HGA3     0.090000        1.0080           0
     69178 WT23     920      MECN     C2       CG1N1    0.360000       12.0110           0
     69179 WT23     920      MECN     N3       NG1T1   -0.460000       14.0070           0
     69180 WT23     921      MECN     C1       CG331   -0.170000       12.0110           0
     69181 WT23     921      MECN     H11      HGA3     0.090000        1.0080           0
     69182 WT23     921      MECN     H12      HGA3     0.090000        1.0080           0
     69183 WT23     921      MECN     H13      HGA3     0.090000        1.0080           0
     69184 WT23     921      MECN     C2       CG1N1    0.360000       12.0110           0
     69185 WT23     921      MECN     N3       NG1T1   -0.460000       14.0070           0
     69186 WT23     924      MECN     C1       CG331   -0.170000       12.0110           0
     69187 WT23     924      MECN     H11      HGA3     0.090000        1.0080           0
     69188 WT23     924      MECN     H12      HGA3     0.090000        1.0080           0
     69189 WT23     924      MECN     H13      HGA3     0.090000        1.0080           0
     69190 WT23     924      MECN     C2       CG1N1    0.360000       12.0110           0
     69191 WT23     924      MECN     N3       NG1T1   -0.460000       14.0070           0
     69192 WT23     925      MECN     C1       CG331   -0.170000       12.0110           0
     69193 WT23     925      MECN     H11      HGA3     0.090000        1.0080           0
     69194 WT23     925      MECN     H12      HGA3     0.090000        1.0080           0
     69195 WT23     925      MECN     H13      HGA3     0.090000        1.0080           0
     69196 WT23     925      MECN     C2       CG1N1    0.360000       12.0110           0
     69197 WT23     925      MECN     N3       NG1T1   -0.460000       14.0070           0
     69198 WT23     926      MECN     C1       CG331   -0.170000       12.0110           0
     69199 WT23     926      MECN     H11      HGA3     0.090000        1.0080           0
     69200 WT23     926      MECN     H12      HGA3     0.090000        1.0080           0
     69201 WT23     926      MECN     H13      HGA3     0.090000        1.0080           0
     69202 WT23     926      MECN     C2       CG1N1    0.360000       12.0110           0
     69203 WT23     926      MECN     N3       NG1T1   -0.460000       14.0070           0
     69204 WT23     927      MECN     C1       CG331   -0.170000       12.0110           0
     69205 WT23     927      MECN     H11      HGA3     0.090000        1.0080           0
     69206 WT23     927      MECN     H12      HGA3     0.090000        1.0080           0
     69207 WT23     927      MECN     H13      HGA3     0.090000        1.0080           0
     69208 WT23     927      MECN     C2       CG1N1    0.360000       12.0110           0
     69209 WT23     927      MECN     N3       NG1T1   -0.460000       14.0070           0
     69210 WT23     928      MECN     C1       CG331   -0.170000       12.0110           0
     69211 WT23     928      MECN     H11      HGA3     0.090000        1.0080           0
     69212 WT23     928      MECN     H12      HGA3     0.090000        1.0080           0
     69213 WT23     928      MECN     H13      HGA3     0.090000        1.0080           0
     69214 WT23     928      MECN     C2       CG1N1    0.360000       12.0110           0
     69215 WT23     928      MECN     N3       NG1T1   -0.460000       14.0070           0
     69216 WT23     931      MECN     C1       CG331   -0.170000       12.0110           0
     69217 WT23     931      MECN     H11      HGA3     0.090000        1.0080           0
     69218 WT23     931      MECN     H12      HGA3     0.090000        1.0080           0
     69219 WT23     931      MECN     H13      HGA3     0.090000        1.0080           0
     69220 WT23     931      MECN     C2       CG1N1    0.360000       12.0110           0
     69221 WT23     931      MECN     N3       NG1T1   -0.460000       14.0070           0
     69222 WT23     932      MECN     C1       CG331   -0.170000       12.0110           0
     69223 WT23     932      MECN     H11      HGA3     0.090000        1.0080           0
     69224 WT23     932      MECN     H12      HGA3     0.090000        1.0080           0
     69225 WT23     932      MECN     H13      HGA3     0.090000        1.0080           0
     69226 WT23     932      MECN     C2       CG1N1    0.360000       12.0110           0
     69227 WT23     932      MECN     N3       NG1T1   -0.460000       14.0070           0
     69228 WT23     933      MECN     C1       CG331   -0.170000       12.0110           0
     69229 WT23     933      MECN     H11      HGA3     0.090000        1.0080           0
     69230 WT23     933      MECN     H12      HGA3     0.090000        1.0080           0
     69231 WT23     933      MECN     H13      HGA3     0.090000        1.0080           0
     69232 WT23     933      MECN     C2       CG1N1    0.360000       12.0110           0
     69233 WT23     933      MECN     N3       NG1T1   -0.460000       14.0070           0
     69234 WT23     934      MECN     C1       CG331   -0.170000       12.0110           0
     69235 WT23     934      MECN     H11      HGA3     0.090000        1.0080           0
     69236 WT23     934      MECN     H12      HGA3     0.090000        1.0080           0
     69237 WT23     934      MECN     H13      HGA3     0.090000        1.0080           0
     69238 WT23     934      MECN     C2       CG1N1    0.360000       12.0110           0
     69239 WT23     934      MECN     N3       NG1T1   -0.460000       14.0070           0
     69240 WT23     936      MECN     C1       CG331   -0.170000       12.0110           0
     69241 WT23     936      MECN     H11      HGA3     0.090000        1.0080           0
     69242 WT23     936      MECN     H12      HGA3     0.090000        1.0080           0
     69243 WT23     936      MECN     H13      HGA3     0.090000        1.0080           0
     69244 WT23     936      MECN     C2       CG1N1    0.360000       12.0110           0
     69245 WT23     936      MECN     N3       NG1T1   -0.460000       14.0070           0
     69246 WT23     937      MECN     C1       CG331   -0.170000       12.0110           0
     69247 WT23     937      MECN     H11      HGA3     0.090000        1.0080           0
     69248 WT23     937      MECN     H12      HGA3     0.090000        1.0080           0
     69249 WT23     937      MECN     H13      HGA3     0.090000        1.0080           0
     69250 WT23     937      MECN     C2       CG1N1    0.360000       12.0110           0
     69251 WT23     937      MECN     N3       NG1T1   -0.460000       14.0070           0
     69252 WT23     939      MECN     C1       CG331   -0.170000       12.0110           0
     69253 WT23     939      MECN     H11      HGA3     0.090000        1.0080           0
     69254 WT23     939      MECN     H12      HGA3     0.090000        1.0080           0
     69255 WT23     939      MECN     H13      HGA3     0.090000        1.0080           0
     69256 WT23     939      MECN     C2       CG1N1    0.360000       12.0110           0
     69257 WT23     939      MECN     N3       NG1T1   -0.460000       14.0070           0
     69258 WT23     940      MECN     C1       CG331   -0.170000       12.0110           0
     69259 WT23     940      MECN     H11      HGA3     0.090000        1.0080           0
     69260 WT23     940      MECN     H12      HGA3     0.090000        1.0080           0
     69261 WT23     940      MECN     H13      HGA3     0.090000        1.0080           0
     69262 WT23     940      MECN     C2       CG1N1    0.360000       12.0110           0
     69263 WT23     940      MECN     N3       NG1T1   -0.460000       14.0070           0
     69264 WT23     942      MECN     C1       CG331   -0.170000       12.0110           0
     69265 WT23     942      MECN     H11      HGA3     0.090000        1.0080           0
     69266 WT23     942      MECN     H12      HGA3     0.090000        1.0080           0
     69267 WT23     942      MECN     H13      HGA3     0.090000        1.0080           0
     69268 WT23     942      MECN     C2       CG1N1    0.360000       12.0110           0
     69269 WT23     942      MECN     N3       NG1T1   -0.460000       14.0070           0
     69270 WT23     944      MECN     C1       CG331   -0.170000       12.0110           0
     69271 WT23     944      MECN     H11      HGA3     0.090000        1.0080           0
     69272 WT23     944      MECN     H12      HGA3     0.090000        1.0080           0
     69273 WT23     944      MECN     H13      HGA3     0.090000        1.0080           0
     69274 WT23     944      MECN     C2       CG1N1    0.360000       12.0110           0
     69275 WT23     944      MECN     N3       NG1T1   -0.460000       14.0070           0
     69276 WT23     946      MECN     C1       CG331   -0.170000       12.0110           0
     69277 WT23     946      MECN     H11      HGA3     0.090000        1.0080           0
     69278 WT23     946      MECN     H12      HGA3     0.090000        1.0080           0
     69279 WT23     946      MECN     H13      HGA3     0.090000        1.0080           0
     69280 WT23     946      MECN     C2       CG1N1    0.360000       12.0110           0
     69281 WT23     946      MECN     N3       NG1T1   -0.460000       14.0070           0
     69282 WT23     949      MECN     C1       CG331   -0.170000       12.0110           0
     69283 WT23     949      MECN     H11      HGA3     0.090000        1.0080           0
     69284 WT23     949      MECN     H12      HGA3     0.090000        1.0080           0
     69285 WT23     949      MECN     H13      HGA3     0.090000        1.0080           0
     69286 WT23     949      MECN     C2       CG1N1    0.360000       12.0110           0
     69287 WT23     949      MECN     N3       NG1T1   -0.460000       14.0070           0
     69288 WT23     951      MECN     C1       CG331   -0.170000       12.0110           0
     69289 WT23     951      MECN     H11      HGA3     0.090000        1.0080           0
     69290 WT23     951      MECN     H12      HGA3     0.090000        1.0080           0
     69291 WT23     951      MECN     H13      HGA3     0.090000        1.0080           0
     69292 WT23     951      MECN     C2       CG1N1    0.360000       12.0110           0
     69293 WT23     951      MECN     N3       NG1T1   -0.460000       14.0070           0
     69294 WT23     952      MECN     C1       CG331   -0.170000       12.0110           0
     69295 WT23     952      MECN     H11      HGA3     0.090000        1.0080           0
     69296 WT23     952      MECN     H12      HGA3     0.090000        1.0080           0
     69297 WT23     952      MECN     H13      HGA3     0.090000        1.0080           0
     69298 WT23     952      MECN     C2       CG1N1    0.360000       12.0110           0
     69299 WT23     952      MECN     N3       NG1T1   -0.460000       14.0070           0
     69300 WT23     954      MECN     C1       CG331   -0.170000       12.0110           0
     69301 WT23     954      MECN     H11      HGA3     0.090000        1.0080           0
     69302 WT23     954      MECN     H12      HGA3     0.090000        1.0080           0
     69303 WT23     954      MECN     H13      HGA3     0.090000        1.0080           0
     69304 WT23     954      MECN     C2       CG1N1    0.360000       12.0110           0
     69305 WT23     954      MECN     N3       NG1T1   -0.460000       14.0070           0
     69306 WT23     956      MECN     C1       CG331   -0.170000       12.0110           0
     69307 WT23     956      MECN     H11      HGA3     0.090000        1.0080           0
     69308 WT23     956      MECN     H12      HGA3     0.090000        1.0080           0
     69309 WT23     956      MECN     H13      HGA3     0.090000        1.0080           0
     69310 WT23     956      MECN     C2       CG1N1    0.360000       12.0110           0
     69311 WT23     956      MECN     N3       NG1T1   -0.460000       14.0070           0
     69312 WT23     959      MECN     C1       CG331   -0.170000       12.0110           0
     69313 WT23     959      MECN     H11      HGA3     0.090000        1.0080           0
     69314 WT23     959      MECN     H12      HGA3     0.090000        1.0080           0
     69315 WT23     959      MECN     H13      HGA3     0.090000        1.0080           0
     69316 WT23     959      MECN     C2       CG1N1    0.360000       12.0110           0
     69317 WT23     959      MECN     N3       NG1T1   -0.460000       14.0070           0
     69318 WT23     961      MECN     C1       CG331   -0.170000       12.0110           0
     69319 WT23     961      MECN     H11      HGA3     0.090000        1.0080           0
     69320 WT23     961      MECN     H12      HGA3     0.090000        1.0080           0
     69321 WT23     961      MECN     H13      HGA3     0.090000        1.0080           0
     69322 WT23     961      MECN     C2       CG1N1    0.360000       12.0110           0
     69323 WT23     961      MECN     N3       NG1T1   -0.460000       14.0070           0
     69324 WT23     962      MECN     C1       CG331   -0.170000       12.0110           0
     69325 WT23     962      MECN     H11      HGA3     0.090000        1.0080           0
     69326 WT23     962      MECN     H12      HGA3     0.090000        1.0080           0
     69327 WT23     962      MECN     H13      HGA3     0.090000        1.0080           0
     69328 WT23     962      MECN     C2       CG1N1    0.360000       12.0110           0
     69329 WT23     962      MECN     N3       NG1T1   -0.460000       14.0070           0
     69330 WT23     966      MECN     C1       CG331   -0.170000       12.0110           0
     69331 WT23     966      MECN     H11      HGA3     0.090000        1.0080           0
     69332 WT23     966      MECN     H12      HGA3     0.090000        1.0080           0
     69333 WT23     966      MECN     H13      HGA3     0.090000        1.0080           0
     69334 WT23     966      MECN     C2       CG1N1    0.360000       12.0110           0
     69335 WT23     966      MECN     N3       NG1T1   -0.460000       14.0070           0
     69336 WT23     968      MECN     C1       CG331   -0.170000       12.0110           0
     69337 WT23     968      MECN     H11      HGA3     0.090000        1.0080           0
     69338 WT23     968      MECN     H12      HGA3     0.090000        1.0080           0
     69339 WT23     968      MECN     H13      HGA3     0.090000        1.0080           0
     69340 WT23     968      MECN     C2       CG1N1    0.360000       12.0110           0
     69341 WT23     968      MECN     N3       NG1T1   -0.460000       14.0070           0
     69342 WT23     969      MECN     C1       CG331   -0.170000       12.0110           0
     69343 WT23     969      MECN     H11      HGA3     0.090000        1.0080           0
     69344 WT23     969      MECN     H12      HGA3     0.090000        1.0080           0
     69345 WT23     969      MECN     H13      HGA3     0.090000        1.0080           0
     69346 WT23     969      MECN     C2       CG1N1    0.360000       12.0110           0
     69347 WT23     969      MECN     N3       NG1T1   -0.460000       14.0070           0
     69348 WT23     970      MECN     C1       CG331   -0.170000       12.0110           0
     69349 WT23     970      MECN     H11      HGA3     0.090000        1.0080           0
     69350 WT23     970      MECN     H12      HGA3     0.090000        1.0080           0
     69351 WT23     970      MECN     H13      HGA3     0.090000        1.0080           0
     69352 WT23     970      MECN     C2       CG1N1    0.360000       12.0110           0
     69353 WT23     970      MECN     N3       NG1T1   -0.460000       14.0070           0
     69354 WT23     971      MECN     C1       CG331   -0.170000       12.0110           0
     69355 WT23     971      MECN     H11      HGA3     0.090000        1.0080           0
     69356 WT23     971      MECN     H12      HGA3     0.090000        1.0080           0
     69357 WT23     971      MECN     H13      HGA3     0.090000        1.0080           0
     69358 WT23     971      MECN     C2       CG1N1    0.360000       12.0110           0
     69359 WT23     971      MECN     N3       NG1T1   -0.460000       14.0070           0
     69360 WT23     972      MECN     C1       CG331   -0.170000       12.0110           0
     69361 WT23     972      MECN     H11      HGA3     0.090000        1.0080           0
     69362 WT23     972      MECN     H12      HGA3     0.090000        1.0080           0
     69363 WT23     972      MECN     H13      HGA3     0.090000        1.0080           0
     69364 WT23     972      MECN     C2       CG1N1    0.360000       12.0110           0
     69365 WT23     972      MECN     N3       NG1T1   -0.460000       14.0070           0
     69366 WT23     973      MECN     C1       CG331   -0.170000       12.0110           0
     69367 WT23     973      MECN     H11      HGA3     0.090000        1.0080           0
     69368 WT23     973      MECN     H12      HGA3     0.090000        1.0080           0
     69369 WT23     973      MECN     H13      HGA3     0.090000        1.0080           0
     69370 WT23     973      MECN     C2       CG1N1    0.360000       12.0110           0
     69371 WT23     973      MECN     N3       NG1T1   -0.460000       14.0070           0
     69372 WT23     976      MECN     C1       CG331   -0.170000       12.0110           0
     69373 WT23     976      MECN     H11      HGA3     0.090000        1.0080           0
     69374 WT23     976      MECN     H12      HGA3     0.090000        1.0080           0
     69375 WT23     976      MECN     H13      HGA3     0.090000        1.0080           0
     69376 WT23     976      MECN     C2       CG1N1    0.360000       12.0110           0
     69377 WT23     976      MECN     N3       NG1T1   -0.460000       14.0070           0
     69378 WT23     977      MECN     C1       CG331   -0.170000       12.0110           0
     69379 WT23     977      MECN     H11      HGA3     0.090000        1.0080           0
     69380 WT23     977      MECN     H12      HGA3     0.090000        1.0080           0
     69381 WT23     977      MECN     H13      HGA3     0.090000        1.0080           0
     69382 WT23     977      MECN     C2       CG1N1    0.360000       12.0110           0
     69383 WT23     977      MECN     N3       NG1T1   -0.460000       14.0070           0
     69384 WT23     978      MECN     C1       CG331   -0.170000       12.0110           0
     69385 WT23     978      MECN     H11      HGA3     0.090000        1.0080           0
     69386 WT23     978      MECN     H12      HGA3     0.090000        1.0080           0
     69387 WT23     978      MECN     H13      HGA3     0.090000        1.0080           0
     69388 WT23     978      MECN     C2       CG1N1    0.360000       12.0110           0
     69389 WT23     978      MECN     N3       NG1T1   -0.460000       14.0070           0
     69390 WT23     979      MECN     C1       CG331   -0.170000       12.0110           0
     69391 WT23     979      MECN     H11      HGA3     0.090000        1.0080           0
     69392 WT23     979      MECN     H12      HGA3     0.090000        1.0080           0
     69393 WT23     979      MECN     H13      HGA3     0.090000        1.0080           0
     69394 WT23     979      MECN     C2       CG1N1    0.360000       12.0110           0
     69395 WT23     979      MECN     N3       NG1T1   -0.460000       14.0070           0
     69396 WT23     980      MECN     C1       CG331   -0.170000       12.0110           0
     69397 WT23     980      MECN     H11      HGA3     0.090000        1.0080           0
     69398 WT23     980      MECN     H12      HGA3     0.090000        1.0080           0
     69399 WT23     980      MECN     H13      HGA3     0.090000        1.0080           0
     69400 WT23     980      MECN     C2       CG1N1    0.360000       12.0110           0
     69401 WT23     980      MECN     N3       NG1T1   -0.460000       14.0070           0
     69402 WT23     981      MECN     C1       CG331   -0.170000       12.0110           0
     69403 WT23     981      MECN     H11      HGA3     0.090000        1.0080           0
     69404 WT23     981      MECN     H12      HGA3     0.090000        1.0080           0
     69405 WT23     981      MECN     H13      HGA3     0.090000        1.0080           0
     69406 WT23     981      MECN     C2       CG1N1    0.360000       12.0110           0
     69407 WT23     981      MECN     N3       NG1T1   -0.460000       14.0070           0
     69408 WT23     983      MECN     C1       CG331   -0.170000       12.0110           0
     69409 WT23     983      MECN     H11      HGA3     0.090000        1.0080           0
     69410 WT23     983      MECN     H12      HGA3     0.090000        1.0080           0
     69411 WT23     983      MECN     H13      HGA3     0.090000        1.0080           0
     69412 WT23     983      MECN     C2       CG1N1    0.360000       12.0110           0
     69413 WT23     983      MECN     N3       NG1T1   -0.460000       14.0070           0
     69414 WT23     985      MECN     C1       CG331   -0.170000       12.0110           0
     69415 WT23     985      MECN     H11      HGA3     0.090000        1.0080           0
     69416 WT23     985      MECN     H12      HGA3     0.090000        1.0080           0
     69417 WT23     985      MECN     H13      HGA3     0.090000        1.0080           0
     69418 WT23     985      MECN     C2       CG1N1    0.360000       12.0110           0
     69419 WT23     985      MECN     N3       NG1T1   -0.460000       14.0070           0
     69420 WT23     986      MECN     C1       CG331   -0.170000       12.0110           0
     69421 WT23     986      MECN     H11      HGA3     0.090000        1.0080           0
     69422 WT23     986      MECN     H12      HGA3     0.090000        1.0080           0
     69423 WT23     986      MECN     H13      HGA3     0.090000        1.0080           0
     69424 WT23     986      MECN     C2       CG1N1    0.360000       12.0110           0
     69425 WT23     986      MECN     N3       NG1T1   -0.460000       14.0070           0
     69426 WT23     989      MECN     C1       CG331   -0.170000       12.0110           0
     69427 WT23     989      MECN     H11      HGA3     0.090000        1.0080           0
     69428 WT23     989      MECN     H12      HGA3     0.090000        1.0080           0
     69429 WT23     989      MECN     H13      HGA3     0.090000        1.0080           0
     69430 WT23     989      MECN     C2       CG1N1    0.360000       12.0110           0
     69431 WT23     989      MECN     N3       NG1T1   -0.460000       14.0070           0
     69432 WT23     990      MECN     C1       CG331   -0.170000       12.0110           0
     69433 WT23     990      MECN     H11      HGA3     0.090000        1.0080           0
     69434 WT23     990      MECN     H12      HGA3     0.090000        1.0080           0
     69435 WT23     990      MECN     H13      HGA3     0.090000        1.0080           0
     69436 WT23     990      MECN     C2       CG1N1    0.360000       12.0110           0
     69437 WT23     990      MECN     N3       NG1T1   -0.460000       14.0070           0
     69438 WT23     991      MECN     C1       CG331   -0.170000       12.0110           0
     69439 WT23     991      MECN     H11      HGA3     0.090000        1.0080           0
     69440 WT23     991      MECN     H12      HGA3     0.090000        1.0080           0
     69441 WT23     991      MECN     H13      HGA3     0.090000        1.0080           0
     69442 WT23     991      MECN     C2       CG1N1    0.360000       12.0110           0
     69443 WT23     991      MECN     N3       NG1T1   -0.460000       14.0070           0
     69444 WT23     992      MECN     C1       CG331   -0.170000       12.0110           0
     69445 WT23     992      MECN     H11      HGA3     0.090000        1.0080           0
     69446 WT23     992      MECN     H12      HGA3     0.090000        1.0080           0
     69447 WT23     992      MECN     H13      HGA3     0.090000        1.0080           0
     69448 WT23     992      MECN     C2       CG1N1    0.360000       12.0110           0
     69449 WT23     992      MECN     N3       NG1T1   -0.460000       14.0070           0
     69450 WT23     993      MECN     C1       CG331   -0.170000       12.0110           0
     69451 WT23     993      MECN     H11      HGA3     0.090000        1.0080           0
     69452 WT23     993      MECN     H12      HGA3     0.090000        1.0080           0
     69453 WT23     993      MECN     H13      HGA3     0.090000        1.0080           0
     69454 WT23     993      MECN     C2       CG1N1    0.360000       12.0110           0
     69455 WT23     993      MECN     N3       NG1T1   -0.460000       14.0070           0
     69456 WT23     994      MECN     C1       CG331   -0.170000       12.0110           0
     69457 WT23     994      MECN     H11      HGA3     0.090000        1.0080           0
     69458 WT23     994      MECN     H12      HGA3     0.090000        1.0080           0
     69459 WT23     994      MECN     H13      HGA3     0.090000        1.0080           0
     69460 WT23     994      MECN     C2       CG1N1    0.360000       12.0110           0
     69461 WT23     994      MECN     N3       NG1T1   -0.460000       14.0070           0
     69462 WT23     996      MECN     C1       CG331   -0.170000       12.0110           0
     69463 WT23     996      MECN     H11      HGA3     0.090000        1.0080           0
     69464 WT23     996      MECN     H12      HGA3     0.090000        1.0080           0
     69465 WT23     996      MECN     H13      HGA3     0.090000        1.0080           0
     69466 WT23     996      MECN     C2       CG1N1    0.360000       12.0110           0
     69467 WT23     996      MECN     N3       NG1T1   -0.460000       14.0070           0
     69468 WT23     998      MECN     C1       CG331   -0.170000       12.0110           0
     69469 WT23     998      MECN     H11      HGA3     0.090000        1.0080           0
     69470 WT23     998      MECN     H12      HGA3     0.090000        1.0080           0
     69471 WT23     998      MECN     H13      HGA3     0.090000        1.0080           0
     69472 WT23     998      MECN     C2       CG1N1    0.360000       12.0110           0
     69473 WT23     998      MECN     N3       NG1T1   -0.460000       14.0070           0
     69474 WT23     1000     MECN     C1       CG331   -0.170000       12.0110           0
     69475 WT23     1000     MECN     H11      HGA3     0.090000        1.0080           0
     69476 WT23     1000     MECN     H12      HGA3     0.090000        1.0080           0
     69477 WT23     1000     MECN     H13      HGA3     0.090000        1.0080           0
     69478 WT23     1000     MECN     C2       CG1N1    0.360000       12.0110           0
     69479 WT23     1000     MECN     N3       NG1T1   -0.460000       14.0070           0
     69480 WT23     1002     MECN     C1       CG331   -0.170000       12.0110           0
     69481 WT23     1002     MECN     H11      HGA3     0.090000        1.0080           0
     69482 WT23     1002     MECN     H12      HGA3     0.090000        1.0080           0
     69483 WT23     1002     MECN     H13      HGA3     0.090000        1.0080           0
     69484 WT23     1002     MECN     C2       CG1N1    0.360000       12.0110           0
     69485 WT23     1002     MECN     N3       NG1T1   -0.460000       14.0070           0
     69486 WT23     1003     MECN     C1       CG331   -0.170000       12.0110           0
     69487 WT23     1003     MECN     H11      HGA3     0.090000        1.0080           0
     69488 WT23     1003     MECN     H12      HGA3     0.090000        1.0080           0
     69489 WT23     1003     MECN     H13      HGA3     0.090000        1.0080           0
     69490 WT23     1003     MECN     C2       CG1N1    0.360000       12.0110           0
     69491 WT23     1003     MECN     N3       NG1T1   -0.460000       14.0070           0
     69492 WT23     1004     MECN     C1       CG331   -0.170000       12.0110           0
     69493 WT23     1004     MECN     H11      HGA3     0.090000        1.0080           0
     69494 WT23     1004     MECN     H12      HGA3     0.090000        1.0080           0
     69495 WT23     1004     MECN     H13      HGA3     0.090000        1.0080           0
     69496 WT23     1004     MECN     C2       CG1N1    0.360000       12.0110           0
     69497 WT23     1004     MECN     N3       NG1T1   -0.460000       14.0070           0
     69498 WT23     1005     MECN     C1       CG331   -0.170000       12.0110           0
     69499 WT23     1005     MECN     H11      HGA3     0.090000        1.0080           0
     69500 WT23     1005     MECN     H12      HGA3     0.090000        1.0080           0
     69501 WT23     1005     MECN     H13      HGA3     0.090000        1.0080           0
     69502 WT23     1005     MECN     C2       CG1N1    0.360000       12.0110           0
     69503 WT23     1005     MECN     N3       NG1T1   -0.460000       14.0070           0
     69504 WT23     1007     MECN     C1       CG331   -0.170000       12.0110           0
     69505 WT23     1007     MECN     H11      HGA3     0.090000        1.0080           0
     69506 WT23     1007     MECN     H12      HGA3     0.090000        1.0080           0
     69507 WT23     1007     MECN     H13      HGA3     0.090000        1.0080           0
     69508 WT23     1007     MECN     C2       CG1N1    0.360000       12.0110           0
     69509 WT23     1007     MECN     N3       NG1T1   -0.460000       14.0070           0
     69510 WT23     1008     MECN     C1       CG331   -0.170000       12.0110           0
     69511 WT23     1008     MECN     H11      HGA3     0.090000        1.0080           0
     69512 WT23     1008     MECN     H12      HGA3     0.090000        1.0080           0
     69513 WT23     1008     MECN     H13      HGA3     0.090000        1.0080           0
     69514 WT23     1008     MECN     C2       CG1N1    0.360000       12.0110           0
     69515 WT23     1008     MECN     N3       NG1T1   -0.460000       14.0070           0
     69516 WT23     1010     MECN     C1       CG331   -0.170000       12.0110           0
     69517 WT23     1010     MECN     H11      HGA3     0.090000        1.0080           0
     69518 WT23     1010     MECN     H12      HGA3     0.090000        1.0080           0
     69519 WT23     1010     MECN     H13      HGA3     0.090000        1.0080           0
     69520 WT23     1010     MECN     C2       CG1N1    0.360000       12.0110           0
     69521 WT23     1010     MECN     N3       NG1T1   -0.460000       14.0070           0
     69522 WT23     1012     MECN     C1       CG331   -0.170000       12.0110           0
     69523 WT23     1012     MECN     H11      HGA3     0.090000        1.0080           0
     69524 WT23     1012     MECN     H12      HGA3     0.090000        1.0080           0
     69525 WT23     1012     MECN     H13      HGA3     0.090000        1.0080           0
     69526 WT23     1012     MECN     C2       CG1N1    0.360000       12.0110           0
     69527 WT23     1012     MECN     N3       NG1T1   -0.460000       14.0070           0
     69528 WT23     1013     MECN     C1       CG331   -0.170000       12.0110           0
     69529 WT23     1013     MECN     H11      HGA3     0.090000        1.0080           0
     69530 WT23     1013     MECN     H12      HGA3     0.090000        1.0080           0
     69531 WT23     1013     MECN     H13      HGA3     0.090000        1.0080           0
     69532 WT23     1013     MECN     C2       CG1N1    0.360000       12.0110           0
     69533 WT23     1013     MECN     N3       NG1T1   -0.460000       14.0070           0
     69534 WT23     1017     MECN     C1       CG331   -0.170000       12.0110           0
     69535 WT23     1017     MECN     H11      HGA3     0.090000        1.0080           0
     69536 WT23     1017     MECN     H12      HGA3     0.090000        1.0080           0
     69537 WT23     1017     MECN     H13      HGA3     0.090000        1.0080           0
     69538 WT23     1017     MECN     C2       CG1N1    0.360000       12.0110           0
     69539 WT23     1017     MECN     N3       NG1T1   -0.460000       14.0070           0
     69540 WT23     1018     MECN     C1       CG331   -0.170000       12.0110           0
     69541 WT23     1018     MECN     H11      HGA3     0.090000        1.0080           0
     69542 WT23     1018     MECN     H12      HGA3     0.090000        1.0080           0
     69543 WT23     1018     MECN     H13      HGA3     0.090000        1.0080           0
     69544 WT23     1018     MECN     C2       CG1N1    0.360000       12.0110           0
     69545 WT23     1018     MECN     N3       NG1T1   -0.460000       14.0070           0
     69546 WT23     1019     MECN     C1       CG331   -0.170000       12.0110           0
     69547 WT23     1019     MECN     H11      HGA3     0.090000        1.0080           0
     69548 WT23     1019     MECN     H12      HGA3     0.090000        1.0080           0
     69549 WT23     1019     MECN     H13      HGA3     0.090000        1.0080           0
     69550 WT23     1019     MECN     C2       CG1N1    0.360000       12.0110           0
     69551 WT23     1019     MECN     N3       NG1T1   -0.460000       14.0070           0
     69552 WT23     1021     MECN     C1       CG331   -0.170000       12.0110           0
     69553 WT23     1021     MECN     H11      HGA3     0.090000        1.0080           0
     69554 WT23     1021     MECN     H12      HGA3     0.090000        1.0080           0
     69555 WT23     1021     MECN     H13      HGA3     0.090000        1.0080           0
     69556 WT23     1021     MECN     C2       CG1N1    0.360000       12.0110           0
     69557 WT23     1021     MECN     N3       NG1T1   -0.460000       14.0070           0
     69558 WT23     1028     MECN     C1       CG331   -0.170000       12.0110           0
     69559 WT23     1028     MECN     H11      HGA3     0.090000        1.0080           0
     69560 WT23     1028     MECN     H12      HGA3     0.090000        1.0080           0
     69561 WT23     1028     MECN     H13      HGA3     0.090000        1.0080           0
     69562 WT23     1028     MECN     C2       CG1N1    0.360000       12.0110           0
     69563 WT23     1028     MECN     N3       NG1T1   -0.460000       14.0070           0
     69564 WT23     1029     MECN     C1       CG331   -0.170000       12.0110           0
     69565 WT23     1029     MECN     H11      HGA3     0.090000        1.0080           0
     69566 WT23     1029     MECN     H12      HGA3     0.090000        1.0080           0
     69567 WT23     1029     MECN     H13      HGA3     0.090000        1.0080           0
     69568 WT23     1029     MECN     C2       CG1N1    0.360000       12.0110           0
     69569 WT23     1029     MECN     N3       NG1T1   -0.460000       14.0070           0
     69570 WT23     1030     MECN     C1       CG331   -0.170000       12.0110           0
     69571 WT23     1030     MECN     H11      HGA3     0.090000        1.0080           0
     69572 WT23     1030     MECN     H12      HGA3     0.090000        1.0080           0
     69573 WT23     1030     MECN     H13      HGA3     0.090000        1.0080           0
     69574 WT23     1030     MECN     C2       CG1N1    0.360000       12.0110           0
     69575 WT23     1030     MECN     N3       NG1T1   -0.460000       14.0070           0
     69576 WT23     1031     MECN     C1       CG331   -0.170000       12.0110           0
     69577 WT23     1031     MECN     H11      HGA3     0.090000        1.0080           0
     69578 WT23     1031     MECN     H12      HGA3     0.090000        1.0080           0
     69579 WT23     1031     MECN     H13      HGA3     0.090000        1.0080           0
     69580 WT23     1031     MECN     C2       CG1N1    0.360000       12.0110           0
     69581 WT23     1031     MECN     N3       NG1T1   -0.460000       14.0070           0
     69582 WT23     1032     MECN     C1       CG331   -0.170000       12.0110           0
     69583 WT23     1032     MECN     H11      HGA3     0.090000        1.0080           0
     69584 WT23     1032     MECN     H12      HGA3     0.090000        1.0080           0
     69585 WT23     1032     MECN     H13      HGA3     0.090000        1.0080           0
     69586 WT23     1032     MECN     C2       CG1N1    0.360000       12.0110           0
     69587 WT23     1032     MECN     N3       NG1T1   -0.460000       14.0070           0
     69588 WT23     1034     MECN     C1       CG331   -0.170000       12.0110           0
     69589 WT23     1034     MECN     H11      HGA3     0.090000        1.0080           0
     69590 WT23     1034     MECN     H12      HGA3     0.090000        1.0080           0
     69591 WT23     1034     MECN     H13      HGA3     0.090000        1.0080           0
     69592 WT23     1034     MECN     C2       CG1N1    0.360000       12.0110           0
     69593 WT23     1034     MECN     N3       NG1T1   -0.460000       14.0070           0
     69594 WT23     1036     MECN     C1       CG331   -0.170000       12.0110           0
     69595 WT23     1036     MECN     H11      HGA3     0.090000        1.0080           0
     69596 WT23     1036     MECN     H12      HGA3     0.090000        1.0080           0
     69597 WT23     1036     MECN     H13      HGA3     0.090000        1.0080           0
     69598 WT23     1036     MECN     C2       CG1N1    0.360000       12.0110           0
     69599 WT23     1036     MECN     N3       NG1T1   -0.460000       14.0070           0
     69600 WT23     1039     MECN     C1       CG331   -0.170000       12.0110           0
     69601 WT23     1039     MECN     H11      HGA3     0.090000        1.0080           0
     69602 WT23     1039     MECN     H12      HGA3     0.090000        1.0080           0
     69603 WT23     1039     MECN     H13      HGA3     0.090000        1.0080           0
     69604 WT23     1039     MECN     C2       CG1N1    0.360000       12.0110           0
     69605 WT23     1039     MECN     N3       NG1T1   -0.460000       14.0070           0
     69606 WT23     1040     MECN     C1       CG331   -0.170000       12.0110           0
     69607 WT23     1040     MECN     H11      HGA3     0.090000        1.0080           0
     69608 WT23     1040     MECN     H12      HGA3     0.090000        1.0080           0
     69609 WT23     1040     MECN     H13      HGA3     0.090000        1.0080           0
     69610 WT23     1040     MECN     C2       CG1N1    0.360000       12.0110           0
     69611 WT23     1040     MECN     N3       NG1T1   -0.460000       14.0070           0
     69612 WT23     1041     MECN     C1       CG331   -0.170000       12.0110           0
     69613 WT23     1041     MECN     H11      HGA3     0.090000        1.0080           0
     69614 WT23     1041     MECN     H12      HGA3     0.090000        1.0080           0
     69615 WT23     1041     MECN     H13      HGA3     0.090000        1.0080           0
     69616 WT23     1041     MECN     C2       CG1N1    0.360000       12.0110           0
     69617 WT23     1041     MECN     N3       NG1T1   -0.460000       14.0070           0
     69618 WT23     1042     MECN     C1       CG331   -0.170000       12.0110           0
     69619 WT23     1042     MECN     H11      HGA3     0.090000        1.0080           0
     69620 WT23     1042     MECN     H12      HGA3     0.090000        1.0080           0
     69621 WT23     1042     MECN     H13      HGA3     0.090000        1.0080           0
     69622 WT23     1042     MECN     C2       CG1N1    0.360000       12.0110           0
     69623 WT23     1042     MECN     N3       NG1T1   -0.460000       14.0070           0
     69624 WT23     1043     MECN     C1       CG331   -0.170000       12.0110           0
     69625 WT23     1043     MECN     H11      HGA3     0.090000        1.0080           0
     69626 WT23     1043     MECN     H12      HGA3     0.090000        1.0080           0
     69627 WT23     1043     MECN     H13      HGA3     0.090000        1.0080           0
     69628 WT23     1043     MECN     C2       CG1N1    0.360000       12.0110           0
     69629 WT23     1043     MECN     N3       NG1T1   -0.460000       14.0070           0
     69630 WT23     1044     MECN     C1       CG331   -0.170000       12.0110           0
     69631 WT23     1044     MECN     H11      HGA3     0.090000        1.0080           0
     69632 WT23     1044     MECN     H12      HGA3     0.090000        1.0080           0
     69633 WT23     1044     MECN     H13      HGA3     0.090000        1.0080           0
     69634 WT23     1044     MECN     C2       CG1N1    0.360000       12.0110           0
     69635 WT23     1044     MECN     N3       NG1T1   -0.460000       14.0070           0
     69636 WT23     1049     MECN     C1       CG331   -0.170000       12.0110           0
     69637 WT23     1049     MECN     H11      HGA3     0.090000        1.0080           0
     69638 WT23     1049     MECN     H12      HGA3     0.090000        1.0080           0
     69639 WT23     1049     MECN     H13      HGA3     0.090000        1.0080           0
     69640 WT23     1049     MECN     C2       CG1N1    0.360000       12.0110           0
     69641 WT23     1049     MECN     N3       NG1T1   -0.460000       14.0070           0
     69642 WT23     1051     MECN     C1       CG331   -0.170000       12.0110           0
     69643 WT23     1051     MECN     H11      HGA3     0.090000        1.0080           0
     69644 WT23     1051     MECN     H12      HGA3     0.090000        1.0080           0
     69645 WT23     1051     MECN     H13      HGA3     0.090000        1.0080           0
     69646 WT23     1051     MECN     C2       CG1N1    0.360000       12.0110           0
     69647 WT23     1051     MECN     N3       NG1T1   -0.460000       14.0070           0
     69648 WT23     1055     MECN     C1       CG331   -0.170000       12.0110           0
     69649 WT23     1055     MECN     H11      HGA3     0.090000        1.0080           0
     69650 WT23     1055     MECN     H12      HGA3     0.090000        1.0080           0
     69651 WT23     1055     MECN     H13      HGA3     0.090000        1.0080           0
     69652 WT23     1055     MECN     C2       CG1N1    0.360000       12.0110           0
     69653 WT23     1055     MECN     N3       NG1T1   -0.460000       14.0070           0
     69654 WT23     1056     MECN     C1       CG331   -0.170000       12.0110           0
     69655 WT23     1056     MECN     H11      HGA3     0.090000        1.0080           0
     69656 WT23     1056     MECN     H12      HGA3     0.090000        1.0080           0
     69657 WT23     1056     MECN     H13      HGA3     0.090000        1.0080           0
     69658 WT23     1056     MECN     C2       CG1N1    0.360000       12.0110           0
     69659 WT23     1056     MECN     N3       NG1T1   -0.460000       14.0070           0
     69660 WT23     1057     MECN     C1       CG331   -0.170000       12.0110           0
     69661 WT23     1057     MECN     H11      HGA3     0.090000        1.0080           0
     69662 WT23     1057     MECN     H12      HGA3     0.090000        1.0080           0
     69663 WT23     1057     MECN     H13      HGA3     0.090000        1.0080           0
     69664 WT23     1057     MECN     C2       CG1N1    0.360000       12.0110           0
     69665 WT23     1057     MECN     N3       NG1T1   -0.460000       14.0070           0
     69666 WT23     1058     MECN     C1       CG331   -0.170000       12.0110           0
     69667 WT23     1058     MECN     H11      HGA3     0.090000        1.0080           0
     69668 WT23     1058     MECN     H12      HGA3     0.090000        1.0080           0
     69669 WT23     1058     MECN     H13      HGA3     0.090000        1.0080           0
     69670 WT23     1058     MECN     C2       CG1N1    0.360000       12.0110           0
     69671 WT23     1058     MECN     N3       NG1T1   -0.460000       14.0070           0
     69672 WT23     1062     MECN     C1       CG331   -0.170000       12.0110           0
     69673 WT23     1062     MECN     H11      HGA3     0.090000        1.0080           0
     69674 WT23     1062     MECN     H12      HGA3     0.090000        1.0080           0
     69675 WT23     1062     MECN     H13      HGA3     0.090000        1.0080           0
     69676 WT23     1062     MECN     C2       CG1N1    0.360000       12.0110           0
     69677 WT23     1062     MECN     N3       NG1T1   -0.460000       14.0070           0
     69678 WT23     1063     MECN     C1       CG331   -0.170000       12.0110           0
     69679 WT23     1063     MECN     H11      HGA3     0.090000        1.0080           0
     69680 WT23     1063     MECN     H12      HGA3     0.090000        1.0080           0
     69681 WT23     1063     MECN     H13      HGA3     0.090000        1.0080           0
     69682 WT23     1063     MECN     C2       CG1N1    0.360000       12.0110           0
     69683 WT23     1063     MECN     N3       NG1T1   -0.460000       14.0070           0
     69684 WT23     1064     MECN     C1       CG331   -0.170000       12.0110           0
     69685 WT23     1064     MECN     H11      HGA3     0.090000        1.0080           0
     69686 WT23     1064     MECN     H12      HGA3     0.090000        1.0080           0
     69687 WT23     1064     MECN     H13      HGA3     0.090000        1.0080           0
     69688 WT23     1064     MECN     C2       CG1N1    0.360000       12.0110           0
     69689 WT23     1064     MECN     N3       NG1T1   -0.460000       14.0070           0
     69690 WT23     1066     MECN     C1       CG331   -0.170000       12.0110           0
     69691 WT23     1066     MECN     H11      HGA3     0.090000        1.0080           0
     69692 WT23     1066     MECN     H12      HGA3     0.090000        1.0080           0
     69693 WT23     1066     MECN     H13      HGA3     0.090000        1.0080           0
     69694 WT23     1066     MECN     C2       CG1N1    0.360000       12.0110           0
     69695 WT23     1066     MECN     N3       NG1T1   -0.460000       14.0070           0
     69696 WT23     1067     MECN     C1       CG331   -0.170000       12.0110           0
     69697 WT23     1067     MECN     H11      HGA3     0.090000        1.0080           0
     69698 WT23     1067     MECN     H12      HGA3     0.090000        1.0080           0
     69699 WT23     1067     MECN     H13      HGA3     0.090000        1.0080           0
     69700 WT23     1067     MECN     C2       CG1N1    0.360000       12.0110           0
     69701 WT23     1067     MECN     N3       NG1T1   -0.460000       14.0070           0
     69702 WT23     1070     MECN     C1       CG331   -0.170000       12.0110           0
     69703 WT23     1070     MECN     H11      HGA3     0.090000        1.0080           0
     69704 WT23     1070     MECN     H12      HGA3     0.090000        1.0080           0
     69705 WT23     1070     MECN     H13      HGA3     0.090000        1.0080           0
     69706 WT23     1070     MECN     C2       CG1N1    0.360000       12.0110           0
     69707 WT23     1070     MECN     N3       NG1T1   -0.460000       14.0070           0
     69708 WT23     1071     MECN     C1       CG331   -0.170000       12.0110           0
     69709 WT23     1071     MECN     H11      HGA3     0.090000        1.0080           0
     69710 WT23     1071     MECN     H12      HGA3     0.090000        1.0080           0
     69711 WT23     1071     MECN     H13      HGA3     0.090000        1.0080           0
     69712 WT23     1071     MECN     C2       CG1N1    0.360000       12.0110           0
     69713 WT23     1071     MECN     N3       NG1T1   -0.460000       14.0070           0
     69714 WT23     1072     MECN     C1       CG331   -0.170000       12.0110           0
     69715 WT23     1072     MECN     H11      HGA3     0.090000        1.0080           0
     69716 WT23     1072     MECN     H12      HGA3     0.090000        1.0080           0
     69717 WT23     1072     MECN     H13      HGA3     0.090000        1.0080           0
     69718 WT23     1072     MECN     C2       CG1N1    0.360000       12.0110           0
     69719 WT23     1072     MECN     N3       NG1T1   -0.460000       14.0070           0
     69720 WT23     1074     MECN     C1       CG331   -0.170000       12.0110           0
     69721 WT23     1074     MECN     H11      HGA3     0.090000        1.0080           0
     69722 WT23     1074     MECN     H12      HGA3     0.090000        1.0080           0
     69723 WT23     1074     MECN     H13      HGA3     0.090000        1.0080           0
     69724 WT23     1074     MECN     C2       CG1N1    0.360000       12.0110           0
     69725 WT23     1074     MECN     N3       NG1T1   -0.460000       14.0070           0
     69726 WT23     1075     MECN     C1       CG331   -0.170000       12.0110           0
     69727 WT23     1075     MECN     H11      HGA3     0.090000        1.0080           0
     69728 WT23     1075     MECN     H12      HGA3     0.090000        1.0080           0
     69729 WT23     1075     MECN     H13      HGA3     0.090000        1.0080           0
     69730 WT23     1075     MECN     C2       CG1N1    0.360000       12.0110           0
     69731 WT23     1075     MECN     N3       NG1T1   -0.460000       14.0070           0
     69732 WT23     1076     MECN     C1       CG331   -0.170000       12.0110           0
     69733 WT23     1076     MECN     H11      HGA3     0.090000        1.0080           0
     69734 WT23     1076     MECN     H12      HGA3     0.090000        1.0080           0
     69735 WT23     1076     MECN     H13      HGA3     0.090000        1.0080           0
     69736 WT23     1076     MECN     C2       CG1N1    0.360000       12.0110           0
     69737 WT23     1076     MECN     N3       NG1T1   -0.460000       14.0070           0
     69738 WT23     1079     MECN     C1       CG331   -0.170000       12.0110           0
     69739 WT23     1079     MECN     H11      HGA3     0.090000        1.0080           0
     69740 WT23     1079     MECN     H12      HGA3     0.090000        1.0080           0
     69741 WT23     1079     MECN     H13      HGA3     0.090000        1.0080           0
     69742 WT23     1079     MECN     C2       CG1N1    0.360000       12.0110           0
     69743 WT23     1079     MECN     N3       NG1T1   -0.460000       14.0070           0
     69744 WT23     1082     MECN     C1       CG331   -0.170000       12.0110           0
     69745 WT23     1082     MECN     H11      HGA3     0.090000        1.0080           0
     69746 WT23     1082     MECN     H12      HGA3     0.090000        1.0080           0
     69747 WT23     1082     MECN     H13      HGA3     0.090000        1.0080           0
     69748 WT23     1082     MECN     C2       CG1N1    0.360000       12.0110           0
     69749 WT23     1082     MECN     N3       NG1T1   -0.460000       14.0070           0
     69750 WT23     1083     MECN     C1       CG331   -0.170000       12.0110           0
     69751 WT23     1083     MECN     H11      HGA3     0.090000        1.0080           0
     69752 WT23     1083     MECN     H12      HGA3     0.090000        1.0080           0
     69753 WT23     1083     MECN     H13      HGA3     0.090000        1.0080           0
     69754 WT23     1083     MECN     C2       CG1N1    0.360000       12.0110           0
     69755 WT23     1083     MECN     N3       NG1T1   -0.460000       14.0070           0
     69756 WT23     1084     MECN     C1       CG331   -0.170000       12.0110           0
     69757 WT23     1084     MECN     H11      HGA3     0.090000        1.0080           0
     69758 WT23     1084     MECN     H12      HGA3     0.090000        1.0080           0
     69759 WT23     1084     MECN     H13      HGA3     0.090000        1.0080           0
     69760 WT23     1084     MECN     C2       CG1N1    0.360000       12.0110           0
     69761 WT23     1084     MECN     N3       NG1T1   -0.460000       14.0070           0
     69762 WT23     1086     MECN     C1       CG331   -0.170000       12.0110           0
     69763 WT23     1086     MECN     H11      HGA3     0.090000        1.0080           0
     69764 WT23     1086     MECN     H12      HGA3     0.090000        1.0080           0
     69765 WT23     1086     MECN     H13      HGA3     0.090000        1.0080           0
     69766 WT23     1086     MECN     C2       CG1N1    0.360000       12.0110           0
     69767 WT23     1086     MECN     N3       NG1T1   -0.460000       14.0070           0
     69768 WT23     1087     MECN     C1       CG331   -0.170000       12.0110           0
     69769 WT23     1087     MECN     H11      HGA3     0.090000        1.0080           0
     69770 WT23     1087     MECN     H12      HGA3     0.090000        1.0080           0
     69771 WT23     1087     MECN     H13      HGA3     0.090000        1.0080           0
     69772 WT23     1087     MECN     C2       CG1N1    0.360000       12.0110           0
     69773 WT23     1087     MECN     N3       NG1T1   -0.460000       14.0070           0
     69774 WT23     1089     MECN     C1       CG331   -0.170000       12.0110           0
     69775 WT23     1089     MECN     H11      HGA3     0.090000        1.0080           0
     69776 WT23     1089     MECN     H12      HGA3     0.090000        1.0080           0
     69777 WT23     1089     MECN     H13      HGA3     0.090000        1.0080           0
     69778 WT23     1089     MECN     C2       CG1N1    0.360000       12.0110           0
     69779 WT23     1089     MECN     N3       NG1T1   -0.460000       14.0070           0
     69780 WT23     1090     MECN     C1       CG331   -0.170000       12.0110           0
     69781 WT23     1090     MECN     H11      HGA3     0.090000        1.0080           0
     69782 WT23     1090     MECN     H12      HGA3     0.090000        1.0080           0
     69783 WT23     1090     MECN     H13      HGA3     0.090000        1.0080           0
     69784 WT23     1090     MECN     C2       CG1N1    0.360000       12.0110           0
     69785 WT23     1090     MECN     N3       NG1T1   -0.460000       14.0070           0
     69786 WT23     1091     MECN     C1       CG331   -0.170000       12.0110           0
     69787 WT23     1091     MECN     H11      HGA3     0.090000        1.0080           0
     69788 WT23     1091     MECN     H12      HGA3     0.090000        1.0080           0
     69789 WT23     1091     MECN     H13      HGA3     0.090000        1.0080           0
     69790 WT23     1091     MECN     C2       CG1N1    0.360000       12.0110           0
     69791 WT23     1091     MECN     N3       NG1T1   -0.460000       14.0070           0
     69792 WT23     1093     MECN     C1       CG331   -0.170000       12.0110           0
     69793 WT23     1093     MECN     H11      HGA3     0.090000        1.0080           0
     69794 WT23     1093     MECN     H12      HGA3     0.090000        1.0080           0
     69795 WT23     1093     MECN     H13      HGA3     0.090000        1.0080           0
     69796 WT23     1093     MECN     C2       CG1N1    0.360000       12.0110           0
     69797 WT23     1093     MECN     N3       NG1T1   -0.460000       14.0070           0
     69798 WT23     1096     MECN     C1       CG331   -0.170000       12.0110           0
     69799 WT23     1096     MECN     H11      HGA3     0.090000        1.0080           0
     69800 WT23     1096     MECN     H12      HGA3     0.090000        1.0080           0
     69801 WT23     1096     MECN     H13      HGA3     0.090000        1.0080           0
     69802 WT23     1096     MECN     C2       CG1N1    0.360000       12.0110           0
     69803 WT23     1096     MECN     N3       NG1T1   -0.460000       14.0070           0
     69804 WT23     1097     MECN     C1       CG331   -0.170000       12.0110           0
     69805 WT23     1097     MECN     H11      HGA3     0.090000        1.0080           0
     69806 WT23     1097     MECN     H12      HGA3     0.090000        1.0080           0
     69807 WT23     1097     MECN     H13      HGA3     0.090000        1.0080           0
     69808 WT23     1097     MECN     C2       CG1N1    0.360000       12.0110           0
     69809 WT23     1097     MECN     N3       NG1T1   -0.460000       14.0070           0
     69810 WT23     1099     MECN     C1       CG331   -0.170000       12.0110           0
     69811 WT23     1099     MECN     H11      HGA3     0.090000        1.0080           0
     69812 WT23     1099     MECN     H12      HGA3     0.090000        1.0080           0
     69813 WT23     1099     MECN     H13      HGA3     0.090000        1.0080           0
     69814 WT23     1099     MECN     C2       CG1N1    0.360000       12.0110           0
     69815 WT23     1099     MECN     N3       NG1T1   -0.460000       14.0070           0
     69816 WT23     1100     MECN     C1       CG331   -0.170000       12.0110           0
     69817 WT23     1100     MECN     H11      HGA3     0.090000        1.0080           0
     69818 WT23     1100     MECN     H12      HGA3     0.090000        1.0080           0
     69819 WT23     1100     MECN     H13      HGA3     0.090000        1.0080           0
     69820 WT23     1100     MECN     C2       CG1N1    0.360000       12.0110           0
     69821 WT23     1100     MECN     N3       NG1T1   -0.460000       14.0070           0
     69822 WT23     1101     MECN     C1       CG331   -0.170000       12.0110           0
     69823 WT23     1101     MECN     H11      HGA3     0.090000        1.0080           0
     69824 WT23     1101     MECN     H12      HGA3     0.090000        1.0080           0
     69825 WT23     1101     MECN     H13      HGA3     0.090000        1.0080           0
     69826 WT23     1101     MECN     C2       CG1N1    0.360000       12.0110           0
     69827 WT23     1101     MECN     N3       NG1T1   -0.460000       14.0070           0
     69828 WT23     1102     MECN     C1       CG331   -0.170000       12.0110           0
     69829 WT23     1102     MECN     H11      HGA3     0.090000        1.0080           0
     69830 WT23     1102     MECN     H12      HGA3     0.090000        1.0080           0
     69831 WT23     1102     MECN     H13      HGA3     0.090000        1.0080           0
     69832 WT23     1102     MECN     C2       CG1N1    0.360000       12.0110           0
     69833 WT23     1102     MECN     N3       NG1T1   -0.460000       14.0070           0
     69834 WT23     1104     MECN     C1       CG331   -0.170000       12.0110           0
     69835 WT23     1104     MECN     H11      HGA3     0.090000        1.0080           0
     69836 WT23     1104     MECN     H12      HGA3     0.090000        1.0080           0
     69837 WT23     1104     MECN     H13      HGA3     0.090000        1.0080           0
     69838 WT23     1104     MECN     C2       CG1N1    0.360000       12.0110           0
     69839 WT23     1104     MECN     N3       NG1T1   -0.460000       14.0070           0
     69840 WT23     1105     MECN     C1       CG331   -0.170000       12.0110           0
     69841 WT23     1105     MECN     H11      HGA3     0.090000        1.0080           0
     69842 WT23     1105     MECN     H12      HGA3     0.090000        1.0080           0
     69843 WT23     1105     MECN     H13      HGA3     0.090000        1.0080           0
     69844 WT23     1105     MECN     C2       CG1N1    0.360000       12.0110           0
     69845 WT23     1105     MECN     N3       NG1T1   -0.460000       14.0070           0
     69846 WT23     1106     MECN     C1       CG331   -0.170000       12.0110           0
     69847 WT23     1106     MECN     H11      HGA3     0.090000        1.0080           0
     69848 WT23     1106     MECN     H12      HGA3     0.090000        1.0080           0
     69849 WT23     1106     MECN     H13      HGA3     0.090000        1.0080           0
     69850 WT23     1106     MECN     C2       CG1N1    0.360000       12.0110           0
     69851 WT23     1106     MECN     N3       NG1T1   -0.460000       14.0070           0
     69852 WT23     1108     MECN     C1       CG331   -0.170000       12.0110           0
     69853 WT23     1108     MECN     H11      HGA3     0.090000        1.0080           0
     69854 WT23     1108     MECN     H12      HGA3     0.090000        1.0080           0
     69855 WT23     1108     MECN     H13      HGA3     0.090000        1.0080           0
     69856 WT23     1108     MECN     C2       CG1N1    0.360000       12.0110           0
     69857 WT23     1108     MECN     N3       NG1T1   -0.460000       14.0070           0
     69858 WT23     1109     MECN     C1       CG331   -0.170000       12.0110           0
     69859 WT23     1109     MECN     H11      HGA3     0.090000        1.0080           0
     69860 WT23     1109     MECN     H12      HGA3     0.090000        1.0080           0
     69861 WT23     1109     MECN     H13      HGA3     0.090000        1.0080           0
     69862 WT23     1109     MECN     C2       CG1N1    0.360000       12.0110           0
     69863 WT23     1109     MECN     N3       NG1T1   -0.460000       14.0070           0
     69864 WT23     1110     MECN     C1       CG331   -0.170000       12.0110           0
     69865 WT23     1110     MECN     H11      HGA3     0.090000        1.0080           0
     69866 WT23     1110     MECN     H12      HGA3     0.090000        1.0080           0
     69867 WT23     1110     MECN     H13      HGA3     0.090000        1.0080           0
     69868 WT23     1110     MECN     C2       CG1N1    0.360000       12.0110           0
     69869 WT23     1110     MECN     N3       NG1T1   -0.460000       14.0070           0
     69870 WT23     1111     MECN     C1       CG331   -0.170000       12.0110           0
     69871 WT23     1111     MECN     H11      HGA3     0.090000        1.0080           0
     69872 WT23     1111     MECN     H12      HGA3     0.090000        1.0080           0
     69873 WT23     1111     MECN     H13      HGA3     0.090000        1.0080           0
     69874 WT23     1111     MECN     C2       CG1N1    0.360000       12.0110           0
     69875 WT23     1111     MECN     N3       NG1T1   -0.460000       14.0070           0
     69876 WT23     1112     MECN     C1       CG331   -0.170000       12.0110           0
     69877 WT23     1112     MECN     H11      HGA3     0.090000        1.0080           0
     69878 WT23     1112     MECN     H12      HGA3     0.090000        1.0080           0
     69879 WT23     1112     MECN     H13      HGA3     0.090000        1.0080           0
     69880 WT23     1112     MECN     C2       CG1N1    0.360000       12.0110           0
     69881 WT23     1112     MECN     N3       NG1T1   -0.460000       14.0070           0
     69882 WT23     1118     MECN     C1       CG331   -0.170000       12.0110           0
     69883 WT23     1118     MECN     H11      HGA3     0.090000        1.0080           0
     69884 WT23     1118     MECN     H12      HGA3     0.090000        1.0080           0
     69885 WT23     1118     MECN     H13      HGA3     0.090000        1.0080           0
     69886 WT23     1118     MECN     C2       CG1N1    0.360000       12.0110           0
     69887 WT23     1118     MECN     N3       NG1T1   -0.460000       14.0070           0
     69888 WT23     1119     MECN     C1       CG331   -0.170000       12.0110           0
     69889 WT23     1119     MECN     H11      HGA3     0.090000        1.0080           0
     69890 WT23     1119     MECN     H12      HGA3     0.090000        1.0080           0
     69891 WT23     1119     MECN     H13      HGA3     0.090000        1.0080           0
     69892 WT23     1119     MECN     C2       CG1N1    0.360000       12.0110           0
     69893 WT23     1119     MECN     N3       NG1T1   -0.460000       14.0070           0
     69894 WT23     1120     MECN     C1       CG331   -0.170000       12.0110           0
     69895 WT23     1120     MECN     H11      HGA3     0.090000        1.0080           0
     69896 WT23     1120     MECN     H12      HGA3     0.090000        1.0080           0
     69897 WT23     1120     MECN     H13      HGA3     0.090000        1.0080           0
     69898 WT23     1120     MECN     C2       CG1N1    0.360000       12.0110           0
     69899 WT23     1120     MECN     N3       NG1T1   -0.460000       14.0070           0
     69900 WT23     1127     MECN     C1       CG331   -0.170000       12.0110           0
     69901 WT23     1127     MECN     H11      HGA3     0.090000        1.0080           0
     69902 WT23     1127     MECN     H12      HGA3     0.090000        1.0080           0
     69903 WT23     1127     MECN     H13      HGA3     0.090000        1.0080           0
     69904 WT23     1127     MECN     C2       CG1N1    0.360000       12.0110           0
     69905 WT23     1127     MECN     N3       NG1T1   -0.460000       14.0070           0
     69906 WT23     1128     MECN     C1       CG331   -0.170000       12.0110           0
     69907 WT23     1128     MECN     H11      HGA3     0.090000        1.0080           0
     69908 WT23     1128     MECN     H12      HGA3     0.090000        1.0080           0
     69909 WT23     1128     MECN     H13      HGA3     0.090000        1.0080           0
     69910 WT23     1128     MECN     C2       CG1N1    0.360000       12.0110           0
     69911 WT23     1128     MECN     N3       NG1T1   -0.460000       14.0070           0
     69912 WT23     1129     MECN     C1       CG331   -0.170000       12.0110           0
     69913 WT23     1129     MECN     H11      HGA3     0.090000        1.0080           0
     69914 WT23     1129     MECN     H12      HGA3     0.090000        1.0080           0
     69915 WT23     1129     MECN     H13      HGA3     0.090000        1.0080           0
     69916 WT23     1129     MECN     C2       CG1N1    0.360000       12.0110           0
     69917 WT23     1129     MECN     N3       NG1T1   -0.460000       14.0070           0
     69918 WT23     1130     MECN     C1       CG331   -0.170000       12.0110           0
     69919 WT23     1130     MECN     H11      HGA3     0.090000        1.0080           0
     69920 WT23     1130     MECN     H12      HGA3     0.090000        1.0080           0
     69921 WT23     1130     MECN     H13      HGA3     0.090000        1.0080           0
     69922 WT23     1130     MECN     C2       CG1N1    0.360000       12.0110           0
     69923 WT23     1130     MECN     N3       NG1T1   -0.460000       14.0070           0
     69924 WT23     1132     MECN     C1       CG331   -0.170000       12.0110           0
     69925 WT23     1132     MECN     H11      HGA3     0.090000        1.0080           0
     69926 WT23     1132     MECN     H12      HGA3     0.090000        1.0080           0
     69927 WT23     1132     MECN     H13      HGA3     0.090000        1.0080           0
     69928 WT23     1132     MECN     C2       CG1N1    0.360000       12.0110           0
     69929 WT23     1132     MECN     N3       NG1T1   -0.460000       14.0070           0
     69930 WT23     1133     MECN     C1       CG331   -0.170000       12.0110           0
     69931 WT23     1133     MECN     H11      HGA3     0.090000        1.0080           0
     69932 WT23     1133     MECN     H12      HGA3     0.090000        1.0080           0
     69933 WT23     1133     MECN     H13      HGA3     0.090000        1.0080           0
     69934 WT23     1133     MECN     C2       CG1N1    0.360000       12.0110           0
     69935 WT23     1133     MECN     N3       NG1T1   -0.460000       14.0070           0
     69936 WT23     1134     MECN     C1       CG331   -0.170000       12.0110           0
     69937 WT23     1134     MECN     H11      HGA3     0.090000        1.0080           0
     69938 WT23     1134     MECN     H12      HGA3     0.090000        1.0080           0
     69939 WT23     1134     MECN     H13      HGA3     0.090000        1.0080           0
     69940 WT23     1134     MECN     C2       CG1N1    0.360000       12.0110           0
     69941 WT23     1134     MECN     N3       NG1T1   -0.460000       14.0070           0
     69942 WT23     1135     MECN     C1       CG331   -0.170000       12.0110           0
     69943 WT23     1135     MECN     H11      HGA3     0.090000        1.0080           0
     69944 WT23     1135     MECN     H12      HGA3     0.090000        1.0080           0
     69945 WT23     1135     MECN     H13      HGA3     0.090000        1.0080           0
     69946 WT23     1135     MECN     C2       CG1N1    0.360000       12.0110           0
     69947 WT23     1135     MECN     N3       NG1T1   -0.460000       14.0070           0
     69948 WT23     1137     MECN     C1       CG331   -0.170000       12.0110           0
     69949 WT23     1137     MECN     H11      HGA3     0.090000        1.0080           0
     69950 WT23     1137     MECN     H12      HGA3     0.090000        1.0080           0
     69951 WT23     1137     MECN     H13      HGA3     0.090000        1.0080           0
     69952 WT23     1137     MECN     C2       CG1N1    0.360000       12.0110           0
     69953 WT23     1137     MECN     N3       NG1T1   -0.460000       14.0070           0
     69954 WT23     1138     MECN     C1       CG331   -0.170000       12.0110           0
     69955 WT23     1138     MECN     H11      HGA3     0.090000        1.0080           0
     69956 WT23     1138     MECN     H12      HGA3     0.090000        1.0080           0
     69957 WT23     1138     MECN     H13      HGA3     0.090000        1.0080           0
     69958 WT23     1138     MECN     C2       CG1N1    0.360000       12.0110           0
     69959 WT23     1138     MECN     N3       NG1T1   -0.460000       14.0070           0
     69960 WT23     1139     MECN     C1       CG331   -0.170000       12.0110           0
     69961 WT23     1139     MECN     H11      HGA3     0.090000        1.0080           0
     69962 WT23     1139     MECN     H12      HGA3     0.090000        1.0080           0
     69963 WT23     1139     MECN     H13      HGA3     0.090000        1.0080           0
     69964 WT23     1139     MECN     C2       CG1N1    0.360000       12.0110           0
     69965 WT23     1139     MECN     N3       NG1T1   -0.460000       14.0070           0
     69966 WT23     1140     MECN     C1       CG331   -0.170000       12.0110           0
     69967 WT23     1140     MECN     H11      HGA3     0.090000        1.0080           0
     69968 WT23     1140     MECN     H12      HGA3     0.090000        1.0080           0
     69969 WT23     1140     MECN     H13      HGA3     0.090000        1.0080           0
     69970 WT23     1140     MECN     C2       CG1N1    0.360000       12.0110           0
     69971 WT23     1140     MECN     N3       NG1T1   -0.460000       14.0070           0
     69972 WT23     1142     MECN     C1       CG331   -0.170000       12.0110           0
     69973 WT23     1142     MECN     H11      HGA3     0.090000        1.0080           0
     69974 WT23     1142     MECN     H12      HGA3     0.090000        1.0080           0
     69975 WT23     1142     MECN     H13      HGA3     0.090000        1.0080           0
     69976 WT23     1142     MECN     C2       CG1N1    0.360000       12.0110           0
     69977 WT23     1142     MECN     N3       NG1T1   -0.460000       14.0070           0
     69978 WT23     1143     MECN     C1       CG331   -0.170000       12.0110           0
     69979 WT23     1143     MECN     H11      HGA3     0.090000        1.0080           0
     69980 WT23     1143     MECN     H12      HGA3     0.090000        1.0080           0
     69981 WT23     1143     MECN     H13      HGA3     0.090000        1.0080           0
     69982 WT23     1143     MECN     C2       CG1N1    0.360000       12.0110           0
     69983 WT23     1143     MECN     N3       NG1T1   -0.460000       14.0070           0
     69984 WT23     1146     MECN     C1       CG331   -0.170000       12.0110           0
     69985 WT23     1146     MECN     H11      HGA3     0.090000        1.0080           0
     69986 WT23     1146     MECN     H12      HGA3     0.090000        1.0080           0
     69987 WT23     1146     MECN     H13      HGA3     0.090000        1.0080           0
     69988 WT23     1146     MECN     C2       CG1N1    0.360000       12.0110           0
     69989 WT23     1146     MECN     N3       NG1T1   -0.460000       14.0070           0
     69990 WT23     1148     MECN     C1       CG331   -0.170000       12.0110           0
     69991 WT23     1148     MECN     H11      HGA3     0.090000        1.0080           0
     69992 WT23     1148     MECN     H12      HGA3     0.090000        1.0080           0
     69993 WT23     1148     MECN     H13      HGA3     0.090000        1.0080           0
     69994 WT23     1148     MECN     C2       CG1N1    0.360000       12.0110           0
     69995 WT23     1148     MECN     N3       NG1T1   -0.460000       14.0070           0
     69996 WT23     1149     MECN     C1       CG331   -0.170000       12.0110           0
     69997 WT23     1149     MECN     H11      HGA3     0.090000        1.0080           0
     69998 WT23     1149     MECN     H12      HGA3     0.090000        1.0080           0
     69999 WT23     1149     MECN     H13      HGA3     0.090000        1.0080           0
     70000 WT23     1149     MECN     C2       CG1N1    0.360000       12.0110           0
     70001 WT23     1149     MECN     N3       NG1T1   -0.460000       14.0070           0
     70002 WT23     1150     MECN     C1       CG331   -0.170000       12.0110           0
     70003 WT23     1150     MECN     H11      HGA3     0.090000        1.0080           0
     70004 WT23     1150     MECN     H12      HGA3     0.090000        1.0080           0
     70005 WT23     1150     MECN     H13      HGA3     0.090000        1.0080           0
     70006 WT23     1150     MECN     C2       CG1N1    0.360000       12.0110           0
     70007 WT23     1150     MECN     N3       NG1T1   -0.460000       14.0070           0
     70008 WT23     1151     MECN     C1       CG331   -0.170000       12.0110           0
     70009 WT23     1151     MECN     H11      HGA3     0.090000        1.0080           0
     70010 WT23     1151     MECN     H12      HGA3     0.090000        1.0080           0
     70011 WT23     1151     MECN     H13      HGA3     0.090000        1.0080           0
     70012 WT23     1151     MECN     C2       CG1N1    0.360000       12.0110           0
     70013 WT23     1151     MECN     N3       NG1T1   -0.460000       14.0070           0
     70014 WT23     1152     MECN     C1       CG331   -0.170000       12.0110           0
     70015 WT23     1152     MECN     H11      HGA3     0.090000        1.0080           0
     70016 WT23     1152     MECN     H12      HGA3     0.090000        1.0080           0
     70017 WT23     1152     MECN     H13      HGA3     0.090000        1.0080           0
     70018 WT23     1152     MECN     C2       CG1N1    0.360000       12.0110           0
     70019 WT23     1152     MECN     N3       NG1T1   -0.460000       14.0070           0
     70020 WT23     1157     MECN     C1       CG331   -0.170000       12.0110           0
     70021 WT23     1157     MECN     H11      HGA3     0.090000        1.0080           0
     70022 WT23     1157     MECN     H12      HGA3     0.090000        1.0080           0
     70023 WT23     1157     MECN     H13      HGA3     0.090000        1.0080           0
     70024 WT23     1157     MECN     C2       CG1N1    0.360000       12.0110           0
     70025 WT23     1157     MECN     N3       NG1T1   -0.460000       14.0070           0
     70026 WT23     1161     MECN     C1       CG331   -0.170000       12.0110           0
     70027 WT23     1161     MECN     H11      HGA3     0.090000        1.0080           0
     70028 WT23     1161     MECN     H12      HGA3     0.090000        1.0080           0
     70029 WT23     1161     MECN     H13      HGA3     0.090000        1.0080           0
     70030 WT23     1161     MECN     C2       CG1N1    0.360000       12.0110           0
     70031 WT23     1161     MECN     N3       NG1T1   -0.460000       14.0070           0
     70032 WT23     1164     MECN     C1       CG331   -0.170000       12.0110           0
     70033 WT23     1164     MECN     H11      HGA3     0.090000        1.0080           0
     70034 WT23     1164     MECN     H12      HGA3     0.090000        1.0080           0
     70035 WT23     1164     MECN     H13      HGA3     0.090000        1.0080           0
     70036 WT23     1164     MECN     C2       CG1N1    0.360000       12.0110           0
     70037 WT23     1164     MECN     N3       NG1T1   -0.460000       14.0070           0
     70038 WT23     1165     MECN     C1       CG331   -0.170000       12.0110           0
     70039 WT23     1165     MECN     H11      HGA3     0.090000        1.0080           0
     70040 WT23     1165     MECN     H12      HGA3     0.090000        1.0080           0
     70041 WT23     1165     MECN     H13      HGA3     0.090000        1.0080           0
     70042 WT23     1165     MECN     C2       CG1N1    0.360000       12.0110           0
     70043 WT23     1165     MECN     N3       NG1T1   -0.460000       14.0070           0
     70044 WT23     1166     MECN     C1       CG331   -0.170000       12.0110           0
     70045 WT23     1166     MECN     H11      HGA3     0.090000        1.0080           0
     70046 WT23     1166     MECN     H12      HGA3     0.090000        1.0080           0
     70047 WT23     1166     MECN     H13      HGA3     0.090000        1.0080           0
     70048 WT23     1166     MECN     C2       CG1N1    0.360000       12.0110           0
     70049 WT23     1166     MECN     N3       NG1T1   -0.460000       14.0070           0
     70050 WT23     1167     MECN     C1       CG331   -0.170000       12.0110           0
     70051 WT23     1167     MECN     H11      HGA3     0.090000        1.0080           0
     70052 WT23     1167     MECN     H12      HGA3     0.090000        1.0080           0
     70053 WT23     1167     MECN     H13      HGA3     0.090000        1.0080           0
     70054 WT23     1167     MECN     C2       CG1N1    0.360000       12.0110           0
     70055 WT23     1167     MECN     N3       NG1T1   -0.460000       14.0070           0
     70056 WT23     1168     MECN     C1       CG331   -0.170000       12.0110           0
     70057 WT23     1168     MECN     H11      HGA3     0.090000        1.0080           0
     70058 WT23     1168     MECN     H12      HGA3     0.090000        1.0080           0
     70059 WT23     1168     MECN     H13      HGA3     0.090000        1.0080           0
     70060 WT23     1168     MECN     C2       CG1N1    0.360000       12.0110           0
     70061 WT23     1168     MECN     N3       NG1T1   -0.460000       14.0070           0
     70062 WT23     1170     MECN     C1       CG331   -0.170000       12.0110           0
     70063 WT23     1170     MECN     H11      HGA3     0.090000        1.0080           0
     70064 WT23     1170     MECN     H12      HGA3     0.090000        1.0080           0
     70065 WT23     1170     MECN     H13      HGA3     0.090000        1.0080           0
     70066 WT23     1170     MECN     C2       CG1N1    0.360000       12.0110           0
     70067 WT23     1170     MECN     N3       NG1T1   -0.460000       14.0070           0
     70068 WT23     1171     MECN     C1       CG331   -0.170000       12.0110           0
     70069 WT23     1171     MECN     H11      HGA3     0.090000        1.0080           0
     70070 WT23     1171     MECN     H12      HGA3     0.090000        1.0080           0
     70071 WT23     1171     MECN     H13      HGA3     0.090000        1.0080           0
     70072 WT23     1171     MECN     C2       CG1N1    0.360000       12.0110           0
     70073 WT23     1171     MECN     N3       NG1T1   -0.460000       14.0070           0
     70074 WT23     1172     MECN     C1       CG331   -0.170000       12.0110           0
     70075 WT23     1172     MECN     H11      HGA3     0.090000        1.0080           0
     70076 WT23     1172     MECN     H12      HGA3     0.090000        1.0080           0
     70077 WT23     1172     MECN     H13      HGA3     0.090000        1.0080           0
     70078 WT23     1172     MECN     C2       CG1N1    0.360000       12.0110           0
     70079 WT23     1172     MECN     N3       NG1T1   -0.460000       14.0070           0
     70080 WT23     1173     MECN     C1       CG331   -0.170000       12.0110           0
     70081 WT23     1173     MECN     H11      HGA3     0.090000        1.0080           0
     70082 WT23     1173     MECN     H12      HGA3     0.090000        1.0080           0
     70083 WT23     1173     MECN     H13      HGA3     0.090000        1.0080           0
     70084 WT23     1173     MECN     C2       CG1N1    0.360000       12.0110           0
     70085 WT23     1173     MECN     N3       NG1T1   -0.460000       14.0070           0
     70086 WT23     1174     MECN     C1       CG331   -0.170000       12.0110           0
     70087 WT23     1174     MECN     H11      HGA3     0.090000        1.0080           0
     70088 WT23     1174     MECN     H12      HGA3     0.090000        1.0080           0
     70089 WT23     1174     MECN     H13      HGA3     0.090000        1.0080           0
     70090 WT23     1174     MECN     C2       CG1N1    0.360000       12.0110           0
     70091 WT23     1174     MECN     N3       NG1T1   -0.460000       14.0070           0
     70092 WT23     1175     MECN     C1       CG331   -0.170000       12.0110           0
     70093 WT23     1175     MECN     H11      HGA3     0.090000        1.0080           0
     70094 WT23     1175     MECN     H12      HGA3     0.090000        1.0080           0
     70095 WT23     1175     MECN     H13      HGA3     0.090000        1.0080           0
     70096 WT23     1175     MECN     C2       CG1N1    0.360000       12.0110           0
     70097 WT23     1175     MECN     N3       NG1T1   -0.460000       14.0070           0
     70098 WT23     1176     MECN     C1       CG331   -0.170000       12.0110           0
     70099 WT23     1176     MECN     H11      HGA3     0.090000        1.0080           0
     70100 WT23     1176     MECN     H12      HGA3     0.090000        1.0080           0
     70101 WT23     1176     MECN     H13      HGA3     0.090000        1.0080           0
     70102 WT23     1176     MECN     C2       CG1N1    0.360000       12.0110           0
     70103 WT23     1176     MECN     N3       NG1T1   -0.460000       14.0070           0
     70104 WT23     1177     MECN     C1       CG331   -0.170000       12.0110           0
     70105 WT23     1177     MECN     H11      HGA3     0.090000        1.0080           0
     70106 WT23     1177     MECN     H12      HGA3     0.090000        1.0080           0
     70107 WT23     1177     MECN     H13      HGA3     0.090000        1.0080           0
     70108 WT23     1177     MECN     C2       CG1N1    0.360000       12.0110           0
     70109 WT23     1177     MECN     N3       NG1T1   -0.460000       14.0070           0
     70110 WT23     1179     MECN     C1       CG331   -0.170000       12.0110           0
     70111 WT23     1179     MECN     H11      HGA3     0.090000        1.0080           0
     70112 WT23     1179     MECN     H12      HGA3     0.090000        1.0080           0
     70113 WT23     1179     MECN     H13      HGA3     0.090000        1.0080           0
     70114 WT23     1179     MECN     C2       CG1N1    0.360000       12.0110           0
     70115 WT23     1179     MECN     N3       NG1T1   -0.460000       14.0070           0
     70116 WT23     1180     MECN     C1       CG331   -0.170000       12.0110           0
     70117 WT23     1180     MECN     H11      HGA3     0.090000        1.0080           0
     70118 WT23     1180     MECN     H12      HGA3     0.090000        1.0080           0
     70119 WT23     1180     MECN     H13      HGA3     0.090000        1.0080           0
     70120 WT23     1180     MECN     C2       CG1N1    0.360000       12.0110           0
     70121 WT23     1180     MECN     N3       NG1T1   -0.460000       14.0070           0
     70122 WT23     1181     MECN     C1       CG331   -0.170000       12.0110           0
     70123 WT23     1181     MECN     H11      HGA3     0.090000        1.0080           0
     70124 WT23     1181     MECN     H12      HGA3     0.090000        1.0080           0
     70125 WT23     1181     MECN     H13      HGA3     0.090000        1.0080           0
     70126 WT23     1181     MECN     C2       CG1N1    0.360000       12.0110           0
     70127 WT23     1181     MECN     N3       NG1T1   -0.460000       14.0070           0
     70128 WT23     1184     MECN     C1       CG331   -0.170000       12.0110           0
     70129 WT23     1184     MECN     H11      HGA3     0.090000        1.0080           0
     70130 WT23     1184     MECN     H12      HGA3     0.090000        1.0080           0
     70131 WT23     1184     MECN     H13      HGA3     0.090000        1.0080           0
     70132 WT23     1184     MECN     C2       CG1N1    0.360000       12.0110           0
     70133 WT23     1184     MECN     N3       NG1T1   -0.460000       14.0070           0
     70134 WT23     1185     MECN     C1       CG331   -0.170000       12.0110           0
     70135 WT23     1185     MECN     H11      HGA3     0.090000        1.0080           0
     70136 WT23     1185     MECN     H12      HGA3     0.090000        1.0080           0
     70137 WT23     1185     MECN     H13      HGA3     0.090000        1.0080           0
     70138 WT23     1185     MECN     C2       CG1N1    0.360000       12.0110           0
     70139 WT23     1185     MECN     N3       NG1T1   -0.460000       14.0070           0
     70140 WT23     1188     MECN     C1       CG331   -0.170000       12.0110           0
     70141 WT23     1188     MECN     H11      HGA3     0.090000        1.0080           0
     70142 WT23     1188     MECN     H12      HGA3     0.090000        1.0080           0
     70143 WT23     1188     MECN     H13      HGA3     0.090000        1.0080           0
     70144 WT23     1188     MECN     C2       CG1N1    0.360000       12.0110           0
     70145 WT23     1188     MECN     N3       NG1T1   -0.460000       14.0070           0
     70146 WT23     1190     MECN     C1       CG331   -0.170000       12.0110           0
     70147 WT23     1190     MECN     H11      HGA3     0.090000        1.0080           0
     70148 WT23     1190     MECN     H12      HGA3     0.090000        1.0080           0
     70149 WT23     1190     MECN     H13      HGA3     0.090000        1.0080           0
     70150 WT23     1190     MECN     C2       CG1N1    0.360000       12.0110           0
     70151 WT23     1190     MECN     N3       NG1T1   -0.460000       14.0070           0
     70152 WT23     1191     MECN     C1       CG331   -0.170000       12.0110           0
     70153 WT23     1191     MECN     H11      HGA3     0.090000        1.0080           0
     70154 WT23     1191     MECN     H12      HGA3     0.090000        1.0080           0
     70155 WT23     1191     MECN     H13      HGA3     0.090000        1.0080           0
     70156 WT23     1191     MECN     C2       CG1N1    0.360000       12.0110           0
     70157 WT23     1191     MECN     N3       NG1T1   -0.460000       14.0070           0
     70158 WT23     1199     MECN     C1       CG331   -0.170000       12.0110           0
     70159 WT23     1199     MECN     H11      HGA3     0.090000        1.0080           0
     70160 WT23     1199     MECN     H12      HGA3     0.090000        1.0080           0
     70161 WT23     1199     MECN     H13      HGA3     0.090000        1.0080           0
     70162 WT23     1199     MECN     C2       CG1N1    0.360000       12.0110           0
     70163 WT23     1199     MECN     N3       NG1T1   -0.460000       14.0070           0
     70164 WT23     1200     MECN     C1       CG331   -0.170000       12.0110           0
     70165 WT23     1200     MECN     H11      HGA3     0.090000        1.0080           0
     70166 WT23     1200     MECN     H12      HGA3     0.090000        1.0080           0
     70167 WT23     1200     MECN     H13      HGA3     0.090000        1.0080           0
     70168 WT23     1200     MECN     C2       CG1N1    0.360000       12.0110           0
     70169 WT23     1200     MECN     N3       NG1T1   -0.460000       14.0070           0
     70170 WT23     1202     MECN     C1       CG331   -0.170000       12.0110           0
     70171 WT23     1202     MECN     H11      HGA3     0.090000        1.0080           0
     70172 WT23     1202     MECN     H12      HGA3     0.090000        1.0080           0
     70173 WT23     1202     MECN     H13      HGA3     0.090000        1.0080           0
     70174 WT23     1202     MECN     C2       CG1N1    0.360000       12.0110           0
     70175 WT23     1202     MECN     N3       NG1T1   -0.460000       14.0070           0
     70176 WT23     1203     MECN     C1       CG331   -0.170000       12.0110           0
     70177 WT23     1203     MECN     H11      HGA3     0.090000        1.0080           0
     70178 WT23     1203     MECN     H12      HGA3     0.090000        1.0080           0
     70179 WT23     1203     MECN     H13      HGA3     0.090000        1.0080           0
     70180 WT23     1203     MECN     C2       CG1N1    0.360000       12.0110           0
     70181 WT23     1203     MECN     N3       NG1T1   -0.460000       14.0070           0
     70182 WT23     1204     MECN     C1       CG331   -0.170000       12.0110           0
     70183 WT23     1204     MECN     H11      HGA3     0.090000        1.0080           0
     70184 WT23     1204     MECN     H12      HGA3     0.090000        1.0080           0
     70185 WT23     1204     MECN     H13      HGA3     0.090000        1.0080           0
     70186 WT23     1204     MECN     C2       CG1N1    0.360000       12.0110           0
     70187 WT23     1204     MECN     N3       NG1T1   -0.460000       14.0070           0
     70188 WT23     1206     MECN     C1       CG331   -0.170000       12.0110           0
     70189 WT23     1206     MECN     H11      HGA3     0.090000        1.0080           0
     70190 WT23     1206     MECN     H12      HGA3     0.090000        1.0080           0
     70191 WT23     1206     MECN     H13      HGA3     0.090000        1.0080           0
     70192 WT23     1206     MECN     C2       CG1N1    0.360000       12.0110           0
     70193 WT23     1206     MECN     N3       NG1T1   -0.460000       14.0070           0
     70194 WT23     1207     MECN     C1       CG331   -0.170000       12.0110           0
     70195 WT23     1207     MECN     H11      HGA3     0.090000        1.0080           0
     70196 WT23     1207     MECN     H12      HGA3     0.090000        1.0080           0
     70197 WT23     1207     MECN     H13      HGA3     0.090000        1.0080           0
     70198 WT23     1207     MECN     C2       CG1N1    0.360000       12.0110           0
     70199 WT23     1207     MECN     N3       NG1T1   -0.460000       14.0070           0
     70200 WT23     1209     MECN     C1       CG331   -0.170000       12.0110           0
     70201 WT23     1209     MECN     H11      HGA3     0.090000        1.0080           0
     70202 WT23     1209     MECN     H12      HGA3     0.090000        1.0080           0
     70203 WT23     1209     MECN     H13      HGA3     0.090000        1.0080           0
     70204 WT23     1209     MECN     C2       CG1N1    0.360000       12.0110           0
     70205 WT23     1209     MECN     N3       NG1T1   -0.460000       14.0070           0
     70206 WT23     1210     MECN     C1       CG331   -0.170000       12.0110           0
     70207 WT23     1210     MECN     H11      HGA3     0.090000        1.0080           0
     70208 WT23     1210     MECN     H12      HGA3     0.090000        1.0080           0
     70209 WT23     1210     MECN     H13      HGA3     0.090000        1.0080           0
     70210 WT23     1210     MECN     C2       CG1N1    0.360000       12.0110           0
     70211 WT23     1210     MECN     N3       NG1T1   -0.460000       14.0070           0
     70212 WT23     1212     MECN     C1       CG331   -0.170000       12.0110           0
     70213 WT23     1212     MECN     H11      HGA3     0.090000        1.0080           0
     70214 WT23     1212     MECN     H12      HGA3     0.090000        1.0080           0
     70215 WT23     1212     MECN     H13      HGA3     0.090000        1.0080           0
     70216 WT23     1212     MECN     C2       CG1N1    0.360000       12.0110           0
     70217 WT23     1212     MECN     N3       NG1T1   -0.460000       14.0070           0
     70218 WT23     1213     MECN     C1       CG331   -0.170000       12.0110           0
     70219 WT23     1213     MECN     H11      HGA3     0.090000        1.0080           0
     70220 WT23     1213     MECN     H12      HGA3     0.090000        1.0080           0
     70221 WT23     1213     MECN     H13      HGA3     0.090000        1.0080           0
     70222 WT23     1213     MECN     C2       CG1N1    0.360000       12.0110           0
     70223 WT23     1213     MECN     N3       NG1T1   -0.460000       14.0070           0
     70224 WT23     1217     MECN     C1       CG331   -0.170000       12.0110           0
     70225 WT23     1217     MECN     H11      HGA3     0.090000        1.0080           0
     70226 WT23     1217     MECN     H12      HGA3     0.090000        1.0080           0
     70227 WT23     1217     MECN     H13      HGA3     0.090000        1.0080           0
     70228 WT23     1217     MECN     C2       CG1N1    0.360000       12.0110           0
     70229 WT23     1217     MECN     N3       NG1T1   -0.460000       14.0070           0
     70230 WT23     1219     MECN     C1       CG331   -0.170000       12.0110           0
     70231 WT23     1219     MECN     H11      HGA3     0.090000        1.0080           0
     70232 WT23     1219     MECN     H12      HGA3     0.090000        1.0080           0
     70233 WT23     1219     MECN     H13      HGA3     0.090000        1.0080           0
     70234 WT23     1219     MECN     C2       CG1N1    0.360000       12.0110           0
     70235 WT23     1219     MECN     N3       NG1T1   -0.460000       14.0070           0
     70236 WT23     1220     MECN     C1       CG331   -0.170000       12.0110           0
     70237 WT23     1220     MECN     H11      HGA3     0.090000        1.0080           0
     70238 WT23     1220     MECN     H12      HGA3     0.090000        1.0080           0
     70239 WT23     1220     MECN     H13      HGA3     0.090000        1.0080           0
     70240 WT23     1220     MECN     C2       CG1N1    0.360000       12.0110           0
     70241 WT23     1220     MECN     N3       NG1T1   -0.460000       14.0070           0
     70242 WT23     1222     MECN     C1       CG331   -0.170000       12.0110           0
     70243 WT23     1222     MECN     H11      HGA3     0.090000        1.0080           0
     70244 WT23     1222     MECN     H12      HGA3     0.090000        1.0080           0
     70245 WT23     1222     MECN     H13      HGA3     0.090000        1.0080           0
     70246 WT23     1222     MECN     C2       CG1N1    0.360000       12.0110           0
     70247 WT23     1222     MECN     N3       NG1T1   -0.460000       14.0070           0
     70248 WT23     1223     MECN     C1       CG331   -0.170000       12.0110           0
     70249 WT23     1223     MECN     H11      HGA3     0.090000        1.0080           0
     70250 WT23     1223     MECN     H12      HGA3     0.090000        1.0080           0
     70251 WT23     1223     MECN     H13      HGA3     0.090000        1.0080           0
     70252 WT23     1223     MECN     C2       CG1N1    0.360000       12.0110           0
     70253 WT23     1223     MECN     N3       NG1T1   -0.460000       14.0070           0
     70254 WT23     1224     MECN     C1       CG331   -0.170000       12.0110           0
     70255 WT23     1224     MECN     H11      HGA3     0.090000        1.0080           0
     70256 WT23     1224     MECN     H12      HGA3     0.090000        1.0080           0
     70257 WT23     1224     MECN     H13      HGA3     0.090000        1.0080           0
     70258 WT23     1224     MECN     C2       CG1N1    0.360000       12.0110           0
     70259 WT23     1224     MECN     N3       NG1T1   -0.460000       14.0070           0
     70260 WT23     1225     MECN     C1       CG331   -0.170000       12.0110           0
     70261 WT23     1225     MECN     H11      HGA3     0.090000        1.0080           0
     70262 WT23     1225     MECN     H12      HGA3     0.090000        1.0080           0
     70263 WT23     1225     MECN     H13      HGA3     0.090000        1.0080           0
     70264 WT23     1225     MECN     C2       CG1N1    0.360000       12.0110           0
     70265 WT23     1225     MECN     N3       NG1T1   -0.460000       14.0070           0
     70266 WT23     1226     MECN     C1       CG331   -0.170000       12.0110           0
     70267 WT23     1226     MECN     H11      HGA3     0.090000        1.0080           0
     70268 WT23     1226     MECN     H12      HGA3     0.090000        1.0080           0
     70269 WT23     1226     MECN     H13      HGA3     0.090000        1.0080           0
     70270 WT23     1226     MECN     C2       CG1N1    0.360000       12.0110           0
     70271 WT23     1226     MECN     N3       NG1T1   -0.460000       14.0070           0
     70272 WT23     1227     MECN     C1       CG331   -0.170000       12.0110           0
     70273 WT23     1227     MECN     H11      HGA3     0.090000        1.0080           0
     70274 WT23     1227     MECN     H12      HGA3     0.090000        1.0080           0
     70275 WT23     1227     MECN     H13      HGA3     0.090000        1.0080           0
     70276 WT23     1227     MECN     C2       CG1N1    0.360000       12.0110           0
     70277 WT23     1227     MECN     N3       NG1T1   -0.460000       14.0070           0
     70278 WT23     1229     MECN     C1       CG331   -0.170000       12.0110           0
     70279 WT23     1229     MECN     H11      HGA3     0.090000        1.0080           0
     70280 WT23     1229     MECN     H12      HGA3     0.090000        1.0080           0
     70281 WT23     1229     MECN     H13      HGA3     0.090000        1.0080           0
     70282 WT23     1229     MECN     C2       CG1N1    0.360000       12.0110           0
     70283 WT23     1229     MECN     N3       NG1T1   -0.460000       14.0070           0
     70284 WT23     1230     MECN     C1       CG331   -0.170000       12.0110           0
     70285 WT23     1230     MECN     H11      HGA3     0.090000        1.0080           0
     70286 WT23     1230     MECN     H12      HGA3     0.090000        1.0080           0
     70287 WT23     1230     MECN     H13      HGA3     0.090000        1.0080           0
     70288 WT23     1230     MECN     C2       CG1N1    0.360000       12.0110           0
     70289 WT23     1230     MECN     N3       NG1T1   -0.460000       14.0070           0
     70290 WT23     1231     MECN     C1       CG331   -0.170000       12.0110           0
     70291 WT23     1231     MECN     H11      HGA3     0.090000        1.0080           0
     70292 WT23     1231     MECN     H12      HGA3     0.090000        1.0080           0
     70293 WT23     1231     MECN     H13      HGA3     0.090000        1.0080           0
     70294 WT23     1231     MECN     C2       CG1N1    0.360000       12.0110           0
     70295 WT23     1231     MECN     N3       NG1T1   -0.460000       14.0070           0
     70296 WT23     1232     MECN     C1       CG331   -0.170000       12.0110           0
     70297 WT23     1232     MECN     H11      HGA3     0.090000        1.0080           0
     70298 WT23     1232     MECN     H12      HGA3     0.090000        1.0080           0
     70299 WT23     1232     MECN     H13      HGA3     0.090000        1.0080           0
     70300 WT23     1232     MECN     C2       CG1N1    0.360000       12.0110           0
     70301 WT23     1232     MECN     N3       NG1T1   -0.460000       14.0070           0
     70302 WT23     1233     MECN     C1       CG331   -0.170000       12.0110           0
     70303 WT23     1233     MECN     H11      HGA3     0.090000        1.0080           0
     70304 WT23     1233     MECN     H12      HGA3     0.090000        1.0080           0
     70305 WT23     1233     MECN     H13      HGA3     0.090000        1.0080           0
     70306 WT23     1233     MECN     C2       CG1N1    0.360000       12.0110           0
     70307 WT23     1233     MECN     N3       NG1T1   -0.460000       14.0070           0
     70308 WT23     1235     MECN     C1       CG331   -0.170000       12.0110           0
     70309 WT23     1235     MECN     H11      HGA3     0.090000        1.0080           0
     70310 WT23     1235     MECN     H12      HGA3     0.090000        1.0080           0
     70311 WT23     1235     MECN     H13      HGA3     0.090000        1.0080           0
     70312 WT23     1235     MECN     C2       CG1N1    0.360000       12.0110           0
     70313 WT23     1235     MECN     N3       NG1T1   -0.460000       14.0070           0
     70314 WT23     1236     MECN     C1       CG331   -0.170000       12.0110           0
     70315 WT23     1236     MECN     H11      HGA3     0.090000        1.0080           0
     70316 WT23     1236     MECN     H12      HGA3     0.090000        1.0080           0
     70317 WT23     1236     MECN     H13      HGA3     0.090000        1.0080           0
     70318 WT23     1236     MECN     C2       CG1N1    0.360000       12.0110           0
     70319 WT23     1236     MECN     N3       NG1T1   -0.460000       14.0070           0
     70320 WT23     1237     MECN     C1       CG331   -0.170000       12.0110           0
     70321 WT23     1237     MECN     H11      HGA3     0.090000        1.0080           0
     70322 WT23     1237     MECN     H12      HGA3     0.090000        1.0080           0
     70323 WT23     1237     MECN     H13      HGA3     0.090000        1.0080           0
     70324 WT23     1237     MECN     C2       CG1N1    0.360000       12.0110           0
     70325 WT23     1237     MECN     N3       NG1T1   -0.460000       14.0070           0
     70326 WT23     1239     MECN     C1       CG331   -0.170000       12.0110           0
     70327 WT23     1239     MECN     H11      HGA3     0.090000        1.0080           0
     70328 WT23     1239     MECN     H12      HGA3     0.090000        1.0080           0
     70329 WT23     1239     MECN     H13      HGA3     0.090000        1.0080           0
     70330 WT23     1239     MECN     C2       CG1N1    0.360000       12.0110           0
     70331 WT23     1239     MECN     N3       NG1T1   -0.460000       14.0070           0
     70332 WT23     1240     MECN     C1       CG331   -0.170000       12.0110           0
     70333 WT23     1240     MECN     H11      HGA3     0.090000        1.0080           0
     70334 WT23     1240     MECN     H12      HGA3     0.090000        1.0080           0
     70335 WT23     1240     MECN     H13      HGA3     0.090000        1.0080           0
     70336 WT23     1240     MECN     C2       CG1N1    0.360000       12.0110           0
     70337 WT23     1240     MECN     N3       NG1T1   -0.460000       14.0070           0
     70338 WT23     1241     MECN     C1       CG331   -0.170000       12.0110           0
     70339 WT23     1241     MECN     H11      HGA3     0.090000        1.0080           0
     70340 WT23     1241     MECN     H12      HGA3     0.090000        1.0080           0
     70341 WT23     1241     MECN     H13      HGA3     0.090000        1.0080           0
     70342 WT23     1241     MECN     C2       CG1N1    0.360000       12.0110           0
     70343 WT23     1241     MECN     N3       NG1T1   -0.460000       14.0070           0
     70344 WT23     1244     MECN     C1       CG331   -0.170000       12.0110           0
     70345 WT23     1244     MECN     H11      HGA3     0.090000        1.0080           0
     70346 WT23     1244     MECN     H12      HGA3     0.090000        1.0080           0
     70347 WT23     1244     MECN     H13      HGA3     0.090000        1.0080           0
     70348 WT23     1244     MECN     C2       CG1N1    0.360000       12.0110           0
     70349 WT23     1244     MECN     N3       NG1T1   -0.460000       14.0070           0
     70350 WT23     1247     MECN     C1       CG331   -0.170000       12.0110           0
     70351 WT23     1247     MECN     H11      HGA3     0.090000        1.0080           0
     70352 WT23     1247     MECN     H12      HGA3     0.090000        1.0080           0
     70353 WT23     1247     MECN     H13      HGA3     0.090000        1.0080           0
     70354 WT23     1247     MECN     C2       CG1N1    0.360000       12.0110           0
     70355 WT23     1247     MECN     N3       NG1T1   -0.460000       14.0070           0
     70356 WT23     1249     MECN     C1       CG331   -0.170000       12.0110           0
     70357 WT23     1249     MECN     H11      HGA3     0.090000        1.0080           0
     70358 WT23     1249     MECN     H12      HGA3     0.090000        1.0080           0
     70359 WT23     1249     MECN     H13      HGA3     0.090000        1.0080           0
     70360 WT23     1249     MECN     C2       CG1N1    0.360000       12.0110           0
     70361 WT23     1249     MECN     N3       NG1T1   -0.460000       14.0070           0
     70362 WT23     1250     MECN     C1       CG331   -0.170000       12.0110           0
     70363 WT23     1250     MECN     H11      HGA3     0.090000        1.0080           0
     70364 WT23     1250     MECN     H12      HGA3     0.090000        1.0080           0
     70365 WT23     1250     MECN     H13      HGA3     0.090000        1.0080           0
     70366 WT23     1250     MECN     C2       CG1N1    0.360000       12.0110           0
     70367 WT23     1250     MECN     N3       NG1T1   -0.460000       14.0070           0
     70368 WT23     1252     MECN     C1       CG331   -0.170000       12.0110           0
     70369 WT23     1252     MECN     H11      HGA3     0.090000        1.0080           0
     70370 WT23     1252     MECN     H12      HGA3     0.090000        1.0080           0
     70371 WT23     1252     MECN     H13      HGA3     0.090000        1.0080           0
     70372 WT23     1252     MECN     C2       CG1N1    0.360000       12.0110           0
     70373 WT23     1252     MECN     N3       NG1T1   -0.460000       14.0070           0
     70374 WT23     1253     MECN     C1       CG331   -0.170000       12.0110           0
     70375 WT23     1253     MECN     H11      HGA3     0.090000        1.0080           0
     70376 WT23     1253     MECN     H12      HGA3     0.090000        1.0080           0
     70377 WT23     1253     MECN     H13      HGA3     0.090000        1.0080           0
     70378 WT23     1253     MECN     C2       CG1N1    0.360000       12.0110           0
     70379 WT23     1253     MECN     N3       NG1T1   -0.460000       14.0070           0
     70380 WT23     1254     MECN     C1       CG331   -0.170000       12.0110           0
     70381 WT23     1254     MECN     H11      HGA3     0.090000        1.0080           0
     70382 WT23     1254     MECN     H12      HGA3     0.090000        1.0080           0
     70383 WT23     1254     MECN     H13      HGA3     0.090000        1.0080           0
     70384 WT23     1254     MECN     C2       CG1N1    0.360000       12.0110           0
     70385 WT23     1254     MECN     N3       NG1T1   -0.460000       14.0070           0
     70386 WT23     1255     MECN     C1       CG331   -0.170000       12.0110           0
     70387 WT23     1255     MECN     H11      HGA3     0.090000        1.0080           0
     70388 WT23     1255     MECN     H12      HGA3     0.090000        1.0080           0
     70389 WT23     1255     MECN     H13      HGA3     0.090000        1.0080           0
     70390 WT23     1255     MECN     C2       CG1N1    0.360000       12.0110           0
     70391 WT23     1255     MECN     N3       NG1T1   -0.460000       14.0070           0
     70392 WT23     1256     MECN     C1       CG331   -0.170000       12.0110           0
     70393 WT23     1256     MECN     H11      HGA3     0.090000        1.0080           0
     70394 WT23     1256     MECN     H12      HGA3     0.090000        1.0080           0
     70395 WT23     1256     MECN     H13      HGA3     0.090000        1.0080           0
     70396 WT23     1256     MECN     C2       CG1N1    0.360000       12.0110           0
     70397 WT23     1256     MECN     N3       NG1T1   -0.460000       14.0070           0
     70398 WT23     1257     MECN     C1       CG331   -0.170000       12.0110           0
     70399 WT23     1257     MECN     H11      HGA3     0.090000        1.0080           0
     70400 WT23     1257     MECN     H12      HGA3     0.090000        1.0080           0
     70401 WT23     1257     MECN     H13      HGA3     0.090000        1.0080           0
     70402 WT23     1257     MECN     C2       CG1N1    0.360000       12.0110           0
     70403 WT23     1257     MECN     N3       NG1T1   -0.460000       14.0070           0
     70404 WT23     1259     MECN     C1       CG331   -0.170000       12.0110           0
     70405 WT23     1259     MECN     H11      HGA3     0.090000        1.0080           0
     70406 WT23     1259     MECN     H12      HGA3     0.090000        1.0080           0
     70407 WT23     1259     MECN     H13      HGA3     0.090000        1.0080           0
     70408 WT23     1259     MECN     C2       CG1N1    0.360000       12.0110           0
     70409 WT23     1259     MECN     N3       NG1T1   -0.460000       14.0070           0
     70410 WT23     1260     MECN     C1       CG331   -0.170000       12.0110           0
     70411 WT23     1260     MECN     H11      HGA3     0.090000        1.0080           0
     70412 WT23     1260     MECN     H12      HGA3     0.090000        1.0080           0
     70413 WT23     1260     MECN     H13      HGA3     0.090000        1.0080           0
     70414 WT23     1260     MECN     C2       CG1N1    0.360000       12.0110           0
     70415 WT23     1260     MECN     N3       NG1T1   -0.460000       14.0070           0
     70416 WT23     1261     MECN     C1       CG331   -0.170000       12.0110           0
     70417 WT23     1261     MECN     H11      HGA3     0.090000        1.0080           0
     70418 WT23     1261     MECN     H12      HGA3     0.090000        1.0080           0
     70419 WT23     1261     MECN     H13      HGA3     0.090000        1.0080           0
     70420 WT23     1261     MECN     C2       CG1N1    0.360000       12.0110           0
     70421 WT23     1261     MECN     N3       NG1T1   -0.460000       14.0070           0
     70422 WT23     1262     MECN     C1       CG331   -0.170000       12.0110           0
     70423 WT23     1262     MECN     H11      HGA3     0.090000        1.0080           0
     70424 WT23     1262     MECN     H12      HGA3     0.090000        1.0080           0
     70425 WT23     1262     MECN     H13      HGA3     0.090000        1.0080           0
     70426 WT23     1262     MECN     C2       CG1N1    0.360000       12.0110           0
     70427 WT23     1262     MECN     N3       NG1T1   -0.460000       14.0070           0
     70428 WT23     1263     MECN     C1       CG331   -0.170000       12.0110           0
     70429 WT23     1263     MECN     H11      HGA3     0.090000        1.0080           0
     70430 WT23     1263     MECN     H12      HGA3     0.090000        1.0080           0
     70431 WT23     1263     MECN     H13      HGA3     0.090000        1.0080           0
     70432 WT23     1263     MECN     C2       CG1N1    0.360000       12.0110           0
     70433 WT23     1263     MECN     N3       NG1T1   -0.460000       14.0070           0
     70434 WT23     1266     MECN     C1       CG331   -0.170000       12.0110           0
     70435 WT23     1266     MECN     H11      HGA3     0.090000        1.0080           0
     70436 WT23     1266     MECN     H12      HGA3     0.090000        1.0080           0
     70437 WT23     1266     MECN     H13      HGA3     0.090000        1.0080           0
     70438 WT23     1266     MECN     C2       CG1N1    0.360000       12.0110           0
     70439 WT23     1266     MECN     N3       NG1T1   -0.460000       14.0070           0
     70440 WT23     1268     MECN     C1       CG331   -0.170000       12.0110           0
     70441 WT23     1268     MECN     H11      HGA3     0.090000        1.0080           0
     70442 WT23     1268     MECN     H12      HGA3     0.090000        1.0080           0
     70443 WT23     1268     MECN     H13      HGA3     0.090000        1.0080           0
     70444 WT23     1268     MECN     C2       CG1N1    0.360000       12.0110           0
     70445 WT23     1268     MECN     N3       NG1T1   -0.460000       14.0070           0
     70446 WT23     1270     MECN     C1       CG331   -0.170000       12.0110           0
     70447 WT23     1270     MECN     H11      HGA3     0.090000        1.0080           0
     70448 WT23     1270     MECN     H12      HGA3     0.090000        1.0080           0
     70449 WT23     1270     MECN     H13      HGA3     0.090000        1.0080           0
     70450 WT23     1270     MECN     C2       CG1N1    0.360000       12.0110           0
     70451 WT23     1270     MECN     N3       NG1T1   -0.460000       14.0070           0
     70452 WT23     1271     MECN     C1       CG331   -0.170000       12.0110           0
     70453 WT23     1271     MECN     H11      HGA3     0.090000        1.0080           0
     70454 WT23     1271     MECN     H12      HGA3     0.090000        1.0080           0
     70455 WT23     1271     MECN     H13      HGA3     0.090000        1.0080           0
     70456 WT23     1271     MECN     C2       CG1N1    0.360000       12.0110           0
     70457 WT23     1271     MECN     N3       NG1T1   -0.460000       14.0070           0
     70458 WT23     1272     MECN     C1       CG331   -0.170000       12.0110           0
     70459 WT23     1272     MECN     H11      HGA3     0.090000        1.0080           0
     70460 WT23     1272     MECN     H12      HGA3     0.090000        1.0080           0
     70461 WT23     1272     MECN     H13      HGA3     0.090000        1.0080           0
     70462 WT23     1272     MECN     C2       CG1N1    0.360000       12.0110           0
     70463 WT23     1272     MECN     N3       NG1T1   -0.460000       14.0070           0
     70464 WT23     1273     MECN     C1       CG331   -0.170000       12.0110           0
     70465 WT23     1273     MECN     H11      HGA3     0.090000        1.0080           0
     70466 WT23     1273     MECN     H12      HGA3     0.090000        1.0080           0
     70467 WT23     1273     MECN     H13      HGA3     0.090000        1.0080           0
     70468 WT23     1273     MECN     C2       CG1N1    0.360000       12.0110           0
     70469 WT23     1273     MECN     N3       NG1T1   -0.460000       14.0070           0
     70470 WT23     1274     MECN     C1       CG331   -0.170000       12.0110           0
     70471 WT23     1274     MECN     H11      HGA3     0.090000        1.0080           0
     70472 WT23     1274     MECN     H12      HGA3     0.090000        1.0080           0
     70473 WT23     1274     MECN     H13      HGA3     0.090000        1.0080           0
     70474 WT23     1274     MECN     C2       CG1N1    0.360000       12.0110           0
     70475 WT23     1274     MECN     N3       NG1T1   -0.460000       14.0070           0
     70476 WT23     1276     MECN     C1       CG331   -0.170000       12.0110           0
     70477 WT23     1276     MECN     H11      HGA3     0.090000        1.0080           0
     70478 WT23     1276     MECN     H12      HGA3     0.090000        1.0080           0
     70479 WT23     1276     MECN     H13      HGA3     0.090000        1.0080           0
     70480 WT23     1276     MECN     C2       CG1N1    0.360000       12.0110           0
     70481 WT23     1276     MECN     N3       NG1T1   -0.460000       14.0070           0
     70482 WT23     1277     MECN     C1       CG331   -0.170000       12.0110           0
     70483 WT23     1277     MECN     H11      HGA3     0.090000        1.0080           0
     70484 WT23     1277     MECN     H12      HGA3     0.090000        1.0080           0
     70485 WT23     1277     MECN     H13      HGA3     0.090000        1.0080           0
     70486 WT23     1277     MECN     C2       CG1N1    0.360000       12.0110           0
     70487 WT23     1277     MECN     N3       NG1T1   -0.460000       14.0070           0
     70488 WT23     1278     MECN     C1       CG331   -0.170000       12.0110           0
     70489 WT23     1278     MECN     H11      HGA3     0.090000        1.0080           0
     70490 WT23     1278     MECN     H12      HGA3     0.090000        1.0080           0
     70491 WT23     1278     MECN     H13      HGA3     0.090000        1.0080           0
     70492 WT23     1278     MECN     C2       CG1N1    0.360000       12.0110           0
     70493 WT23     1278     MECN     N3       NG1T1   -0.460000       14.0070           0
     70494 WT23     1280     MECN     C1       CG331   -0.170000       12.0110           0
     70495 WT23     1280     MECN     H11      HGA3     0.090000        1.0080           0
     70496 WT23     1280     MECN     H12      HGA3     0.090000        1.0080           0
     70497 WT23     1280     MECN     H13      HGA3     0.090000        1.0080           0
     70498 WT23     1280     MECN     C2       CG1N1    0.360000       12.0110           0
     70499 WT23     1280     MECN     N3       NG1T1   -0.460000       14.0070           0
     70500 WT23     1283     MECN     C1       CG331   -0.170000       12.0110           0
     70501 WT23     1283     MECN     H11      HGA3     0.090000        1.0080           0
     70502 WT23     1283     MECN     H12      HGA3     0.090000        1.0080           0
     70503 WT23     1283     MECN     H13      HGA3     0.090000        1.0080           0
     70504 WT23     1283     MECN     C2       CG1N1    0.360000       12.0110           0
     70505 WT23     1283     MECN     N3       NG1T1   -0.460000       14.0070           0
     70506 WT23     1285     MECN     C1       CG331   -0.170000       12.0110           0
     70507 WT23     1285     MECN     H11      HGA3     0.090000        1.0080           0
     70508 WT23     1285     MECN     H12      HGA3     0.090000        1.0080           0
     70509 WT23     1285     MECN     H13      HGA3     0.090000        1.0080           0
     70510 WT23     1285     MECN     C2       CG1N1    0.360000       12.0110           0
     70511 WT23     1285     MECN     N3       NG1T1   -0.460000       14.0070           0
     70512 WT23     1286     MECN     C1       CG331   -0.170000       12.0110           0
     70513 WT23     1286     MECN     H11      HGA3     0.090000        1.0080           0
     70514 WT23     1286     MECN     H12      HGA3     0.090000        1.0080           0
     70515 WT23     1286     MECN     H13      HGA3     0.090000        1.0080           0
     70516 WT23     1286     MECN     C2       CG1N1    0.360000       12.0110           0
     70517 WT23     1286     MECN     N3       NG1T1   -0.460000       14.0070           0
     70518 WT23     1287     MECN     C1       CG331   -0.170000       12.0110           0
     70519 WT23     1287     MECN     H11      HGA3     0.090000        1.0080           0
     70520 WT23     1287     MECN     H12      HGA3     0.090000        1.0080           0
     70521 WT23     1287     MECN     H13      HGA3     0.090000        1.0080           0
     70522 WT23     1287     MECN     C2       CG1N1    0.360000       12.0110           0
     70523 WT23     1287     MECN     N3       NG1T1   -0.460000       14.0070           0
     70524 WT23     1289     MECN     C1       CG331   -0.170000       12.0110           0
     70525 WT23     1289     MECN     H11      HGA3     0.090000        1.0080           0
     70526 WT23     1289     MECN     H12      HGA3     0.090000        1.0080           0
     70527 WT23     1289     MECN     H13      HGA3     0.090000        1.0080           0
     70528 WT23     1289     MECN     C2       CG1N1    0.360000       12.0110           0
     70529 WT23     1289     MECN     N3       NG1T1   -0.460000       14.0070           0
     70530 WT23     1290     MECN     C1       CG331   -0.170000       12.0110           0
     70531 WT23     1290     MECN     H11      HGA3     0.090000        1.0080           0
     70532 WT23     1290     MECN     H12      HGA3     0.090000        1.0080           0
     70533 WT23     1290     MECN     H13      HGA3     0.090000        1.0080           0
     70534 WT23     1290     MECN     C2       CG1N1    0.360000       12.0110           0
     70535 WT23     1290     MECN     N3       NG1T1   -0.460000       14.0070           0
     70536 WT23     1292     MECN     C1       CG331   -0.170000       12.0110           0
     70537 WT23     1292     MECN     H11      HGA3     0.090000        1.0080           0
     70538 WT23     1292     MECN     H12      HGA3     0.090000        1.0080           0
     70539 WT23     1292     MECN     H13      HGA3     0.090000        1.0080           0
     70540 WT23     1292     MECN     C2       CG1N1    0.360000       12.0110           0
     70541 WT23     1292     MECN     N3       NG1T1   -0.460000       14.0070           0
     70542 WT23     1293     MECN     C1       CG331   -0.170000       12.0110           0
     70543 WT23     1293     MECN     H11      HGA3     0.090000        1.0080           0
     70544 WT23     1293     MECN     H12      HGA3     0.090000        1.0080           0
     70545 WT23     1293     MECN     H13      HGA3     0.090000        1.0080           0
     70546 WT23     1293     MECN     C2       CG1N1    0.360000       12.0110           0
     70547 WT23     1293     MECN     N3       NG1T1   -0.460000       14.0070           0
     70548 WT23     1295     MECN     C1       CG331   -0.170000       12.0110           0
     70549 WT23     1295     MECN     H11      HGA3     0.090000        1.0080           0
     70550 WT23     1295     MECN     H12      HGA3     0.090000        1.0080           0
     70551 WT23     1295     MECN     H13      HGA3     0.090000        1.0080           0
     70552 WT23     1295     MECN     C2       CG1N1    0.360000       12.0110           0
     70553 WT23     1295     MECN     N3       NG1T1   -0.460000       14.0070           0
     70554 WT23     1297     MECN     C1       CG331   -0.170000       12.0110           0
     70555 WT23     1297     MECN     H11      HGA3     0.090000        1.0080           0
     70556 WT23     1297     MECN     H12      HGA3     0.090000        1.0080           0
     70557 WT23     1297     MECN     H13      HGA3     0.090000        1.0080           0
     70558 WT23     1297     MECN     C2       CG1N1    0.360000       12.0110           0
     70559 WT23     1297     MECN     N3       NG1T1   -0.460000       14.0070           0
     70560 WT23     1298     MECN     C1       CG331   -0.170000       12.0110           0
     70561 WT23     1298     MECN     H11      HGA3     0.090000        1.0080           0
     70562 WT23     1298     MECN     H12      HGA3     0.090000        1.0080           0
     70563 WT23     1298     MECN     H13      HGA3     0.090000        1.0080           0
     70564 WT23     1298     MECN     C2       CG1N1    0.360000       12.0110           0
     70565 WT23     1298     MECN     N3       NG1T1   -0.460000       14.0070           0
     70566 WT23     1299     MECN     C1       CG331   -0.170000       12.0110           0
     70567 WT23     1299     MECN     H11      HGA3     0.090000        1.0080           0
     70568 WT23     1299     MECN     H12      HGA3     0.090000        1.0080           0
     70569 WT23     1299     MECN     H13      HGA3     0.090000        1.0080           0
     70570 WT23     1299     MECN     C2       CG1N1    0.360000       12.0110           0
     70571 WT23     1299     MECN     N3       NG1T1   -0.460000       14.0070           0
     70572 WT23     1300     MECN     C1       CG331   -0.170000       12.0110           0
     70573 WT23     1300     MECN     H11      HGA3     0.090000        1.0080           0
     70574 WT23     1300     MECN     H12      HGA3     0.090000        1.0080           0
     70575 WT23     1300     MECN     H13      HGA3     0.090000        1.0080           0
     70576 WT23     1300     MECN     C2       CG1N1    0.360000       12.0110           0
     70577 WT23     1300     MECN     N3       NG1T1   -0.460000       14.0070           0
     70578 WT23     1301     MECN     C1       CG331   -0.170000       12.0110           0
     70579 WT23     1301     MECN     H11      HGA3     0.090000        1.0080           0
     70580 WT23     1301     MECN     H12      HGA3     0.090000        1.0080           0
     70581 WT23     1301     MECN     H13      HGA3     0.090000        1.0080           0
     70582 WT23     1301     MECN     C2       CG1N1    0.360000       12.0110           0
     70583 WT23     1301     MECN     N3       NG1T1   -0.460000       14.0070           0
     70584 WT23     1302     MECN     C1       CG331   -0.170000       12.0110           0
     70585 WT23     1302     MECN     H11      HGA3     0.090000        1.0080           0
     70586 WT23     1302     MECN     H12      HGA3     0.090000        1.0080           0
     70587 WT23     1302     MECN     H13      HGA3     0.090000        1.0080           0
     70588 WT23     1302     MECN     C2       CG1N1    0.360000       12.0110           0
     70589 WT23     1302     MECN     N3       NG1T1   -0.460000       14.0070           0
     70590 WT23     1305     MECN     C1       CG331   -0.170000       12.0110           0
     70591 WT23     1305     MECN     H11      HGA3     0.090000        1.0080           0
     70592 WT23     1305     MECN     H12      HGA3     0.090000        1.0080           0
     70593 WT23     1305     MECN     H13      HGA3     0.090000        1.0080           0
     70594 WT23     1305     MECN     C2       CG1N1    0.360000       12.0110           0
     70595 WT23     1305     MECN     N3       NG1T1   -0.460000       14.0070           0
     70596 WT23     1308     MECN     C1       CG331   -0.170000       12.0110           0
     70597 WT23     1308     MECN     H11      HGA3     0.090000        1.0080           0
     70598 WT23     1308     MECN     H12      HGA3     0.090000        1.0080           0
     70599 WT23     1308     MECN     H13      HGA3     0.090000        1.0080           0
     70600 WT23     1308     MECN     C2       CG1N1    0.360000       12.0110           0
     70601 WT23     1308     MECN     N3       NG1T1   -0.460000       14.0070           0
     70602 WT23     1309     MECN     C1       CG331   -0.170000       12.0110           0
     70603 WT23     1309     MECN     H11      HGA3     0.090000        1.0080           0
     70604 WT23     1309     MECN     H12      HGA3     0.090000        1.0080           0
     70605 WT23     1309     MECN     H13      HGA3     0.090000        1.0080           0
     70606 WT23     1309     MECN     C2       CG1N1    0.360000       12.0110           0
     70607 WT23     1309     MECN     N3       NG1T1   -0.460000       14.0070           0
     70608 WT23     1310     MECN     C1       CG331   -0.170000       12.0110           0
     70609 WT23     1310     MECN     H11      HGA3     0.090000        1.0080           0
     70610 WT23     1310     MECN     H12      HGA3     0.090000        1.0080           0
     70611 WT23     1310     MECN     H13      HGA3     0.090000        1.0080           0
     70612 WT23     1310     MECN     C2       CG1N1    0.360000       12.0110           0
     70613 WT23     1310     MECN     N3       NG1T1   -0.460000       14.0070           0
     70614 WT23     1311     MECN     C1       CG331   -0.170000       12.0110           0
     70615 WT23     1311     MECN     H11      HGA3     0.090000        1.0080           0
     70616 WT23     1311     MECN     H12      HGA3     0.090000        1.0080           0
     70617 WT23     1311     MECN     H13      HGA3     0.090000        1.0080           0
     70618 WT23     1311     MECN     C2       CG1N1    0.360000       12.0110           0
     70619 WT23     1311     MECN     N3       NG1T1   -0.460000       14.0070           0
     70620 WT23     1312     MECN     C1       CG331   -0.170000       12.0110           0
     70621 WT23     1312     MECN     H11      HGA3     0.090000        1.0080           0
     70622 WT23     1312     MECN     H12      HGA3     0.090000        1.0080           0
     70623 WT23     1312     MECN     H13      HGA3     0.090000        1.0080           0
     70624 WT23     1312     MECN     C2       CG1N1    0.360000       12.0110           0
     70625 WT23     1312     MECN     N3       NG1T1   -0.460000       14.0070           0
     70626 WT23     1313     MECN     C1       CG331   -0.170000       12.0110           0
     70627 WT23     1313     MECN     H11      HGA3     0.090000        1.0080           0
     70628 WT23     1313     MECN     H12      HGA3     0.090000        1.0080           0
     70629 WT23     1313     MECN     H13      HGA3     0.090000        1.0080           0
     70630 WT23     1313     MECN     C2       CG1N1    0.360000       12.0110           0
     70631 WT23     1313     MECN     N3       NG1T1   -0.460000       14.0070           0
     70632 WT23     1314     MECN     C1       CG331   -0.170000       12.0110           0
     70633 WT23     1314     MECN     H11      HGA3     0.090000        1.0080           0
     70634 WT23     1314     MECN     H12      HGA3     0.090000        1.0080           0
     70635 WT23     1314     MECN     H13      HGA3     0.090000        1.0080           0
     70636 WT23     1314     MECN     C2       CG1N1    0.360000       12.0110           0
     70637 WT23     1314     MECN     N3       NG1T1   -0.460000       14.0070           0
     70638 WT23     1315     MECN     C1       CG331   -0.170000       12.0110           0
     70639 WT23     1315     MECN     H11      HGA3     0.090000        1.0080           0
     70640 WT23     1315     MECN     H12      HGA3     0.090000        1.0080           0
     70641 WT23     1315     MECN     H13      HGA3     0.090000        1.0080           0
     70642 WT23     1315     MECN     C2       CG1N1    0.360000       12.0110           0
     70643 WT23     1315     MECN     N3       NG1T1   -0.460000       14.0070           0
     70644 WT23     1316     MECN     C1       CG331   -0.170000       12.0110           0
     70645 WT23     1316     MECN     H11      HGA3     0.090000        1.0080           0
     70646 WT23     1316     MECN     H12      HGA3     0.090000        1.0080           0
     70647 WT23     1316     MECN     H13      HGA3     0.090000        1.0080           0
     70648 WT23     1316     MECN     C2       CG1N1    0.360000       12.0110           0
     70649 WT23     1316     MECN     N3       NG1T1   -0.460000       14.0070           0
     70650 WT23     1318     MECN     C1       CG331   -0.170000       12.0110           0
     70651 WT23     1318     MECN     H11      HGA3     0.090000        1.0080           0
     70652 WT23     1318     MECN     H12      HGA3     0.090000        1.0080           0
     70653 WT23     1318     MECN     H13      HGA3     0.090000        1.0080           0
     70654 WT23     1318     MECN     C2       CG1N1    0.360000       12.0110           0
     70655 WT23     1318     MECN     N3       NG1T1   -0.460000       14.0070           0
     70656 WT23     1319     MECN     C1       CG331   -0.170000       12.0110           0
     70657 WT23     1319     MECN     H11      HGA3     0.090000        1.0080           0
     70658 WT23     1319     MECN     H12      HGA3     0.090000        1.0080           0
     70659 WT23     1319     MECN     H13      HGA3     0.090000        1.0080           0
     70660 WT23     1319     MECN     C2       CG1N1    0.360000       12.0110           0
     70661 WT23     1319     MECN     N3       NG1T1   -0.460000       14.0070           0
     70662 WT23     1320     MECN     C1       CG331   -0.170000       12.0110           0
     70663 WT23     1320     MECN     H11      HGA3     0.090000        1.0080           0
     70664 WT23     1320     MECN     H12      HGA3     0.090000        1.0080           0
     70665 WT23     1320     MECN     H13      HGA3     0.090000        1.0080           0
     70666 WT23     1320     MECN     C2       CG1N1    0.360000       12.0110           0
     70667 WT23     1320     MECN     N3       NG1T1   -0.460000       14.0070           0
     70668 WT23     1324     MECN     C1       CG331   -0.170000       12.0110           0
     70669 WT23     1324     MECN     H11      HGA3     0.090000        1.0080           0
     70670 WT23     1324     MECN     H12      HGA3     0.090000        1.0080           0
     70671 WT23     1324     MECN     H13      HGA3     0.090000        1.0080           0
     70672 WT23     1324     MECN     C2       CG1N1    0.360000       12.0110           0
     70673 WT23     1324     MECN     N3       NG1T1   -0.460000       14.0070           0
     70674 WT23     1325     MECN     C1       CG331   -0.170000       12.0110           0
     70675 WT23     1325     MECN     H11      HGA3     0.090000        1.0080           0
     70676 WT23     1325     MECN     H12      HGA3     0.090000        1.0080           0
     70677 WT23     1325     MECN     H13      HGA3     0.090000        1.0080           0
     70678 WT23     1325     MECN     C2       CG1N1    0.360000       12.0110           0
     70679 WT23     1325     MECN     N3       NG1T1   -0.460000       14.0070           0
     70680 WT23     1327     MECN     C1       CG331   -0.170000       12.0110           0
     70681 WT23     1327     MECN     H11      HGA3     0.090000        1.0080           0
     70682 WT23     1327     MECN     H12      HGA3     0.090000        1.0080           0
     70683 WT23     1327     MECN     H13      HGA3     0.090000        1.0080           0
     70684 WT23     1327     MECN     C2       CG1N1    0.360000       12.0110           0
     70685 WT23     1327     MECN     N3       NG1T1   -0.460000       14.0070           0
     70686 WT23     1330     MECN     C1       CG331   -0.170000       12.0110           0
     70687 WT23     1330     MECN     H11      HGA3     0.090000        1.0080           0
     70688 WT23     1330     MECN     H12      HGA3     0.090000        1.0080           0
     70689 WT23     1330     MECN     H13      HGA3     0.090000        1.0080           0
     70690 WT23     1330     MECN     C2       CG1N1    0.360000       12.0110           0
     70691 WT23     1330     MECN     N3       NG1T1   -0.460000       14.0070           0
     70692 WT23     1331     MECN     C1       CG331   -0.170000       12.0110           0
     70693 WT23     1331     MECN     H11      HGA3     0.090000        1.0080           0
     70694 WT23     1331     MECN     H12      HGA3     0.090000        1.0080           0
     70695 WT23     1331     MECN     H13      HGA3     0.090000        1.0080           0
     70696 WT23     1331     MECN     C2       CG1N1    0.360000       12.0110           0
     70697 WT23     1331     MECN     N3       NG1T1   -0.460000       14.0070           0
     70698 WT24     2        MECN     C1       CG331   -0.170000       12.0110           0
     70699 WT24     2        MECN     H11      HGA3     0.090000        1.0080           0
     70700 WT24     2        MECN     H12      HGA3     0.090000        1.0080           0
     70701 WT24     2        MECN     H13      HGA3     0.090000        1.0080           0
     70702 WT24     2        MECN     C2       CG1N1    0.360000       12.0110           0
     70703 WT24     2        MECN     N3       NG1T1   -0.460000       14.0070           0
     70704 WT24     5        MECN     C1       CG331   -0.170000       12.0110           0
     70705 WT24     5        MECN     H11      HGA3     0.090000        1.0080           0
     70706 WT24     5        MECN     H12      HGA3     0.090000        1.0080           0
     70707 WT24     5        MECN     H13      HGA3     0.090000        1.0080           0
     70708 WT24     5        MECN     C2       CG1N1    0.360000       12.0110           0
     70709 WT24     5        MECN     N3       NG1T1   -0.460000       14.0070           0
     70710 WT24     6        MECN     C1       CG331   -0.170000       12.0110           0
     70711 WT24     6        MECN     H11      HGA3     0.090000        1.0080           0
     70712 WT24     6        MECN     H12      HGA3     0.090000        1.0080           0
     70713 WT24     6        MECN     H13      HGA3     0.090000        1.0080           0
     70714 WT24     6        MECN     C2       CG1N1    0.360000       12.0110           0
     70715 WT24     6        MECN     N3       NG1T1   -0.460000       14.0070           0
     70716 WT24     8        MECN     C1       CG331   -0.170000       12.0110           0
     70717 WT24     8        MECN     H11      HGA3     0.090000        1.0080           0
     70718 WT24     8        MECN     H12      HGA3     0.090000        1.0080           0
     70719 WT24     8        MECN     H13      HGA3     0.090000        1.0080           0
     70720 WT24     8        MECN     C2       CG1N1    0.360000       12.0110           0
     70721 WT24     8        MECN     N3       NG1T1   -0.460000       14.0070           0
     70722 WT24     10       MECN     C1       CG331   -0.170000       12.0110           0
     70723 WT24     10       MECN     H11      HGA3     0.090000        1.0080           0
     70724 WT24     10       MECN     H12      HGA3     0.090000        1.0080           0
     70725 WT24     10       MECN     H13      HGA3     0.090000        1.0080           0
     70726 WT24     10       MECN     C2       CG1N1    0.360000       12.0110           0
     70727 WT24     10       MECN     N3       NG1T1   -0.460000       14.0070           0
     70728 WT24     11       MECN     C1       CG331   -0.170000       12.0110           0
     70729 WT24     11       MECN     H11      HGA3     0.090000        1.0080           0
     70730 WT24     11       MECN     H12      HGA3     0.090000        1.0080           0
     70731 WT24     11       MECN     H13      HGA3     0.090000        1.0080           0
     70732 WT24     11       MECN     C2       CG1N1    0.360000       12.0110           0
     70733 WT24     11       MECN     N3       NG1T1   -0.460000       14.0070           0
     70734 WT24     13       MECN     C1       CG331   -0.170000       12.0110           0
     70735 WT24     13       MECN     H11      HGA3     0.090000        1.0080           0
     70736 WT24     13       MECN     H12      HGA3     0.090000        1.0080           0
     70737 WT24     13       MECN     H13      HGA3     0.090000        1.0080           0
     70738 WT24     13       MECN     C2       CG1N1    0.360000       12.0110           0
     70739 WT24     13       MECN     N3       NG1T1   -0.460000       14.0070           0
     70740 WT24     15       MECN     C1       CG331   -0.170000       12.0110           0
     70741 WT24     15       MECN     H11      HGA3     0.090000        1.0080           0
     70742 WT24     15       MECN     H12      HGA3     0.090000        1.0080           0
     70743 WT24     15       MECN     H13      HGA3     0.090000        1.0080           0
     70744 WT24     15       MECN     C2       CG1N1    0.360000       12.0110           0
     70745 WT24     15       MECN     N3       NG1T1   -0.460000       14.0070           0
     70746 WT24     17       MECN     C1       CG331   -0.170000       12.0110           0
     70747 WT24     17       MECN     H11      HGA3     0.090000        1.0080           0
     70748 WT24     17       MECN     H12      HGA3     0.090000        1.0080           0
     70749 WT24     17       MECN     H13      HGA3     0.090000        1.0080           0
     70750 WT24     17       MECN     C2       CG1N1    0.360000       12.0110           0
     70751 WT24     17       MECN     N3       NG1T1   -0.460000       14.0070           0
     70752 WT24     18       MECN     C1       CG331   -0.170000       12.0110           0
     70753 WT24     18       MECN     H11      HGA3     0.090000        1.0080           0
     70754 WT24     18       MECN     H12      HGA3     0.090000        1.0080           0
     70755 WT24     18       MECN     H13      HGA3     0.090000        1.0080           0
     70756 WT24     18       MECN     C2       CG1N1    0.360000       12.0110           0
     70757 WT24     18       MECN     N3       NG1T1   -0.460000       14.0070           0
     70758 WT24     19       MECN     C1       CG331   -0.170000       12.0110           0
     70759 WT24     19       MECN     H11      HGA3     0.090000        1.0080           0
     70760 WT24     19       MECN     H12      HGA3     0.090000        1.0080           0
     70761 WT24     19       MECN     H13      HGA3     0.090000        1.0080           0
     70762 WT24     19       MECN     C2       CG1N1    0.360000       12.0110           0
     70763 WT24     19       MECN     N3       NG1T1   -0.460000       14.0070           0
     70764 WT24     20       MECN     C1       CG331   -0.170000       12.0110           0
     70765 WT24     20       MECN     H11      HGA3     0.090000        1.0080           0
     70766 WT24     20       MECN     H12      HGA3     0.090000        1.0080           0
     70767 WT24     20       MECN     H13      HGA3     0.090000        1.0080           0
     70768 WT24     20       MECN     C2       CG1N1    0.360000       12.0110           0
     70769 WT24     20       MECN     N3       NG1T1   -0.460000       14.0070           0
     70770 WT24     21       MECN     C1       CG331   -0.170000       12.0110           0
     70771 WT24     21       MECN     H11      HGA3     0.090000        1.0080           0
     70772 WT24     21       MECN     H12      HGA3     0.090000        1.0080           0
     70773 WT24     21       MECN     H13      HGA3     0.090000        1.0080           0
     70774 WT24     21       MECN     C2       CG1N1    0.360000       12.0110           0
     70775 WT24     21       MECN     N3       NG1T1   -0.460000       14.0070           0
     70776 WT24     24       MECN     C1       CG331   -0.170000       12.0110           0
     70777 WT24     24       MECN     H11      HGA3     0.090000        1.0080           0
     70778 WT24     24       MECN     H12      HGA3     0.090000        1.0080           0
     70779 WT24     24       MECN     H13      HGA3     0.090000        1.0080           0
     70780 WT24     24       MECN     C2       CG1N1    0.360000       12.0110           0
     70781 WT24     24       MECN     N3       NG1T1   -0.460000       14.0070           0
     70782 WT24     25       MECN     C1       CG331   -0.170000       12.0110           0
     70783 WT24     25       MECN     H11      HGA3     0.090000        1.0080           0
     70784 WT24     25       MECN     H12      HGA3     0.090000        1.0080           0
     70785 WT24     25       MECN     H13      HGA3     0.090000        1.0080           0
     70786 WT24     25       MECN     C2       CG1N1    0.360000       12.0110           0
     70787 WT24     25       MECN     N3       NG1T1   -0.460000       14.0070           0
     70788 WT24     27       MECN     C1       CG331   -0.170000       12.0110           0
     70789 WT24     27       MECN     H11      HGA3     0.090000        1.0080           0
     70790 WT24     27       MECN     H12      HGA3     0.090000        1.0080           0
     70791 WT24     27       MECN     H13      HGA3     0.090000        1.0080           0
     70792 WT24     27       MECN     C2       CG1N1    0.360000       12.0110           0
     70793 WT24     27       MECN     N3       NG1T1   -0.460000       14.0070           0
     70794 WT24     28       MECN     C1       CG331   -0.170000       12.0110           0
     70795 WT24     28       MECN     H11      HGA3     0.090000        1.0080           0
     70796 WT24     28       MECN     H12      HGA3     0.090000        1.0080           0
     70797 WT24     28       MECN     H13      HGA3     0.090000        1.0080           0
     70798 WT24     28       MECN     C2       CG1N1    0.360000       12.0110           0
     70799 WT24     28       MECN     N3       NG1T1   -0.460000       14.0070           0
     70800 WT24     29       MECN     C1       CG331   -0.170000       12.0110           0
     70801 WT24     29       MECN     H11      HGA3     0.090000        1.0080           0
     70802 WT24     29       MECN     H12      HGA3     0.090000        1.0080           0
     70803 WT24     29       MECN     H13      HGA3     0.090000        1.0080           0
     70804 WT24     29       MECN     C2       CG1N1    0.360000       12.0110           0
     70805 WT24     29       MECN     N3       NG1T1   -0.460000       14.0070           0
     70806 WT24     30       MECN     C1       CG331   -0.170000       12.0110           0
     70807 WT24     30       MECN     H11      HGA3     0.090000        1.0080           0
     70808 WT24     30       MECN     H12      HGA3     0.090000        1.0080           0
     70809 WT24     30       MECN     H13      HGA3     0.090000        1.0080           0
     70810 WT24     30       MECN     C2       CG1N1    0.360000       12.0110           0
     70811 WT24     30       MECN     N3       NG1T1   -0.460000       14.0070           0
     70812 WT24     32       MECN     C1       CG331   -0.170000       12.0110           0
     70813 WT24     32       MECN     H11      HGA3     0.090000        1.0080           0
     70814 WT24     32       MECN     H12      HGA3     0.090000        1.0080           0
     70815 WT24     32       MECN     H13      HGA3     0.090000        1.0080           0
     70816 WT24     32       MECN     C2       CG1N1    0.360000       12.0110           0
     70817 WT24     32       MECN     N3       NG1T1   -0.460000       14.0070           0
     70818 WT24     35       MECN     C1       CG331   -0.170000       12.0110           0
     70819 WT24     35       MECN     H11      HGA3     0.090000        1.0080           0
     70820 WT24     35       MECN     H12      HGA3     0.090000        1.0080           0
     70821 WT24     35       MECN     H13      HGA3     0.090000        1.0080           0
     70822 WT24     35       MECN     C2       CG1N1    0.360000       12.0110           0
     70823 WT24     35       MECN     N3       NG1T1   -0.460000       14.0070           0
     70824 WT24     38       MECN     C1       CG331   -0.170000       12.0110           0
     70825 WT24     38       MECN     H11      HGA3     0.090000        1.0080           0
     70826 WT24     38       MECN     H12      HGA3     0.090000        1.0080           0
     70827 WT24     38       MECN     H13      HGA3     0.090000        1.0080           0
     70828 WT24     38       MECN     C2       CG1N1    0.360000       12.0110           0
     70829 WT24     38       MECN     N3       NG1T1   -0.460000       14.0070           0
     70830 WT24     39       MECN     C1       CG331   -0.170000       12.0110           0
     70831 WT24     39       MECN     H11      HGA3     0.090000        1.0080           0
     70832 WT24     39       MECN     H12      HGA3     0.090000        1.0080           0
     70833 WT24     39       MECN     H13      HGA3     0.090000        1.0080           0
     70834 WT24     39       MECN     C2       CG1N1    0.360000       12.0110           0
     70835 WT24     39       MECN     N3       NG1T1   -0.460000       14.0070           0
     70836 WT24     40       MECN     C1       CG331   -0.170000       12.0110           0
     70837 WT24     40       MECN     H11      HGA3     0.090000        1.0080           0
     70838 WT24     40       MECN     H12      HGA3     0.090000        1.0080           0
     70839 WT24     40       MECN     H13      HGA3     0.090000        1.0080           0
     70840 WT24     40       MECN     C2       CG1N1    0.360000       12.0110           0
     70841 WT24     40       MECN     N3       NG1T1   -0.460000       14.0070           0
     70842 WT24     41       MECN     C1       CG331   -0.170000       12.0110           0
     70843 WT24     41       MECN     H11      HGA3     0.090000        1.0080           0
     70844 WT24     41       MECN     H12      HGA3     0.090000        1.0080           0
     70845 WT24     41       MECN     H13      HGA3     0.090000        1.0080           0
     70846 WT24     41       MECN     C2       CG1N1    0.360000       12.0110           0
     70847 WT24     41       MECN     N3       NG1T1   -0.460000       14.0070           0
     70848 WT24     44       MECN     C1       CG331   -0.170000       12.0110           0
     70849 WT24     44       MECN     H11      HGA3     0.090000        1.0080           0
     70850 WT24     44       MECN     H12      HGA3     0.090000        1.0080           0
     70851 WT24     44       MECN     H13      HGA3     0.090000        1.0080           0
     70852 WT24     44       MECN     C2       CG1N1    0.360000       12.0110           0
     70853 WT24     44       MECN     N3       NG1T1   -0.460000       14.0070           0
     70854 WT24     45       MECN     C1       CG331   -0.170000       12.0110           0
     70855 WT24     45       MECN     H11      HGA3     0.090000        1.0080           0
     70856 WT24     45       MECN     H12      HGA3     0.090000        1.0080           0
     70857 WT24     45       MECN     H13      HGA3     0.090000        1.0080           0
     70858 WT24     45       MECN     C2       CG1N1    0.360000       12.0110           0
     70859 WT24     45       MECN     N3       NG1T1   -0.460000       14.0070           0
     70860 WT24     47       MECN     C1       CG331   -0.170000       12.0110           0
     70861 WT24     47       MECN     H11      HGA3     0.090000        1.0080           0
     70862 WT24     47       MECN     H12      HGA3     0.090000        1.0080           0
     70863 WT24     47       MECN     H13      HGA3     0.090000        1.0080           0
     70864 WT24     47       MECN     C2       CG1N1    0.360000       12.0110           0
     70865 WT24     47       MECN     N3       NG1T1   -0.460000       14.0070           0
     70866 WT24     48       MECN     C1       CG331   -0.170000       12.0110           0
     70867 WT24     48       MECN     H11      HGA3     0.090000        1.0080           0
     70868 WT24     48       MECN     H12      HGA3     0.090000        1.0080           0
     70869 WT24     48       MECN     H13      HGA3     0.090000        1.0080           0
     70870 WT24     48       MECN     C2       CG1N1    0.360000       12.0110           0
     70871 WT24     48       MECN     N3       NG1T1   -0.460000       14.0070           0
     70872 WT24     49       MECN     C1       CG331   -0.170000       12.0110           0
     70873 WT24     49       MECN     H11      HGA3     0.090000        1.0080           0
     70874 WT24     49       MECN     H12      HGA3     0.090000        1.0080           0
     70875 WT24     49       MECN     H13      HGA3     0.090000        1.0080           0
     70876 WT24     49       MECN     C2       CG1N1    0.360000       12.0110           0
     70877 WT24     49       MECN     N3       NG1T1   -0.460000       14.0070           0
     70878 WT24     55       MECN     C1       CG331   -0.170000       12.0110           0
     70879 WT24     55       MECN     H11      HGA3     0.090000        1.0080           0
     70880 WT24     55       MECN     H12      HGA3     0.090000        1.0080           0
     70881 WT24     55       MECN     H13      HGA3     0.090000        1.0080           0
     70882 WT24     55       MECN     C2       CG1N1    0.360000       12.0110           0
     70883 WT24     55       MECN     N3       NG1T1   -0.460000       14.0070           0
     70884 WT24     61       MECN     C1       CG331   -0.170000       12.0110           0
     70885 WT24     61       MECN     H11      HGA3     0.090000        1.0080           0
     70886 WT24     61       MECN     H12      HGA3     0.090000        1.0080           0
     70887 WT24     61       MECN     H13      HGA3     0.090000        1.0080           0
     70888 WT24     61       MECN     C2       CG1N1    0.360000       12.0110           0
     70889 WT24     61       MECN     N3       NG1T1   -0.460000       14.0070           0
     70890 WT24     62       MECN     C1       CG331   -0.170000       12.0110           0
     70891 WT24     62       MECN     H11      HGA3     0.090000        1.0080           0
     70892 WT24     62       MECN     H12      HGA3     0.090000        1.0080           0
     70893 WT24     62       MECN     H13      HGA3     0.090000        1.0080           0
     70894 WT24     62       MECN     C2       CG1N1    0.360000       12.0110           0
     70895 WT24     62       MECN     N3       NG1T1   -0.460000       14.0070           0
     70896 WT24     64       MECN     C1       CG331   -0.170000       12.0110           0
     70897 WT24     64       MECN     H11      HGA3     0.090000        1.0080           0
     70898 WT24     64       MECN     H12      HGA3     0.090000        1.0080           0
     70899 WT24     64       MECN     H13      HGA3     0.090000        1.0080           0
     70900 WT24     64       MECN     C2       CG1N1    0.360000       12.0110           0
     70901 WT24     64       MECN     N3       NG1T1   -0.460000       14.0070           0
     70902 WT24     65       MECN     C1       CG331   -0.170000       12.0110           0
     70903 WT24     65       MECN     H11      HGA3     0.090000        1.0080           0
     70904 WT24     65       MECN     H12      HGA3     0.090000        1.0080           0
     70905 WT24     65       MECN     H13      HGA3     0.090000        1.0080           0
     70906 WT24     65       MECN     C2       CG1N1    0.360000       12.0110           0
     70907 WT24     65       MECN     N3       NG1T1   -0.460000       14.0070           0
     70908 WT24     66       MECN     C1       CG331   -0.170000       12.0110           0
     70909 WT24     66       MECN     H11      HGA3     0.090000        1.0080           0
     70910 WT24     66       MECN     H12      HGA3     0.090000        1.0080           0
     70911 WT24     66       MECN     H13      HGA3     0.090000        1.0080           0
     70912 WT24     66       MECN     C2       CG1N1    0.360000       12.0110           0
     70913 WT24     66       MECN     N3       NG1T1   -0.460000       14.0070           0
     70914 WT24     67       MECN     C1       CG331   -0.170000       12.0110           0
     70915 WT24     67       MECN     H11      HGA3     0.090000        1.0080           0
     70916 WT24     67       MECN     H12      HGA3     0.090000        1.0080           0
     70917 WT24     67       MECN     H13      HGA3     0.090000        1.0080           0
     70918 WT24     67       MECN     C2       CG1N1    0.360000       12.0110           0
     70919 WT24     67       MECN     N3       NG1T1   -0.460000       14.0070           0
     70920 WT24     68       MECN     C1       CG331   -0.170000       12.0110           0
     70921 WT24     68       MECN     H11      HGA3     0.090000        1.0080           0
     70922 WT24     68       MECN     H12      HGA3     0.090000        1.0080           0
     70923 WT24     68       MECN     H13      HGA3     0.090000        1.0080           0
     70924 WT24     68       MECN     C2       CG1N1    0.360000       12.0110           0
     70925 WT24     68       MECN     N3       NG1T1   -0.460000       14.0070           0
     70926 WT24     70       MECN     C1       CG331   -0.170000       12.0110           0
     70927 WT24     70       MECN     H11      HGA3     0.090000        1.0080           0
     70928 WT24     70       MECN     H12      HGA3     0.090000        1.0080           0
     70929 WT24     70       MECN     H13      HGA3     0.090000        1.0080           0
     70930 WT24     70       MECN     C2       CG1N1    0.360000       12.0110           0
     70931 WT24     70       MECN     N3       NG1T1   -0.460000       14.0070           0
     70932 WT24     80       MECN     C1       CG331   -0.170000       12.0110           0
     70933 WT24     80       MECN     H11      HGA3     0.090000        1.0080           0
     70934 WT24     80       MECN     H12      HGA3     0.090000        1.0080           0
     70935 WT24     80       MECN     H13      HGA3     0.090000        1.0080           0
     70936 WT24     80       MECN     C2       CG1N1    0.360000       12.0110           0
     70937 WT24     80       MECN     N3       NG1T1   -0.460000       14.0070           0
     70938 WT24     82       MECN     C1       CG331   -0.170000       12.0110           0
     70939 WT24     82       MECN     H11      HGA3     0.090000        1.0080           0
     70940 WT24     82       MECN     H12      HGA3     0.090000        1.0080           0
     70941 WT24     82       MECN     H13      HGA3     0.090000        1.0080           0
     70942 WT24     82       MECN     C2       CG1N1    0.360000       12.0110           0
     70943 WT24     82       MECN     N3       NG1T1   -0.460000       14.0070           0
     70944 WT24     83       MECN     C1       CG331   -0.170000       12.0110           0
     70945 WT24     83       MECN     H11      HGA3     0.090000        1.0080           0
     70946 WT24     83       MECN     H12      HGA3     0.090000        1.0080           0
     70947 WT24     83       MECN     H13      HGA3     0.090000        1.0080           0
     70948 WT24     83       MECN     C2       CG1N1    0.360000       12.0110           0
     70949 WT24     83       MECN     N3       NG1T1   -0.460000       14.0070           0
     70950 WT24     88       MECN     C1       CG331   -0.170000       12.0110           0
     70951 WT24     88       MECN     H11      HGA3     0.090000        1.0080           0
     70952 WT24     88       MECN     H12      HGA3     0.090000        1.0080           0
     70953 WT24     88       MECN     H13      HGA3     0.090000        1.0080           0
     70954 WT24     88       MECN     C2       CG1N1    0.360000       12.0110           0
     70955 WT24     88       MECN     N3       NG1T1   -0.460000       14.0070           0
     70956 WT24     89       MECN     C1       CG331   -0.170000       12.0110           0
     70957 WT24     89       MECN     H11      HGA3     0.090000        1.0080           0
     70958 WT24     89       MECN     H12      HGA3     0.090000        1.0080           0
     70959 WT24     89       MECN     H13      HGA3     0.090000        1.0080           0
     70960 WT24     89       MECN     C2       CG1N1    0.360000       12.0110           0
     70961 WT24     89       MECN     N3       NG1T1   -0.460000       14.0070           0
     70962 WT24     93       MECN     C1       CG331   -0.170000       12.0110           0
     70963 WT24     93       MECN     H11      HGA3     0.090000        1.0080           0
     70964 WT24     93       MECN     H12      HGA3     0.090000        1.0080           0
     70965 WT24     93       MECN     H13      HGA3     0.090000        1.0080           0
     70966 WT24     93       MECN     C2       CG1N1    0.360000       12.0110           0
     70967 WT24     93       MECN     N3       NG1T1   -0.460000       14.0070           0
     70968 WT24     96       MECN     C1       CG331   -0.170000       12.0110           0
     70969 WT24     96       MECN     H11      HGA3     0.090000        1.0080           0
     70970 WT24     96       MECN     H12      HGA3     0.090000        1.0080           0
     70971 WT24     96       MECN     H13      HGA3     0.090000        1.0080           0
     70972 WT24     96       MECN     C2       CG1N1    0.360000       12.0110           0
     70973 WT24     96       MECN     N3       NG1T1   -0.460000       14.0070           0
     70974 WT24     97       MECN     C1       CG331   -0.170000       12.0110           0
     70975 WT24     97       MECN     H11      HGA3     0.090000        1.0080           0
     70976 WT24     97       MECN     H12      HGA3     0.090000        1.0080           0
     70977 WT24     97       MECN     H13      HGA3     0.090000        1.0080           0
     70978 WT24     97       MECN     C2       CG1N1    0.360000       12.0110           0
     70979 WT24     97       MECN     N3       NG1T1   -0.460000       14.0070           0
     70980 WT24     99       MECN     C1       CG331   -0.170000       12.0110           0
     70981 WT24     99       MECN     H11      HGA3     0.090000        1.0080           0
     70982 WT24     99       MECN     H12      HGA3     0.090000        1.0080           0
     70983 WT24     99       MECN     H13      HGA3     0.090000        1.0080           0
     70984 WT24     99       MECN     C2       CG1N1    0.360000       12.0110           0
     70985 WT24     99       MECN     N3       NG1T1   -0.460000       14.0070           0
     70986 WT24     100      MECN     C1       CG331   -0.170000       12.0110           0
     70987 WT24     100      MECN     H11      HGA3     0.090000        1.0080           0
     70988 WT24     100      MECN     H12      HGA3     0.090000        1.0080           0
     70989 WT24     100      MECN     H13      HGA3     0.090000        1.0080           0
     70990 WT24     100      MECN     C2       CG1N1    0.360000       12.0110           0
     70991 WT24     100      MECN     N3       NG1T1   -0.460000       14.0070           0
     70992 WT24     102      MECN     C1       CG331   -0.170000       12.0110           0
     70993 WT24     102      MECN     H11      HGA3     0.090000        1.0080           0
     70994 WT24     102      MECN     H12      HGA3     0.090000        1.0080           0
     70995 WT24     102      MECN     H13      HGA3     0.090000        1.0080           0
     70996 WT24     102      MECN     C2       CG1N1    0.360000       12.0110           0
     70997 WT24     102      MECN     N3       NG1T1   -0.460000       14.0070           0
     70998 WT24     104      MECN     C1       CG331   -0.170000       12.0110           0
     70999 WT24     104      MECN     H11      HGA3     0.090000        1.0080           0
     71000 WT24     104      MECN     H12      HGA3     0.090000        1.0080           0
     71001 WT24     104      MECN     H13      HGA3     0.090000        1.0080           0
     71002 WT24     104      MECN     C2       CG1N1    0.360000       12.0110           0
     71003 WT24     104      MECN     N3       NG1T1   -0.460000       14.0070           0
     71004 WT24     106      MECN     C1       CG331   -0.170000       12.0110           0
     71005 WT24     106      MECN     H11      HGA3     0.090000        1.0080           0
     71006 WT24     106      MECN     H12      HGA3     0.090000        1.0080           0
     71007 WT24     106      MECN     H13      HGA3     0.090000        1.0080           0
     71008 WT24     106      MECN     C2       CG1N1    0.360000       12.0110           0
     71009 WT24     106      MECN     N3       NG1T1   -0.460000       14.0070           0
     71010 WT24     107      MECN     C1       CG331   -0.170000       12.0110           0
     71011 WT24     107      MECN     H11      HGA3     0.090000        1.0080           0
     71012 WT24     107      MECN     H12      HGA3     0.090000        1.0080           0
     71013 WT24     107      MECN     H13      HGA3     0.090000        1.0080           0
     71014 WT24     107      MECN     C2       CG1N1    0.360000       12.0110           0
     71015 WT24     107      MECN     N3       NG1T1   -0.460000       14.0070           0
     71016 WT24     108      MECN     C1       CG331   -0.170000       12.0110           0
     71017 WT24     108      MECN     H11      HGA3     0.090000        1.0080           0
     71018 WT24     108      MECN     H12      HGA3     0.090000        1.0080           0
     71019 WT24     108      MECN     H13      HGA3     0.090000        1.0080           0
     71020 WT24     108      MECN     C2       CG1N1    0.360000       12.0110           0
     71021 WT24     108      MECN     N3       NG1T1   -0.460000       14.0070           0
     71022 WT24     112      MECN     C1       CG331   -0.170000       12.0110           0
     71023 WT24     112      MECN     H11      HGA3     0.090000        1.0080           0
     71024 WT24     112      MECN     H12      HGA3     0.090000        1.0080           0
     71025 WT24     112      MECN     H13      HGA3     0.090000        1.0080           0
     71026 WT24     112      MECN     C2       CG1N1    0.360000       12.0110           0
     71027 WT24     112      MECN     N3       NG1T1   -0.460000       14.0070           0
     71028 WT24     113      MECN     C1       CG331   -0.170000       12.0110           0
     71029 WT24     113      MECN     H11      HGA3     0.090000        1.0080           0
     71030 WT24     113      MECN     H12      HGA3     0.090000        1.0080           0
     71031 WT24     113      MECN     H13      HGA3     0.090000        1.0080           0
     71032 WT24     113      MECN     C2       CG1N1    0.360000       12.0110           0
     71033 WT24     113      MECN     N3       NG1T1   -0.460000       14.0070           0
     71034 WT24     114      MECN     C1       CG331   -0.170000       12.0110           0
     71035 WT24     114      MECN     H11      HGA3     0.090000        1.0080           0
     71036 WT24     114      MECN     H12      HGA3     0.090000        1.0080           0
     71037 WT24     114      MECN     H13      HGA3     0.090000        1.0080           0
     71038 WT24     114      MECN     C2       CG1N1    0.360000       12.0110           0
     71039 WT24     114      MECN     N3       NG1T1   -0.460000       14.0070           0
     71040 WT24     117      MECN     C1       CG331   -0.170000       12.0110           0
     71041 WT24     117      MECN     H11      HGA3     0.090000        1.0080           0
     71042 WT24     117      MECN     H12      HGA3     0.090000        1.0080           0
     71043 WT24     117      MECN     H13      HGA3     0.090000        1.0080           0
     71044 WT24     117      MECN     C2       CG1N1    0.360000       12.0110           0
     71045 WT24     117      MECN     N3       NG1T1   -0.460000       14.0070           0
     71046 WT24     118      MECN     C1       CG331   -0.170000       12.0110           0
     71047 WT24     118      MECN     H11      HGA3     0.090000        1.0080           0
     71048 WT24     118      MECN     H12      HGA3     0.090000        1.0080           0
     71049 WT24     118      MECN     H13      HGA3     0.090000        1.0080           0
     71050 WT24     118      MECN     C2       CG1N1    0.360000       12.0110           0
     71051 WT24     118      MECN     N3       NG1T1   -0.460000       14.0070           0
     71052 WT24     119      MECN     C1       CG331   -0.170000       12.0110           0
     71053 WT24     119      MECN     H11      HGA3     0.090000        1.0080           0
     71054 WT24     119      MECN     H12      HGA3     0.090000        1.0080           0
     71055 WT24     119      MECN     H13      HGA3     0.090000        1.0080           0
     71056 WT24     119      MECN     C2       CG1N1    0.360000       12.0110           0
     71057 WT24     119      MECN     N3       NG1T1   -0.460000       14.0070           0
     71058 WT24     122      MECN     C1       CG331   -0.170000       12.0110           0
     71059 WT24     122      MECN     H11      HGA3     0.090000        1.0080           0
     71060 WT24     122      MECN     H12      HGA3     0.090000        1.0080           0
     71061 WT24     122      MECN     H13      HGA3     0.090000        1.0080           0
     71062 WT24     122      MECN     C2       CG1N1    0.360000       12.0110           0
     71063 WT24     122      MECN     N3       NG1T1   -0.460000       14.0070           0
     71064 WT24     123      MECN     C1       CG331   -0.170000       12.0110           0
     71065 WT24     123      MECN     H11      HGA3     0.090000        1.0080           0
     71066 WT24     123      MECN     H12      HGA3     0.090000        1.0080           0
     71067 WT24     123      MECN     H13      HGA3     0.090000        1.0080           0
     71068 WT24     123      MECN     C2       CG1N1    0.360000       12.0110           0
     71069 WT24     123      MECN     N3       NG1T1   -0.460000       14.0070           0
     71070 WT24     124      MECN     C1       CG331   -0.170000       12.0110           0
     71071 WT24     124      MECN     H11      HGA3     0.090000        1.0080           0
     71072 WT24     124      MECN     H12      HGA3     0.090000        1.0080           0
     71073 WT24     124      MECN     H13      HGA3     0.090000        1.0080           0
     71074 WT24     124      MECN     C2       CG1N1    0.360000       12.0110           0
     71075 WT24     124      MECN     N3       NG1T1   -0.460000       14.0070           0
     71076 WT24     126      MECN     C1       CG331   -0.170000       12.0110           0
     71077 WT24     126      MECN     H11      HGA3     0.090000        1.0080           0
     71078 WT24     126      MECN     H12      HGA3     0.090000        1.0080           0
     71079 WT24     126      MECN     H13      HGA3     0.090000        1.0080           0
     71080 WT24     126      MECN     C2       CG1N1    0.360000       12.0110           0
     71081 WT24     126      MECN     N3       NG1T1   -0.460000       14.0070           0
     71082 WT24     127      MECN     C1       CG331   -0.170000       12.0110           0
     71083 WT24     127      MECN     H11      HGA3     0.090000        1.0080           0
     71084 WT24     127      MECN     H12      HGA3     0.090000        1.0080           0
     71085 WT24     127      MECN     H13      HGA3     0.090000        1.0080           0
     71086 WT24     127      MECN     C2       CG1N1    0.360000       12.0110           0
     71087 WT24     127      MECN     N3       NG1T1   -0.460000       14.0070           0
     71088 WT24     128      MECN     C1       CG331   -0.170000       12.0110           0
     71089 WT24     128      MECN     H11      HGA3     0.090000        1.0080           0
     71090 WT24     128      MECN     H12      HGA3     0.090000        1.0080           0
     71091 WT24     128      MECN     H13      HGA3     0.090000        1.0080           0
     71092 WT24     128      MECN     C2       CG1N1    0.360000       12.0110           0
     71093 WT24     128      MECN     N3       NG1T1   -0.460000       14.0070           0
     71094 WT24     130      MECN     C1       CG331   -0.170000       12.0110           0
     71095 WT24     130      MECN     H11      HGA3     0.090000        1.0080           0
     71096 WT24     130      MECN     H12      HGA3     0.090000        1.0080           0
     71097 WT24     130      MECN     H13      HGA3     0.090000        1.0080           0
     71098 WT24     130      MECN     C2       CG1N1    0.360000       12.0110           0
     71099 WT24     130      MECN     N3       NG1T1   -0.460000       14.0070           0
     71100 WT24     131      MECN     C1       CG331   -0.170000       12.0110           0
     71101 WT24     131      MECN     H11      HGA3     0.090000        1.0080           0
     71102 WT24     131      MECN     H12      HGA3     0.090000        1.0080           0
     71103 WT24     131      MECN     H13      HGA3     0.090000        1.0080           0
     71104 WT24     131      MECN     C2       CG1N1    0.360000       12.0110           0
     71105 WT24     131      MECN     N3       NG1T1   -0.460000       14.0070           0
     71106 WT24     135      MECN     C1       CG331   -0.170000       12.0110           0
     71107 WT24     135      MECN     H11      HGA3     0.090000        1.0080           0
     71108 WT24     135      MECN     H12      HGA3     0.090000        1.0080           0
     71109 WT24     135      MECN     H13      HGA3     0.090000        1.0080           0
     71110 WT24     135      MECN     C2       CG1N1    0.360000       12.0110           0
     71111 WT24     135      MECN     N3       NG1T1   -0.460000       14.0070           0
     71112 WT24     136      MECN     C1       CG331   -0.170000       12.0110           0
     71113 WT24     136      MECN     H11      HGA3     0.090000        1.0080           0
     71114 WT24     136      MECN     H12      HGA3     0.090000        1.0080           0
     71115 WT24     136      MECN     H13      HGA3     0.090000        1.0080           0
     71116 WT24     136      MECN     C2       CG1N1    0.360000       12.0110           0
     71117 WT24     136      MECN     N3       NG1T1   -0.460000       14.0070           0
     71118 WT24     137      MECN     C1       CG331   -0.170000       12.0110           0
     71119 WT24     137      MECN     H11      HGA3     0.090000        1.0080           0
     71120 WT24     137      MECN     H12      HGA3     0.090000        1.0080           0
     71121 WT24     137      MECN     H13      HGA3     0.090000        1.0080           0
     71122 WT24     137      MECN     C2       CG1N1    0.360000       12.0110           0
     71123 WT24     137      MECN     N3       NG1T1   -0.460000       14.0070           0
     71124 WT24     141      MECN     C1       CG331   -0.170000       12.0110           0
     71125 WT24     141      MECN     H11      HGA3     0.090000        1.0080           0
     71126 WT24     141      MECN     H12      HGA3     0.090000        1.0080           0
     71127 WT24     141      MECN     H13      HGA3     0.090000        1.0080           0
     71128 WT24     141      MECN     C2       CG1N1    0.360000       12.0110           0
     71129 WT24     141      MECN     N3       NG1T1   -0.460000       14.0070           0
     71130 WT24     142      MECN     C1       CG331   -0.170000       12.0110           0
     71131 WT24     142      MECN     H11      HGA3     0.090000        1.0080           0
     71132 WT24     142      MECN     H12      HGA3     0.090000        1.0080           0
     71133 WT24     142      MECN     H13      HGA3     0.090000        1.0080           0
     71134 WT24     142      MECN     C2       CG1N1    0.360000       12.0110           0
     71135 WT24     142      MECN     N3       NG1T1   -0.460000       14.0070           0
     71136 WT24     143      MECN     C1       CG331   -0.170000       12.0110           0
     71137 WT24     143      MECN     H11      HGA3     0.090000        1.0080           0
     71138 WT24     143      MECN     H12      HGA3     0.090000        1.0080           0
     71139 WT24     143      MECN     H13      HGA3     0.090000        1.0080           0
     71140 WT24     143      MECN     C2       CG1N1    0.360000       12.0110           0
     71141 WT24     143      MECN     N3       NG1T1   -0.460000       14.0070           0
     71142 WT24     145      MECN     C1       CG331   -0.170000       12.0110           0
     71143 WT24     145      MECN     H11      HGA3     0.090000        1.0080           0
     71144 WT24     145      MECN     H12      HGA3     0.090000        1.0080           0
     71145 WT24     145      MECN     H13      HGA3     0.090000        1.0080           0
     71146 WT24     145      MECN     C2       CG1N1    0.360000       12.0110           0
     71147 WT24     145      MECN     N3       NG1T1   -0.460000       14.0070           0
     71148 WT24     151      MECN     C1       CG331   -0.170000       12.0110           0
     71149 WT24     151      MECN     H11      HGA3     0.090000        1.0080           0
     71150 WT24     151      MECN     H12      HGA3     0.090000        1.0080           0
     71151 WT24     151      MECN     H13      HGA3     0.090000        1.0080           0
     71152 WT24     151      MECN     C2       CG1N1    0.360000       12.0110           0
     71153 WT24     151      MECN     N3       NG1T1   -0.460000       14.0070           0
     71154 WT24     152      MECN     C1       CG331   -0.170000       12.0110           0
     71155 WT24     152      MECN     H11      HGA3     0.090000        1.0080           0
     71156 WT24     152      MECN     H12      HGA3     0.090000        1.0080           0
     71157 WT24     152      MECN     H13      HGA3     0.090000        1.0080           0
     71158 WT24     152      MECN     C2       CG1N1    0.360000       12.0110           0
     71159 WT24     152      MECN     N3       NG1T1   -0.460000       14.0070           0
     71160 WT24     153      MECN     C1       CG331   -0.170000       12.0110           0
     71161 WT24     153      MECN     H11      HGA3     0.090000        1.0080           0
     71162 WT24     153      MECN     H12      HGA3     0.090000        1.0080           0
     71163 WT24     153      MECN     H13      HGA3     0.090000        1.0080           0
     71164 WT24     153      MECN     C2       CG1N1    0.360000       12.0110           0
     71165 WT24     153      MECN     N3       NG1T1   -0.460000       14.0070           0
     71166 WT24     154      MECN     C1       CG331   -0.170000       12.0110           0
     71167 WT24     154      MECN     H11      HGA3     0.090000        1.0080           0
     71168 WT24     154      MECN     H12      HGA3     0.090000        1.0080           0
     71169 WT24     154      MECN     H13      HGA3     0.090000        1.0080           0
     71170 WT24     154      MECN     C2       CG1N1    0.360000       12.0110           0
     71171 WT24     154      MECN     N3       NG1T1   -0.460000       14.0070           0
     71172 WT24     155      MECN     C1       CG331   -0.170000       12.0110           0
     71173 WT24     155      MECN     H11      HGA3     0.090000        1.0080           0
     71174 WT24     155      MECN     H12      HGA3     0.090000        1.0080           0
     71175 WT24     155      MECN     H13      HGA3     0.090000        1.0080           0
     71176 WT24     155      MECN     C2       CG1N1    0.360000       12.0110           0
     71177 WT24     155      MECN     N3       NG1T1   -0.460000       14.0070           0
     71178 WT24     157      MECN     C1       CG331   -0.170000       12.0110           0
     71179 WT24     157      MECN     H11      HGA3     0.090000        1.0080           0
     71180 WT24     157      MECN     H12      HGA3     0.090000        1.0080           0
     71181 WT24     157      MECN     H13      HGA3     0.090000        1.0080           0
     71182 WT24     157      MECN     C2       CG1N1    0.360000       12.0110           0
     71183 WT24     157      MECN     N3       NG1T1   -0.460000       14.0070           0
     71184 WT24     158      MECN     C1       CG331   -0.170000       12.0110           0
     71185 WT24     158      MECN     H11      HGA3     0.090000        1.0080           0
     71186 WT24     158      MECN     H12      HGA3     0.090000        1.0080           0
     71187 WT24     158      MECN     H13      HGA3     0.090000        1.0080           0
     71188 WT24     158      MECN     C2       CG1N1    0.360000       12.0110           0
     71189 WT24     158      MECN     N3       NG1T1   -0.460000       14.0070           0
     71190 WT24     161      MECN     C1       CG331   -0.170000       12.0110           0
     71191 WT24     161      MECN     H11      HGA3     0.090000        1.0080           0
     71192 WT24     161      MECN     H12      HGA3     0.090000        1.0080           0
     71193 WT24     161      MECN     H13      HGA3     0.090000        1.0080           0
     71194 WT24     161      MECN     C2       CG1N1    0.360000       12.0110           0
     71195 WT24     161      MECN     N3       NG1T1   -0.460000       14.0070           0
     71196 WT24     163      MECN     C1       CG331   -0.170000       12.0110           0
     71197 WT24     163      MECN     H11      HGA3     0.090000        1.0080           0
     71198 WT24     163      MECN     H12      HGA3     0.090000        1.0080           0
     71199 WT24     163      MECN     H13      HGA3     0.090000        1.0080           0
     71200 WT24     163      MECN     C2       CG1N1    0.360000       12.0110           0
     71201 WT24     163      MECN     N3       NG1T1   -0.460000       14.0070           0
     71202 WT24     164      MECN     C1       CG331   -0.170000       12.0110           0
     71203 WT24     164      MECN     H11      HGA3     0.090000        1.0080           0
     71204 WT24     164      MECN     H12      HGA3     0.090000        1.0080           0
     71205 WT24     164      MECN     H13      HGA3     0.090000        1.0080           0
     71206 WT24     164      MECN     C2       CG1N1    0.360000       12.0110           0
     71207 WT24     164      MECN     N3       NG1T1   -0.460000       14.0070           0
     71208 WT24     165      MECN     C1       CG331   -0.170000       12.0110           0
     71209 WT24     165      MECN     H11      HGA3     0.090000        1.0080           0
     71210 WT24     165      MECN     H12      HGA3     0.090000        1.0080           0
     71211 WT24     165      MECN     H13      HGA3     0.090000        1.0080           0
     71212 WT24     165      MECN     C2       CG1N1    0.360000       12.0110           0
     71213 WT24     165      MECN     N3       NG1T1   -0.460000       14.0070           0
     71214 WT24     166      MECN     C1       CG331   -0.170000       12.0110           0
     71215 WT24     166      MECN     H11      HGA3     0.090000        1.0080           0
     71216 WT24     166      MECN     H12      HGA3     0.090000        1.0080           0
     71217 WT24     166      MECN     H13      HGA3     0.090000        1.0080           0
     71218 WT24     166      MECN     C2       CG1N1    0.360000       12.0110           0
     71219 WT24     166      MECN     N3       NG1T1   -0.460000       14.0070           0
     71220 WT24     167      MECN     C1       CG331   -0.170000       12.0110           0
     71221 WT24     167      MECN     H11      HGA3     0.090000        1.0080           0
     71222 WT24     167      MECN     H12      HGA3     0.090000        1.0080           0
     71223 WT24     167      MECN     H13      HGA3     0.090000        1.0080           0
     71224 WT24     167      MECN     C2       CG1N1    0.360000       12.0110           0
     71225 WT24     167      MECN     N3       NG1T1   -0.460000       14.0070           0
     71226 WT24     168      MECN     C1       CG331   -0.170000       12.0110           0
     71227 WT24     168      MECN     H11      HGA3     0.090000        1.0080           0
     71228 WT24     168      MECN     H12      HGA3     0.090000        1.0080           0
     71229 WT24     168      MECN     H13      HGA3     0.090000        1.0080           0
     71230 WT24     168      MECN     C2       CG1N1    0.360000       12.0110           0
     71231 WT24     168      MECN     N3       NG1T1   -0.460000       14.0070           0
     71232 WT24     175      MECN     C1       CG331   -0.170000       12.0110           0
     71233 WT24     175      MECN     H11      HGA3     0.090000        1.0080           0
     71234 WT24     175      MECN     H12      HGA3     0.090000        1.0080           0
     71235 WT24     175      MECN     H13      HGA3     0.090000        1.0080           0
     71236 WT24     175      MECN     C2       CG1N1    0.360000       12.0110           0
     71237 WT24     175      MECN     N3       NG1T1   -0.460000       14.0070           0
     71238 WT24     178      MECN     C1       CG331   -0.170000       12.0110           0
     71239 WT24     178      MECN     H11      HGA3     0.090000        1.0080           0
     71240 WT24     178      MECN     H12      HGA3     0.090000        1.0080           0
     71241 WT24     178      MECN     H13      HGA3     0.090000        1.0080           0
     71242 WT24     178      MECN     C2       CG1N1    0.360000       12.0110           0
     71243 WT24     178      MECN     N3       NG1T1   -0.460000       14.0070           0
     71244 WT24     181      MECN     C1       CG331   -0.170000       12.0110           0
     71245 WT24     181      MECN     H11      HGA3     0.090000        1.0080           0
     71246 WT24     181      MECN     H12      HGA3     0.090000        1.0080           0
     71247 WT24     181      MECN     H13      HGA3     0.090000        1.0080           0
     71248 WT24     181      MECN     C2       CG1N1    0.360000       12.0110           0
     71249 WT24     181      MECN     N3       NG1T1   -0.460000       14.0070           0
     71250 WT24     182      MECN     C1       CG331   -0.170000       12.0110           0
     71251 WT24     182      MECN     H11      HGA3     0.090000        1.0080           0
     71252 WT24     182      MECN     H12      HGA3     0.090000        1.0080           0
     71253 WT24     182      MECN     H13      HGA3     0.090000        1.0080           0
     71254 WT24     182      MECN     C2       CG1N1    0.360000       12.0110           0
     71255 WT24     182      MECN     N3       NG1T1   -0.460000       14.0070           0
     71256 WT24     184      MECN     C1       CG331   -0.170000       12.0110           0
     71257 WT24     184      MECN     H11      HGA3     0.090000        1.0080           0
     71258 WT24     184      MECN     H12      HGA3     0.090000        1.0080           0
     71259 WT24     184      MECN     H13      HGA3     0.090000        1.0080           0
     71260 WT24     184      MECN     C2       CG1N1    0.360000       12.0110           0
     71261 WT24     184      MECN     N3       NG1T1   -0.460000       14.0070           0
     71262 WT24     186      MECN     C1       CG331   -0.170000       12.0110           0
     71263 WT24     186      MECN     H11      HGA3     0.090000        1.0080           0
     71264 WT24     186      MECN     H12      HGA3     0.090000        1.0080           0
     71265 WT24     186      MECN     H13      HGA3     0.090000        1.0080           0
     71266 WT24     186      MECN     C2       CG1N1    0.360000       12.0110           0
     71267 WT24     186      MECN     N3       NG1T1   -0.460000       14.0070           0
     71268 WT24     190      MECN     C1       CG331   -0.170000       12.0110           0
     71269 WT24     190      MECN     H11      HGA3     0.090000        1.0080           0
     71270 WT24     190      MECN     H12      HGA3     0.090000        1.0080           0
     71271 WT24     190      MECN     H13      HGA3     0.090000        1.0080           0
     71272 WT24     190      MECN     C2       CG1N1    0.360000       12.0110           0
     71273 WT24     190      MECN     N3       NG1T1   -0.460000       14.0070           0
     71274 WT24     192      MECN     C1       CG331   -0.170000       12.0110           0
     71275 WT24     192      MECN     H11      HGA3     0.090000        1.0080           0
     71276 WT24     192      MECN     H12      HGA3     0.090000        1.0080           0
     71277 WT24     192      MECN     H13      HGA3     0.090000        1.0080           0
     71278 WT24     192      MECN     C2       CG1N1    0.360000       12.0110           0
     71279 WT24     192      MECN     N3       NG1T1   -0.460000       14.0070           0
     71280 WT24     193      MECN     C1       CG331   -0.170000       12.0110           0
     71281 WT24     193      MECN     H11      HGA3     0.090000        1.0080           0
     71282 WT24     193      MECN     H12      HGA3     0.090000        1.0080           0
     71283 WT24     193      MECN     H13      HGA3     0.090000        1.0080           0
     71284 WT24     193      MECN     C2       CG1N1    0.360000       12.0110           0
     71285 WT24     193      MECN     N3       NG1T1   -0.460000       14.0070           0
     71286 WT24     195      MECN     C1       CG331   -0.170000       12.0110           0
     71287 WT24     195      MECN     H11      HGA3     0.090000        1.0080           0
     71288 WT24     195      MECN     H12      HGA3     0.090000        1.0080           0
     71289 WT24     195      MECN     H13      HGA3     0.090000        1.0080           0
     71290 WT24     195      MECN     C2       CG1N1    0.360000       12.0110           0
     71291 WT24     195      MECN     N3       NG1T1   -0.460000       14.0070           0
     71292 WT24     196      MECN     C1       CG331   -0.170000       12.0110           0
     71293 WT24     196      MECN     H11      HGA3     0.090000        1.0080           0
     71294 WT24     196      MECN     H12      HGA3     0.090000        1.0080           0
     71295 WT24     196      MECN     H13      HGA3     0.090000        1.0080           0
     71296 WT24     196      MECN     C2       CG1N1    0.360000       12.0110           0
     71297 WT24     196      MECN     N3       NG1T1   -0.460000       14.0070           0
     71298 WT24     198      MECN     C1       CG331   -0.170000       12.0110           0
     71299 WT24     198      MECN     H11      HGA3     0.090000        1.0080           0
     71300 WT24     198      MECN     H12      HGA3     0.090000        1.0080           0
     71301 WT24     198      MECN     H13      HGA3     0.090000        1.0080           0
     71302 WT24     198      MECN     C2       CG1N1    0.360000       12.0110           0
     71303 WT24     198      MECN     N3       NG1T1   -0.460000       14.0070           0
     71304 WT24     199      MECN     C1       CG331   -0.170000       12.0110           0
     71305 WT24     199      MECN     H11      HGA3     0.090000        1.0080           0
     71306 WT24     199      MECN     H12      HGA3     0.090000        1.0080           0
     71307 WT24     199      MECN     H13      HGA3     0.090000        1.0080           0
     71308 WT24     199      MECN     C2       CG1N1    0.360000       12.0110           0
     71309 WT24     199      MECN     N3       NG1T1   -0.460000       14.0070           0
     71310 WT24     201      MECN     C1       CG331   -0.170000       12.0110           0
     71311 WT24     201      MECN     H11      HGA3     0.090000        1.0080           0
     71312 WT24     201      MECN     H12      HGA3     0.090000        1.0080           0
     71313 WT24     201      MECN     H13      HGA3     0.090000        1.0080           0
     71314 WT24     201      MECN     C2       CG1N1    0.360000       12.0110           0
     71315 WT24     201      MECN     N3       NG1T1   -0.460000       14.0070           0
     71316 WT24     203      MECN     C1       CG331   -0.170000       12.0110           0
     71317 WT24     203      MECN     H11      HGA3     0.090000        1.0080           0
     71318 WT24     203      MECN     H12      HGA3     0.090000        1.0080           0
     71319 WT24     203      MECN     H13      HGA3     0.090000        1.0080           0
     71320 WT24     203      MECN     C2       CG1N1    0.360000       12.0110           0
     71321 WT24     203      MECN     N3       NG1T1   -0.460000       14.0070           0
     71322 WT24     205      MECN     C1       CG331   -0.170000       12.0110           0
     71323 WT24     205      MECN     H11      HGA3     0.090000        1.0080           0
     71324 WT24     205      MECN     H12      HGA3     0.090000        1.0080           0
     71325 WT24     205      MECN     H13      HGA3     0.090000        1.0080           0
     71326 WT24     205      MECN     C2       CG1N1    0.360000       12.0110           0
     71327 WT24     205      MECN     N3       NG1T1   -0.460000       14.0070           0
     71328 WT24     210      MECN     C1       CG331   -0.170000       12.0110           0
     71329 WT24     210      MECN     H11      HGA3     0.090000        1.0080           0
     71330 WT24     210      MECN     H12      HGA3     0.090000        1.0080           0
     71331 WT24     210      MECN     H13      HGA3     0.090000        1.0080           0
     71332 WT24     210      MECN     C2       CG1N1    0.360000       12.0110           0
     71333 WT24     210      MECN     N3       NG1T1   -0.460000       14.0070           0
     71334 WT24     212      MECN     C1       CG331   -0.170000       12.0110           0
     71335 WT24     212      MECN     H11      HGA3     0.090000        1.0080           0
     71336 WT24     212      MECN     H12      HGA3     0.090000        1.0080           0
     71337 WT24     212      MECN     H13      HGA3     0.090000        1.0080           0
     71338 WT24     212      MECN     C2       CG1N1    0.360000       12.0110           0
     71339 WT24     212      MECN     N3       NG1T1   -0.460000       14.0070           0
     71340 WT24     217      MECN     C1       CG331   -0.170000       12.0110           0
     71341 WT24     217      MECN     H11      HGA3     0.090000        1.0080           0
     71342 WT24     217      MECN     H12      HGA3     0.090000        1.0080           0
     71343 WT24     217      MECN     H13      HGA3     0.090000        1.0080           0
     71344 WT24     217      MECN     C2       CG1N1    0.360000       12.0110           0
     71345 WT24     217      MECN     N3       NG1T1   -0.460000       14.0070           0
     71346 WT24     218      MECN     C1       CG331   -0.170000       12.0110           0
     71347 WT24     218      MECN     H11      HGA3     0.090000        1.0080           0
     71348 WT24     218      MECN     H12      HGA3     0.090000        1.0080           0
     71349 WT24     218      MECN     H13      HGA3     0.090000        1.0080           0
     71350 WT24     218      MECN     C2       CG1N1    0.360000       12.0110           0
     71351 WT24     218      MECN     N3       NG1T1   -0.460000       14.0070           0
     71352 WT24     223      MECN     C1       CG331   -0.170000       12.0110           0
     71353 WT24     223      MECN     H11      HGA3     0.090000        1.0080           0
     71354 WT24     223      MECN     H12      HGA3     0.090000        1.0080           0
     71355 WT24     223      MECN     H13      HGA3     0.090000        1.0080           0
     71356 WT24     223      MECN     C2       CG1N1    0.360000       12.0110           0
     71357 WT24     223      MECN     N3       NG1T1   -0.460000       14.0070           0
     71358 WT24     225      MECN     C1       CG331   -0.170000       12.0110           0
     71359 WT24     225      MECN     H11      HGA3     0.090000        1.0080           0
     71360 WT24     225      MECN     H12      HGA3     0.090000        1.0080           0
     71361 WT24     225      MECN     H13      HGA3     0.090000        1.0080           0
     71362 WT24     225      MECN     C2       CG1N1    0.360000       12.0110           0
     71363 WT24     225      MECN     N3       NG1T1   -0.460000       14.0070           0
     71364 WT24     229      MECN     C1       CG331   -0.170000       12.0110           0
     71365 WT24     229      MECN     H11      HGA3     0.090000        1.0080           0
     71366 WT24     229      MECN     H12      HGA3     0.090000        1.0080           0
     71367 WT24     229      MECN     H13      HGA3     0.090000        1.0080           0
     71368 WT24     229      MECN     C2       CG1N1    0.360000       12.0110           0
     71369 WT24     229      MECN     N3       NG1T1   -0.460000       14.0070           0
     71370 WT24     231      MECN     C1       CG331   -0.170000       12.0110           0
     71371 WT24     231      MECN     H11      HGA3     0.090000        1.0080           0
     71372 WT24     231      MECN     H12      HGA3     0.090000        1.0080           0
     71373 WT24     231      MECN     H13      HGA3     0.090000        1.0080           0
     71374 WT24     231      MECN     C2       CG1N1    0.360000       12.0110           0
     71375 WT24     231      MECN     N3       NG1T1   -0.460000       14.0070           0
     71376 WT24     232      MECN     C1       CG331   -0.170000       12.0110           0
     71377 WT24     232      MECN     H11      HGA3     0.090000        1.0080           0
     71378 WT24     232      MECN     H12      HGA3     0.090000        1.0080           0
     71379 WT24     232      MECN     H13      HGA3     0.090000        1.0080           0
     71380 WT24     232      MECN     C2       CG1N1    0.360000       12.0110           0
     71381 WT24     232      MECN     N3       NG1T1   -0.460000       14.0070           0
     71382 WT24     233      MECN     C1       CG331   -0.170000       12.0110           0
     71383 WT24     233      MECN     H11      HGA3     0.090000        1.0080           0
     71384 WT24     233      MECN     H12      HGA3     0.090000        1.0080           0
     71385 WT24     233      MECN     H13      HGA3     0.090000        1.0080           0
     71386 WT24     233      MECN     C2       CG1N1    0.360000       12.0110           0
     71387 WT24     233      MECN     N3       NG1T1   -0.460000       14.0070           0
     71388 WT24     235      MECN     C1       CG331   -0.170000       12.0110           0
     71389 WT24     235      MECN     H11      HGA3     0.090000        1.0080           0
     71390 WT24     235      MECN     H12      HGA3     0.090000        1.0080           0
     71391 WT24     235      MECN     H13      HGA3     0.090000        1.0080           0
     71392 WT24     235      MECN     C2       CG1N1    0.360000       12.0110           0
     71393 WT24     235      MECN     N3       NG1T1   -0.460000       14.0070           0
     71394 WT24     239      MECN     C1       CG331   -0.170000       12.0110           0
     71395 WT24     239      MECN     H11      HGA3     0.090000        1.0080           0
     71396 WT24     239      MECN     H12      HGA3     0.090000        1.0080           0
     71397 WT24     239      MECN     H13      HGA3     0.090000        1.0080           0
     71398 WT24     239      MECN     C2       CG1N1    0.360000       12.0110           0
     71399 WT24     239      MECN     N3       NG1T1   -0.460000       14.0070           0
     71400 WT24     243      MECN     C1       CG331   -0.170000       12.0110           0
     71401 WT24     243      MECN     H11      HGA3     0.090000        1.0080           0
     71402 WT24     243      MECN     H12      HGA3     0.090000        1.0080           0
     71403 WT24     243      MECN     H13      HGA3     0.090000        1.0080           0
     71404 WT24     243      MECN     C2       CG1N1    0.360000       12.0110           0
     71405 WT24     243      MECN     N3       NG1T1   -0.460000       14.0070           0
     71406 WT24     244      MECN     C1       CG331   -0.170000       12.0110           0
     71407 WT24     244      MECN     H11      HGA3     0.090000        1.0080           0
     71408 WT24     244      MECN     H12      HGA3     0.090000        1.0080           0
     71409 WT24     244      MECN     H13      HGA3     0.090000        1.0080           0
     71410 WT24     244      MECN     C2       CG1N1    0.360000       12.0110           0
     71411 WT24     244      MECN     N3       NG1T1   -0.460000       14.0070           0
     71412 WT24     246      MECN     C1       CG331   -0.170000       12.0110           0
     71413 WT24     246      MECN     H11      HGA3     0.090000        1.0080           0
     71414 WT24     246      MECN     H12      HGA3     0.090000        1.0080           0
     71415 WT24     246      MECN     H13      HGA3     0.090000        1.0080           0
     71416 WT24     246      MECN     C2       CG1N1    0.360000       12.0110           0
     71417 WT24     246      MECN     N3       NG1T1   -0.460000       14.0070           0
     71418 WT24     249      MECN     C1       CG331   -0.170000       12.0110           0
     71419 WT24     249      MECN     H11      HGA3     0.090000        1.0080           0
     71420 WT24     249      MECN     H12      HGA3     0.090000        1.0080           0
     71421 WT24     249      MECN     H13      HGA3     0.090000        1.0080           0
     71422 WT24     249      MECN     C2       CG1N1    0.360000       12.0110           0
     71423 WT24     249      MECN     N3       NG1T1   -0.460000       14.0070           0
     71424 WT24     250      MECN     C1       CG331   -0.170000       12.0110           0
     71425 WT24     250      MECN     H11      HGA3     0.090000        1.0080           0
     71426 WT24     250      MECN     H12      HGA3     0.090000        1.0080           0
     71427 WT24     250      MECN     H13      HGA3     0.090000        1.0080           0
     71428 WT24     250      MECN     C2       CG1N1    0.360000       12.0110           0
     71429 WT24     250      MECN     N3       NG1T1   -0.460000       14.0070           0
     71430 WT24     251      MECN     C1       CG331   -0.170000       12.0110           0
     71431 WT24     251      MECN     H11      HGA3     0.090000        1.0080           0
     71432 WT24     251      MECN     H12      HGA3     0.090000        1.0080           0
     71433 WT24     251      MECN     H13      HGA3     0.090000        1.0080           0
     71434 WT24     251      MECN     C2       CG1N1    0.360000       12.0110           0
     71435 WT24     251      MECN     N3       NG1T1   -0.460000       14.0070           0
     71436 WT24     252      MECN     C1       CG331   -0.170000       12.0110           0
     71437 WT24     252      MECN     H11      HGA3     0.090000        1.0080           0
     71438 WT24     252      MECN     H12      HGA3     0.090000        1.0080           0
     71439 WT24     252      MECN     H13      HGA3     0.090000        1.0080           0
     71440 WT24     252      MECN     C2       CG1N1    0.360000       12.0110           0
     71441 WT24     252      MECN     N3       NG1T1   -0.460000       14.0070           0
     71442 WT24     254      MECN     C1       CG331   -0.170000       12.0110           0
     71443 WT24     254      MECN     H11      HGA3     0.090000        1.0080           0
     71444 WT24     254      MECN     H12      HGA3     0.090000        1.0080           0
     71445 WT24     254      MECN     H13      HGA3     0.090000        1.0080           0
     71446 WT24     254      MECN     C2       CG1N1    0.360000       12.0110           0
     71447 WT24     254      MECN     N3       NG1T1   -0.460000       14.0070           0
     71448 WT24     255      MECN     C1       CG331   -0.170000       12.0110           0
     71449 WT24     255      MECN     H11      HGA3     0.090000        1.0080           0
     71450 WT24     255      MECN     H12      HGA3     0.090000        1.0080           0
     71451 WT24     255      MECN     H13      HGA3     0.090000        1.0080           0
     71452 WT24     255      MECN     C2       CG1N1    0.360000       12.0110           0
     71453 WT24     255      MECN     N3       NG1T1   -0.460000       14.0070           0
     71454 WT24     258      MECN     C1       CG331   -0.170000       12.0110           0
     71455 WT24     258      MECN     H11      HGA3     0.090000        1.0080           0
     71456 WT24     258      MECN     H12      HGA3     0.090000        1.0080           0
     71457 WT24     258      MECN     H13      HGA3     0.090000        1.0080           0
     71458 WT24     258      MECN     C2       CG1N1    0.360000       12.0110           0
     71459 WT24     258      MECN     N3       NG1T1   -0.460000       14.0070           0
     71460 WT24     262      MECN     C1       CG331   -0.170000       12.0110           0
     71461 WT24     262      MECN     H11      HGA3     0.090000        1.0080           0
     71462 WT24     262      MECN     H12      HGA3     0.090000        1.0080           0
     71463 WT24     262      MECN     H13      HGA3     0.090000        1.0080           0
     71464 WT24     262      MECN     C2       CG1N1    0.360000       12.0110           0
     71465 WT24     262      MECN     N3       NG1T1   -0.460000       14.0070           0
     71466 WT24     263      MECN     C1       CG331   -0.170000       12.0110           0
     71467 WT24     263      MECN     H11      HGA3     0.090000        1.0080           0
     71468 WT24     263      MECN     H12      HGA3     0.090000        1.0080           0
     71469 WT24     263      MECN     H13      HGA3     0.090000        1.0080           0
     71470 WT24     263      MECN     C2       CG1N1    0.360000       12.0110           0
     71471 WT24     263      MECN     N3       NG1T1   -0.460000       14.0070           0
     71472 WT24     264      MECN     C1       CG331   -0.170000       12.0110           0
     71473 WT24     264      MECN     H11      HGA3     0.090000        1.0080           0
     71474 WT24     264      MECN     H12      HGA3     0.090000        1.0080           0
     71475 WT24     264      MECN     H13      HGA3     0.090000        1.0080           0
     71476 WT24     264      MECN     C2       CG1N1    0.360000       12.0110           0
     71477 WT24     264      MECN     N3       NG1T1   -0.460000       14.0070           0
     71478 WT24     265      MECN     C1       CG331   -0.170000       12.0110           0
     71479 WT24     265      MECN     H11      HGA3     0.090000        1.0080           0
     71480 WT24     265      MECN     H12      HGA3     0.090000        1.0080           0
     71481 WT24     265      MECN     H13      HGA3     0.090000        1.0080           0
     71482 WT24     265      MECN     C2       CG1N1    0.360000       12.0110           0
     71483 WT24     265      MECN     N3       NG1T1   -0.460000       14.0070           0
     71484 WT24     269      MECN     C1       CG331   -0.170000       12.0110           0
     71485 WT24     269      MECN     H11      HGA3     0.090000        1.0080           0
     71486 WT24     269      MECN     H12      HGA3     0.090000        1.0080           0
     71487 WT24     269      MECN     H13      HGA3     0.090000        1.0080           0
     71488 WT24     269      MECN     C2       CG1N1    0.360000       12.0110           0
     71489 WT24     269      MECN     N3       NG1T1   -0.460000       14.0070           0
     71490 WT24     275      MECN     C1       CG331   -0.170000       12.0110           0
     71491 WT24     275      MECN     H11      HGA3     0.090000        1.0080           0
     71492 WT24     275      MECN     H12      HGA3     0.090000        1.0080           0
     71493 WT24     275      MECN     H13      HGA3     0.090000        1.0080           0
     71494 WT24     275      MECN     C2       CG1N1    0.360000       12.0110           0
     71495 WT24     275      MECN     N3       NG1T1   -0.460000       14.0070           0
     71496 WT24     276      MECN     C1       CG331   -0.170000       12.0110           0
     71497 WT24     276      MECN     H11      HGA3     0.090000        1.0080           0
     71498 WT24     276      MECN     H12      HGA3     0.090000        1.0080           0
     71499 WT24     276      MECN     H13      HGA3     0.090000        1.0080           0
     71500 WT24     276      MECN     C2       CG1N1    0.360000       12.0110           0
     71501 WT24     276      MECN     N3       NG1T1   -0.460000       14.0070           0
     71502 WT24     278      MECN     C1       CG331   -0.170000       12.0110           0
     71503 WT24     278      MECN     H11      HGA3     0.090000        1.0080           0
     71504 WT24     278      MECN     H12      HGA3     0.090000        1.0080           0
     71505 WT24     278      MECN     H13      HGA3     0.090000        1.0080           0
     71506 WT24     278      MECN     C2       CG1N1    0.360000       12.0110           0
     71507 WT24     278      MECN     N3       NG1T1   -0.460000       14.0070           0
     71508 WT24     279      MECN     C1       CG331   -0.170000       12.0110           0
     71509 WT24     279      MECN     H11      HGA3     0.090000        1.0080           0
     71510 WT24     279      MECN     H12      HGA3     0.090000        1.0080           0
     71511 WT24     279      MECN     H13      HGA3     0.090000        1.0080           0
     71512 WT24     279      MECN     C2       CG1N1    0.360000       12.0110           0
     71513 WT24     279      MECN     N3       NG1T1   -0.460000       14.0070           0
     71514 WT24     280      MECN     C1       CG331   -0.170000       12.0110           0
     71515 WT24     280      MECN     H11      HGA3     0.090000        1.0080           0
     71516 WT24     280      MECN     H12      HGA3     0.090000        1.0080           0
     71517 WT24     280      MECN     H13      HGA3     0.090000        1.0080           0
     71518 WT24     280      MECN     C2       CG1N1    0.360000       12.0110           0
     71519 WT24     280      MECN     N3       NG1T1   -0.460000       14.0070           0
     71520 WT24     281      MECN     C1       CG331   -0.170000       12.0110           0
     71521 WT24     281      MECN     H11      HGA3     0.090000        1.0080           0
     71522 WT24     281      MECN     H12      HGA3     0.090000        1.0080           0
     71523 WT24     281      MECN     H13      HGA3     0.090000        1.0080           0
     71524 WT24     281      MECN     C2       CG1N1    0.360000       12.0110           0
     71525 WT24     281      MECN     N3       NG1T1   -0.460000       14.0070           0
     71526 WT24     282      MECN     C1       CG331   -0.170000       12.0110           0
     71527 WT24     282      MECN     H11      HGA3     0.090000        1.0080           0
     71528 WT24     282      MECN     H12      HGA3     0.090000        1.0080           0
     71529 WT24     282      MECN     H13      HGA3     0.090000        1.0080           0
     71530 WT24     282      MECN     C2       CG1N1    0.360000       12.0110           0
     71531 WT24     282      MECN     N3       NG1T1   -0.460000       14.0070           0
     71532 WT24     283      MECN     C1       CG331   -0.170000       12.0110           0
     71533 WT24     283      MECN     H11      HGA3     0.090000        1.0080           0
     71534 WT24     283      MECN     H12      HGA3     0.090000        1.0080           0
     71535 WT24     283      MECN     H13      HGA3     0.090000        1.0080           0
     71536 WT24     283      MECN     C2       CG1N1    0.360000       12.0110           0
     71537 WT24     283      MECN     N3       NG1T1   -0.460000       14.0070           0
     71538 WT24     284      MECN     C1       CG331   -0.170000       12.0110           0
     71539 WT24     284      MECN     H11      HGA3     0.090000        1.0080           0
     71540 WT24     284      MECN     H12      HGA3     0.090000        1.0080           0
     71541 WT24     284      MECN     H13      HGA3     0.090000        1.0080           0
     71542 WT24     284      MECN     C2       CG1N1    0.360000       12.0110           0
     71543 WT24     284      MECN     N3       NG1T1   -0.460000       14.0070           0
     71544 WT24     285      MECN     C1       CG331   -0.170000       12.0110           0
     71545 WT24     285      MECN     H11      HGA3     0.090000        1.0080           0
     71546 WT24     285      MECN     H12      HGA3     0.090000        1.0080           0
     71547 WT24     285      MECN     H13      HGA3     0.090000        1.0080           0
     71548 WT24     285      MECN     C2       CG1N1    0.360000       12.0110           0
     71549 WT24     285      MECN     N3       NG1T1   -0.460000       14.0070           0
     71550 WT24     286      MECN     C1       CG331   -0.170000       12.0110           0
     71551 WT24     286      MECN     H11      HGA3     0.090000        1.0080           0
     71552 WT24     286      MECN     H12      HGA3     0.090000        1.0080           0
     71553 WT24     286      MECN     H13      HGA3     0.090000        1.0080           0
     71554 WT24     286      MECN     C2       CG1N1    0.360000       12.0110           0
     71555 WT24     286      MECN     N3       NG1T1   -0.460000       14.0070           0
     71556 WT24     288      MECN     C1       CG331   -0.170000       12.0110           0
     71557 WT24     288      MECN     H11      HGA3     0.090000        1.0080           0
     71558 WT24     288      MECN     H12      HGA3     0.090000        1.0080           0
     71559 WT24     288      MECN     H13      HGA3     0.090000        1.0080           0
     71560 WT24     288      MECN     C2       CG1N1    0.360000       12.0110           0
     71561 WT24     288      MECN     N3       NG1T1   -0.460000       14.0070           0
     71562 WT24     290      MECN     C1       CG331   -0.170000       12.0110           0
     71563 WT24     290      MECN     H11      HGA3     0.090000        1.0080           0
     71564 WT24     290      MECN     H12      HGA3     0.090000        1.0080           0
     71565 WT24     290      MECN     H13      HGA3     0.090000        1.0080           0
     71566 WT24     290      MECN     C2       CG1N1    0.360000       12.0110           0
     71567 WT24     290      MECN     N3       NG1T1   -0.460000       14.0070           0
     71568 WT24     294      MECN     C1       CG331   -0.170000       12.0110           0
     71569 WT24     294      MECN     H11      HGA3     0.090000        1.0080           0
     71570 WT24     294      MECN     H12      HGA3     0.090000        1.0080           0
     71571 WT24     294      MECN     H13      HGA3     0.090000        1.0080           0
     71572 WT24     294      MECN     C2       CG1N1    0.360000       12.0110           0
     71573 WT24     294      MECN     N3       NG1T1   -0.460000       14.0070           0
     71574 WT24     295      MECN     C1       CG331   -0.170000       12.0110           0
     71575 WT24     295      MECN     H11      HGA3     0.090000        1.0080           0
     71576 WT24     295      MECN     H12      HGA3     0.090000        1.0080           0
     71577 WT24     295      MECN     H13      HGA3     0.090000        1.0080           0
     71578 WT24     295      MECN     C2       CG1N1    0.360000       12.0110           0
     71579 WT24     295      MECN     N3       NG1T1   -0.460000       14.0070           0
     71580 WT24     301      MECN     C1       CG331   -0.170000       12.0110           0
     71581 WT24     301      MECN     H11      HGA3     0.090000        1.0080           0
     71582 WT24     301      MECN     H12      HGA3     0.090000        1.0080           0
     71583 WT24     301      MECN     H13      HGA3     0.090000        1.0080           0
     71584 WT24     301      MECN     C2       CG1N1    0.360000       12.0110           0
     71585 WT24     301      MECN     N3       NG1T1   -0.460000       14.0070           0
     71586 WT24     302      MECN     C1       CG331   -0.170000       12.0110           0
     71587 WT24     302      MECN     H11      HGA3     0.090000        1.0080           0
     71588 WT24     302      MECN     H12      HGA3     0.090000        1.0080           0
     71589 WT24     302      MECN     H13      HGA3     0.090000        1.0080           0
     71590 WT24     302      MECN     C2       CG1N1    0.360000       12.0110           0
     71591 WT24     302      MECN     N3       NG1T1   -0.460000       14.0070           0
     71592 WT24     303      MECN     C1       CG331   -0.170000       12.0110           0
     71593 WT24     303      MECN     H11      HGA3     0.090000        1.0080           0
     71594 WT24     303      MECN     H12      HGA3     0.090000        1.0080           0
     71595 WT24     303      MECN     H13      HGA3     0.090000        1.0080           0
     71596 WT24     303      MECN     C2       CG1N1    0.360000       12.0110           0
     71597 WT24     303      MECN     N3       NG1T1   -0.460000       14.0070           0
     71598 WT24     304      MECN     C1       CG331   -0.170000       12.0110           0
     71599 WT24     304      MECN     H11      HGA3     0.090000        1.0080           0
     71600 WT24     304      MECN     H12      HGA3     0.090000        1.0080           0
     71601 WT24     304      MECN     H13      HGA3     0.090000        1.0080           0
     71602 WT24     304      MECN     C2       CG1N1    0.360000       12.0110           0
     71603 WT24     304      MECN     N3       NG1T1   -0.460000       14.0070           0
     71604 WT24     305      MECN     C1       CG331   -0.170000       12.0110           0
     71605 WT24     305      MECN     H11      HGA3     0.090000        1.0080           0
     71606 WT24     305      MECN     H12      HGA3     0.090000        1.0080           0
     71607 WT24     305      MECN     H13      HGA3     0.090000        1.0080           0
     71608 WT24     305      MECN     C2       CG1N1    0.360000       12.0110           0
     71609 WT24     305      MECN     N3       NG1T1   -0.460000       14.0070           0
     71610 WT24     307      MECN     C1       CG331   -0.170000       12.0110           0
     71611 WT24     307      MECN     H11      HGA3     0.090000        1.0080           0
     71612 WT24     307      MECN     H12      HGA3     0.090000        1.0080           0
     71613 WT24     307      MECN     H13      HGA3     0.090000        1.0080           0
     71614 WT24     307      MECN     C2       CG1N1    0.360000       12.0110           0
     71615 WT24     307      MECN     N3       NG1T1   -0.460000       14.0070           0
     71616 WT24     308      MECN     C1       CG331   -0.170000       12.0110           0
     71617 WT24     308      MECN     H11      HGA3     0.090000        1.0080           0
     71618 WT24     308      MECN     H12      HGA3     0.090000        1.0080           0
     71619 WT24     308      MECN     H13      HGA3     0.090000        1.0080           0
     71620 WT24     308      MECN     C2       CG1N1    0.360000       12.0110           0
     71621 WT24     308      MECN     N3       NG1T1   -0.460000       14.0070           0
     71622 WT24     309      MECN     C1       CG331   -0.170000       12.0110           0
     71623 WT24     309      MECN     H11      HGA3     0.090000        1.0080           0
     71624 WT24     309      MECN     H12      HGA3     0.090000        1.0080           0
     71625 WT24     309      MECN     H13      HGA3     0.090000        1.0080           0
     71626 WT24     309      MECN     C2       CG1N1    0.360000       12.0110           0
     71627 WT24     309      MECN     N3       NG1T1   -0.460000       14.0070           0
     71628 WT24     314      MECN     C1       CG331   -0.170000       12.0110           0
     71629 WT24     314      MECN     H11      HGA3     0.090000        1.0080           0
     71630 WT24     314      MECN     H12      HGA3     0.090000        1.0080           0
     71631 WT24     314      MECN     H13      HGA3     0.090000        1.0080           0
     71632 WT24     314      MECN     C2       CG1N1    0.360000       12.0110           0
     71633 WT24     314      MECN     N3       NG1T1   -0.460000       14.0070           0
     71634 WT24     316      MECN     C1       CG331   -0.170000       12.0110           0
     71635 WT24     316      MECN     H11      HGA3     0.090000        1.0080           0
     71636 WT24     316      MECN     H12      HGA3     0.090000        1.0080           0
     71637 WT24     316      MECN     H13      HGA3     0.090000        1.0080           0
     71638 WT24     316      MECN     C2       CG1N1    0.360000       12.0110           0
     71639 WT24     316      MECN     N3       NG1T1   -0.460000       14.0070           0
     71640 WT24     318      MECN     C1       CG331   -0.170000       12.0110           0
     71641 WT24     318      MECN     H11      HGA3     0.090000        1.0080           0
     71642 WT24     318      MECN     H12      HGA3     0.090000        1.0080           0
     71643 WT24     318      MECN     H13      HGA3     0.090000        1.0080           0
     71644 WT24     318      MECN     C2       CG1N1    0.360000       12.0110           0
     71645 WT24     318      MECN     N3       NG1T1   -0.460000       14.0070           0
     71646 WT24     319      MECN     C1       CG331   -0.170000       12.0110           0
     71647 WT24     319      MECN     H11      HGA3     0.090000        1.0080           0
     71648 WT24     319      MECN     H12      HGA3     0.090000        1.0080           0
     71649 WT24     319      MECN     H13      HGA3     0.090000        1.0080           0
     71650 WT24     319      MECN     C2       CG1N1    0.360000       12.0110           0
     71651 WT24     319      MECN     N3       NG1T1   -0.460000       14.0070           0
     71652 WT24     320      MECN     C1       CG331   -0.170000       12.0110           0
     71653 WT24     320      MECN     H11      HGA3     0.090000        1.0080           0
     71654 WT24     320      MECN     H12      HGA3     0.090000        1.0080           0
     71655 WT24     320      MECN     H13      HGA3     0.090000        1.0080           0
     71656 WT24     320      MECN     C2       CG1N1    0.360000       12.0110           0
     71657 WT24     320      MECN     N3       NG1T1   -0.460000       14.0070           0
     71658 WT24     329      MECN     C1       CG331   -0.170000       12.0110           0
     71659 WT24     329      MECN     H11      HGA3     0.090000        1.0080           0
     71660 WT24     329      MECN     H12      HGA3     0.090000        1.0080           0
     71661 WT24     329      MECN     H13      HGA3     0.090000        1.0080           0
     71662 WT24     329      MECN     C2       CG1N1    0.360000       12.0110           0
     71663 WT24     329      MECN     N3       NG1T1   -0.460000       14.0070           0
     71664 WT24     330      MECN     C1       CG331   -0.170000       12.0110           0
     71665 WT24     330      MECN     H11      HGA3     0.090000        1.0080           0
     71666 WT24     330      MECN     H12      HGA3     0.090000        1.0080           0
     71667 WT24     330      MECN     H13      HGA3     0.090000        1.0080           0
     71668 WT24     330      MECN     C2       CG1N1    0.360000       12.0110           0
     71669 WT24     330      MECN     N3       NG1T1   -0.460000       14.0070           0
     71670 WT24     331      MECN     C1       CG331   -0.170000       12.0110           0
     71671 WT24     331      MECN     H11      HGA3     0.090000        1.0080           0
     71672 WT24     331      MECN     H12      HGA3     0.090000        1.0080           0
     71673 WT24     331      MECN     H13      HGA3     0.090000        1.0080           0
     71674 WT24     331      MECN     C2       CG1N1    0.360000       12.0110           0
     71675 WT24     331      MECN     N3       NG1T1   -0.460000       14.0070           0
     71676 WT24     333      MECN     C1       CG331   -0.170000       12.0110           0
     71677 WT24     333      MECN     H11      HGA3     0.090000        1.0080           0
     71678 WT24     333      MECN     H12      HGA3     0.090000        1.0080           0
     71679 WT24     333      MECN     H13      HGA3     0.090000        1.0080           0
     71680 WT24     333      MECN     C2       CG1N1    0.360000       12.0110           0
     71681 WT24     333      MECN     N3       NG1T1   -0.460000       14.0070           0
     71682 WT24     334      MECN     C1       CG331   -0.170000       12.0110           0
     71683 WT24     334      MECN     H11      HGA3     0.090000        1.0080           0
     71684 WT24     334      MECN     H12      HGA3     0.090000        1.0080           0
     71685 WT24     334      MECN     H13      HGA3     0.090000        1.0080           0
     71686 WT24     334      MECN     C2       CG1N1    0.360000       12.0110           0
     71687 WT24     334      MECN     N3       NG1T1   -0.460000       14.0070           0
     71688 WT24     341      MECN     C1       CG331   -0.170000       12.0110           0
     71689 WT24     341      MECN     H11      HGA3     0.090000        1.0080           0
     71690 WT24     341      MECN     H12      HGA3     0.090000        1.0080           0
     71691 WT24     341      MECN     H13      HGA3     0.090000        1.0080           0
     71692 WT24     341      MECN     C2       CG1N1    0.360000       12.0110           0
     71693 WT24     341      MECN     N3       NG1T1   -0.460000       14.0070           0
     71694 WT24     343      MECN     C1       CG331   -0.170000       12.0110           0
     71695 WT24     343      MECN     H11      HGA3     0.090000        1.0080           0
     71696 WT24     343      MECN     H12      HGA3     0.090000        1.0080           0
     71697 WT24     343      MECN     H13      HGA3     0.090000        1.0080           0
     71698 WT24     343      MECN     C2       CG1N1    0.360000       12.0110           0
     71699 WT24     343      MECN     N3       NG1T1   -0.460000       14.0070           0
     71700 WT24     345      MECN     C1       CG331   -0.170000       12.0110           0
     71701 WT24     345      MECN     H11      HGA3     0.090000        1.0080           0
     71702 WT24     345      MECN     H12      HGA3     0.090000        1.0080           0
     71703 WT24     345      MECN     H13      HGA3     0.090000        1.0080           0
     71704 WT24     345      MECN     C2       CG1N1    0.360000       12.0110           0
     71705 WT24     345      MECN     N3       NG1T1   -0.460000       14.0070           0
     71706 WT24     346      MECN     C1       CG331   -0.170000       12.0110           0
     71707 WT24     346      MECN     H11      HGA3     0.090000        1.0080           0
     71708 WT24     346      MECN     H12      HGA3     0.090000        1.0080           0
     71709 WT24     346      MECN     H13      HGA3     0.090000        1.0080           0
     71710 WT24     346      MECN     C2       CG1N1    0.360000       12.0110           0
     71711 WT24     346      MECN     N3       NG1T1   -0.460000       14.0070           0
     71712 WT24     347      MECN     C1       CG331   -0.170000       12.0110           0
     71713 WT24     347      MECN     H11      HGA3     0.090000        1.0080           0
     71714 WT24     347      MECN     H12      HGA3     0.090000        1.0080           0
     71715 WT24     347      MECN     H13      HGA3     0.090000        1.0080           0
     71716 WT24     347      MECN     C2       CG1N1    0.360000       12.0110           0
     71717 WT24     347      MECN     N3       NG1T1   -0.460000       14.0070           0
     71718 WT24     350      MECN     C1       CG331   -0.170000       12.0110           0
     71719 WT24     350      MECN     H11      HGA3     0.090000        1.0080           0
     71720 WT24     350      MECN     H12      HGA3     0.090000        1.0080           0
     71721 WT24     350      MECN     H13      HGA3     0.090000        1.0080           0
     71722 WT24     350      MECN     C2       CG1N1    0.360000       12.0110           0
     71723 WT24     350      MECN     N3       NG1T1   -0.460000       14.0070           0
     71724 WT24     351      MECN     C1       CG331   -0.170000       12.0110           0
     71725 WT24     351      MECN     H11      HGA3     0.090000        1.0080           0
     71726 WT24     351      MECN     H12      HGA3     0.090000        1.0080           0
     71727 WT24     351      MECN     H13      HGA3     0.090000        1.0080           0
     71728 WT24     351      MECN     C2       CG1N1    0.360000       12.0110           0
     71729 WT24     351      MECN     N3       NG1T1   -0.460000       14.0070           0
     71730 WT24     353      MECN     C1       CG331   -0.170000       12.0110           0
     71731 WT24     353      MECN     H11      HGA3     0.090000        1.0080           0
     71732 WT24     353      MECN     H12      HGA3     0.090000        1.0080           0
     71733 WT24     353      MECN     H13      HGA3     0.090000        1.0080           0
     71734 WT24     353      MECN     C2       CG1N1    0.360000       12.0110           0
     71735 WT24     353      MECN     N3       NG1T1   -0.460000       14.0070           0
     71736 WT24     355      MECN     C1       CG331   -0.170000       12.0110           0
     71737 WT24     355      MECN     H11      HGA3     0.090000        1.0080           0
     71738 WT24     355      MECN     H12      HGA3     0.090000        1.0080           0
     71739 WT24     355      MECN     H13      HGA3     0.090000        1.0080           0
     71740 WT24     355      MECN     C2       CG1N1    0.360000       12.0110           0
     71741 WT24     355      MECN     N3       NG1T1   -0.460000       14.0070           0
     71742 WT24     358      MECN     C1       CG331   -0.170000       12.0110           0
     71743 WT24     358      MECN     H11      HGA3     0.090000        1.0080           0
     71744 WT24     358      MECN     H12      HGA3     0.090000        1.0080           0
     71745 WT24     358      MECN     H13      HGA3     0.090000        1.0080           0
     71746 WT24     358      MECN     C2       CG1N1    0.360000       12.0110           0
     71747 WT24     358      MECN     N3       NG1T1   -0.460000       14.0070           0
     71748 WT24     359      MECN     C1       CG331   -0.170000       12.0110           0
     71749 WT24     359      MECN     H11      HGA3     0.090000        1.0080           0
     71750 WT24     359      MECN     H12      HGA3     0.090000        1.0080           0
     71751 WT24     359      MECN     H13      HGA3     0.090000        1.0080           0
     71752 WT24     359      MECN     C2       CG1N1    0.360000       12.0110           0
     71753 WT24     359      MECN     N3       NG1T1   -0.460000       14.0070           0
     71754 WT24     361      MECN     C1       CG331   -0.170000       12.0110           0
     71755 WT24     361      MECN     H11      HGA3     0.090000        1.0080           0
     71756 WT24     361      MECN     H12      HGA3     0.090000        1.0080           0
     71757 WT24     361      MECN     H13      HGA3     0.090000        1.0080           0
     71758 WT24     361      MECN     C2       CG1N1    0.360000       12.0110           0
     71759 WT24     361      MECN     N3       NG1T1   -0.460000       14.0070           0
     71760 WT24     362      MECN     C1       CG331   -0.170000       12.0110           0
     71761 WT24     362      MECN     H11      HGA3     0.090000        1.0080           0
     71762 WT24     362      MECN     H12      HGA3     0.090000        1.0080           0
     71763 WT24     362      MECN     H13      HGA3     0.090000        1.0080           0
     71764 WT24     362      MECN     C2       CG1N1    0.360000       12.0110           0
     71765 WT24     362      MECN     N3       NG1T1   -0.460000       14.0070           0
     71766 WT24     363      MECN     C1       CG331   -0.170000       12.0110           0
     71767 WT24     363      MECN     H11      HGA3     0.090000        1.0080           0
     71768 WT24     363      MECN     H12      HGA3     0.090000        1.0080           0
     71769 WT24     363      MECN     H13      HGA3     0.090000        1.0080           0
     71770 WT24     363      MECN     C2       CG1N1    0.360000       12.0110           0
     71771 WT24     363      MECN     N3       NG1T1   -0.460000       14.0070           0
     71772 WT24     364      MECN     C1       CG331   -0.170000       12.0110           0
     71773 WT24     364      MECN     H11      HGA3     0.090000        1.0080           0
     71774 WT24     364      MECN     H12      HGA3     0.090000        1.0080           0
     71775 WT24     364      MECN     H13      HGA3     0.090000        1.0080           0
     71776 WT24     364      MECN     C2       CG1N1    0.360000       12.0110           0
     71777 WT24     364      MECN     N3       NG1T1   -0.460000       14.0070           0
     71778 WT24     365      MECN     C1       CG331   -0.170000       12.0110           0
     71779 WT24     365      MECN     H11      HGA3     0.090000        1.0080           0
     71780 WT24     365      MECN     H12      HGA3     0.090000        1.0080           0
     71781 WT24     365      MECN     H13      HGA3     0.090000        1.0080           0
     71782 WT24     365      MECN     C2       CG1N1    0.360000       12.0110           0
     71783 WT24     365      MECN     N3       NG1T1   -0.460000       14.0070           0
     71784 WT24     369      MECN     C1       CG331   -0.170000       12.0110           0
     71785 WT24     369      MECN     H11      HGA3     0.090000        1.0080           0
     71786 WT24     369      MECN     H12      HGA3     0.090000        1.0080           0
     71787 WT24     369      MECN     H13      HGA3     0.090000        1.0080           0
     71788 WT24     369      MECN     C2       CG1N1    0.360000       12.0110           0
     71789 WT24     369      MECN     N3       NG1T1   -0.460000       14.0070           0
     71790 WT24     373      MECN     C1       CG331   -0.170000       12.0110           0
     71791 WT24     373      MECN     H11      HGA3     0.090000        1.0080           0
     71792 WT24     373      MECN     H12      HGA3     0.090000        1.0080           0
     71793 WT24     373      MECN     H13      HGA3     0.090000        1.0080           0
     71794 WT24     373      MECN     C2       CG1N1    0.360000       12.0110           0
     71795 WT24     373      MECN     N3       NG1T1   -0.460000       14.0070           0
     71796 WT24     375      MECN     C1       CG331   -0.170000       12.0110           0
     71797 WT24     375      MECN     H11      HGA3     0.090000        1.0080           0
     71798 WT24     375      MECN     H12      HGA3     0.090000        1.0080           0
     71799 WT24     375      MECN     H13      HGA3     0.090000        1.0080           0
     71800 WT24     375      MECN     C2       CG1N1    0.360000       12.0110           0
     71801 WT24     375      MECN     N3       NG1T1   -0.460000       14.0070           0
     71802 WT24     376      MECN     C1       CG331   -0.170000       12.0110           0
     71803 WT24     376      MECN     H11      HGA3     0.090000        1.0080           0
     71804 WT24     376      MECN     H12      HGA3     0.090000        1.0080           0
     71805 WT24     376      MECN     H13      HGA3     0.090000        1.0080           0
     71806 WT24     376      MECN     C2       CG1N1    0.360000       12.0110           0
     71807 WT24     376      MECN     N3       NG1T1   -0.460000       14.0070           0
     71808 WT24     377      MECN     C1       CG331   -0.170000       12.0110           0
     71809 WT24     377      MECN     H11      HGA3     0.090000        1.0080           0
     71810 WT24     377      MECN     H12      HGA3     0.090000        1.0080           0
     71811 WT24     377      MECN     H13      HGA3     0.090000        1.0080           0
     71812 WT24     377      MECN     C2       CG1N1    0.360000       12.0110           0
     71813 WT24     377      MECN     N3       NG1T1   -0.460000       14.0070           0
     71814 WT24     380      MECN     C1       CG331   -0.170000       12.0110           0
     71815 WT24     380      MECN     H11      HGA3     0.090000        1.0080           0
     71816 WT24     380      MECN     H12      HGA3     0.090000        1.0080           0
     71817 WT24     380      MECN     H13      HGA3     0.090000        1.0080           0
     71818 WT24     380      MECN     C2       CG1N1    0.360000       12.0110           0
     71819 WT24     380      MECN     N3       NG1T1   -0.460000       14.0070           0
     71820 WT24     385      MECN     C1       CG331   -0.170000       12.0110           0
     71821 WT24     385      MECN     H11      HGA3     0.090000        1.0080           0
     71822 WT24     385      MECN     H12      HGA3     0.090000        1.0080           0
     71823 WT24     385      MECN     H13      HGA3     0.090000        1.0080           0
     71824 WT24     385      MECN     C2       CG1N1    0.360000       12.0110           0
     71825 WT24     385      MECN     N3       NG1T1   -0.460000       14.0070           0
     71826 WT24     389      MECN     C1       CG331   -0.170000       12.0110           0
     71827 WT24     389      MECN     H11      HGA3     0.090000        1.0080           0
     71828 WT24     389      MECN     H12      HGA3     0.090000        1.0080           0
     71829 WT24     389      MECN     H13      HGA3     0.090000        1.0080           0
     71830 WT24     389      MECN     C2       CG1N1    0.360000       12.0110           0
     71831 WT24     389      MECN     N3       NG1T1   -0.460000       14.0070           0
     71832 WT24     391      MECN     C1       CG331   -0.170000       12.0110           0
     71833 WT24     391      MECN     H11      HGA3     0.090000        1.0080           0
     71834 WT24     391      MECN     H12      HGA3     0.090000        1.0080           0
     71835 WT24     391      MECN     H13      HGA3     0.090000        1.0080           0
     71836 WT24     391      MECN     C2       CG1N1    0.360000       12.0110           0
     71837 WT24     391      MECN     N3       NG1T1   -0.460000       14.0070           0
     71838 WT24     393      MECN     C1       CG331   -0.170000       12.0110           0
     71839 WT24     393      MECN     H11      HGA3     0.090000        1.0080           0
     71840 WT24     393      MECN     H12      HGA3     0.090000        1.0080           0
     71841 WT24     393      MECN     H13      HGA3     0.090000        1.0080           0
     71842 WT24     393      MECN     C2       CG1N1    0.360000       12.0110           0
     71843 WT24     393      MECN     N3       NG1T1   -0.460000       14.0070           0
     71844 WT24     395      MECN     C1       CG331   -0.170000       12.0110           0
     71845 WT24     395      MECN     H11      HGA3     0.090000        1.0080           0
     71846 WT24     395      MECN     H12      HGA3     0.090000        1.0080           0
     71847 WT24     395      MECN     H13      HGA3     0.090000        1.0080           0
     71848 WT24     395      MECN     C2       CG1N1    0.360000       12.0110           0
     71849 WT24     395      MECN     N3       NG1T1   -0.460000       14.0070           0
     71850 WT24     399      MECN     C1       CG331   -0.170000       12.0110           0
     71851 WT24     399      MECN     H11      HGA3     0.090000        1.0080           0
     71852 WT24     399      MECN     H12      HGA3     0.090000        1.0080           0
     71853 WT24     399      MECN     H13      HGA3     0.090000        1.0080           0
     71854 WT24     399      MECN     C2       CG1N1    0.360000       12.0110           0
     71855 WT24     399      MECN     N3       NG1T1   -0.460000       14.0070           0
     71856 WT24     401      MECN     C1       CG331   -0.170000       12.0110           0
     71857 WT24     401      MECN     H11      HGA3     0.090000        1.0080           0
     71858 WT24     401      MECN     H12      HGA3     0.090000        1.0080           0
     71859 WT24     401      MECN     H13      HGA3     0.090000        1.0080           0
     71860 WT24     401      MECN     C2       CG1N1    0.360000       12.0110           0
     71861 WT24     401      MECN     N3       NG1T1   -0.460000       14.0070           0
     71862 WT24     405      MECN     C1       CG331   -0.170000       12.0110           0
     71863 WT24     405      MECN     H11      HGA3     0.090000        1.0080           0
     71864 WT24     405      MECN     H12      HGA3     0.090000        1.0080           0
     71865 WT24     405      MECN     H13      HGA3     0.090000        1.0080           0
     71866 WT24     405      MECN     C2       CG1N1    0.360000       12.0110           0
     71867 WT24     405      MECN     N3       NG1T1   -0.460000       14.0070           0
     71868 WT24     406      MECN     C1       CG331   -0.170000       12.0110           0
     71869 WT24     406      MECN     H11      HGA3     0.090000        1.0080           0
     71870 WT24     406      MECN     H12      HGA3     0.090000        1.0080           0
     71871 WT24     406      MECN     H13      HGA3     0.090000        1.0080           0
     71872 WT24     406      MECN     C2       CG1N1    0.360000       12.0110           0
     71873 WT24     406      MECN     N3       NG1T1   -0.460000       14.0070           0
     71874 WT24     407      MECN     C1       CG331   -0.170000       12.0110           0
     71875 WT24     407      MECN     H11      HGA3     0.090000        1.0080           0
     71876 WT24     407      MECN     H12      HGA3     0.090000        1.0080           0
     71877 WT24     407      MECN     H13      HGA3     0.090000        1.0080           0
     71878 WT24     407      MECN     C2       CG1N1    0.360000       12.0110           0
     71879 WT24     407      MECN     N3       NG1T1   -0.460000       14.0070           0
     71880 WT24     409      MECN     C1       CG331   -0.170000       12.0110           0
     71881 WT24     409      MECN     H11      HGA3     0.090000        1.0080           0
     71882 WT24     409      MECN     H12      HGA3     0.090000        1.0080           0
     71883 WT24     409      MECN     H13      HGA3     0.090000        1.0080           0
     71884 WT24     409      MECN     C2       CG1N1    0.360000       12.0110           0
     71885 WT24     409      MECN     N3       NG1T1   -0.460000       14.0070           0
     71886 WT24     410      MECN     C1       CG331   -0.170000       12.0110           0
     71887 WT24     410      MECN     H11      HGA3     0.090000        1.0080           0
     71888 WT24     410      MECN     H12      HGA3     0.090000        1.0080           0
     71889 WT24     410      MECN     H13      HGA3     0.090000        1.0080           0
     71890 WT24     410      MECN     C2       CG1N1    0.360000       12.0110           0
     71891 WT24     410      MECN     N3       NG1T1   -0.460000       14.0070           0
     71892 WT24     411      MECN     C1       CG331   -0.170000       12.0110           0
     71893 WT24     411      MECN     H11      HGA3     0.090000        1.0080           0
     71894 WT24     411      MECN     H12      HGA3     0.090000        1.0080           0
     71895 WT24     411      MECN     H13      HGA3     0.090000        1.0080           0
     71896 WT24     411      MECN     C2       CG1N1    0.360000       12.0110           0
     71897 WT24     411      MECN     N3       NG1T1   -0.460000       14.0070           0
     71898 WT24     413      MECN     C1       CG331   -0.170000       12.0110           0
     71899 WT24     413      MECN     H11      HGA3     0.090000        1.0080           0
     71900 WT24     413      MECN     H12      HGA3     0.090000        1.0080           0
     71901 WT24     413      MECN     H13      HGA3     0.090000        1.0080           0
     71902 WT24     413      MECN     C2       CG1N1    0.360000       12.0110           0
     71903 WT24     413      MECN     N3       NG1T1   -0.460000       14.0070           0
     71904 WT24     414      MECN     C1       CG331   -0.170000       12.0110           0
     71905 WT24     414      MECN     H11      HGA3     0.090000        1.0080           0
     71906 WT24     414      MECN     H12      HGA3     0.090000        1.0080           0
     71907 WT24     414      MECN     H13      HGA3     0.090000        1.0080           0
     71908 WT24     414      MECN     C2       CG1N1    0.360000       12.0110           0
     71909 WT24     414      MECN     N3       NG1T1   -0.460000       14.0070           0
     71910 WT24     417      MECN     C1       CG331   -0.170000       12.0110           0
     71911 WT24     417      MECN     H11      HGA3     0.090000        1.0080           0
     71912 WT24     417      MECN     H12      HGA3     0.090000        1.0080           0
     71913 WT24     417      MECN     H13      HGA3     0.090000        1.0080           0
     71914 WT24     417      MECN     C2       CG1N1    0.360000       12.0110           0
     71915 WT24     417      MECN     N3       NG1T1   -0.460000       14.0070           0
     71916 WT24     418      MECN     C1       CG331   -0.170000       12.0110           0
     71917 WT24     418      MECN     H11      HGA3     0.090000        1.0080           0
     71918 WT24     418      MECN     H12      HGA3     0.090000        1.0080           0
     71919 WT24     418      MECN     H13      HGA3     0.090000        1.0080           0
     71920 WT24     418      MECN     C2       CG1N1    0.360000       12.0110           0
     71921 WT24     418      MECN     N3       NG1T1   -0.460000       14.0070           0
     71922 WT24     419      MECN     C1       CG331   -0.170000       12.0110           0
     71923 WT24     419      MECN     H11      HGA3     0.090000        1.0080           0
     71924 WT24     419      MECN     H12      HGA3     0.090000        1.0080           0
     71925 WT24     419      MECN     H13      HGA3     0.090000        1.0080           0
     71926 WT24     419      MECN     C2       CG1N1    0.360000       12.0110           0
     71927 WT24     419      MECN     N3       NG1T1   -0.460000       14.0070           0
     71928 WT24     420      MECN     C1       CG331   -0.170000       12.0110           0
     71929 WT24     420      MECN     H11      HGA3     0.090000        1.0080           0
     71930 WT24     420      MECN     H12      HGA3     0.090000        1.0080           0
     71931 WT24     420      MECN     H13      HGA3     0.090000        1.0080           0
     71932 WT24     420      MECN     C2       CG1N1    0.360000       12.0110           0
     71933 WT24     420      MECN     N3       NG1T1   -0.460000       14.0070           0
     71934 WT24     422      MECN     C1       CG331   -0.170000       12.0110           0
     71935 WT24     422      MECN     H11      HGA3     0.090000        1.0080           0
     71936 WT24     422      MECN     H12      HGA3     0.090000        1.0080           0
     71937 WT24     422      MECN     H13      HGA3     0.090000        1.0080           0
     71938 WT24     422      MECN     C2       CG1N1    0.360000       12.0110           0
     71939 WT24     422      MECN     N3       NG1T1   -0.460000       14.0070           0
     71940 WT24     427      MECN     C1       CG331   -0.170000       12.0110           0
     71941 WT24     427      MECN     H11      HGA3     0.090000        1.0080           0
     71942 WT24     427      MECN     H12      HGA3     0.090000        1.0080           0
     71943 WT24     427      MECN     H13      HGA3     0.090000        1.0080           0
     71944 WT24     427      MECN     C2       CG1N1    0.360000       12.0110           0
     71945 WT24     427      MECN     N3       NG1T1   -0.460000       14.0070           0
     71946 WT24     429      MECN     C1       CG331   -0.170000       12.0110           0
     71947 WT24     429      MECN     H11      HGA3     0.090000        1.0080           0
     71948 WT24     429      MECN     H12      HGA3     0.090000        1.0080           0
     71949 WT24     429      MECN     H13      HGA3     0.090000        1.0080           0
     71950 WT24     429      MECN     C2       CG1N1    0.360000       12.0110           0
     71951 WT24     429      MECN     N3       NG1T1   -0.460000       14.0070           0
     71952 WT24     431      MECN     C1       CG331   -0.170000       12.0110           0
     71953 WT24     431      MECN     H11      HGA3     0.090000        1.0080           0
     71954 WT24     431      MECN     H12      HGA3     0.090000        1.0080           0
     71955 WT24     431      MECN     H13      HGA3     0.090000        1.0080           0
     71956 WT24     431      MECN     C2       CG1N1    0.360000       12.0110           0
     71957 WT24     431      MECN     N3       NG1T1   -0.460000       14.0070           0
     71958 WT24     433      MECN     C1       CG331   -0.170000       12.0110           0
     71959 WT24     433      MECN     H11      HGA3     0.090000        1.0080           0
     71960 WT24     433      MECN     H12      HGA3     0.090000        1.0080           0
     71961 WT24     433      MECN     H13      HGA3     0.090000        1.0080           0
     71962 WT24     433      MECN     C2       CG1N1    0.360000       12.0110           0
     71963 WT24     433      MECN     N3       NG1T1   -0.460000       14.0070           0
     71964 WT24     434      MECN     C1       CG331   -0.170000       12.0110           0
     71965 WT24     434      MECN     H11      HGA3     0.090000        1.0080           0
     71966 WT24     434      MECN     H12      HGA3     0.090000        1.0080           0
     71967 WT24     434      MECN     H13      HGA3     0.090000        1.0080           0
     71968 WT24     434      MECN     C2       CG1N1    0.360000       12.0110           0
     71969 WT24     434      MECN     N3       NG1T1   -0.460000       14.0070           0
     71970 WT24     435      MECN     C1       CG331   -0.170000       12.0110           0
     71971 WT24     435      MECN     H11      HGA3     0.090000        1.0080           0
     71972 WT24     435      MECN     H12      HGA3     0.090000        1.0080           0
     71973 WT24     435      MECN     H13      HGA3     0.090000        1.0080           0
     71974 WT24     435      MECN     C2       CG1N1    0.360000       12.0110           0
     71975 WT24     435      MECN     N3       NG1T1   -0.460000       14.0070           0
     71976 WT24     439      MECN     C1       CG331   -0.170000       12.0110           0
     71977 WT24     439      MECN     H11      HGA3     0.090000        1.0080           0
     71978 WT24     439      MECN     H12      HGA3     0.090000        1.0080           0
     71979 WT24     439      MECN     H13      HGA3     0.090000        1.0080           0
     71980 WT24     439      MECN     C2       CG1N1    0.360000       12.0110           0
     71981 WT24     439      MECN     N3       NG1T1   -0.460000       14.0070           0
     71982 WT24     440      MECN     C1       CG331   -0.170000       12.0110           0
     71983 WT24     440      MECN     H11      HGA3     0.090000        1.0080           0
     71984 WT24     440      MECN     H12      HGA3     0.090000        1.0080           0
     71985 WT24     440      MECN     H13      HGA3     0.090000        1.0080           0
     71986 WT24     440      MECN     C2       CG1N1    0.360000       12.0110           0
     71987 WT24     440      MECN     N3       NG1T1   -0.460000       14.0070           0
     71988 WT24     441      MECN     C1       CG331   -0.170000       12.0110           0
     71989 WT24     441      MECN     H11      HGA3     0.090000        1.0080           0
     71990 WT24     441      MECN     H12      HGA3     0.090000        1.0080           0
     71991 WT24     441      MECN     H13      HGA3     0.090000        1.0080           0
     71992 WT24     441      MECN     C2       CG1N1    0.360000       12.0110           0
     71993 WT24     441      MECN     N3       NG1T1   -0.460000       14.0070           0
     71994 WT24     443      MECN     C1       CG331   -0.170000       12.0110           0
     71995 WT24     443      MECN     H11      HGA3     0.090000        1.0080           0
     71996 WT24     443      MECN     H12      HGA3     0.090000        1.0080           0
     71997 WT24     443      MECN     H13      HGA3     0.090000        1.0080           0
     71998 WT24     443      MECN     C2       CG1N1    0.360000       12.0110           0
     71999 WT24     443      MECN     N3       NG1T1   -0.460000       14.0070           0
     72000 WT24     445      MECN     C1       CG331   -0.170000       12.0110           0
     72001 WT24     445      MECN     H11      HGA3     0.090000        1.0080           0
     72002 WT24     445      MECN     H12      HGA3     0.090000        1.0080           0
     72003 WT24     445      MECN     H13      HGA3     0.090000        1.0080           0
     72004 WT24     445      MECN     C2       CG1N1    0.360000       12.0110           0
     72005 WT24     445      MECN     N3       NG1T1   -0.460000       14.0070           0
     72006 WT24     448      MECN     C1       CG331   -0.170000       12.0110           0
     72007 WT24     448      MECN     H11      HGA3     0.090000        1.0080           0
     72008 WT24     448      MECN     H12      HGA3     0.090000        1.0080           0
     72009 WT24     448      MECN     H13      HGA3     0.090000        1.0080           0
     72010 WT24     448      MECN     C2       CG1N1    0.360000       12.0110           0
     72011 WT24     448      MECN     N3       NG1T1   -0.460000       14.0070           0
     72012 WT24     449      MECN     C1       CG331   -0.170000       12.0110           0
     72013 WT24     449      MECN     H11      HGA3     0.090000        1.0080           0
     72014 WT24     449      MECN     H12      HGA3     0.090000        1.0080           0
     72015 WT24     449      MECN     H13      HGA3     0.090000        1.0080           0
     72016 WT24     449      MECN     C2       CG1N1    0.360000       12.0110           0
     72017 WT24     449      MECN     N3       NG1T1   -0.460000       14.0070           0
     72018 WT24     450      MECN     C1       CG331   -0.170000       12.0110           0
     72019 WT24     450      MECN     H11      HGA3     0.090000        1.0080           0
     72020 WT24     450      MECN     H12      HGA3     0.090000        1.0080           0
     72021 WT24     450      MECN     H13      HGA3     0.090000        1.0080           0
     72022 WT24     450      MECN     C2       CG1N1    0.360000       12.0110           0
     72023 WT24     450      MECN     N3       NG1T1   -0.460000       14.0070           0
     72024 WT24     452      MECN     C1       CG331   -0.170000       12.0110           0
     72025 WT24     452      MECN     H11      HGA3     0.090000        1.0080           0
     72026 WT24     452      MECN     H12      HGA3     0.090000        1.0080           0
     72027 WT24     452      MECN     H13      HGA3     0.090000        1.0080           0
     72028 WT24     452      MECN     C2       CG1N1    0.360000       12.0110           0
     72029 WT24     452      MECN     N3       NG1T1   -0.460000       14.0070           0
     72030 WT24     455      MECN     C1       CG331   -0.170000       12.0110           0
     72031 WT24     455      MECN     H11      HGA3     0.090000        1.0080           0
     72032 WT24     455      MECN     H12      HGA3     0.090000        1.0080           0
     72033 WT24     455      MECN     H13      HGA3     0.090000        1.0080           0
     72034 WT24     455      MECN     C2       CG1N1    0.360000       12.0110           0
     72035 WT24     455      MECN     N3       NG1T1   -0.460000       14.0070           0
     72036 WT24     456      MECN     C1       CG331   -0.170000       12.0110           0
     72037 WT24     456      MECN     H11      HGA3     0.090000        1.0080           0
     72038 WT24     456      MECN     H12      HGA3     0.090000        1.0080           0
     72039 WT24     456      MECN     H13      HGA3     0.090000        1.0080           0
     72040 WT24     456      MECN     C2       CG1N1    0.360000       12.0110           0
     72041 WT24     456      MECN     N3       NG1T1   -0.460000       14.0070           0
     72042 WT24     459      MECN     C1       CG331   -0.170000       12.0110           0
     72043 WT24     459      MECN     H11      HGA3     0.090000        1.0080           0
     72044 WT24     459      MECN     H12      HGA3     0.090000        1.0080           0
     72045 WT24     459      MECN     H13      HGA3     0.090000        1.0080           0
     72046 WT24     459      MECN     C2       CG1N1    0.360000       12.0110           0
     72047 WT24     459      MECN     N3       NG1T1   -0.460000       14.0070           0
     72048 WT24     460      MECN     C1       CG331   -0.170000       12.0110           0
     72049 WT24     460      MECN     H11      HGA3     0.090000        1.0080           0
     72050 WT24     460      MECN     H12      HGA3     0.090000        1.0080           0
     72051 WT24     460      MECN     H13      HGA3     0.090000        1.0080           0
     72052 WT24     460      MECN     C2       CG1N1    0.360000       12.0110           0
     72053 WT24     460      MECN     N3       NG1T1   -0.460000       14.0070           0
     72054 WT24     461      MECN     C1       CG331   -0.170000       12.0110           0
     72055 WT24     461      MECN     H11      HGA3     0.090000        1.0080           0
     72056 WT24     461      MECN     H12      HGA3     0.090000        1.0080           0
     72057 WT24     461      MECN     H13      HGA3     0.090000        1.0080           0
     72058 WT24     461      MECN     C2       CG1N1    0.360000       12.0110           0
     72059 WT24     461      MECN     N3       NG1T1   -0.460000       14.0070           0
     72060 WT24     462      MECN     C1       CG331   -0.170000       12.0110           0
     72061 WT24     462      MECN     H11      HGA3     0.090000        1.0080           0
     72062 WT24     462      MECN     H12      HGA3     0.090000        1.0080           0
     72063 WT24     462      MECN     H13      HGA3     0.090000        1.0080           0
     72064 WT24     462      MECN     C2       CG1N1    0.360000       12.0110           0
     72065 WT24     462      MECN     N3       NG1T1   -0.460000       14.0070           0
     72066 WT24     463      MECN     C1       CG331   -0.170000       12.0110           0
     72067 WT24     463      MECN     H11      HGA3     0.090000        1.0080           0
     72068 WT24     463      MECN     H12      HGA3     0.090000        1.0080           0
     72069 WT24     463      MECN     H13      HGA3     0.090000        1.0080           0
     72070 WT24     463      MECN     C2       CG1N1    0.360000       12.0110           0
     72071 WT24     463      MECN     N3       NG1T1   -0.460000       14.0070           0
     72072 WT24     464      MECN     C1       CG331   -0.170000       12.0110           0
     72073 WT24     464      MECN     H11      HGA3     0.090000        1.0080           0
     72074 WT24     464      MECN     H12      HGA3     0.090000        1.0080           0
     72075 WT24     464      MECN     H13      HGA3     0.090000        1.0080           0
     72076 WT24     464      MECN     C2       CG1N1    0.360000       12.0110           0
     72077 WT24     464      MECN     N3       NG1T1   -0.460000       14.0070           0
     72078 WT24     466      MECN     C1       CG331   -0.170000       12.0110           0
     72079 WT24     466      MECN     H11      HGA3     0.090000        1.0080           0
     72080 WT24     466      MECN     H12      HGA3     0.090000        1.0080           0
     72081 WT24     466      MECN     H13      HGA3     0.090000        1.0080           0
     72082 WT24     466      MECN     C2       CG1N1    0.360000       12.0110           0
     72083 WT24     466      MECN     N3       NG1T1   -0.460000       14.0070           0
     72084 WT24     468      MECN     C1       CG331   -0.170000       12.0110           0
     72085 WT24     468      MECN     H11      HGA3     0.090000        1.0080           0
     72086 WT24     468      MECN     H12      HGA3     0.090000        1.0080           0
     72087 WT24     468      MECN     H13      HGA3     0.090000        1.0080           0
     72088 WT24     468      MECN     C2       CG1N1    0.360000       12.0110           0
     72089 WT24     468      MECN     N3       NG1T1   -0.460000       14.0070           0
     72090 WT24     470      MECN     C1       CG331   -0.170000       12.0110           0
     72091 WT24     470      MECN     H11      HGA3     0.090000        1.0080           0
     72092 WT24     470      MECN     H12      HGA3     0.090000        1.0080           0
     72093 WT24     470      MECN     H13      HGA3     0.090000        1.0080           0
     72094 WT24     470      MECN     C2       CG1N1    0.360000       12.0110           0
     72095 WT24     470      MECN     N3       NG1T1   -0.460000       14.0070           0
     72096 WT24     476      MECN     C1       CG331   -0.170000       12.0110           0
     72097 WT24     476      MECN     H11      HGA3     0.090000        1.0080           0
     72098 WT24     476      MECN     H12      HGA3     0.090000        1.0080           0
     72099 WT24     476      MECN     H13      HGA3     0.090000        1.0080           0
     72100 WT24     476      MECN     C2       CG1N1    0.360000       12.0110           0
     72101 WT24     476      MECN     N3       NG1T1   -0.460000       14.0070           0
     72102 WT24     477      MECN     C1       CG331   -0.170000       12.0110           0
     72103 WT24     477      MECN     H11      HGA3     0.090000        1.0080           0
     72104 WT24     477      MECN     H12      HGA3     0.090000        1.0080           0
     72105 WT24     477      MECN     H13      HGA3     0.090000        1.0080           0
     72106 WT24     477      MECN     C2       CG1N1    0.360000       12.0110           0
     72107 WT24     477      MECN     N3       NG1T1   -0.460000       14.0070           0
     72108 WT24     479      MECN     C1       CG331   -0.170000       12.0110           0
     72109 WT24     479      MECN     H11      HGA3     0.090000        1.0080           0
     72110 WT24     479      MECN     H12      HGA3     0.090000        1.0080           0
     72111 WT24     479      MECN     H13      HGA3     0.090000        1.0080           0
     72112 WT24     479      MECN     C2       CG1N1    0.360000       12.0110           0
     72113 WT24     479      MECN     N3       NG1T1   -0.460000       14.0070           0
     72114 WT24     480      MECN     C1       CG331   -0.170000       12.0110           0
     72115 WT24     480      MECN     H11      HGA3     0.090000        1.0080           0
     72116 WT24     480      MECN     H12      HGA3     0.090000        1.0080           0
     72117 WT24     480      MECN     H13      HGA3     0.090000        1.0080           0
     72118 WT24     480      MECN     C2       CG1N1    0.360000       12.0110           0
     72119 WT24     480      MECN     N3       NG1T1   -0.460000       14.0070           0
     72120 WT24     482      MECN     C1       CG331   -0.170000       12.0110           0
     72121 WT24     482      MECN     H11      HGA3     0.090000        1.0080           0
     72122 WT24     482      MECN     H12      HGA3     0.090000        1.0080           0
     72123 WT24     482      MECN     H13      HGA3     0.090000        1.0080           0
     72124 WT24     482      MECN     C2       CG1N1    0.360000       12.0110           0
     72125 WT24     482      MECN     N3       NG1T1   -0.460000       14.0070           0
     72126 WT24     483      MECN     C1       CG331   -0.170000       12.0110           0
     72127 WT24     483      MECN     H11      HGA3     0.090000        1.0080           0
     72128 WT24     483      MECN     H12      HGA3     0.090000        1.0080           0
     72129 WT24     483      MECN     H13      HGA3     0.090000        1.0080           0
     72130 WT24     483      MECN     C2       CG1N1    0.360000       12.0110           0
     72131 WT24     483      MECN     N3       NG1T1   -0.460000       14.0070           0
     72132 WT24     485      MECN     C1       CG331   -0.170000       12.0110           0
     72133 WT24     485      MECN     H11      HGA3     0.090000        1.0080           0
     72134 WT24     485      MECN     H12      HGA3     0.090000        1.0080           0
     72135 WT24     485      MECN     H13      HGA3     0.090000        1.0080           0
     72136 WT24     485      MECN     C2       CG1N1    0.360000       12.0110           0
     72137 WT24     485      MECN     N3       NG1T1   -0.460000       14.0070           0
     72138 WT24     487      MECN     C1       CG331   -0.170000       12.0110           0
     72139 WT24     487      MECN     H11      HGA3     0.090000        1.0080           0
     72140 WT24     487      MECN     H12      HGA3     0.090000        1.0080           0
     72141 WT24     487      MECN     H13      HGA3     0.090000        1.0080           0
     72142 WT24     487      MECN     C2       CG1N1    0.360000       12.0110           0
     72143 WT24     487      MECN     N3       NG1T1   -0.460000       14.0070           0
     72144 WT24     490      MECN     C1       CG331   -0.170000       12.0110           0
     72145 WT24     490      MECN     H11      HGA3     0.090000        1.0080           0
     72146 WT24     490      MECN     H12      HGA3     0.090000        1.0080           0
     72147 WT24     490      MECN     H13      HGA3     0.090000        1.0080           0
     72148 WT24     490      MECN     C2       CG1N1    0.360000       12.0110           0
     72149 WT24     490      MECN     N3       NG1T1   -0.460000       14.0070           0
     72150 WT24     491      MECN     C1       CG331   -0.170000       12.0110           0
     72151 WT24     491      MECN     H11      HGA3     0.090000        1.0080           0
     72152 WT24     491      MECN     H12      HGA3     0.090000        1.0080           0
     72153 WT24     491      MECN     H13      HGA3     0.090000        1.0080           0
     72154 WT24     491      MECN     C2       CG1N1    0.360000       12.0110           0
     72155 WT24     491      MECN     N3       NG1T1   -0.460000       14.0070           0
     72156 WT24     493      MECN     C1       CG331   -0.170000       12.0110           0
     72157 WT24     493      MECN     H11      HGA3     0.090000        1.0080           0
     72158 WT24     493      MECN     H12      HGA3     0.090000        1.0080           0
     72159 WT24     493      MECN     H13      HGA3     0.090000        1.0080           0
     72160 WT24     493      MECN     C2       CG1N1    0.360000       12.0110           0
     72161 WT24     493      MECN     N3       NG1T1   -0.460000       14.0070           0
     72162 WT24     494      MECN     C1       CG331   -0.170000       12.0110           0
     72163 WT24     494      MECN     H11      HGA3     0.090000        1.0080           0
     72164 WT24     494      MECN     H12      HGA3     0.090000        1.0080           0
     72165 WT24     494      MECN     H13      HGA3     0.090000        1.0080           0
     72166 WT24     494      MECN     C2       CG1N1    0.360000       12.0110           0
     72167 WT24     494      MECN     N3       NG1T1   -0.460000       14.0070           0
     72168 WT24     496      MECN     C1       CG331   -0.170000       12.0110           0
     72169 WT24     496      MECN     H11      HGA3     0.090000        1.0080           0
     72170 WT24     496      MECN     H12      HGA3     0.090000        1.0080           0
     72171 WT24     496      MECN     H13      HGA3     0.090000        1.0080           0
     72172 WT24     496      MECN     C2       CG1N1    0.360000       12.0110           0
     72173 WT24     496      MECN     N3       NG1T1   -0.460000       14.0070           0
     72174 WT24     497      MECN     C1       CG331   -0.170000       12.0110           0
     72175 WT24     497      MECN     H11      HGA3     0.090000        1.0080           0
     72176 WT24     497      MECN     H12      HGA3     0.090000        1.0080           0
     72177 WT24     497      MECN     H13      HGA3     0.090000        1.0080           0
     72178 WT24     497      MECN     C2       CG1N1    0.360000       12.0110           0
     72179 WT24     497      MECN     N3       NG1T1   -0.460000       14.0070           0
     72180 WT24     498      MECN     C1       CG331   -0.170000       12.0110           0
     72181 WT24     498      MECN     H11      HGA3     0.090000        1.0080           0
     72182 WT24     498      MECN     H12      HGA3     0.090000        1.0080           0
     72183 WT24     498      MECN     H13      HGA3     0.090000        1.0080           0
     72184 WT24     498      MECN     C2       CG1N1    0.360000       12.0110           0
     72185 WT24     498      MECN     N3       NG1T1   -0.460000       14.0070           0
     72186 WT24     499      MECN     C1       CG331   -0.170000       12.0110           0
     72187 WT24     499      MECN     H11      HGA3     0.090000        1.0080           0
     72188 WT24     499      MECN     H12      HGA3     0.090000        1.0080           0
     72189 WT24     499      MECN     H13      HGA3     0.090000        1.0080           0
     72190 WT24     499      MECN     C2       CG1N1    0.360000       12.0110           0
     72191 WT24     499      MECN     N3       NG1T1   -0.460000       14.0070           0
     72192 WT24     501      MECN     C1       CG331   -0.170000       12.0110           0
     72193 WT24     501      MECN     H11      HGA3     0.090000        1.0080           0
     72194 WT24     501      MECN     H12      HGA3     0.090000        1.0080           0
     72195 WT24     501      MECN     H13      HGA3     0.090000        1.0080           0
     72196 WT24     501      MECN     C2       CG1N1    0.360000       12.0110           0
     72197 WT24     501      MECN     N3       NG1T1   -0.460000       14.0070           0
     72198 WT24     502      MECN     C1       CG331   -0.170000       12.0110           0
     72199 WT24     502      MECN     H11      HGA3     0.090000        1.0080           0
     72200 WT24     502      MECN     H12      HGA3     0.090000        1.0080           0
     72201 WT24     502      MECN     H13      HGA3     0.090000        1.0080           0
     72202 WT24     502      MECN     C2       CG1N1    0.360000       12.0110           0
     72203 WT24     502      MECN     N3       NG1T1   -0.460000       14.0070           0
     72204 WT24     503      MECN     C1       CG331   -0.170000       12.0110           0
     72205 WT24     503      MECN     H11      HGA3     0.090000        1.0080           0
     72206 WT24     503      MECN     H12      HGA3     0.090000        1.0080           0
     72207 WT24     503      MECN     H13      HGA3     0.090000        1.0080           0
     72208 WT24     503      MECN     C2       CG1N1    0.360000       12.0110           0
     72209 WT24     503      MECN     N3       NG1T1   -0.460000       14.0070           0
     72210 WT24     504      MECN     C1       CG331   -0.170000       12.0110           0
     72211 WT24     504      MECN     H11      HGA3     0.090000        1.0080           0
     72212 WT24     504      MECN     H12      HGA3     0.090000        1.0080           0
     72213 WT24     504      MECN     H13      HGA3     0.090000        1.0080           0
     72214 WT24     504      MECN     C2       CG1N1    0.360000       12.0110           0
     72215 WT24     504      MECN     N3       NG1T1   -0.460000       14.0070           0
     72216 WT24     506      MECN     C1       CG331   -0.170000       12.0110           0
     72217 WT24     506      MECN     H11      HGA3     0.090000        1.0080           0
     72218 WT24     506      MECN     H12      HGA3     0.090000        1.0080           0
     72219 WT24     506      MECN     H13      HGA3     0.090000        1.0080           0
     72220 WT24     506      MECN     C2       CG1N1    0.360000       12.0110           0
     72221 WT24     506      MECN     N3       NG1T1   -0.460000       14.0070           0
     72222 WT24     507      MECN     C1       CG331   -0.170000       12.0110           0
     72223 WT24     507      MECN     H11      HGA3     0.090000        1.0080           0
     72224 WT24     507      MECN     H12      HGA3     0.090000        1.0080           0
     72225 WT24     507      MECN     H13      HGA3     0.090000        1.0080           0
     72226 WT24     507      MECN     C2       CG1N1    0.360000       12.0110           0
     72227 WT24     507      MECN     N3       NG1T1   -0.460000       14.0070           0
     72228 WT24     508      MECN     C1       CG331   -0.170000       12.0110           0
     72229 WT24     508      MECN     H11      HGA3     0.090000        1.0080           0
     72230 WT24     508      MECN     H12      HGA3     0.090000        1.0080           0
     72231 WT24     508      MECN     H13      HGA3     0.090000        1.0080           0
     72232 WT24     508      MECN     C2       CG1N1    0.360000       12.0110           0
     72233 WT24     508      MECN     N3       NG1T1   -0.460000       14.0070           0
     72234 WT24     509      MECN     C1       CG331   -0.170000       12.0110           0
     72235 WT24     509      MECN     H11      HGA3     0.090000        1.0080           0
     72236 WT24     509      MECN     H12      HGA3     0.090000        1.0080           0
     72237 WT24     509      MECN     H13      HGA3     0.090000        1.0080           0
     72238 WT24     509      MECN     C2       CG1N1    0.360000       12.0110           0
     72239 WT24     509      MECN     N3       NG1T1   -0.460000       14.0070           0
     72240 WT24     511      MECN     C1       CG331   -0.170000       12.0110           0
     72241 WT24     511      MECN     H11      HGA3     0.090000        1.0080           0
     72242 WT24     511      MECN     H12      HGA3     0.090000        1.0080           0
     72243 WT24     511      MECN     H13      HGA3     0.090000        1.0080           0
     72244 WT24     511      MECN     C2       CG1N1    0.360000       12.0110           0
     72245 WT24     511      MECN     N3       NG1T1   -0.460000       14.0070           0
     72246 WT24     512      MECN     C1       CG331   -0.170000       12.0110           0
     72247 WT24     512      MECN     H11      HGA3     0.090000        1.0080           0
     72248 WT24     512      MECN     H12      HGA3     0.090000        1.0080           0
     72249 WT24     512      MECN     H13      HGA3     0.090000        1.0080           0
     72250 WT24     512      MECN     C2       CG1N1    0.360000       12.0110           0
     72251 WT24     512      MECN     N3       NG1T1   -0.460000       14.0070           0
     72252 WT24     514      MECN     C1       CG331   -0.170000       12.0110           0
     72253 WT24     514      MECN     H11      HGA3     0.090000        1.0080           0
     72254 WT24     514      MECN     H12      HGA3     0.090000        1.0080           0
     72255 WT24     514      MECN     H13      HGA3     0.090000        1.0080           0
     72256 WT24     514      MECN     C2       CG1N1    0.360000       12.0110           0
     72257 WT24     514      MECN     N3       NG1T1   -0.460000       14.0070           0
     72258 WT24     515      MECN     C1       CG331   -0.170000       12.0110           0
     72259 WT24     515      MECN     H11      HGA3     0.090000        1.0080           0
     72260 WT24     515      MECN     H12      HGA3     0.090000        1.0080           0
     72261 WT24     515      MECN     H13      HGA3     0.090000        1.0080           0
     72262 WT24     515      MECN     C2       CG1N1    0.360000       12.0110           0
     72263 WT24     515      MECN     N3       NG1T1   -0.460000       14.0070           0
     72264 WT24     516      MECN     C1       CG331   -0.170000       12.0110           0
     72265 WT24     516      MECN     H11      HGA3     0.090000        1.0080           0
     72266 WT24     516      MECN     H12      HGA3     0.090000        1.0080           0
     72267 WT24     516      MECN     H13      HGA3     0.090000        1.0080           0
     72268 WT24     516      MECN     C2       CG1N1    0.360000       12.0110           0
     72269 WT24     516      MECN     N3       NG1T1   -0.460000       14.0070           0
     72270 WT24     518      MECN     C1       CG331   -0.170000       12.0110           0
     72271 WT24     518      MECN     H11      HGA3     0.090000        1.0080           0
     72272 WT24     518      MECN     H12      HGA3     0.090000        1.0080           0
     72273 WT24     518      MECN     H13      HGA3     0.090000        1.0080           0
     72274 WT24     518      MECN     C2       CG1N1    0.360000       12.0110           0
     72275 WT24     518      MECN     N3       NG1T1   -0.460000       14.0070           0
     72276 WT24     519      MECN     C1       CG331   -0.170000       12.0110           0
     72277 WT24     519      MECN     H11      HGA3     0.090000        1.0080           0
     72278 WT24     519      MECN     H12      HGA3     0.090000        1.0080           0
     72279 WT24     519      MECN     H13      HGA3     0.090000        1.0080           0
     72280 WT24     519      MECN     C2       CG1N1    0.360000       12.0110           0
     72281 WT24     519      MECN     N3       NG1T1   -0.460000       14.0070           0
     72282 WT24     521      MECN     C1       CG331   -0.170000       12.0110           0
     72283 WT24     521      MECN     H11      HGA3     0.090000        1.0080           0
     72284 WT24     521      MECN     H12      HGA3     0.090000        1.0080           0
     72285 WT24     521      MECN     H13      HGA3     0.090000        1.0080           0
     72286 WT24     521      MECN     C2       CG1N1    0.360000       12.0110           0
     72287 WT24     521      MECN     N3       NG1T1   -0.460000       14.0070           0
     72288 WT24     522      MECN     C1       CG331   -0.170000       12.0110           0
     72289 WT24     522      MECN     H11      HGA3     0.090000        1.0080           0
     72290 WT24     522      MECN     H12      HGA3     0.090000        1.0080           0
     72291 WT24     522      MECN     H13      HGA3     0.090000        1.0080           0
     72292 WT24     522      MECN     C2       CG1N1    0.360000       12.0110           0
     72293 WT24     522      MECN     N3       NG1T1   -0.460000       14.0070           0
     72294 WT24     523      MECN     C1       CG331   -0.170000       12.0110           0
     72295 WT24     523      MECN     H11      HGA3     0.090000        1.0080           0
     72296 WT24     523      MECN     H12      HGA3     0.090000        1.0080           0
     72297 WT24     523      MECN     H13      HGA3     0.090000        1.0080           0
     72298 WT24     523      MECN     C2       CG1N1    0.360000       12.0110           0
     72299 WT24     523      MECN     N3       NG1T1   -0.460000       14.0070           0
     72300 WT24     524      MECN     C1       CG331   -0.170000       12.0110           0
     72301 WT24     524      MECN     H11      HGA3     0.090000        1.0080           0
     72302 WT24     524      MECN     H12      HGA3     0.090000        1.0080           0
     72303 WT24     524      MECN     H13      HGA3     0.090000        1.0080           0
     72304 WT24     524      MECN     C2       CG1N1    0.360000       12.0110           0
     72305 WT24     524      MECN     N3       NG1T1   -0.460000       14.0070           0
     72306 WT24     526      MECN     C1       CG331   -0.170000       12.0110           0
     72307 WT24     526      MECN     H11      HGA3     0.090000        1.0080           0
     72308 WT24     526      MECN     H12      HGA3     0.090000        1.0080           0
     72309 WT24     526      MECN     H13      HGA3     0.090000        1.0080           0
     72310 WT24     526      MECN     C2       CG1N1    0.360000       12.0110           0
     72311 WT24     526      MECN     N3       NG1T1   -0.460000       14.0070           0
     72312 WT24     529      MECN     C1       CG331   -0.170000       12.0110           0
     72313 WT24     529      MECN     H11      HGA3     0.090000        1.0080           0
     72314 WT24     529      MECN     H12      HGA3     0.090000        1.0080           0
     72315 WT24     529      MECN     H13      HGA3     0.090000        1.0080           0
     72316 WT24     529      MECN     C2       CG1N1    0.360000       12.0110           0
     72317 WT24     529      MECN     N3       NG1T1   -0.460000       14.0070           0
     72318 WT24     530      MECN     C1       CG331   -0.170000       12.0110           0
     72319 WT24     530      MECN     H11      HGA3     0.090000        1.0080           0
     72320 WT24     530      MECN     H12      HGA3     0.090000        1.0080           0
     72321 WT24     530      MECN     H13      HGA3     0.090000        1.0080           0
     72322 WT24     530      MECN     C2       CG1N1    0.360000       12.0110           0
     72323 WT24     530      MECN     N3       NG1T1   -0.460000       14.0070           0
     72324 WT24     533      MECN     C1       CG331   -0.170000       12.0110           0
     72325 WT24     533      MECN     H11      HGA3     0.090000        1.0080           0
     72326 WT24     533      MECN     H12      HGA3     0.090000        1.0080           0
     72327 WT24     533      MECN     H13      HGA3     0.090000        1.0080           0
     72328 WT24     533      MECN     C2       CG1N1    0.360000       12.0110           0
     72329 WT24     533      MECN     N3       NG1T1   -0.460000       14.0070           0
     72330 WT24     534      MECN     C1       CG331   -0.170000       12.0110           0
     72331 WT24     534      MECN     H11      HGA3     0.090000        1.0080           0
     72332 WT24     534      MECN     H12      HGA3     0.090000        1.0080           0
     72333 WT24     534      MECN     H13      HGA3     0.090000        1.0080           0
     72334 WT24     534      MECN     C2       CG1N1    0.360000       12.0110           0
     72335 WT24     534      MECN     N3       NG1T1   -0.460000       14.0070           0
     72336 WT24     536      MECN     C1       CG331   -0.170000       12.0110           0
     72337 WT24     536      MECN     H11      HGA3     0.090000        1.0080           0
     72338 WT24     536      MECN     H12      HGA3     0.090000        1.0080           0
     72339 WT24     536      MECN     H13      HGA3     0.090000        1.0080           0
     72340 WT24     536      MECN     C2       CG1N1    0.360000       12.0110           0
     72341 WT24     536      MECN     N3       NG1T1   -0.460000       14.0070           0
     72342 WT24     537      MECN     C1       CG331   -0.170000       12.0110           0
     72343 WT24     537      MECN     H11      HGA3     0.090000        1.0080           0
     72344 WT24     537      MECN     H12      HGA3     0.090000        1.0080           0
     72345 WT24     537      MECN     H13      HGA3     0.090000        1.0080           0
     72346 WT24     537      MECN     C2       CG1N1    0.360000       12.0110           0
     72347 WT24     537      MECN     N3       NG1T1   -0.460000       14.0070           0
     72348 WT24     538      MECN     C1       CG331   -0.170000       12.0110           0
     72349 WT24     538      MECN     H11      HGA3     0.090000        1.0080           0
     72350 WT24     538      MECN     H12      HGA3     0.090000        1.0080           0
     72351 WT24     538      MECN     H13      HGA3     0.090000        1.0080           0
     72352 WT24     538      MECN     C2       CG1N1    0.360000       12.0110           0
     72353 WT24     538      MECN     N3       NG1T1   -0.460000       14.0070           0
     72354 WT24     539      MECN     C1       CG331   -0.170000       12.0110           0
     72355 WT24     539      MECN     H11      HGA3     0.090000        1.0080           0
     72356 WT24     539      MECN     H12      HGA3     0.090000        1.0080           0
     72357 WT24     539      MECN     H13      HGA3     0.090000        1.0080           0
     72358 WT24     539      MECN     C2       CG1N1    0.360000       12.0110           0
     72359 WT24     539      MECN     N3       NG1T1   -0.460000       14.0070           0
     72360 WT24     540      MECN     C1       CG331   -0.170000       12.0110           0
     72361 WT24     540      MECN     H11      HGA3     0.090000        1.0080           0
     72362 WT24     540      MECN     H12      HGA3     0.090000        1.0080           0
     72363 WT24     540      MECN     H13      HGA3     0.090000        1.0080           0
     72364 WT24     540      MECN     C2       CG1N1    0.360000       12.0110           0
     72365 WT24     540      MECN     N3       NG1T1   -0.460000       14.0070           0
     72366 WT24     545      MECN     C1       CG331   -0.170000       12.0110           0
     72367 WT24     545      MECN     H11      HGA3     0.090000        1.0080           0
     72368 WT24     545      MECN     H12      HGA3     0.090000        1.0080           0
     72369 WT24     545      MECN     H13      HGA3     0.090000        1.0080           0
     72370 WT24     545      MECN     C2       CG1N1    0.360000       12.0110           0
     72371 WT24     545      MECN     N3       NG1T1   -0.460000       14.0070           0
     72372 WT24     547      MECN     C1       CG331   -0.170000       12.0110           0
     72373 WT24     547      MECN     H11      HGA3     0.090000        1.0080           0
     72374 WT24     547      MECN     H12      HGA3     0.090000        1.0080           0
     72375 WT24     547      MECN     H13      HGA3     0.090000        1.0080           0
     72376 WT24     547      MECN     C2       CG1N1    0.360000       12.0110           0
     72377 WT24     547      MECN     N3       NG1T1   -0.460000       14.0070           0
     72378 WT24     548      MECN     C1       CG331   -0.170000       12.0110           0
     72379 WT24     548      MECN     H11      HGA3     0.090000        1.0080           0
     72380 WT24     548      MECN     H12      HGA3     0.090000        1.0080           0
     72381 WT24     548      MECN     H13      HGA3     0.090000        1.0080           0
     72382 WT24     548      MECN     C2       CG1N1    0.360000       12.0110           0
     72383 WT24     548      MECN     N3       NG1T1   -0.460000       14.0070           0
     72384 WT24     549      MECN     C1       CG331   -0.170000       12.0110           0
     72385 WT24     549      MECN     H11      HGA3     0.090000        1.0080           0
     72386 WT24     549      MECN     H12      HGA3     0.090000        1.0080           0
     72387 WT24     549      MECN     H13      HGA3     0.090000        1.0080           0
     72388 WT24     549      MECN     C2       CG1N1    0.360000       12.0110           0
     72389 WT24     549      MECN     N3       NG1T1   -0.460000       14.0070           0
     72390 WT24     550      MECN     C1       CG331   -0.170000       12.0110           0
     72391 WT24     550      MECN     H11      HGA3     0.090000        1.0080           0
     72392 WT24     550      MECN     H12      HGA3     0.090000        1.0080           0
     72393 WT24     550      MECN     H13      HGA3     0.090000        1.0080           0
     72394 WT24     550      MECN     C2       CG1N1    0.360000       12.0110           0
     72395 WT24     550      MECN     N3       NG1T1   -0.460000       14.0070           0
     72396 WT24     551      MECN     C1       CG331   -0.170000       12.0110           0
     72397 WT24     551      MECN     H11      HGA3     0.090000        1.0080           0
     72398 WT24     551      MECN     H12      HGA3     0.090000        1.0080           0
     72399 WT24     551      MECN     H13      HGA3     0.090000        1.0080           0
     72400 WT24     551      MECN     C2       CG1N1    0.360000       12.0110           0
     72401 WT24     551      MECN     N3       NG1T1   -0.460000       14.0070           0
     72402 WT24     552      MECN     C1       CG331   -0.170000       12.0110           0
     72403 WT24     552      MECN     H11      HGA3     0.090000        1.0080           0
     72404 WT24     552      MECN     H12      HGA3     0.090000        1.0080           0
     72405 WT24     552      MECN     H13      HGA3     0.090000        1.0080           0
     72406 WT24     552      MECN     C2       CG1N1    0.360000       12.0110           0
     72407 WT24     552      MECN     N3       NG1T1   -0.460000       14.0070           0
     72408 WT24     555      MECN     C1       CG331   -0.170000       12.0110           0
     72409 WT24     555      MECN     H11      HGA3     0.090000        1.0080           0
     72410 WT24     555      MECN     H12      HGA3     0.090000        1.0080           0
     72411 WT24     555      MECN     H13      HGA3     0.090000        1.0080           0
     72412 WT24     555      MECN     C2       CG1N1    0.360000       12.0110           0
     72413 WT24     555      MECN     N3       NG1T1   -0.460000       14.0070           0
     72414 WT24     559      MECN     C1       CG331   -0.170000       12.0110           0
     72415 WT24     559      MECN     H11      HGA3     0.090000        1.0080           0
     72416 WT24     559      MECN     H12      HGA3     0.090000        1.0080           0
     72417 WT24     559      MECN     H13      HGA3     0.090000        1.0080           0
     72418 WT24     559      MECN     C2       CG1N1    0.360000       12.0110           0
     72419 WT24     559      MECN     N3       NG1T1   -0.460000       14.0070           0
     72420 WT24     561      MECN     C1       CG331   -0.170000       12.0110           0
     72421 WT24     561      MECN     H11      HGA3     0.090000        1.0080           0
     72422 WT24     561      MECN     H12      HGA3     0.090000        1.0080           0
     72423 WT24     561      MECN     H13      HGA3     0.090000        1.0080           0
     72424 WT24     561      MECN     C2       CG1N1    0.360000       12.0110           0
     72425 WT24     561      MECN     N3       NG1T1   -0.460000       14.0070           0
     72426 WT24     562      MECN     C1       CG331   -0.170000       12.0110           0
     72427 WT24     562      MECN     H11      HGA3     0.090000        1.0080           0
     72428 WT24     562      MECN     H12      HGA3     0.090000        1.0080           0
     72429 WT24     562      MECN     H13      HGA3     0.090000        1.0080           0
     72430 WT24     562      MECN     C2       CG1N1    0.360000       12.0110           0
     72431 WT24     562      MECN     N3       NG1T1   -0.460000       14.0070           0
     72432 WT24     565      MECN     C1       CG331   -0.170000       12.0110           0
     72433 WT24     565      MECN     H11      HGA3     0.090000        1.0080           0
     72434 WT24     565      MECN     H12      HGA3     0.090000        1.0080           0
     72435 WT24     565      MECN     H13      HGA3     0.090000        1.0080           0
     72436 WT24     565      MECN     C2       CG1N1    0.360000       12.0110           0
     72437 WT24     565      MECN     N3       NG1T1   -0.460000       14.0070           0
     72438 WT24     571      MECN     C1       CG331   -0.170000       12.0110           0
     72439 WT24     571      MECN     H11      HGA3     0.090000        1.0080           0
     72440 WT24     571      MECN     H12      HGA3     0.090000        1.0080           0
     72441 WT24     571      MECN     H13      HGA3     0.090000        1.0080           0
     72442 WT24     571      MECN     C2       CG1N1    0.360000       12.0110           0
     72443 WT24     571      MECN     N3       NG1T1   -0.460000       14.0070           0
     72444 WT24     572      MECN     C1       CG331   -0.170000       12.0110           0
     72445 WT24     572      MECN     H11      HGA3     0.090000        1.0080           0
     72446 WT24     572      MECN     H12      HGA3     0.090000        1.0080           0
     72447 WT24     572      MECN     H13      HGA3     0.090000        1.0080           0
     72448 WT24     572      MECN     C2       CG1N1    0.360000       12.0110           0
     72449 WT24     572      MECN     N3       NG1T1   -0.460000       14.0070           0
     72450 WT24     573      MECN     C1       CG331   -0.170000       12.0110           0
     72451 WT24     573      MECN     H11      HGA3     0.090000        1.0080           0
     72452 WT24     573      MECN     H12      HGA3     0.090000        1.0080           0
     72453 WT24     573      MECN     H13      HGA3     0.090000        1.0080           0
     72454 WT24     573      MECN     C2       CG1N1    0.360000       12.0110           0
     72455 WT24     573      MECN     N3       NG1T1   -0.460000       14.0070           0
     72456 WT24     575      MECN     C1       CG331   -0.170000       12.0110           0
     72457 WT24     575      MECN     H11      HGA3     0.090000        1.0080           0
     72458 WT24     575      MECN     H12      HGA3     0.090000        1.0080           0
     72459 WT24     575      MECN     H13      HGA3     0.090000        1.0080           0
     72460 WT24     575      MECN     C2       CG1N1    0.360000       12.0110           0
     72461 WT24     575      MECN     N3       NG1T1   -0.460000       14.0070           0
     72462 WT24     576      MECN     C1       CG331   -0.170000       12.0110           0
     72463 WT24     576      MECN     H11      HGA3     0.090000        1.0080           0
     72464 WT24     576      MECN     H12      HGA3     0.090000        1.0080           0
     72465 WT24     576      MECN     H13      HGA3     0.090000        1.0080           0
     72466 WT24     576      MECN     C2       CG1N1    0.360000       12.0110           0
     72467 WT24     576      MECN     N3       NG1T1   -0.460000       14.0070           0
     72468 WT24     577      MECN     C1       CG331   -0.170000       12.0110           0
     72469 WT24     577      MECN     H11      HGA3     0.090000        1.0080           0
     72470 WT24     577      MECN     H12      HGA3     0.090000        1.0080           0
     72471 WT24     577      MECN     H13      HGA3     0.090000        1.0080           0
     72472 WT24     577      MECN     C2       CG1N1    0.360000       12.0110           0
     72473 WT24     577      MECN     N3       NG1T1   -0.460000       14.0070           0
     72474 WT24     578      MECN     C1       CG331   -0.170000       12.0110           0
     72475 WT24     578      MECN     H11      HGA3     0.090000        1.0080           0
     72476 WT24     578      MECN     H12      HGA3     0.090000        1.0080           0
     72477 WT24     578      MECN     H13      HGA3     0.090000        1.0080           0
     72478 WT24     578      MECN     C2       CG1N1    0.360000       12.0110           0
     72479 WT24     578      MECN     N3       NG1T1   -0.460000       14.0070           0
     72480 WT24     580      MECN     C1       CG331   -0.170000       12.0110           0
     72481 WT24     580      MECN     H11      HGA3     0.090000        1.0080           0
     72482 WT24     580      MECN     H12      HGA3     0.090000        1.0080           0
     72483 WT24     580      MECN     H13      HGA3     0.090000        1.0080           0
     72484 WT24     580      MECN     C2       CG1N1    0.360000       12.0110           0
     72485 WT24     580      MECN     N3       NG1T1   -0.460000       14.0070           0
     72486 WT24     582      MECN     C1       CG331   -0.170000       12.0110           0
     72487 WT24     582      MECN     H11      HGA3     0.090000        1.0080           0
     72488 WT24     582      MECN     H12      HGA3     0.090000        1.0080           0
     72489 WT24     582      MECN     H13      HGA3     0.090000        1.0080           0
     72490 WT24     582      MECN     C2       CG1N1    0.360000       12.0110           0
     72491 WT24     582      MECN     N3       NG1T1   -0.460000       14.0070           0
     72492 WT24     583      MECN     C1       CG331   -0.170000       12.0110           0
     72493 WT24     583      MECN     H11      HGA3     0.090000        1.0080           0
     72494 WT24     583      MECN     H12      HGA3     0.090000        1.0080           0
     72495 WT24     583      MECN     H13      HGA3     0.090000        1.0080           0
     72496 WT24     583      MECN     C2       CG1N1    0.360000       12.0110           0
     72497 WT24     583      MECN     N3       NG1T1   -0.460000       14.0070           0
     72498 WT24     584      MECN     C1       CG331   -0.170000       12.0110           0
     72499 WT24     584      MECN     H11      HGA3     0.090000        1.0080           0
     72500 WT24     584      MECN     H12      HGA3     0.090000        1.0080           0
     72501 WT24     584      MECN     H13      HGA3     0.090000        1.0080           0
     72502 WT24     584      MECN     C2       CG1N1    0.360000       12.0110           0
     72503 WT24     584      MECN     N3       NG1T1   -0.460000       14.0070           0
     72504 WT24     585      MECN     C1       CG331   -0.170000       12.0110           0
     72505 WT24     585      MECN     H11      HGA3     0.090000        1.0080           0
     72506 WT24     585      MECN     H12      HGA3     0.090000        1.0080           0
     72507 WT24     585      MECN     H13      HGA3     0.090000        1.0080           0
     72508 WT24     585      MECN     C2       CG1N1    0.360000       12.0110           0
     72509 WT24     585      MECN     N3       NG1T1   -0.460000       14.0070           0
     72510 WT24     587      MECN     C1       CG331   -0.170000       12.0110           0
     72511 WT24     587      MECN     H11      HGA3     0.090000        1.0080           0
     72512 WT24     587      MECN     H12      HGA3     0.090000        1.0080           0
     72513 WT24     587      MECN     H13      HGA3     0.090000        1.0080           0
     72514 WT24     587      MECN     C2       CG1N1    0.360000       12.0110           0
     72515 WT24     587      MECN     N3       NG1T1   -0.460000       14.0070           0
     72516 WT24     590      MECN     C1       CG331   -0.170000       12.0110           0
     72517 WT24     590      MECN     H11      HGA3     0.090000        1.0080           0
     72518 WT24     590      MECN     H12      HGA3     0.090000        1.0080           0
     72519 WT24     590      MECN     H13      HGA3     0.090000        1.0080           0
     72520 WT24     590      MECN     C2       CG1N1    0.360000       12.0110           0
     72521 WT24     590      MECN     N3       NG1T1   -0.460000       14.0070           0
     72522 WT24     591      MECN     C1       CG331   -0.170000       12.0110           0
     72523 WT24     591      MECN     H11      HGA3     0.090000        1.0080           0
     72524 WT24     591      MECN     H12      HGA3     0.090000        1.0080           0
     72525 WT24     591      MECN     H13      HGA3     0.090000        1.0080           0
     72526 WT24     591      MECN     C2       CG1N1    0.360000       12.0110           0
     72527 WT24     591      MECN     N3       NG1T1   -0.460000       14.0070           0
     72528 WT24     592      MECN     C1       CG331   -0.170000       12.0110           0
     72529 WT24     592      MECN     H11      HGA3     0.090000        1.0080           0
     72530 WT24     592      MECN     H12      HGA3     0.090000        1.0080           0
     72531 WT24     592      MECN     H13      HGA3     0.090000        1.0080           0
     72532 WT24     592      MECN     C2       CG1N1    0.360000       12.0110           0
     72533 WT24     592      MECN     N3       NG1T1   -0.460000       14.0070           0
     72534 WT24     593      MECN     C1       CG331   -0.170000       12.0110           0
     72535 WT24     593      MECN     H11      HGA3     0.090000        1.0080           0
     72536 WT24     593      MECN     H12      HGA3     0.090000        1.0080           0
     72537 WT24     593      MECN     H13      HGA3     0.090000        1.0080           0
     72538 WT24     593      MECN     C2       CG1N1    0.360000       12.0110           0
     72539 WT24     593      MECN     N3       NG1T1   -0.460000       14.0070           0
     72540 WT24     595      MECN     C1       CG331   -0.170000       12.0110           0
     72541 WT24     595      MECN     H11      HGA3     0.090000        1.0080           0
     72542 WT24     595      MECN     H12      HGA3     0.090000        1.0080           0
     72543 WT24     595      MECN     H13      HGA3     0.090000        1.0080           0
     72544 WT24     595      MECN     C2       CG1N1    0.360000       12.0110           0
     72545 WT24     595      MECN     N3       NG1T1   -0.460000       14.0070           0
     72546 WT24     596      MECN     C1       CG331   -0.170000       12.0110           0
     72547 WT24     596      MECN     H11      HGA3     0.090000        1.0080           0
     72548 WT24     596      MECN     H12      HGA3     0.090000        1.0080           0
     72549 WT24     596      MECN     H13      HGA3     0.090000        1.0080           0
     72550 WT24     596      MECN     C2       CG1N1    0.360000       12.0110           0
     72551 WT24     596      MECN     N3       NG1T1   -0.460000       14.0070           0
     72552 WT24     597      MECN     C1       CG331   -0.170000       12.0110           0
     72553 WT24     597      MECN     H11      HGA3     0.090000        1.0080           0
     72554 WT24     597      MECN     H12      HGA3     0.090000        1.0080           0
     72555 WT24     597      MECN     H13      HGA3     0.090000        1.0080           0
     72556 WT24     597      MECN     C2       CG1N1    0.360000       12.0110           0
     72557 WT24     597      MECN     N3       NG1T1   -0.460000       14.0070           0
     72558 WT24     598      MECN     C1       CG331   -0.170000       12.0110           0
     72559 WT24     598      MECN     H11      HGA3     0.090000        1.0080           0
     72560 WT24     598      MECN     H12      HGA3     0.090000        1.0080           0
     72561 WT24     598      MECN     H13      HGA3     0.090000        1.0080           0
     72562 WT24     598      MECN     C2       CG1N1    0.360000       12.0110           0
     72563 WT24     598      MECN     N3       NG1T1   -0.460000       14.0070           0
     72564 WT24     600      MECN     C1       CG331   -0.170000       12.0110           0
     72565 WT24     600      MECN     H11      HGA3     0.090000        1.0080           0
     72566 WT24     600      MECN     H12      HGA3     0.090000        1.0080           0
     72567 WT24     600      MECN     H13      HGA3     0.090000        1.0080           0
     72568 WT24     600      MECN     C2       CG1N1    0.360000       12.0110           0
     72569 WT24     600      MECN     N3       NG1T1   -0.460000       14.0070           0
     72570 WT24     602      MECN     C1       CG331   -0.170000       12.0110           0
     72571 WT24     602      MECN     H11      HGA3     0.090000        1.0080           0
     72572 WT24     602      MECN     H12      HGA3     0.090000        1.0080           0
     72573 WT24     602      MECN     H13      HGA3     0.090000        1.0080           0
     72574 WT24     602      MECN     C2       CG1N1    0.360000       12.0110           0
     72575 WT24     602      MECN     N3       NG1T1   -0.460000       14.0070           0
     72576 WT24     603      MECN     C1       CG331   -0.170000       12.0110           0
     72577 WT24     603      MECN     H11      HGA3     0.090000        1.0080           0
     72578 WT24     603      MECN     H12      HGA3     0.090000        1.0080           0
     72579 WT24     603      MECN     H13      HGA3     0.090000        1.0080           0
     72580 WT24     603      MECN     C2       CG1N1    0.360000       12.0110           0
     72581 WT24     603      MECN     N3       NG1T1   -0.460000       14.0070           0
     72582 WT24     604      MECN     C1       CG331   -0.170000       12.0110           0
     72583 WT24     604      MECN     H11      HGA3     0.090000        1.0080           0
     72584 WT24     604      MECN     H12      HGA3     0.090000        1.0080           0
     72585 WT24     604      MECN     H13      HGA3     0.090000        1.0080           0
     72586 WT24     604      MECN     C2       CG1N1    0.360000       12.0110           0
     72587 WT24     604      MECN     N3       NG1T1   -0.460000       14.0070           0
     72588 WT24     607      MECN     C1       CG331   -0.170000       12.0110           0
     72589 WT24     607      MECN     H11      HGA3     0.090000        1.0080           0
     72590 WT24     607      MECN     H12      HGA3     0.090000        1.0080           0
     72591 WT24     607      MECN     H13      HGA3     0.090000        1.0080           0
     72592 WT24     607      MECN     C2       CG1N1    0.360000       12.0110           0
     72593 WT24     607      MECN     N3       NG1T1   -0.460000       14.0070           0
     72594 WT24     609      MECN     C1       CG331   -0.170000       12.0110           0
     72595 WT24     609      MECN     H11      HGA3     0.090000        1.0080           0
     72596 WT24     609      MECN     H12      HGA3     0.090000        1.0080           0
     72597 WT24     609      MECN     H13      HGA3     0.090000        1.0080           0
     72598 WT24     609      MECN     C2       CG1N1    0.360000       12.0110           0
     72599 WT24     609      MECN     N3       NG1T1   -0.460000       14.0070           0
     72600 WT24     612      MECN     C1       CG331   -0.170000       12.0110           0
     72601 WT24     612      MECN     H11      HGA3     0.090000        1.0080           0
     72602 WT24     612      MECN     H12      HGA3     0.090000        1.0080           0
     72603 WT24     612      MECN     H13      HGA3     0.090000        1.0080           0
     72604 WT24     612      MECN     C2       CG1N1    0.360000       12.0110           0
     72605 WT24     612      MECN     N3       NG1T1   -0.460000       14.0070           0
     72606 WT24     613      MECN     C1       CG331   -0.170000       12.0110           0
     72607 WT24     613      MECN     H11      HGA3     0.090000        1.0080           0
     72608 WT24     613      MECN     H12      HGA3     0.090000        1.0080           0
     72609 WT24     613      MECN     H13      HGA3     0.090000        1.0080           0
     72610 WT24     613      MECN     C2       CG1N1    0.360000       12.0110           0
     72611 WT24     613      MECN     N3       NG1T1   -0.460000       14.0070           0
     72612 WT24     616      MECN     C1       CG331   -0.170000       12.0110           0
     72613 WT24     616      MECN     H11      HGA3     0.090000        1.0080           0
     72614 WT24     616      MECN     H12      HGA3     0.090000        1.0080           0
     72615 WT24     616      MECN     H13      HGA3     0.090000        1.0080           0
     72616 WT24     616      MECN     C2       CG1N1    0.360000       12.0110           0
     72617 WT24     616      MECN     N3       NG1T1   -0.460000       14.0070           0
     72618 WT24     619      MECN     C1       CG331   -0.170000       12.0110           0
     72619 WT24     619      MECN     H11      HGA3     0.090000        1.0080           0
     72620 WT24     619      MECN     H12      HGA3     0.090000        1.0080           0
     72621 WT24     619      MECN     H13      HGA3     0.090000        1.0080           0
     72622 WT24     619      MECN     C2       CG1N1    0.360000       12.0110           0
     72623 WT24     619      MECN     N3       NG1T1   -0.460000       14.0070           0
     72624 WT24     621      MECN     C1       CG331   -0.170000       12.0110           0
     72625 WT24     621      MECN     H11      HGA3     0.090000        1.0080           0
     72626 WT24     621      MECN     H12      HGA3     0.090000        1.0080           0
     72627 WT24     621      MECN     H13      HGA3     0.090000        1.0080           0
     72628 WT24     621      MECN     C2       CG1N1    0.360000       12.0110           0
     72629 WT24     621      MECN     N3       NG1T1   -0.460000       14.0070           0
     72630 WT24     623      MECN     C1       CG331   -0.170000       12.0110           0
     72631 WT24     623      MECN     H11      HGA3     0.090000        1.0080           0
     72632 WT24     623      MECN     H12      HGA3     0.090000        1.0080           0
     72633 WT24     623      MECN     H13      HGA3     0.090000        1.0080           0
     72634 WT24     623      MECN     C2       CG1N1    0.360000       12.0110           0
     72635 WT24     623      MECN     N3       NG1T1   -0.460000       14.0070           0
     72636 WT24     624      MECN     C1       CG331   -0.170000       12.0110           0
     72637 WT24     624      MECN     H11      HGA3     0.090000        1.0080           0
     72638 WT24     624      MECN     H12      HGA3     0.090000        1.0080           0
     72639 WT24     624      MECN     H13      HGA3     0.090000        1.0080           0
     72640 WT24     624      MECN     C2       CG1N1    0.360000       12.0110           0
     72641 WT24     624      MECN     N3       NG1T1   -0.460000       14.0070           0
     72642 WT24     626      MECN     C1       CG331   -0.170000       12.0110           0
     72643 WT24     626      MECN     H11      HGA3     0.090000        1.0080           0
     72644 WT24     626      MECN     H12      HGA3     0.090000        1.0080           0
     72645 WT24     626      MECN     H13      HGA3     0.090000        1.0080           0
     72646 WT24     626      MECN     C2       CG1N1    0.360000       12.0110           0
     72647 WT24     626      MECN     N3       NG1T1   -0.460000       14.0070           0
     72648 WT24     628      MECN     C1       CG331   -0.170000       12.0110           0
     72649 WT24     628      MECN     H11      HGA3     0.090000        1.0080           0
     72650 WT24     628      MECN     H12      HGA3     0.090000        1.0080           0
     72651 WT24     628      MECN     H13      HGA3     0.090000        1.0080           0
     72652 WT24     628      MECN     C2       CG1N1    0.360000       12.0110           0
     72653 WT24     628      MECN     N3       NG1T1   -0.460000       14.0070           0
     72654 WT24     629      MECN     C1       CG331   -0.170000       12.0110           0
     72655 WT24     629      MECN     H11      HGA3     0.090000        1.0080           0
     72656 WT24     629      MECN     H12      HGA3     0.090000        1.0080           0
     72657 WT24     629      MECN     H13      HGA3     0.090000        1.0080           0
     72658 WT24     629      MECN     C2       CG1N1    0.360000       12.0110           0
     72659 WT24     629      MECN     N3       NG1T1   -0.460000       14.0070           0
     72660 WT24     632      MECN     C1       CG331   -0.170000       12.0110           0
     72661 WT24     632      MECN     H11      HGA3     0.090000        1.0080           0
     72662 WT24     632      MECN     H12      HGA3     0.090000        1.0080           0
     72663 WT24     632      MECN     H13      HGA3     0.090000        1.0080           0
     72664 WT24     632      MECN     C2       CG1N1    0.360000       12.0110           0
     72665 WT24     632      MECN     N3       NG1T1   -0.460000       14.0070           0
     72666 WT24     634      MECN     C1       CG331   -0.170000       12.0110           0
     72667 WT24     634      MECN     H11      HGA3     0.090000        1.0080           0
     72668 WT24     634      MECN     H12      HGA3     0.090000        1.0080           0
     72669 WT24     634      MECN     H13      HGA3     0.090000        1.0080           0
     72670 WT24     634      MECN     C2       CG1N1    0.360000       12.0110           0
     72671 WT24     634      MECN     N3       NG1T1   -0.460000       14.0070           0
     72672 WT24     635      MECN     C1       CG331   -0.170000       12.0110           0
     72673 WT24     635      MECN     H11      HGA3     0.090000        1.0080           0
     72674 WT24     635      MECN     H12      HGA3     0.090000        1.0080           0
     72675 WT24     635      MECN     H13      HGA3     0.090000        1.0080           0
     72676 WT24     635      MECN     C2       CG1N1    0.360000       12.0110           0
     72677 WT24     635      MECN     N3       NG1T1   -0.460000       14.0070           0
     72678 WT24     637      MECN     C1       CG331   -0.170000       12.0110           0
     72679 WT24     637      MECN     H11      HGA3     0.090000        1.0080           0
     72680 WT24     637      MECN     H12      HGA3     0.090000        1.0080           0
     72681 WT24     637      MECN     H13      HGA3     0.090000        1.0080           0
     72682 WT24     637      MECN     C2       CG1N1    0.360000       12.0110           0
     72683 WT24     637      MECN     N3       NG1T1   -0.460000       14.0070           0
     72684 WT24     643      MECN     C1       CG331   -0.170000       12.0110           0
     72685 WT24     643      MECN     H11      HGA3     0.090000        1.0080           0
     72686 WT24     643      MECN     H12      HGA3     0.090000        1.0080           0
     72687 WT24     643      MECN     H13      HGA3     0.090000        1.0080           0
     72688 WT24     643      MECN     C2       CG1N1    0.360000       12.0110           0
     72689 WT24     643      MECN     N3       NG1T1   -0.460000       14.0070           0
     72690 WT24     647      MECN     C1       CG331   -0.170000       12.0110           0
     72691 WT24     647      MECN     H11      HGA3     0.090000        1.0080           0
     72692 WT24     647      MECN     H12      HGA3     0.090000        1.0080           0
     72693 WT24     647      MECN     H13      HGA3     0.090000        1.0080           0
     72694 WT24     647      MECN     C2       CG1N1    0.360000       12.0110           0
     72695 WT24     647      MECN     N3       NG1T1   -0.460000       14.0070           0
     72696 WT24     650      MECN     C1       CG331   -0.170000       12.0110           0
     72697 WT24     650      MECN     H11      HGA3     0.090000        1.0080           0
     72698 WT24     650      MECN     H12      HGA3     0.090000        1.0080           0
     72699 WT24     650      MECN     H13      HGA3     0.090000        1.0080           0
     72700 WT24     650      MECN     C2       CG1N1    0.360000       12.0110           0
     72701 WT24     650      MECN     N3       NG1T1   -0.460000       14.0070           0
     72702 WT24     652      MECN     C1       CG331   -0.170000       12.0110           0
     72703 WT24     652      MECN     H11      HGA3     0.090000        1.0080           0
     72704 WT24     652      MECN     H12      HGA3     0.090000        1.0080           0
     72705 WT24     652      MECN     H13      HGA3     0.090000        1.0080           0
     72706 WT24     652      MECN     C2       CG1N1    0.360000       12.0110           0
     72707 WT24     652      MECN     N3       NG1T1   -0.460000       14.0070           0
     72708 WT24     653      MECN     C1       CG331   -0.170000       12.0110           0
     72709 WT24     653      MECN     H11      HGA3     0.090000        1.0080           0
     72710 WT24     653      MECN     H12      HGA3     0.090000        1.0080           0
     72711 WT24     653      MECN     H13      HGA3     0.090000        1.0080           0
     72712 WT24     653      MECN     C2       CG1N1    0.360000       12.0110           0
     72713 WT24     653      MECN     N3       NG1T1   -0.460000       14.0070           0
     72714 WT24     654      MECN     C1       CG331   -0.170000       12.0110           0
     72715 WT24     654      MECN     H11      HGA3     0.090000        1.0080           0
     72716 WT24     654      MECN     H12      HGA3     0.090000        1.0080           0
     72717 WT24     654      MECN     H13      HGA3     0.090000        1.0080           0
     72718 WT24     654      MECN     C2       CG1N1    0.360000       12.0110           0
     72719 WT24     654      MECN     N3       NG1T1   -0.460000       14.0070           0
     72720 WT24     660      MECN     C1       CG331   -0.170000       12.0110           0
     72721 WT24     660      MECN     H11      HGA3     0.090000        1.0080           0
     72722 WT24     660      MECN     H12      HGA3     0.090000        1.0080           0
     72723 WT24     660      MECN     H13      HGA3     0.090000        1.0080           0
     72724 WT24     660      MECN     C2       CG1N1    0.360000       12.0110           0
     72725 WT24     660      MECN     N3       NG1T1   -0.460000       14.0070           0
     72726 WT24     662      MECN     C1       CG331   -0.170000       12.0110           0
     72727 WT24     662      MECN     H11      HGA3     0.090000        1.0080           0
     72728 WT24     662      MECN     H12      HGA3     0.090000        1.0080           0
     72729 WT24     662      MECN     H13      HGA3     0.090000        1.0080           0
     72730 WT24     662      MECN     C2       CG1N1    0.360000       12.0110           0
     72731 WT24     662      MECN     N3       NG1T1   -0.460000       14.0070           0
     72732 WT24     665      MECN     C1       CG331   -0.170000       12.0110           0
     72733 WT24     665      MECN     H11      HGA3     0.090000        1.0080           0
     72734 WT24     665      MECN     H12      HGA3     0.090000        1.0080           0
     72735 WT24     665      MECN     H13      HGA3     0.090000        1.0080           0
     72736 WT24     665      MECN     C2       CG1N1    0.360000       12.0110           0
     72737 WT24     665      MECN     N3       NG1T1   -0.460000       14.0070           0
     72738 WT24     668      MECN     C1       CG331   -0.170000       12.0110           0
     72739 WT24     668      MECN     H11      HGA3     0.090000        1.0080           0
     72740 WT24     668      MECN     H12      HGA3     0.090000        1.0080           0
     72741 WT24     668      MECN     H13      HGA3     0.090000        1.0080           0
     72742 WT24     668      MECN     C2       CG1N1    0.360000       12.0110           0
     72743 WT24     668      MECN     N3       NG1T1   -0.460000       14.0070           0
     72744 WT24     669      MECN     C1       CG331   -0.170000       12.0110           0
     72745 WT24     669      MECN     H11      HGA3     0.090000        1.0080           0
     72746 WT24     669      MECN     H12      HGA3     0.090000        1.0080           0
     72747 WT24     669      MECN     H13      HGA3     0.090000        1.0080           0
     72748 WT24     669      MECN     C2       CG1N1    0.360000       12.0110           0
     72749 WT24     669      MECN     N3       NG1T1   -0.460000       14.0070           0
     72750 WT24     671      MECN     C1       CG331   -0.170000       12.0110           0
     72751 WT24     671      MECN     H11      HGA3     0.090000        1.0080           0
     72752 WT24     671      MECN     H12      HGA3     0.090000        1.0080           0
     72753 WT24     671      MECN     H13      HGA3     0.090000        1.0080           0
     72754 WT24     671      MECN     C2       CG1N1    0.360000       12.0110           0
     72755 WT24     671      MECN     N3       NG1T1   -0.460000       14.0070           0
     72756 WT24     675      MECN     C1       CG331   -0.170000       12.0110           0
     72757 WT24     675      MECN     H11      HGA3     0.090000        1.0080           0
     72758 WT24     675      MECN     H12      HGA3     0.090000        1.0080           0
     72759 WT24     675      MECN     H13      HGA3     0.090000        1.0080           0
     72760 WT24     675      MECN     C2       CG1N1    0.360000       12.0110           0
     72761 WT24     675      MECN     N3       NG1T1   -0.460000       14.0070           0
     72762 WT24     676      MECN     C1       CG331   -0.170000       12.0110           0
     72763 WT24     676      MECN     H11      HGA3     0.090000        1.0080           0
     72764 WT24     676      MECN     H12      HGA3     0.090000        1.0080           0
     72765 WT24     676      MECN     H13      HGA3     0.090000        1.0080           0
     72766 WT24     676      MECN     C2       CG1N1    0.360000       12.0110           0
     72767 WT24     676      MECN     N3       NG1T1   -0.460000       14.0070           0
     72768 WT24     677      MECN     C1       CG331   -0.170000       12.0110           0
     72769 WT24     677      MECN     H11      HGA3     0.090000        1.0080           0
     72770 WT24     677      MECN     H12      HGA3     0.090000        1.0080           0
     72771 WT24     677      MECN     H13      HGA3     0.090000        1.0080           0
     72772 WT24     677      MECN     C2       CG1N1    0.360000       12.0110           0
     72773 WT24     677      MECN     N3       NG1T1   -0.460000       14.0070           0
     72774 WT24     679      MECN     C1       CG331   -0.170000       12.0110           0
     72775 WT24     679      MECN     H11      HGA3     0.090000        1.0080           0
     72776 WT24     679      MECN     H12      HGA3     0.090000        1.0080           0
     72777 WT24     679      MECN     H13      HGA3     0.090000        1.0080           0
     72778 WT24     679      MECN     C2       CG1N1    0.360000       12.0110           0
     72779 WT24     679      MECN     N3       NG1T1   -0.460000       14.0070           0
     72780 WT24     682      MECN     C1       CG331   -0.170000       12.0110           0
     72781 WT24     682      MECN     H11      HGA3     0.090000        1.0080           0
     72782 WT24     682      MECN     H12      HGA3     0.090000        1.0080           0
     72783 WT24     682      MECN     H13      HGA3     0.090000        1.0080           0
     72784 WT24     682      MECN     C2       CG1N1    0.360000       12.0110           0
     72785 WT24     682      MECN     N3       NG1T1   -0.460000       14.0070           0
     72786 WT24     683      MECN     C1       CG331   -0.170000       12.0110           0
     72787 WT24     683      MECN     H11      HGA3     0.090000        1.0080           0
     72788 WT24     683      MECN     H12      HGA3     0.090000        1.0080           0
     72789 WT24     683      MECN     H13      HGA3     0.090000        1.0080           0
     72790 WT24     683      MECN     C2       CG1N1    0.360000       12.0110           0
     72791 WT24     683      MECN     N3       NG1T1   -0.460000       14.0070           0
     72792 WT24     684      MECN     C1       CG331   -0.170000       12.0110           0
     72793 WT24     684      MECN     H11      HGA3     0.090000        1.0080           0
     72794 WT24     684      MECN     H12      HGA3     0.090000        1.0080           0
     72795 WT24     684      MECN     H13      HGA3     0.090000        1.0080           0
     72796 WT24     684      MECN     C2       CG1N1    0.360000       12.0110           0
     72797 WT24     684      MECN     N3       NG1T1   -0.460000       14.0070           0
     72798 WT24     685      MECN     C1       CG331   -0.170000       12.0110           0
     72799 WT24     685      MECN     H11      HGA3     0.090000        1.0080           0
     72800 WT24     685      MECN     H12      HGA3     0.090000        1.0080           0
     72801 WT24     685      MECN     H13      HGA3     0.090000        1.0080           0
     72802 WT24     685      MECN     C2       CG1N1    0.360000       12.0110           0
     72803 WT24     685      MECN     N3       NG1T1   -0.460000       14.0070           0
     72804 WT24     686      MECN     C1       CG331   -0.170000       12.0110           0
     72805 WT24     686      MECN     H11      HGA3     0.090000        1.0080           0
     72806 WT24     686      MECN     H12      HGA3     0.090000        1.0080           0
     72807 WT24     686      MECN     H13      HGA3     0.090000        1.0080           0
     72808 WT24     686      MECN     C2       CG1N1    0.360000       12.0110           0
     72809 WT24     686      MECN     N3       NG1T1   -0.460000       14.0070           0
     72810 WT24     690      MECN     C1       CG331   -0.170000       12.0110           0
     72811 WT24     690      MECN     H11      HGA3     0.090000        1.0080           0
     72812 WT24     690      MECN     H12      HGA3     0.090000        1.0080           0
     72813 WT24     690      MECN     H13      HGA3     0.090000        1.0080           0
     72814 WT24     690      MECN     C2       CG1N1    0.360000       12.0110           0
     72815 WT24     690      MECN     N3       NG1T1   -0.460000       14.0070           0
     72816 WT24     692      MECN     C1       CG331   -0.170000       12.0110           0
     72817 WT24     692      MECN     H11      HGA3     0.090000        1.0080           0
     72818 WT24     692      MECN     H12      HGA3     0.090000        1.0080           0
     72819 WT24     692      MECN     H13      HGA3     0.090000        1.0080           0
     72820 WT24     692      MECN     C2       CG1N1    0.360000       12.0110           0
     72821 WT24     692      MECN     N3       NG1T1   -0.460000       14.0070           0
     72822 WT24     693      MECN     C1       CG331   -0.170000       12.0110           0
     72823 WT24     693      MECN     H11      HGA3     0.090000        1.0080           0
     72824 WT24     693      MECN     H12      HGA3     0.090000        1.0080           0
     72825 WT24     693      MECN     H13      HGA3     0.090000        1.0080           0
     72826 WT24     693      MECN     C2       CG1N1    0.360000       12.0110           0
     72827 WT24     693      MECN     N3       NG1T1   -0.460000       14.0070           0
     72828 WT24     695      MECN     C1       CG331   -0.170000       12.0110           0
     72829 WT24     695      MECN     H11      HGA3     0.090000        1.0080           0
     72830 WT24     695      MECN     H12      HGA3     0.090000        1.0080           0
     72831 WT24     695      MECN     H13      HGA3     0.090000        1.0080           0
     72832 WT24     695      MECN     C2       CG1N1    0.360000       12.0110           0
     72833 WT24     695      MECN     N3       NG1T1   -0.460000       14.0070           0
     72834 WT24     696      MECN     C1       CG331   -0.170000       12.0110           0
     72835 WT24     696      MECN     H11      HGA3     0.090000        1.0080           0
     72836 WT24     696      MECN     H12      HGA3     0.090000        1.0080           0
     72837 WT24     696      MECN     H13      HGA3     0.090000        1.0080           0
     72838 WT24     696      MECN     C2       CG1N1    0.360000       12.0110           0
     72839 WT24     696      MECN     N3       NG1T1   -0.460000       14.0070           0
     72840 WT24     697      MECN     C1       CG331   -0.170000       12.0110           0
     72841 WT24     697      MECN     H11      HGA3     0.090000        1.0080           0
     72842 WT24     697      MECN     H12      HGA3     0.090000        1.0080           0
     72843 WT24     697      MECN     H13      HGA3     0.090000        1.0080           0
     72844 WT24     697      MECN     C2       CG1N1    0.360000       12.0110           0
     72845 WT24     697      MECN     N3       NG1T1   -0.460000       14.0070           0
     72846 WT24     701      MECN     C1       CG331   -0.170000       12.0110           0
     72847 WT24     701      MECN     H11      HGA3     0.090000        1.0080           0
     72848 WT24     701      MECN     H12      HGA3     0.090000        1.0080           0
     72849 WT24     701      MECN     H13      HGA3     0.090000        1.0080           0
     72850 WT24     701      MECN     C2       CG1N1    0.360000       12.0110           0
     72851 WT24     701      MECN     N3       NG1T1   -0.460000       14.0070           0
     72852 WT24     702      MECN     C1       CG331   -0.170000       12.0110           0
     72853 WT24     702      MECN     H11      HGA3     0.090000        1.0080           0
     72854 WT24     702      MECN     H12      HGA3     0.090000        1.0080           0
     72855 WT24     702      MECN     H13      HGA3     0.090000        1.0080           0
     72856 WT24     702      MECN     C2       CG1N1    0.360000       12.0110           0
     72857 WT24     702      MECN     N3       NG1T1   -0.460000       14.0070           0
     72858 WT24     707      MECN     C1       CG331   -0.170000       12.0110           0
     72859 WT24     707      MECN     H11      HGA3     0.090000        1.0080           0
     72860 WT24     707      MECN     H12      HGA3     0.090000        1.0080           0
     72861 WT24     707      MECN     H13      HGA3     0.090000        1.0080           0
     72862 WT24     707      MECN     C2       CG1N1    0.360000       12.0110           0
     72863 WT24     707      MECN     N3       NG1T1   -0.460000       14.0070           0
     72864 WT24     708      MECN     C1       CG331   -0.170000       12.0110           0
     72865 WT24     708      MECN     H11      HGA3     0.090000        1.0080           0
     72866 WT24     708      MECN     H12      HGA3     0.090000        1.0080           0
     72867 WT24     708      MECN     H13      HGA3     0.090000        1.0080           0
     72868 WT24     708      MECN     C2       CG1N1    0.360000       12.0110           0
     72869 WT24     708      MECN     N3       NG1T1   -0.460000       14.0070           0
     72870 WT24     709      MECN     C1       CG331   -0.170000       12.0110           0
     72871 WT24     709      MECN     H11      HGA3     0.090000        1.0080           0
     72872 WT24     709      MECN     H12      HGA3     0.090000        1.0080           0
     72873 WT24     709      MECN     H13      HGA3     0.090000        1.0080           0
     72874 WT24     709      MECN     C2       CG1N1    0.360000       12.0110           0
     72875 WT24     709      MECN     N3       NG1T1   -0.460000       14.0070           0
     72876 WT24     711      MECN     C1       CG331   -0.170000       12.0110           0
     72877 WT24     711      MECN     H11      HGA3     0.090000        1.0080           0
     72878 WT24     711      MECN     H12      HGA3     0.090000        1.0080           0
     72879 WT24     711      MECN     H13      HGA3     0.090000        1.0080           0
     72880 WT24     711      MECN     C2       CG1N1    0.360000       12.0110           0
     72881 WT24     711      MECN     N3       NG1T1   -0.460000       14.0070           0
     72882 WT24     712      MECN     C1       CG331   -0.170000       12.0110           0
     72883 WT24     712      MECN     H11      HGA3     0.090000        1.0080           0
     72884 WT24     712      MECN     H12      HGA3     0.090000        1.0080           0
     72885 WT24     712      MECN     H13      HGA3     0.090000        1.0080           0
     72886 WT24     712      MECN     C2       CG1N1    0.360000       12.0110           0
     72887 WT24     712      MECN     N3       NG1T1   -0.460000       14.0070           0
     72888 WT24     713      MECN     C1       CG331   -0.170000       12.0110           0
     72889 WT24     713      MECN     H11      HGA3     0.090000        1.0080           0
     72890 WT24     713      MECN     H12      HGA3     0.090000        1.0080           0
     72891 WT24     713      MECN     H13      HGA3     0.090000        1.0080           0
     72892 WT24     713      MECN     C2       CG1N1    0.360000       12.0110           0
     72893 WT24     713      MECN     N3       NG1T1   -0.460000       14.0070           0
     72894 WT24     714      MECN     C1       CG331   -0.170000       12.0110           0
     72895 WT24     714      MECN     H11      HGA3     0.090000        1.0080           0
     72896 WT24     714      MECN     H12      HGA3     0.090000        1.0080           0
     72897 WT24     714      MECN     H13      HGA3     0.090000        1.0080           0
     72898 WT24     714      MECN     C2       CG1N1    0.360000       12.0110           0
     72899 WT24     714      MECN     N3       NG1T1   -0.460000       14.0070           0
     72900 WT24     716      MECN     C1       CG331   -0.170000       12.0110           0
     72901 WT24     716      MECN     H11      HGA3     0.090000        1.0080           0
     72902 WT24     716      MECN     H12      HGA3     0.090000        1.0080           0
     72903 WT24     716      MECN     H13      HGA3     0.090000        1.0080           0
     72904 WT24     716      MECN     C2       CG1N1    0.360000       12.0110           0
     72905 WT24     716      MECN     N3       NG1T1   -0.460000       14.0070           0
     72906 WT24     717      MECN     C1       CG331   -0.170000       12.0110           0
     72907 WT24     717      MECN     H11      HGA3     0.090000        1.0080           0
     72908 WT24     717      MECN     H12      HGA3     0.090000        1.0080           0
     72909 WT24     717      MECN     H13      HGA3     0.090000        1.0080           0
     72910 WT24     717      MECN     C2       CG1N1    0.360000       12.0110           0
     72911 WT24     717      MECN     N3       NG1T1   -0.460000       14.0070           0
     72912 WT24     720      MECN     C1       CG331   -0.170000       12.0110           0
     72913 WT24     720      MECN     H11      HGA3     0.090000        1.0080           0
     72914 WT24     720      MECN     H12      HGA3     0.090000        1.0080           0
     72915 WT24     720      MECN     H13      HGA3     0.090000        1.0080           0
     72916 WT24     720      MECN     C2       CG1N1    0.360000       12.0110           0
     72917 WT24     720      MECN     N3       NG1T1   -0.460000       14.0070           0
     72918 WT24     729      MECN     C1       CG331   -0.170000       12.0110           0
     72919 WT24     729      MECN     H11      HGA3     0.090000        1.0080           0
     72920 WT24     729      MECN     H12      HGA3     0.090000        1.0080           0
     72921 WT24     729      MECN     H13      HGA3     0.090000        1.0080           0
     72922 WT24     729      MECN     C2       CG1N1    0.360000       12.0110           0
     72923 WT24     729      MECN     N3       NG1T1   -0.460000       14.0070           0
     72924 WT24     730      MECN     C1       CG331   -0.170000       12.0110           0
     72925 WT24     730      MECN     H11      HGA3     0.090000        1.0080           0
     72926 WT24     730      MECN     H12      HGA3     0.090000        1.0080           0
     72927 WT24     730      MECN     H13      HGA3     0.090000        1.0080           0
     72928 WT24     730      MECN     C2       CG1N1    0.360000       12.0110           0
     72929 WT24     730      MECN     N3       NG1T1   -0.460000       14.0070           0
     72930 WT24     731      MECN     C1       CG331   -0.170000       12.0110           0
     72931 WT24     731      MECN     H11      HGA3     0.090000        1.0080           0
     72932 WT24     731      MECN     H12      HGA3     0.090000        1.0080           0
     72933 WT24     731      MECN     H13      HGA3     0.090000        1.0080           0
     72934 WT24     731      MECN     C2       CG1N1    0.360000       12.0110           0
     72935 WT24     731      MECN     N3       NG1T1   -0.460000       14.0070           0
     72936 WT24     732      MECN     C1       CG331   -0.170000       12.0110           0
     72937 WT24     732      MECN     H11      HGA3     0.090000        1.0080           0
     72938 WT24     732      MECN     H12      HGA3     0.090000        1.0080           0
     72939 WT24     732      MECN     H13      HGA3     0.090000        1.0080           0
     72940 WT24     732      MECN     C2       CG1N1    0.360000       12.0110           0
     72941 WT24     732      MECN     N3       NG1T1   -0.460000       14.0070           0
     72942 WT24     733      MECN     C1       CG331   -0.170000       12.0110           0
     72943 WT24     733      MECN     H11      HGA3     0.090000        1.0080           0
     72944 WT24     733      MECN     H12      HGA3     0.090000        1.0080           0
     72945 WT24     733      MECN     H13      HGA3     0.090000        1.0080           0
     72946 WT24     733      MECN     C2       CG1N1    0.360000       12.0110           0
     72947 WT24     733      MECN     N3       NG1T1   -0.460000       14.0070           0
     72948 WT24     734      MECN     C1       CG331   -0.170000       12.0110           0
     72949 WT24     734      MECN     H11      HGA3     0.090000        1.0080           0
     72950 WT24     734      MECN     H12      HGA3     0.090000        1.0080           0
     72951 WT24     734      MECN     H13      HGA3     0.090000        1.0080           0
     72952 WT24     734      MECN     C2       CG1N1    0.360000       12.0110           0
     72953 WT24     734      MECN     N3       NG1T1   -0.460000       14.0070           0
     72954 WT24     735      MECN     C1       CG331   -0.170000       12.0110           0
     72955 WT24     735      MECN     H11      HGA3     0.090000        1.0080           0
     72956 WT24     735      MECN     H12      HGA3     0.090000        1.0080           0
     72957 WT24     735      MECN     H13      HGA3     0.090000        1.0080           0
     72958 WT24     735      MECN     C2       CG1N1    0.360000       12.0110           0
     72959 WT24     735      MECN     N3       NG1T1   -0.460000       14.0070           0
     72960 WT24     736      MECN     C1       CG331   -0.170000       12.0110           0
     72961 WT24     736      MECN     H11      HGA3     0.090000        1.0080           0
     72962 WT24     736      MECN     H12      HGA3     0.090000        1.0080           0
     72963 WT24     736      MECN     H13      HGA3     0.090000        1.0080           0
     72964 WT24     736      MECN     C2       CG1N1    0.360000       12.0110           0
     72965 WT24     736      MECN     N3       NG1T1   -0.460000       14.0070           0
     72966 WT24     737      MECN     C1       CG331   -0.170000       12.0110           0
     72967 WT24     737      MECN     H11      HGA3     0.090000        1.0080           0
     72968 WT24     737      MECN     H12      HGA3     0.090000        1.0080           0
     72969 WT24     737      MECN     H13      HGA3     0.090000        1.0080           0
     72970 WT24     737      MECN     C2       CG1N1    0.360000       12.0110           0
     72971 WT24     737      MECN     N3       NG1T1   -0.460000       14.0070           0
     72972 WT24     738      MECN     C1       CG331   -0.170000       12.0110           0
     72973 WT24     738      MECN     H11      HGA3     0.090000        1.0080           0
     72974 WT24     738      MECN     H12      HGA3     0.090000        1.0080           0
     72975 WT24     738      MECN     H13      HGA3     0.090000        1.0080           0
     72976 WT24     738      MECN     C2       CG1N1    0.360000       12.0110           0
     72977 WT24     738      MECN     N3       NG1T1   -0.460000       14.0070           0
     72978 WT24     739      MECN     C1       CG331   -0.170000       12.0110           0
     72979 WT24     739      MECN     H11      HGA3     0.090000        1.0080           0
     72980 WT24     739      MECN     H12      HGA3     0.090000        1.0080           0
     72981 WT24     739      MECN     H13      HGA3     0.090000        1.0080           0
     72982 WT24     739      MECN     C2       CG1N1    0.360000       12.0110           0
     72983 WT24     739      MECN     N3       NG1T1   -0.460000       14.0070           0
     72984 WT24     740      MECN     C1       CG331   -0.170000       12.0110           0
     72985 WT24     740      MECN     H11      HGA3     0.090000        1.0080           0
     72986 WT24     740      MECN     H12      HGA3     0.090000        1.0080           0
     72987 WT24     740      MECN     H13      HGA3     0.090000        1.0080           0
     72988 WT24     740      MECN     C2       CG1N1    0.360000       12.0110           0
     72989 WT24     740      MECN     N3       NG1T1   -0.460000       14.0070           0
     72990 WT24     741      MECN     C1       CG331   -0.170000       12.0110           0
     72991 WT24     741      MECN     H11      HGA3     0.090000        1.0080           0
     72992 WT24     741      MECN     H12      HGA3     0.090000        1.0080           0
     72993 WT24     741      MECN     H13      HGA3     0.090000        1.0080           0
     72994 WT24     741      MECN     C2       CG1N1    0.360000       12.0110           0
     72995 WT24     741      MECN     N3       NG1T1   -0.460000       14.0070           0
     72996 WT24     743      MECN     C1       CG331   -0.170000       12.0110           0
     72997 WT24     743      MECN     H11      HGA3     0.090000        1.0080           0
     72998 WT24     743      MECN     H12      HGA3     0.090000        1.0080           0
     72999 WT24     743      MECN     H13      HGA3     0.090000        1.0080           0
     73000 WT24     743      MECN     C2       CG1N1    0.360000       12.0110           0
     73001 WT24     743      MECN     N3       NG1T1   -0.460000       14.0070           0
     73002 WT24     744      MECN     C1       CG331   -0.170000       12.0110           0
     73003 WT24     744      MECN     H11      HGA3     0.090000        1.0080           0
     73004 WT24     744      MECN     H12      HGA3     0.090000        1.0080           0
     73005 WT24     744      MECN     H13      HGA3     0.090000        1.0080           0
     73006 WT24     744      MECN     C2       CG1N1    0.360000       12.0110           0
     73007 WT24     744      MECN     N3       NG1T1   -0.460000       14.0070           0
     73008 WT24     745      MECN     C1       CG331   -0.170000       12.0110           0
     73009 WT24     745      MECN     H11      HGA3     0.090000        1.0080           0
     73010 WT24     745      MECN     H12      HGA3     0.090000        1.0080           0
     73011 WT24     745      MECN     H13      HGA3     0.090000        1.0080           0
     73012 WT24     745      MECN     C2       CG1N1    0.360000       12.0110           0
     73013 WT24     745      MECN     N3       NG1T1   -0.460000       14.0070           0
     73014 WT24     746      MECN     C1       CG331   -0.170000       12.0110           0
     73015 WT24     746      MECN     H11      HGA3     0.090000        1.0080           0
     73016 WT24     746      MECN     H12      HGA3     0.090000        1.0080           0
     73017 WT24     746      MECN     H13      HGA3     0.090000        1.0080           0
     73018 WT24     746      MECN     C2       CG1N1    0.360000       12.0110           0
     73019 WT24     746      MECN     N3       NG1T1   -0.460000       14.0070           0
     73020 WT24     747      MECN     C1       CG331   -0.170000       12.0110           0
     73021 WT24     747      MECN     H11      HGA3     0.090000        1.0080           0
     73022 WT24     747      MECN     H12      HGA3     0.090000        1.0080           0
     73023 WT24     747      MECN     H13      HGA3     0.090000        1.0080           0
     73024 WT24     747      MECN     C2       CG1N1    0.360000       12.0110           0
     73025 WT24     747      MECN     N3       NG1T1   -0.460000       14.0070           0
     73026 WT24     750      MECN     C1       CG331   -0.170000       12.0110           0
     73027 WT24     750      MECN     H11      HGA3     0.090000        1.0080           0
     73028 WT24     750      MECN     H12      HGA3     0.090000        1.0080           0
     73029 WT24     750      MECN     H13      HGA3     0.090000        1.0080           0
     73030 WT24     750      MECN     C2       CG1N1    0.360000       12.0110           0
     73031 WT24     750      MECN     N3       NG1T1   -0.460000       14.0070           0
     73032 WT24     751      MECN     C1       CG331   -0.170000       12.0110           0
     73033 WT24     751      MECN     H11      HGA3     0.090000        1.0080           0
     73034 WT24     751      MECN     H12      HGA3     0.090000        1.0080           0
     73035 WT24     751      MECN     H13      HGA3     0.090000        1.0080           0
     73036 WT24     751      MECN     C2       CG1N1    0.360000       12.0110           0
     73037 WT24     751      MECN     N3       NG1T1   -0.460000       14.0070           0
     73038 WT24     752      MECN     C1       CG331   -0.170000       12.0110           0
     73039 WT24     752      MECN     H11      HGA3     0.090000        1.0080           0
     73040 WT24     752      MECN     H12      HGA3     0.090000        1.0080           0
     73041 WT24     752      MECN     H13      HGA3     0.090000        1.0080           0
     73042 WT24     752      MECN     C2       CG1N1    0.360000       12.0110           0
     73043 WT24     752      MECN     N3       NG1T1   -0.460000       14.0070           0
     73044 WT24     753      MECN     C1       CG331   -0.170000       12.0110           0
     73045 WT24     753      MECN     H11      HGA3     0.090000        1.0080           0
     73046 WT24     753      MECN     H12      HGA3     0.090000        1.0080           0
     73047 WT24     753      MECN     H13      HGA3     0.090000        1.0080           0
     73048 WT24     753      MECN     C2       CG1N1    0.360000       12.0110           0
     73049 WT24     753      MECN     N3       NG1T1   -0.460000       14.0070           0
     73050 WT24     754      MECN     C1       CG331   -0.170000       12.0110           0
     73051 WT24     754      MECN     H11      HGA3     0.090000        1.0080           0
     73052 WT24     754      MECN     H12      HGA3     0.090000        1.0080           0
     73053 WT24     754      MECN     H13      HGA3     0.090000        1.0080           0
     73054 WT24     754      MECN     C2       CG1N1    0.360000       12.0110           0
     73055 WT24     754      MECN     N3       NG1T1   -0.460000       14.0070           0
     73056 WT24     755      MECN     C1       CG331   -0.170000       12.0110           0
     73057 WT24     755      MECN     H11      HGA3     0.090000        1.0080           0
     73058 WT24     755      MECN     H12      HGA3     0.090000        1.0080           0
     73059 WT24     755      MECN     H13      HGA3     0.090000        1.0080           0
     73060 WT24     755      MECN     C2       CG1N1    0.360000       12.0110           0
     73061 WT24     755      MECN     N3       NG1T1   -0.460000       14.0070           0
     73062 WT24     756      MECN     C1       CG331   -0.170000       12.0110           0
     73063 WT24     756      MECN     H11      HGA3     0.090000        1.0080           0
     73064 WT24     756      MECN     H12      HGA3     0.090000        1.0080           0
     73065 WT24     756      MECN     H13      HGA3     0.090000        1.0080           0
     73066 WT24     756      MECN     C2       CG1N1    0.360000       12.0110           0
     73067 WT24     756      MECN     N3       NG1T1   -0.460000       14.0070           0
     73068 WT24     757      MECN     C1       CG331   -0.170000       12.0110           0
     73069 WT24     757      MECN     H11      HGA3     0.090000        1.0080           0
     73070 WT24     757      MECN     H12      HGA3     0.090000        1.0080           0
     73071 WT24     757      MECN     H13      HGA3     0.090000        1.0080           0
     73072 WT24     757      MECN     C2       CG1N1    0.360000       12.0110           0
     73073 WT24     757      MECN     N3       NG1T1   -0.460000       14.0070           0
     73074 WT24     759      MECN     C1       CG331   -0.170000       12.0110           0
     73075 WT24     759      MECN     H11      HGA3     0.090000        1.0080           0
     73076 WT24     759      MECN     H12      HGA3     0.090000        1.0080           0
     73077 WT24     759      MECN     H13      HGA3     0.090000        1.0080           0
     73078 WT24     759      MECN     C2       CG1N1    0.360000       12.0110           0
     73079 WT24     759      MECN     N3       NG1T1   -0.460000       14.0070           0
     73080 WT24     760      MECN     C1       CG331   -0.170000       12.0110           0
     73081 WT24     760      MECN     H11      HGA3     0.090000        1.0080           0
     73082 WT24     760      MECN     H12      HGA3     0.090000        1.0080           0
     73083 WT24     760      MECN     H13      HGA3     0.090000        1.0080           0
     73084 WT24     760      MECN     C2       CG1N1    0.360000       12.0110           0
     73085 WT24     760      MECN     N3       NG1T1   -0.460000       14.0070           0
     73086 WT24     761      MECN     C1       CG331   -0.170000       12.0110           0
     73087 WT24     761      MECN     H11      HGA3     0.090000        1.0080           0
     73088 WT24     761      MECN     H12      HGA3     0.090000        1.0080           0
     73089 WT24     761      MECN     H13      HGA3     0.090000        1.0080           0
     73090 WT24     761      MECN     C2       CG1N1    0.360000       12.0110           0
     73091 WT24     761      MECN     N3       NG1T1   -0.460000       14.0070           0
     73092 WT24     763      MECN     C1       CG331   -0.170000       12.0110           0
     73093 WT24     763      MECN     H11      HGA3     0.090000        1.0080           0
     73094 WT24     763      MECN     H12      HGA3     0.090000        1.0080           0
     73095 WT24     763      MECN     H13      HGA3     0.090000        1.0080           0
     73096 WT24     763      MECN     C2       CG1N1    0.360000       12.0110           0
     73097 WT24     763      MECN     N3       NG1T1   -0.460000       14.0070           0
     73098 WT24     764      MECN     C1       CG331   -0.170000       12.0110           0
     73099 WT24     764      MECN     H11      HGA3     0.090000        1.0080           0
     73100 WT24     764      MECN     H12      HGA3     0.090000        1.0080           0
     73101 WT24     764      MECN     H13      HGA3     0.090000        1.0080           0
     73102 WT24     764      MECN     C2       CG1N1    0.360000       12.0110           0
     73103 WT24     764      MECN     N3       NG1T1   -0.460000       14.0070           0
     73104 WT24     766      MECN     C1       CG331   -0.170000       12.0110           0
     73105 WT24     766      MECN     H11      HGA3     0.090000        1.0080           0
     73106 WT24     766      MECN     H12      HGA3     0.090000        1.0080           0
     73107 WT24     766      MECN     H13      HGA3     0.090000        1.0080           0
     73108 WT24     766      MECN     C2       CG1N1    0.360000       12.0110           0
     73109 WT24     766      MECN     N3       NG1T1   -0.460000       14.0070           0
     73110 WT24     769      MECN     C1       CG331   -0.170000       12.0110           0
     73111 WT24     769      MECN     H11      HGA3     0.090000        1.0080           0
     73112 WT24     769      MECN     H12      HGA3     0.090000        1.0080           0
     73113 WT24     769      MECN     H13      HGA3     0.090000        1.0080           0
     73114 WT24     769      MECN     C2       CG1N1    0.360000       12.0110           0
     73115 WT24     769      MECN     N3       NG1T1   -0.460000       14.0070           0
     73116 WT24     773      MECN     C1       CG331   -0.170000       12.0110           0
     73117 WT24     773      MECN     H11      HGA3     0.090000        1.0080           0
     73118 WT24     773      MECN     H12      HGA3     0.090000        1.0080           0
     73119 WT24     773      MECN     H13      HGA3     0.090000        1.0080           0
     73120 WT24     773      MECN     C2       CG1N1    0.360000       12.0110           0
     73121 WT24     773      MECN     N3       NG1T1   -0.460000       14.0070           0
     73122 WT24     775      MECN     C1       CG331   -0.170000       12.0110           0
     73123 WT24     775      MECN     H11      HGA3     0.090000        1.0080           0
     73124 WT24     775      MECN     H12      HGA3     0.090000        1.0080           0
     73125 WT24     775      MECN     H13      HGA3     0.090000        1.0080           0
     73126 WT24     775      MECN     C2       CG1N1    0.360000       12.0110           0
     73127 WT24     775      MECN     N3       NG1T1   -0.460000       14.0070           0
     73128 WT24     777      MECN     C1       CG331   -0.170000       12.0110           0
     73129 WT24     777      MECN     H11      HGA3     0.090000        1.0080           0
     73130 WT24     777      MECN     H12      HGA3     0.090000        1.0080           0
     73131 WT24     777      MECN     H13      HGA3     0.090000        1.0080           0
     73132 WT24     777      MECN     C2       CG1N1    0.360000       12.0110           0
     73133 WT24     777      MECN     N3       NG1T1   -0.460000       14.0070           0
     73134 WT24     779      MECN     C1       CG331   -0.170000       12.0110           0
     73135 WT24     779      MECN     H11      HGA3     0.090000        1.0080           0
     73136 WT24     779      MECN     H12      HGA3     0.090000        1.0080           0
     73137 WT24     779      MECN     H13      HGA3     0.090000        1.0080           0
     73138 WT24     779      MECN     C2       CG1N1    0.360000       12.0110           0
     73139 WT24     779      MECN     N3       NG1T1   -0.460000       14.0070           0
     73140 WT24     782      MECN     C1       CG331   -0.170000       12.0110           0
     73141 WT24     782      MECN     H11      HGA3     0.090000        1.0080           0
     73142 WT24     782      MECN     H12      HGA3     0.090000        1.0080           0
     73143 WT24     782      MECN     H13      HGA3     0.090000        1.0080           0
     73144 WT24     782      MECN     C2       CG1N1    0.360000       12.0110           0
     73145 WT24     782      MECN     N3       NG1T1   -0.460000       14.0070           0
     73146 WT24     784      MECN     C1       CG331   -0.170000       12.0110           0
     73147 WT24     784      MECN     H11      HGA3     0.090000        1.0080           0
     73148 WT24     784      MECN     H12      HGA3     0.090000        1.0080           0
     73149 WT24     784      MECN     H13      HGA3     0.090000        1.0080           0
     73150 WT24     784      MECN     C2       CG1N1    0.360000       12.0110           0
     73151 WT24     784      MECN     N3       NG1T1   -0.460000       14.0070           0
     73152 WT24     786      MECN     C1       CG331   -0.170000       12.0110           0
     73153 WT24     786      MECN     H11      HGA3     0.090000        1.0080           0
     73154 WT24     786      MECN     H12      HGA3     0.090000        1.0080           0
     73155 WT24     786      MECN     H13      HGA3     0.090000        1.0080           0
     73156 WT24     786      MECN     C2       CG1N1    0.360000       12.0110           0
     73157 WT24     786      MECN     N3       NG1T1   -0.460000       14.0070           0
     73158 WT24     788      MECN     C1       CG331   -0.170000       12.0110           0
     73159 WT24     788      MECN     H11      HGA3     0.090000        1.0080           0
     73160 WT24     788      MECN     H12      HGA3     0.090000        1.0080           0
     73161 WT24     788      MECN     H13      HGA3     0.090000        1.0080           0
     73162 WT24     788      MECN     C2       CG1N1    0.360000       12.0110           0
     73163 WT24     788      MECN     N3       NG1T1   -0.460000       14.0070           0
     73164 WT24     789      MECN     C1       CG331   -0.170000       12.0110           0
     73165 WT24     789      MECN     H11      HGA3     0.090000        1.0080           0
     73166 WT24     789      MECN     H12      HGA3     0.090000        1.0080           0
     73167 WT24     789      MECN     H13      HGA3     0.090000        1.0080           0
     73168 WT24     789      MECN     C2       CG1N1    0.360000       12.0110           0
     73169 WT24     789      MECN     N3       NG1T1   -0.460000       14.0070           0
     73170 WT24     792      MECN     C1       CG331   -0.170000       12.0110           0
     73171 WT24     792      MECN     H11      HGA3     0.090000        1.0080           0
     73172 WT24     792      MECN     H12      HGA3     0.090000        1.0080           0
     73173 WT24     792      MECN     H13      HGA3     0.090000        1.0080           0
     73174 WT24     792      MECN     C2       CG1N1    0.360000       12.0110           0
     73175 WT24     792      MECN     N3       NG1T1   -0.460000       14.0070           0
     73176 WT24     795      MECN     C1       CG331   -0.170000       12.0110           0
     73177 WT24     795      MECN     H11      HGA3     0.090000        1.0080           0
     73178 WT24     795      MECN     H12      HGA3     0.090000        1.0080           0
     73179 WT24     795      MECN     H13      HGA3     0.090000        1.0080           0
     73180 WT24     795      MECN     C2       CG1N1    0.360000       12.0110           0
     73181 WT24     795      MECN     N3       NG1T1   -0.460000       14.0070           0
     73182 WT24     796      MECN     C1       CG331   -0.170000       12.0110           0
     73183 WT24     796      MECN     H11      HGA3     0.090000        1.0080           0
     73184 WT24     796      MECN     H12      HGA3     0.090000        1.0080           0
     73185 WT24     796      MECN     H13      HGA3     0.090000        1.0080           0
     73186 WT24     796      MECN     C2       CG1N1    0.360000       12.0110           0
     73187 WT24     796      MECN     N3       NG1T1   -0.460000       14.0070           0
     73188 WT24     798      MECN     C1       CG331   -0.170000       12.0110           0
     73189 WT24     798      MECN     H11      HGA3     0.090000        1.0080           0
     73190 WT24     798      MECN     H12      HGA3     0.090000        1.0080           0
     73191 WT24     798      MECN     H13      HGA3     0.090000        1.0080           0
     73192 WT24     798      MECN     C2       CG1N1    0.360000       12.0110           0
     73193 WT24     798      MECN     N3       NG1T1   -0.460000       14.0070           0
     73194 WT24     800      MECN     C1       CG331   -0.170000       12.0110           0
     73195 WT24     800      MECN     H11      HGA3     0.090000        1.0080           0
     73196 WT24     800      MECN     H12      HGA3     0.090000        1.0080           0
     73197 WT24     800      MECN     H13      HGA3     0.090000        1.0080           0
     73198 WT24     800      MECN     C2       CG1N1    0.360000       12.0110           0
     73199 WT24     800      MECN     N3       NG1T1   -0.460000       14.0070           0
     73200 WT24     801      MECN     C1       CG331   -0.170000       12.0110           0
     73201 WT24     801      MECN     H11      HGA3     0.090000        1.0080           0
     73202 WT24     801      MECN     H12      HGA3     0.090000        1.0080           0
     73203 WT24     801      MECN     H13      HGA3     0.090000        1.0080           0
     73204 WT24     801      MECN     C2       CG1N1    0.360000       12.0110           0
     73205 WT24     801      MECN     N3       NG1T1   -0.460000       14.0070           0
     73206 WT24     802      MECN     C1       CG331   -0.170000       12.0110           0
     73207 WT24     802      MECN     H11      HGA3     0.090000        1.0080           0
     73208 WT24     802      MECN     H12      HGA3     0.090000        1.0080           0
     73209 WT24     802      MECN     H13      HGA3     0.090000        1.0080           0
     73210 WT24     802      MECN     C2       CG1N1    0.360000       12.0110           0
     73211 WT24     802      MECN     N3       NG1T1   -0.460000       14.0070           0
     73212 WT24     803      MECN     C1       CG331   -0.170000       12.0110           0
     73213 WT24     803      MECN     H11      HGA3     0.090000        1.0080           0
     73214 WT24     803      MECN     H12      HGA3     0.090000        1.0080           0
     73215 WT24     803      MECN     H13      HGA3     0.090000        1.0080           0
     73216 WT24     803      MECN     C2       CG1N1    0.360000       12.0110           0
     73217 WT24     803      MECN     N3       NG1T1   -0.460000       14.0070           0
     73218 WT24     809      MECN     C1       CG331   -0.170000       12.0110           0
     73219 WT24     809      MECN     H11      HGA3     0.090000        1.0080           0
     73220 WT24     809      MECN     H12      HGA3     0.090000        1.0080           0
     73221 WT24     809      MECN     H13      HGA3     0.090000        1.0080           0
     73222 WT24     809      MECN     C2       CG1N1    0.360000       12.0110           0
     73223 WT24     809      MECN     N3       NG1T1   -0.460000       14.0070           0
     73224 WT24     810      MECN     C1       CG331   -0.170000       12.0110           0
     73225 WT24     810      MECN     H11      HGA3     0.090000        1.0080           0
     73226 WT24     810      MECN     H12      HGA3     0.090000        1.0080           0
     73227 WT24     810      MECN     H13      HGA3     0.090000        1.0080           0
     73228 WT24     810      MECN     C2       CG1N1    0.360000       12.0110           0
     73229 WT24     810      MECN     N3       NG1T1   -0.460000       14.0070           0
     73230 WT24     812      MECN     C1       CG331   -0.170000       12.0110           0
     73231 WT24     812      MECN     H11      HGA3     0.090000        1.0080           0
     73232 WT24     812      MECN     H12      HGA3     0.090000        1.0080           0
     73233 WT24     812      MECN     H13      HGA3     0.090000        1.0080           0
     73234 WT24     812      MECN     C2       CG1N1    0.360000       12.0110           0
     73235 WT24     812      MECN     N3       NG1T1   -0.460000       14.0070           0
     73236 WT24     813      MECN     C1       CG331   -0.170000       12.0110           0
     73237 WT24     813      MECN     H11      HGA3     0.090000        1.0080           0
     73238 WT24     813      MECN     H12      HGA3     0.090000        1.0080           0
     73239 WT24     813      MECN     H13      HGA3     0.090000        1.0080           0
     73240 WT24     813      MECN     C2       CG1N1    0.360000       12.0110           0
     73241 WT24     813      MECN     N3       NG1T1   -0.460000       14.0070           0
     73242 WT24     814      MECN     C1       CG331   -0.170000       12.0110           0
     73243 WT24     814      MECN     H11      HGA3     0.090000        1.0080           0
     73244 WT24     814      MECN     H12      HGA3     0.090000        1.0080           0
     73245 WT24     814      MECN     H13      HGA3     0.090000        1.0080           0
     73246 WT24     814      MECN     C2       CG1N1    0.360000       12.0110           0
     73247 WT24     814      MECN     N3       NG1T1   -0.460000       14.0070           0
     73248 WT24     815      MECN     C1       CG331   -0.170000       12.0110           0
     73249 WT24     815      MECN     H11      HGA3     0.090000        1.0080           0
     73250 WT24     815      MECN     H12      HGA3     0.090000        1.0080           0
     73251 WT24     815      MECN     H13      HGA3     0.090000        1.0080           0
     73252 WT24     815      MECN     C2       CG1N1    0.360000       12.0110           0
     73253 WT24     815      MECN     N3       NG1T1   -0.460000       14.0070           0
     73254 WT24     819      MECN     C1       CG331   -0.170000       12.0110           0
     73255 WT24     819      MECN     H11      HGA3     0.090000        1.0080           0
     73256 WT24     819      MECN     H12      HGA3     0.090000        1.0080           0
     73257 WT24     819      MECN     H13      HGA3     0.090000        1.0080           0
     73258 WT24     819      MECN     C2       CG1N1    0.360000       12.0110           0
     73259 WT24     819      MECN     N3       NG1T1   -0.460000       14.0070           0
     73260 WT24     820      MECN     C1       CG331   -0.170000       12.0110           0
     73261 WT24     820      MECN     H11      HGA3     0.090000        1.0080           0
     73262 WT24     820      MECN     H12      HGA3     0.090000        1.0080           0
     73263 WT24     820      MECN     H13      HGA3     0.090000        1.0080           0
     73264 WT24     820      MECN     C2       CG1N1    0.360000       12.0110           0
     73265 WT24     820      MECN     N3       NG1T1   -0.460000       14.0070           0
     73266 WT24     822      MECN     C1       CG331   -0.170000       12.0110           0
     73267 WT24     822      MECN     H11      HGA3     0.090000        1.0080           0
     73268 WT24     822      MECN     H12      HGA3     0.090000        1.0080           0
     73269 WT24     822      MECN     H13      HGA3     0.090000        1.0080           0
     73270 WT24     822      MECN     C2       CG1N1    0.360000       12.0110           0
     73271 WT24     822      MECN     N3       NG1T1   -0.460000       14.0070           0
     73272 WT24     824      MECN     C1       CG331   -0.170000       12.0110           0
     73273 WT24     824      MECN     H11      HGA3     0.090000        1.0080           0
     73274 WT24     824      MECN     H12      HGA3     0.090000        1.0080           0
     73275 WT24     824      MECN     H13      HGA3     0.090000        1.0080           0
     73276 WT24     824      MECN     C2       CG1N1    0.360000       12.0110           0
     73277 WT24     824      MECN     N3       NG1T1   -0.460000       14.0070           0
     73278 WT24     826      MECN     C1       CG331   -0.170000       12.0110           0
     73279 WT24     826      MECN     H11      HGA3     0.090000        1.0080           0
     73280 WT24     826      MECN     H12      HGA3     0.090000        1.0080           0
     73281 WT24     826      MECN     H13      HGA3     0.090000        1.0080           0
     73282 WT24     826      MECN     C2       CG1N1    0.360000       12.0110           0
     73283 WT24     826      MECN     N3       NG1T1   -0.460000       14.0070           0
     73284 WT24     829      MECN     C1       CG331   -0.170000       12.0110           0
     73285 WT24     829      MECN     H11      HGA3     0.090000        1.0080           0
     73286 WT24     829      MECN     H12      HGA3     0.090000        1.0080           0
     73287 WT24     829      MECN     H13      HGA3     0.090000        1.0080           0
     73288 WT24     829      MECN     C2       CG1N1    0.360000       12.0110           0
     73289 WT24     829      MECN     N3       NG1T1   -0.460000       14.0070           0
     73290 WT24     830      MECN     C1       CG331   -0.170000       12.0110           0
     73291 WT24     830      MECN     H11      HGA3     0.090000        1.0080           0
     73292 WT24     830      MECN     H12      HGA3     0.090000        1.0080           0
     73293 WT24     830      MECN     H13      HGA3     0.090000        1.0080           0
     73294 WT24     830      MECN     C2       CG1N1    0.360000       12.0110           0
     73295 WT24     830      MECN     N3       NG1T1   -0.460000       14.0070           0
     73296 WT24     831      MECN     C1       CG331   -0.170000       12.0110           0
     73297 WT24     831      MECN     H11      HGA3     0.090000        1.0080           0
     73298 WT24     831      MECN     H12      HGA3     0.090000        1.0080           0
     73299 WT24     831      MECN     H13      HGA3     0.090000        1.0080           0
     73300 WT24     831      MECN     C2       CG1N1    0.360000       12.0110           0
     73301 WT24     831      MECN     N3       NG1T1   -0.460000       14.0070           0
     73302 WT24     832      MECN     C1       CG331   -0.170000       12.0110           0
     73303 WT24     832      MECN     H11      HGA3     0.090000        1.0080           0
     73304 WT24     832      MECN     H12      HGA3     0.090000        1.0080           0
     73305 WT24     832      MECN     H13      HGA3     0.090000        1.0080           0
     73306 WT24     832      MECN     C2       CG1N1    0.360000       12.0110           0
     73307 WT24     832      MECN     N3       NG1T1   -0.460000       14.0070           0
     73308 WT24     835      MECN     C1       CG331   -0.170000       12.0110           0
     73309 WT24     835      MECN     H11      HGA3     0.090000        1.0080           0
     73310 WT24     835      MECN     H12      HGA3     0.090000        1.0080           0
     73311 WT24     835      MECN     H13      HGA3     0.090000        1.0080           0
     73312 WT24     835      MECN     C2       CG1N1    0.360000       12.0110           0
     73313 WT24     835      MECN     N3       NG1T1   -0.460000       14.0070           0
     73314 WT24     838      MECN     C1       CG331   -0.170000       12.0110           0
     73315 WT24     838      MECN     H11      HGA3     0.090000        1.0080           0
     73316 WT24     838      MECN     H12      HGA3     0.090000        1.0080           0
     73317 WT24     838      MECN     H13      HGA3     0.090000        1.0080           0
     73318 WT24     838      MECN     C2       CG1N1    0.360000       12.0110           0
     73319 WT24     838      MECN     N3       NG1T1   -0.460000       14.0070           0
     73320 WT24     842      MECN     C1       CG331   -0.170000       12.0110           0
     73321 WT24     842      MECN     H11      HGA3     0.090000        1.0080           0
     73322 WT24     842      MECN     H12      HGA3     0.090000        1.0080           0
     73323 WT24     842      MECN     H13      HGA3     0.090000        1.0080           0
     73324 WT24     842      MECN     C2       CG1N1    0.360000       12.0110           0
     73325 WT24     842      MECN     N3       NG1T1   -0.460000       14.0070           0
     73326 WT24     843      MECN     C1       CG331   -0.170000       12.0110           0
     73327 WT24     843      MECN     H11      HGA3     0.090000        1.0080           0
     73328 WT24     843      MECN     H12      HGA3     0.090000        1.0080           0
     73329 WT24     843      MECN     H13      HGA3     0.090000        1.0080           0
     73330 WT24     843      MECN     C2       CG1N1    0.360000       12.0110           0
     73331 WT24     843      MECN     N3       NG1T1   -0.460000       14.0070           0
     73332 WT24     844      MECN     C1       CG331   -0.170000       12.0110           0
     73333 WT24     844      MECN     H11      HGA3     0.090000        1.0080           0
     73334 WT24     844      MECN     H12      HGA3     0.090000        1.0080           0
     73335 WT24     844      MECN     H13      HGA3     0.090000        1.0080           0
     73336 WT24     844      MECN     C2       CG1N1    0.360000       12.0110           0
     73337 WT24     844      MECN     N3       NG1T1   -0.460000       14.0070           0
     73338 WT24     847      MECN     C1       CG331   -0.170000       12.0110           0
     73339 WT24     847      MECN     H11      HGA3     0.090000        1.0080           0
     73340 WT24     847      MECN     H12      HGA3     0.090000        1.0080           0
     73341 WT24     847      MECN     H13      HGA3     0.090000        1.0080           0
     73342 WT24     847      MECN     C2       CG1N1    0.360000       12.0110           0
     73343 WT24     847      MECN     N3       NG1T1   -0.460000       14.0070           0
     73344 WT24     848      MECN     C1       CG331   -0.170000       12.0110           0
     73345 WT24     848      MECN     H11      HGA3     0.090000        1.0080           0
     73346 WT24     848      MECN     H12      HGA3     0.090000        1.0080           0
     73347 WT24     848      MECN     H13      HGA3     0.090000        1.0080           0
     73348 WT24     848      MECN     C2       CG1N1    0.360000       12.0110           0
     73349 WT24     848      MECN     N3       NG1T1   -0.460000       14.0070           0
     73350 WT24     850      MECN     C1       CG331   -0.170000       12.0110           0
     73351 WT24     850      MECN     H11      HGA3     0.090000        1.0080           0
     73352 WT24     850      MECN     H12      HGA3     0.090000        1.0080           0
     73353 WT24     850      MECN     H13      HGA3     0.090000        1.0080           0
     73354 WT24     850      MECN     C2       CG1N1    0.360000       12.0110           0
     73355 WT24     850      MECN     N3       NG1T1   -0.460000       14.0070           0
     73356 WT24     851      MECN     C1       CG331   -0.170000       12.0110           0
     73357 WT24     851      MECN     H11      HGA3     0.090000        1.0080           0
     73358 WT24     851      MECN     H12      HGA3     0.090000        1.0080           0
     73359 WT24     851      MECN     H13      HGA3     0.090000        1.0080           0
     73360 WT24     851      MECN     C2       CG1N1    0.360000       12.0110           0
     73361 WT24     851      MECN     N3       NG1T1   -0.460000       14.0070           0
     73362 WT24     852      MECN     C1       CG331   -0.170000       12.0110           0
     73363 WT24     852      MECN     H11      HGA3     0.090000        1.0080           0
     73364 WT24     852      MECN     H12      HGA3     0.090000        1.0080           0
     73365 WT24     852      MECN     H13      HGA3     0.090000        1.0080           0
     73366 WT24     852      MECN     C2       CG1N1    0.360000       12.0110           0
     73367 WT24     852      MECN     N3       NG1T1   -0.460000       14.0070           0
     73368 WT24     857      MECN     C1       CG331   -0.170000       12.0110           0
     73369 WT24     857      MECN     H11      HGA3     0.090000        1.0080           0
     73370 WT24     857      MECN     H12      HGA3     0.090000        1.0080           0
     73371 WT24     857      MECN     H13      HGA3     0.090000        1.0080           0
     73372 WT24     857      MECN     C2       CG1N1    0.360000       12.0110           0
     73373 WT24     857      MECN     N3       NG1T1   -0.460000       14.0070           0
     73374 WT24     858      MECN     C1       CG331   -0.170000       12.0110           0
     73375 WT24     858      MECN     H11      HGA3     0.090000        1.0080           0
     73376 WT24     858      MECN     H12      HGA3     0.090000        1.0080           0
     73377 WT24     858      MECN     H13      HGA3     0.090000        1.0080           0
     73378 WT24     858      MECN     C2       CG1N1    0.360000       12.0110           0
     73379 WT24     858      MECN     N3       NG1T1   -0.460000       14.0070           0
     73380 WT24     859      MECN     C1       CG331   -0.170000       12.0110           0
     73381 WT24     859      MECN     H11      HGA3     0.090000        1.0080           0
     73382 WT24     859      MECN     H12      HGA3     0.090000        1.0080           0
     73383 WT24     859      MECN     H13      HGA3     0.090000        1.0080           0
     73384 WT24     859      MECN     C2       CG1N1    0.360000       12.0110           0
     73385 WT24     859      MECN     N3       NG1T1   -0.460000       14.0070           0
     73386 WT24     861      MECN     C1       CG331   -0.170000       12.0110           0
     73387 WT24     861      MECN     H11      HGA3     0.090000        1.0080           0
     73388 WT24     861      MECN     H12      HGA3     0.090000        1.0080           0
     73389 WT24     861      MECN     H13      HGA3     0.090000        1.0080           0
     73390 WT24     861      MECN     C2       CG1N1    0.360000       12.0110           0
     73391 WT24     861      MECN     N3       NG1T1   -0.460000       14.0070           0
     73392 WT24     865      MECN     C1       CG331   -0.170000       12.0110           0
     73393 WT24     865      MECN     H11      HGA3     0.090000        1.0080           0
     73394 WT24     865      MECN     H12      HGA3     0.090000        1.0080           0
     73395 WT24     865      MECN     H13      HGA3     0.090000        1.0080           0
     73396 WT24     865      MECN     C2       CG1N1    0.360000       12.0110           0
     73397 WT24     865      MECN     N3       NG1T1   -0.460000       14.0070           0
     73398 WT24     868      MECN     C1       CG331   -0.170000       12.0110           0
     73399 WT24     868      MECN     H11      HGA3     0.090000        1.0080           0
     73400 WT24     868      MECN     H12      HGA3     0.090000        1.0080           0
     73401 WT24     868      MECN     H13      HGA3     0.090000        1.0080           0
     73402 WT24     868      MECN     C2       CG1N1    0.360000       12.0110           0
     73403 WT24     868      MECN     N3       NG1T1   -0.460000       14.0070           0
     73404 WT24     869      MECN     C1       CG331   -0.170000       12.0110           0
     73405 WT24     869      MECN     H11      HGA3     0.090000        1.0080           0
     73406 WT24     869      MECN     H12      HGA3     0.090000        1.0080           0
     73407 WT24     869      MECN     H13      HGA3     0.090000        1.0080           0
     73408 WT24     869      MECN     C2       CG1N1    0.360000       12.0110           0
     73409 WT24     869      MECN     N3       NG1T1   -0.460000       14.0070           0
     73410 WT24     871      MECN     C1       CG331   -0.170000       12.0110           0
     73411 WT24     871      MECN     H11      HGA3     0.090000        1.0080           0
     73412 WT24     871      MECN     H12      HGA3     0.090000        1.0080           0
     73413 WT24     871      MECN     H13      HGA3     0.090000        1.0080           0
     73414 WT24     871      MECN     C2       CG1N1    0.360000       12.0110           0
     73415 WT24     871      MECN     N3       NG1T1   -0.460000       14.0070           0
     73416 WT24     872      MECN     C1       CG331   -0.170000       12.0110           0
     73417 WT24     872      MECN     H11      HGA3     0.090000        1.0080           0
     73418 WT24     872      MECN     H12      HGA3     0.090000        1.0080           0
     73419 WT24     872      MECN     H13      HGA3     0.090000        1.0080           0
     73420 WT24     872      MECN     C2       CG1N1    0.360000       12.0110           0
     73421 WT24     872      MECN     N3       NG1T1   -0.460000       14.0070           0
     73422 WT24     873      MECN     C1       CG331   -0.170000       12.0110           0
     73423 WT24     873      MECN     H11      HGA3     0.090000        1.0080           0
     73424 WT24     873      MECN     H12      HGA3     0.090000        1.0080           0
     73425 WT24     873      MECN     H13      HGA3     0.090000        1.0080           0
     73426 WT24     873      MECN     C2       CG1N1    0.360000       12.0110           0
     73427 WT24     873      MECN     N3       NG1T1   -0.460000       14.0070           0
     73428 WT24     874      MECN     C1       CG331   -0.170000       12.0110           0
     73429 WT24     874      MECN     H11      HGA3     0.090000        1.0080           0
     73430 WT24     874      MECN     H12      HGA3     0.090000        1.0080           0
     73431 WT24     874      MECN     H13      HGA3     0.090000        1.0080           0
     73432 WT24     874      MECN     C2       CG1N1    0.360000       12.0110           0
     73433 WT24     874      MECN     N3       NG1T1   -0.460000       14.0070           0
     73434 WT24     876      MECN     C1       CG331   -0.170000       12.0110           0
     73435 WT24     876      MECN     H11      HGA3     0.090000        1.0080           0
     73436 WT24     876      MECN     H12      HGA3     0.090000        1.0080           0
     73437 WT24     876      MECN     H13      HGA3     0.090000        1.0080           0
     73438 WT24     876      MECN     C2       CG1N1    0.360000       12.0110           0
     73439 WT24     876      MECN     N3       NG1T1   -0.460000       14.0070           0
     73440 WT24     877      MECN     C1       CG331   -0.170000       12.0110           0
     73441 WT24     877      MECN     H11      HGA3     0.090000        1.0080           0
     73442 WT24     877      MECN     H12      HGA3     0.090000        1.0080           0
     73443 WT24     877      MECN     H13      HGA3     0.090000        1.0080           0
     73444 WT24     877      MECN     C2       CG1N1    0.360000       12.0110           0
     73445 WT24     877      MECN     N3       NG1T1   -0.460000       14.0070           0
     73446 WT24     878      MECN     C1       CG331   -0.170000       12.0110           0
     73447 WT24     878      MECN     H11      HGA3     0.090000        1.0080           0
     73448 WT24     878      MECN     H12      HGA3     0.090000        1.0080           0
     73449 WT24     878      MECN     H13      HGA3     0.090000        1.0080           0
     73450 WT24     878      MECN     C2       CG1N1    0.360000       12.0110           0
     73451 WT24     878      MECN     N3       NG1T1   -0.460000       14.0070           0
     73452 WT24     879      MECN     C1       CG331   -0.170000       12.0110           0
     73453 WT24     879      MECN     H11      HGA3     0.090000        1.0080           0
     73454 WT24     879      MECN     H12      HGA3     0.090000        1.0080           0
     73455 WT24     879      MECN     H13      HGA3     0.090000        1.0080           0
     73456 WT24     879      MECN     C2       CG1N1    0.360000       12.0110           0
     73457 WT24     879      MECN     N3       NG1T1   -0.460000       14.0070           0
     73458 WT24     880      MECN     C1       CG331   -0.170000       12.0110           0
     73459 WT24     880      MECN     H11      HGA3     0.090000        1.0080           0
     73460 WT24     880      MECN     H12      HGA3     0.090000        1.0080           0
     73461 WT24     880      MECN     H13      HGA3     0.090000        1.0080           0
     73462 WT24     880      MECN     C2       CG1N1    0.360000       12.0110           0
     73463 WT24     880      MECN     N3       NG1T1   -0.460000       14.0070           0
     73464 WT24     881      MECN     C1       CG331   -0.170000       12.0110           0
     73465 WT24     881      MECN     H11      HGA3     0.090000        1.0080           0
     73466 WT24     881      MECN     H12      HGA3     0.090000        1.0080           0
     73467 WT24     881      MECN     H13      HGA3     0.090000        1.0080           0
     73468 WT24     881      MECN     C2       CG1N1    0.360000       12.0110           0
     73469 WT24     881      MECN     N3       NG1T1   -0.460000       14.0070           0
     73470 WT24     883      MECN     C1       CG331   -0.170000       12.0110           0
     73471 WT24     883      MECN     H11      HGA3     0.090000        1.0080           0
     73472 WT24     883      MECN     H12      HGA3     0.090000        1.0080           0
     73473 WT24     883      MECN     H13      HGA3     0.090000        1.0080           0
     73474 WT24     883      MECN     C2       CG1N1    0.360000       12.0110           0
     73475 WT24     883      MECN     N3       NG1T1   -0.460000       14.0070           0
     73476 WT24     885      MECN     C1       CG331   -0.170000       12.0110           0
     73477 WT24     885      MECN     H11      HGA3     0.090000        1.0080           0
     73478 WT24     885      MECN     H12      HGA3     0.090000        1.0080           0
     73479 WT24     885      MECN     H13      HGA3     0.090000        1.0080           0
     73480 WT24     885      MECN     C2       CG1N1    0.360000       12.0110           0
     73481 WT24     885      MECN     N3       NG1T1   -0.460000       14.0070           0
     73482 WT24     886      MECN     C1       CG331   -0.170000       12.0110           0
     73483 WT24     886      MECN     H11      HGA3     0.090000        1.0080           0
     73484 WT24     886      MECN     H12      HGA3     0.090000        1.0080           0
     73485 WT24     886      MECN     H13      HGA3     0.090000        1.0080           0
     73486 WT24     886      MECN     C2       CG1N1    0.360000       12.0110           0
     73487 WT24     886      MECN     N3       NG1T1   -0.460000       14.0070           0
     73488 WT24     887      MECN     C1       CG331   -0.170000       12.0110           0
     73489 WT24     887      MECN     H11      HGA3     0.090000        1.0080           0
     73490 WT24     887      MECN     H12      HGA3     0.090000        1.0080           0
     73491 WT24     887      MECN     H13      HGA3     0.090000        1.0080           0
     73492 WT24     887      MECN     C2       CG1N1    0.360000       12.0110           0
     73493 WT24     887      MECN     N3       NG1T1   -0.460000       14.0070           0
     73494 WT24     889      MECN     C1       CG331   -0.170000       12.0110           0
     73495 WT24     889      MECN     H11      HGA3     0.090000        1.0080           0
     73496 WT24     889      MECN     H12      HGA3     0.090000        1.0080           0
     73497 WT24     889      MECN     H13      HGA3     0.090000        1.0080           0
     73498 WT24     889      MECN     C2       CG1N1    0.360000       12.0110           0
     73499 WT24     889      MECN     N3       NG1T1   -0.460000       14.0070           0
     73500 WT24     890      MECN     C1       CG331   -0.170000       12.0110           0
     73501 WT24     890      MECN     H11      HGA3     0.090000        1.0080           0
     73502 WT24     890      MECN     H12      HGA3     0.090000        1.0080           0
     73503 WT24     890      MECN     H13      HGA3     0.090000        1.0080           0
     73504 WT24     890      MECN     C2       CG1N1    0.360000       12.0110           0
     73505 WT24     890      MECN     N3       NG1T1   -0.460000       14.0070           0
     73506 WT24     893      MECN     C1       CG331   -0.170000       12.0110           0
     73507 WT24     893      MECN     H11      HGA3     0.090000        1.0080           0
     73508 WT24     893      MECN     H12      HGA3     0.090000        1.0080           0
     73509 WT24     893      MECN     H13      HGA3     0.090000        1.0080           0
     73510 WT24     893      MECN     C2       CG1N1    0.360000       12.0110           0
     73511 WT24     893      MECN     N3       NG1T1   -0.460000       14.0070           0
     73512 WT24     894      MECN     C1       CG331   -0.170000       12.0110           0
     73513 WT24     894      MECN     H11      HGA3     0.090000        1.0080           0
     73514 WT24     894      MECN     H12      HGA3     0.090000        1.0080           0
     73515 WT24     894      MECN     H13      HGA3     0.090000        1.0080           0
     73516 WT24     894      MECN     C2       CG1N1    0.360000       12.0110           0
     73517 WT24     894      MECN     N3       NG1T1   -0.460000       14.0070           0
     73518 WT24     896      MECN     C1       CG331   -0.170000       12.0110           0
     73519 WT24     896      MECN     H11      HGA3     0.090000        1.0080           0
     73520 WT24     896      MECN     H12      HGA3     0.090000        1.0080           0
     73521 WT24     896      MECN     H13      HGA3     0.090000        1.0080           0
     73522 WT24     896      MECN     C2       CG1N1    0.360000       12.0110           0
     73523 WT24     896      MECN     N3       NG1T1   -0.460000       14.0070           0
     73524 WT24     900      MECN     C1       CG331   -0.170000       12.0110           0
     73525 WT24     900      MECN     H11      HGA3     0.090000        1.0080           0
     73526 WT24     900      MECN     H12      HGA3     0.090000        1.0080           0
     73527 WT24     900      MECN     H13      HGA3     0.090000        1.0080           0
     73528 WT24     900      MECN     C2       CG1N1    0.360000       12.0110           0
     73529 WT24     900      MECN     N3       NG1T1   -0.460000       14.0070           0
     73530 WT24     901      MECN     C1       CG331   -0.170000       12.0110           0
     73531 WT24     901      MECN     H11      HGA3     0.090000        1.0080           0
     73532 WT24     901      MECN     H12      HGA3     0.090000        1.0080           0
     73533 WT24     901      MECN     H13      HGA3     0.090000        1.0080           0
     73534 WT24     901      MECN     C2       CG1N1    0.360000       12.0110           0
     73535 WT24     901      MECN     N3       NG1T1   -0.460000       14.0070           0
     73536 WT24     902      MECN     C1       CG331   -0.170000       12.0110           0
     73537 WT24     902      MECN     H11      HGA3     0.090000        1.0080           0
     73538 WT24     902      MECN     H12      HGA3     0.090000        1.0080           0
     73539 WT24     902      MECN     H13      HGA3     0.090000        1.0080           0
     73540 WT24     902      MECN     C2       CG1N1    0.360000       12.0110           0
     73541 WT24     902      MECN     N3       NG1T1   -0.460000       14.0070           0
     73542 WT24     903      MECN     C1       CG331   -0.170000       12.0110           0
     73543 WT24     903      MECN     H11      HGA3     0.090000        1.0080           0
     73544 WT24     903      MECN     H12      HGA3     0.090000        1.0080           0
     73545 WT24     903      MECN     H13      HGA3     0.090000        1.0080           0
     73546 WT24     903      MECN     C2       CG1N1    0.360000       12.0110           0
     73547 WT24     903      MECN     N3       NG1T1   -0.460000       14.0070           0
     73548 WT24     904      MECN     C1       CG331   -0.170000       12.0110           0
     73549 WT24     904      MECN     H11      HGA3     0.090000        1.0080           0
     73550 WT24     904      MECN     H12      HGA3     0.090000        1.0080           0
     73551 WT24     904      MECN     H13      HGA3     0.090000        1.0080           0
     73552 WT24     904      MECN     C2       CG1N1    0.360000       12.0110           0
     73553 WT24     904      MECN     N3       NG1T1   -0.460000       14.0070           0
     73554 WT24     906      MECN     C1       CG331   -0.170000       12.0110           0
     73555 WT24     906      MECN     H11      HGA3     0.090000        1.0080           0
     73556 WT24     906      MECN     H12      HGA3     0.090000        1.0080           0
     73557 WT24     906      MECN     H13      HGA3     0.090000        1.0080           0
     73558 WT24     906      MECN     C2       CG1N1    0.360000       12.0110           0
     73559 WT24     906      MECN     N3       NG1T1   -0.460000       14.0070           0
     73560 WT24     907      MECN     C1       CG331   -0.170000       12.0110           0
     73561 WT24     907      MECN     H11      HGA3     0.090000        1.0080           0
     73562 WT24     907      MECN     H12      HGA3     0.090000        1.0080           0
     73563 WT24     907      MECN     H13      HGA3     0.090000        1.0080           0
     73564 WT24     907      MECN     C2       CG1N1    0.360000       12.0110           0
     73565 WT24     907      MECN     N3       NG1T1   -0.460000       14.0070           0
     73566 WT24     909      MECN     C1       CG331   -0.170000       12.0110           0
     73567 WT24     909      MECN     H11      HGA3     0.090000        1.0080           0
     73568 WT24     909      MECN     H12      HGA3     0.090000        1.0080           0
     73569 WT24     909      MECN     H13      HGA3     0.090000        1.0080           0
     73570 WT24     909      MECN     C2       CG1N1    0.360000       12.0110           0
     73571 WT24     909      MECN     N3       NG1T1   -0.460000       14.0070           0
     73572 WT24     911      MECN     C1       CG331   -0.170000       12.0110           0
     73573 WT24     911      MECN     H11      HGA3     0.090000        1.0080           0
     73574 WT24     911      MECN     H12      HGA3     0.090000        1.0080           0
     73575 WT24     911      MECN     H13      HGA3     0.090000        1.0080           0
     73576 WT24     911      MECN     C2       CG1N1    0.360000       12.0110           0
     73577 WT24     911      MECN     N3       NG1T1   -0.460000       14.0070           0
     73578 WT24     912      MECN     C1       CG331   -0.170000       12.0110           0
     73579 WT24     912      MECN     H11      HGA3     0.090000        1.0080           0
     73580 WT24     912      MECN     H12      HGA3     0.090000        1.0080           0
     73581 WT24     912      MECN     H13      HGA3     0.090000        1.0080           0
     73582 WT24     912      MECN     C2       CG1N1    0.360000       12.0110           0
     73583 WT24     912      MECN     N3       NG1T1   -0.460000       14.0070           0
     73584 WT24     913      MECN     C1       CG331   -0.170000       12.0110           0
     73585 WT24     913      MECN     H11      HGA3     0.090000        1.0080           0
     73586 WT24     913      MECN     H12      HGA3     0.090000        1.0080           0
     73587 WT24     913      MECN     H13      HGA3     0.090000        1.0080           0
     73588 WT24     913      MECN     C2       CG1N1    0.360000       12.0110           0
     73589 WT24     913      MECN     N3       NG1T1   -0.460000       14.0070           0
     73590 WT24     917      MECN     C1       CG331   -0.170000       12.0110           0
     73591 WT24     917      MECN     H11      HGA3     0.090000        1.0080           0
     73592 WT24     917      MECN     H12      HGA3     0.090000        1.0080           0
     73593 WT24     917      MECN     H13      HGA3     0.090000        1.0080           0
     73594 WT24     917      MECN     C2       CG1N1    0.360000       12.0110           0
     73595 WT24     917      MECN     N3       NG1T1   -0.460000       14.0070           0
     73596 WT24     921      MECN     C1       CG331   -0.170000       12.0110           0
     73597 WT24     921      MECN     H11      HGA3     0.090000        1.0080           0
     73598 WT24     921      MECN     H12      HGA3     0.090000        1.0080           0
     73599 WT24     921      MECN     H13      HGA3     0.090000        1.0080           0
     73600 WT24     921      MECN     C2       CG1N1    0.360000       12.0110           0
     73601 WT24     921      MECN     N3       NG1T1   -0.460000       14.0070           0
     73602 WT24     923      MECN     C1       CG331   -0.170000       12.0110           0
     73603 WT24     923      MECN     H11      HGA3     0.090000        1.0080           0
     73604 WT24     923      MECN     H12      HGA3     0.090000        1.0080           0
     73605 WT24     923      MECN     H13      HGA3     0.090000        1.0080           0
     73606 WT24     923      MECN     C2       CG1N1    0.360000       12.0110           0
     73607 WT24     923      MECN     N3       NG1T1   -0.460000       14.0070           0
     73608 WT24     925      MECN     C1       CG331   -0.170000       12.0110           0
     73609 WT24     925      MECN     H11      HGA3     0.090000        1.0080           0
     73610 WT24     925      MECN     H12      HGA3     0.090000        1.0080           0
     73611 WT24     925      MECN     H13      HGA3     0.090000        1.0080           0
     73612 WT24     925      MECN     C2       CG1N1    0.360000       12.0110           0
     73613 WT24     925      MECN     N3       NG1T1   -0.460000       14.0070           0
     73614 WT24     927      MECN     C1       CG331   -0.170000       12.0110           0
     73615 WT24     927      MECN     H11      HGA3     0.090000        1.0080           0
     73616 WT24     927      MECN     H12      HGA3     0.090000        1.0080           0
     73617 WT24     927      MECN     H13      HGA3     0.090000        1.0080           0
     73618 WT24     927      MECN     C2       CG1N1    0.360000       12.0110           0
     73619 WT24     927      MECN     N3       NG1T1   -0.460000       14.0070           0
     73620 WT24     928      MECN     C1       CG331   -0.170000       12.0110           0
     73621 WT24     928      MECN     H11      HGA3     0.090000        1.0080           0
     73622 WT24     928      MECN     H12      HGA3     0.090000        1.0080           0
     73623 WT24     928      MECN     H13      HGA3     0.090000        1.0080           0
     73624 WT24     928      MECN     C2       CG1N1    0.360000       12.0110           0
     73625 WT24     928      MECN     N3       NG1T1   -0.460000       14.0070           0
     73626 WT24     931      MECN     C1       CG331   -0.170000       12.0110           0
     73627 WT24     931      MECN     H11      HGA3     0.090000        1.0080           0
     73628 WT24     931      MECN     H12      HGA3     0.090000        1.0080           0
     73629 WT24     931      MECN     H13      HGA3     0.090000        1.0080           0
     73630 WT24     931      MECN     C2       CG1N1    0.360000       12.0110           0
     73631 WT24     931      MECN     N3       NG1T1   -0.460000       14.0070           0
     73632 WT24     932      MECN     C1       CG331   -0.170000       12.0110           0
     73633 WT24     932      MECN     H11      HGA3     0.090000        1.0080           0
     73634 WT24     932      MECN     H12      HGA3     0.090000        1.0080           0
     73635 WT24     932      MECN     H13      HGA3     0.090000        1.0080           0
     73636 WT24     932      MECN     C2       CG1N1    0.360000       12.0110           0
     73637 WT24     932      MECN     N3       NG1T1   -0.460000       14.0070           0
     73638 WT24     934      MECN     C1       CG331   -0.170000       12.0110           0
     73639 WT24     934      MECN     H11      HGA3     0.090000        1.0080           0
     73640 WT24     934      MECN     H12      HGA3     0.090000        1.0080           0
     73641 WT24     934      MECN     H13      HGA3     0.090000        1.0080           0
     73642 WT24     934      MECN     C2       CG1N1    0.360000       12.0110           0
     73643 WT24     934      MECN     N3       NG1T1   -0.460000       14.0070           0
     73644 WT24     936      MECN     C1       CG331   -0.170000       12.0110           0
     73645 WT24     936      MECN     H11      HGA3     0.090000        1.0080           0
     73646 WT24     936      MECN     H12      HGA3     0.090000        1.0080           0
     73647 WT24     936      MECN     H13      HGA3     0.090000        1.0080           0
     73648 WT24     936      MECN     C2       CG1N1    0.360000       12.0110           0
     73649 WT24     936      MECN     N3       NG1T1   -0.460000       14.0070           0
     73650 WT24     937      MECN     C1       CG331   -0.170000       12.0110           0
     73651 WT24     937      MECN     H11      HGA3     0.090000        1.0080           0
     73652 WT24     937      MECN     H12      HGA3     0.090000        1.0080           0
     73653 WT24     937      MECN     H13      HGA3     0.090000        1.0080           0
     73654 WT24     937      MECN     C2       CG1N1    0.360000       12.0110           0
     73655 WT24     937      MECN     N3       NG1T1   -0.460000       14.0070           0
     73656 WT24     940      MECN     C1       CG331   -0.170000       12.0110           0
     73657 WT24     940      MECN     H11      HGA3     0.090000        1.0080           0
     73658 WT24     940      MECN     H12      HGA3     0.090000        1.0080           0
     73659 WT24     940      MECN     H13      HGA3     0.090000        1.0080           0
     73660 WT24     940      MECN     C2       CG1N1    0.360000       12.0110           0
     73661 WT24     940      MECN     N3       NG1T1   -0.460000       14.0070           0
     73662 WT24     942      MECN     C1       CG331   -0.170000       12.0110           0
     73663 WT24     942      MECN     H11      HGA3     0.090000        1.0080           0
     73664 WT24     942      MECN     H12      HGA3     0.090000        1.0080           0
     73665 WT24     942      MECN     H13      HGA3     0.090000        1.0080           0
     73666 WT24     942      MECN     C2       CG1N1    0.360000       12.0110           0
     73667 WT24     942      MECN     N3       NG1T1   -0.460000       14.0070           0
     73668 WT24     943      MECN     C1       CG331   -0.170000       12.0110           0
     73669 WT24     943      MECN     H11      HGA3     0.090000        1.0080           0
     73670 WT24     943      MECN     H12      HGA3     0.090000        1.0080           0
     73671 WT24     943      MECN     H13      HGA3     0.090000        1.0080           0
     73672 WT24     943      MECN     C2       CG1N1    0.360000       12.0110           0
     73673 WT24     943      MECN     N3       NG1T1   -0.460000       14.0070           0
     73674 WT24     944      MECN     C1       CG331   -0.170000       12.0110           0
     73675 WT24     944      MECN     H11      HGA3     0.090000        1.0080           0
     73676 WT24     944      MECN     H12      HGA3     0.090000        1.0080           0
     73677 WT24     944      MECN     H13      HGA3     0.090000        1.0080           0
     73678 WT24     944      MECN     C2       CG1N1    0.360000       12.0110           0
     73679 WT24     944      MECN     N3       NG1T1   -0.460000       14.0070           0
     73680 WT24     946      MECN     C1       CG331   -0.170000       12.0110           0
     73681 WT24     946      MECN     H11      HGA3     0.090000        1.0080           0
     73682 WT24     946      MECN     H12      HGA3     0.090000        1.0080           0
     73683 WT24     946      MECN     H13      HGA3     0.090000        1.0080           0
     73684 WT24     946      MECN     C2       CG1N1    0.360000       12.0110           0
     73685 WT24     946      MECN     N3       NG1T1   -0.460000       14.0070           0
     73686 WT24     949      MECN     C1       CG331   -0.170000       12.0110           0
     73687 WT24     949      MECN     H11      HGA3     0.090000        1.0080           0
     73688 WT24     949      MECN     H12      HGA3     0.090000        1.0080           0
     73689 WT24     949      MECN     H13      HGA3     0.090000        1.0080           0
     73690 WT24     949      MECN     C2       CG1N1    0.360000       12.0110           0
     73691 WT24     949      MECN     N3       NG1T1   -0.460000       14.0070           0
     73692 WT24     952      MECN     C1       CG331   -0.170000       12.0110           0
     73693 WT24     952      MECN     H11      HGA3     0.090000        1.0080           0
     73694 WT24     952      MECN     H12      HGA3     0.090000        1.0080           0
     73695 WT24     952      MECN     H13      HGA3     0.090000        1.0080           0
     73696 WT24     952      MECN     C2       CG1N1    0.360000       12.0110           0
     73697 WT24     952      MECN     N3       NG1T1   -0.460000       14.0070           0
     73698 WT24     954      MECN     C1       CG331   -0.170000       12.0110           0
     73699 WT24     954      MECN     H11      HGA3     0.090000        1.0080           0
     73700 WT24     954      MECN     H12      HGA3     0.090000        1.0080           0
     73701 WT24     954      MECN     H13      HGA3     0.090000        1.0080           0
     73702 WT24     954      MECN     C2       CG1N1    0.360000       12.0110           0
     73703 WT24     954      MECN     N3       NG1T1   -0.460000       14.0070           0
     73704 WT24     955      MECN     C1       CG331   -0.170000       12.0110           0
     73705 WT24     955      MECN     H11      HGA3     0.090000        1.0080           0
     73706 WT24     955      MECN     H12      HGA3     0.090000        1.0080           0
     73707 WT24     955      MECN     H13      HGA3     0.090000        1.0080           0
     73708 WT24     955      MECN     C2       CG1N1    0.360000       12.0110           0
     73709 WT24     955      MECN     N3       NG1T1   -0.460000       14.0070           0
     73710 WT24     959      MECN     C1       CG331   -0.170000       12.0110           0
     73711 WT24     959      MECN     H11      HGA3     0.090000        1.0080           0
     73712 WT24     959      MECN     H12      HGA3     0.090000        1.0080           0
     73713 WT24     959      MECN     H13      HGA3     0.090000        1.0080           0
     73714 WT24     959      MECN     C2       CG1N1    0.360000       12.0110           0
     73715 WT24     959      MECN     N3       NG1T1   -0.460000       14.0070           0
     73716 WT24     962      MECN     C1       CG331   -0.170000       12.0110           0
     73717 WT24     962      MECN     H11      HGA3     0.090000        1.0080           0
     73718 WT24     962      MECN     H12      HGA3     0.090000        1.0080           0
     73719 WT24     962      MECN     H13      HGA3     0.090000        1.0080           0
     73720 WT24     962      MECN     C2       CG1N1    0.360000       12.0110           0
     73721 WT24     962      MECN     N3       NG1T1   -0.460000       14.0070           0
     73722 WT24     965      MECN     C1       CG331   -0.170000       12.0110           0
     73723 WT24     965      MECN     H11      HGA3     0.090000        1.0080           0
     73724 WT24     965      MECN     H12      HGA3     0.090000        1.0080           0
     73725 WT24     965      MECN     H13      HGA3     0.090000        1.0080           0
     73726 WT24     965      MECN     C2       CG1N1    0.360000       12.0110           0
     73727 WT24     965      MECN     N3       NG1T1   -0.460000       14.0070           0
     73728 WT24     966      MECN     C1       CG331   -0.170000       12.0110           0
     73729 WT24     966      MECN     H11      HGA3     0.090000        1.0080           0
     73730 WT24     966      MECN     H12      HGA3     0.090000        1.0080           0
     73731 WT24     966      MECN     H13      HGA3     0.090000        1.0080           0
     73732 WT24     966      MECN     C2       CG1N1    0.360000       12.0110           0
     73733 WT24     966      MECN     N3       NG1T1   -0.460000       14.0070           0
     73734 WT24     969      MECN     C1       CG331   -0.170000       12.0110           0
     73735 WT24     969      MECN     H11      HGA3     0.090000        1.0080           0
     73736 WT24     969      MECN     H12      HGA3     0.090000        1.0080           0
     73737 WT24     969      MECN     H13      HGA3     0.090000        1.0080           0
     73738 WT24     969      MECN     C2       CG1N1    0.360000       12.0110           0
     73739 WT24     969      MECN     N3       NG1T1   -0.460000       14.0070           0
     73740 WT24     970      MECN     C1       CG331   -0.170000       12.0110           0
     73741 WT24     970      MECN     H11      HGA3     0.090000        1.0080           0
     73742 WT24     970      MECN     H12      HGA3     0.090000        1.0080           0
     73743 WT24     970      MECN     H13      HGA3     0.090000        1.0080           0
     73744 WT24     970      MECN     C2       CG1N1    0.360000       12.0110           0
     73745 WT24     970      MECN     N3       NG1T1   -0.460000       14.0070           0
     73746 WT24     971      MECN     C1       CG331   -0.170000       12.0110           0
     73747 WT24     971      MECN     H11      HGA3     0.090000        1.0080           0
     73748 WT24     971      MECN     H12      HGA3     0.090000        1.0080           0
     73749 WT24     971      MECN     H13      HGA3     0.090000        1.0080           0
     73750 WT24     971      MECN     C2       CG1N1    0.360000       12.0110           0
     73751 WT24     971      MECN     N3       NG1T1   -0.460000       14.0070           0
     73752 WT24     972      MECN     C1       CG331   -0.170000       12.0110           0
     73753 WT24     972      MECN     H11      HGA3     0.090000        1.0080           0
     73754 WT24     972      MECN     H12      HGA3     0.090000        1.0080           0
     73755 WT24     972      MECN     H13      HGA3     0.090000        1.0080           0
     73756 WT24     972      MECN     C2       CG1N1    0.360000       12.0110           0
     73757 WT24     972      MECN     N3       NG1T1   -0.460000       14.0070           0
     73758 WT24     973      MECN     C1       CG331   -0.170000       12.0110           0
     73759 WT24     973      MECN     H11      HGA3     0.090000        1.0080           0
     73760 WT24     973      MECN     H12      HGA3     0.090000        1.0080           0
     73761 WT24     973      MECN     H13      HGA3     0.090000        1.0080           0
     73762 WT24     973      MECN     C2       CG1N1    0.360000       12.0110           0
     73763 WT24     973      MECN     N3       NG1T1   -0.460000       14.0070           0
     73764 WT24     976      MECN     C1       CG331   -0.170000       12.0110           0
     73765 WT24     976      MECN     H11      HGA3     0.090000        1.0080           0
     73766 WT24     976      MECN     H12      HGA3     0.090000        1.0080           0
     73767 WT24     976      MECN     H13      HGA3     0.090000        1.0080           0
     73768 WT24     976      MECN     C2       CG1N1    0.360000       12.0110           0
     73769 WT24     976      MECN     N3       NG1T1   -0.460000       14.0070           0
     73770 WT24     979      MECN     C1       CG331   -0.170000       12.0110           0
     73771 WT24     979      MECN     H11      HGA3     0.090000        1.0080           0
     73772 WT24     979      MECN     H12      HGA3     0.090000        1.0080           0
     73773 WT24     979      MECN     H13      HGA3     0.090000        1.0080           0
     73774 WT24     979      MECN     C2       CG1N1    0.360000       12.0110           0
     73775 WT24     979      MECN     N3       NG1T1   -0.460000       14.0070           0
     73776 WT24     980      MECN     C1       CG331   -0.170000       12.0110           0
     73777 WT24     980      MECN     H11      HGA3     0.090000        1.0080           0
     73778 WT24     980      MECN     H12      HGA3     0.090000        1.0080           0
     73779 WT24     980      MECN     H13      HGA3     0.090000        1.0080           0
     73780 WT24     980      MECN     C2       CG1N1    0.360000       12.0110           0
     73781 WT24     980      MECN     N3       NG1T1   -0.460000       14.0070           0
     73782 WT24     981      MECN     C1       CG331   -0.170000       12.0110           0
     73783 WT24     981      MECN     H11      HGA3     0.090000        1.0080           0
     73784 WT24     981      MECN     H12      HGA3     0.090000        1.0080           0
     73785 WT24     981      MECN     H13      HGA3     0.090000        1.0080           0
     73786 WT24     981      MECN     C2       CG1N1    0.360000       12.0110           0
     73787 WT24     981      MECN     N3       NG1T1   -0.460000       14.0070           0
     73788 WT24     984      MECN     C1       CG331   -0.170000       12.0110           0
     73789 WT24     984      MECN     H11      HGA3     0.090000        1.0080           0
     73790 WT24     984      MECN     H12      HGA3     0.090000        1.0080           0
     73791 WT24     984      MECN     H13      HGA3     0.090000        1.0080           0
     73792 WT24     984      MECN     C2       CG1N1    0.360000       12.0110           0
     73793 WT24     984      MECN     N3       NG1T1   -0.460000       14.0070           0
     73794 WT24     993      MECN     C1       CG331   -0.170000       12.0110           0
     73795 WT24     993      MECN     H11      HGA3     0.090000        1.0080           0
     73796 WT24     993      MECN     H12      HGA3     0.090000        1.0080           0
     73797 WT24     993      MECN     H13      HGA3     0.090000        1.0080           0
     73798 WT24     993      MECN     C2       CG1N1    0.360000       12.0110           0
     73799 WT24     993      MECN     N3       NG1T1   -0.460000       14.0070           0
     73800 WT24     996      MECN     C1       CG331   -0.170000       12.0110           0
     73801 WT24     996      MECN     H11      HGA3     0.090000        1.0080           0
     73802 WT24     996      MECN     H12      HGA3     0.090000        1.0080           0
     73803 WT24     996      MECN     H13      HGA3     0.090000        1.0080           0
     73804 WT24     996      MECN     C2       CG1N1    0.360000       12.0110           0
     73805 WT24     996      MECN     N3       NG1T1   -0.460000       14.0070           0
     73806 WT24     998      MECN     C1       CG331   -0.170000       12.0110           0
     73807 WT24     998      MECN     H11      HGA3     0.090000        1.0080           0
     73808 WT24     998      MECN     H12      HGA3     0.090000        1.0080           0
     73809 WT24     998      MECN     H13      HGA3     0.090000        1.0080           0
     73810 WT24     998      MECN     C2       CG1N1    0.360000       12.0110           0
     73811 WT24     998      MECN     N3       NG1T1   -0.460000       14.0070           0
     73812 WT24     1000     MECN     C1       CG331   -0.170000       12.0110           0
     73813 WT24     1000     MECN     H11      HGA3     0.090000        1.0080           0
     73814 WT24     1000     MECN     H12      HGA3     0.090000        1.0080           0
     73815 WT24     1000     MECN     H13      HGA3     0.090000        1.0080           0
     73816 WT24     1000     MECN     C2       CG1N1    0.360000       12.0110           0
     73817 WT24     1000     MECN     N3       NG1T1   -0.460000       14.0070           0
     73818 WT24     1002     MECN     C1       CG331   -0.170000       12.0110           0
     73819 WT24     1002     MECN     H11      HGA3     0.090000        1.0080           0
     73820 WT24     1002     MECN     H12      HGA3     0.090000        1.0080           0
     73821 WT24     1002     MECN     H13      HGA3     0.090000        1.0080           0
     73822 WT24     1002     MECN     C2       CG1N1    0.360000       12.0110           0
     73823 WT24     1002     MECN     N3       NG1T1   -0.460000       14.0070           0
     73824 WT24     1003     MECN     C1       CG331   -0.170000       12.0110           0
     73825 WT24     1003     MECN     H11      HGA3     0.090000        1.0080           0
     73826 WT24     1003     MECN     H12      HGA3     0.090000        1.0080           0
     73827 WT24     1003     MECN     H13      HGA3     0.090000        1.0080           0
     73828 WT24     1003     MECN     C2       CG1N1    0.360000       12.0110           0
     73829 WT24     1003     MECN     N3       NG1T1   -0.460000       14.0070           0
     73830 WT24     1005     MECN     C1       CG331   -0.170000       12.0110           0
     73831 WT24     1005     MECN     H11      HGA3     0.090000        1.0080           0
     73832 WT24     1005     MECN     H12      HGA3     0.090000        1.0080           0
     73833 WT24     1005     MECN     H13      HGA3     0.090000        1.0080           0
     73834 WT24     1005     MECN     C2       CG1N1    0.360000       12.0110           0
     73835 WT24     1005     MECN     N3       NG1T1   -0.460000       14.0070           0
     73836 WT24     1006     MECN     C1       CG331   -0.170000       12.0110           0
     73837 WT24     1006     MECN     H11      HGA3     0.090000        1.0080           0
     73838 WT24     1006     MECN     H12      HGA3     0.090000        1.0080           0
     73839 WT24     1006     MECN     H13      HGA3     0.090000        1.0080           0
     73840 WT24     1006     MECN     C2       CG1N1    0.360000       12.0110           0
     73841 WT24     1006     MECN     N3       NG1T1   -0.460000       14.0070           0
     73842 WT24     1007     MECN     C1       CG331   -0.170000       12.0110           0
     73843 WT24     1007     MECN     H11      HGA3     0.090000        1.0080           0
     73844 WT24     1007     MECN     H12      HGA3     0.090000        1.0080           0
     73845 WT24     1007     MECN     H13      HGA3     0.090000        1.0080           0
     73846 WT24     1007     MECN     C2       CG1N1    0.360000       12.0110           0
     73847 WT24     1007     MECN     N3       NG1T1   -0.460000       14.0070           0
     73848 WT24     1009     MECN     C1       CG331   -0.170000       12.0110           0
     73849 WT24     1009     MECN     H11      HGA3     0.090000        1.0080           0
     73850 WT24     1009     MECN     H12      HGA3     0.090000        1.0080           0
     73851 WT24     1009     MECN     H13      HGA3     0.090000        1.0080           0
     73852 WT24     1009     MECN     C2       CG1N1    0.360000       12.0110           0
     73853 WT24     1009     MECN     N3       NG1T1   -0.460000       14.0070           0
     73854 WT24     1011     MECN     C1       CG331   -0.170000       12.0110           0
     73855 WT24     1011     MECN     H11      HGA3     0.090000        1.0080           0
     73856 WT24     1011     MECN     H12      HGA3     0.090000        1.0080           0
     73857 WT24     1011     MECN     H13      HGA3     0.090000        1.0080           0
     73858 WT24     1011     MECN     C2       CG1N1    0.360000       12.0110           0
     73859 WT24     1011     MECN     N3       NG1T1   -0.460000       14.0070           0
     73860 WT24     1013     MECN     C1       CG331   -0.170000       12.0110           0
     73861 WT24     1013     MECN     H11      HGA3     0.090000        1.0080           0
     73862 WT24     1013     MECN     H12      HGA3     0.090000        1.0080           0
     73863 WT24     1013     MECN     H13      HGA3     0.090000        1.0080           0
     73864 WT24     1013     MECN     C2       CG1N1    0.360000       12.0110           0
     73865 WT24     1013     MECN     N3       NG1T1   -0.460000       14.0070           0
     73866 WT24     1014     MECN     C1       CG331   -0.170000       12.0110           0
     73867 WT24     1014     MECN     H11      HGA3     0.090000        1.0080           0
     73868 WT24     1014     MECN     H12      HGA3     0.090000        1.0080           0
     73869 WT24     1014     MECN     H13      HGA3     0.090000        1.0080           0
     73870 WT24     1014     MECN     C2       CG1N1    0.360000       12.0110           0
     73871 WT24     1014     MECN     N3       NG1T1   -0.460000       14.0070           0
     73872 WT24     1017     MECN     C1       CG331   -0.170000       12.0110           0
     73873 WT24     1017     MECN     H11      HGA3     0.090000        1.0080           0
     73874 WT24     1017     MECN     H12      HGA3     0.090000        1.0080           0
     73875 WT24     1017     MECN     H13      HGA3     0.090000        1.0080           0
     73876 WT24     1017     MECN     C2       CG1N1    0.360000       12.0110           0
     73877 WT24     1017     MECN     N3       NG1T1   -0.460000       14.0070           0
     73878 WT24     1018     MECN     C1       CG331   -0.170000       12.0110           0
     73879 WT24     1018     MECN     H11      HGA3     0.090000        1.0080           0
     73880 WT24     1018     MECN     H12      HGA3     0.090000        1.0080           0
     73881 WT24     1018     MECN     H13      HGA3     0.090000        1.0080           0
     73882 WT24     1018     MECN     C2       CG1N1    0.360000       12.0110           0
     73883 WT24     1018     MECN     N3       NG1T1   -0.460000       14.0070           0
     73884 WT24     1028     MECN     C1       CG331   -0.170000       12.0110           0
     73885 WT24     1028     MECN     H11      HGA3     0.090000        1.0080           0
     73886 WT24     1028     MECN     H12      HGA3     0.090000        1.0080           0
     73887 WT24     1028     MECN     H13      HGA3     0.090000        1.0080           0
     73888 WT24     1028     MECN     C2       CG1N1    0.360000       12.0110           0
     73889 WT24     1028     MECN     N3       NG1T1   -0.460000       14.0070           0
     73890 WT24     1031     MECN     C1       CG331   -0.170000       12.0110           0
     73891 WT24     1031     MECN     H11      HGA3     0.090000        1.0080           0
     73892 WT24     1031     MECN     H12      HGA3     0.090000        1.0080           0
     73893 WT24     1031     MECN     H13      HGA3     0.090000        1.0080           0
     73894 WT24     1031     MECN     C2       CG1N1    0.360000       12.0110           0
     73895 WT24     1031     MECN     N3       NG1T1   -0.460000       14.0070           0
     73896 WT24     1032     MECN     C1       CG331   -0.170000       12.0110           0
     73897 WT24     1032     MECN     H11      HGA3     0.090000        1.0080           0
     73898 WT24     1032     MECN     H12      HGA3     0.090000        1.0080           0
     73899 WT24     1032     MECN     H13      HGA3     0.090000        1.0080           0
     73900 WT24     1032     MECN     C2       CG1N1    0.360000       12.0110           0
     73901 WT24     1032     MECN     N3       NG1T1   -0.460000       14.0070           0
     73902 WT24     1035     MECN     C1       CG331   -0.170000       12.0110           0
     73903 WT24     1035     MECN     H11      HGA3     0.090000        1.0080           0
     73904 WT24     1035     MECN     H12      HGA3     0.090000        1.0080           0
     73905 WT24     1035     MECN     H13      HGA3     0.090000        1.0080           0
     73906 WT24     1035     MECN     C2       CG1N1    0.360000       12.0110           0
     73907 WT24     1035     MECN     N3       NG1T1   -0.460000       14.0070           0
     73908 WT24     1036     MECN     C1       CG331   -0.170000       12.0110           0
     73909 WT24     1036     MECN     H11      HGA3     0.090000        1.0080           0
     73910 WT24     1036     MECN     H12      HGA3     0.090000        1.0080           0
     73911 WT24     1036     MECN     H13      HGA3     0.090000        1.0080           0
     73912 WT24     1036     MECN     C2       CG1N1    0.360000       12.0110           0
     73913 WT24     1036     MECN     N3       NG1T1   -0.460000       14.0070           0
     73914 WT24     1041     MECN     C1       CG331   -0.170000       12.0110           0
     73915 WT24     1041     MECN     H11      HGA3     0.090000        1.0080           0
     73916 WT24     1041     MECN     H12      HGA3     0.090000        1.0080           0
     73917 WT24     1041     MECN     H13      HGA3     0.090000        1.0080           0
     73918 WT24     1041     MECN     C2       CG1N1    0.360000       12.0110           0
     73919 WT24     1041     MECN     N3       NG1T1   -0.460000       14.0070           0
     73920 WT24     1042     MECN     C1       CG331   -0.170000       12.0110           0
     73921 WT24     1042     MECN     H11      HGA3     0.090000        1.0080           0
     73922 WT24     1042     MECN     H12      HGA3     0.090000        1.0080           0
     73923 WT24     1042     MECN     H13      HGA3     0.090000        1.0080           0
     73924 WT24     1042     MECN     C2       CG1N1    0.360000       12.0110           0
     73925 WT24     1042     MECN     N3       NG1T1   -0.460000       14.0070           0
     73926 WT24     1044     MECN     C1       CG331   -0.170000       12.0110           0
     73927 WT24     1044     MECN     H11      HGA3     0.090000        1.0080           0
     73928 WT24     1044     MECN     H12      HGA3     0.090000        1.0080           0
     73929 WT24     1044     MECN     H13      HGA3     0.090000        1.0080           0
     73930 WT24     1044     MECN     C2       CG1N1    0.360000       12.0110           0
     73931 WT24     1044     MECN     N3       NG1T1   -0.460000       14.0070           0
     73932 WT24     1049     MECN     C1       CG331   -0.170000       12.0110           0
     73933 WT24     1049     MECN     H11      HGA3     0.090000        1.0080           0
     73934 WT24     1049     MECN     H12      HGA3     0.090000        1.0080           0
     73935 WT24     1049     MECN     H13      HGA3     0.090000        1.0080           0
     73936 WT24     1049     MECN     C2       CG1N1    0.360000       12.0110           0
     73937 WT24     1049     MECN     N3       NG1T1   -0.460000       14.0070           0
     73938 WT24     1054     MECN     C1       CG331   -0.170000       12.0110           0
     73939 WT24     1054     MECN     H11      HGA3     0.090000        1.0080           0
     73940 WT24     1054     MECN     H12      HGA3     0.090000        1.0080           0
     73941 WT24     1054     MECN     H13      HGA3     0.090000        1.0080           0
     73942 WT24     1054     MECN     C2       CG1N1    0.360000       12.0110           0
     73943 WT24     1054     MECN     N3       NG1T1   -0.460000       14.0070           0
     73944 WT24     1056     MECN     C1       CG331   -0.170000       12.0110           0
     73945 WT24     1056     MECN     H11      HGA3     0.090000        1.0080           0
     73946 WT24     1056     MECN     H12      HGA3     0.090000        1.0080           0
     73947 WT24     1056     MECN     H13      HGA3     0.090000        1.0080           0
     73948 WT24     1056     MECN     C2       CG1N1    0.360000       12.0110           0
     73949 WT24     1056     MECN     N3       NG1T1   -0.460000       14.0070           0
     73950 WT24     1059     MECN     C1       CG331   -0.170000       12.0110           0
     73951 WT24     1059     MECN     H11      HGA3     0.090000        1.0080           0
     73952 WT24     1059     MECN     H12      HGA3     0.090000        1.0080           0
     73953 WT24     1059     MECN     H13      HGA3     0.090000        1.0080           0
     73954 WT24     1059     MECN     C2       CG1N1    0.360000       12.0110           0
     73955 WT24     1059     MECN     N3       NG1T1   -0.460000       14.0070           0
     73956 WT24     1061     MECN     C1       CG331   -0.170000       12.0110           0
     73957 WT24     1061     MECN     H11      HGA3     0.090000        1.0080           0
     73958 WT24     1061     MECN     H12      HGA3     0.090000        1.0080           0
     73959 WT24     1061     MECN     H13      HGA3     0.090000        1.0080           0
     73960 WT24     1061     MECN     C2       CG1N1    0.360000       12.0110           0
     73961 WT24     1061     MECN     N3       NG1T1   -0.460000       14.0070           0
     73962 WT24     1064     MECN     C1       CG331   -0.170000       12.0110           0
     73963 WT24     1064     MECN     H11      HGA3     0.090000        1.0080           0
     73964 WT24     1064     MECN     H12      HGA3     0.090000        1.0080           0
     73965 WT24     1064     MECN     H13      HGA3     0.090000        1.0080           0
     73966 WT24     1064     MECN     C2       CG1N1    0.360000       12.0110           0
     73967 WT24     1064     MECN     N3       NG1T1   -0.460000       14.0070           0
     73968 WT24     1066     MECN     C1       CG331   -0.170000       12.0110           0
     73969 WT24     1066     MECN     H11      HGA3     0.090000        1.0080           0
     73970 WT24     1066     MECN     H12      HGA3     0.090000        1.0080           0
     73971 WT24     1066     MECN     H13      HGA3     0.090000        1.0080           0
     73972 WT24     1066     MECN     C2       CG1N1    0.360000       12.0110           0
     73973 WT24     1066     MECN     N3       NG1T1   -0.460000       14.0070           0
     73974 WT24     1067     MECN     C1       CG331   -0.170000       12.0110           0
     73975 WT24     1067     MECN     H11      HGA3     0.090000        1.0080           0
     73976 WT24     1067     MECN     H12      HGA3     0.090000        1.0080           0
     73977 WT24     1067     MECN     H13      HGA3     0.090000        1.0080           0
     73978 WT24     1067     MECN     C2       CG1N1    0.360000       12.0110           0
     73979 WT24     1067     MECN     N3       NG1T1   -0.460000       14.0070           0
     73980 WT24     1070     MECN     C1       CG331   -0.170000       12.0110           0
     73981 WT24     1070     MECN     H11      HGA3     0.090000        1.0080           0
     73982 WT24     1070     MECN     H12      HGA3     0.090000        1.0080           0
     73983 WT24     1070     MECN     H13      HGA3     0.090000        1.0080           0
     73984 WT24     1070     MECN     C2       CG1N1    0.360000       12.0110           0
     73985 WT24     1070     MECN     N3       NG1T1   -0.460000       14.0070           0
     73986 WT24     1074     MECN     C1       CG331   -0.170000       12.0110           0
     73987 WT24     1074     MECN     H11      HGA3     0.090000        1.0080           0
     73988 WT24     1074     MECN     H12      HGA3     0.090000        1.0080           0
     73989 WT24     1074     MECN     H13      HGA3     0.090000        1.0080           0
     73990 WT24     1074     MECN     C2       CG1N1    0.360000       12.0110           0
     73991 WT24     1074     MECN     N3       NG1T1   -0.460000       14.0070           0
     73992 WT24     1076     MECN     C1       CG331   -0.170000       12.0110           0
     73993 WT24     1076     MECN     H11      HGA3     0.090000        1.0080           0
     73994 WT24     1076     MECN     H12      HGA3     0.090000        1.0080           0
     73995 WT24     1076     MECN     H13      HGA3     0.090000        1.0080           0
     73996 WT24     1076     MECN     C2       CG1N1    0.360000       12.0110           0
     73997 WT24     1076     MECN     N3       NG1T1   -0.460000       14.0070           0
     73998 WT24     1079     MECN     C1       CG331   -0.170000       12.0110           0
     73999 WT24     1079     MECN     H11      HGA3     0.090000        1.0080           0
     74000 WT24     1079     MECN     H12      HGA3     0.090000        1.0080           0
     74001 WT24     1079     MECN     H13      HGA3     0.090000        1.0080           0
     74002 WT24     1079     MECN     C2       CG1N1    0.360000       12.0110           0
     74003 WT24     1079     MECN     N3       NG1T1   -0.460000       14.0070           0
     74004 WT24     1082     MECN     C1       CG331   -0.170000       12.0110           0
     74005 WT24     1082     MECN     H11      HGA3     0.090000        1.0080           0
     74006 WT24     1082     MECN     H12      HGA3     0.090000        1.0080           0
     74007 WT24     1082     MECN     H13      HGA3     0.090000        1.0080           0
     74008 WT24     1082     MECN     C2       CG1N1    0.360000       12.0110           0
     74009 WT24     1082     MECN     N3       NG1T1   -0.460000       14.0070           0
     74010 WT24     1083     MECN     C1       CG331   -0.170000       12.0110           0
     74011 WT24     1083     MECN     H11      HGA3     0.090000        1.0080           0
     74012 WT24     1083     MECN     H12      HGA3     0.090000        1.0080           0
     74013 WT24     1083     MECN     H13      HGA3     0.090000        1.0080           0
     74014 WT24     1083     MECN     C2       CG1N1    0.360000       12.0110           0
     74015 WT24     1083     MECN     N3       NG1T1   -0.460000       14.0070           0
     74016 WT24     1086     MECN     C1       CG331   -0.170000       12.0110           0
     74017 WT24     1086     MECN     H11      HGA3     0.090000        1.0080           0
     74018 WT24     1086     MECN     H12      HGA3     0.090000        1.0080           0
     74019 WT24     1086     MECN     H13      HGA3     0.090000        1.0080           0
     74020 WT24     1086     MECN     C2       CG1N1    0.360000       12.0110           0
     74021 WT24     1086     MECN     N3       NG1T1   -0.460000       14.0070           0
     74022 WT24     1089     MECN     C1       CG331   -0.170000       12.0110           0
     74023 WT24     1089     MECN     H11      HGA3     0.090000        1.0080           0
     74024 WT24     1089     MECN     H12      HGA3     0.090000        1.0080           0
     74025 WT24     1089     MECN     H13      HGA3     0.090000        1.0080           0
     74026 WT24     1089     MECN     C2       CG1N1    0.360000       12.0110           0
     74027 WT24     1089     MECN     N3       NG1T1   -0.460000       14.0070           0
     74028 WT24     1090     MECN     C1       CG331   -0.170000       12.0110           0
     74029 WT24     1090     MECN     H11      HGA3     0.090000        1.0080           0
     74030 WT24     1090     MECN     H12      HGA3     0.090000        1.0080           0
     74031 WT24     1090     MECN     H13      HGA3     0.090000        1.0080           0
     74032 WT24     1090     MECN     C2       CG1N1    0.360000       12.0110           0
     74033 WT24     1090     MECN     N3       NG1T1   -0.460000       14.0070           0
     74034 WT24     1096     MECN     C1       CG331   -0.170000       12.0110           0
     74035 WT24     1096     MECN     H11      HGA3     0.090000        1.0080           0
     74036 WT24     1096     MECN     H12      HGA3     0.090000        1.0080           0
     74037 WT24     1096     MECN     H13      HGA3     0.090000        1.0080           0
     74038 WT24     1096     MECN     C2       CG1N1    0.360000       12.0110           0
     74039 WT24     1096     MECN     N3       NG1T1   -0.460000       14.0070           0
     74040 WT24     1097     MECN     C1       CG331   -0.170000       12.0110           0
     74041 WT24     1097     MECN     H11      HGA3     0.090000        1.0080           0
     74042 WT24     1097     MECN     H12      HGA3     0.090000        1.0080           0
     74043 WT24     1097     MECN     H13      HGA3     0.090000        1.0080           0
     74044 WT24     1097     MECN     C2       CG1N1    0.360000       12.0110           0
     74045 WT24     1097     MECN     N3       NG1T1   -0.460000       14.0070           0
     74046 WT24     1099     MECN     C1       CG331   -0.170000       12.0110           0
     74047 WT24     1099     MECN     H11      HGA3     0.090000        1.0080           0
     74048 WT24     1099     MECN     H12      HGA3     0.090000        1.0080           0
     74049 WT24     1099     MECN     H13      HGA3     0.090000        1.0080           0
     74050 WT24     1099     MECN     C2       CG1N1    0.360000       12.0110           0
     74051 WT24     1099     MECN     N3       NG1T1   -0.460000       14.0070           0
     74052 WT24     1100     MECN     C1       CG331   -0.170000       12.0110           0
     74053 WT24     1100     MECN     H11      HGA3     0.090000        1.0080           0
     74054 WT24     1100     MECN     H12      HGA3     0.090000        1.0080           0
     74055 WT24     1100     MECN     H13      HGA3     0.090000        1.0080           0
     74056 WT24     1100     MECN     C2       CG1N1    0.360000       12.0110           0
     74057 WT24     1100     MECN     N3       NG1T1   -0.460000       14.0070           0
     74058 WT24     1101     MECN     C1       CG331   -0.170000       12.0110           0
     74059 WT24     1101     MECN     H11      HGA3     0.090000        1.0080           0
     74060 WT24     1101     MECN     H12      HGA3     0.090000        1.0080           0
     74061 WT24     1101     MECN     H13      HGA3     0.090000        1.0080           0
     74062 WT24     1101     MECN     C2       CG1N1    0.360000       12.0110           0
     74063 WT24     1101     MECN     N3       NG1T1   -0.460000       14.0070           0
     74064 WT24     1102     MECN     C1       CG331   -0.170000       12.0110           0
     74065 WT24     1102     MECN     H11      HGA3     0.090000        1.0080           0
     74066 WT24     1102     MECN     H12      HGA3     0.090000        1.0080           0
     74067 WT24     1102     MECN     H13      HGA3     0.090000        1.0080           0
     74068 WT24     1102     MECN     C2       CG1N1    0.360000       12.0110           0
     74069 WT24     1102     MECN     N3       NG1T1   -0.460000       14.0070           0
     74070 WT24     1104     MECN     C1       CG331   -0.170000       12.0110           0
     74071 WT24     1104     MECN     H11      HGA3     0.090000        1.0080           0
     74072 WT24     1104     MECN     H12      HGA3     0.090000        1.0080           0
     74073 WT24     1104     MECN     H13      HGA3     0.090000        1.0080           0
     74074 WT24     1104     MECN     C2       CG1N1    0.360000       12.0110           0
     74075 WT24     1104     MECN     N3       NG1T1   -0.460000       14.0070           0
     74076 WT24     1105     MECN     C1       CG331   -0.170000       12.0110           0
     74077 WT24     1105     MECN     H11      HGA3     0.090000        1.0080           0
     74078 WT24     1105     MECN     H12      HGA3     0.090000        1.0080           0
     74079 WT24     1105     MECN     H13      HGA3     0.090000        1.0080           0
     74080 WT24     1105     MECN     C2       CG1N1    0.360000       12.0110           0
     74081 WT24     1105     MECN     N3       NG1T1   -0.460000       14.0070           0
     74082 WT24     1108     MECN     C1       CG331   -0.170000       12.0110           0
     74083 WT24     1108     MECN     H11      HGA3     0.090000        1.0080           0
     74084 WT24     1108     MECN     H12      HGA3     0.090000        1.0080           0
     74085 WT24     1108     MECN     H13      HGA3     0.090000        1.0080           0
     74086 WT24     1108     MECN     C2       CG1N1    0.360000       12.0110           0
     74087 WT24     1108     MECN     N3       NG1T1   -0.460000       14.0070           0
     74088 WT24     1110     MECN     C1       CG331   -0.170000       12.0110           0
     74089 WT24     1110     MECN     H11      HGA3     0.090000        1.0080           0
     74090 WT24     1110     MECN     H12      HGA3     0.090000        1.0080           0
     74091 WT24     1110     MECN     H13      HGA3     0.090000        1.0080           0
     74092 WT24     1110     MECN     C2       CG1N1    0.360000       12.0110           0
     74093 WT24     1110     MECN     N3       NG1T1   -0.460000       14.0070           0
     74094 WT24     1111     MECN     C1       CG331   -0.170000       12.0110           0
     74095 WT24     1111     MECN     H11      HGA3     0.090000        1.0080           0
     74096 WT24     1111     MECN     H12      HGA3     0.090000        1.0080           0
     74097 WT24     1111     MECN     H13      HGA3     0.090000        1.0080           0
     74098 WT24     1111     MECN     C2       CG1N1    0.360000       12.0110           0
     74099 WT24     1111     MECN     N3       NG1T1   -0.460000       14.0070           0
     74100 WT24     1112     MECN     C1       CG331   -0.170000       12.0110           0
     74101 WT24     1112     MECN     H11      HGA3     0.090000        1.0080           0
     74102 WT24     1112     MECN     H12      HGA3     0.090000        1.0080           0
     74103 WT24     1112     MECN     H13      HGA3     0.090000        1.0080           0
     74104 WT24     1112     MECN     C2       CG1N1    0.360000       12.0110           0
     74105 WT24     1112     MECN     N3       NG1T1   -0.460000       14.0070           0
     74106 WT24     1113     MECN     C1       CG331   -0.170000       12.0110           0
     74107 WT24     1113     MECN     H11      HGA3     0.090000        1.0080           0
     74108 WT24     1113     MECN     H12      HGA3     0.090000        1.0080           0
     74109 WT24     1113     MECN     H13      HGA3     0.090000        1.0080           0
     74110 WT24     1113     MECN     C2       CG1N1    0.360000       12.0110           0
     74111 WT24     1113     MECN     N3       NG1T1   -0.460000       14.0070           0
     74112 WT24     1118     MECN     C1       CG331   -0.170000       12.0110           0
     74113 WT24     1118     MECN     H11      HGA3     0.090000        1.0080           0
     74114 WT24     1118     MECN     H12      HGA3     0.090000        1.0080           0
     74115 WT24     1118     MECN     H13      HGA3     0.090000        1.0080           0
     74116 WT24     1118     MECN     C2       CG1N1    0.360000       12.0110           0
     74117 WT24     1118     MECN     N3       NG1T1   -0.460000       14.0070           0
     74118 WT24     1119     MECN     C1       CG331   -0.170000       12.0110           0
     74119 WT24     1119     MECN     H11      HGA3     0.090000        1.0080           0
     74120 WT24     1119     MECN     H12      HGA3     0.090000        1.0080           0
     74121 WT24     1119     MECN     H13      HGA3     0.090000        1.0080           0
     74122 WT24     1119     MECN     C2       CG1N1    0.360000       12.0110           0
     74123 WT24     1119     MECN     N3       NG1T1   -0.460000       14.0070           0
     74124 WT24     1121     MECN     C1       CG331   -0.170000       12.0110           0
     74125 WT24     1121     MECN     H11      HGA3     0.090000        1.0080           0
     74126 WT24     1121     MECN     H12      HGA3     0.090000        1.0080           0
     74127 WT24     1121     MECN     H13      HGA3     0.090000        1.0080           0
     74128 WT24     1121     MECN     C2       CG1N1    0.360000       12.0110           0
     74129 WT24     1121     MECN     N3       NG1T1   -0.460000       14.0070           0
     74130 WT24     1122     MECN     C1       CG331   -0.170000       12.0110           0
     74131 WT24     1122     MECN     H11      HGA3     0.090000        1.0080           0
     74132 WT24     1122     MECN     H12      HGA3     0.090000        1.0080           0
     74133 WT24     1122     MECN     H13      HGA3     0.090000        1.0080           0
     74134 WT24     1122     MECN     C2       CG1N1    0.360000       12.0110           0
     74135 WT24     1122     MECN     N3       NG1T1   -0.460000       14.0070           0
     74136 WT24     1124     MECN     C1       CG331   -0.170000       12.0110           0
     74137 WT24     1124     MECN     H11      HGA3     0.090000        1.0080           0
     74138 WT24     1124     MECN     H12      HGA3     0.090000        1.0080           0
     74139 WT24     1124     MECN     H13      HGA3     0.090000        1.0080           0
     74140 WT24     1124     MECN     C2       CG1N1    0.360000       12.0110           0
     74141 WT24     1124     MECN     N3       NG1T1   -0.460000       14.0070           0
     74142 WT24     1126     MECN     C1       CG331   -0.170000       12.0110           0
     74143 WT24     1126     MECN     H11      HGA3     0.090000        1.0080           0
     74144 WT24     1126     MECN     H12      HGA3     0.090000        1.0080           0
     74145 WT24     1126     MECN     H13      HGA3     0.090000        1.0080           0
     74146 WT24     1126     MECN     C2       CG1N1    0.360000       12.0110           0
     74147 WT24     1126     MECN     N3       NG1T1   -0.460000       14.0070           0
     74148 WT24     1127     MECN     C1       CG331   -0.170000       12.0110           0
     74149 WT24     1127     MECN     H11      HGA3     0.090000        1.0080           0
     74150 WT24     1127     MECN     H12      HGA3     0.090000        1.0080           0
     74151 WT24     1127     MECN     H13      HGA3     0.090000        1.0080           0
     74152 WT24     1127     MECN     C2       CG1N1    0.360000       12.0110           0
     74153 WT24     1127     MECN     N3       NG1T1   -0.460000       14.0070           0
     74154 WT24     1128     MECN     C1       CG331   -0.170000       12.0110           0
     74155 WT24     1128     MECN     H11      HGA3     0.090000        1.0080           0
     74156 WT24     1128     MECN     H12      HGA3     0.090000        1.0080           0
     74157 WT24     1128     MECN     H13      HGA3     0.090000        1.0080           0
     74158 WT24     1128     MECN     C2       CG1N1    0.360000       12.0110           0
     74159 WT24     1128     MECN     N3       NG1T1   -0.460000       14.0070           0
     74160 WT24     1129     MECN     C1       CG331   -0.170000       12.0110           0
     74161 WT24     1129     MECN     H11      HGA3     0.090000        1.0080           0
     74162 WT24     1129     MECN     H12      HGA3     0.090000        1.0080           0
     74163 WT24     1129     MECN     H13      HGA3     0.090000        1.0080           0
     74164 WT24     1129     MECN     C2       CG1N1    0.360000       12.0110           0
     74165 WT24     1129     MECN     N3       NG1T1   -0.460000       14.0070           0
     74166 WT24     1131     MECN     C1       CG331   -0.170000       12.0110           0
     74167 WT24     1131     MECN     H11      HGA3     0.090000        1.0080           0
     74168 WT24     1131     MECN     H12      HGA3     0.090000        1.0080           0
     74169 WT24     1131     MECN     H13      HGA3     0.090000        1.0080           0
     74170 WT24     1131     MECN     C2       CG1N1    0.360000       12.0110           0
     74171 WT24     1131     MECN     N3       NG1T1   -0.460000       14.0070           0
     74172 WT24     1132     MECN     C1       CG331   -0.170000       12.0110           0
     74173 WT24     1132     MECN     H11      HGA3     0.090000        1.0080           0
     74174 WT24     1132     MECN     H12      HGA3     0.090000        1.0080           0
     74175 WT24     1132     MECN     H13      HGA3     0.090000        1.0080           0
     74176 WT24     1132     MECN     C2       CG1N1    0.360000       12.0110           0
     74177 WT24     1132     MECN     N3       NG1T1   -0.460000       14.0070           0
     74178 WT24     1133     MECN     C1       CG331   -0.170000       12.0110           0
     74179 WT24     1133     MECN     H11      HGA3     0.090000        1.0080           0
     74180 WT24     1133     MECN     H12      HGA3     0.090000        1.0080           0
     74181 WT24     1133     MECN     H13      HGA3     0.090000        1.0080           0
     74182 WT24     1133     MECN     C2       CG1N1    0.360000       12.0110           0
     74183 WT24     1133     MECN     N3       NG1T1   -0.460000       14.0070           0
     74184 WT24     1134     MECN     C1       CG331   -0.170000       12.0110           0
     74185 WT24     1134     MECN     H11      HGA3     0.090000        1.0080           0
     74186 WT24     1134     MECN     H12      HGA3     0.090000        1.0080           0
     74187 WT24     1134     MECN     H13      HGA3     0.090000        1.0080           0
     74188 WT24     1134     MECN     C2       CG1N1    0.360000       12.0110           0
     74189 WT24     1134     MECN     N3       NG1T1   -0.460000       14.0070           0
     74190 WT24     1135     MECN     C1       CG331   -0.170000       12.0110           0
     74191 WT24     1135     MECN     H11      HGA3     0.090000        1.0080           0
     74192 WT24     1135     MECN     H12      HGA3     0.090000        1.0080           0
     74193 WT24     1135     MECN     H13      HGA3     0.090000        1.0080           0
     74194 WT24     1135     MECN     C2       CG1N1    0.360000       12.0110           0
     74195 WT24     1135     MECN     N3       NG1T1   -0.460000       14.0070           0
     74196 WT24     1138     MECN     C1       CG331   -0.170000       12.0110           0
     74197 WT24     1138     MECN     H11      HGA3     0.090000        1.0080           0
     74198 WT24     1138     MECN     H12      HGA3     0.090000        1.0080           0
     74199 WT24     1138     MECN     H13      HGA3     0.090000        1.0080           0
     74200 WT24     1138     MECN     C2       CG1N1    0.360000       12.0110           0
     74201 WT24     1138     MECN     N3       NG1T1   -0.460000       14.0070           0
     74202 WT24     1139     MECN     C1       CG331   -0.170000       12.0110           0
     74203 WT24     1139     MECN     H11      HGA3     0.090000        1.0080           0
     74204 WT24     1139     MECN     H12      HGA3     0.090000        1.0080           0
     74205 WT24     1139     MECN     H13      HGA3     0.090000        1.0080           0
     74206 WT24     1139     MECN     C2       CG1N1    0.360000       12.0110           0
     74207 WT24     1139     MECN     N3       NG1T1   -0.460000       14.0070           0
     74208 WT24     1140     MECN     C1       CG331   -0.170000       12.0110           0
     74209 WT24     1140     MECN     H11      HGA3     0.090000        1.0080           0
     74210 WT24     1140     MECN     H12      HGA3     0.090000        1.0080           0
     74211 WT24     1140     MECN     H13      HGA3     0.090000        1.0080           0
     74212 WT24     1140     MECN     C2       CG1N1    0.360000       12.0110           0
     74213 WT24     1140     MECN     N3       NG1T1   -0.460000       14.0070           0
     74214 WT24     1142     MECN     C1       CG331   -0.170000       12.0110           0
     74215 WT24     1142     MECN     H11      HGA3     0.090000        1.0080           0
     74216 WT24     1142     MECN     H12      HGA3     0.090000        1.0080           0
     74217 WT24     1142     MECN     H13      HGA3     0.090000        1.0080           0
     74218 WT24     1142     MECN     C2       CG1N1    0.360000       12.0110           0
     74219 WT24     1142     MECN     N3       NG1T1   -0.460000       14.0070           0
     74220 WT24     1149     MECN     C1       CG331   -0.170000       12.0110           0
     74221 WT24     1149     MECN     H11      HGA3     0.090000        1.0080           0
     74222 WT24     1149     MECN     H12      HGA3     0.090000        1.0080           0
     74223 WT24     1149     MECN     H13      HGA3     0.090000        1.0080           0
     74224 WT24     1149     MECN     C2       CG1N1    0.360000       12.0110           0
     74225 WT24     1149     MECN     N3       NG1T1   -0.460000       14.0070           0
     74226 WT24     1150     MECN     C1       CG331   -0.170000       12.0110           0
     74227 WT24     1150     MECN     H11      HGA3     0.090000        1.0080           0
     74228 WT24     1150     MECN     H12      HGA3     0.090000        1.0080           0
     74229 WT24     1150     MECN     H13      HGA3     0.090000        1.0080           0
     74230 WT24     1150     MECN     C2       CG1N1    0.360000       12.0110           0
     74231 WT24     1150     MECN     N3       NG1T1   -0.460000       14.0070           0
     74232 WT24     1151     MECN     C1       CG331   -0.170000       12.0110           0
     74233 WT24     1151     MECN     H11      HGA3     0.090000        1.0080           0
     74234 WT24     1151     MECN     H12      HGA3     0.090000        1.0080           0
     74235 WT24     1151     MECN     H13      HGA3     0.090000        1.0080           0
     74236 WT24     1151     MECN     C2       CG1N1    0.360000       12.0110           0
     74237 WT24     1151     MECN     N3       NG1T1   -0.460000       14.0070           0
     74238 WT24     1152     MECN     C1       CG331   -0.170000       12.0110           0
     74239 WT24     1152     MECN     H11      HGA3     0.090000        1.0080           0
     74240 WT24     1152     MECN     H12      HGA3     0.090000        1.0080           0
     74241 WT24     1152     MECN     H13      HGA3     0.090000        1.0080           0
     74242 WT24     1152     MECN     C2       CG1N1    0.360000       12.0110           0
     74243 WT24     1152     MECN     N3       NG1T1   -0.460000       14.0070           0
     74244 WT24     1155     MECN     C1       CG331   -0.170000       12.0110           0
     74245 WT24     1155     MECN     H11      HGA3     0.090000        1.0080           0
     74246 WT24     1155     MECN     H12      HGA3     0.090000        1.0080           0
     74247 WT24     1155     MECN     H13      HGA3     0.090000        1.0080           0
     74248 WT24     1155     MECN     C2       CG1N1    0.360000       12.0110           0
     74249 WT24     1155     MECN     N3       NG1T1   -0.460000       14.0070           0
     74250 WT24     1157     MECN     C1       CG331   -0.170000       12.0110           0
     74251 WT24     1157     MECN     H11      HGA3     0.090000        1.0080           0
     74252 WT24     1157     MECN     H12      HGA3     0.090000        1.0080           0
     74253 WT24     1157     MECN     H13      HGA3     0.090000        1.0080           0
     74254 WT24     1157     MECN     C2       CG1N1    0.360000       12.0110           0
     74255 WT24     1157     MECN     N3       NG1T1   -0.460000       14.0070           0
     74256 WT24     1158     MECN     C1       CG331   -0.170000       12.0110           0
     74257 WT24     1158     MECN     H11      HGA3     0.090000        1.0080           0
     74258 WT24     1158     MECN     H12      HGA3     0.090000        1.0080           0
     74259 WT24     1158     MECN     H13      HGA3     0.090000        1.0080           0
     74260 WT24     1158     MECN     C2       CG1N1    0.360000       12.0110           0
     74261 WT24     1158     MECN     N3       NG1T1   -0.460000       14.0070           0
     74262 WT24     1159     MECN     C1       CG331   -0.170000       12.0110           0
     74263 WT24     1159     MECN     H11      HGA3     0.090000        1.0080           0
     74264 WT24     1159     MECN     H12      HGA3     0.090000        1.0080           0
     74265 WT24     1159     MECN     H13      HGA3     0.090000        1.0080           0
     74266 WT24     1159     MECN     C2       CG1N1    0.360000       12.0110           0
     74267 WT24     1159     MECN     N3       NG1T1   -0.460000       14.0070           0
     74268 WT24     1162     MECN     C1       CG331   -0.170000       12.0110           0
     74269 WT24     1162     MECN     H11      HGA3     0.090000        1.0080           0
     74270 WT24     1162     MECN     H12      HGA3     0.090000        1.0080           0
     74271 WT24     1162     MECN     H13      HGA3     0.090000        1.0080           0
     74272 WT24     1162     MECN     C2       CG1N1    0.360000       12.0110           0
     74273 WT24     1162     MECN     N3       NG1T1   -0.460000       14.0070           0
     74274 WT24     1163     MECN     C1       CG331   -0.170000       12.0110           0
     74275 WT24     1163     MECN     H11      HGA3     0.090000        1.0080           0
     74276 WT24     1163     MECN     H12      HGA3     0.090000        1.0080           0
     74277 WT24     1163     MECN     H13      HGA3     0.090000        1.0080           0
     74278 WT24     1163     MECN     C2       CG1N1    0.360000       12.0110           0
     74279 WT24     1163     MECN     N3       NG1T1   -0.460000       14.0070           0
     74280 WT24     1164     MECN     C1       CG331   -0.170000       12.0110           0
     74281 WT24     1164     MECN     H11      HGA3     0.090000        1.0080           0
     74282 WT24     1164     MECN     H12      HGA3     0.090000        1.0080           0
     74283 WT24     1164     MECN     H13      HGA3     0.090000        1.0080           0
     74284 WT24     1164     MECN     C2       CG1N1    0.360000       12.0110           0
     74285 WT24     1164     MECN     N3       NG1T1   -0.460000       14.0070           0
     74286 WT24     1165     MECN     C1       CG331   -0.170000       12.0110           0
     74287 WT24     1165     MECN     H11      HGA3     0.090000        1.0080           0
     74288 WT24     1165     MECN     H12      HGA3     0.090000        1.0080           0
     74289 WT24     1165     MECN     H13      HGA3     0.090000        1.0080           0
     74290 WT24     1165     MECN     C2       CG1N1    0.360000       12.0110           0
     74291 WT24     1165     MECN     N3       NG1T1   -0.460000       14.0070           0
     74292 WT24     1166     MECN     C1       CG331   -0.170000       12.0110           0
     74293 WT24     1166     MECN     H11      HGA3     0.090000        1.0080           0
     74294 WT24     1166     MECN     H12      HGA3     0.090000        1.0080           0
     74295 WT24     1166     MECN     H13      HGA3     0.090000        1.0080           0
     74296 WT24     1166     MECN     C2       CG1N1    0.360000       12.0110           0
     74297 WT24     1166     MECN     N3       NG1T1   -0.460000       14.0070           0
     74298 WT24     1167     MECN     C1       CG331   -0.170000       12.0110           0
     74299 WT24     1167     MECN     H11      HGA3     0.090000        1.0080           0
     74300 WT24     1167     MECN     H12      HGA3     0.090000        1.0080           0
     74301 WT24     1167     MECN     H13      HGA3     0.090000        1.0080           0
     74302 WT24     1167     MECN     C2       CG1N1    0.360000       12.0110           0
     74303 WT24     1167     MECN     N3       NG1T1   -0.460000       14.0070           0
     74304 WT24     1168     MECN     C1       CG331   -0.170000       12.0110           0
     74305 WT24     1168     MECN     H11      HGA3     0.090000        1.0080           0
     74306 WT24     1168     MECN     H12      HGA3     0.090000        1.0080           0
     74307 WT24     1168     MECN     H13      HGA3     0.090000        1.0080           0
     74308 WT24     1168     MECN     C2       CG1N1    0.360000       12.0110           0
     74309 WT24     1168     MECN     N3       NG1T1   -0.460000       14.0070           0
     74310 WT24     1170     MECN     C1       CG331   -0.170000       12.0110           0
     74311 WT24     1170     MECN     H11      HGA3     0.090000        1.0080           0
     74312 WT24     1170     MECN     H12      HGA3     0.090000        1.0080           0
     74313 WT24     1170     MECN     H13      HGA3     0.090000        1.0080           0
     74314 WT24     1170     MECN     C2       CG1N1    0.360000       12.0110           0
     74315 WT24     1170     MECN     N3       NG1T1   -0.460000       14.0070           0
     74316 WT24     1171     MECN     C1       CG331   -0.170000       12.0110           0
     74317 WT24     1171     MECN     H11      HGA3     0.090000        1.0080           0
     74318 WT24     1171     MECN     H12      HGA3     0.090000        1.0080           0
     74319 WT24     1171     MECN     H13      HGA3     0.090000        1.0080           0
     74320 WT24     1171     MECN     C2       CG1N1    0.360000       12.0110           0
     74321 WT24     1171     MECN     N3       NG1T1   -0.460000       14.0070           0
     74322 WT24     1172     MECN     C1       CG331   -0.170000       12.0110           0
     74323 WT24     1172     MECN     H11      HGA3     0.090000        1.0080           0
     74324 WT24     1172     MECN     H12      HGA3     0.090000        1.0080           0
     74325 WT24     1172     MECN     H13      HGA3     0.090000        1.0080           0
     74326 WT24     1172     MECN     C2       CG1N1    0.360000       12.0110           0
     74327 WT24     1172     MECN     N3       NG1T1   -0.460000       14.0070           0
     74328 WT24     1173     MECN     C1       CG331   -0.170000       12.0110           0
     74329 WT24     1173     MECN     H11      HGA3     0.090000        1.0080           0
     74330 WT24     1173     MECN     H12      HGA3     0.090000        1.0080           0
     74331 WT24     1173     MECN     H13      HGA3     0.090000        1.0080           0
     74332 WT24     1173     MECN     C2       CG1N1    0.360000       12.0110           0
     74333 WT24     1173     MECN     N3       NG1T1   -0.460000       14.0070           0
     74334 WT24     1175     MECN     C1       CG331   -0.170000       12.0110           0
     74335 WT24     1175     MECN     H11      HGA3     0.090000        1.0080           0
     74336 WT24     1175     MECN     H12      HGA3     0.090000        1.0080           0
     74337 WT24     1175     MECN     H13      HGA3     0.090000        1.0080           0
     74338 WT24     1175     MECN     C2       CG1N1    0.360000       12.0110           0
     74339 WT24     1175     MECN     N3       NG1T1   -0.460000       14.0070           0
     74340 WT24     1176     MECN     C1       CG331   -0.170000       12.0110           0
     74341 WT24     1176     MECN     H11      HGA3     0.090000        1.0080           0
     74342 WT24     1176     MECN     H12      HGA3     0.090000        1.0080           0
     74343 WT24     1176     MECN     H13      HGA3     0.090000        1.0080           0
     74344 WT24     1176     MECN     C2       CG1N1    0.360000       12.0110           0
     74345 WT24     1176     MECN     N3       NG1T1   -0.460000       14.0070           0
     74346 WT24     1177     MECN     C1       CG331   -0.170000       12.0110           0
     74347 WT24     1177     MECN     H11      HGA3     0.090000        1.0080           0
     74348 WT24     1177     MECN     H12      HGA3     0.090000        1.0080           0
     74349 WT24     1177     MECN     H13      HGA3     0.090000        1.0080           0
     74350 WT24     1177     MECN     C2       CG1N1    0.360000       12.0110           0
     74351 WT24     1177     MECN     N3       NG1T1   -0.460000       14.0070           0
     74352 WT24     1179     MECN     C1       CG331   -0.170000       12.0110           0
     74353 WT24     1179     MECN     H11      HGA3     0.090000        1.0080           0
     74354 WT24     1179     MECN     H12      HGA3     0.090000        1.0080           0
     74355 WT24     1179     MECN     H13      HGA3     0.090000        1.0080           0
     74356 WT24     1179     MECN     C2       CG1N1    0.360000       12.0110           0
     74357 WT24     1179     MECN     N3       NG1T1   -0.460000       14.0070           0
     74358 WT24     1180     MECN     C1       CG331   -0.170000       12.0110           0
     74359 WT24     1180     MECN     H11      HGA3     0.090000        1.0080           0
     74360 WT24     1180     MECN     H12      HGA3     0.090000        1.0080           0
     74361 WT24     1180     MECN     H13      HGA3     0.090000        1.0080           0
     74362 WT24     1180     MECN     C2       CG1N1    0.360000       12.0110           0
     74363 WT24     1180     MECN     N3       NG1T1   -0.460000       14.0070           0
     74364 WT24     1185     MECN     C1       CG331   -0.170000       12.0110           0
     74365 WT24     1185     MECN     H11      HGA3     0.090000        1.0080           0
     74366 WT24     1185     MECN     H12      HGA3     0.090000        1.0080           0
     74367 WT24     1185     MECN     H13      HGA3     0.090000        1.0080           0
     74368 WT24     1185     MECN     C2       CG1N1    0.360000       12.0110           0
     74369 WT24     1185     MECN     N3       NG1T1   -0.460000       14.0070           0
     74370 WT24     1190     MECN     C1       CG331   -0.170000       12.0110           0
     74371 WT24     1190     MECN     H11      HGA3     0.090000        1.0080           0
     74372 WT24     1190     MECN     H12      HGA3     0.090000        1.0080           0
     74373 WT24     1190     MECN     H13      HGA3     0.090000        1.0080           0
     74374 WT24     1190     MECN     C2       CG1N1    0.360000       12.0110           0
     74375 WT24     1190     MECN     N3       NG1T1   -0.460000       14.0070           0
     74376 WT24     1193     MECN     C1       CG331   -0.170000       12.0110           0
     74377 WT24     1193     MECN     H11      HGA3     0.090000        1.0080           0
     74378 WT24     1193     MECN     H12      HGA3     0.090000        1.0080           0
     74379 WT24     1193     MECN     H13      HGA3     0.090000        1.0080           0
     74380 WT24     1193     MECN     C2       CG1N1    0.360000       12.0110           0
     74381 WT24     1193     MECN     N3       NG1T1   -0.460000       14.0070           0
     74382 WT24     1197     MECN     C1       CG331   -0.170000       12.0110           0
     74383 WT24     1197     MECN     H11      HGA3     0.090000        1.0080           0
     74384 WT24     1197     MECN     H12      HGA3     0.090000        1.0080           0
     74385 WT24     1197     MECN     H13      HGA3     0.090000        1.0080           0
     74386 WT24     1197     MECN     C2       CG1N1    0.360000       12.0110           0
     74387 WT24     1197     MECN     N3       NG1T1   -0.460000       14.0070           0
     74388 WT24     1202     MECN     C1       CG331   -0.170000       12.0110           0
     74389 WT24     1202     MECN     H11      HGA3     0.090000        1.0080           0
     74390 WT24     1202     MECN     H12      HGA3     0.090000        1.0080           0
     74391 WT24     1202     MECN     H13      HGA3     0.090000        1.0080           0
     74392 WT24     1202     MECN     C2       CG1N1    0.360000       12.0110           0
     74393 WT24     1202     MECN     N3       NG1T1   -0.460000       14.0070           0
     74394 WT24     1203     MECN     C1       CG331   -0.170000       12.0110           0
     74395 WT24     1203     MECN     H11      HGA3     0.090000        1.0080           0
     74396 WT24     1203     MECN     H12      HGA3     0.090000        1.0080           0
     74397 WT24     1203     MECN     H13      HGA3     0.090000        1.0080           0
     74398 WT24     1203     MECN     C2       CG1N1    0.360000       12.0110           0
     74399 WT24     1203     MECN     N3       NG1T1   -0.460000       14.0070           0
     74400 WT24     1204     MECN     C1       CG331   -0.170000       12.0110           0
     74401 WT24     1204     MECN     H11      HGA3     0.090000        1.0080           0
     74402 WT24     1204     MECN     H12      HGA3     0.090000        1.0080           0
     74403 WT24     1204     MECN     H13      HGA3     0.090000        1.0080           0
     74404 WT24     1204     MECN     C2       CG1N1    0.360000       12.0110           0
     74405 WT24     1204     MECN     N3       NG1T1   -0.460000       14.0070           0
     74406 WT24     1205     MECN     C1       CG331   -0.170000       12.0110           0
     74407 WT24     1205     MECN     H11      HGA3     0.090000        1.0080           0
     74408 WT24     1205     MECN     H12      HGA3     0.090000        1.0080           0
     74409 WT24     1205     MECN     H13      HGA3     0.090000        1.0080           0
     74410 WT24     1205     MECN     C2       CG1N1    0.360000       12.0110           0
     74411 WT24     1205     MECN     N3       NG1T1   -0.460000       14.0070           0
     74412 WT24     1206     MECN     C1       CG331   -0.170000       12.0110           0
     74413 WT24     1206     MECN     H11      HGA3     0.090000        1.0080           0
     74414 WT24     1206     MECN     H12      HGA3     0.090000        1.0080           0
     74415 WT24     1206     MECN     H13      HGA3     0.090000        1.0080           0
     74416 WT24     1206     MECN     C2       CG1N1    0.360000       12.0110           0
     74417 WT24     1206     MECN     N3       NG1T1   -0.460000       14.0070           0
     74418 WT24     1207     MECN     C1       CG331   -0.170000       12.0110           0
     74419 WT24     1207     MECN     H11      HGA3     0.090000        1.0080           0
     74420 WT24     1207     MECN     H12      HGA3     0.090000        1.0080           0
     74421 WT24     1207     MECN     H13      HGA3     0.090000        1.0080           0
     74422 WT24     1207     MECN     C2       CG1N1    0.360000       12.0110           0
     74423 WT24     1207     MECN     N3       NG1T1   -0.460000       14.0070           0
     74424 WT24     1209     MECN     C1       CG331   -0.170000       12.0110           0
     74425 WT24     1209     MECN     H11      HGA3     0.090000        1.0080           0
     74426 WT24     1209     MECN     H12      HGA3     0.090000        1.0080           0
     74427 WT24     1209     MECN     H13      HGA3     0.090000        1.0080           0
     74428 WT24     1209     MECN     C2       CG1N1    0.360000       12.0110           0
     74429 WT24     1209     MECN     N3       NG1T1   -0.460000       14.0070           0
     74430 WT24     1210     MECN     C1       CG331   -0.170000       12.0110           0
     74431 WT24     1210     MECN     H11      HGA3     0.090000        1.0080           0
     74432 WT24     1210     MECN     H12      HGA3     0.090000        1.0080           0
     74433 WT24     1210     MECN     H13      HGA3     0.090000        1.0080           0
     74434 WT24     1210     MECN     C2       CG1N1    0.360000       12.0110           0
     74435 WT24     1210     MECN     N3       NG1T1   -0.460000       14.0070           0
     74436 WT24     1211     MECN     C1       CG331   -0.170000       12.0110           0
     74437 WT24     1211     MECN     H11      HGA3     0.090000        1.0080           0
     74438 WT24     1211     MECN     H12      HGA3     0.090000        1.0080           0
     74439 WT24     1211     MECN     H13      HGA3     0.090000        1.0080           0
     74440 WT24     1211     MECN     C2       CG1N1    0.360000       12.0110           0
     74441 WT24     1211     MECN     N3       NG1T1   -0.460000       14.0070           0
     74442 WT24     1212     MECN     C1       CG331   -0.170000       12.0110           0
     74443 WT24     1212     MECN     H11      HGA3     0.090000        1.0080           0
     74444 WT24     1212     MECN     H12      HGA3     0.090000        1.0080           0
     74445 WT24     1212     MECN     H13      HGA3     0.090000        1.0080           0
     74446 WT24     1212     MECN     C2       CG1N1    0.360000       12.0110           0
     74447 WT24     1212     MECN     N3       NG1T1   -0.460000       14.0070           0
     74448 WT24     1213     MECN     C1       CG331   -0.170000       12.0110           0
     74449 WT24     1213     MECN     H11      HGA3     0.090000        1.0080           0
     74450 WT24     1213     MECN     H12      HGA3     0.090000        1.0080           0
     74451 WT24     1213     MECN     H13      HGA3     0.090000        1.0080           0
     74452 WT24     1213     MECN     C2       CG1N1    0.360000       12.0110           0
     74453 WT24     1213     MECN     N3       NG1T1   -0.460000       14.0070           0
     74454 WT24     1217     MECN     C1       CG331   -0.170000       12.0110           0
     74455 WT24     1217     MECN     H11      HGA3     0.090000        1.0080           0
     74456 WT24     1217     MECN     H12      HGA3     0.090000        1.0080           0
     74457 WT24     1217     MECN     H13      HGA3     0.090000        1.0080           0
     74458 WT24     1217     MECN     C2       CG1N1    0.360000       12.0110           0
     74459 WT24     1217     MECN     N3       NG1T1   -0.460000       14.0070           0
     74460 WT24     1219     MECN     C1       CG331   -0.170000       12.0110           0
     74461 WT24     1219     MECN     H11      HGA3     0.090000        1.0080           0
     74462 WT24     1219     MECN     H12      HGA3     0.090000        1.0080           0
     74463 WT24     1219     MECN     H13      HGA3     0.090000        1.0080           0
     74464 WT24     1219     MECN     C2       CG1N1    0.360000       12.0110           0
     74465 WT24     1219     MECN     N3       NG1T1   -0.460000       14.0070           0
     74466 WT24     1220     MECN     C1       CG331   -0.170000       12.0110           0
     74467 WT24     1220     MECN     H11      HGA3     0.090000        1.0080           0
     74468 WT24     1220     MECN     H12      HGA3     0.090000        1.0080           0
     74469 WT24     1220     MECN     H13      HGA3     0.090000        1.0080           0
     74470 WT24     1220     MECN     C2       CG1N1    0.360000       12.0110           0
     74471 WT24     1220     MECN     N3       NG1T1   -0.460000       14.0070           0
     74472 WT24     1222     MECN     C1       CG331   -0.170000       12.0110           0
     74473 WT24     1222     MECN     H11      HGA3     0.090000        1.0080           0
     74474 WT24     1222     MECN     H12      HGA3     0.090000        1.0080           0
     74475 WT24     1222     MECN     H13      HGA3     0.090000        1.0080           0
     74476 WT24     1222     MECN     C2       CG1N1    0.360000       12.0110           0
     74477 WT24     1222     MECN     N3       NG1T1   -0.460000       14.0070           0
     74478 WT24     1224     MECN     C1       CG331   -0.170000       12.0110           0
     74479 WT24     1224     MECN     H11      HGA3     0.090000        1.0080           0
     74480 WT24     1224     MECN     H12      HGA3     0.090000        1.0080           0
     74481 WT24     1224     MECN     H13      HGA3     0.090000        1.0080           0
     74482 WT24     1224     MECN     C2       CG1N1    0.360000       12.0110           0
     74483 WT24     1224     MECN     N3       NG1T1   -0.460000       14.0070           0
     74484 WT24     1225     MECN     C1       CG331   -0.170000       12.0110           0
     74485 WT24     1225     MECN     H11      HGA3     0.090000        1.0080           0
     74486 WT24     1225     MECN     H12      HGA3     0.090000        1.0080           0
     74487 WT24     1225     MECN     H13      HGA3     0.090000        1.0080           0
     74488 WT24     1225     MECN     C2       CG1N1    0.360000       12.0110           0
     74489 WT24     1225     MECN     N3       NG1T1   -0.460000       14.0070           0
     74490 WT24     1226     MECN     C1       CG331   -0.170000       12.0110           0
     74491 WT24     1226     MECN     H11      HGA3     0.090000        1.0080           0
     74492 WT24     1226     MECN     H12      HGA3     0.090000        1.0080           0
     74493 WT24     1226     MECN     H13      HGA3     0.090000        1.0080           0
     74494 WT24     1226     MECN     C2       CG1N1    0.360000       12.0110           0
     74495 WT24     1226     MECN     N3       NG1T1   -0.460000       14.0070           0
     74496 WT24     1227     MECN     C1       CG331   -0.170000       12.0110           0
     74497 WT24     1227     MECN     H11      HGA3     0.090000        1.0080           0
     74498 WT24     1227     MECN     H12      HGA3     0.090000        1.0080           0
     74499 WT24     1227     MECN     H13      HGA3     0.090000        1.0080           0
     74500 WT24     1227     MECN     C2       CG1N1    0.360000       12.0110           0
     74501 WT24     1227     MECN     N3       NG1T1   -0.460000       14.0070           0
     74502 WT24     1231     MECN     C1       CG331   -0.170000       12.0110           0
     74503 WT24     1231     MECN     H11      HGA3     0.090000        1.0080           0
     74504 WT24     1231     MECN     H12      HGA3     0.090000        1.0080           0
     74505 WT24     1231     MECN     H13      HGA3     0.090000        1.0080           0
     74506 WT24     1231     MECN     C2       CG1N1    0.360000       12.0110           0
     74507 WT24     1231     MECN     N3       NG1T1   -0.460000       14.0070           0
     74508 WT24     1232     MECN     C1       CG331   -0.170000       12.0110           0
     74509 WT24     1232     MECN     H11      HGA3     0.090000        1.0080           0
     74510 WT24     1232     MECN     H12      HGA3     0.090000        1.0080           0
     74511 WT24     1232     MECN     H13      HGA3     0.090000        1.0080           0
     74512 WT24     1232     MECN     C2       CG1N1    0.360000       12.0110           0
     74513 WT24     1232     MECN     N3       NG1T1   -0.460000       14.0070           0
     74514 WT24     1235     MECN     C1       CG331   -0.170000       12.0110           0
     74515 WT24     1235     MECN     H11      HGA3     0.090000        1.0080           0
     74516 WT24     1235     MECN     H12      HGA3     0.090000        1.0080           0
     74517 WT24     1235     MECN     H13      HGA3     0.090000        1.0080           0
     74518 WT24     1235     MECN     C2       CG1N1    0.360000       12.0110           0
     74519 WT24     1235     MECN     N3       NG1T1   -0.460000       14.0070           0
     74520 WT24     1236     MECN     C1       CG331   -0.170000       12.0110           0
     74521 WT24     1236     MECN     H11      HGA3     0.090000        1.0080           0
     74522 WT24     1236     MECN     H12      HGA3     0.090000        1.0080           0
     74523 WT24     1236     MECN     H13      HGA3     0.090000        1.0080           0
     74524 WT24     1236     MECN     C2       CG1N1    0.360000       12.0110           0
     74525 WT24     1236     MECN     N3       NG1T1   -0.460000       14.0070           0
     74526 WT24     1237     MECN     C1       CG331   -0.170000       12.0110           0
     74527 WT24     1237     MECN     H11      HGA3     0.090000        1.0080           0
     74528 WT24     1237     MECN     H12      HGA3     0.090000        1.0080           0
     74529 WT24     1237     MECN     H13      HGA3     0.090000        1.0080           0
     74530 WT24     1237     MECN     C2       CG1N1    0.360000       12.0110           0
     74531 WT24     1237     MECN     N3       NG1T1   -0.460000       14.0070           0
     74532 WT24     1238     MECN     C1       CG331   -0.170000       12.0110           0
     74533 WT24     1238     MECN     H11      HGA3     0.090000        1.0080           0
     74534 WT24     1238     MECN     H12      HGA3     0.090000        1.0080           0
     74535 WT24     1238     MECN     H13      HGA3     0.090000        1.0080           0
     74536 WT24     1238     MECN     C2       CG1N1    0.360000       12.0110           0
     74537 WT24     1238     MECN     N3       NG1T1   -0.460000       14.0070           0
     74538 WT24     1240     MECN     C1       CG331   -0.170000       12.0110           0
     74539 WT24     1240     MECN     H11      HGA3     0.090000        1.0080           0
     74540 WT24     1240     MECN     H12      HGA3     0.090000        1.0080           0
     74541 WT24     1240     MECN     H13      HGA3     0.090000        1.0080           0
     74542 WT24     1240     MECN     C2       CG1N1    0.360000       12.0110           0
     74543 WT24     1240     MECN     N3       NG1T1   -0.460000       14.0070           0
     74544 WT24     1241     MECN     C1       CG331   -0.170000       12.0110           0
     74545 WT24     1241     MECN     H11      HGA3     0.090000        1.0080           0
     74546 WT24     1241     MECN     H12      HGA3     0.090000        1.0080           0
     74547 WT24     1241     MECN     H13      HGA3     0.090000        1.0080           0
     74548 WT24     1241     MECN     C2       CG1N1    0.360000       12.0110           0
     74549 WT24     1241     MECN     N3       NG1T1   -0.460000       14.0070           0
     74550 WT24     1244     MECN     C1       CG331   -0.170000       12.0110           0
     74551 WT24     1244     MECN     H11      HGA3     0.090000        1.0080           0
     74552 WT24     1244     MECN     H12      HGA3     0.090000        1.0080           0
     74553 WT24     1244     MECN     H13      HGA3     0.090000        1.0080           0
     74554 WT24     1244     MECN     C2       CG1N1    0.360000       12.0110           0
     74555 WT24     1244     MECN     N3       NG1T1   -0.460000       14.0070           0
     74556 WT24     1247     MECN     C1       CG331   -0.170000       12.0110           0
     74557 WT24     1247     MECN     H11      HGA3     0.090000        1.0080           0
     74558 WT24     1247     MECN     H12      HGA3     0.090000        1.0080           0
     74559 WT24     1247     MECN     H13      HGA3     0.090000        1.0080           0
     74560 WT24     1247     MECN     C2       CG1N1    0.360000       12.0110           0
     74561 WT24     1247     MECN     N3       NG1T1   -0.460000       14.0070           0
     74562 WT24     1250     MECN     C1       CG331   -0.170000       12.0110           0
     74563 WT24     1250     MECN     H11      HGA3     0.090000        1.0080           0
     74564 WT24     1250     MECN     H12      HGA3     0.090000        1.0080           0
     74565 WT24     1250     MECN     H13      HGA3     0.090000        1.0080           0
     74566 WT24     1250     MECN     C2       CG1N1    0.360000       12.0110           0
     74567 WT24     1250     MECN     N3       NG1T1   -0.460000       14.0070           0
     74568 WT24     1252     MECN     C1       CG331   -0.170000       12.0110           0
     74569 WT24     1252     MECN     H11      HGA3     0.090000        1.0080           0
     74570 WT24     1252     MECN     H12      HGA3     0.090000        1.0080           0
     74571 WT24     1252     MECN     H13      HGA3     0.090000        1.0080           0
     74572 WT24     1252     MECN     C2       CG1N1    0.360000       12.0110           0
     74573 WT24     1252     MECN     N3       NG1T1   -0.460000       14.0070           0
     74574 WT24     1254     MECN     C1       CG331   -0.170000       12.0110           0
     74575 WT24     1254     MECN     H11      HGA3     0.090000        1.0080           0
     74576 WT24     1254     MECN     H12      HGA3     0.090000        1.0080           0
     74577 WT24     1254     MECN     H13      HGA3     0.090000        1.0080           0
     74578 WT24     1254     MECN     C2       CG1N1    0.360000       12.0110           0
     74579 WT24     1254     MECN     N3       NG1T1   -0.460000       14.0070           0
     74580 WT24     1255     MECN     C1       CG331   -0.170000       12.0110           0
     74581 WT24     1255     MECN     H11      HGA3     0.090000        1.0080           0
     74582 WT24     1255     MECN     H12      HGA3     0.090000        1.0080           0
     74583 WT24     1255     MECN     H13      HGA3     0.090000        1.0080           0
     74584 WT24     1255     MECN     C2       CG1N1    0.360000       12.0110           0
     74585 WT24     1255     MECN     N3       NG1T1   -0.460000       14.0070           0
     74586 WT24     1256     MECN     C1       CG331   -0.170000       12.0110           0
     74587 WT24     1256     MECN     H11      HGA3     0.090000        1.0080           0
     74588 WT24     1256     MECN     H12      HGA3     0.090000        1.0080           0
     74589 WT24     1256     MECN     H13      HGA3     0.090000        1.0080           0
     74590 WT24     1256     MECN     C2       CG1N1    0.360000       12.0110           0
     74591 WT24     1256     MECN     N3       NG1T1   -0.460000       14.0070           0
     74592 WT24     1258     MECN     C1       CG331   -0.170000       12.0110           0
     74593 WT24     1258     MECN     H11      HGA3     0.090000        1.0080           0
     74594 WT24     1258     MECN     H12      HGA3     0.090000        1.0080           0
     74595 WT24     1258     MECN     H13      HGA3     0.090000        1.0080           0
     74596 WT24     1258     MECN     C2       CG1N1    0.360000       12.0110           0
     74597 WT24     1258     MECN     N3       NG1T1   -0.460000       14.0070           0
     74598 WT24     1259     MECN     C1       CG331   -0.170000       12.0110           0
     74599 WT24     1259     MECN     H11      HGA3     0.090000        1.0080           0
     74600 WT24     1259     MECN     H12      HGA3     0.090000        1.0080           0
     74601 WT24     1259     MECN     H13      HGA3     0.090000        1.0080           0
     74602 WT24     1259     MECN     C2       CG1N1    0.360000       12.0110           0
     74603 WT24     1259     MECN     N3       NG1T1   -0.460000       14.0070           0
     74604 WT24     1260     MECN     C1       CG331   -0.170000       12.0110           0
     74605 WT24     1260     MECN     H11      HGA3     0.090000        1.0080           0
     74606 WT24     1260     MECN     H12      HGA3     0.090000        1.0080           0
     74607 WT24     1260     MECN     H13      HGA3     0.090000        1.0080           0
     74608 WT24     1260     MECN     C2       CG1N1    0.360000       12.0110           0
     74609 WT24     1260     MECN     N3       NG1T1   -0.460000       14.0070           0
     74610 WT24     1262     MECN     C1       CG331   -0.170000       12.0110           0
     74611 WT24     1262     MECN     H11      HGA3     0.090000        1.0080           0
     74612 WT24     1262     MECN     H12      HGA3     0.090000        1.0080           0
     74613 WT24     1262     MECN     H13      HGA3     0.090000        1.0080           0
     74614 WT24     1262     MECN     C2       CG1N1    0.360000       12.0110           0
     74615 WT24     1262     MECN     N3       NG1T1   -0.460000       14.0070           0
     74616 WT24     1263     MECN     C1       CG331   -0.170000       12.0110           0
     74617 WT24     1263     MECN     H11      HGA3     0.090000        1.0080           0
     74618 WT24     1263     MECN     H12      HGA3     0.090000        1.0080           0
     74619 WT24     1263     MECN     H13      HGA3     0.090000        1.0080           0
     74620 WT24     1263     MECN     C2       CG1N1    0.360000       12.0110           0
     74621 WT24     1263     MECN     N3       NG1T1   -0.460000       14.0070           0
     74622 WT24     1264     MECN     C1       CG331   -0.170000       12.0110           0
     74623 WT24     1264     MECN     H11      HGA3     0.090000        1.0080           0
     74624 WT24     1264     MECN     H12      HGA3     0.090000        1.0080           0
     74625 WT24     1264     MECN     H13      HGA3     0.090000        1.0080           0
     74626 WT24     1264     MECN     C2       CG1N1    0.360000       12.0110           0
     74627 WT24     1264     MECN     N3       NG1T1   -0.460000       14.0070           0
     74628 WT24     1265     MECN     C1       CG331   -0.170000       12.0110           0
     74629 WT24     1265     MECN     H11      HGA3     0.090000        1.0080           0
     74630 WT24     1265     MECN     H12      HGA3     0.090000        1.0080           0
     74631 WT24     1265     MECN     H13      HGA3     0.090000        1.0080           0
     74632 WT24     1265     MECN     C2       CG1N1    0.360000       12.0110           0
     74633 WT24     1265     MECN     N3       NG1T1   -0.460000       14.0070           0
     74634 WT24     1266     MECN     C1       CG331   -0.170000       12.0110           0
     74635 WT24     1266     MECN     H11      HGA3     0.090000        1.0080           0
     74636 WT24     1266     MECN     H12      HGA3     0.090000        1.0080           0
     74637 WT24     1266     MECN     H13      HGA3     0.090000        1.0080           0
     74638 WT24     1266     MECN     C2       CG1N1    0.360000       12.0110           0
     74639 WT24     1266     MECN     N3       NG1T1   -0.460000       14.0070           0
     74640 WT24     1268     MECN     C1       CG331   -0.170000       12.0110           0
     74641 WT24     1268     MECN     H11      HGA3     0.090000        1.0080           0
     74642 WT24     1268     MECN     H12      HGA3     0.090000        1.0080           0
     74643 WT24     1268     MECN     H13      HGA3     0.090000        1.0080           0
     74644 WT24     1268     MECN     C2       CG1N1    0.360000       12.0110           0
     74645 WT24     1268     MECN     N3       NG1T1   -0.460000       14.0070           0
     74646 WT24     1269     MECN     C1       CG331   -0.170000       12.0110           0
     74647 WT24     1269     MECN     H11      HGA3     0.090000        1.0080           0
     74648 WT24     1269     MECN     H12      HGA3     0.090000        1.0080           0
     74649 WT24     1269     MECN     H13      HGA3     0.090000        1.0080           0
     74650 WT24     1269     MECN     C2       CG1N1    0.360000       12.0110           0
     74651 WT24     1269     MECN     N3       NG1T1   -0.460000       14.0070           0
     74652 WT24     1272     MECN     C1       CG331   -0.170000       12.0110           0
     74653 WT24     1272     MECN     H11      HGA3     0.090000        1.0080           0
     74654 WT24     1272     MECN     H12      HGA3     0.090000        1.0080           0
     74655 WT24     1272     MECN     H13      HGA3     0.090000        1.0080           0
     74656 WT24     1272     MECN     C2       CG1N1    0.360000       12.0110           0
     74657 WT24     1272     MECN     N3       NG1T1   -0.460000       14.0070           0
     74658 WT24     1277     MECN     C1       CG331   -0.170000       12.0110           0
     74659 WT24     1277     MECN     H11      HGA3     0.090000        1.0080           0
     74660 WT24     1277     MECN     H12      HGA3     0.090000        1.0080           0
     74661 WT24     1277     MECN     H13      HGA3     0.090000        1.0080           0
     74662 WT24     1277     MECN     C2       CG1N1    0.360000       12.0110           0
     74663 WT24     1277     MECN     N3       NG1T1   -0.460000       14.0070           0
     74664 WT24     1278     MECN     C1       CG331   -0.170000       12.0110           0
     74665 WT24     1278     MECN     H11      HGA3     0.090000        1.0080           0
     74666 WT24     1278     MECN     H12      HGA3     0.090000        1.0080           0
     74667 WT24     1278     MECN     H13      HGA3     0.090000        1.0080           0
     74668 WT24     1278     MECN     C2       CG1N1    0.360000       12.0110           0
     74669 WT24     1278     MECN     N3       NG1T1   -0.460000       14.0070           0
     74670 WT24     1280     MECN     C1       CG331   -0.170000       12.0110           0
     74671 WT24     1280     MECN     H11      HGA3     0.090000        1.0080           0
     74672 WT24     1280     MECN     H12      HGA3     0.090000        1.0080           0
     74673 WT24     1280     MECN     H13      HGA3     0.090000        1.0080           0
     74674 WT24     1280     MECN     C2       CG1N1    0.360000       12.0110           0
     74675 WT24     1280     MECN     N3       NG1T1   -0.460000       14.0070           0
     74676 WT24     1283     MECN     C1       CG331   -0.170000       12.0110           0
     74677 WT24     1283     MECN     H11      HGA3     0.090000        1.0080           0
     74678 WT24     1283     MECN     H12      HGA3     0.090000        1.0080           0
     74679 WT24     1283     MECN     H13      HGA3     0.090000        1.0080           0
     74680 WT24     1283     MECN     C2       CG1N1    0.360000       12.0110           0
     74681 WT24     1283     MECN     N3       NG1T1   -0.460000       14.0070           0
     74682 WT24     1285     MECN     C1       CG331   -0.170000       12.0110           0
     74683 WT24     1285     MECN     H11      HGA3     0.090000        1.0080           0
     74684 WT24     1285     MECN     H12      HGA3     0.090000        1.0080           0
     74685 WT24     1285     MECN     H13      HGA3     0.090000        1.0080           0
     74686 WT24     1285     MECN     C2       CG1N1    0.360000       12.0110           0
     74687 WT24     1285     MECN     N3       NG1T1   -0.460000       14.0070           0
     74688 WT24     1286     MECN     C1       CG331   -0.170000       12.0110           0
     74689 WT24     1286     MECN     H11      HGA3     0.090000        1.0080           0
     74690 WT24     1286     MECN     H12      HGA3     0.090000        1.0080           0
     74691 WT24     1286     MECN     H13      HGA3     0.090000        1.0080           0
     74692 WT24     1286     MECN     C2       CG1N1    0.360000       12.0110           0
     74693 WT24     1286     MECN     N3       NG1T1   -0.460000       14.0070           0
     74694 WT24     1288     MECN     C1       CG331   -0.170000       12.0110           0
     74695 WT24     1288     MECN     H11      HGA3     0.090000        1.0080           0
     74696 WT24     1288     MECN     H12      HGA3     0.090000        1.0080           0
     74697 WT24     1288     MECN     H13      HGA3     0.090000        1.0080           0
     74698 WT24     1288     MECN     C2       CG1N1    0.360000       12.0110           0
     74699 WT24     1288     MECN     N3       NG1T1   -0.460000       14.0070           0
     74700 WT24     1290     MECN     C1       CG331   -0.170000       12.0110           0
     74701 WT24     1290     MECN     H11      HGA3     0.090000        1.0080           0
     74702 WT24     1290     MECN     H12      HGA3     0.090000        1.0080           0
     74703 WT24     1290     MECN     H13      HGA3     0.090000        1.0080           0
     74704 WT24     1290     MECN     C2       CG1N1    0.360000       12.0110           0
     74705 WT24     1290     MECN     N3       NG1T1   -0.460000       14.0070           0
     74706 WT24     1291     MECN     C1       CG331   -0.170000       12.0110           0
     74707 WT24     1291     MECN     H11      HGA3     0.090000        1.0080           0
     74708 WT24     1291     MECN     H12      HGA3     0.090000        1.0080           0
     74709 WT24     1291     MECN     H13      HGA3     0.090000        1.0080           0
     74710 WT24     1291     MECN     C2       CG1N1    0.360000       12.0110           0
     74711 WT24     1291     MECN     N3       NG1T1   -0.460000       14.0070           0
     74712 WT24     1296     MECN     C1       CG331   -0.170000       12.0110           0
     74713 WT24     1296     MECN     H11      HGA3     0.090000        1.0080           0
     74714 WT24     1296     MECN     H12      HGA3     0.090000        1.0080           0
     74715 WT24     1296     MECN     H13      HGA3     0.090000        1.0080           0
     74716 WT24     1296     MECN     C2       CG1N1    0.360000       12.0110           0
     74717 WT24     1296     MECN     N3       NG1T1   -0.460000       14.0070           0
     74718 WT24     1297     MECN     C1       CG331   -0.170000       12.0110           0
     74719 WT24     1297     MECN     H11      HGA3     0.090000        1.0080           0
     74720 WT24     1297     MECN     H12      HGA3     0.090000        1.0080           0
     74721 WT24     1297     MECN     H13      HGA3     0.090000        1.0080           0
     74722 WT24     1297     MECN     C2       CG1N1    0.360000       12.0110           0
     74723 WT24     1297     MECN     N3       NG1T1   -0.460000       14.0070           0
     74724 WT24     1299     MECN     C1       CG331   -0.170000       12.0110           0
     74725 WT24     1299     MECN     H11      HGA3     0.090000        1.0080           0
     74726 WT24     1299     MECN     H12      HGA3     0.090000        1.0080           0
     74727 WT24     1299     MECN     H13      HGA3     0.090000        1.0080           0
     74728 WT24     1299     MECN     C2       CG1N1    0.360000       12.0110           0
     74729 WT24     1299     MECN     N3       NG1T1   -0.460000       14.0070           0
     74730 WT24     1301     MECN     C1       CG331   -0.170000       12.0110           0
     74731 WT24     1301     MECN     H11      HGA3     0.090000        1.0080           0
     74732 WT24     1301     MECN     H12      HGA3     0.090000        1.0080           0
     74733 WT24     1301     MECN     H13      HGA3     0.090000        1.0080           0
     74734 WT24     1301     MECN     C2       CG1N1    0.360000       12.0110           0
     74735 WT24     1301     MECN     N3       NG1T1   -0.460000       14.0070           0
     74736 WT24     1302     MECN     C1       CG331   -0.170000       12.0110           0
     74737 WT24     1302     MECN     H11      HGA3     0.090000        1.0080           0
     74738 WT24     1302     MECN     H12      HGA3     0.090000        1.0080           0
     74739 WT24     1302     MECN     H13      HGA3     0.090000        1.0080           0
     74740 WT24     1302     MECN     C2       CG1N1    0.360000       12.0110           0
     74741 WT24     1302     MECN     N3       NG1T1   -0.460000       14.0070           0
     74742 WT24     1305     MECN     C1       CG331   -0.170000       12.0110           0
     74743 WT24     1305     MECN     H11      HGA3     0.090000        1.0080           0
     74744 WT24     1305     MECN     H12      HGA3     0.090000        1.0080           0
     74745 WT24     1305     MECN     H13      HGA3     0.090000        1.0080           0
     74746 WT24     1305     MECN     C2       CG1N1    0.360000       12.0110           0
     74747 WT24     1305     MECN     N3       NG1T1   -0.460000       14.0070           0
     74748 WT24     1308     MECN     C1       CG331   -0.170000       12.0110           0
     74749 WT24     1308     MECN     H11      HGA3     0.090000        1.0080           0
     74750 WT24     1308     MECN     H12      HGA3     0.090000        1.0080           0
     74751 WT24     1308     MECN     H13      HGA3     0.090000        1.0080           0
     74752 WT24     1308     MECN     C2       CG1N1    0.360000       12.0110           0
     74753 WT24     1308     MECN     N3       NG1T1   -0.460000       14.0070           0
     74754 WT24     1309     MECN     C1       CG331   -0.170000       12.0110           0
     74755 WT24     1309     MECN     H11      HGA3     0.090000        1.0080           0
     74756 WT24     1309     MECN     H12      HGA3     0.090000        1.0080           0
     74757 WT24     1309     MECN     H13      HGA3     0.090000        1.0080           0
     74758 WT24     1309     MECN     C2       CG1N1    0.360000       12.0110           0
     74759 WT24     1309     MECN     N3       NG1T1   -0.460000       14.0070           0
     74760 WT24     1311     MECN     C1       CG331   -0.170000       12.0110           0
     74761 WT24     1311     MECN     H11      HGA3     0.090000        1.0080           0
     74762 WT24     1311     MECN     H12      HGA3     0.090000        1.0080           0
     74763 WT24     1311     MECN     H13      HGA3     0.090000        1.0080           0
     74764 WT24     1311     MECN     C2       CG1N1    0.360000       12.0110           0
     74765 WT24     1311     MECN     N3       NG1T1   -0.460000       14.0070           0
     74766 WT24     1312     MECN     C1       CG331   -0.170000       12.0110           0
     74767 WT24     1312     MECN     H11      HGA3     0.090000        1.0080           0
     74768 WT24     1312     MECN     H12      HGA3     0.090000        1.0080           0
     74769 WT24     1312     MECN     H13      HGA3     0.090000        1.0080           0
     74770 WT24     1312     MECN     C2       CG1N1    0.360000       12.0110           0
     74771 WT24     1312     MECN     N3       NG1T1   -0.460000       14.0070           0
     74772 WT24     1313     MECN     C1       CG331   -0.170000       12.0110           0
     74773 WT24     1313     MECN     H11      HGA3     0.090000        1.0080           0
     74774 WT24     1313     MECN     H12      HGA3     0.090000        1.0080           0
     74775 WT24     1313     MECN     H13      HGA3     0.090000        1.0080           0
     74776 WT24     1313     MECN     C2       CG1N1    0.360000       12.0110           0
     74777 WT24     1313     MECN     N3       NG1T1   -0.460000       14.0070           0
     74778 WT24     1314     MECN     C1       CG331   -0.170000       12.0110           0
     74779 WT24     1314     MECN     H11      HGA3     0.090000        1.0080           0
     74780 WT24     1314     MECN     H12      HGA3     0.090000        1.0080           0
     74781 WT24     1314     MECN     H13      HGA3     0.090000        1.0080           0
     74782 WT24     1314     MECN     C2       CG1N1    0.360000       12.0110           0
     74783 WT24     1314     MECN     N3       NG1T1   -0.460000       14.0070           0
     74784 WT24     1316     MECN     C1       CG331   -0.170000       12.0110           0
     74785 WT24     1316     MECN     H11      HGA3     0.090000        1.0080           0
     74786 WT24     1316     MECN     H12      HGA3     0.090000        1.0080           0
     74787 WT24     1316     MECN     H13      HGA3     0.090000        1.0080           0
     74788 WT24     1316     MECN     C2       CG1N1    0.360000       12.0110           0
     74789 WT24     1316     MECN     N3       NG1T1   -0.460000       14.0070           0
     74790 WT24     1318     MECN     C1       CG331   -0.170000       12.0110           0
     74791 WT24     1318     MECN     H11      HGA3     0.090000        1.0080           0
     74792 WT24     1318     MECN     H12      HGA3     0.090000        1.0080           0
     74793 WT24     1318     MECN     H13      HGA3     0.090000        1.0080           0
     74794 WT24     1318     MECN     C2       CG1N1    0.360000       12.0110           0
     74795 WT24     1318     MECN     N3       NG1T1   -0.460000       14.0070           0
     74796 WT24     1319     MECN     C1       CG331   -0.170000       12.0110           0
     74797 WT24     1319     MECN     H11      HGA3     0.090000        1.0080           0
     74798 WT24     1319     MECN     H12      HGA3     0.090000        1.0080           0
     74799 WT24     1319     MECN     H13      HGA3     0.090000        1.0080           0
     74800 WT24     1319     MECN     C2       CG1N1    0.360000       12.0110           0
     74801 WT24     1319     MECN     N3       NG1T1   -0.460000       14.0070           0
     74802 WT24     1320     MECN     C1       CG331   -0.170000       12.0110           0
     74803 WT24     1320     MECN     H11      HGA3     0.090000        1.0080           0
     74804 WT24     1320     MECN     H12      HGA3     0.090000        1.0080           0
     74805 WT24     1320     MECN     H13      HGA3     0.090000        1.0080           0
     74806 WT24     1320     MECN     C2       CG1N1    0.360000       12.0110           0
     74807 WT24     1320     MECN     N3       NG1T1   -0.460000       14.0070           0
     74808 WT24     1322     MECN     C1       CG331   -0.170000       12.0110           0
     74809 WT24     1322     MECN     H11      HGA3     0.090000        1.0080           0
     74810 WT24     1322     MECN     H12      HGA3     0.090000        1.0080           0
     74811 WT24     1322     MECN     H13      HGA3     0.090000        1.0080           0
     74812 WT24     1322     MECN     C2       CG1N1    0.360000       12.0110           0
     74813 WT24     1322     MECN     N3       NG1T1   -0.460000       14.0070           0
     74814 WT24     1324     MECN     C1       CG331   -0.170000       12.0110           0
     74815 WT24     1324     MECN     H11      HGA3     0.090000        1.0080           0
     74816 WT24     1324     MECN     H12      HGA3     0.090000        1.0080           0
     74817 WT24     1324     MECN     H13      HGA3     0.090000        1.0080           0
     74818 WT24     1324     MECN     C2       CG1N1    0.360000       12.0110           0
     74819 WT24     1324     MECN     N3       NG1T1   -0.460000       14.0070           0
     74820 WT24     1327     MECN     C1       CG331   -0.170000       12.0110           0
     74821 WT24     1327     MECN     H11      HGA3     0.090000        1.0080           0
     74822 WT24     1327     MECN     H12      HGA3     0.090000        1.0080           0
     74823 WT24     1327     MECN     H13      HGA3     0.090000        1.0080           0
     74824 WT24     1327     MECN     C2       CG1N1    0.360000       12.0110           0
     74825 WT24     1327     MECN     N3       NG1T1   -0.460000       14.0070           0
     74826 WT24     1328     MECN     C1       CG331   -0.170000       12.0110           0
     74827 WT24     1328     MECN     H11      HGA3     0.090000        1.0080           0
     74828 WT24     1328     MECN     H12      HGA3     0.090000        1.0080           0
     74829 WT24     1328     MECN     H13      HGA3     0.090000        1.0080           0
     74830 WT24     1328     MECN     C2       CG1N1    0.360000       12.0110           0
     74831 WT24     1328     MECN     N3       NG1T1   -0.460000       14.0070           0
     74832 WT24     1330     MECN     C1       CG331   -0.170000       12.0110           0
     74833 WT24     1330     MECN     H11      HGA3     0.090000        1.0080           0
     74834 WT24     1330     MECN     H12      HGA3     0.090000        1.0080           0
     74835 WT24     1330     MECN     H13      HGA3     0.090000        1.0080           0
     74836 WT24     1330     MECN     C2       CG1N1    0.360000       12.0110           0
     74837 WT24     1330     MECN     N3       NG1T1   -0.460000       14.0070           0
     74838 WT24     1331     MECN     C1       CG331   -0.170000       12.0110           0
     74839 WT24     1331     MECN     H11      HGA3     0.090000        1.0080           0
     74840 WT24     1331     MECN     H12      HGA3     0.090000        1.0080           0
     74841 WT24     1331     MECN     H13      HGA3     0.090000        1.0080           0
     74842 WT24     1331     MECN     C2       CG1N1    0.360000       12.0110           0
     74843 WT24     1331     MECN     N3       NG1T1   -0.460000       14.0070           0
     74844 WT25     1        MECN     C1       CG331   -0.170000       12.0110           0
     74845 WT25     1        MECN     H11      HGA3     0.090000        1.0080           0
     74846 WT25     1        MECN     H12      HGA3     0.090000        1.0080           0
     74847 WT25     1        MECN     H13      HGA3     0.090000        1.0080           0
     74848 WT25     1        MECN     C2       CG1N1    0.360000       12.0110           0
     74849 WT25     1        MECN     N3       NG1T1   -0.460000       14.0070           0
     74850 WT25     8        MECN     C1       CG331   -0.170000       12.0110           0
     74851 WT25     8        MECN     H11      HGA3     0.090000        1.0080           0
     74852 WT25     8        MECN     H12      HGA3     0.090000        1.0080           0
     74853 WT25     8        MECN     H13      HGA3     0.090000        1.0080           0
     74854 WT25     8        MECN     C2       CG1N1    0.360000       12.0110           0
     74855 WT25     8        MECN     N3       NG1T1   -0.460000       14.0070           0
     74856 WT25     9        MECN     C1       CG331   -0.170000       12.0110           0
     74857 WT25     9        MECN     H11      HGA3     0.090000        1.0080           0
     74858 WT25     9        MECN     H12      HGA3     0.090000        1.0080           0
     74859 WT25     9        MECN     H13      HGA3     0.090000        1.0080           0
     74860 WT25     9        MECN     C2       CG1N1    0.360000       12.0110           0
     74861 WT25     9        MECN     N3       NG1T1   -0.460000       14.0070           0
     74862 WT25     17       MECN     C1       CG331   -0.170000       12.0110           0
     74863 WT25     17       MECN     H11      HGA3     0.090000        1.0080           0
     74864 WT25     17       MECN     H12      HGA3     0.090000        1.0080           0
     74865 WT25     17       MECN     H13      HGA3     0.090000        1.0080           0
     74866 WT25     17       MECN     C2       CG1N1    0.360000       12.0110           0
     74867 WT25     17       MECN     N3       NG1T1   -0.460000       14.0070           0
     74868 WT25     25       MECN     C1       CG331   -0.170000       12.0110           0
     74869 WT25     25       MECN     H11      HGA3     0.090000        1.0080           0
     74870 WT25     25       MECN     H12      HGA3     0.090000        1.0080           0
     74871 WT25     25       MECN     H13      HGA3     0.090000        1.0080           0
     74872 WT25     25       MECN     C2       CG1N1    0.360000       12.0110           0
     74873 WT25     25       MECN     N3       NG1T1   -0.460000       14.0070           0
     74874 WT25     36       MECN     C1       CG331   -0.170000       12.0110           0
     74875 WT25     36       MECN     H11      HGA3     0.090000        1.0080           0
     74876 WT25     36       MECN     H12      HGA3     0.090000        1.0080           0
     74877 WT25     36       MECN     H13      HGA3     0.090000        1.0080           0
     74878 WT25     36       MECN     C2       CG1N1    0.360000       12.0110           0
     74879 WT25     36       MECN     N3       NG1T1   -0.460000       14.0070           0
     74880 WT25     37       MECN     C1       CG331   -0.170000       12.0110           0
     74881 WT25     37       MECN     H11      HGA3     0.090000        1.0080           0
     74882 WT25     37       MECN     H12      HGA3     0.090000        1.0080           0
     74883 WT25     37       MECN     H13      HGA3     0.090000        1.0080           0
     74884 WT25     37       MECN     C2       CG1N1    0.360000       12.0110           0
     74885 WT25     37       MECN     N3       NG1T1   -0.460000       14.0070           0
     74886 WT25     38       MECN     C1       CG331   -0.170000       12.0110           0
     74887 WT25     38       MECN     H11      HGA3     0.090000        1.0080           0
     74888 WT25     38       MECN     H12      HGA3     0.090000        1.0080           0
     74889 WT25     38       MECN     H13      HGA3     0.090000        1.0080           0
     74890 WT25     38       MECN     C2       CG1N1    0.360000       12.0110           0
     74891 WT25     38       MECN     N3       NG1T1   -0.460000       14.0070           0
     74892 WT25     39       MECN     C1       CG331   -0.170000       12.0110           0
     74893 WT25     39       MECN     H11      HGA3     0.090000        1.0080           0
     74894 WT25     39       MECN     H12      HGA3     0.090000        1.0080           0
     74895 WT25     39       MECN     H13      HGA3     0.090000        1.0080           0
     74896 WT25     39       MECN     C2       CG1N1    0.360000       12.0110           0
     74897 WT25     39       MECN     N3       NG1T1   -0.460000       14.0070           0
     74898 WT25     43       MECN     C1       CG331   -0.170000       12.0110           0
     74899 WT25     43       MECN     H11      HGA3     0.090000        1.0080           0
     74900 WT25     43       MECN     H12      HGA3     0.090000        1.0080           0
     74901 WT25     43       MECN     H13      HGA3     0.090000        1.0080           0
     74902 WT25     43       MECN     C2       CG1N1    0.360000       12.0110           0
     74903 WT25     43       MECN     N3       NG1T1   -0.460000       14.0070           0
     74904 WT25     45       MECN     C1       CG331   -0.170000       12.0110           0
     74905 WT25     45       MECN     H11      HGA3     0.090000        1.0080           0
     74906 WT25     45       MECN     H12      HGA3     0.090000        1.0080           0
     74907 WT25     45       MECN     H13      HGA3     0.090000        1.0080           0
     74908 WT25     45       MECN     C2       CG1N1    0.360000       12.0110           0
     74909 WT25     45       MECN     N3       NG1T1   -0.460000       14.0070           0
     74910 WT25     57       MECN     C1       CG331   -0.170000       12.0110           0
     74911 WT25     57       MECN     H11      HGA3     0.090000        1.0080           0
     74912 WT25     57       MECN     H12      HGA3     0.090000        1.0080           0
     74913 WT25     57       MECN     H13      HGA3     0.090000        1.0080           0
     74914 WT25     57       MECN     C2       CG1N1    0.360000       12.0110           0
     74915 WT25     57       MECN     N3       NG1T1   -0.460000       14.0070           0
     74916 WT25     59       MECN     C1       CG331   -0.170000       12.0110           0
     74917 WT25     59       MECN     H11      HGA3     0.090000        1.0080           0
     74918 WT25     59       MECN     H12      HGA3     0.090000        1.0080           0
     74919 WT25     59       MECN     H13      HGA3     0.090000        1.0080           0
     74920 WT25     59       MECN     C2       CG1N1    0.360000       12.0110           0
     74921 WT25     59       MECN     N3       NG1T1   -0.460000       14.0070           0
     74922 WT25     60       MECN     C1       CG331   -0.170000       12.0110           0
     74923 WT25     60       MECN     H11      HGA3     0.090000        1.0080           0
     74924 WT25     60       MECN     H12      HGA3     0.090000        1.0080           0
     74925 WT25     60       MECN     H13      HGA3     0.090000        1.0080           0
     74926 WT25     60       MECN     C2       CG1N1    0.360000       12.0110           0
     74927 WT25     60       MECN     N3       NG1T1   -0.460000       14.0070           0
     74928 WT25     62       MECN     C1       CG331   -0.170000       12.0110           0
     74929 WT25     62       MECN     H11      HGA3     0.090000        1.0080           0
     74930 WT25     62       MECN     H12      HGA3     0.090000        1.0080           0
     74931 WT25     62       MECN     H13      HGA3     0.090000        1.0080           0
     74932 WT25     62       MECN     C2       CG1N1    0.360000       12.0110           0
     74933 WT25     62       MECN     N3       NG1T1   -0.460000       14.0070           0
     74934 WT25     63       MECN     C1       CG331   -0.170000       12.0110           0
     74935 WT25     63       MECN     H11      HGA3     0.090000        1.0080           0
     74936 WT25     63       MECN     H12      HGA3     0.090000        1.0080           0
     74937 WT25     63       MECN     H13      HGA3     0.090000        1.0080           0
     74938 WT25     63       MECN     C2       CG1N1    0.360000       12.0110           0
     74939 WT25     63       MECN     N3       NG1T1   -0.460000       14.0070           0
     74940 WT25     71       MECN     C1       CG331   -0.170000       12.0110           0
     74941 WT25     71       MECN     H11      HGA3     0.090000        1.0080           0
     74942 WT25     71       MECN     H12      HGA3     0.090000        1.0080           0
     74943 WT25     71       MECN     H13      HGA3     0.090000        1.0080           0
     74944 WT25     71       MECN     C2       CG1N1    0.360000       12.0110           0
     74945 WT25     71       MECN     N3       NG1T1   -0.460000       14.0070           0
     74946 WT25     72       MECN     C1       CG331   -0.170000       12.0110           0
     74947 WT25     72       MECN     H11      HGA3     0.090000        1.0080           0
     74948 WT25     72       MECN     H12      HGA3     0.090000        1.0080           0
     74949 WT25     72       MECN     H13      HGA3     0.090000        1.0080           0
     74950 WT25     72       MECN     C2       CG1N1    0.360000       12.0110           0
     74951 WT25     72       MECN     N3       NG1T1   -0.460000       14.0070           0
     74952 WT25     75       MECN     C1       CG331   -0.170000       12.0110           0
     74953 WT25     75       MECN     H11      HGA3     0.090000        1.0080           0
     74954 WT25     75       MECN     H12      HGA3     0.090000        1.0080           0
     74955 WT25     75       MECN     H13      HGA3     0.090000        1.0080           0
     74956 WT25     75       MECN     C2       CG1N1    0.360000       12.0110           0
     74957 WT25     75       MECN     N3       NG1T1   -0.460000       14.0070           0
     74958 WT25     78       MECN     C1       CG331   -0.170000       12.0110           0
     74959 WT25     78       MECN     H11      HGA3     0.090000        1.0080           0
     74960 WT25     78       MECN     H12      HGA3     0.090000        1.0080           0
     74961 WT25     78       MECN     H13      HGA3     0.090000        1.0080           0
     74962 WT25     78       MECN     C2       CG1N1    0.360000       12.0110           0
     74963 WT25     78       MECN     N3       NG1T1   -0.460000       14.0070           0
     74964 WT25     80       MECN     C1       CG331   -0.170000       12.0110           0
     74965 WT25     80       MECN     H11      HGA3     0.090000        1.0080           0
     74966 WT25     80       MECN     H12      HGA3     0.090000        1.0080           0
     74967 WT25     80       MECN     H13      HGA3     0.090000        1.0080           0
     74968 WT25     80       MECN     C2       CG1N1    0.360000       12.0110           0
     74969 WT25     80       MECN     N3       NG1T1   -0.460000       14.0070           0
     74970 WT25     83       MECN     C1       CG331   -0.170000       12.0110           0
     74971 WT25     83       MECN     H11      HGA3     0.090000        1.0080           0
     74972 WT25     83       MECN     H12      HGA3     0.090000        1.0080           0
     74973 WT25     83       MECN     H13      HGA3     0.090000        1.0080           0
     74974 WT25     83       MECN     C2       CG1N1    0.360000       12.0110           0
     74975 WT25     83       MECN     N3       NG1T1   -0.460000       14.0070           0
     74976 WT25     86       MECN     C1       CG331   -0.170000       12.0110           0
     74977 WT25     86       MECN     H11      HGA3     0.090000        1.0080           0
     74978 WT25     86       MECN     H12      HGA3     0.090000        1.0080           0
     74979 WT25     86       MECN     H13      HGA3     0.090000        1.0080           0
     74980 WT25     86       MECN     C2       CG1N1    0.360000       12.0110           0
     74981 WT25     86       MECN     N3       NG1T1   -0.460000       14.0070           0
     74982 WT25     90       MECN     C1       CG331   -0.170000       12.0110           0
     74983 WT25     90       MECN     H11      HGA3     0.090000        1.0080           0
     74984 WT25     90       MECN     H12      HGA3     0.090000        1.0080           0
     74985 WT25     90       MECN     H13      HGA3     0.090000        1.0080           0
     74986 WT25     90       MECN     C2       CG1N1    0.360000       12.0110           0
     74987 WT25     90       MECN     N3       NG1T1   -0.460000       14.0070           0
     74988 WT25     95       MECN     C1       CG331   -0.170000       12.0110           0
     74989 WT25     95       MECN     H11      HGA3     0.090000        1.0080           0
     74990 WT25     95       MECN     H12      HGA3     0.090000        1.0080           0
     74991 WT25     95       MECN     H13      HGA3     0.090000        1.0080           0
     74992 WT25     95       MECN     C2       CG1N1    0.360000       12.0110           0
     74993 WT25     95       MECN     N3       NG1T1   -0.460000       14.0070           0
     74994 WT25     100      MECN     C1       CG331   -0.170000       12.0110           0
     74995 WT25     100      MECN     H11      HGA3     0.090000        1.0080           0
     74996 WT25     100      MECN     H12      HGA3     0.090000        1.0080           0
     74997 WT25     100      MECN     H13      HGA3     0.090000        1.0080           0
     74998 WT25     100      MECN     C2       CG1N1    0.360000       12.0110           0
     74999 WT25     100      MECN     N3       NG1T1   -0.460000       14.0070           0
     75000 WT25     102      MECN     C1       CG331   -0.170000       12.0110           0
     75001 WT25     102      MECN     H11      HGA3     0.090000        1.0080           0
     75002 WT25     102      MECN     H12      HGA3     0.090000        1.0080           0
     75003 WT25     102      MECN     H13      HGA3     0.090000        1.0080           0
     75004 WT25     102      MECN     C2       CG1N1    0.360000       12.0110           0
     75005 WT25     102      MECN     N3       NG1T1   -0.460000       14.0070           0
     75006 WT25     104      MECN     C1       CG331   -0.170000       12.0110           0
     75007 WT25     104      MECN     H11      HGA3     0.090000        1.0080           0
     75008 WT25     104      MECN     H12      HGA3     0.090000        1.0080           0
     75009 WT25     104      MECN     H13      HGA3     0.090000        1.0080           0
     75010 WT25     104      MECN     C2       CG1N1    0.360000       12.0110           0
     75011 WT25     104      MECN     N3       NG1T1   -0.460000       14.0070           0
     75012 WT25     108      MECN     C1       CG331   -0.170000       12.0110           0
     75013 WT25     108      MECN     H11      HGA3     0.090000        1.0080           0
     75014 WT25     108      MECN     H12      HGA3     0.090000        1.0080           0
     75015 WT25     108      MECN     H13      HGA3     0.090000        1.0080           0
     75016 WT25     108      MECN     C2       CG1N1    0.360000       12.0110           0
     75017 WT25     108      MECN     N3       NG1T1   -0.460000       14.0070           0
     75018 WT25     117      MECN     C1       CG331   -0.170000       12.0110           0
     75019 WT25     117      MECN     H11      HGA3     0.090000        1.0080           0
     75020 WT25     117      MECN     H12      HGA3     0.090000        1.0080           0
     75021 WT25     117      MECN     H13      HGA3     0.090000        1.0080           0
     75022 WT25     117      MECN     C2       CG1N1    0.360000       12.0110           0
     75023 WT25     117      MECN     N3       NG1T1   -0.460000       14.0070           0
     75024 WT25     126      MECN     C1       CG331   -0.170000       12.0110           0
     75025 WT25     126      MECN     H11      HGA3     0.090000        1.0080           0
     75026 WT25     126      MECN     H12      HGA3     0.090000        1.0080           0
     75027 WT25     126      MECN     H13      HGA3     0.090000        1.0080           0
     75028 WT25     126      MECN     C2       CG1N1    0.360000       12.0110           0
     75029 WT25     126      MECN     N3       NG1T1   -0.460000       14.0070           0
     75030 WT25     133      MECN     C1       CG331   -0.170000       12.0110           0
     75031 WT25     133      MECN     H11      HGA3     0.090000        1.0080           0
     75032 WT25     133      MECN     H12      HGA3     0.090000        1.0080           0
     75033 WT25     133      MECN     H13      HGA3     0.090000        1.0080           0
     75034 WT25     133      MECN     C2       CG1N1    0.360000       12.0110           0
     75035 WT25     133      MECN     N3       NG1T1   -0.460000       14.0070           0
     75036 WT25     134      MECN     C1       CG331   -0.170000       12.0110           0
     75037 WT25     134      MECN     H11      HGA3     0.090000        1.0080           0
     75038 WT25     134      MECN     H12      HGA3     0.090000        1.0080           0
     75039 WT25     134      MECN     H13      HGA3     0.090000        1.0080           0
     75040 WT25     134      MECN     C2       CG1N1    0.360000       12.0110           0
     75041 WT25     134      MECN     N3       NG1T1   -0.460000       14.0070           0
     75042 WT25     141      MECN     C1       CG331   -0.170000       12.0110           0
     75043 WT25     141      MECN     H11      HGA3     0.090000        1.0080           0
     75044 WT25     141      MECN     H12      HGA3     0.090000        1.0080           0
     75045 WT25     141      MECN     H13      HGA3     0.090000        1.0080           0
     75046 WT25     141      MECN     C2       CG1N1    0.360000       12.0110           0
     75047 WT25     141      MECN     N3       NG1T1   -0.460000       14.0070           0
     75048 WT25     144      MECN     C1       CG331   -0.170000       12.0110           0
     75049 WT25     144      MECN     H11      HGA3     0.090000        1.0080           0
     75050 WT25     144      MECN     H12      HGA3     0.090000        1.0080           0
     75051 WT25     144      MECN     H13      HGA3     0.090000        1.0080           0
     75052 WT25     144      MECN     C2       CG1N1    0.360000       12.0110           0
     75053 WT25     144      MECN     N3       NG1T1   -0.460000       14.0070           0
     75054 WT25     146      MECN     C1       CG331   -0.170000       12.0110           0
     75055 WT25     146      MECN     H11      HGA3     0.090000        1.0080           0
     75056 WT25     146      MECN     H12      HGA3     0.090000        1.0080           0
     75057 WT25     146      MECN     H13      HGA3     0.090000        1.0080           0
     75058 WT25     146      MECN     C2       CG1N1    0.360000       12.0110           0
     75059 WT25     146      MECN     N3       NG1T1   -0.460000       14.0070           0
     75060 WT25     147      MECN     C1       CG331   -0.170000       12.0110           0
     75061 WT25     147      MECN     H11      HGA3     0.090000        1.0080           0
     75062 WT25     147      MECN     H12      HGA3     0.090000        1.0080           0
     75063 WT25     147      MECN     H13      HGA3     0.090000        1.0080           0
     75064 WT25     147      MECN     C2       CG1N1    0.360000       12.0110           0
     75065 WT25     147      MECN     N3       NG1T1   -0.460000       14.0070           0
     75066 WT25     148      MECN     C1       CG331   -0.170000       12.0110           0
     75067 WT25     148      MECN     H11      HGA3     0.090000        1.0080           0
     75068 WT25     148      MECN     H12      HGA3     0.090000        1.0080           0
     75069 WT25     148      MECN     H13      HGA3     0.090000        1.0080           0
     75070 WT25     148      MECN     C2       CG1N1    0.360000       12.0110           0
     75071 WT25     148      MECN     N3       NG1T1   -0.460000       14.0070           0
     75072 WT25     149      MECN     C1       CG331   -0.170000       12.0110           0
     75073 WT25     149      MECN     H11      HGA3     0.090000        1.0080           0
     75074 WT25     149      MECN     H12      HGA3     0.090000        1.0080           0
     75075 WT25     149      MECN     H13      HGA3     0.090000        1.0080           0
     75076 WT25     149      MECN     C2       CG1N1    0.360000       12.0110           0
     75077 WT25     149      MECN     N3       NG1T1   -0.460000       14.0070           0
     75078 WT25     158      MECN     C1       CG331   -0.170000       12.0110           0
     75079 WT25     158      MECN     H11      HGA3     0.090000        1.0080           0
     75080 WT25     158      MECN     H12      HGA3     0.090000        1.0080           0
     75081 WT25     158      MECN     H13      HGA3     0.090000        1.0080           0
     75082 WT25     158      MECN     C2       CG1N1    0.360000       12.0110           0
     75083 WT25     158      MECN     N3       NG1T1   -0.460000       14.0070           0
     75084 WT25     161      MECN     C1       CG331   -0.170000       12.0110           0
     75085 WT25     161      MECN     H11      HGA3     0.090000        1.0080           0
     75086 WT25     161      MECN     H12      HGA3     0.090000        1.0080           0
     75087 WT25     161      MECN     H13      HGA3     0.090000        1.0080           0
     75088 WT25     161      MECN     C2       CG1N1    0.360000       12.0110           0
     75089 WT25     161      MECN     N3       NG1T1   -0.460000       14.0070           0
     75090 WT25     162      MECN     C1       CG331   -0.170000       12.0110           0
     75091 WT25     162      MECN     H11      HGA3     0.090000        1.0080           0
     75092 WT25     162      MECN     H12      HGA3     0.090000        1.0080           0
     75093 WT25     162      MECN     H13      HGA3     0.090000        1.0080           0
     75094 WT25     162      MECN     C2       CG1N1    0.360000       12.0110           0
     75095 WT25     162      MECN     N3       NG1T1   -0.460000       14.0070           0
     75096 WT25     179      MECN     C1       CG331   -0.170000       12.0110           0
     75097 WT25     179      MECN     H11      HGA3     0.090000        1.0080           0
     75098 WT25     179      MECN     H12      HGA3     0.090000        1.0080           0
     75099 WT25     179      MECN     H13      HGA3     0.090000        1.0080           0
     75100 WT25     179      MECN     C2       CG1N1    0.360000       12.0110           0
     75101 WT25     179      MECN     N3       NG1T1   -0.460000       14.0070           0
     75102 WT25     182      MECN     C1       CG331   -0.170000       12.0110           0
     75103 WT25     182      MECN     H11      HGA3     0.090000        1.0080           0
     75104 WT25     182      MECN     H12      HGA3     0.090000        1.0080           0
     75105 WT25     182      MECN     H13      HGA3     0.090000        1.0080           0
     75106 WT25     182      MECN     C2       CG1N1    0.360000       12.0110           0
     75107 WT25     182      MECN     N3       NG1T1   -0.460000       14.0070           0
     75108 WT25     189      MECN     C1       CG331   -0.170000       12.0110           0
     75109 WT25     189      MECN     H11      HGA3     0.090000        1.0080           0
     75110 WT25     189      MECN     H12      HGA3     0.090000        1.0080           0
     75111 WT25     189      MECN     H13      HGA3     0.090000        1.0080           0
     75112 WT25     189      MECN     C2       CG1N1    0.360000       12.0110           0
     75113 WT25     189      MECN     N3       NG1T1   -0.460000       14.0070           0
     75114 WT25     193      MECN     C1       CG331   -0.170000       12.0110           0
     75115 WT25     193      MECN     H11      HGA3     0.090000        1.0080           0
     75116 WT25     193      MECN     H12      HGA3     0.090000        1.0080           0
     75117 WT25     193      MECN     H13      HGA3     0.090000        1.0080           0
     75118 WT25     193      MECN     C2       CG1N1    0.360000       12.0110           0
     75119 WT25     193      MECN     N3       NG1T1   -0.460000       14.0070           0
     75120 WT25     194      MECN     C1       CG331   -0.170000       12.0110           0
     75121 WT25     194      MECN     H11      HGA3     0.090000        1.0080           0
     75122 WT25     194      MECN     H12      HGA3     0.090000        1.0080           0
     75123 WT25     194      MECN     H13      HGA3     0.090000        1.0080           0
     75124 WT25     194      MECN     C2       CG1N1    0.360000       12.0110           0
     75125 WT25     194      MECN     N3       NG1T1   -0.460000       14.0070           0
     75126 WT25     195      MECN     C1       CG331   -0.170000       12.0110           0
     75127 WT25     195      MECN     H11      HGA3     0.090000        1.0080           0
     75128 WT25     195      MECN     H12      HGA3     0.090000        1.0080           0
     75129 WT25     195      MECN     H13      HGA3     0.090000        1.0080           0
     75130 WT25     195      MECN     C2       CG1N1    0.360000       12.0110           0
     75131 WT25     195      MECN     N3       NG1T1   -0.460000       14.0070           0
     75132 WT25     198      MECN     C1       CG331   -0.170000       12.0110           0
     75133 WT25     198      MECN     H11      HGA3     0.090000        1.0080           0
     75134 WT25     198      MECN     H12      HGA3     0.090000        1.0080           0
     75135 WT25     198      MECN     H13      HGA3     0.090000        1.0080           0
     75136 WT25     198      MECN     C2       CG1N1    0.360000       12.0110           0
     75137 WT25     198      MECN     N3       NG1T1   -0.460000       14.0070           0
     75138 WT25     202      MECN     C1       CG331   -0.170000       12.0110           0
     75139 WT25     202      MECN     H11      HGA3     0.090000        1.0080           0
     75140 WT25     202      MECN     H12      HGA3     0.090000        1.0080           0
     75141 WT25     202      MECN     H13      HGA3     0.090000        1.0080           0
     75142 WT25     202      MECN     C2       CG1N1    0.360000       12.0110           0
     75143 WT25     202      MECN     N3       NG1T1   -0.460000       14.0070           0
     75144 WT25     204      MECN     C1       CG331   -0.170000       12.0110           0
     75145 WT25     204      MECN     H11      HGA3     0.090000        1.0080           0
     75146 WT25     204      MECN     H12      HGA3     0.090000        1.0080           0
     75147 WT25     204      MECN     H13      HGA3     0.090000        1.0080           0
     75148 WT25     204      MECN     C2       CG1N1    0.360000       12.0110           0
     75149 WT25     204      MECN     N3       NG1T1   -0.460000       14.0070           0
     75150 WT25     207      MECN     C1       CG331   -0.170000       12.0110           0
     75151 WT25     207      MECN     H11      HGA3     0.090000        1.0080           0
     75152 WT25     207      MECN     H12      HGA3     0.090000        1.0080           0
     75153 WT25     207      MECN     H13      HGA3     0.090000        1.0080           0
     75154 WT25     207      MECN     C2       CG1N1    0.360000       12.0110           0
     75155 WT25     207      MECN     N3       NG1T1   -0.460000       14.0070           0
     75156 WT25     208      MECN     C1       CG331   -0.170000       12.0110           0
     75157 WT25     208      MECN     H11      HGA3     0.090000        1.0080           0
     75158 WT25     208      MECN     H12      HGA3     0.090000        1.0080           0
     75159 WT25     208      MECN     H13      HGA3     0.090000        1.0080           0
     75160 WT25     208      MECN     C2       CG1N1    0.360000       12.0110           0
     75161 WT25     208      MECN     N3       NG1T1   -0.460000       14.0070           0
     75162 WT25     209      MECN     C1       CG331   -0.170000       12.0110           0
     75163 WT25     209      MECN     H11      HGA3     0.090000        1.0080           0
     75164 WT25     209      MECN     H12      HGA3     0.090000        1.0080           0
     75165 WT25     209      MECN     H13      HGA3     0.090000        1.0080           0
     75166 WT25     209      MECN     C2       CG1N1    0.360000       12.0110           0
     75167 WT25     209      MECN     N3       NG1T1   -0.460000       14.0070           0
     75168 WT25     210      MECN     C1       CG331   -0.170000       12.0110           0
     75169 WT25     210      MECN     H11      HGA3     0.090000        1.0080           0
     75170 WT25     210      MECN     H12      HGA3     0.090000        1.0080           0
     75171 WT25     210      MECN     H13      HGA3     0.090000        1.0080           0
     75172 WT25     210      MECN     C2       CG1N1    0.360000       12.0110           0
     75173 WT25     210      MECN     N3       NG1T1   -0.460000       14.0070           0
     75174 WT25     219      MECN     C1       CG331   -0.170000       12.0110           0
     75175 WT25     219      MECN     H11      HGA3     0.090000        1.0080           0
     75176 WT25     219      MECN     H12      HGA3     0.090000        1.0080           0
     75177 WT25     219      MECN     H13      HGA3     0.090000        1.0080           0
     75178 WT25     219      MECN     C2       CG1N1    0.360000       12.0110           0
     75179 WT25     219      MECN     N3       NG1T1   -0.460000       14.0070           0
     75180 WT25     221      MECN     C1       CG331   -0.170000       12.0110           0
     75181 WT25     221      MECN     H11      HGA3     0.090000        1.0080           0
     75182 WT25     221      MECN     H12      HGA3     0.090000        1.0080           0
     75183 WT25     221      MECN     H13      HGA3     0.090000        1.0080           0
     75184 WT25     221      MECN     C2       CG1N1    0.360000       12.0110           0
     75185 WT25     221      MECN     N3       NG1T1   -0.460000       14.0070           0
     75186 WT25     225      MECN     C1       CG331   -0.170000       12.0110           0
     75187 WT25     225      MECN     H11      HGA3     0.090000        1.0080           0
     75188 WT25     225      MECN     H12      HGA3     0.090000        1.0080           0
     75189 WT25     225      MECN     H13      HGA3     0.090000        1.0080           0
     75190 WT25     225      MECN     C2       CG1N1    0.360000       12.0110           0
     75191 WT25     225      MECN     N3       NG1T1   -0.460000       14.0070           0
     75192 WT25     230      MECN     C1       CG331   -0.170000       12.0110           0
     75193 WT25     230      MECN     H11      HGA3     0.090000        1.0080           0
     75194 WT25     230      MECN     H12      HGA3     0.090000        1.0080           0
     75195 WT25     230      MECN     H13      HGA3     0.090000        1.0080           0
     75196 WT25     230      MECN     C2       CG1N1    0.360000       12.0110           0
     75197 WT25     230      MECN     N3       NG1T1   -0.460000       14.0070           0
     75198 WT25     233      MECN     C1       CG331   -0.170000       12.0110           0
     75199 WT25     233      MECN     H11      HGA3     0.090000        1.0080           0
     75200 WT25     233      MECN     H12      HGA3     0.090000        1.0080           0
     75201 WT25     233      MECN     H13      HGA3     0.090000        1.0080           0
     75202 WT25     233      MECN     C2       CG1N1    0.360000       12.0110           0
     75203 WT25     233      MECN     N3       NG1T1   -0.460000       14.0070           0
     75204 WT25     241      MECN     C1       CG331   -0.170000       12.0110           0
     75205 WT25     241      MECN     H11      HGA3     0.090000        1.0080           0
     75206 WT25     241      MECN     H12      HGA3     0.090000        1.0080           0
     75207 WT25     241      MECN     H13      HGA3     0.090000        1.0080           0
     75208 WT25     241      MECN     C2       CG1N1    0.360000       12.0110           0
     75209 WT25     241      MECN     N3       NG1T1   -0.460000       14.0070           0
     75210 WT25     246      MECN     C1       CG331   -0.170000       12.0110           0
     75211 WT25     246      MECN     H11      HGA3     0.090000        1.0080           0
     75212 WT25     246      MECN     H12      HGA3     0.090000        1.0080           0
     75213 WT25     246      MECN     H13      HGA3     0.090000        1.0080           0
     75214 WT25     246      MECN     C2       CG1N1    0.360000       12.0110           0
     75215 WT25     246      MECN     N3       NG1T1   -0.460000       14.0070           0
     75216 WT25     247      MECN     C1       CG331   -0.170000       12.0110           0
     75217 WT25     247      MECN     H11      HGA3     0.090000        1.0080           0
     75218 WT25     247      MECN     H12      HGA3     0.090000        1.0080           0
     75219 WT25     247      MECN     H13      HGA3     0.090000        1.0080           0
     75220 WT25     247      MECN     C2       CG1N1    0.360000       12.0110           0
     75221 WT25     247      MECN     N3       NG1T1   -0.460000       14.0070           0
     75222 WT25     251      MECN     C1       CG331   -0.170000       12.0110           0
     75223 WT25     251      MECN     H11      HGA3     0.090000        1.0080           0
     75224 WT25     251      MECN     H12      HGA3     0.090000        1.0080           0
     75225 WT25     251      MECN     H13      HGA3     0.090000        1.0080           0
     75226 WT25     251      MECN     C2       CG1N1    0.360000       12.0110           0
     75227 WT25     251      MECN     N3       NG1T1   -0.460000       14.0070           0
     75228 WT25     253      MECN     C1       CG331   -0.170000       12.0110           0
     75229 WT25     253      MECN     H11      HGA3     0.090000        1.0080           0
     75230 WT25     253      MECN     H12      HGA3     0.090000        1.0080           0
     75231 WT25     253      MECN     H13      HGA3     0.090000        1.0080           0
     75232 WT25     253      MECN     C2       CG1N1    0.360000       12.0110           0
     75233 WT25     253      MECN     N3       NG1T1   -0.460000       14.0070           0
     75234 WT25     256      MECN     C1       CG331   -0.170000       12.0110           0
     75235 WT25     256      MECN     H11      HGA3     0.090000        1.0080           0
     75236 WT25     256      MECN     H12      HGA3     0.090000        1.0080           0
     75237 WT25     256      MECN     H13      HGA3     0.090000        1.0080           0
     75238 WT25     256      MECN     C2       CG1N1    0.360000       12.0110           0
     75239 WT25     256      MECN     N3       NG1T1   -0.460000       14.0070           0
     75240 WT25     260      MECN     C1       CG331   -0.170000       12.0110           0
     75241 WT25     260      MECN     H11      HGA3     0.090000        1.0080           0
     75242 WT25     260      MECN     H12      HGA3     0.090000        1.0080           0
     75243 WT25     260      MECN     H13      HGA3     0.090000        1.0080           0
     75244 WT25     260      MECN     C2       CG1N1    0.360000       12.0110           0
     75245 WT25     260      MECN     N3       NG1T1   -0.460000       14.0070           0
     75246 WT25     262      MECN     C1       CG331   -0.170000       12.0110           0
     75247 WT25     262      MECN     H11      HGA3     0.090000        1.0080           0
     75248 WT25     262      MECN     H12      HGA3     0.090000        1.0080           0
     75249 WT25     262      MECN     H13      HGA3     0.090000        1.0080           0
     75250 WT25     262      MECN     C2       CG1N1    0.360000       12.0110           0
     75251 WT25     262      MECN     N3       NG1T1   -0.460000       14.0070           0
     75252 WT25     265      MECN     C1       CG331   -0.170000       12.0110           0
     75253 WT25     265      MECN     H11      HGA3     0.090000        1.0080           0
     75254 WT25     265      MECN     H12      HGA3     0.090000        1.0080           0
     75255 WT25     265      MECN     H13      HGA3     0.090000        1.0080           0
     75256 WT25     265      MECN     C2       CG1N1    0.360000       12.0110           0
     75257 WT25     265      MECN     N3       NG1T1   -0.460000       14.0070           0
     75258 WT25     266      MECN     C1       CG331   -0.170000       12.0110           0
     75259 WT25     266      MECN     H11      HGA3     0.090000        1.0080           0
     75260 WT25     266      MECN     H12      HGA3     0.090000        1.0080           0
     75261 WT25     266      MECN     H13      HGA3     0.090000        1.0080           0
     75262 WT25     266      MECN     C2       CG1N1    0.360000       12.0110           0
     75263 WT25     266      MECN     N3       NG1T1   -0.460000       14.0070           0
     75264 WT25     271      MECN     C1       CG331   -0.170000       12.0110           0
     75265 WT25     271      MECN     H11      HGA3     0.090000        1.0080           0
     75266 WT25     271      MECN     H12      HGA3     0.090000        1.0080           0
     75267 WT25     271      MECN     H13      HGA3     0.090000        1.0080           0
     75268 WT25     271      MECN     C2       CG1N1    0.360000       12.0110           0
     75269 WT25     271      MECN     N3       NG1T1   -0.460000       14.0070           0
     75270 WT25     272      MECN     C1       CG331   -0.170000       12.0110           0
     75271 WT25     272      MECN     H11      HGA3     0.090000        1.0080           0
     75272 WT25     272      MECN     H12      HGA3     0.090000        1.0080           0
     75273 WT25     272      MECN     H13      HGA3     0.090000        1.0080           0
     75274 WT25     272      MECN     C2       CG1N1    0.360000       12.0110           0
     75275 WT25     272      MECN     N3       NG1T1   -0.460000       14.0070           0
     75276 WT25     275      MECN     C1       CG331   -0.170000       12.0110           0
     75277 WT25     275      MECN     H11      HGA3     0.090000        1.0080           0
     75278 WT25     275      MECN     H12      HGA3     0.090000        1.0080           0
     75279 WT25     275      MECN     H13      HGA3     0.090000        1.0080           0
     75280 WT25     275      MECN     C2       CG1N1    0.360000       12.0110           0
     75281 WT25     275      MECN     N3       NG1T1   -0.460000       14.0070           0
     75282 WT25     282      MECN     C1       CG331   -0.170000       12.0110           0
     75283 WT25     282      MECN     H11      HGA3     0.090000        1.0080           0
     75284 WT25     282      MECN     H12      HGA3     0.090000        1.0080           0
     75285 WT25     282      MECN     H13      HGA3     0.090000        1.0080           0
     75286 WT25     282      MECN     C2       CG1N1    0.360000       12.0110           0
     75287 WT25     282      MECN     N3       NG1T1   -0.460000       14.0070           0
     75288 WT25     285      MECN     C1       CG331   -0.170000       12.0110           0
     75289 WT25     285      MECN     H11      HGA3     0.090000        1.0080           0
     75290 WT25     285      MECN     H12      HGA3     0.090000        1.0080           0
     75291 WT25     285      MECN     H13      HGA3     0.090000        1.0080           0
     75292 WT25     285      MECN     C2       CG1N1    0.360000       12.0110           0
     75293 WT25     285      MECN     N3       NG1T1   -0.460000       14.0070           0
     75294 WT25     290      MECN     C1       CG331   -0.170000       12.0110           0
     75295 WT25     290      MECN     H11      HGA3     0.090000        1.0080           0
     75296 WT25     290      MECN     H12      HGA3     0.090000        1.0080           0
     75297 WT25     290      MECN     H13      HGA3     0.090000        1.0080           0
     75298 WT25     290      MECN     C2       CG1N1    0.360000       12.0110           0
     75299 WT25     290      MECN     N3       NG1T1   -0.460000       14.0070           0
     75300 WT25     295      MECN     C1       CG331   -0.170000       12.0110           0
     75301 WT25     295      MECN     H11      HGA3     0.090000        1.0080           0
     75302 WT25     295      MECN     H12      HGA3     0.090000        1.0080           0
     75303 WT25     295      MECN     H13      HGA3     0.090000        1.0080           0
     75304 WT25     295      MECN     C2       CG1N1    0.360000       12.0110           0
     75305 WT25     295      MECN     N3       NG1T1   -0.460000       14.0070           0
     75306 WT25     297      MECN     C1       CG331   -0.170000       12.0110           0
     75307 WT25     297      MECN     H11      HGA3     0.090000        1.0080           0
     75308 WT25     297      MECN     H12      HGA3     0.090000        1.0080           0
     75309 WT25     297      MECN     H13      HGA3     0.090000        1.0080           0
     75310 WT25     297      MECN     C2       CG1N1    0.360000       12.0110           0
     75311 WT25     297      MECN     N3       NG1T1   -0.460000       14.0070           0
     75312 WT25     300      MECN     C1       CG331   -0.170000       12.0110           0
     75313 WT25     300      MECN     H11      HGA3     0.090000        1.0080           0
     75314 WT25     300      MECN     H12      HGA3     0.090000        1.0080           0
     75315 WT25     300      MECN     H13      HGA3     0.090000        1.0080           0
     75316 WT25     300      MECN     C2       CG1N1    0.360000       12.0110           0
     75317 WT25     300      MECN     N3       NG1T1   -0.460000       14.0070           0
     75318 WT25     301      MECN     C1       CG331   -0.170000       12.0110           0
     75319 WT25     301      MECN     H11      HGA3     0.090000        1.0080           0
     75320 WT25     301      MECN     H12      HGA3     0.090000        1.0080           0
     75321 WT25     301      MECN     H13      HGA3     0.090000        1.0080           0
     75322 WT25     301      MECN     C2       CG1N1    0.360000       12.0110           0
     75323 WT25     301      MECN     N3       NG1T1   -0.460000       14.0070           0
     75324 WT25     302      MECN     C1       CG331   -0.170000       12.0110           0
     75325 WT25     302      MECN     H11      HGA3     0.090000        1.0080           0
     75326 WT25     302      MECN     H12      HGA3     0.090000        1.0080           0
     75327 WT25     302      MECN     H13      HGA3     0.090000        1.0080           0
     75328 WT25     302      MECN     C2       CG1N1    0.360000       12.0110           0
     75329 WT25     302      MECN     N3       NG1T1   -0.460000       14.0070           0
     75330 WT25     303      MECN     C1       CG331   -0.170000       12.0110           0
     75331 WT25     303      MECN     H11      HGA3     0.090000        1.0080           0
     75332 WT25     303      MECN     H12      HGA3     0.090000        1.0080           0
     75333 WT25     303      MECN     H13      HGA3     0.090000        1.0080           0
     75334 WT25     303      MECN     C2       CG1N1    0.360000       12.0110           0
     75335 WT25     303      MECN     N3       NG1T1   -0.460000       14.0070           0
     75336 WT25     304      MECN     C1       CG331   -0.170000       12.0110           0
     75337 WT25     304      MECN     H11      HGA3     0.090000        1.0080           0
     75338 WT25     304      MECN     H12      HGA3     0.090000        1.0080           0
     75339 WT25     304      MECN     H13      HGA3     0.090000        1.0080           0
     75340 WT25     304      MECN     C2       CG1N1    0.360000       12.0110           0
     75341 WT25     304      MECN     N3       NG1T1   -0.460000       14.0070           0
     75342 WT25     308      MECN     C1       CG331   -0.170000       12.0110           0
     75343 WT25     308      MECN     H11      HGA3     0.090000        1.0080           0
     75344 WT25     308      MECN     H12      HGA3     0.090000        1.0080           0
     75345 WT25     308      MECN     H13      HGA3     0.090000        1.0080           0
     75346 WT25     308      MECN     C2       CG1N1    0.360000       12.0110           0
     75347 WT25     308      MECN     N3       NG1T1   -0.460000       14.0070           0
     75348 WT25     311      MECN     C1       CG331   -0.170000       12.0110           0
     75349 WT25     311      MECN     H11      HGA3     0.090000        1.0080           0
     75350 WT25     311      MECN     H12      HGA3     0.090000        1.0080           0
     75351 WT25     311      MECN     H13      HGA3     0.090000        1.0080           0
     75352 WT25     311      MECN     C2       CG1N1    0.360000       12.0110           0
     75353 WT25     311      MECN     N3       NG1T1   -0.460000       14.0070           0
     75354 WT25     312      MECN     C1       CG331   -0.170000       12.0110           0
     75355 WT25     312      MECN     H11      HGA3     0.090000        1.0080           0
     75356 WT25     312      MECN     H12      HGA3     0.090000        1.0080           0
     75357 WT25     312      MECN     H13      HGA3     0.090000        1.0080           0
     75358 WT25     312      MECN     C2       CG1N1    0.360000       12.0110           0
     75359 WT25     312      MECN     N3       NG1T1   -0.460000       14.0070           0
     75360 WT25     313      MECN     C1       CG331   -0.170000       12.0110           0
     75361 WT25     313      MECN     H11      HGA3     0.090000        1.0080           0
     75362 WT25     313      MECN     H12      HGA3     0.090000        1.0080           0
     75363 WT25     313      MECN     H13      HGA3     0.090000        1.0080           0
     75364 WT25     313      MECN     C2       CG1N1    0.360000       12.0110           0
     75365 WT25     313      MECN     N3       NG1T1   -0.460000       14.0070           0
     75366 WT25     315      MECN     C1       CG331   -0.170000       12.0110           0
     75367 WT25     315      MECN     H11      HGA3     0.090000        1.0080           0
     75368 WT25     315      MECN     H12      HGA3     0.090000        1.0080           0
     75369 WT25     315      MECN     H13      HGA3     0.090000        1.0080           0
     75370 WT25     315      MECN     C2       CG1N1    0.360000       12.0110           0
     75371 WT25     315      MECN     N3       NG1T1   -0.460000       14.0070           0
     75372 WT25     325      MECN     C1       CG331   -0.170000       12.0110           0
     75373 WT25     325      MECN     H11      HGA3     0.090000        1.0080           0
     75374 WT25     325      MECN     H12      HGA3     0.090000        1.0080           0
     75375 WT25     325      MECN     H13      HGA3     0.090000        1.0080           0
     75376 WT25     325      MECN     C2       CG1N1    0.360000       12.0110           0
     75377 WT25     325      MECN     N3       NG1T1   -0.460000       14.0070           0
     75378 WT25     332      MECN     C1       CG331   -0.170000       12.0110           0
     75379 WT25     332      MECN     H11      HGA3     0.090000        1.0080           0
     75380 WT25     332      MECN     H12      HGA3     0.090000        1.0080           0
     75381 WT25     332      MECN     H13      HGA3     0.090000        1.0080           0
     75382 WT25     332      MECN     C2       CG1N1    0.360000       12.0110           0
     75383 WT25     332      MECN     N3       NG1T1   -0.460000       14.0070           0
     75384 WT25     335      MECN     C1       CG331   -0.170000       12.0110           0
     75385 WT25     335      MECN     H11      HGA3     0.090000        1.0080           0
     75386 WT25     335      MECN     H12      HGA3     0.090000        1.0080           0
     75387 WT25     335      MECN     H13      HGA3     0.090000        1.0080           0
     75388 WT25     335      MECN     C2       CG1N1    0.360000       12.0110           0
     75389 WT25     335      MECN     N3       NG1T1   -0.460000       14.0070           0
     75390 WT25     336      MECN     C1       CG331   -0.170000       12.0110           0
     75391 WT25     336      MECN     H11      HGA3     0.090000        1.0080           0
     75392 WT25     336      MECN     H12      HGA3     0.090000        1.0080           0
     75393 WT25     336      MECN     H13      HGA3     0.090000        1.0080           0
     75394 WT25     336      MECN     C2       CG1N1    0.360000       12.0110           0
     75395 WT25     336      MECN     N3       NG1T1   -0.460000       14.0070           0
     75396 WT25     339      MECN     C1       CG331   -0.170000       12.0110           0
     75397 WT25     339      MECN     H11      HGA3     0.090000        1.0080           0
     75398 WT25     339      MECN     H12      HGA3     0.090000        1.0080           0
     75399 WT25     339      MECN     H13      HGA3     0.090000        1.0080           0
     75400 WT25     339      MECN     C2       CG1N1    0.360000       12.0110           0
     75401 WT25     339      MECN     N3       NG1T1   -0.460000       14.0070           0
     75402 WT25     343      MECN     C1       CG331   -0.170000       12.0110           0
     75403 WT25     343      MECN     H11      HGA3     0.090000        1.0080           0
     75404 WT25     343      MECN     H12      HGA3     0.090000        1.0080           0
     75405 WT25     343      MECN     H13      HGA3     0.090000        1.0080           0
     75406 WT25     343      MECN     C2       CG1N1    0.360000       12.0110           0
     75407 WT25     343      MECN     N3       NG1T1   -0.460000       14.0070           0
     75408 WT25     344      MECN     C1       CG331   -0.170000       12.0110           0
     75409 WT25     344      MECN     H11      HGA3     0.090000        1.0080           0
     75410 WT25     344      MECN     H12      HGA3     0.090000        1.0080           0
     75411 WT25     344      MECN     H13      HGA3     0.090000        1.0080           0
     75412 WT25     344      MECN     C2       CG1N1    0.360000       12.0110           0
     75413 WT25     344      MECN     N3       NG1T1   -0.460000       14.0070           0
     75414 WT25     346      MECN     C1       CG331   -0.170000       12.0110           0
     75415 WT25     346      MECN     H11      HGA3     0.090000        1.0080           0
     75416 WT25     346      MECN     H12      HGA3     0.090000        1.0080           0
     75417 WT25     346      MECN     H13      HGA3     0.090000        1.0080           0
     75418 WT25     346      MECN     C2       CG1N1    0.360000       12.0110           0
     75419 WT25     346      MECN     N3       NG1T1   -0.460000       14.0070           0
     75420 WT25     360      MECN     C1       CG331   -0.170000       12.0110           0
     75421 WT25     360      MECN     H11      HGA3     0.090000        1.0080           0
     75422 WT25     360      MECN     H12      HGA3     0.090000        1.0080           0
     75423 WT25     360      MECN     H13      HGA3     0.090000        1.0080           0
     75424 WT25     360      MECN     C2       CG1N1    0.360000       12.0110           0
     75425 WT25     360      MECN     N3       NG1T1   -0.460000       14.0070           0
     75426 WT25     366      MECN     C1       CG331   -0.170000       12.0110           0
     75427 WT25     366      MECN     H11      HGA3     0.090000        1.0080           0
     75428 WT25     366      MECN     H12      HGA3     0.090000        1.0080           0
     75429 WT25     366      MECN     H13      HGA3     0.090000        1.0080           0
     75430 WT25     366      MECN     C2       CG1N1    0.360000       12.0110           0
     75431 WT25     366      MECN     N3       NG1T1   -0.460000       14.0070           0
     75432 WT25     374      MECN     C1       CG331   -0.170000       12.0110           0
     75433 WT25     374      MECN     H11      HGA3     0.090000        1.0080           0
     75434 WT25     374      MECN     H12      HGA3     0.090000        1.0080           0
     75435 WT25     374      MECN     H13      HGA3     0.090000        1.0080           0
     75436 WT25     374      MECN     C2       CG1N1    0.360000       12.0110           0
     75437 WT25     374      MECN     N3       NG1T1   -0.460000       14.0070           0
     75438 WT25     376      MECN     C1       CG331   -0.170000       12.0110           0
     75439 WT25     376      MECN     H11      HGA3     0.090000        1.0080           0
     75440 WT25     376      MECN     H12      HGA3     0.090000        1.0080           0
     75441 WT25     376      MECN     H13      HGA3     0.090000        1.0080           0
     75442 WT25     376      MECN     C2       CG1N1    0.360000       12.0110           0
     75443 WT25     376      MECN     N3       NG1T1   -0.460000       14.0070           0
     75444 WT25     378      MECN     C1       CG331   -0.170000       12.0110           0
     75445 WT25     378      MECN     H11      HGA3     0.090000        1.0080           0
     75446 WT25     378      MECN     H12      HGA3     0.090000        1.0080           0
     75447 WT25     378      MECN     H13      HGA3     0.090000        1.0080           0
     75448 WT25     378      MECN     C2       CG1N1    0.360000       12.0110           0
     75449 WT25     378      MECN     N3       NG1T1   -0.460000       14.0070           0
     75450 WT25     381      MECN     C1       CG331   -0.170000       12.0110           0
     75451 WT25     381      MECN     H11      HGA3     0.090000        1.0080           0
     75452 WT25     381      MECN     H12      HGA3     0.090000        1.0080           0
     75453 WT25     381      MECN     H13      HGA3     0.090000        1.0080           0
     75454 WT25     381      MECN     C2       CG1N1    0.360000       12.0110           0
     75455 WT25     381      MECN     N3       NG1T1   -0.460000       14.0070           0
     75456 WT25     383      MECN     C1       CG331   -0.170000       12.0110           0
     75457 WT25     383      MECN     H11      HGA3     0.090000        1.0080           0
     75458 WT25     383      MECN     H12      HGA3     0.090000        1.0080           0
     75459 WT25     383      MECN     H13      HGA3     0.090000        1.0080           0
     75460 WT25     383      MECN     C2       CG1N1    0.360000       12.0110           0
     75461 WT25     383      MECN     N3       NG1T1   -0.460000       14.0070           0
     75462 WT25     384      MECN     C1       CG331   -0.170000       12.0110           0
     75463 WT25     384      MECN     H11      HGA3     0.090000        1.0080           0
     75464 WT25     384      MECN     H12      HGA3     0.090000        1.0080           0
     75465 WT25     384      MECN     H13      HGA3     0.090000        1.0080           0
     75466 WT25     384      MECN     C2       CG1N1    0.360000       12.0110           0
     75467 WT25     384      MECN     N3       NG1T1   -0.460000       14.0070           0
     75468 WT25     386      MECN     C1       CG331   -0.170000       12.0110           0
     75469 WT25     386      MECN     H11      HGA3     0.090000        1.0080           0
     75470 WT25     386      MECN     H12      HGA3     0.090000        1.0080           0
     75471 WT25     386      MECN     H13      HGA3     0.090000        1.0080           0
     75472 WT25     386      MECN     C2       CG1N1    0.360000       12.0110           0
     75473 WT25     386      MECN     N3       NG1T1   -0.460000       14.0070           0
     75474 WT25     391      MECN     C1       CG331   -0.170000       12.0110           0
     75475 WT25     391      MECN     H11      HGA3     0.090000        1.0080           0
     75476 WT25     391      MECN     H12      HGA3     0.090000        1.0080           0
     75477 WT25     391      MECN     H13      HGA3     0.090000        1.0080           0
     75478 WT25     391      MECN     C2       CG1N1    0.360000       12.0110           0
     75479 WT25     391      MECN     N3       NG1T1   -0.460000       14.0070           0
     75480 WT25     395      MECN     C1       CG331   -0.170000       12.0110           0
     75481 WT25     395      MECN     H11      HGA3     0.090000        1.0080           0
     75482 WT25     395      MECN     H12      HGA3     0.090000        1.0080           0
     75483 WT25     395      MECN     H13      HGA3     0.090000        1.0080           0
     75484 WT25     395      MECN     C2       CG1N1    0.360000       12.0110           0
     75485 WT25     395      MECN     N3       NG1T1   -0.460000       14.0070           0
     75486 WT25     400      MECN     C1       CG331   -0.170000       12.0110           0
     75487 WT25     400      MECN     H11      HGA3     0.090000        1.0080           0
     75488 WT25     400      MECN     H12      HGA3     0.090000        1.0080           0
     75489 WT25     400      MECN     H13      HGA3     0.090000        1.0080           0
     75490 WT25     400      MECN     C2       CG1N1    0.360000       12.0110           0
     75491 WT25     400      MECN     N3       NG1T1   -0.460000       14.0070           0
     75492 WT25     404      MECN     C1       CG331   -0.170000       12.0110           0
     75493 WT25     404      MECN     H11      HGA3     0.090000        1.0080           0
     75494 WT25     404      MECN     H12      HGA3     0.090000        1.0080           0
     75495 WT25     404      MECN     H13      HGA3     0.090000        1.0080           0
     75496 WT25     404      MECN     C2       CG1N1    0.360000       12.0110           0
     75497 WT25     404      MECN     N3       NG1T1   -0.460000       14.0070           0
     75498 WT25     407      MECN     C1       CG331   -0.170000       12.0110           0
     75499 WT25     407      MECN     H11      HGA3     0.090000        1.0080           0
     75500 WT25     407      MECN     H12      HGA3     0.090000        1.0080           0
     75501 WT25     407      MECN     H13      HGA3     0.090000        1.0080           0
     75502 WT25     407      MECN     C2       CG1N1    0.360000       12.0110           0
     75503 WT25     407      MECN     N3       NG1T1   -0.460000       14.0070           0
     75504 WT25     412      MECN     C1       CG331   -0.170000       12.0110           0
     75505 WT25     412      MECN     H11      HGA3     0.090000        1.0080           0
     75506 WT25     412      MECN     H12      HGA3     0.090000        1.0080           0
     75507 WT25     412      MECN     H13      HGA3     0.090000        1.0080           0
     75508 WT25     412      MECN     C2       CG1N1    0.360000       12.0110           0
     75509 WT25     412      MECN     N3       NG1T1   -0.460000       14.0070           0
     75510 WT25     414      MECN     C1       CG331   -0.170000       12.0110           0
     75511 WT25     414      MECN     H11      HGA3     0.090000        1.0080           0
     75512 WT25     414      MECN     H12      HGA3     0.090000        1.0080           0
     75513 WT25     414      MECN     H13      HGA3     0.090000        1.0080           0
     75514 WT25     414      MECN     C2       CG1N1    0.360000       12.0110           0
     75515 WT25     414      MECN     N3       NG1T1   -0.460000       14.0070           0
     75516 WT25     421      MECN     C1       CG331   -0.170000       12.0110           0
     75517 WT25     421      MECN     H11      HGA3     0.090000        1.0080           0
     75518 WT25     421      MECN     H12      HGA3     0.090000        1.0080           0
     75519 WT25     421      MECN     H13      HGA3     0.090000        1.0080           0
     75520 WT25     421      MECN     C2       CG1N1    0.360000       12.0110           0
     75521 WT25     421      MECN     N3       NG1T1   -0.460000       14.0070           0
     75522 WT25     423      MECN     C1       CG331   -0.170000       12.0110           0
     75523 WT25     423      MECN     H11      HGA3     0.090000        1.0080           0
     75524 WT25     423      MECN     H12      HGA3     0.090000        1.0080           0
     75525 WT25     423      MECN     H13      HGA3     0.090000        1.0080           0
     75526 WT25     423      MECN     C2       CG1N1    0.360000       12.0110           0
     75527 WT25     423      MECN     N3       NG1T1   -0.460000       14.0070           0
     75528 WT25     432      MECN     C1       CG331   -0.170000       12.0110           0
     75529 WT25     432      MECN     H11      HGA3     0.090000        1.0080           0
     75530 WT25     432      MECN     H12      HGA3     0.090000        1.0080           0
     75531 WT25     432      MECN     H13      HGA3     0.090000        1.0080           0
     75532 WT25     432      MECN     C2       CG1N1    0.360000       12.0110           0
     75533 WT25     432      MECN     N3       NG1T1   -0.460000       14.0070           0
     75534 WT25     433      MECN     C1       CG331   -0.170000       12.0110           0
     75535 WT25     433      MECN     H11      HGA3     0.090000        1.0080           0
     75536 WT25     433      MECN     H12      HGA3     0.090000        1.0080           0
     75537 WT25     433      MECN     H13      HGA3     0.090000        1.0080           0
     75538 WT25     433      MECN     C2       CG1N1    0.360000       12.0110           0
     75539 WT25     433      MECN     N3       NG1T1   -0.460000       14.0070           0
     75540 WT25     437      MECN     C1       CG331   -0.170000       12.0110           0
     75541 WT25     437      MECN     H11      HGA3     0.090000        1.0080           0
     75542 WT25     437      MECN     H12      HGA3     0.090000        1.0080           0
     75543 WT25     437      MECN     H13      HGA3     0.090000        1.0080           0
     75544 WT25     437      MECN     C2       CG1N1    0.360000       12.0110           0
     75545 WT25     437      MECN     N3       NG1T1   -0.460000       14.0070           0
     75546 WT25     438      MECN     C1       CG331   -0.170000       12.0110           0
     75547 WT25     438      MECN     H11      HGA3     0.090000        1.0080           0
     75548 WT25     438      MECN     H12      HGA3     0.090000        1.0080           0
     75549 WT25     438      MECN     H13      HGA3     0.090000        1.0080           0
     75550 WT25     438      MECN     C2       CG1N1    0.360000       12.0110           0
     75551 WT25     438      MECN     N3       NG1T1   -0.460000       14.0070           0
     75552 WT25     439      MECN     C1       CG331   -0.170000       12.0110           0
     75553 WT25     439      MECN     H11      HGA3     0.090000        1.0080           0
     75554 WT25     439      MECN     H12      HGA3     0.090000        1.0080           0
     75555 WT25     439      MECN     H13      HGA3     0.090000        1.0080           0
     75556 WT25     439      MECN     C2       CG1N1    0.360000       12.0110           0
     75557 WT25     439      MECN     N3       NG1T1   -0.460000       14.0070           0
     75558 WT25     443      MECN     C1       CG331   -0.170000       12.0110           0
     75559 WT25     443      MECN     H11      HGA3     0.090000        1.0080           0
     75560 WT25     443      MECN     H12      HGA3     0.090000        1.0080           0
     75561 WT25     443      MECN     H13      HGA3     0.090000        1.0080           0
     75562 WT25     443      MECN     C2       CG1N1    0.360000       12.0110           0
     75563 WT25     443      MECN     N3       NG1T1   -0.460000       14.0070           0
     75564 WT25     446      MECN     C1       CG331   -0.170000       12.0110           0
     75565 WT25     446      MECN     H11      HGA3     0.090000        1.0080           0
     75566 WT25     446      MECN     H12      HGA3     0.090000        1.0080           0
     75567 WT25     446      MECN     H13      HGA3     0.090000        1.0080           0
     75568 WT25     446      MECN     C2       CG1N1    0.360000       12.0110           0
     75569 WT25     446      MECN     N3       NG1T1   -0.460000       14.0070           0
     75570 WT25     449      MECN     C1       CG331   -0.170000       12.0110           0
     75571 WT25     449      MECN     H11      HGA3     0.090000        1.0080           0
     75572 WT25     449      MECN     H12      HGA3     0.090000        1.0080           0
     75573 WT25     449      MECN     H13      HGA3     0.090000        1.0080           0
     75574 WT25     449      MECN     C2       CG1N1    0.360000       12.0110           0
     75575 WT25     449      MECN     N3       NG1T1   -0.460000       14.0070           0
     75576 WT25     452      MECN     C1       CG331   -0.170000       12.0110           0
     75577 WT25     452      MECN     H11      HGA3     0.090000        1.0080           0
     75578 WT25     452      MECN     H12      HGA3     0.090000        1.0080           0
     75579 WT25     452      MECN     H13      HGA3     0.090000        1.0080           0
     75580 WT25     452      MECN     C2       CG1N1    0.360000       12.0110           0
     75581 WT25     452      MECN     N3       NG1T1   -0.460000       14.0070           0
     75582 WT25     453      MECN     C1       CG331   -0.170000       12.0110           0
     75583 WT25     453      MECN     H11      HGA3     0.090000        1.0080           0
     75584 WT25     453      MECN     H12      HGA3     0.090000        1.0080           0
     75585 WT25     453      MECN     H13      HGA3     0.090000        1.0080           0
     75586 WT25     453      MECN     C2       CG1N1    0.360000       12.0110           0
     75587 WT25     453      MECN     N3       NG1T1   -0.460000       14.0070           0
     75588 WT25     456      MECN     C1       CG331   -0.170000       12.0110           0
     75589 WT25     456      MECN     H11      HGA3     0.090000        1.0080           0
     75590 WT25     456      MECN     H12      HGA3     0.090000        1.0080           0
     75591 WT25     456      MECN     H13      HGA3     0.090000        1.0080           0
     75592 WT25     456      MECN     C2       CG1N1    0.360000       12.0110           0
     75593 WT25     456      MECN     N3       NG1T1   -0.460000       14.0070           0
     75594 WT25     464      MECN     C1       CG331   -0.170000       12.0110           0
     75595 WT25     464      MECN     H11      HGA3     0.090000        1.0080           0
     75596 WT25     464      MECN     H12      HGA3     0.090000        1.0080           0
     75597 WT25     464      MECN     H13      HGA3     0.090000        1.0080           0
     75598 WT25     464      MECN     C2       CG1N1    0.360000       12.0110           0
     75599 WT25     464      MECN     N3       NG1T1   -0.460000       14.0070           0
     75600 WT25     474      MECN     C1       CG331   -0.170000       12.0110           0
     75601 WT25     474      MECN     H11      HGA3     0.090000        1.0080           0
     75602 WT25     474      MECN     H12      HGA3     0.090000        1.0080           0
     75603 WT25     474      MECN     H13      HGA3     0.090000        1.0080           0
     75604 WT25     474      MECN     C2       CG1N1    0.360000       12.0110           0
     75605 WT25     474      MECN     N3       NG1T1   -0.460000       14.0070           0
     75606 WT25     478      MECN     C1       CG331   -0.170000       12.0110           0
     75607 WT25     478      MECN     H11      HGA3     0.090000        1.0080           0
     75608 WT25     478      MECN     H12      HGA3     0.090000        1.0080           0
     75609 WT25     478      MECN     H13      HGA3     0.090000        1.0080           0
     75610 WT25     478      MECN     C2       CG1N1    0.360000       12.0110           0
     75611 WT25     478      MECN     N3       NG1T1   -0.460000       14.0070           0
     75612 WT25     479      MECN     C1       CG331   -0.170000       12.0110           0
     75613 WT25     479      MECN     H11      HGA3     0.090000        1.0080           0
     75614 WT25     479      MECN     H12      HGA3     0.090000        1.0080           0
     75615 WT25     479      MECN     H13      HGA3     0.090000        1.0080           0
     75616 WT25     479      MECN     C2       CG1N1    0.360000       12.0110           0
     75617 WT25     479      MECN     N3       NG1T1   -0.460000       14.0070           0
     75618 WT25     480      MECN     C1       CG331   -0.170000       12.0110           0
     75619 WT25     480      MECN     H11      HGA3     0.090000        1.0080           0
     75620 WT25     480      MECN     H12      HGA3     0.090000        1.0080           0
     75621 WT25     480      MECN     H13      HGA3     0.090000        1.0080           0
     75622 WT25     480      MECN     C2       CG1N1    0.360000       12.0110           0
     75623 WT25     480      MECN     N3       NG1T1   -0.460000       14.0070           0
     75624 WT25     481      MECN     C1       CG331   -0.170000       12.0110           0
     75625 WT25     481      MECN     H11      HGA3     0.090000        1.0080           0
     75626 WT25     481      MECN     H12      HGA3     0.090000        1.0080           0
     75627 WT25     481      MECN     H13      HGA3     0.090000        1.0080           0
     75628 WT25     481      MECN     C2       CG1N1    0.360000       12.0110           0
     75629 WT25     481      MECN     N3       NG1T1   -0.460000       14.0070           0
     75630 WT25     497      MECN     C1       CG331   -0.170000       12.0110           0
     75631 WT25     497      MECN     H11      HGA3     0.090000        1.0080           0
     75632 WT25     497      MECN     H12      HGA3     0.090000        1.0080           0
     75633 WT25     497      MECN     H13      HGA3     0.090000        1.0080           0
     75634 WT25     497      MECN     C2       CG1N1    0.360000       12.0110           0
     75635 WT25     497      MECN     N3       NG1T1   -0.460000       14.0070           0
     75636 WT25     505      MECN     C1       CG331   -0.170000       12.0110           0
     75637 WT25     505      MECN     H11      HGA3     0.090000        1.0080           0
     75638 WT25     505      MECN     H12      HGA3     0.090000        1.0080           0
     75639 WT25     505      MECN     H13      HGA3     0.090000        1.0080           0
     75640 WT25     505      MECN     C2       CG1N1    0.360000       12.0110           0
     75641 WT25     505      MECN     N3       NG1T1   -0.460000       14.0070           0
     75642 WT25     508      MECN     C1       CG331   -0.170000       12.0110           0
     75643 WT25     508      MECN     H11      HGA3     0.090000        1.0080           0
     75644 WT25     508      MECN     H12      HGA3     0.090000        1.0080           0
     75645 WT25     508      MECN     H13      HGA3     0.090000        1.0080           0
     75646 WT25     508      MECN     C2       CG1N1    0.360000       12.0110           0
     75647 WT25     508      MECN     N3       NG1T1   -0.460000       14.0070           0
     75648 WT25     510      MECN     C1       CG331   -0.170000       12.0110           0
     75649 WT25     510      MECN     H11      HGA3     0.090000        1.0080           0
     75650 WT25     510      MECN     H12      HGA3     0.090000        1.0080           0
     75651 WT25     510      MECN     H13      HGA3     0.090000        1.0080           0
     75652 WT25     510      MECN     C2       CG1N1    0.360000       12.0110           0
     75653 WT25     510      MECN     N3       NG1T1   -0.460000       14.0070           0
     75654 WT25     511      MECN     C1       CG331   -0.170000       12.0110           0
     75655 WT25     511      MECN     H11      HGA3     0.090000        1.0080           0
     75656 WT25     511      MECN     H12      HGA3     0.090000        1.0080           0
     75657 WT25     511      MECN     H13      HGA3     0.090000        1.0080           0
     75658 WT25     511      MECN     C2       CG1N1    0.360000       12.0110           0
     75659 WT25     511      MECN     N3       NG1T1   -0.460000       14.0070           0
     75660 WT25     512      MECN     C1       CG331   -0.170000       12.0110           0
     75661 WT25     512      MECN     H11      HGA3     0.090000        1.0080           0
     75662 WT25     512      MECN     H12      HGA3     0.090000        1.0080           0
     75663 WT25     512      MECN     H13      HGA3     0.090000        1.0080           0
     75664 WT25     512      MECN     C2       CG1N1    0.360000       12.0110           0
     75665 WT25     512      MECN     N3       NG1T1   -0.460000       14.0070           0
     75666 WT25     517      MECN     C1       CG331   -0.170000       12.0110           0
     75667 WT25     517      MECN     H11      HGA3     0.090000        1.0080           0
     75668 WT25     517      MECN     H12      HGA3     0.090000        1.0080           0
     75669 WT25     517      MECN     H13      HGA3     0.090000        1.0080           0
     75670 WT25     517      MECN     C2       CG1N1    0.360000       12.0110           0
     75671 WT25     517      MECN     N3       NG1T1   -0.460000       14.0070           0
     75672 WT25     518      MECN     C1       CG331   -0.170000       12.0110           0
     75673 WT25     518      MECN     H11      HGA3     0.090000        1.0080           0
     75674 WT25     518      MECN     H12      HGA3     0.090000        1.0080           0
     75675 WT25     518      MECN     H13      HGA3     0.090000        1.0080           0
     75676 WT25     518      MECN     C2       CG1N1    0.360000       12.0110           0
     75677 WT25     518      MECN     N3       NG1T1   -0.460000       14.0070           0
     75678 WT25     525      MECN     C1       CG331   -0.170000       12.0110           0
     75679 WT25     525      MECN     H11      HGA3     0.090000        1.0080           0
     75680 WT25     525      MECN     H12      HGA3     0.090000        1.0080           0
     75681 WT25     525      MECN     H13      HGA3     0.090000        1.0080           0
     75682 WT25     525      MECN     C2       CG1N1    0.360000       12.0110           0
     75683 WT25     525      MECN     N3       NG1T1   -0.460000       14.0070           0
     75684 WT25     526      MECN     C1       CG331   -0.170000       12.0110           0
     75685 WT25     526      MECN     H11      HGA3     0.090000        1.0080           0
     75686 WT25     526      MECN     H12      HGA3     0.090000        1.0080           0
     75687 WT25     526      MECN     H13      HGA3     0.090000        1.0080           0
     75688 WT25     526      MECN     C2       CG1N1    0.360000       12.0110           0
     75689 WT25     526      MECN     N3       NG1T1   -0.460000       14.0070           0
     75690 WT25     527      MECN     C1       CG331   -0.170000       12.0110           0
     75691 WT25     527      MECN     H11      HGA3     0.090000        1.0080           0
     75692 WT25     527      MECN     H12      HGA3     0.090000        1.0080           0
     75693 WT25     527      MECN     H13      HGA3     0.090000        1.0080           0
     75694 WT25     527      MECN     C2       CG1N1    0.360000       12.0110           0
     75695 WT25     527      MECN     N3       NG1T1   -0.460000       14.0070           0
     75696 WT25     528      MECN     C1       CG331   -0.170000       12.0110           0
     75697 WT25     528      MECN     H11      HGA3     0.090000        1.0080           0
     75698 WT25     528      MECN     H12      HGA3     0.090000        1.0080           0
     75699 WT25     528      MECN     H13      HGA3     0.090000        1.0080           0
     75700 WT25     528      MECN     C2       CG1N1    0.360000       12.0110           0
     75701 WT25     528      MECN     N3       NG1T1   -0.460000       14.0070           0
     75702 WT25     535      MECN     C1       CG331   -0.170000       12.0110           0
     75703 WT25     535      MECN     H11      HGA3     0.090000        1.0080           0
     75704 WT25     535      MECN     H12      HGA3     0.090000        1.0080           0
     75705 WT25     535      MECN     H13      HGA3     0.090000        1.0080           0
     75706 WT25     535      MECN     C2       CG1N1    0.360000       12.0110           0
     75707 WT25     535      MECN     N3       NG1T1   -0.460000       14.0070           0
     75708 WT25     544      MECN     C1       CG331   -0.170000       12.0110           0
     75709 WT25     544      MECN     H11      HGA3     0.090000        1.0080           0
     75710 WT25     544      MECN     H12      HGA3     0.090000        1.0080           0
     75711 WT25     544      MECN     H13      HGA3     0.090000        1.0080           0
     75712 WT25     544      MECN     C2       CG1N1    0.360000       12.0110           0
     75713 WT25     544      MECN     N3       NG1T1   -0.460000       14.0070           0
     75714 WT25     554      MECN     C1       CG331   -0.170000       12.0110           0
     75715 WT25     554      MECN     H11      HGA3     0.090000        1.0080           0
     75716 WT25     554      MECN     H12      HGA3     0.090000        1.0080           0
     75717 WT25     554      MECN     H13      HGA3     0.090000        1.0080           0
     75718 WT25     554      MECN     C2       CG1N1    0.360000       12.0110           0
     75719 WT25     554      MECN     N3       NG1T1   -0.460000       14.0070           0
     75720 WT25     556      MECN     C1       CG331   -0.170000       12.0110           0
     75721 WT25     556      MECN     H11      HGA3     0.090000        1.0080           0
     75722 WT25     556      MECN     H12      HGA3     0.090000        1.0080           0
     75723 WT25     556      MECN     H13      HGA3     0.090000        1.0080           0
     75724 WT25     556      MECN     C2       CG1N1    0.360000       12.0110           0
     75725 WT25     556      MECN     N3       NG1T1   -0.460000       14.0070           0
     75726 WT25     559      MECN     C1       CG331   -0.170000       12.0110           0
     75727 WT25     559      MECN     H11      HGA3     0.090000        1.0080           0
     75728 WT25     559      MECN     H12      HGA3     0.090000        1.0080           0
     75729 WT25     559      MECN     H13      HGA3     0.090000        1.0080           0
     75730 WT25     559      MECN     C2       CG1N1    0.360000       12.0110           0
     75731 WT25     559      MECN     N3       NG1T1   -0.460000       14.0070           0
     75732 WT25     562      MECN     C1       CG331   -0.170000       12.0110           0
     75733 WT25     562      MECN     H11      HGA3     0.090000        1.0080           0
     75734 WT25     562      MECN     H12      HGA3     0.090000        1.0080           0
     75735 WT25     562      MECN     H13      HGA3     0.090000        1.0080           0
     75736 WT25     562      MECN     C2       CG1N1    0.360000       12.0110           0
     75737 WT25     562      MECN     N3       NG1T1   -0.460000       14.0070           0
     75738 WT25     584      MECN     C1       CG331   -0.170000       12.0110           0
     75739 WT25     584      MECN     H11      HGA3     0.090000        1.0080           0
     75740 WT25     584      MECN     H12      HGA3     0.090000        1.0080           0
     75741 WT25     584      MECN     H13      HGA3     0.090000        1.0080           0
     75742 WT25     584      MECN     C2       CG1N1    0.360000       12.0110           0
     75743 WT25     584      MECN     N3       NG1T1   -0.460000       14.0070           0
     75744 WT25     585      MECN     C1       CG331   -0.170000       12.0110           0
     75745 WT25     585      MECN     H11      HGA3     0.090000        1.0080           0
     75746 WT25     585      MECN     H12      HGA3     0.090000        1.0080           0
     75747 WT25     585      MECN     H13      HGA3     0.090000        1.0080           0
     75748 WT25     585      MECN     C2       CG1N1    0.360000       12.0110           0
     75749 WT25     585      MECN     N3       NG1T1   -0.460000       14.0070           0
     75750 WT25     588      MECN     C1       CG331   -0.170000       12.0110           0
     75751 WT25     588      MECN     H11      HGA3     0.090000        1.0080           0
     75752 WT25     588      MECN     H12      HGA3     0.090000        1.0080           0
     75753 WT25     588      MECN     H13      HGA3     0.090000        1.0080           0
     75754 WT25     588      MECN     C2       CG1N1    0.360000       12.0110           0
     75755 WT25     588      MECN     N3       NG1T1   -0.460000       14.0070           0
     75756 WT25     595      MECN     C1       CG331   -0.170000       12.0110           0
     75757 WT25     595      MECN     H11      HGA3     0.090000        1.0080           0
     75758 WT25     595      MECN     H12      HGA3     0.090000        1.0080           0
     75759 WT25     595      MECN     H13      HGA3     0.090000        1.0080           0
     75760 WT25     595      MECN     C2       CG1N1    0.360000       12.0110           0
     75761 WT25     595      MECN     N3       NG1T1   -0.460000       14.0070           0
     75762 WT25     599      MECN     C1       CG331   -0.170000       12.0110           0
     75763 WT25     599      MECN     H11      HGA3     0.090000        1.0080           0
     75764 WT25     599      MECN     H12      HGA3     0.090000        1.0080           0
     75765 WT25     599      MECN     H13      HGA3     0.090000        1.0080           0
     75766 WT25     599      MECN     C2       CG1N1    0.360000       12.0110           0
     75767 WT25     599      MECN     N3       NG1T1   -0.460000       14.0070           0
     75768 WT25     601      MECN     C1       CG331   -0.170000       12.0110           0
     75769 WT25     601      MECN     H11      HGA3     0.090000        1.0080           0
     75770 WT25     601      MECN     H12      HGA3     0.090000        1.0080           0
     75771 WT25     601      MECN     H13      HGA3     0.090000        1.0080           0
     75772 WT25     601      MECN     C2       CG1N1    0.360000       12.0110           0
     75773 WT25     601      MECN     N3       NG1T1   -0.460000       14.0070           0
     75774 WT25     602      MECN     C1       CG331   -0.170000       12.0110           0
     75775 WT25     602      MECN     H11      HGA3     0.090000        1.0080           0
     75776 WT25     602      MECN     H12      HGA3     0.090000        1.0080           0
     75777 WT25     602      MECN     H13      HGA3     0.090000        1.0080           0
     75778 WT25     602      MECN     C2       CG1N1    0.360000       12.0110           0
     75779 WT25     602      MECN     N3       NG1T1   -0.460000       14.0070           0
     75780 WT25     608      MECN     C1       CG331   -0.170000       12.0110           0
     75781 WT25     608      MECN     H11      HGA3     0.090000        1.0080           0
     75782 WT25     608      MECN     H12      HGA3     0.090000        1.0080           0
     75783 WT25     608      MECN     H13      HGA3     0.090000        1.0080           0
     75784 WT25     608      MECN     C2       CG1N1    0.360000       12.0110           0
     75785 WT25     608      MECN     N3       NG1T1   -0.460000       14.0070           0
     75786 WT25     615      MECN     C1       CG331   -0.170000       12.0110           0
     75787 WT25     615      MECN     H11      HGA3     0.090000        1.0080           0
     75788 WT25     615      MECN     H12      HGA3     0.090000        1.0080           0
     75789 WT25     615      MECN     H13      HGA3     0.090000        1.0080           0
     75790 WT25     615      MECN     C2       CG1N1    0.360000       12.0110           0
     75791 WT25     615      MECN     N3       NG1T1   -0.460000       14.0070           0
     75792 WT25     617      MECN     C1       CG331   -0.170000       12.0110           0
     75793 WT25     617      MECN     H11      HGA3     0.090000        1.0080           0
     75794 WT25     617      MECN     H12      HGA3     0.090000        1.0080           0
     75795 WT25     617      MECN     H13      HGA3     0.090000        1.0080           0
     75796 WT25     617      MECN     C2       CG1N1    0.360000       12.0110           0
     75797 WT25     617      MECN     N3       NG1T1   -0.460000       14.0070           0
     75798 WT25     618      MECN     C1       CG331   -0.170000       12.0110           0
     75799 WT25     618      MECN     H11      HGA3     0.090000        1.0080           0
     75800 WT25     618      MECN     H12      HGA3     0.090000        1.0080           0
     75801 WT25     618      MECN     H13      HGA3     0.090000        1.0080           0
     75802 WT25     618      MECN     C2       CG1N1    0.360000       12.0110           0
     75803 WT25     618      MECN     N3       NG1T1   -0.460000       14.0070           0
     75804 WT25     619      MECN     C1       CG331   -0.170000       12.0110           0
     75805 WT25     619      MECN     H11      HGA3     0.090000        1.0080           0
     75806 WT25     619      MECN     H12      HGA3     0.090000        1.0080           0
     75807 WT25     619      MECN     H13      HGA3     0.090000        1.0080           0
     75808 WT25     619      MECN     C2       CG1N1    0.360000       12.0110           0
     75809 WT25     619      MECN     N3       NG1T1   -0.460000       14.0070           0
     75810 WT25     621      MECN     C1       CG331   -0.170000       12.0110           0
     75811 WT25     621      MECN     H11      HGA3     0.090000        1.0080           0
     75812 WT25     621      MECN     H12      HGA3     0.090000        1.0080           0
     75813 WT25     621      MECN     H13      HGA3     0.090000        1.0080           0
     75814 WT25     621      MECN     C2       CG1N1    0.360000       12.0110           0
     75815 WT25     621      MECN     N3       NG1T1   -0.460000       14.0070           0
     75816 WT25     622      MECN     C1       CG331   -0.170000       12.0110           0
     75817 WT25     622      MECN     H11      HGA3     0.090000        1.0080           0
     75818 WT25     622      MECN     H12      HGA3     0.090000        1.0080           0
     75819 WT25     622      MECN     H13      HGA3     0.090000        1.0080           0
     75820 WT25     622      MECN     C2       CG1N1    0.360000       12.0110           0
     75821 WT25     622      MECN     N3       NG1T1   -0.460000       14.0070           0
     75822 WT25     623      MECN     C1       CG331   -0.170000       12.0110           0
     75823 WT25     623      MECN     H11      HGA3     0.090000        1.0080           0
     75824 WT25     623      MECN     H12      HGA3     0.090000        1.0080           0
     75825 WT25     623      MECN     H13      HGA3     0.090000        1.0080           0
     75826 WT25     623      MECN     C2       CG1N1    0.360000       12.0110           0
     75827 WT25     623      MECN     N3       NG1T1   -0.460000       14.0070           0
     75828 WT25     627      MECN     C1       CG331   -0.170000       12.0110           0
     75829 WT25     627      MECN     H11      HGA3     0.090000        1.0080           0
     75830 WT25     627      MECN     H12      HGA3     0.090000        1.0080           0
     75831 WT25     627      MECN     H13      HGA3     0.090000        1.0080           0
     75832 WT25     627      MECN     C2       CG1N1    0.360000       12.0110           0
     75833 WT25     627      MECN     N3       NG1T1   -0.460000       14.0070           0
     75834 WT25     633      MECN     C1       CG331   -0.170000       12.0110           0
     75835 WT25     633      MECN     H11      HGA3     0.090000        1.0080           0
     75836 WT25     633      MECN     H12      HGA3     0.090000        1.0080           0
     75837 WT25     633      MECN     H13      HGA3     0.090000        1.0080           0
     75838 WT25     633      MECN     C2       CG1N1    0.360000       12.0110           0
     75839 WT25     633      MECN     N3       NG1T1   -0.460000       14.0070           0
     75840 WT25     634      MECN     C1       CG331   -0.170000       12.0110           0
     75841 WT25     634      MECN     H11      HGA3     0.090000        1.0080           0
     75842 WT25     634      MECN     H12      HGA3     0.090000        1.0080           0
     75843 WT25     634      MECN     H13      HGA3     0.090000        1.0080           0
     75844 WT25     634      MECN     C2       CG1N1    0.360000       12.0110           0
     75845 WT25     634      MECN     N3       NG1T1   -0.460000       14.0070           0
     75846 WT25     640      MECN     C1       CG331   -0.170000       12.0110           0
     75847 WT25     640      MECN     H11      HGA3     0.090000        1.0080           0
     75848 WT25     640      MECN     H12      HGA3     0.090000        1.0080           0
     75849 WT25     640      MECN     H13      HGA3     0.090000        1.0080           0
     75850 WT25     640      MECN     C2       CG1N1    0.360000       12.0110           0
     75851 WT25     640      MECN     N3       NG1T1   -0.460000       14.0070           0
     75852 WT25     645      MECN     C1       CG331   -0.170000       12.0110           0
     75853 WT25     645      MECN     H11      HGA3     0.090000        1.0080           0
     75854 WT25     645      MECN     H12      HGA3     0.090000        1.0080           0
     75855 WT25     645      MECN     H13      HGA3     0.090000        1.0080           0
     75856 WT25     645      MECN     C2       CG1N1    0.360000       12.0110           0
     75857 WT25     645      MECN     N3       NG1T1   -0.460000       14.0070           0
     75858 WT25     646      MECN     C1       CG331   -0.170000       12.0110           0
     75859 WT25     646      MECN     H11      HGA3     0.090000        1.0080           0
     75860 WT25     646      MECN     H12      HGA3     0.090000        1.0080           0
     75861 WT25     646      MECN     H13      HGA3     0.090000        1.0080           0
     75862 WT25     646      MECN     C2       CG1N1    0.360000       12.0110           0
     75863 WT25     646      MECN     N3       NG1T1   -0.460000       14.0070           0
     75864 WT25     648      MECN     C1       CG331   -0.170000       12.0110           0
     75865 WT25     648      MECN     H11      HGA3     0.090000        1.0080           0
     75866 WT25     648      MECN     H12      HGA3     0.090000        1.0080           0
     75867 WT25     648      MECN     H13      HGA3     0.090000        1.0080           0
     75868 WT25     648      MECN     C2       CG1N1    0.360000       12.0110           0
     75869 WT25     648      MECN     N3       NG1T1   -0.460000       14.0070           0
     75870 WT25     649      MECN     C1       CG331   -0.170000       12.0110           0
     75871 WT25     649      MECN     H11      HGA3     0.090000        1.0080           0
     75872 WT25     649      MECN     H12      HGA3     0.090000        1.0080           0
     75873 WT25     649      MECN     H13      HGA3     0.090000        1.0080           0
     75874 WT25     649      MECN     C2       CG1N1    0.360000       12.0110           0
     75875 WT25     649      MECN     N3       NG1T1   -0.460000       14.0070           0
     75876 WT25     657      MECN     C1       CG331   -0.170000       12.0110           0
     75877 WT25     657      MECN     H11      HGA3     0.090000        1.0080           0
     75878 WT25     657      MECN     H12      HGA3     0.090000        1.0080           0
     75879 WT25     657      MECN     H13      HGA3     0.090000        1.0080           0
     75880 WT25     657      MECN     C2       CG1N1    0.360000       12.0110           0
     75881 WT25     657      MECN     N3       NG1T1   -0.460000       14.0070           0
     75882 WT25     665      MECN     C1       CG331   -0.170000       12.0110           0
     75883 WT25     665      MECN     H11      HGA3     0.090000        1.0080           0
     75884 WT25     665      MECN     H12      HGA3     0.090000        1.0080           0
     75885 WT25     665      MECN     H13      HGA3     0.090000        1.0080           0
     75886 WT25     665      MECN     C2       CG1N1    0.360000       12.0110           0
     75887 WT25     665      MECN     N3       NG1T1   -0.460000       14.0070           0
     75888 WT25     666      MECN     C1       CG331   -0.170000       12.0110           0
     75889 WT25     666      MECN     H11      HGA3     0.090000        1.0080           0
     75890 WT25     666      MECN     H12      HGA3     0.090000        1.0080           0
     75891 WT25     666      MECN     H13      HGA3     0.090000        1.0080           0
     75892 WT25     666      MECN     C2       CG1N1    0.360000       12.0110           0
     75893 WT25     666      MECN     N3       NG1T1   -0.460000       14.0070           0
     75894 WT25     667      MECN     C1       CG331   -0.170000       12.0110           0
     75895 WT25     667      MECN     H11      HGA3     0.090000        1.0080           0
     75896 WT25     667      MECN     H12      HGA3     0.090000        1.0080           0
     75897 WT25     667      MECN     H13      HGA3     0.090000        1.0080           0
     75898 WT25     667      MECN     C2       CG1N1    0.360000       12.0110           0
     75899 WT25     667      MECN     N3       NG1T1   -0.460000       14.0070           0
     75900 WT25     678      MECN     C1       CG331   -0.170000       12.0110           0
     75901 WT25     678      MECN     H11      HGA3     0.090000        1.0080           0
     75902 WT25     678      MECN     H12      HGA3     0.090000        1.0080           0
     75903 WT25     678      MECN     H13      HGA3     0.090000        1.0080           0
     75904 WT25     678      MECN     C2       CG1N1    0.360000       12.0110           0
     75905 WT25     678      MECN     N3       NG1T1   -0.460000       14.0070           0
     75906 WT25     682      MECN     C1       CG331   -0.170000       12.0110           0
     75907 WT25     682      MECN     H11      HGA3     0.090000        1.0080           0
     75908 WT25     682      MECN     H12      HGA3     0.090000        1.0080           0
     75909 WT25     682      MECN     H13      HGA3     0.090000        1.0080           0
     75910 WT25     682      MECN     C2       CG1N1    0.360000       12.0110           0
     75911 WT25     682      MECN     N3       NG1T1   -0.460000       14.0070           0
     75912 WT25     691      MECN     C1       CG331   -0.170000       12.0110           0
     75913 WT25     691      MECN     H11      HGA3     0.090000        1.0080           0
     75914 WT25     691      MECN     H12      HGA3     0.090000        1.0080           0
     75915 WT25     691      MECN     H13      HGA3     0.090000        1.0080           0
     75916 WT25     691      MECN     C2       CG1N1    0.360000       12.0110           0
     75917 WT25     691      MECN     N3       NG1T1   -0.460000       14.0070           0
     75918 WT25     694      MECN     C1       CG331   -0.170000       12.0110           0
     75919 WT25     694      MECN     H11      HGA3     0.090000        1.0080           0
     75920 WT25     694      MECN     H12      HGA3     0.090000        1.0080           0
     75921 WT25     694      MECN     H13      HGA3     0.090000        1.0080           0
     75922 WT25     694      MECN     C2       CG1N1    0.360000       12.0110           0
     75923 WT25     694      MECN     N3       NG1T1   -0.460000       14.0070           0
     75924 WT25     696      MECN     C1       CG331   -0.170000       12.0110           0
     75925 WT25     696      MECN     H11      HGA3     0.090000        1.0080           0
     75926 WT25     696      MECN     H12      HGA3     0.090000        1.0080           0
     75927 WT25     696      MECN     H13      HGA3     0.090000        1.0080           0
     75928 WT25     696      MECN     C2       CG1N1    0.360000       12.0110           0
     75929 WT25     696      MECN     N3       NG1T1   -0.460000       14.0070           0
     75930 WT25     698      MECN     C1       CG331   -0.170000       12.0110           0
     75931 WT25     698      MECN     H11      HGA3     0.090000        1.0080           0
     75932 WT25     698      MECN     H12      HGA3     0.090000        1.0080           0
     75933 WT25     698      MECN     H13      HGA3     0.090000        1.0080           0
     75934 WT25     698      MECN     C2       CG1N1    0.360000       12.0110           0
     75935 WT25     698      MECN     N3       NG1T1   -0.460000       14.0070           0
     75936 WT25     709      MECN     C1       CG331   -0.170000       12.0110           0
     75937 WT25     709      MECN     H11      HGA3     0.090000        1.0080           0
     75938 WT25     709      MECN     H12      HGA3     0.090000        1.0080           0
     75939 WT25     709      MECN     H13      HGA3     0.090000        1.0080           0
     75940 WT25     709      MECN     C2       CG1N1    0.360000       12.0110           0
     75941 WT25     709      MECN     N3       NG1T1   -0.460000       14.0070           0
     75942 WT25     711      MECN     C1       CG331   -0.170000       12.0110           0
     75943 WT25     711      MECN     H11      HGA3     0.090000        1.0080           0
     75944 WT25     711      MECN     H12      HGA3     0.090000        1.0080           0
     75945 WT25     711      MECN     H13      HGA3     0.090000        1.0080           0
     75946 WT25     711      MECN     C2       CG1N1    0.360000       12.0110           0
     75947 WT25     711      MECN     N3       NG1T1   -0.460000       14.0070           0
     75948 WT25     714      MECN     C1       CG331   -0.170000       12.0110           0
     75949 WT25     714      MECN     H11      HGA3     0.090000        1.0080           0
     75950 WT25     714      MECN     H12      HGA3     0.090000        1.0080           0
     75951 WT25     714      MECN     H13      HGA3     0.090000        1.0080           0
     75952 WT25     714      MECN     C2       CG1N1    0.360000       12.0110           0
     75953 WT25     714      MECN     N3       NG1T1   -0.460000       14.0070           0
     75954 WT25     717      MECN     C1       CG331   -0.170000       12.0110           0
     75955 WT25     717      MECN     H11      HGA3     0.090000        1.0080           0
     75956 WT25     717      MECN     H12      HGA3     0.090000        1.0080           0
     75957 WT25     717      MECN     H13      HGA3     0.090000        1.0080           0
     75958 WT25     717      MECN     C2       CG1N1    0.360000       12.0110           0
     75959 WT25     717      MECN     N3       NG1T1   -0.460000       14.0070           0
     75960 WT25     721      MECN     C1       CG331   -0.170000       12.0110           0
     75961 WT25     721      MECN     H11      HGA3     0.090000        1.0080           0
     75962 WT25     721      MECN     H12      HGA3     0.090000        1.0080           0
     75963 WT25     721      MECN     H13      HGA3     0.090000        1.0080           0
     75964 WT25     721      MECN     C2       CG1N1    0.360000       12.0110           0
     75965 WT25     721      MECN     N3       NG1T1   -0.460000       14.0070           0
     75966 WT25     723      MECN     C1       CG331   -0.170000       12.0110           0
     75967 WT25     723      MECN     H11      HGA3     0.090000        1.0080           0
     75968 WT25     723      MECN     H12      HGA3     0.090000        1.0080           0
     75969 WT25     723      MECN     H13      HGA3     0.090000        1.0080           0
     75970 WT25     723      MECN     C2       CG1N1    0.360000       12.0110           0
     75971 WT25     723      MECN     N3       NG1T1   -0.460000       14.0070           0
     75972 WT25     735      MECN     C1       CG331   -0.170000       12.0110           0
     75973 WT25     735      MECN     H11      HGA3     0.090000        1.0080           0
     75974 WT25     735      MECN     H12      HGA3     0.090000        1.0080           0
     75975 WT25     735      MECN     H13      HGA3     0.090000        1.0080           0
     75976 WT25     735      MECN     C2       CG1N1    0.360000       12.0110           0
     75977 WT25     735      MECN     N3       NG1T1   -0.460000       14.0070           0
     75978 WT25     748      MECN     C1       CG331   -0.170000       12.0110           0
     75979 WT25     748      MECN     H11      HGA3     0.090000        1.0080           0
     75980 WT25     748      MECN     H12      HGA3     0.090000        1.0080           0
     75981 WT25     748      MECN     H13      HGA3     0.090000        1.0080           0
     75982 WT25     748      MECN     C2       CG1N1    0.360000       12.0110           0
     75983 WT25     748      MECN     N3       NG1T1   -0.460000       14.0070           0
     75984 WT25     751      MECN     C1       CG331   -0.170000       12.0110           0
     75985 WT25     751      MECN     H11      HGA3     0.090000        1.0080           0
     75986 WT25     751      MECN     H12      HGA3     0.090000        1.0080           0
     75987 WT25     751      MECN     H13      HGA3     0.090000        1.0080           0
     75988 WT25     751      MECN     C2       CG1N1    0.360000       12.0110           0
     75989 WT25     751      MECN     N3       NG1T1   -0.460000       14.0070           0
     75990 WT25     760      MECN     C1       CG331   -0.170000       12.0110           0
     75991 WT25     760      MECN     H11      HGA3     0.090000        1.0080           0
     75992 WT25     760      MECN     H12      HGA3     0.090000        1.0080           0
     75993 WT25     760      MECN     H13      HGA3     0.090000        1.0080           0
     75994 WT25     760      MECN     C2       CG1N1    0.360000       12.0110           0
     75995 WT25     760      MECN     N3       NG1T1   -0.460000       14.0070           0
     75996 WT25     763      MECN     C1       CG331   -0.170000       12.0110           0
     75997 WT25     763      MECN     H11      HGA3     0.090000        1.0080           0
     75998 WT25     763      MECN     H12      HGA3     0.090000        1.0080           0
     75999 WT25     763      MECN     H13      HGA3     0.090000        1.0080           0
     76000 WT25     763      MECN     C2       CG1N1    0.360000       12.0110           0
     76001 WT25     763      MECN     N3       NG1T1   -0.460000       14.0070           0
     76002 WT25     766      MECN     C1       CG331   -0.170000       12.0110           0
     76003 WT25     766      MECN     H11      HGA3     0.090000        1.0080           0
     76004 WT25     766      MECN     H12      HGA3     0.090000        1.0080           0
     76005 WT25     766      MECN     H13      HGA3     0.090000        1.0080           0
     76006 WT25     766      MECN     C2       CG1N1    0.360000       12.0110           0
     76007 WT25     766      MECN     N3       NG1T1   -0.460000       14.0070           0
     76008 WT25     767      MECN     C1       CG331   -0.170000       12.0110           0
     76009 WT25     767      MECN     H11      HGA3     0.090000        1.0080           0
     76010 WT25     767      MECN     H12      HGA3     0.090000        1.0080           0
     76011 WT25     767      MECN     H13      HGA3     0.090000        1.0080           0
     76012 WT25     767      MECN     C2       CG1N1    0.360000       12.0110           0
     76013 WT25     767      MECN     N3       NG1T1   -0.460000       14.0070           0
     76014 WT25     768      MECN     C1       CG331   -0.170000       12.0110           0
     76015 WT25     768      MECN     H11      HGA3     0.090000        1.0080           0
     76016 WT25     768      MECN     H12      HGA3     0.090000        1.0080           0
     76017 WT25     768      MECN     H13      HGA3     0.090000        1.0080           0
     76018 WT25     768      MECN     C2       CG1N1    0.360000       12.0110           0
     76019 WT25     768      MECN     N3       NG1T1   -0.460000       14.0070           0
     76020 WT25     769      MECN     C1       CG331   -0.170000       12.0110           0
     76021 WT25     769      MECN     H11      HGA3     0.090000        1.0080           0
     76022 WT25     769      MECN     H12      HGA3     0.090000        1.0080           0
     76023 WT25     769      MECN     H13      HGA3     0.090000        1.0080           0
     76024 WT25     769      MECN     C2       CG1N1    0.360000       12.0110           0
     76025 WT25     769      MECN     N3       NG1T1   -0.460000       14.0070           0
     76026 WT25     772      MECN     C1       CG331   -0.170000       12.0110           0
     76027 WT25     772      MECN     H11      HGA3     0.090000        1.0080           0
     76028 WT25     772      MECN     H12      HGA3     0.090000        1.0080           0
     76029 WT25     772      MECN     H13      HGA3     0.090000        1.0080           0
     76030 WT25     772      MECN     C2       CG1N1    0.360000       12.0110           0
     76031 WT25     772      MECN     N3       NG1T1   -0.460000       14.0070           0
     76032 WT25     773      MECN     C1       CG331   -0.170000       12.0110           0
     76033 WT25     773      MECN     H11      HGA3     0.090000        1.0080           0
     76034 WT25     773      MECN     H12      HGA3     0.090000        1.0080           0
     76035 WT25     773      MECN     H13      HGA3     0.090000        1.0080           0
     76036 WT25     773      MECN     C2       CG1N1    0.360000       12.0110           0
     76037 WT25     773      MECN     N3       NG1T1   -0.460000       14.0070           0
     76038 WT25     774      MECN     C1       CG331   -0.170000       12.0110           0
     76039 WT25     774      MECN     H11      HGA3     0.090000        1.0080           0
     76040 WT25     774      MECN     H12      HGA3     0.090000        1.0080           0
     76041 WT25     774      MECN     H13      HGA3     0.090000        1.0080           0
     76042 WT25     774      MECN     C2       CG1N1    0.360000       12.0110           0
     76043 WT25     774      MECN     N3       NG1T1   -0.460000       14.0070           0
     76044 WT25     775      MECN     C1       CG331   -0.170000       12.0110           0
     76045 WT25     775      MECN     H11      HGA3     0.090000        1.0080           0
     76046 WT25     775      MECN     H12      HGA3     0.090000        1.0080           0
     76047 WT25     775      MECN     H13      HGA3     0.090000        1.0080           0
     76048 WT25     775      MECN     C2       CG1N1    0.360000       12.0110           0
     76049 WT25     775      MECN     N3       NG1T1   -0.460000       14.0070           0
     76050 WT25     776      MECN     C1       CG331   -0.170000       12.0110           0
     76051 WT25     776      MECN     H11      HGA3     0.090000        1.0080           0
     76052 WT25     776      MECN     H12      HGA3     0.090000        1.0080           0
     76053 WT25     776      MECN     H13      HGA3     0.090000        1.0080           0
     76054 WT25     776      MECN     C2       CG1N1    0.360000       12.0110           0
     76055 WT25     776      MECN     N3       NG1T1   -0.460000       14.0070           0
     76056 WT25     786      MECN     C1       CG331   -0.170000       12.0110           0
     76057 WT25     786      MECN     H11      HGA3     0.090000        1.0080           0
     76058 WT25     786      MECN     H12      HGA3     0.090000        1.0080           0
     76059 WT25     786      MECN     H13      HGA3     0.090000        1.0080           0
     76060 WT25     786      MECN     C2       CG1N1    0.360000       12.0110           0
     76061 WT25     786      MECN     N3       NG1T1   -0.460000       14.0070           0
     76062 WT25     788      MECN     C1       CG331   -0.170000       12.0110           0
     76063 WT25     788      MECN     H11      HGA3     0.090000        1.0080           0
     76064 WT25     788      MECN     H12      HGA3     0.090000        1.0080           0
     76065 WT25     788      MECN     H13      HGA3     0.090000        1.0080           0
     76066 WT25     788      MECN     C2       CG1N1    0.360000       12.0110           0
     76067 WT25     788      MECN     N3       NG1T1   -0.460000       14.0070           0
     76068 WT25     797      MECN     C1       CG331   -0.170000       12.0110           0
     76069 WT25     797      MECN     H11      HGA3     0.090000        1.0080           0
     76070 WT25     797      MECN     H12      HGA3     0.090000        1.0080           0
     76071 WT25     797      MECN     H13      HGA3     0.090000        1.0080           0
     76072 WT25     797      MECN     C2       CG1N1    0.360000       12.0110           0
     76073 WT25     797      MECN     N3       NG1T1   -0.460000       14.0070           0
     76074 WT25     809      MECN     C1       CG331   -0.170000       12.0110           0
     76075 WT25     809      MECN     H11      HGA3     0.090000        1.0080           0
     76076 WT25     809      MECN     H12      HGA3     0.090000        1.0080           0
     76077 WT25     809      MECN     H13      HGA3     0.090000        1.0080           0
     76078 WT25     809      MECN     C2       CG1N1    0.360000       12.0110           0
     76079 WT25     809      MECN     N3       NG1T1   -0.460000       14.0070           0
     76080 WT25     815      MECN     C1       CG331   -0.170000       12.0110           0
     76081 WT25     815      MECN     H11      HGA3     0.090000        1.0080           0
     76082 WT25     815      MECN     H12      HGA3     0.090000        1.0080           0
     76083 WT25     815      MECN     H13      HGA3     0.090000        1.0080           0
     76084 WT25     815      MECN     C2       CG1N1    0.360000       12.0110           0
     76085 WT25     815      MECN     N3       NG1T1   -0.460000       14.0070           0
     76086 WT25     821      MECN     C1       CG331   -0.170000       12.0110           0
     76087 WT25     821      MECN     H11      HGA3     0.090000        1.0080           0
     76088 WT25     821      MECN     H12      HGA3     0.090000        1.0080           0
     76089 WT25     821      MECN     H13      HGA3     0.090000        1.0080           0
     76090 WT25     821      MECN     C2       CG1N1    0.360000       12.0110           0
     76091 WT25     821      MECN     N3       NG1T1   -0.460000       14.0070           0
     76092 WT25     823      MECN     C1       CG331   -0.170000       12.0110           0
     76093 WT25     823      MECN     H11      HGA3     0.090000        1.0080           0
     76094 WT25     823      MECN     H12      HGA3     0.090000        1.0080           0
     76095 WT25     823      MECN     H13      HGA3     0.090000        1.0080           0
     76096 WT25     823      MECN     C2       CG1N1    0.360000       12.0110           0
     76097 WT25     823      MECN     N3       NG1T1   -0.460000       14.0070           0
     76098 WT25     827      MECN     C1       CG331   -0.170000       12.0110           0
     76099 WT25     827      MECN     H11      HGA3     0.090000        1.0080           0
     76100 WT25     827      MECN     H12      HGA3     0.090000        1.0080           0
     76101 WT25     827      MECN     H13      HGA3     0.090000        1.0080           0
     76102 WT25     827      MECN     C2       CG1N1    0.360000       12.0110           0
     76103 WT25     827      MECN     N3       NG1T1   -0.460000       14.0070           0
     76104 WT25     828      MECN     C1       CG331   -0.170000       12.0110           0
     76105 WT25     828      MECN     H11      HGA3     0.090000        1.0080           0
     76106 WT25     828      MECN     H12      HGA3     0.090000        1.0080           0
     76107 WT25     828      MECN     H13      HGA3     0.090000        1.0080           0
     76108 WT25     828      MECN     C2       CG1N1    0.360000       12.0110           0
     76109 WT25     828      MECN     N3       NG1T1   -0.460000       14.0070           0
     76110 WT25     832      MECN     C1       CG331   -0.170000       12.0110           0
     76111 WT25     832      MECN     H11      HGA3     0.090000        1.0080           0
     76112 WT25     832      MECN     H12      HGA3     0.090000        1.0080           0
     76113 WT25     832      MECN     H13      HGA3     0.090000        1.0080           0
     76114 WT25     832      MECN     C2       CG1N1    0.360000       12.0110           0
     76115 WT25     832      MECN     N3       NG1T1   -0.460000       14.0070           0
     76116 WT25     835      MECN     C1       CG331   -0.170000       12.0110           0
     76117 WT25     835      MECN     H11      HGA3     0.090000        1.0080           0
     76118 WT25     835      MECN     H12      HGA3     0.090000        1.0080           0
     76119 WT25     835      MECN     H13      HGA3     0.090000        1.0080           0
     76120 WT25     835      MECN     C2       CG1N1    0.360000       12.0110           0
     76121 WT25     835      MECN     N3       NG1T1   -0.460000       14.0070           0
     76122 WT25     840      MECN     C1       CG331   -0.170000       12.0110           0
     76123 WT25     840      MECN     H11      HGA3     0.090000        1.0080           0
     76124 WT25     840      MECN     H12      HGA3     0.090000        1.0080           0
     76125 WT25     840      MECN     H13      HGA3     0.090000        1.0080           0
     76126 WT25     840      MECN     C2       CG1N1    0.360000       12.0110           0
     76127 WT25     840      MECN     N3       NG1T1   -0.460000       14.0070           0
     76128 WT25     848      MECN     C1       CG331   -0.170000       12.0110           0
     76129 WT25     848      MECN     H11      HGA3     0.090000        1.0080           0
     76130 WT25     848      MECN     H12      HGA3     0.090000        1.0080           0
     76131 WT25     848      MECN     H13      HGA3     0.090000        1.0080           0
     76132 WT25     848      MECN     C2       CG1N1    0.360000       12.0110           0
     76133 WT25     848      MECN     N3       NG1T1   -0.460000       14.0070           0
     76134 WT25     849      MECN     C1       CG331   -0.170000       12.0110           0
     76135 WT25     849      MECN     H11      HGA3     0.090000        1.0080           0
     76136 WT25     849      MECN     H12      HGA3     0.090000        1.0080           0
     76137 WT25     849      MECN     H13      HGA3     0.090000        1.0080           0
     76138 WT25     849      MECN     C2       CG1N1    0.360000       12.0110           0
     76139 WT25     849      MECN     N3       NG1T1   -0.460000       14.0070           0
     76140 WT25     863      MECN     C1       CG331   -0.170000       12.0110           0
     76141 WT25     863      MECN     H11      HGA3     0.090000        1.0080           0
     76142 WT25     863      MECN     H12      HGA3     0.090000        1.0080           0
     76143 WT25     863      MECN     H13      HGA3     0.090000        1.0080           0
     76144 WT25     863      MECN     C2       CG1N1    0.360000       12.0110           0
     76145 WT25     863      MECN     N3       NG1T1   -0.460000       14.0070           0
     76146 WT25     873      MECN     C1       CG331   -0.170000       12.0110           0
     76147 WT25     873      MECN     H11      HGA3     0.090000        1.0080           0
     76148 WT25     873      MECN     H12      HGA3     0.090000        1.0080           0
     76149 WT25     873      MECN     H13      HGA3     0.090000        1.0080           0
     76150 WT25     873      MECN     C2       CG1N1    0.360000       12.0110           0
     76151 WT25     873      MECN     N3       NG1T1   -0.460000       14.0070           0
     76152 WT25     875      MECN     C1       CG331   -0.170000       12.0110           0
     76153 WT25     875      MECN     H11      HGA3     0.090000        1.0080           0
     76154 WT25     875      MECN     H12      HGA3     0.090000        1.0080           0
     76155 WT25     875      MECN     H13      HGA3     0.090000        1.0080           0
     76156 WT25     875      MECN     C2       CG1N1    0.360000       12.0110           0
     76157 WT25     875      MECN     N3       NG1T1   -0.460000       14.0070           0
     76158 WT25     876      MECN     C1       CG331   -0.170000       12.0110           0
     76159 WT25     876      MECN     H11      HGA3     0.090000        1.0080           0
     76160 WT25     876      MECN     H12      HGA3     0.090000        1.0080           0
     76161 WT25     876      MECN     H13      HGA3     0.090000        1.0080           0
     76162 WT25     876      MECN     C2       CG1N1    0.360000       12.0110           0
     76163 WT25     876      MECN     N3       NG1T1   -0.460000       14.0070           0
     76164 WT25     878      MECN     C1       CG331   -0.170000       12.0110           0
     76165 WT25     878      MECN     H11      HGA3     0.090000        1.0080           0
     76166 WT25     878      MECN     H12      HGA3     0.090000        1.0080           0
     76167 WT25     878      MECN     H13      HGA3     0.090000        1.0080           0
     76168 WT25     878      MECN     C2       CG1N1    0.360000       12.0110           0
     76169 WT25     878      MECN     N3       NG1T1   -0.460000       14.0070           0
     76170 WT25     886      MECN     C1       CG331   -0.170000       12.0110           0
     76171 WT25     886      MECN     H11      HGA3     0.090000        1.0080           0
     76172 WT25     886      MECN     H12      HGA3     0.090000        1.0080           0
     76173 WT25     886      MECN     H13      HGA3     0.090000        1.0080           0
     76174 WT25     886      MECN     C2       CG1N1    0.360000       12.0110           0
     76175 WT25     886      MECN     N3       NG1T1   -0.460000       14.0070           0
     76176 WT25     888      MECN     C1       CG331   -0.170000       12.0110           0
     76177 WT25     888      MECN     H11      HGA3     0.090000        1.0080           0
     76178 WT25     888      MECN     H12      HGA3     0.090000        1.0080           0
     76179 WT25     888      MECN     H13      HGA3     0.090000        1.0080           0
     76180 WT25     888      MECN     C2       CG1N1    0.360000       12.0110           0
     76181 WT25     888      MECN     N3       NG1T1   -0.460000       14.0070           0
     76182 WT25     892      MECN     C1       CG331   -0.170000       12.0110           0
     76183 WT25     892      MECN     H11      HGA3     0.090000        1.0080           0
     76184 WT25     892      MECN     H12      HGA3     0.090000        1.0080           0
     76185 WT25     892      MECN     H13      HGA3     0.090000        1.0080           0
     76186 WT25     892      MECN     C2       CG1N1    0.360000       12.0110           0
     76187 WT25     892      MECN     N3       NG1T1   -0.460000       14.0070           0
     76188 WT25     902      MECN     C1       CG331   -0.170000       12.0110           0
     76189 WT25     902      MECN     H11      HGA3     0.090000        1.0080           0
     76190 WT25     902      MECN     H12      HGA3     0.090000        1.0080           0
     76191 WT25     902      MECN     H13      HGA3     0.090000        1.0080           0
     76192 WT25     902      MECN     C2       CG1N1    0.360000       12.0110           0
     76193 WT25     902      MECN     N3       NG1T1   -0.460000       14.0070           0
     76194 WT25     905      MECN     C1       CG331   -0.170000       12.0110           0
     76195 WT25     905      MECN     H11      HGA3     0.090000        1.0080           0
     76196 WT25     905      MECN     H12      HGA3     0.090000        1.0080           0
     76197 WT25     905      MECN     H13      HGA3     0.090000        1.0080           0
     76198 WT25     905      MECN     C2       CG1N1    0.360000       12.0110           0
     76199 WT25     905      MECN     N3       NG1T1   -0.460000       14.0070           0
     76200 WT25     909      MECN     C1       CG331   -0.170000       12.0110           0
     76201 WT25     909      MECN     H11      HGA3     0.090000        1.0080           0
     76202 WT25     909      MECN     H12      HGA3     0.090000        1.0080           0
     76203 WT25     909      MECN     H13      HGA3     0.090000        1.0080           0
     76204 WT25     909      MECN     C2       CG1N1    0.360000       12.0110           0
     76205 WT25     909      MECN     N3       NG1T1   -0.460000       14.0070           0
     76206 WT25     910      MECN     C1       CG331   -0.170000       12.0110           0
     76207 WT25     910      MECN     H11      HGA3     0.090000        1.0080           0
     76208 WT25     910      MECN     H12      HGA3     0.090000        1.0080           0
     76209 WT25     910      MECN     H13      HGA3     0.090000        1.0080           0
     76210 WT25     910      MECN     C2       CG1N1    0.360000       12.0110           0
     76211 WT25     910      MECN     N3       NG1T1   -0.460000       14.0070           0
     76212 WT25     911      MECN     C1       CG331   -0.170000       12.0110           0
     76213 WT25     911      MECN     H11      HGA3     0.090000        1.0080           0
     76214 WT25     911      MECN     H12      HGA3     0.090000        1.0080           0
     76215 WT25     911      MECN     H13      HGA3     0.090000        1.0080           0
     76216 WT25     911      MECN     C2       CG1N1    0.360000       12.0110           0
     76217 WT25     911      MECN     N3       NG1T1   -0.460000       14.0070           0
     76218 WT25     913      MECN     C1       CG331   -0.170000       12.0110           0
     76219 WT25     913      MECN     H11      HGA3     0.090000        1.0080           0
     76220 WT25     913      MECN     H12      HGA3     0.090000        1.0080           0
     76221 WT25     913      MECN     H13      HGA3     0.090000        1.0080           0
     76222 WT25     913      MECN     C2       CG1N1    0.360000       12.0110           0
     76223 WT25     913      MECN     N3       NG1T1   -0.460000       14.0070           0
     76224 WT25     914      MECN     C1       CG331   -0.170000       12.0110           0
     76225 WT25     914      MECN     H11      HGA3     0.090000        1.0080           0
     76226 WT25     914      MECN     H12      HGA3     0.090000        1.0080           0
     76227 WT25     914      MECN     H13      HGA3     0.090000        1.0080           0
     76228 WT25     914      MECN     C2       CG1N1    0.360000       12.0110           0
     76229 WT25     914      MECN     N3       NG1T1   -0.460000       14.0070           0
     76230 WT25     915      MECN     C1       CG331   -0.170000       12.0110           0
     76231 WT25     915      MECN     H11      HGA3     0.090000        1.0080           0
     76232 WT25     915      MECN     H12      HGA3     0.090000        1.0080           0
     76233 WT25     915      MECN     H13      HGA3     0.090000        1.0080           0
     76234 WT25     915      MECN     C2       CG1N1    0.360000       12.0110           0
     76235 WT25     915      MECN     N3       NG1T1   -0.460000       14.0070           0
     76236 WT25     917      MECN     C1       CG331   -0.170000       12.0110           0
     76237 WT25     917      MECN     H11      HGA3     0.090000        1.0080           0
     76238 WT25     917      MECN     H12      HGA3     0.090000        1.0080           0
     76239 WT25     917      MECN     H13      HGA3     0.090000        1.0080           0
     76240 WT25     917      MECN     C2       CG1N1    0.360000       12.0110           0
     76241 WT25     917      MECN     N3       NG1T1   -0.460000       14.0070           0
     76242 WT25     918      MECN     C1       CG331   -0.170000       12.0110           0
     76243 WT25     918      MECN     H11      HGA3     0.090000        1.0080           0
     76244 WT25     918      MECN     H12      HGA3     0.090000        1.0080           0
     76245 WT25     918      MECN     H13      HGA3     0.090000        1.0080           0
     76246 WT25     918      MECN     C2       CG1N1    0.360000       12.0110           0
     76247 WT25     918      MECN     N3       NG1T1   -0.460000       14.0070           0
     76248 WT25     923      MECN     C1       CG331   -0.170000       12.0110           0
     76249 WT25     923      MECN     H11      HGA3     0.090000        1.0080           0
     76250 WT25     923      MECN     H12      HGA3     0.090000        1.0080           0
     76251 WT25     923      MECN     H13      HGA3     0.090000        1.0080           0
     76252 WT25     923      MECN     C2       CG1N1    0.360000       12.0110           0
     76253 WT25     923      MECN     N3       NG1T1   -0.460000       14.0070           0
     76254 WT25     924      MECN     C1       CG331   -0.170000       12.0110           0
     76255 WT25     924      MECN     H11      HGA3     0.090000        1.0080           0
     76256 WT25     924      MECN     H12      HGA3     0.090000        1.0080           0
     76257 WT25     924      MECN     H13      HGA3     0.090000        1.0080           0
     76258 WT25     924      MECN     C2       CG1N1    0.360000       12.0110           0
     76259 WT25     924      MECN     N3       NG1T1   -0.460000       14.0070           0
     76260 WT25     928      MECN     C1       CG331   -0.170000       12.0110           0
     76261 WT25     928      MECN     H11      HGA3     0.090000        1.0080           0
     76262 WT25     928      MECN     H12      HGA3     0.090000        1.0080           0
     76263 WT25     928      MECN     H13      HGA3     0.090000        1.0080           0
     76264 WT25     928      MECN     C2       CG1N1    0.360000       12.0110           0
     76265 WT25     928      MECN     N3       NG1T1   -0.460000       14.0070           0
     76266 WT25     943      MECN     C1       CG331   -0.170000       12.0110           0
     76267 WT25     943      MECN     H11      HGA3     0.090000        1.0080           0
     76268 WT25     943      MECN     H12      HGA3     0.090000        1.0080           0
     76269 WT25     943      MECN     H13      HGA3     0.090000        1.0080           0
     76270 WT25     943      MECN     C2       CG1N1    0.360000       12.0110           0
     76271 WT25     943      MECN     N3       NG1T1   -0.460000       14.0070           0
     76272 WT25     949      MECN     C1       CG331   -0.170000       12.0110           0
     76273 WT25     949      MECN     H11      HGA3     0.090000        1.0080           0
     76274 WT25     949      MECN     H12      HGA3     0.090000        1.0080           0
     76275 WT25     949      MECN     H13      HGA3     0.090000        1.0080           0
     76276 WT25     949      MECN     C2       CG1N1    0.360000       12.0110           0
     76277 WT25     949      MECN     N3       NG1T1   -0.460000       14.0070           0
     76278 WT25     951      MECN     C1       CG331   -0.170000       12.0110           0
     76279 WT25     951      MECN     H11      HGA3     0.090000        1.0080           0
     76280 WT25     951      MECN     H12      HGA3     0.090000        1.0080           0
     76281 WT25     951      MECN     H13      HGA3     0.090000        1.0080           0
     76282 WT25     951      MECN     C2       CG1N1    0.360000       12.0110           0
     76283 WT25     951      MECN     N3       NG1T1   -0.460000       14.0070           0
     76284 WT25     955      MECN     C1       CG331   -0.170000       12.0110           0
     76285 WT25     955      MECN     H11      HGA3     0.090000        1.0080           0
     76286 WT25     955      MECN     H12      HGA3     0.090000        1.0080           0
     76287 WT25     955      MECN     H13      HGA3     0.090000        1.0080           0
     76288 WT25     955      MECN     C2       CG1N1    0.360000       12.0110           0
     76289 WT25     955      MECN     N3       NG1T1   -0.460000       14.0070           0
     76290 WT25     956      MECN     C1       CG331   -0.170000       12.0110           0
     76291 WT25     956      MECN     H11      HGA3     0.090000        1.0080           0
     76292 WT25     956      MECN     H12      HGA3     0.090000        1.0080           0
     76293 WT25     956      MECN     H13      HGA3     0.090000        1.0080           0
     76294 WT25     956      MECN     C2       CG1N1    0.360000       12.0110           0
     76295 WT25     956      MECN     N3       NG1T1   -0.460000       14.0070           0
     76296 WT25     961      MECN     C1       CG331   -0.170000       12.0110           0
     76297 WT25     961      MECN     H11      HGA3     0.090000        1.0080           0
     76298 WT25     961      MECN     H12      HGA3     0.090000        1.0080           0
     76299 WT25     961      MECN     H13      HGA3     0.090000        1.0080           0
     76300 WT25     961      MECN     C2       CG1N1    0.360000       12.0110           0
     76301 WT25     961      MECN     N3       NG1T1   -0.460000       14.0070           0
     76302 WT25     965      MECN     C1       CG331   -0.170000       12.0110           0
     76303 WT25     965      MECN     H11      HGA3     0.090000        1.0080           0
     76304 WT25     965      MECN     H12      HGA3     0.090000        1.0080           0
     76305 WT25     965      MECN     H13      HGA3     0.090000        1.0080           0
     76306 WT25     965      MECN     C2       CG1N1    0.360000       12.0110           0
     76307 WT25     965      MECN     N3       NG1T1   -0.460000       14.0070           0
     76308 WT25     966      MECN     C1       CG331   -0.170000       12.0110           0
     76309 WT25     966      MECN     H11      HGA3     0.090000        1.0080           0
     76310 WT25     966      MECN     H12      HGA3     0.090000        1.0080           0
     76311 WT25     966      MECN     H13      HGA3     0.090000        1.0080           0
     76312 WT25     966      MECN     C2       CG1N1    0.360000       12.0110           0
     76313 WT25     966      MECN     N3       NG1T1   -0.460000       14.0070           0
     76314 WT25     968      MECN     C1       CG331   -0.170000       12.0110           0
     76315 WT25     968      MECN     H11      HGA3     0.090000        1.0080           0
     76316 WT25     968      MECN     H12      HGA3     0.090000        1.0080           0
     76317 WT25     968      MECN     H13      HGA3     0.090000        1.0080           0
     76318 WT25     968      MECN     C2       CG1N1    0.360000       12.0110           0
     76319 WT25     968      MECN     N3       NG1T1   -0.460000       14.0070           0
     76320 WT25     978      MECN     C1       CG331   -0.170000       12.0110           0
     76321 WT25     978      MECN     H11      HGA3     0.090000        1.0080           0
     76322 WT25     978      MECN     H12      HGA3     0.090000        1.0080           0
     76323 WT25     978      MECN     H13      HGA3     0.090000        1.0080           0
     76324 WT25     978      MECN     C2       CG1N1    0.360000       12.0110           0
     76325 WT25     978      MECN     N3       NG1T1   -0.460000       14.0070           0
     76326 WT25     984      MECN     C1       CG331   -0.170000       12.0110           0
     76327 WT25     984      MECN     H11      HGA3     0.090000        1.0080           0
     76328 WT25     984      MECN     H12      HGA3     0.090000        1.0080           0
     76329 WT25     984      MECN     H13      HGA3     0.090000        1.0080           0
     76330 WT25     984      MECN     C2       CG1N1    0.360000       12.0110           0
     76331 WT25     984      MECN     N3       NG1T1   -0.460000       14.0070           0
     76332 WT25     989      MECN     C1       CG331   -0.170000       12.0110           0
     76333 WT25     989      MECN     H11      HGA3     0.090000        1.0080           0
     76334 WT25     989      MECN     H12      HGA3     0.090000        1.0080           0
     76335 WT25     989      MECN     H13      HGA3     0.090000        1.0080           0
     76336 WT25     989      MECN     C2       CG1N1    0.360000       12.0110           0
     76337 WT25     989      MECN     N3       NG1T1   -0.460000       14.0070           0
     76338 WT25     990      MECN     C1       CG331   -0.170000       12.0110           0
     76339 WT25     990      MECN     H11      HGA3     0.090000        1.0080           0
     76340 WT25     990      MECN     H12      HGA3     0.090000        1.0080           0
     76341 WT25     990      MECN     H13      HGA3     0.090000        1.0080           0
     76342 WT25     990      MECN     C2       CG1N1    0.360000       12.0110           0
     76343 WT25     990      MECN     N3       NG1T1   -0.460000       14.0070           0
     76344 WT25     991      MECN     C1       CG331   -0.170000       12.0110           0
     76345 WT25     991      MECN     H11      HGA3     0.090000        1.0080           0
     76346 WT25     991      MECN     H12      HGA3     0.090000        1.0080           0
     76347 WT25     991      MECN     H13      HGA3     0.090000        1.0080           0
     76348 WT25     991      MECN     C2       CG1N1    0.360000       12.0110           0
     76349 WT25     991      MECN     N3       NG1T1   -0.460000       14.0070           0
     76350 WT25     993      MECN     C1       CG331   -0.170000       12.0110           0
     76351 WT25     993      MECN     H11      HGA3     0.090000        1.0080           0
     76352 WT25     993      MECN     H12      HGA3     0.090000        1.0080           0
     76353 WT25     993      MECN     H13      HGA3     0.090000        1.0080           0
     76354 WT25     993      MECN     C2       CG1N1    0.360000       12.0110           0
     76355 WT25     993      MECN     N3       NG1T1   -0.460000       14.0070           0
     76356 WT25     994      MECN     C1       CG331   -0.170000       12.0110           0
     76357 WT25     994      MECN     H11      HGA3     0.090000        1.0080           0
     76358 WT25     994      MECN     H12      HGA3     0.090000        1.0080           0
     76359 WT25     994      MECN     H13      HGA3     0.090000        1.0080           0
     76360 WT25     994      MECN     C2       CG1N1    0.360000       12.0110           0
     76361 WT25     994      MECN     N3       NG1T1   -0.460000       14.0070           0
     76362 WT25     1004     MECN     C1       CG331   -0.170000       12.0110           0
     76363 WT25     1004     MECN     H11      HGA3     0.090000        1.0080           0
     76364 WT25     1004     MECN     H12      HGA3     0.090000        1.0080           0
     76365 WT25     1004     MECN     H13      HGA3     0.090000        1.0080           0
     76366 WT25     1004     MECN     C2       CG1N1    0.360000       12.0110           0
     76367 WT25     1004     MECN     N3       NG1T1   -0.460000       14.0070           0
     76368 WT25     1008     MECN     C1       CG331   -0.170000       12.0110           0
     76369 WT25     1008     MECN     H11      HGA3     0.090000        1.0080           0
     76370 WT25     1008     MECN     H12      HGA3     0.090000        1.0080           0
     76371 WT25     1008     MECN     H13      HGA3     0.090000        1.0080           0
     76372 WT25     1008     MECN     C2       CG1N1    0.360000       12.0110           0
     76373 WT25     1008     MECN     N3       NG1T1   -0.460000       14.0070           0
     76374 WT25     1009     MECN     C1       CG331   -0.170000       12.0110           0
     76375 WT25     1009     MECN     H11      HGA3     0.090000        1.0080           0
     76376 WT25     1009     MECN     H12      HGA3     0.090000        1.0080           0
     76377 WT25     1009     MECN     H13      HGA3     0.090000        1.0080           0
     76378 WT25     1009     MECN     C2       CG1N1    0.360000       12.0110           0
     76379 WT25     1009     MECN     N3       NG1T1   -0.460000       14.0070           0
     76380 WT25     1010     MECN     C1       CG331   -0.170000       12.0110           0
     76381 WT25     1010     MECN     H11      HGA3     0.090000        1.0080           0
     76382 WT25     1010     MECN     H12      HGA3     0.090000        1.0080           0
     76383 WT25     1010     MECN     H13      HGA3     0.090000        1.0080           0
     76384 WT25     1010     MECN     C2       CG1N1    0.360000       12.0110           0
     76385 WT25     1010     MECN     N3       NG1T1   -0.460000       14.0070           0
     76386 WT25     1011     MECN     C1       CG331   -0.170000       12.0110           0
     76387 WT25     1011     MECN     H11      HGA3     0.090000        1.0080           0
     76388 WT25     1011     MECN     H12      HGA3     0.090000        1.0080           0
     76389 WT25     1011     MECN     H13      HGA3     0.090000        1.0080           0
     76390 WT25     1011     MECN     C2       CG1N1    0.360000       12.0110           0
     76391 WT25     1011     MECN     N3       NG1T1   -0.460000       14.0070           0
     76392 WT25     1012     MECN     C1       CG331   -0.170000       12.0110           0
     76393 WT25     1012     MECN     H11      HGA3     0.090000        1.0080           0
     76394 WT25     1012     MECN     H12      HGA3     0.090000        1.0080           0
     76395 WT25     1012     MECN     H13      HGA3     0.090000        1.0080           0
     76396 WT25     1012     MECN     C2       CG1N1    0.360000       12.0110           0
     76397 WT25     1012     MECN     N3       NG1T1   -0.460000       14.0070           0
     76398 WT25     1014     MECN     C1       CG331   -0.170000       12.0110           0
     76399 WT25     1014     MECN     H11      HGA3     0.090000        1.0080           0
     76400 WT25     1014     MECN     H12      HGA3     0.090000        1.0080           0
     76401 WT25     1014     MECN     H13      HGA3     0.090000        1.0080           0
     76402 WT25     1014     MECN     C2       CG1N1    0.360000       12.0110           0
     76403 WT25     1014     MECN     N3       NG1T1   -0.460000       14.0070           0
     76404 WT25     1019     MECN     C1       CG331   -0.170000       12.0110           0
     76405 WT25     1019     MECN     H11      HGA3     0.090000        1.0080           0
     76406 WT25     1019     MECN     H12      HGA3     0.090000        1.0080           0
     76407 WT25     1019     MECN     H13      HGA3     0.090000        1.0080           0
     76408 WT25     1019     MECN     C2       CG1N1    0.360000       12.0110           0
     76409 WT25     1019     MECN     N3       NG1T1   -0.460000       14.0070           0
     76410 WT25     1030     MECN     C1       CG331   -0.170000       12.0110           0
     76411 WT25     1030     MECN     H11      HGA3     0.090000        1.0080           0
     76412 WT25     1030     MECN     H12      HGA3     0.090000        1.0080           0
     76413 WT25     1030     MECN     H13      HGA3     0.090000        1.0080           0
     76414 WT25     1030     MECN     C2       CG1N1    0.360000       12.0110           0
     76415 WT25     1030     MECN     N3       NG1T1   -0.460000       14.0070           0
     76416 WT25     1033     MECN     C1       CG331   -0.170000       12.0110           0
     76417 WT25     1033     MECN     H11      HGA3     0.090000        1.0080           0
     76418 WT25     1033     MECN     H12      HGA3     0.090000        1.0080           0
     76419 WT25     1033     MECN     H13      HGA3     0.090000        1.0080           0
     76420 WT25     1033     MECN     C2       CG1N1    0.360000       12.0110           0
     76421 WT25     1033     MECN     N3       NG1T1   -0.460000       14.0070           0
     76422 WT25     1034     MECN     C1       CG331   -0.170000       12.0110           0
     76423 WT25     1034     MECN     H11      HGA3     0.090000        1.0080           0
     76424 WT25     1034     MECN     H12      HGA3     0.090000        1.0080           0
     76425 WT25     1034     MECN     H13      HGA3     0.090000        1.0080           0
     76426 WT25     1034     MECN     C2       CG1N1    0.360000       12.0110           0
     76427 WT25     1034     MECN     N3       NG1T1   -0.460000       14.0070           0
     76428 WT25     1035     MECN     C1       CG331   -0.170000       12.0110           0
     76429 WT25     1035     MECN     H11      HGA3     0.090000        1.0080           0
     76430 WT25     1035     MECN     H12      HGA3     0.090000        1.0080           0
     76431 WT25     1035     MECN     H13      HGA3     0.090000        1.0080           0
     76432 WT25     1035     MECN     C2       CG1N1    0.360000       12.0110           0
     76433 WT25     1035     MECN     N3       NG1T1   -0.460000       14.0070           0
     76434 WT25     1036     MECN     C1       CG331   -0.170000       12.0110           0
     76435 WT25     1036     MECN     H11      HGA3     0.090000        1.0080           0
     76436 WT25     1036     MECN     H12      HGA3     0.090000        1.0080           0
     76437 WT25     1036     MECN     H13      HGA3     0.090000        1.0080           0
     76438 WT25     1036     MECN     C2       CG1N1    0.360000       12.0110           0
     76439 WT25     1036     MECN     N3       NG1T1   -0.460000       14.0070           0
     76440 WT25     1039     MECN     C1       CG331   -0.170000       12.0110           0
     76441 WT25     1039     MECN     H11      HGA3     0.090000        1.0080           0
     76442 WT25     1039     MECN     H12      HGA3     0.090000        1.0080           0
     76443 WT25     1039     MECN     H13      HGA3     0.090000        1.0080           0
     76444 WT25     1039     MECN     C2       CG1N1    0.360000       12.0110           0
     76445 WT25     1039     MECN     N3       NG1T1   -0.460000       14.0070           0
     76446 WT25     1043     MECN     C1       CG331   -0.170000       12.0110           0
     76447 WT25     1043     MECN     H11      HGA3     0.090000        1.0080           0
     76448 WT25     1043     MECN     H12      HGA3     0.090000        1.0080           0
     76449 WT25     1043     MECN     H13      HGA3     0.090000        1.0080           0
     76450 WT25     1043     MECN     C2       CG1N1    0.360000       12.0110           0
     76451 WT25     1043     MECN     N3       NG1T1   -0.460000       14.0070           0
     76452 WT25     1044     MECN     C1       CG331   -0.170000       12.0110           0
     76453 WT25     1044     MECN     H11      HGA3     0.090000        1.0080           0
     76454 WT25     1044     MECN     H12      HGA3     0.090000        1.0080           0
     76455 WT25     1044     MECN     H13      HGA3     0.090000        1.0080           0
     76456 WT25     1044     MECN     C2       CG1N1    0.360000       12.0110           0
     76457 WT25     1044     MECN     N3       NG1T1   -0.460000       14.0070           0
     76458 WT25     1048     MECN     C1       CG331   -0.170000       12.0110           0
     76459 WT25     1048     MECN     H11      HGA3     0.090000        1.0080           0
     76460 WT25     1048     MECN     H12      HGA3     0.090000        1.0080           0
     76461 WT25     1048     MECN     H13      HGA3     0.090000        1.0080           0
     76462 WT25     1048     MECN     C2       CG1N1    0.360000       12.0110           0
     76463 WT25     1048     MECN     N3       NG1T1   -0.460000       14.0070           0
     76464 WT25     1051     MECN     C1       CG331   -0.170000       12.0110           0
     76465 WT25     1051     MECN     H11      HGA3     0.090000        1.0080           0
     76466 WT25     1051     MECN     H12      HGA3     0.090000        1.0080           0
     76467 WT25     1051     MECN     H13      HGA3     0.090000        1.0080           0
     76468 WT25     1051     MECN     C2       CG1N1    0.360000       12.0110           0
     76469 WT25     1051     MECN     N3       NG1T1   -0.460000       14.0070           0
     76470 WT25     1055     MECN     C1       CG331   -0.170000       12.0110           0
     76471 WT25     1055     MECN     H11      HGA3     0.090000        1.0080           0
     76472 WT25     1055     MECN     H12      HGA3     0.090000        1.0080           0
     76473 WT25     1055     MECN     H13      HGA3     0.090000        1.0080           0
     76474 WT25     1055     MECN     C2       CG1N1    0.360000       12.0110           0
     76475 WT25     1055     MECN     N3       NG1T1   -0.460000       14.0070           0
     76476 WT25     1057     MECN     C1       CG331   -0.170000       12.0110           0
     76477 WT25     1057     MECN     H11      HGA3     0.090000        1.0080           0
     76478 WT25     1057     MECN     H12      HGA3     0.090000        1.0080           0
     76479 WT25     1057     MECN     H13      HGA3     0.090000        1.0080           0
     76480 WT25     1057     MECN     C2       CG1N1    0.360000       12.0110           0
     76481 WT25     1057     MECN     N3       NG1T1   -0.460000       14.0070           0
     76482 WT25     1058     MECN     C1       CG331   -0.170000       12.0110           0
     76483 WT25     1058     MECN     H11      HGA3     0.090000        1.0080           0
     76484 WT25     1058     MECN     H12      HGA3     0.090000        1.0080           0
     76485 WT25     1058     MECN     H13      HGA3     0.090000        1.0080           0
     76486 WT25     1058     MECN     C2       CG1N1    0.360000       12.0110           0
     76487 WT25     1058     MECN     N3       NG1T1   -0.460000       14.0070           0
     76488 WT25     1059     MECN     C1       CG331   -0.170000       12.0110           0
     76489 WT25     1059     MECN     H11      HGA3     0.090000        1.0080           0
     76490 WT25     1059     MECN     H12      HGA3     0.090000        1.0080           0
     76491 WT25     1059     MECN     H13      HGA3     0.090000        1.0080           0
     76492 WT25     1059     MECN     C2       CG1N1    0.360000       12.0110           0
     76493 WT25     1059     MECN     N3       NG1T1   -0.460000       14.0070           0
     76494 WT25     1062     MECN     C1       CG331   -0.170000       12.0110           0
     76495 WT25     1062     MECN     H11      HGA3     0.090000        1.0080           0
     76496 WT25     1062     MECN     H12      HGA3     0.090000        1.0080           0
     76497 WT25     1062     MECN     H13      HGA3     0.090000        1.0080           0
     76498 WT25     1062     MECN     C2       CG1N1    0.360000       12.0110           0
     76499 WT25     1062     MECN     N3       NG1T1   -0.460000       14.0070           0
     76500 WT25     1063     MECN     C1       CG331   -0.170000       12.0110           0
     76501 WT25     1063     MECN     H11      HGA3     0.090000        1.0080           0
     76502 WT25     1063     MECN     H12      HGA3     0.090000        1.0080           0
     76503 WT25     1063     MECN     H13      HGA3     0.090000        1.0080           0
     76504 WT25     1063     MECN     C2       CG1N1    0.360000       12.0110           0
     76505 WT25     1063     MECN     N3       NG1T1   -0.460000       14.0070           0
     76506 WT25     1071     MECN     C1       CG331   -0.170000       12.0110           0
     76507 WT25     1071     MECN     H11      HGA3     0.090000        1.0080           0
     76508 WT25     1071     MECN     H12      HGA3     0.090000        1.0080           0
     76509 WT25     1071     MECN     H13      HGA3     0.090000        1.0080           0
     76510 WT25     1071     MECN     C2       CG1N1    0.360000       12.0110           0
     76511 WT25     1071     MECN     N3       NG1T1   -0.460000       14.0070           0
     76512 WT25     1072     MECN     C1       CG331   -0.170000       12.0110           0
     76513 WT25     1072     MECN     H11      HGA3     0.090000        1.0080           0
     76514 WT25     1072     MECN     H12      HGA3     0.090000        1.0080           0
     76515 WT25     1072     MECN     H13      HGA3     0.090000        1.0080           0
     76516 WT25     1072     MECN     C2       CG1N1    0.360000       12.0110           0
     76517 WT25     1072     MECN     N3       NG1T1   -0.460000       14.0070           0
     76518 WT25     1075     MECN     C1       CG331   -0.170000       12.0110           0
     76519 WT25     1075     MECN     H11      HGA3     0.090000        1.0080           0
     76520 WT25     1075     MECN     H12      HGA3     0.090000        1.0080           0
     76521 WT25     1075     MECN     H13      HGA3     0.090000        1.0080           0
     76522 WT25     1075     MECN     C2       CG1N1    0.360000       12.0110           0
     76523 WT25     1075     MECN     N3       NG1T1   -0.460000       14.0070           0
     76524 WT25     1076     MECN     C1       CG331   -0.170000       12.0110           0
     76525 WT25     1076     MECN     H11      HGA3     0.090000        1.0080           0
     76526 WT25     1076     MECN     H12      HGA3     0.090000        1.0080           0
     76527 WT25     1076     MECN     H13      HGA3     0.090000        1.0080           0
     76528 WT25     1076     MECN     C2       CG1N1    0.360000       12.0110           0
     76529 WT25     1076     MECN     N3       NG1T1   -0.460000       14.0070           0
     76530 WT25     1084     MECN     C1       CG331   -0.170000       12.0110           0
     76531 WT25     1084     MECN     H11      HGA3     0.090000        1.0080           0
     76532 WT25     1084     MECN     H12      HGA3     0.090000        1.0080           0
     76533 WT25     1084     MECN     H13      HGA3     0.090000        1.0080           0
     76534 WT25     1084     MECN     C2       CG1N1    0.360000       12.0110           0
     76535 WT25     1084     MECN     N3       NG1T1   -0.460000       14.0070           0
     76536 WT25     1089     MECN     C1       CG331   -0.170000       12.0110           0
     76537 WT25     1089     MECN     H11      HGA3     0.090000        1.0080           0
     76538 WT25     1089     MECN     H12      HGA3     0.090000        1.0080           0
     76539 WT25     1089     MECN     H13      HGA3     0.090000        1.0080           0
     76540 WT25     1089     MECN     C2       CG1N1    0.360000       12.0110           0
     76541 WT25     1089     MECN     N3       NG1T1   -0.460000       14.0070           0
     76542 WT25     1091     MECN     C1       CG331   -0.170000       12.0110           0
     76543 WT25     1091     MECN     H11      HGA3     0.090000        1.0080           0
     76544 WT25     1091     MECN     H12      HGA3     0.090000        1.0080           0
     76545 WT25     1091     MECN     H13      HGA3     0.090000        1.0080           0
     76546 WT25     1091     MECN     C2       CG1N1    0.360000       12.0110           0
     76547 WT25     1091     MECN     N3       NG1T1   -0.460000       14.0070           0
     76548 WT25     1093     MECN     C1       CG331   -0.170000       12.0110           0
     76549 WT25     1093     MECN     H11      HGA3     0.090000        1.0080           0
     76550 WT25     1093     MECN     H12      HGA3     0.090000        1.0080           0
     76551 WT25     1093     MECN     H13      HGA3     0.090000        1.0080           0
     76552 WT25     1093     MECN     C2       CG1N1    0.360000       12.0110           0
     76553 WT25     1093     MECN     N3       NG1T1   -0.460000       14.0070           0
     76554 WT25     1102     MECN     C1       CG331   -0.170000       12.0110           0
     76555 WT25     1102     MECN     H11      HGA3     0.090000        1.0080           0
     76556 WT25     1102     MECN     H12      HGA3     0.090000        1.0080           0
     76557 WT25     1102     MECN     H13      HGA3     0.090000        1.0080           0
     76558 WT25     1102     MECN     C2       CG1N1    0.360000       12.0110           0
     76559 WT25     1102     MECN     N3       NG1T1   -0.460000       14.0070           0
     76560 WT25     1106     MECN     C1       CG331   -0.170000       12.0110           0
     76561 WT25     1106     MECN     H11      HGA3     0.090000        1.0080           0
     76562 WT25     1106     MECN     H12      HGA3     0.090000        1.0080           0
     76563 WT25     1106     MECN     H13      HGA3     0.090000        1.0080           0
     76564 WT25     1106     MECN     C2       CG1N1    0.360000       12.0110           0
     76565 WT25     1106     MECN     N3       NG1T1   -0.460000       14.0070           0
     76566 WT25     1109     MECN     C1       CG331   -0.170000       12.0110           0
     76567 WT25     1109     MECN     H11      HGA3     0.090000        1.0080           0
     76568 WT25     1109     MECN     H12      HGA3     0.090000        1.0080           0
     76569 WT25     1109     MECN     H13      HGA3     0.090000        1.0080           0
     76570 WT25     1109     MECN     C2       CG1N1    0.360000       12.0110           0
     76571 WT25     1109     MECN     N3       NG1T1   -0.460000       14.0070           0
     76572 WT25     1120     MECN     C1       CG331   -0.170000       12.0110           0
     76573 WT25     1120     MECN     H11      HGA3     0.090000        1.0080           0
     76574 WT25     1120     MECN     H12      HGA3     0.090000        1.0080           0
     76575 WT25     1120     MECN     H13      HGA3     0.090000        1.0080           0
     76576 WT25     1120     MECN     C2       CG1N1    0.360000       12.0110           0
     76577 WT25     1120     MECN     N3       NG1T1   -0.460000       14.0070           0
     76578 WT25     1122     MECN     C1       CG331   -0.170000       12.0110           0
     76579 WT25     1122     MECN     H11      HGA3     0.090000        1.0080           0
     76580 WT25     1122     MECN     H12      HGA3     0.090000        1.0080           0
     76581 WT25     1122     MECN     H13      HGA3     0.090000        1.0080           0
     76582 WT25     1122     MECN     C2       CG1N1    0.360000       12.0110           0
     76583 WT25     1122     MECN     N3       NG1T1   -0.460000       14.0070           0
     76584 WT25     1124     MECN     C1       CG331   -0.170000       12.0110           0
     76585 WT25     1124     MECN     H11      HGA3     0.090000        1.0080           0
     76586 WT25     1124     MECN     H12      HGA3     0.090000        1.0080           0
     76587 WT25     1124     MECN     H13      HGA3     0.090000        1.0080           0
     76588 WT25     1124     MECN     C2       CG1N1    0.360000       12.0110           0
     76589 WT25     1124     MECN     N3       NG1T1   -0.460000       14.0070           0
     76590 WT25     1126     MECN     C1       CG331   -0.170000       12.0110           0
     76591 WT25     1126     MECN     H11      HGA3     0.090000        1.0080           0
     76592 WT25     1126     MECN     H12      HGA3     0.090000        1.0080           0
     76593 WT25     1126     MECN     H13      HGA3     0.090000        1.0080           0
     76594 WT25     1126     MECN     C2       CG1N1    0.360000       12.0110           0
     76595 WT25     1126     MECN     N3       NG1T1   -0.460000       14.0070           0
     76596 WT25     1131     MECN     C1       CG331   -0.170000       12.0110           0
     76597 WT25     1131     MECN     H11      HGA3     0.090000        1.0080           0
     76598 WT25     1131     MECN     H12      HGA3     0.090000        1.0080           0
     76599 WT25     1131     MECN     H13      HGA3     0.090000        1.0080           0
     76600 WT25     1131     MECN     C2       CG1N1    0.360000       12.0110           0
     76601 WT25     1131     MECN     N3       NG1T1   -0.460000       14.0070           0
     76602 WT25     1132     MECN     C1       CG331   -0.170000       12.0110           0
     76603 WT25     1132     MECN     H11      HGA3     0.090000        1.0080           0
     76604 WT25     1132     MECN     H12      HGA3     0.090000        1.0080           0
     76605 WT25     1132     MECN     H13      HGA3     0.090000        1.0080           0
     76606 WT25     1132     MECN     C2       CG1N1    0.360000       12.0110           0
     76607 WT25     1132     MECN     N3       NG1T1   -0.460000       14.0070           0
     76608 WT25     1137     MECN     C1       CG331   -0.170000       12.0110           0
     76609 WT25     1137     MECN     H11      HGA3     0.090000        1.0080           0
     76610 WT25     1137     MECN     H12      HGA3     0.090000        1.0080           0
     76611 WT25     1137     MECN     H13      HGA3     0.090000        1.0080           0
     76612 WT25     1137     MECN     C2       CG1N1    0.360000       12.0110           0
     76613 WT25     1137     MECN     N3       NG1T1   -0.460000       14.0070           0
     76614 WT25     1146     MECN     C1       CG331   -0.170000       12.0110           0
     76615 WT25     1146     MECN     H11      HGA3     0.090000        1.0080           0
     76616 WT25     1146     MECN     H12      HGA3     0.090000        1.0080           0
     76617 WT25     1146     MECN     H13      HGA3     0.090000        1.0080           0
     76618 WT25     1146     MECN     C2       CG1N1    0.360000       12.0110           0
     76619 WT25     1146     MECN     N3       NG1T1   -0.460000       14.0070           0
     76620 WT25     1148     MECN     C1       CG331   -0.170000       12.0110           0
     76621 WT25     1148     MECN     H11      HGA3     0.090000        1.0080           0
     76622 WT25     1148     MECN     H12      HGA3     0.090000        1.0080           0
     76623 WT25     1148     MECN     H13      HGA3     0.090000        1.0080           0
     76624 WT25     1148     MECN     C2       CG1N1    0.360000       12.0110           0
     76625 WT25     1148     MECN     N3       NG1T1   -0.460000       14.0070           0
     76626 WT25     1155     MECN     C1       CG331   -0.170000       12.0110           0
     76627 WT25     1155     MECN     H11      HGA3     0.090000        1.0080           0
     76628 WT25     1155     MECN     H12      HGA3     0.090000        1.0080           0
     76629 WT25     1155     MECN     H13      HGA3     0.090000        1.0080           0
     76630 WT25     1155     MECN     C2       CG1N1    0.360000       12.0110           0
     76631 WT25     1155     MECN     N3       NG1T1   -0.460000       14.0070           0
     76632 WT25     1158     MECN     C1       CG331   -0.170000       12.0110           0
     76633 WT25     1158     MECN     H11      HGA3     0.090000        1.0080           0
     76634 WT25     1158     MECN     H12      HGA3     0.090000        1.0080           0
     76635 WT25     1158     MECN     H13      HGA3     0.090000        1.0080           0
     76636 WT25     1158     MECN     C2       CG1N1    0.360000       12.0110           0
     76637 WT25     1158     MECN     N3       NG1T1   -0.460000       14.0070           0
     76638 WT25     1161     MECN     C1       CG331   -0.170000       12.0110           0
     76639 WT25     1161     MECN     H11      HGA3     0.090000        1.0080           0
     76640 WT25     1161     MECN     H12      HGA3     0.090000        1.0080           0
     76641 WT25     1161     MECN     H13      HGA3     0.090000        1.0080           0
     76642 WT25     1161     MECN     C2       CG1N1    0.360000       12.0110           0
     76643 WT25     1161     MECN     N3       NG1T1   -0.460000       14.0070           0
     76644 WT25     1163     MECN     C1       CG331   -0.170000       12.0110           0
     76645 WT25     1163     MECN     H11      HGA3     0.090000        1.0080           0
     76646 WT25     1163     MECN     H12      HGA3     0.090000        1.0080           0
     76647 WT25     1163     MECN     H13      HGA3     0.090000        1.0080           0
     76648 WT25     1163     MECN     C2       CG1N1    0.360000       12.0110           0
     76649 WT25     1163     MECN     N3       NG1T1   -0.460000       14.0070           0
     76650 WT25     1168     MECN     C1       CG331   -0.170000       12.0110           0
     76651 WT25     1168     MECN     H11      HGA3     0.090000        1.0080           0
     76652 WT25     1168     MECN     H12      HGA3     0.090000        1.0080           0
     76653 WT25     1168     MECN     H13      HGA3     0.090000        1.0080           0
     76654 WT25     1168     MECN     C2       CG1N1    0.360000       12.0110           0
     76655 WT25     1168     MECN     N3       NG1T1   -0.460000       14.0070           0
     76656 WT25     1171     MECN     C1       CG331   -0.170000       12.0110           0
     76657 WT25     1171     MECN     H11      HGA3     0.090000        1.0080           0
     76658 WT25     1171     MECN     H12      HGA3     0.090000        1.0080           0
     76659 WT25     1171     MECN     H13      HGA3     0.090000        1.0080           0
     76660 WT25     1171     MECN     C2       CG1N1    0.360000       12.0110           0
     76661 WT25     1171     MECN     N3       NG1T1   -0.460000       14.0070           0
     76662 WT25     1181     MECN     C1       CG331   -0.170000       12.0110           0
     76663 WT25     1181     MECN     H11      HGA3     0.090000        1.0080           0
     76664 WT25     1181     MECN     H12      HGA3     0.090000        1.0080           0
     76665 WT25     1181     MECN     H13      HGA3     0.090000        1.0080           0
     76666 WT25     1181     MECN     C2       CG1N1    0.360000       12.0110           0
     76667 WT25     1181     MECN     N3       NG1T1   -0.460000       14.0070           0
     76668 WT25     1184     MECN     C1       CG331   -0.170000       12.0110           0
     76669 WT25     1184     MECN     H11      HGA3     0.090000        1.0080           0
     76670 WT25     1184     MECN     H12      HGA3     0.090000        1.0080           0
     76671 WT25     1184     MECN     H13      HGA3     0.090000        1.0080           0
     76672 WT25     1184     MECN     C2       CG1N1    0.360000       12.0110           0
     76673 WT25     1184     MECN     N3       NG1T1   -0.460000       14.0070           0
     76674 WT25     1188     MECN     C1       CG331   -0.170000       12.0110           0
     76675 WT25     1188     MECN     H11      HGA3     0.090000        1.0080           0
     76676 WT25     1188     MECN     H12      HGA3     0.090000        1.0080           0
     76677 WT25     1188     MECN     H13      HGA3     0.090000        1.0080           0
     76678 WT25     1188     MECN     C2       CG1N1    0.360000       12.0110           0
     76679 WT25     1188     MECN     N3       NG1T1   -0.460000       14.0070           0
     76680 WT25     1193     MECN     C1       CG331   -0.170000       12.0110           0
     76681 WT25     1193     MECN     H11      HGA3     0.090000        1.0080           0
     76682 WT25     1193     MECN     H12      HGA3     0.090000        1.0080           0
     76683 WT25     1193     MECN     H13      HGA3     0.090000        1.0080           0
     76684 WT25     1193     MECN     C2       CG1N1    0.360000       12.0110           0
     76685 WT25     1193     MECN     N3       NG1T1   -0.460000       14.0070           0
     76686 WT25     1197     MECN     C1       CG331   -0.170000       12.0110           0
     76687 WT25     1197     MECN     H11      HGA3     0.090000        1.0080           0
     76688 WT25     1197     MECN     H12      HGA3     0.090000        1.0080           0
     76689 WT25     1197     MECN     H13      HGA3     0.090000        1.0080           0
     76690 WT25     1197     MECN     C2       CG1N1    0.360000       12.0110           0
     76691 WT25     1197     MECN     N3       NG1T1   -0.460000       14.0070           0
     76692 WT25     1200     MECN     C1       CG331   -0.170000       12.0110           0
     76693 WT25     1200     MECN     H11      HGA3     0.090000        1.0080           0
     76694 WT25     1200     MECN     H12      HGA3     0.090000        1.0080           0
     76695 WT25     1200     MECN     H13      HGA3     0.090000        1.0080           0
     76696 WT25     1200     MECN     C2       CG1N1    0.360000       12.0110           0
     76697 WT25     1200     MECN     N3       NG1T1   -0.460000       14.0070           0
     76698 WT25     1207     MECN     C1       CG331   -0.170000       12.0110           0
     76699 WT25     1207     MECN     H11      HGA3     0.090000        1.0080           0
     76700 WT25     1207     MECN     H12      HGA3     0.090000        1.0080           0
     76701 WT25     1207     MECN     H13      HGA3     0.090000        1.0080           0
     76702 WT25     1207     MECN     C2       CG1N1    0.360000       12.0110           0
     76703 WT25     1207     MECN     N3       NG1T1   -0.460000       14.0070           0
     76704 WT25     1210     MECN     C1       CG331   -0.170000       12.0110           0
     76705 WT25     1210     MECN     H11      HGA3     0.090000        1.0080           0
     76706 WT25     1210     MECN     H12      HGA3     0.090000        1.0080           0
     76707 WT25     1210     MECN     H13      HGA3     0.090000        1.0080           0
     76708 WT25     1210     MECN     C2       CG1N1    0.360000       12.0110           0
     76709 WT25     1210     MECN     N3       NG1T1   -0.460000       14.0070           0
     76710 WT25     1211     MECN     C1       CG331   -0.170000       12.0110           0
     76711 WT25     1211     MECN     H11      HGA3     0.090000        1.0080           0
     76712 WT25     1211     MECN     H12      HGA3     0.090000        1.0080           0
     76713 WT25     1211     MECN     H13      HGA3     0.090000        1.0080           0
     76714 WT25     1211     MECN     C2       CG1N1    0.360000       12.0110           0
     76715 WT25     1211     MECN     N3       NG1T1   -0.460000       14.0070           0
     76716 WT25     1220     MECN     C1       CG331   -0.170000       12.0110           0
     76717 WT25     1220     MECN     H11      HGA3     0.090000        1.0080           0
     76718 WT25     1220     MECN     H12      HGA3     0.090000        1.0080           0
     76719 WT25     1220     MECN     H13      HGA3     0.090000        1.0080           0
     76720 WT25     1220     MECN     C2       CG1N1    0.360000       12.0110           0
     76721 WT25     1220     MECN     N3       NG1T1   -0.460000       14.0070           0
     76722 WT25     1222     MECN     C1       CG331   -0.170000       12.0110           0
     76723 WT25     1222     MECN     H11      HGA3     0.090000        1.0080           0
     76724 WT25     1222     MECN     H12      HGA3     0.090000        1.0080           0
     76725 WT25     1222     MECN     H13      HGA3     0.090000        1.0080           0
     76726 WT25     1222     MECN     C2       CG1N1    0.360000       12.0110           0
     76727 WT25     1222     MECN     N3       NG1T1   -0.460000       14.0070           0
     76728 WT25     1229     MECN     C1       CG331   -0.170000       12.0110           0
     76729 WT25     1229     MECN     H11      HGA3     0.090000        1.0080           0
     76730 WT25     1229     MECN     H12      HGA3     0.090000        1.0080           0
     76731 WT25     1229     MECN     H13      HGA3     0.090000        1.0080           0
     76732 WT25     1229     MECN     C2       CG1N1    0.360000       12.0110           0
     76733 WT25     1229     MECN     N3       NG1T1   -0.460000       14.0070           0
     76734 WT25     1230     MECN     C1       CG331   -0.170000       12.0110           0
     76735 WT25     1230     MECN     H11      HGA3     0.090000        1.0080           0
     76736 WT25     1230     MECN     H12      HGA3     0.090000        1.0080           0
     76737 WT25     1230     MECN     H13      HGA3     0.090000        1.0080           0
     76738 WT25     1230     MECN     C2       CG1N1    0.360000       12.0110           0
     76739 WT25     1230     MECN     N3       NG1T1   -0.460000       14.0070           0
     76740 WT25     1239     MECN     C1       CG331   -0.170000       12.0110           0
     76741 WT25     1239     MECN     H11      HGA3     0.090000        1.0080           0
     76742 WT25     1239     MECN     H12      HGA3     0.090000        1.0080           0
     76743 WT25     1239     MECN     H13      HGA3     0.090000        1.0080           0
     76744 WT25     1239     MECN     C2       CG1N1    0.360000       12.0110           0
     76745 WT25     1239     MECN     N3       NG1T1   -0.460000       14.0070           0
     76746 WT25     1253     MECN     C1       CG331   -0.170000       12.0110           0
     76747 WT25     1253     MECN     H11      HGA3     0.090000        1.0080           0
     76748 WT25     1253     MECN     H12      HGA3     0.090000        1.0080           0
     76749 WT25     1253     MECN     H13      HGA3     0.090000        1.0080           0
     76750 WT25     1253     MECN     C2       CG1N1    0.360000       12.0110           0
     76751 WT25     1253     MECN     N3       NG1T1   -0.460000       14.0070           0
     76752 WT25     1261     MECN     C1       CG331   -0.170000       12.0110           0
     76753 WT25     1261     MECN     H11      HGA3     0.090000        1.0080           0
     76754 WT25     1261     MECN     H12      HGA3     0.090000        1.0080           0
     76755 WT25     1261     MECN     H13      HGA3     0.090000        1.0080           0
     76756 WT25     1261     MECN     C2       CG1N1    0.360000       12.0110           0
     76757 WT25     1261     MECN     N3       NG1T1   -0.460000       14.0070           0
     76758 WT25     1263     MECN     C1       CG331   -0.170000       12.0110           0
     76759 WT25     1263     MECN     H11      HGA3     0.090000        1.0080           0
     76760 WT25     1263     MECN     H12      HGA3     0.090000        1.0080           0
     76761 WT25     1263     MECN     H13      HGA3     0.090000        1.0080           0
     76762 WT25     1263     MECN     C2       CG1N1    0.360000       12.0110           0
     76763 WT25     1263     MECN     N3       NG1T1   -0.460000       14.0070           0
     76764 WT25     1264     MECN     C1       CG331   -0.170000       12.0110           0
     76765 WT25     1264     MECN     H11      HGA3     0.090000        1.0080           0
     76766 WT25     1264     MECN     H12      HGA3     0.090000        1.0080           0
     76767 WT25     1264     MECN     H13      HGA3     0.090000        1.0080           0
     76768 WT25     1264     MECN     C2       CG1N1    0.360000       12.0110           0
     76769 WT25     1264     MECN     N3       NG1T1   -0.460000       14.0070           0
     76770 WT25     1265     MECN     C1       CG331   -0.170000       12.0110           0
     76771 WT25     1265     MECN     H11      HGA3     0.090000        1.0080           0
     76772 WT25     1265     MECN     H12      HGA3     0.090000        1.0080           0
     76773 WT25     1265     MECN     H13      HGA3     0.090000        1.0080           0
     76774 WT25     1265     MECN     C2       CG1N1    0.360000       12.0110           0
     76775 WT25     1265     MECN     N3       NG1T1   -0.460000       14.0070           0
     76776 WT25     1270     MECN     C1       CG331   -0.170000       12.0110           0
     76777 WT25     1270     MECN     H11      HGA3     0.090000        1.0080           0
     76778 WT25     1270     MECN     H12      HGA3     0.090000        1.0080           0
     76779 WT25     1270     MECN     H13      HGA3     0.090000        1.0080           0
     76780 WT25     1270     MECN     C2       CG1N1    0.360000       12.0110           0
     76781 WT25     1270     MECN     N3       NG1T1   -0.460000       14.0070           0
     76782 WT25     1271     MECN     C1       CG331   -0.170000       12.0110           0
     76783 WT25     1271     MECN     H11      HGA3     0.090000        1.0080           0
     76784 WT25     1271     MECN     H12      HGA3     0.090000        1.0080           0
     76785 WT25     1271     MECN     H13      HGA3     0.090000        1.0080           0
     76786 WT25     1271     MECN     C2       CG1N1    0.360000       12.0110           0
     76787 WT25     1271     MECN     N3       NG1T1   -0.460000       14.0070           0
     76788 WT25     1273     MECN     C1       CG331   -0.170000       12.0110           0
     76789 WT25     1273     MECN     H11      HGA3     0.090000        1.0080           0
     76790 WT25     1273     MECN     H12      HGA3     0.090000        1.0080           0
     76791 WT25     1273     MECN     H13      HGA3     0.090000        1.0080           0
     76792 WT25     1273     MECN     C2       CG1N1    0.360000       12.0110           0
     76793 WT25     1273     MECN     N3       NG1T1   -0.460000       14.0070           0
     76794 WT25     1274     MECN     C1       CG331   -0.170000       12.0110           0
     76795 WT25     1274     MECN     H11      HGA3     0.090000        1.0080           0
     76796 WT25     1274     MECN     H12      HGA3     0.090000        1.0080           0
     76797 WT25     1274     MECN     H13      HGA3     0.090000        1.0080           0
     76798 WT25     1274     MECN     C2       CG1N1    0.360000       12.0110           0
     76799 WT25     1274     MECN     N3       NG1T1   -0.460000       14.0070           0
     76800 WT25     1287     MECN     C1       CG331   -0.170000       12.0110           0
     76801 WT25     1287     MECN     H11      HGA3     0.090000        1.0080           0
     76802 WT25     1287     MECN     H12      HGA3     0.090000        1.0080           0
     76803 WT25     1287     MECN     H13      HGA3     0.090000        1.0080           0
     76804 WT25     1287     MECN     C2       CG1N1    0.360000       12.0110           0
     76805 WT25     1287     MECN     N3       NG1T1   -0.460000       14.0070           0
     76806 WT25     1292     MECN     C1       CG331   -0.170000       12.0110           0
     76807 WT25     1292     MECN     H11      HGA3     0.090000        1.0080           0
     76808 WT25     1292     MECN     H12      HGA3     0.090000        1.0080           0
     76809 WT25     1292     MECN     H13      HGA3     0.090000        1.0080           0
     76810 WT25     1292     MECN     C2       CG1N1    0.360000       12.0110           0
     76811 WT25     1292     MECN     N3       NG1T1   -0.460000       14.0070           0
     76812 WT25     1293     MECN     C1       CG331   -0.170000       12.0110           0
     76813 WT25     1293     MECN     H11      HGA3     0.090000        1.0080           0
     76814 WT25     1293     MECN     H12      HGA3     0.090000        1.0080           0
     76815 WT25     1293     MECN     H13      HGA3     0.090000        1.0080           0
     76816 WT25     1293     MECN     C2       CG1N1    0.360000       12.0110           0
     76817 WT25     1293     MECN     N3       NG1T1   -0.460000       14.0070           0
     76818 WT25     1295     MECN     C1       CG331   -0.170000       12.0110           0
     76819 WT25     1295     MECN     H11      HGA3     0.090000        1.0080           0
     76820 WT25     1295     MECN     H12      HGA3     0.090000        1.0080           0
     76821 WT25     1295     MECN     H13      HGA3     0.090000        1.0080           0
     76822 WT25     1295     MECN     C2       CG1N1    0.360000       12.0110           0
     76823 WT25     1295     MECN     N3       NG1T1   -0.460000       14.0070           0
     76824 WT25     1298     MECN     C1       CG331   -0.170000       12.0110           0
     76825 WT25     1298     MECN     H11      HGA3     0.090000        1.0080           0
     76826 WT25     1298     MECN     H12      HGA3     0.090000        1.0080           0
     76827 WT25     1298     MECN     H13      HGA3     0.090000        1.0080           0
     76828 WT25     1298     MECN     C2       CG1N1    0.360000       12.0110           0
     76829 WT25     1298     MECN     N3       NG1T1   -0.460000       14.0070           0
     76830 WT25     1300     MECN     C1       CG331   -0.170000       12.0110           0
     76831 WT25     1300     MECN     H11      HGA3     0.090000        1.0080           0
     76832 WT25     1300     MECN     H12      HGA3     0.090000        1.0080           0
     76833 WT25     1300     MECN     H13      HGA3     0.090000        1.0080           0
     76834 WT25     1300     MECN     C2       CG1N1    0.360000       12.0110           0
     76835 WT25     1300     MECN     N3       NG1T1   -0.460000       14.0070           0
     76836 WT25     1305     MECN     C1       CG331   -0.170000       12.0110           0
     76837 WT25     1305     MECN     H11      HGA3     0.090000        1.0080           0
     76838 WT25     1305     MECN     H12      HGA3     0.090000        1.0080           0
     76839 WT25     1305     MECN     H13      HGA3     0.090000        1.0080           0
     76840 WT25     1305     MECN     C2       CG1N1    0.360000       12.0110           0
     76841 WT25     1305     MECN     N3       NG1T1   -0.460000       14.0070           0
     76842 WT25     1310     MECN     C1       CG331   -0.170000       12.0110           0
     76843 WT25     1310     MECN     H11      HGA3     0.090000        1.0080           0
     76844 WT25     1310     MECN     H12      HGA3     0.090000        1.0080           0
     76845 WT25     1310     MECN     H13      HGA3     0.090000        1.0080           0
     76846 WT25     1310     MECN     C2       CG1N1    0.360000       12.0110           0
     76847 WT25     1310     MECN     N3       NG1T1   -0.460000       14.0070           0
     76848 WT25     1315     MECN     C1       CG331   -0.170000       12.0110           0
     76849 WT25     1315     MECN     H11      HGA3     0.090000        1.0080           0
     76850 WT25     1315     MECN     H12      HGA3     0.090000        1.0080           0
     76851 WT25     1315     MECN     H13      HGA3     0.090000        1.0080           0
     76852 WT25     1315     MECN     C2       CG1N1    0.360000       12.0110           0
     76853 WT25     1315     MECN     N3       NG1T1   -0.460000       14.0070           0
     76854 WT25     1325     MECN     C1       CG331   -0.170000       12.0110           0
     76855 WT25     1325     MECN     H11      HGA3     0.090000        1.0080           0
     76856 WT25     1325     MECN     H12      HGA3     0.090000        1.0080           0
     76857 WT25     1325     MECN     H13      HGA3     0.090000        1.0080           0
     76858 WT25     1325     MECN     C2       CG1N1    0.360000       12.0110           0
     76859 WT25     1325     MECN     N3       NG1T1   -0.460000       14.0070           0
     76860 WT25     1328     MECN     C1       CG331   -0.170000       12.0110           0
     76861 WT25     1328     MECN     H11      HGA3     0.090000        1.0080           0
     76862 WT25     1328     MECN     H12      HGA3     0.090000        1.0080           0
     76863 WT25     1328     MECN     H13      HGA3     0.090000        1.0080           0
     76864 WT25     1328     MECN     C2       CG1N1    0.360000       12.0110           0
     76865 WT25     1328     MECN     N3       NG1T1   -0.460000       14.0070           0
     76866 WT26     1        MECN     C1       CG331   -0.170000       12.0110           0
     76867 WT26     1        MECN     H11      HGA3     0.090000        1.0080           0
     76868 WT26     1        MECN     H12      HGA3     0.090000        1.0080           0
     76869 WT26     1        MECN     H13      HGA3     0.090000        1.0080           0
     76870 WT26     1        MECN     C2       CG1N1    0.360000       12.0110           0
     76871 WT26     1        MECN     N3       NG1T1   -0.460000       14.0070           0
     76872 WT26     2        MECN     C1       CG331   -0.170000       12.0110           0
     76873 WT26     2        MECN     H11      HGA3     0.090000        1.0080           0
     76874 WT26     2        MECN     H12      HGA3     0.090000        1.0080           0
     76875 WT26     2        MECN     H13      HGA3     0.090000        1.0080           0
     76876 WT26     2        MECN     C2       CG1N1    0.360000       12.0110           0
     76877 WT26     2        MECN     N3       NG1T1   -0.460000       14.0070           0
     76878 WT26     5        MECN     C1       CG331   -0.170000       12.0110           0
     76879 WT26     5        MECN     H11      HGA3     0.090000        1.0080           0
     76880 WT26     5        MECN     H12      HGA3     0.090000        1.0080           0
     76881 WT26     5        MECN     H13      HGA3     0.090000        1.0080           0
     76882 WT26     5        MECN     C2       CG1N1    0.360000       12.0110           0
     76883 WT26     5        MECN     N3       NG1T1   -0.460000       14.0070           0
     76884 WT26     6        MECN     C1       CG331   -0.170000       12.0110           0
     76885 WT26     6        MECN     H11      HGA3     0.090000        1.0080           0
     76886 WT26     6        MECN     H12      HGA3     0.090000        1.0080           0
     76887 WT26     6        MECN     H13      HGA3     0.090000        1.0080           0
     76888 WT26     6        MECN     C2       CG1N1    0.360000       12.0110           0
     76889 WT26     6        MECN     N3       NG1T1   -0.460000       14.0070           0
     76890 WT26     9        MECN     C1       CG331   -0.170000       12.0110           0
     76891 WT26     9        MECN     H11      HGA3     0.090000        1.0080           0
     76892 WT26     9        MECN     H12      HGA3     0.090000        1.0080           0
     76893 WT26     9        MECN     H13      HGA3     0.090000        1.0080           0
     76894 WT26     9        MECN     C2       CG1N1    0.360000       12.0110           0
     76895 WT26     9        MECN     N3       NG1T1   -0.460000       14.0070           0
     76896 WT26     11       MECN     C1       CG331   -0.170000       12.0110           0
     76897 WT26     11       MECN     H11      HGA3     0.090000        1.0080           0
     76898 WT26     11       MECN     H12      HGA3     0.090000        1.0080           0
     76899 WT26     11       MECN     H13      HGA3     0.090000        1.0080           0
     76900 WT26     11       MECN     C2       CG1N1    0.360000       12.0110           0
     76901 WT26     11       MECN     N3       NG1T1   -0.460000       14.0070           0
     76902 WT26     13       MECN     C1       CG331   -0.170000       12.0110           0
     76903 WT26     13       MECN     H11      HGA3     0.090000        1.0080           0
     76904 WT26     13       MECN     H12      HGA3     0.090000        1.0080           0
     76905 WT26     13       MECN     H13      HGA3     0.090000        1.0080           0
     76906 WT26     13       MECN     C2       CG1N1    0.360000       12.0110           0
     76907 WT26     13       MECN     N3       NG1T1   -0.460000       14.0070           0
     76908 WT26     15       MECN     C1       CG331   -0.170000       12.0110           0
     76909 WT26     15       MECN     H11      HGA3     0.090000        1.0080           0
     76910 WT26     15       MECN     H12      HGA3     0.090000        1.0080           0
     76911 WT26     15       MECN     H13      HGA3     0.090000        1.0080           0
     76912 WT26     15       MECN     C2       CG1N1    0.360000       12.0110           0
     76913 WT26     15       MECN     N3       NG1T1   -0.460000       14.0070           0
     76914 WT26     18       MECN     C1       CG331   -0.170000       12.0110           0
     76915 WT26     18       MECN     H11      HGA3     0.090000        1.0080           0
     76916 WT26     18       MECN     H12      HGA3     0.090000        1.0080           0
     76917 WT26     18       MECN     H13      HGA3     0.090000        1.0080           0
     76918 WT26     18       MECN     C2       CG1N1    0.360000       12.0110           0
     76919 WT26     18       MECN     N3       NG1T1   -0.460000       14.0070           0
     76920 WT26     19       MECN     C1       CG331   -0.170000       12.0110           0
     76921 WT26     19       MECN     H11      HGA3     0.090000        1.0080           0
     76922 WT26     19       MECN     H12      HGA3     0.090000        1.0080           0
     76923 WT26     19       MECN     H13      HGA3     0.090000        1.0080           0
     76924 WT26     19       MECN     C2       CG1N1    0.360000       12.0110           0
     76925 WT26     19       MECN     N3       NG1T1   -0.460000       14.0070           0
     76926 WT26     20       MECN     C1       CG331   -0.170000       12.0110           0
     76927 WT26     20       MECN     H11      HGA3     0.090000        1.0080           0
     76928 WT26     20       MECN     H12      HGA3     0.090000        1.0080           0
     76929 WT26     20       MECN     H13      HGA3     0.090000        1.0080           0
     76930 WT26     20       MECN     C2       CG1N1    0.360000       12.0110           0
     76931 WT26     20       MECN     N3       NG1T1   -0.460000       14.0070           0
     76932 WT26     24       MECN     C1       CG331   -0.170000       12.0110           0
     76933 WT26     24       MECN     H11      HGA3     0.090000        1.0080           0
     76934 WT26     24       MECN     H12      HGA3     0.090000        1.0080           0
     76935 WT26     24       MECN     H13      HGA3     0.090000        1.0080           0
     76936 WT26     24       MECN     C2       CG1N1    0.360000       12.0110           0
     76937 WT26     24       MECN     N3       NG1T1   -0.460000       14.0070           0
     76938 WT26     27       MECN     C1       CG331   -0.170000       12.0110           0
     76939 WT26     27       MECN     H11      HGA3     0.090000        1.0080           0
     76940 WT26     27       MECN     H12      HGA3     0.090000        1.0080           0
     76941 WT26     27       MECN     H13      HGA3     0.090000        1.0080           0
     76942 WT26     27       MECN     C2       CG1N1    0.360000       12.0110           0
     76943 WT26     27       MECN     N3       NG1T1   -0.460000       14.0070           0
     76944 WT26     28       MECN     C1       CG331   -0.170000       12.0110           0
     76945 WT26     28       MECN     H11      HGA3     0.090000        1.0080           0
     76946 WT26     28       MECN     H12      HGA3     0.090000        1.0080           0
     76947 WT26     28       MECN     H13      HGA3     0.090000        1.0080           0
     76948 WT26     28       MECN     C2       CG1N1    0.360000       12.0110           0
     76949 WT26     28       MECN     N3       NG1T1   -0.460000       14.0070           0
     76950 WT26     30       MECN     C1       CG331   -0.170000       12.0110           0
     76951 WT26     30       MECN     H11      HGA3     0.090000        1.0080           0
     76952 WT26     30       MECN     H12      HGA3     0.090000        1.0080           0
     76953 WT26     30       MECN     H13      HGA3     0.090000        1.0080           0
     76954 WT26     30       MECN     C2       CG1N1    0.360000       12.0110           0
     76955 WT26     30       MECN     N3       NG1T1   -0.460000       14.0070           0
     76956 WT26     32       MECN     C1       CG331   -0.170000       12.0110           0
     76957 WT26     32       MECN     H11      HGA3     0.090000        1.0080           0
     76958 WT26     32       MECN     H12      HGA3     0.090000        1.0080           0
     76959 WT26     32       MECN     H13      HGA3     0.090000        1.0080           0
     76960 WT26     32       MECN     C2       CG1N1    0.360000       12.0110           0
     76961 WT26     32       MECN     N3       NG1T1   -0.460000       14.0070           0
     76962 WT26     35       MECN     C1       CG331   -0.170000       12.0110           0
     76963 WT26     35       MECN     H11      HGA3     0.090000        1.0080           0
     76964 WT26     35       MECN     H12      HGA3     0.090000        1.0080           0
     76965 WT26     35       MECN     H13      HGA3     0.090000        1.0080           0
     76966 WT26     35       MECN     C2       CG1N1    0.360000       12.0110           0
     76967 WT26     35       MECN     N3       NG1T1   -0.460000       14.0070           0
     76968 WT26     36       MECN     C1       CG331   -0.170000       12.0110           0
     76969 WT26     36       MECN     H11      HGA3     0.090000        1.0080           0
     76970 WT26     36       MECN     H12      HGA3     0.090000        1.0080           0
     76971 WT26     36       MECN     H13      HGA3     0.090000        1.0080           0
     76972 WT26     36       MECN     C2       CG1N1    0.360000       12.0110           0
     76973 WT26     36       MECN     N3       NG1T1   -0.460000       14.0070           0
     76974 WT26     37       MECN     C1       CG331   -0.170000       12.0110           0
     76975 WT26     37       MECN     H11      HGA3     0.090000        1.0080           0
     76976 WT26     37       MECN     H12      HGA3     0.090000        1.0080           0
     76977 WT26     37       MECN     H13      HGA3     0.090000        1.0080           0
     76978 WT26     37       MECN     C2       CG1N1    0.360000       12.0110           0
     76979 WT26     37       MECN     N3       NG1T1   -0.460000       14.0070           0
     76980 WT26     40       MECN     C1       CG331   -0.170000       12.0110           0
     76981 WT26     40       MECN     H11      HGA3     0.090000        1.0080           0
     76982 WT26     40       MECN     H12      HGA3     0.090000        1.0080           0
     76983 WT26     40       MECN     H13      HGA3     0.090000        1.0080           0
     76984 WT26     40       MECN     C2       CG1N1    0.360000       12.0110           0
     76985 WT26     40       MECN     N3       NG1T1   -0.460000       14.0070           0
     76986 WT26     41       MECN     C1       CG331   -0.170000       12.0110           0
     76987 WT26     41       MECN     H11      HGA3     0.090000        1.0080           0
     76988 WT26     41       MECN     H12      HGA3     0.090000        1.0080           0
     76989 WT26     41       MECN     H13      HGA3     0.090000        1.0080           0
     76990 WT26     41       MECN     C2       CG1N1    0.360000       12.0110           0
     76991 WT26     41       MECN     N3       NG1T1   -0.460000       14.0070           0
     76992 WT26     43       MECN     C1       CG331   -0.170000       12.0110           0
     76993 WT26     43       MECN     H11      HGA3     0.090000        1.0080           0
     76994 WT26     43       MECN     H12      HGA3     0.090000        1.0080           0
     76995 WT26     43       MECN     H13      HGA3     0.090000        1.0080           0
     76996 WT26     43       MECN     C2       CG1N1    0.360000       12.0110           0
     76997 WT26     43       MECN     N3       NG1T1   -0.460000       14.0070           0
     76998 WT26     45       MECN     C1       CG331   -0.170000       12.0110           0
     76999 WT26     45       MECN     H11      HGA3     0.090000        1.0080           0
     77000 WT26     45       MECN     H12      HGA3     0.090000        1.0080           0
     77001 WT26     45       MECN     H13      HGA3     0.090000        1.0080           0
     77002 WT26     45       MECN     C2       CG1N1    0.360000       12.0110           0
     77003 WT26     45       MECN     N3       NG1T1   -0.460000       14.0070           0
     77004 WT26     46       MECN     C1       CG331   -0.170000       12.0110           0
     77005 WT26     46       MECN     H11      HGA3     0.090000        1.0080           0
     77006 WT26     46       MECN     H12      HGA3     0.090000        1.0080           0
     77007 WT26     46       MECN     H13      HGA3     0.090000        1.0080           0
     77008 WT26     46       MECN     C2       CG1N1    0.360000       12.0110           0
     77009 WT26     46       MECN     N3       NG1T1   -0.460000       14.0070           0
     77010 WT26     48       MECN     C1       CG331   -0.170000       12.0110           0
     77011 WT26     48       MECN     H11      HGA3     0.090000        1.0080           0
     77012 WT26     48       MECN     H12      HGA3     0.090000        1.0080           0
     77013 WT26     48       MECN     H13      HGA3     0.090000        1.0080           0
     77014 WT26     48       MECN     C2       CG1N1    0.360000       12.0110           0
     77015 WT26     48       MECN     N3       NG1T1   -0.460000       14.0070           0
     77016 WT26     57       MECN     C1       CG331   -0.170000       12.0110           0
     77017 WT26     57       MECN     H11      HGA3     0.090000        1.0080           0
     77018 WT26     57       MECN     H12      HGA3     0.090000        1.0080           0
     77019 WT26     57       MECN     H13      HGA3     0.090000        1.0080           0
     77020 WT26     57       MECN     C2       CG1N1    0.360000       12.0110           0
     77021 WT26     57       MECN     N3       NG1T1   -0.460000       14.0070           0
     77022 WT26     59       MECN     C1       CG331   -0.170000       12.0110           0
     77023 WT26     59       MECN     H11      HGA3     0.090000        1.0080           0
     77024 WT26     59       MECN     H12      HGA3     0.090000        1.0080           0
     77025 WT26     59       MECN     H13      HGA3     0.090000        1.0080           0
     77026 WT26     59       MECN     C2       CG1N1    0.360000       12.0110           0
     77027 WT26     59       MECN     N3       NG1T1   -0.460000       14.0070           0
     77028 WT26     60       MECN     C1       CG331   -0.170000       12.0110           0
     77029 WT26     60       MECN     H11      HGA3     0.090000        1.0080           0
     77030 WT26     60       MECN     H12      HGA3     0.090000        1.0080           0
     77031 WT26     60       MECN     H13      HGA3     0.090000        1.0080           0
     77032 WT26     60       MECN     C2       CG1N1    0.360000       12.0110           0
     77033 WT26     60       MECN     N3       NG1T1   -0.460000       14.0070           0
     77034 WT26     63       MECN     C1       CG331   -0.170000       12.0110           0
     77035 WT26     63       MECN     H11      HGA3     0.090000        1.0080           0
     77036 WT26     63       MECN     H12      HGA3     0.090000        1.0080           0
     77037 WT26     63       MECN     H13      HGA3     0.090000        1.0080           0
     77038 WT26     63       MECN     C2       CG1N1    0.360000       12.0110           0
     77039 WT26     63       MECN     N3       NG1T1   -0.460000       14.0070           0
     77040 WT26     65       MECN     C1       CG331   -0.170000       12.0110           0
     77041 WT26     65       MECN     H11      HGA3     0.090000        1.0080           0
     77042 WT26     65       MECN     H12      HGA3     0.090000        1.0080           0
     77043 WT26     65       MECN     H13      HGA3     0.090000        1.0080           0
     77044 WT26     65       MECN     C2       CG1N1    0.360000       12.0110           0
     77045 WT26     65       MECN     N3       NG1T1   -0.460000       14.0070           0
     77046 WT26     66       MECN     C1       CG331   -0.170000       12.0110           0
     77047 WT26     66       MECN     H11      HGA3     0.090000        1.0080           0
     77048 WT26     66       MECN     H12      HGA3     0.090000        1.0080           0
     77049 WT26     66       MECN     H13      HGA3     0.090000        1.0080           0
     77050 WT26     66       MECN     C2       CG1N1    0.360000       12.0110           0
     77051 WT26     66       MECN     N3       NG1T1   -0.460000       14.0070           0
     77052 WT26     67       MECN     C1       CG331   -0.170000       12.0110           0
     77053 WT26     67       MECN     H11      HGA3     0.090000        1.0080           0
     77054 WT26     67       MECN     H12      HGA3     0.090000        1.0080           0
     77055 WT26     67       MECN     H13      HGA3     0.090000        1.0080           0
     77056 WT26     67       MECN     C2       CG1N1    0.360000       12.0110           0
     77057 WT26     67       MECN     N3       NG1T1   -0.460000       14.0070           0
     77058 WT26     70       MECN     C1       CG331   -0.170000       12.0110           0
     77059 WT26     70       MECN     H11      HGA3     0.090000        1.0080           0
     77060 WT26     70       MECN     H12      HGA3     0.090000        1.0080           0
     77061 WT26     70       MECN     H13      HGA3     0.090000        1.0080           0
     77062 WT26     70       MECN     C2       CG1N1    0.360000       12.0110           0
     77063 WT26     70       MECN     N3       NG1T1   -0.460000       14.0070           0
     77064 WT26     71       MECN     C1       CG331   -0.170000       12.0110           0
     77065 WT26     71       MECN     H11      HGA3     0.090000        1.0080           0
     77066 WT26     71       MECN     H12      HGA3     0.090000        1.0080           0
     77067 WT26     71       MECN     H13      HGA3     0.090000        1.0080           0
     77068 WT26     71       MECN     C2       CG1N1    0.360000       12.0110           0
     77069 WT26     71       MECN     N3       NG1T1   -0.460000       14.0070           0
     77070 WT26     72       MECN     C1       CG331   -0.170000       12.0110           0
     77071 WT26     72       MECN     H11      HGA3     0.090000        1.0080           0
     77072 WT26     72       MECN     H12      HGA3     0.090000        1.0080           0
     77073 WT26     72       MECN     H13      HGA3     0.090000        1.0080           0
     77074 WT26     72       MECN     C2       CG1N1    0.360000       12.0110           0
     77075 WT26     72       MECN     N3       NG1T1   -0.460000       14.0070           0
     77076 WT26     75       MECN     C1       CG331   -0.170000       12.0110           0
     77077 WT26     75       MECN     H11      HGA3     0.090000        1.0080           0
     77078 WT26     75       MECN     H12      HGA3     0.090000        1.0080           0
     77079 WT26     75       MECN     H13      HGA3     0.090000        1.0080           0
     77080 WT26     75       MECN     C2       CG1N1    0.360000       12.0110           0
     77081 WT26     75       MECN     N3       NG1T1   -0.460000       14.0070           0
     77082 WT26     78       MECN     C1       CG331   -0.170000       12.0110           0
     77083 WT26     78       MECN     H11      HGA3     0.090000        1.0080           0
     77084 WT26     78       MECN     H12      HGA3     0.090000        1.0080           0
     77085 WT26     78       MECN     H13      HGA3     0.090000        1.0080           0
     77086 WT26     78       MECN     C2       CG1N1    0.360000       12.0110           0
     77087 WT26     78       MECN     N3       NG1T1   -0.460000       14.0070           0
     77088 WT26     82       MECN     C1       CG331   -0.170000       12.0110           0
     77089 WT26     82       MECN     H11      HGA3     0.090000        1.0080           0
     77090 WT26     82       MECN     H12      HGA3     0.090000        1.0080           0
     77091 WT26     82       MECN     H13      HGA3     0.090000        1.0080           0
     77092 WT26     82       MECN     C2       CG1N1    0.360000       12.0110           0
     77093 WT26     82       MECN     N3       NG1T1   -0.460000       14.0070           0
     77094 WT26     83       MECN     C1       CG331   -0.170000       12.0110           0
     77095 WT26     83       MECN     H11      HGA3     0.090000        1.0080           0
     77096 WT26     83       MECN     H12      HGA3     0.090000        1.0080           0
     77097 WT26     83       MECN     H13      HGA3     0.090000        1.0080           0
     77098 WT26     83       MECN     C2       CG1N1    0.360000       12.0110           0
     77099 WT26     83       MECN     N3       NG1T1   -0.460000       14.0070           0
     77100 WT26     86       MECN     C1       CG331   -0.170000       12.0110           0
     77101 WT26     86       MECN     H11      HGA3     0.090000        1.0080           0
     77102 WT26     86       MECN     H12      HGA3     0.090000        1.0080           0
     77103 WT26     86       MECN     H13      HGA3     0.090000        1.0080           0
     77104 WT26     86       MECN     C2       CG1N1    0.360000       12.0110           0
     77105 WT26     86       MECN     N3       NG1T1   -0.460000       14.0070           0
     77106 WT26     88       MECN     C1       CG331   -0.170000       12.0110           0
     77107 WT26     88       MECN     H11      HGA3     0.090000        1.0080           0
     77108 WT26     88       MECN     H12      HGA3     0.090000        1.0080           0
     77109 WT26     88       MECN     H13      HGA3     0.090000        1.0080           0
     77110 WT26     88       MECN     C2       CG1N1    0.360000       12.0110           0
     77111 WT26     88       MECN     N3       NG1T1   -0.460000       14.0070           0
     77112 WT26     89       MECN     C1       CG331   -0.170000       12.0110           0
     77113 WT26     89       MECN     H11      HGA3     0.090000        1.0080           0
     77114 WT26     89       MECN     H12      HGA3     0.090000        1.0080           0
     77115 WT26     89       MECN     H13      HGA3     0.090000        1.0080           0
     77116 WT26     89       MECN     C2       CG1N1    0.360000       12.0110           0
     77117 WT26     89       MECN     N3       NG1T1   -0.460000       14.0070           0
     77118 WT26     90       MECN     C1       CG331   -0.170000       12.0110           0
     77119 WT26     90       MECN     H11      HGA3     0.090000        1.0080           0
     77120 WT26     90       MECN     H12      HGA3     0.090000        1.0080           0
     77121 WT26     90       MECN     H13      HGA3     0.090000        1.0080           0
     77122 WT26     90       MECN     C2       CG1N1    0.360000       12.0110           0
     77123 WT26     90       MECN     N3       NG1T1   -0.460000       14.0070           0
     77124 WT26     93       MECN     C1       CG331   -0.170000       12.0110           0
     77125 WT26     93       MECN     H11      HGA3     0.090000        1.0080           0
     77126 WT26     93       MECN     H12      HGA3     0.090000        1.0080           0
     77127 WT26     93       MECN     H13      HGA3     0.090000        1.0080           0
     77128 WT26     93       MECN     C2       CG1N1    0.360000       12.0110           0
     77129 WT26     93       MECN     N3       NG1T1   -0.460000       14.0070           0
     77130 WT26     95       MECN     C1       CG331   -0.170000       12.0110           0
     77131 WT26     95       MECN     H11      HGA3     0.090000        1.0080           0
     77132 WT26     95       MECN     H12      HGA3     0.090000        1.0080           0
     77133 WT26     95       MECN     H13      HGA3     0.090000        1.0080           0
     77134 WT26     95       MECN     C2       CG1N1    0.360000       12.0110           0
     77135 WT26     95       MECN     N3       NG1T1   -0.460000       14.0070           0
     77136 WT26     97       MECN     C1       CG331   -0.170000       12.0110           0
     77137 WT26     97       MECN     H11      HGA3     0.090000        1.0080           0
     77138 WT26     97       MECN     H12      HGA3     0.090000        1.0080           0
     77139 WT26     97       MECN     H13      HGA3     0.090000        1.0080           0
     77140 WT26     97       MECN     C2       CG1N1    0.360000       12.0110           0
     77141 WT26     97       MECN     N3       NG1T1   -0.460000       14.0070           0
     77142 WT26     99       MECN     C1       CG331   -0.170000       12.0110           0
     77143 WT26     99       MECN     H11      HGA3     0.090000        1.0080           0
     77144 WT26     99       MECN     H12      HGA3     0.090000        1.0080           0
     77145 WT26     99       MECN     H13      HGA3     0.090000        1.0080           0
     77146 WT26     99       MECN     C2       CG1N1    0.360000       12.0110           0
     77147 WT26     99       MECN     N3       NG1T1   -0.460000       14.0070           0
     77148 WT26     104      MECN     C1       CG331   -0.170000       12.0110           0
     77149 WT26     104      MECN     H11      HGA3     0.090000        1.0080           0
     77150 WT26     104      MECN     H12      HGA3     0.090000        1.0080           0
     77151 WT26     104      MECN     H13      HGA3     0.090000        1.0080           0
     77152 WT26     104      MECN     C2       CG1N1    0.360000       12.0110           0
     77153 WT26     104      MECN     N3       NG1T1   -0.460000       14.0070           0
     77154 WT26     107      MECN     C1       CG331   -0.170000       12.0110           0
     77155 WT26     107      MECN     H11      HGA3     0.090000        1.0080           0
     77156 WT26     107      MECN     H12      HGA3     0.090000        1.0080           0
     77157 WT26     107      MECN     H13      HGA3     0.090000        1.0080           0
     77158 WT26     107      MECN     C2       CG1N1    0.360000       12.0110           0
     77159 WT26     107      MECN     N3       NG1T1   -0.460000       14.0070           0
     77160 WT26     114      MECN     C1       CG331   -0.170000       12.0110           0
     77161 WT26     114      MECN     H11      HGA3     0.090000        1.0080           0
     77162 WT26     114      MECN     H12      HGA3     0.090000        1.0080           0
     77163 WT26     114      MECN     H13      HGA3     0.090000        1.0080           0
     77164 WT26     114      MECN     C2       CG1N1    0.360000       12.0110           0
     77165 WT26     114      MECN     N3       NG1T1   -0.460000       14.0070           0
     77166 WT26     117      MECN     C1       CG331   -0.170000       12.0110           0
     77167 WT26     117      MECN     H11      HGA3     0.090000        1.0080           0
     77168 WT26     117      MECN     H12      HGA3     0.090000        1.0080           0
     77169 WT26     117      MECN     H13      HGA3     0.090000        1.0080           0
     77170 WT26     117      MECN     C2       CG1N1    0.360000       12.0110           0
     77171 WT26     117      MECN     N3       NG1T1   -0.460000       14.0070           0
     77172 WT26     119      MECN     C1       CG331   -0.170000       12.0110           0
     77173 WT26     119      MECN     H11      HGA3     0.090000        1.0080           0
     77174 WT26     119      MECN     H12      HGA3     0.090000        1.0080           0
     77175 WT26     119      MECN     H13      HGA3     0.090000        1.0080           0
     77176 WT26     119      MECN     C2       CG1N1    0.360000       12.0110           0
     77177 WT26     119      MECN     N3       NG1T1   -0.460000       14.0070           0
     77178 WT26     126      MECN     C1       CG331   -0.170000       12.0110           0
     77179 WT26     126      MECN     H11      HGA3     0.090000        1.0080           0
     77180 WT26     126      MECN     H12      HGA3     0.090000        1.0080           0
     77181 WT26     126      MECN     H13      HGA3     0.090000        1.0080           0
     77182 WT26     126      MECN     C2       CG1N1    0.360000       12.0110           0
     77183 WT26     126      MECN     N3       NG1T1   -0.460000       14.0070           0
     77184 WT26     128      MECN     C1       CG331   -0.170000       12.0110           0
     77185 WT26     128      MECN     H11      HGA3     0.090000        1.0080           0
     77186 WT26     128      MECN     H12      HGA3     0.090000        1.0080           0
     77187 WT26     128      MECN     H13      HGA3     0.090000        1.0080           0
     77188 WT26     128      MECN     C2       CG1N1    0.360000       12.0110           0
     77189 WT26     128      MECN     N3       NG1T1   -0.460000       14.0070           0
     77190 WT26     130      MECN     C1       CG331   -0.170000       12.0110           0
     77191 WT26     130      MECN     H11      HGA3     0.090000        1.0080           0
     77192 WT26     130      MECN     H12      HGA3     0.090000        1.0080           0
     77193 WT26     130      MECN     H13      HGA3     0.090000        1.0080           0
     77194 WT26     130      MECN     C2       CG1N1    0.360000       12.0110           0
     77195 WT26     130      MECN     N3       NG1T1   -0.460000       14.0070           0
     77196 WT26     131      MECN     C1       CG331   -0.170000       12.0110           0
     77197 WT26     131      MECN     H11      HGA3     0.090000        1.0080           0
     77198 WT26     131      MECN     H12      HGA3     0.090000        1.0080           0
     77199 WT26     131      MECN     H13      HGA3     0.090000        1.0080           0
     77200 WT26     131      MECN     C2       CG1N1    0.360000       12.0110           0
     77201 WT26     131      MECN     N3       NG1T1   -0.460000       14.0070           0
     77202 WT26     133      MECN     C1       CG331   -0.170000       12.0110           0
     77203 WT26     133      MECN     H11      HGA3     0.090000        1.0080           0
     77204 WT26     133      MECN     H12      HGA3     0.090000        1.0080           0
     77205 WT26     133      MECN     H13      HGA3     0.090000        1.0080           0
     77206 WT26     133      MECN     C2       CG1N1    0.360000       12.0110           0
     77207 WT26     133      MECN     N3       NG1T1   -0.460000       14.0070           0
     77208 WT26     134      MECN     C1       CG331   -0.170000       12.0110           0
     77209 WT26     134      MECN     H11      HGA3     0.090000        1.0080           0
     77210 WT26     134      MECN     H12      HGA3     0.090000        1.0080           0
     77211 WT26     134      MECN     H13      HGA3     0.090000        1.0080           0
     77212 WT26     134      MECN     C2       CG1N1    0.360000       12.0110           0
     77213 WT26     134      MECN     N3       NG1T1   -0.460000       14.0070           0
     77214 WT26     136      MECN     C1       CG331   -0.170000       12.0110           0
     77215 WT26     136      MECN     H11      HGA3     0.090000        1.0080           0
     77216 WT26     136      MECN     H12      HGA3     0.090000        1.0080           0
     77217 WT26     136      MECN     H13      HGA3     0.090000        1.0080           0
     77218 WT26     136      MECN     C2       CG1N1    0.360000       12.0110           0
     77219 WT26     136      MECN     N3       NG1T1   -0.460000       14.0070           0
     77220 WT26     137      MECN     C1       CG331   -0.170000       12.0110           0
     77221 WT26     137      MECN     H11      HGA3     0.090000        1.0080           0
     77222 WT26     137      MECN     H12      HGA3     0.090000        1.0080           0
     77223 WT26     137      MECN     H13      HGA3     0.090000        1.0080           0
     77224 WT26     137      MECN     C2       CG1N1    0.360000       12.0110           0
     77225 WT26     137      MECN     N3       NG1T1   -0.460000       14.0070           0
     77226 WT26     141      MECN     C1       CG331   -0.170000       12.0110           0
     77227 WT26     141      MECN     H11      HGA3     0.090000        1.0080           0
     77228 WT26     141      MECN     H12      HGA3     0.090000        1.0080           0
     77229 WT26     141      MECN     H13      HGA3     0.090000        1.0080           0
     77230 WT26     141      MECN     C2       CG1N1    0.360000       12.0110           0
     77231 WT26     141      MECN     N3       NG1T1   -0.460000       14.0070           0
     77232 WT26     142      MECN     C1       CG331   -0.170000       12.0110           0
     77233 WT26     142      MECN     H11      HGA3     0.090000        1.0080           0
     77234 WT26     142      MECN     H12      HGA3     0.090000        1.0080           0
     77235 WT26     142      MECN     H13      HGA3     0.090000        1.0080           0
     77236 WT26     142      MECN     C2       CG1N1    0.360000       12.0110           0
     77237 WT26     142      MECN     N3       NG1T1   -0.460000       14.0070           0
     77238 WT26     144      MECN     C1       CG331   -0.170000       12.0110           0
     77239 WT26     144      MECN     H11      HGA3     0.090000        1.0080           0
     77240 WT26     144      MECN     H12      HGA3     0.090000        1.0080           0
     77241 WT26     144      MECN     H13      HGA3     0.090000        1.0080           0
     77242 WT26     144      MECN     C2       CG1N1    0.360000       12.0110           0
     77243 WT26     144      MECN     N3       NG1T1   -0.460000       14.0070           0
     77244 WT26     146      MECN     C1       CG331   -0.170000       12.0110           0
     77245 WT26     146      MECN     H11      HGA3     0.090000        1.0080           0
     77246 WT26     146      MECN     H12      HGA3     0.090000        1.0080           0
     77247 WT26     146      MECN     H13      HGA3     0.090000        1.0080           0
     77248 WT26     146      MECN     C2       CG1N1    0.360000       12.0110           0
     77249 WT26     146      MECN     N3       NG1T1   -0.460000       14.0070           0
     77250 WT26     147      MECN     C1       CG331   -0.170000       12.0110           0
     77251 WT26     147      MECN     H11      HGA3     0.090000        1.0080           0
     77252 WT26     147      MECN     H12      HGA3     0.090000        1.0080           0
     77253 WT26     147      MECN     H13      HGA3     0.090000        1.0080           0
     77254 WT26     147      MECN     C2       CG1N1    0.360000       12.0110           0
     77255 WT26     147      MECN     N3       NG1T1   -0.460000       14.0070           0
     77256 WT26     148      MECN     C1       CG331   -0.170000       12.0110           0
     77257 WT26     148      MECN     H11      HGA3     0.090000        1.0080           0
     77258 WT26     148      MECN     H12      HGA3     0.090000        1.0080           0
     77259 WT26     148      MECN     H13      HGA3     0.090000        1.0080           0
     77260 WT26     148      MECN     C2       CG1N1    0.360000       12.0110           0
     77261 WT26     148      MECN     N3       NG1T1   -0.460000       14.0070           0
     77262 WT26     149      MECN     C1       CG331   -0.170000       12.0110           0
     77263 WT26     149      MECN     H11      HGA3     0.090000        1.0080           0
     77264 WT26     149      MECN     H12      HGA3     0.090000        1.0080           0
     77265 WT26     149      MECN     H13      HGA3     0.090000        1.0080           0
     77266 WT26     149      MECN     C2       CG1N1    0.360000       12.0110           0
     77267 WT26     149      MECN     N3       NG1T1   -0.460000       14.0070           0
     77268 WT26     150      MECN     C1       CG331   -0.170000       12.0110           0
     77269 WT26     150      MECN     H11      HGA3     0.090000        1.0080           0
     77270 WT26     150      MECN     H12      HGA3     0.090000        1.0080           0
     77271 WT26     150      MECN     H13      HGA3     0.090000        1.0080           0
     77272 WT26     150      MECN     C2       CG1N1    0.360000       12.0110           0
     77273 WT26     150      MECN     N3       NG1T1   -0.460000       14.0070           0
     77274 WT26     152      MECN     C1       CG331   -0.170000       12.0110           0
     77275 WT26     152      MECN     H11      HGA3     0.090000        1.0080           0
     77276 WT26     152      MECN     H12      HGA3     0.090000        1.0080           0
     77277 WT26     152      MECN     H13      HGA3     0.090000        1.0080           0
     77278 WT26     152      MECN     C2       CG1N1    0.360000       12.0110           0
     77279 WT26     152      MECN     N3       NG1T1   -0.460000       14.0070           0
     77280 WT26     153      MECN     C1       CG331   -0.170000       12.0110           0
     77281 WT26     153      MECN     H11      HGA3     0.090000        1.0080           0
     77282 WT26     153      MECN     H12      HGA3     0.090000        1.0080           0
     77283 WT26     153      MECN     H13      HGA3     0.090000        1.0080           0
     77284 WT26     153      MECN     C2       CG1N1    0.360000       12.0110           0
     77285 WT26     153      MECN     N3       NG1T1   -0.460000       14.0070           0
     77286 WT26     154      MECN     C1       CG331   -0.170000       12.0110           0
     77287 WT26     154      MECN     H11      HGA3     0.090000        1.0080           0
     77288 WT26     154      MECN     H12      HGA3     0.090000        1.0080           0
     77289 WT26     154      MECN     H13      HGA3     0.090000        1.0080           0
     77290 WT26     154      MECN     C2       CG1N1    0.360000       12.0110           0
     77291 WT26     154      MECN     N3       NG1T1   -0.460000       14.0070           0
     77292 WT26     155      MECN     C1       CG331   -0.170000       12.0110           0
     77293 WT26     155      MECN     H11      HGA3     0.090000        1.0080           0
     77294 WT26     155      MECN     H12      HGA3     0.090000        1.0080           0
     77295 WT26     155      MECN     H13      HGA3     0.090000        1.0080           0
     77296 WT26     155      MECN     C2       CG1N1    0.360000       12.0110           0
     77297 WT26     155      MECN     N3       NG1T1   -0.460000       14.0070           0
     77298 WT26     157      MECN     C1       CG331   -0.170000       12.0110           0
     77299 WT26     157      MECN     H11      HGA3     0.090000        1.0080           0
     77300 WT26     157      MECN     H12      HGA3     0.090000        1.0080           0
     77301 WT26     157      MECN     H13      HGA3     0.090000        1.0080           0
     77302 WT26     157      MECN     C2       CG1N1    0.360000       12.0110           0
     77303 WT26     157      MECN     N3       NG1T1   -0.460000       14.0070           0
     77304 WT26     158      MECN     C1       CG331   -0.170000       12.0110           0
     77305 WT26     158      MECN     H11      HGA3     0.090000        1.0080           0
     77306 WT26     158      MECN     H12      HGA3     0.090000        1.0080           0
     77307 WT26     158      MECN     H13      HGA3     0.090000        1.0080           0
     77308 WT26     158      MECN     C2       CG1N1    0.360000       12.0110           0
     77309 WT26     158      MECN     N3       NG1T1   -0.460000       14.0070           0
     77310 WT26     162      MECN     C1       CG331   -0.170000       12.0110           0
     77311 WT26     162      MECN     H11      HGA3     0.090000        1.0080           0
     77312 WT26     162      MECN     H12      HGA3     0.090000        1.0080           0
     77313 WT26     162      MECN     H13      HGA3     0.090000        1.0080           0
     77314 WT26     162      MECN     C2       CG1N1    0.360000       12.0110           0
     77315 WT26     162      MECN     N3       NG1T1   -0.460000       14.0070           0
     77316 WT26     163      MECN     C1       CG331   -0.170000       12.0110           0
     77317 WT26     163      MECN     H11      HGA3     0.090000        1.0080           0
     77318 WT26     163      MECN     H12      HGA3     0.090000        1.0080           0
     77319 WT26     163      MECN     H13      HGA3     0.090000        1.0080           0
     77320 WT26     163      MECN     C2       CG1N1    0.360000       12.0110           0
     77321 WT26     163      MECN     N3       NG1T1   -0.460000       14.0070           0
     77322 WT26     165      MECN     C1       CG331   -0.170000       12.0110           0
     77323 WT26     165      MECN     H11      HGA3     0.090000        1.0080           0
     77324 WT26     165      MECN     H12      HGA3     0.090000        1.0080           0
     77325 WT26     165      MECN     H13      HGA3     0.090000        1.0080           0
     77326 WT26     165      MECN     C2       CG1N1    0.360000       12.0110           0
     77327 WT26     165      MECN     N3       NG1T1   -0.460000       14.0070           0
     77328 WT26     166      MECN     C1       CG331   -0.170000       12.0110           0
     77329 WT26     166      MECN     H11      HGA3     0.090000        1.0080           0
     77330 WT26     166      MECN     H12      HGA3     0.090000        1.0080           0
     77331 WT26     166      MECN     H13      HGA3     0.090000        1.0080           0
     77332 WT26     166      MECN     C2       CG1N1    0.360000       12.0110           0
     77333 WT26     166      MECN     N3       NG1T1   -0.460000       14.0070           0
     77334 WT26     167      MECN     C1       CG331   -0.170000       12.0110           0
     77335 WT26     167      MECN     H11      HGA3     0.090000        1.0080           0
     77336 WT26     167      MECN     H12      HGA3     0.090000        1.0080           0
     77337 WT26     167      MECN     H13      HGA3     0.090000        1.0080           0
     77338 WT26     167      MECN     C2       CG1N1    0.360000       12.0110           0
     77339 WT26     167      MECN     N3       NG1T1   -0.460000       14.0070           0
     77340 WT26     168      MECN     C1       CG331   -0.170000       12.0110           0
     77341 WT26     168      MECN     H11      HGA3     0.090000        1.0080           0
     77342 WT26     168      MECN     H12      HGA3     0.090000        1.0080           0
     77343 WT26     168      MECN     H13      HGA3     0.090000        1.0080           0
     77344 WT26     168      MECN     C2       CG1N1    0.360000       12.0110           0
     77345 WT26     168      MECN     N3       NG1T1   -0.460000       14.0070           0
     77346 WT26     178      MECN     C1       CG331   -0.170000       12.0110           0
     77347 WT26     178      MECN     H11      HGA3     0.090000        1.0080           0
     77348 WT26     178      MECN     H12      HGA3     0.090000        1.0080           0
     77349 WT26     178      MECN     H13      HGA3     0.090000        1.0080           0
     77350 WT26     178      MECN     C2       CG1N1    0.360000       12.0110           0
     77351 WT26     178      MECN     N3       NG1T1   -0.460000       14.0070           0
     77352 WT26     179      MECN     C1       CG331   -0.170000       12.0110           0
     77353 WT26     179      MECN     H11      HGA3     0.090000        1.0080           0
     77354 WT26     179      MECN     H12      HGA3     0.090000        1.0080           0
     77355 WT26     179      MECN     H13      HGA3     0.090000        1.0080           0
     77356 WT26     179      MECN     C2       CG1N1    0.360000       12.0110           0
     77357 WT26     179      MECN     N3       NG1T1   -0.460000       14.0070           0
     77358 WT26     181      MECN     C1       CG331   -0.170000       12.0110           0
     77359 WT26     181      MECN     H11      HGA3     0.090000        1.0080           0
     77360 WT26     181      MECN     H12      HGA3     0.090000        1.0080           0
     77361 WT26     181      MECN     H13      HGA3     0.090000        1.0080           0
     77362 WT26     181      MECN     C2       CG1N1    0.360000       12.0110           0
     77363 WT26     181      MECN     N3       NG1T1   -0.460000       14.0070           0
     77364 WT26     186      MECN     C1       CG331   -0.170000       12.0110           0
     77365 WT26     186      MECN     H11      HGA3     0.090000        1.0080           0
     77366 WT26     186      MECN     H12      HGA3     0.090000        1.0080           0
     77367 WT26     186      MECN     H13      HGA3     0.090000        1.0080           0
     77368 WT26     186      MECN     C2       CG1N1    0.360000       12.0110           0
     77369 WT26     186      MECN     N3       NG1T1   -0.460000       14.0070           0
     77370 WT26     189      MECN     C1       CG331   -0.170000       12.0110           0
     77371 WT26     189      MECN     H11      HGA3     0.090000        1.0080           0
     77372 WT26     189      MECN     H12      HGA3     0.090000        1.0080           0
     77373 WT26     189      MECN     H13      HGA3     0.090000        1.0080           0
     77374 WT26     189      MECN     C2       CG1N1    0.360000       12.0110           0
     77375 WT26     189      MECN     N3       NG1T1   -0.460000       14.0070           0
     77376 WT26     192      MECN     C1       CG331   -0.170000       12.0110           0
     77377 WT26     192      MECN     H11      HGA3     0.090000        1.0080           0
     77378 WT26     192      MECN     H12      HGA3     0.090000        1.0080           0
     77379 WT26     192      MECN     H13      HGA3     0.090000        1.0080           0
     77380 WT26     192      MECN     C2       CG1N1    0.360000       12.0110           0
     77381 WT26     192      MECN     N3       NG1T1   -0.460000       14.0070           0
     77382 WT26     194      MECN     C1       CG331   -0.170000       12.0110           0
     77383 WT26     194      MECN     H11      HGA3     0.090000        1.0080           0
     77384 WT26     194      MECN     H12      HGA3     0.090000        1.0080           0
     77385 WT26     194      MECN     H13      HGA3     0.090000        1.0080           0
     77386 WT26     194      MECN     C2       CG1N1    0.360000       12.0110           0
     77387 WT26     194      MECN     N3       NG1T1   -0.460000       14.0070           0
     77388 WT26     196      MECN     C1       CG331   -0.170000       12.0110           0
     77389 WT26     196      MECN     H11      HGA3     0.090000        1.0080           0
     77390 WT26     196      MECN     H12      HGA3     0.090000        1.0080           0
     77391 WT26     196      MECN     H13      HGA3     0.090000        1.0080           0
     77392 WT26     196      MECN     C2       CG1N1    0.360000       12.0110           0
     77393 WT26     196      MECN     N3       NG1T1   -0.460000       14.0070           0
     77394 WT26     198      MECN     C1       CG331   -0.170000       12.0110           0
     77395 WT26     198      MECN     H11      HGA3     0.090000        1.0080           0
     77396 WT26     198      MECN     H12      HGA3     0.090000        1.0080           0
     77397 WT26     198      MECN     H13      HGA3     0.090000        1.0080           0
     77398 WT26     198      MECN     C2       CG1N1    0.360000       12.0110           0
     77399 WT26     198      MECN     N3       NG1T1   -0.460000       14.0070           0
     77400 WT26     199      MECN     C1       CG331   -0.170000       12.0110           0
     77401 WT26     199      MECN     H11      HGA3     0.090000        1.0080           0
     77402 WT26     199      MECN     H12      HGA3     0.090000        1.0080           0
     77403 WT26     199      MECN     H13      HGA3     0.090000        1.0080           0
     77404 WT26     199      MECN     C2       CG1N1    0.360000       12.0110           0
     77405 WT26     199      MECN     N3       NG1T1   -0.460000       14.0070           0
     77406 WT26     202      MECN     C1       CG331   -0.170000       12.0110           0
     77407 WT26     202      MECN     H11      HGA3     0.090000        1.0080           0
     77408 WT26     202      MECN     H12      HGA3     0.090000        1.0080           0
     77409 WT26     202      MECN     H13      HGA3     0.090000        1.0080           0
     77410 WT26     202      MECN     C2       CG1N1    0.360000       12.0110           0
     77411 WT26     202      MECN     N3       NG1T1   -0.460000       14.0070           0
     77412 WT26     203      MECN     C1       CG331   -0.170000       12.0110           0
     77413 WT26     203      MECN     H11      HGA3     0.090000        1.0080           0
     77414 WT26     203      MECN     H12      HGA3     0.090000        1.0080           0
     77415 WT26     203      MECN     H13      HGA3     0.090000        1.0080           0
     77416 WT26     203      MECN     C2       CG1N1    0.360000       12.0110           0
     77417 WT26     203      MECN     N3       NG1T1   -0.460000       14.0070           0
     77418 WT26     204      MECN     C1       CG331   -0.170000       12.0110           0
     77419 WT26     204      MECN     H11      HGA3     0.090000        1.0080           0
     77420 WT26     204      MECN     H12      HGA3     0.090000        1.0080           0
     77421 WT26     204      MECN     H13      HGA3     0.090000        1.0080           0
     77422 WT26     204      MECN     C2       CG1N1    0.360000       12.0110           0
     77423 WT26     204      MECN     N3       NG1T1   -0.460000       14.0070           0
     77424 WT26     205      MECN     C1       CG331   -0.170000       12.0110           0
     77425 WT26     205      MECN     H11      HGA3     0.090000        1.0080           0
     77426 WT26     205      MECN     H12      HGA3     0.090000        1.0080           0
     77427 WT26     205      MECN     H13      HGA3     0.090000        1.0080           0
     77428 WT26     205      MECN     C2       CG1N1    0.360000       12.0110           0
     77429 WT26     205      MECN     N3       NG1T1   -0.460000       14.0070           0
     77430 WT26     207      MECN     C1       CG331   -0.170000       12.0110           0
     77431 WT26     207      MECN     H11      HGA3     0.090000        1.0080           0
     77432 WT26     207      MECN     H12      HGA3     0.090000        1.0080           0
     77433 WT26     207      MECN     H13      HGA3     0.090000        1.0080           0
     77434 WT26     207      MECN     C2       CG1N1    0.360000       12.0110           0
     77435 WT26     207      MECN     N3       NG1T1   -0.460000       14.0070           0
     77436 WT26     208      MECN     C1       CG331   -0.170000       12.0110           0
     77437 WT26     208      MECN     H11      HGA3     0.090000        1.0080           0
     77438 WT26     208      MECN     H12      HGA3     0.090000        1.0080           0
     77439 WT26     208      MECN     H13      HGA3     0.090000        1.0080           0
     77440 WT26     208      MECN     C2       CG1N1    0.360000       12.0110           0
     77441 WT26     208      MECN     N3       NG1T1   -0.460000       14.0070           0
     77442 WT26     209      MECN     C1       CG331   -0.170000       12.0110           0
     77443 WT26     209      MECN     H11      HGA3     0.090000        1.0080           0
     77444 WT26     209      MECN     H12      HGA3     0.090000        1.0080           0
     77445 WT26     209      MECN     H13      HGA3     0.090000        1.0080           0
     77446 WT26     209      MECN     C2       CG1N1    0.360000       12.0110           0
     77447 WT26     209      MECN     N3       NG1T1   -0.460000       14.0070           0
     77448 WT26     210      MECN     C1       CG331   -0.170000       12.0110           0
     77449 WT26     210      MECN     H11      HGA3     0.090000        1.0080           0
     77450 WT26     210      MECN     H12      HGA3     0.090000        1.0080           0
     77451 WT26     210      MECN     H13      HGA3     0.090000        1.0080           0
     77452 WT26     210      MECN     C2       CG1N1    0.360000       12.0110           0
     77453 WT26     210      MECN     N3       NG1T1   -0.460000       14.0070           0
     77454 WT26     218      MECN     C1       CG331   -0.170000       12.0110           0
     77455 WT26     218      MECN     H11      HGA3     0.090000        1.0080           0
     77456 WT26     218      MECN     H12      HGA3     0.090000        1.0080           0
     77457 WT26     218      MECN     H13      HGA3     0.090000        1.0080           0
     77458 WT26     218      MECN     C2       CG1N1    0.360000       12.0110           0
     77459 WT26     218      MECN     N3       NG1T1   -0.460000       14.0070           0
     77460 WT26     219      MECN     C1       CG331   -0.170000       12.0110           0
     77461 WT26     219      MECN     H11      HGA3     0.090000        1.0080           0
     77462 WT26     219      MECN     H12      HGA3     0.090000        1.0080           0
     77463 WT26     219      MECN     H13      HGA3     0.090000        1.0080           0
     77464 WT26     219      MECN     C2       CG1N1    0.360000       12.0110           0
     77465 WT26     219      MECN     N3       NG1T1   -0.460000       14.0070           0
     77466 WT26     221      MECN     C1       CG331   -0.170000       12.0110           0
     77467 WT26     221      MECN     H11      HGA3     0.090000        1.0080           0
     77468 WT26     221      MECN     H12      HGA3     0.090000        1.0080           0
     77469 WT26     221      MECN     H13      HGA3     0.090000        1.0080           0
     77470 WT26     221      MECN     C2       CG1N1    0.360000       12.0110           0
     77471 WT26     221      MECN     N3       NG1T1   -0.460000       14.0070           0
     77472 WT26     223      MECN     C1       CG331   -0.170000       12.0110           0
     77473 WT26     223      MECN     H11      HGA3     0.090000        1.0080           0
     77474 WT26     223      MECN     H12      HGA3     0.090000        1.0080           0
     77475 WT26     223      MECN     H13      HGA3     0.090000        1.0080           0
     77476 WT26     223      MECN     C2       CG1N1    0.360000       12.0110           0
     77477 WT26     223      MECN     N3       NG1T1   -0.460000       14.0070           0
     77478 WT26     230      MECN     C1       CG331   -0.170000       12.0110           0
     77479 WT26     230      MECN     H11      HGA3     0.090000        1.0080           0
     77480 WT26     230      MECN     H12      HGA3     0.090000        1.0080           0
     77481 WT26     230      MECN     H13      HGA3     0.090000        1.0080           0
     77482 WT26     230      MECN     C2       CG1N1    0.360000       12.0110           0
     77483 WT26     230      MECN     N3       NG1T1   -0.460000       14.0070           0
     77484 WT26     232      MECN     C1       CG331   -0.170000       12.0110           0
     77485 WT26     232      MECN     H11      HGA3     0.090000        1.0080           0
     77486 WT26     232      MECN     H12      HGA3     0.090000        1.0080           0
     77487 WT26     232      MECN     H13      HGA3     0.090000        1.0080           0
     77488 WT26     232      MECN     C2       CG1N1    0.360000       12.0110           0
     77489 WT26     232      MECN     N3       NG1T1   -0.460000       14.0070           0
     77490 WT26     235      MECN     C1       CG331   -0.170000       12.0110           0
     77491 WT26     235      MECN     H11      HGA3     0.090000        1.0080           0
     77492 WT26     235      MECN     H12      HGA3     0.090000        1.0080           0
     77493 WT26     235      MECN     H13      HGA3     0.090000        1.0080           0
     77494 WT26     235      MECN     C2       CG1N1    0.360000       12.0110           0
     77495 WT26     235      MECN     N3       NG1T1   -0.460000       14.0070           0
     77496 WT26     239      MECN     C1       CG331   -0.170000       12.0110           0
     77497 WT26     239      MECN     H11      HGA3     0.090000        1.0080           0
     77498 WT26     239      MECN     H12      HGA3     0.090000        1.0080           0
     77499 WT26     239      MECN     H13      HGA3     0.090000        1.0080           0
     77500 WT26     239      MECN     C2       CG1N1    0.360000       12.0110           0
     77501 WT26     239      MECN     N3       NG1T1   -0.460000       14.0070           0
     77502 WT26     241      MECN     C1       CG331   -0.170000       12.0110           0
     77503 WT26     241      MECN     H11      HGA3     0.090000        1.0080           0
     77504 WT26     241      MECN     H12      HGA3     0.090000        1.0080           0
     77505 WT26     241      MECN     H13      HGA3     0.090000        1.0080           0
     77506 WT26     241      MECN     C2       CG1N1    0.360000       12.0110           0
     77507 WT26     241      MECN     N3       NG1T1   -0.460000       14.0070           0
     77508 WT26     243      MECN     C1       CG331   -0.170000       12.0110           0
     77509 WT26     243      MECN     H11      HGA3     0.090000        1.0080           0
     77510 WT26     243      MECN     H12      HGA3     0.090000        1.0080           0
     77511 WT26     243      MECN     H13      HGA3     0.090000        1.0080           0
     77512 WT26     243      MECN     C2       CG1N1    0.360000       12.0110           0
     77513 WT26     243      MECN     N3       NG1T1   -0.460000       14.0070           0
     77514 WT26     244      MECN     C1       CG331   -0.170000       12.0110           0
     77515 WT26     244      MECN     H11      HGA3     0.090000        1.0080           0
     77516 WT26     244      MECN     H12      HGA3     0.090000        1.0080           0
     77517 WT26     244      MECN     H13      HGA3     0.090000        1.0080           0
     77518 WT26     244      MECN     C2       CG1N1    0.360000       12.0110           0
     77519 WT26     244      MECN     N3       NG1T1   -0.460000       14.0070           0
     77520 WT26     246      MECN     C1       CG331   -0.170000       12.0110           0
     77521 WT26     246      MECN     H11      HGA3     0.090000        1.0080           0
     77522 WT26     246      MECN     H12      HGA3     0.090000        1.0080           0
     77523 WT26     246      MECN     H13      HGA3     0.090000        1.0080           0
     77524 WT26     246      MECN     C2       CG1N1    0.360000       12.0110           0
     77525 WT26     246      MECN     N3       NG1T1   -0.460000       14.0070           0
     77526 WT26     247      MECN     C1       CG331   -0.170000       12.0110           0
     77527 WT26     247      MECN     H11      HGA3     0.090000        1.0080           0
     77528 WT26     247      MECN     H12      HGA3     0.090000        1.0080           0
     77529 WT26     247      MECN     H13      HGA3     0.090000        1.0080           0
     77530 WT26     247      MECN     C2       CG1N1    0.360000       12.0110           0
     77531 WT26     247      MECN     N3       NG1T1   -0.460000       14.0070           0
     77532 WT26     249      MECN     C1       CG331   -0.170000       12.0110           0
     77533 WT26     249      MECN     H11      HGA3     0.090000        1.0080           0
     77534 WT26     249      MECN     H12      HGA3     0.090000        1.0080           0
     77535 WT26     249      MECN     H13      HGA3     0.090000        1.0080           0
     77536 WT26     249      MECN     C2       CG1N1    0.360000       12.0110           0
     77537 WT26     249      MECN     N3       NG1T1   -0.460000       14.0070           0
     77538 WT26     250      MECN     C1       CG331   -0.170000       12.0110           0
     77539 WT26     250      MECN     H11      HGA3     0.090000        1.0080           0
     77540 WT26     250      MECN     H12      HGA3     0.090000        1.0080           0
     77541 WT26     250      MECN     H13      HGA3     0.090000        1.0080           0
     77542 WT26     250      MECN     C2       CG1N1    0.360000       12.0110           0
     77543 WT26     250      MECN     N3       NG1T1   -0.460000       14.0070           0
     77544 WT26     252      MECN     C1       CG331   -0.170000       12.0110           0
     77545 WT26     252      MECN     H11      HGA3     0.090000        1.0080           0
     77546 WT26     252      MECN     H12      HGA3     0.090000        1.0080           0
     77547 WT26     252      MECN     H13      HGA3     0.090000        1.0080           0
     77548 WT26     252      MECN     C2       CG1N1    0.360000       12.0110           0
     77549 WT26     252      MECN     N3       NG1T1   -0.460000       14.0070           0
     77550 WT26     253      MECN     C1       CG331   -0.170000       12.0110           0
     77551 WT26     253      MECN     H11      HGA3     0.090000        1.0080           0
     77552 WT26     253      MECN     H12      HGA3     0.090000        1.0080           0
     77553 WT26     253      MECN     H13      HGA3     0.090000        1.0080           0
     77554 WT26     253      MECN     C2       CG1N1    0.360000       12.0110           0
     77555 WT26     253      MECN     N3       NG1T1   -0.460000       14.0070           0
     77556 WT26     254      MECN     C1       CG331   -0.170000       12.0110           0
     77557 WT26     254      MECN     H11      HGA3     0.090000        1.0080           0
     77558 WT26     254      MECN     H12      HGA3     0.090000        1.0080           0
     77559 WT26     254      MECN     H13      HGA3     0.090000        1.0080           0
     77560 WT26     254      MECN     C2       CG1N1    0.360000       12.0110           0
     77561 WT26     254      MECN     N3       NG1T1   -0.460000       14.0070           0
     77562 WT26     256      MECN     C1       CG331   -0.170000       12.0110           0
     77563 WT26     256      MECN     H11      HGA3     0.090000        1.0080           0
     77564 WT26     256      MECN     H12      HGA3     0.090000        1.0080           0
     77565 WT26     256      MECN     H13      HGA3     0.090000        1.0080           0
     77566 WT26     256      MECN     C2       CG1N1    0.360000       12.0110           0
     77567 WT26     256      MECN     N3       NG1T1   -0.460000       14.0070           0
     77568 WT26     258      MECN     C1       CG331   -0.170000       12.0110           0
     77569 WT26     258      MECN     H11      HGA3     0.090000        1.0080           0
     77570 WT26     258      MECN     H12      HGA3     0.090000        1.0080           0
     77571 WT26     258      MECN     H13      HGA3     0.090000        1.0080           0
     77572 WT26     258      MECN     C2       CG1N1    0.360000       12.0110           0
     77573 WT26     258      MECN     N3       NG1T1   -0.460000       14.0070           0
     77574 WT26     263      MECN     C1       CG331   -0.170000       12.0110           0
     77575 WT26     263      MECN     H11      HGA3     0.090000        1.0080           0
     77576 WT26     263      MECN     H12      HGA3     0.090000        1.0080           0
     77577 WT26     263      MECN     H13      HGA3     0.090000        1.0080           0
     77578 WT26     263      MECN     C2       CG1N1    0.360000       12.0110           0
     77579 WT26     263      MECN     N3       NG1T1   -0.460000       14.0070           0
     77580 WT26     264      MECN     C1       CG331   -0.170000       12.0110           0
     77581 WT26     264      MECN     H11      HGA3     0.090000        1.0080           0
     77582 WT26     264      MECN     H12      HGA3     0.090000        1.0080           0
     77583 WT26     264      MECN     H13      HGA3     0.090000        1.0080           0
     77584 WT26     264      MECN     C2       CG1N1    0.360000       12.0110           0
     77585 WT26     264      MECN     N3       NG1T1   -0.460000       14.0070           0
     77586 WT26     265      MECN     C1       CG331   -0.170000       12.0110           0
     77587 WT26     265      MECN     H11      HGA3     0.090000        1.0080           0
     77588 WT26     265      MECN     H12      HGA3     0.090000        1.0080           0
     77589 WT26     265      MECN     H13      HGA3     0.090000        1.0080           0
     77590 WT26     265      MECN     C2       CG1N1    0.360000       12.0110           0
     77591 WT26     265      MECN     N3       NG1T1   -0.460000       14.0070           0
     77592 WT26     266      MECN     C1       CG331   -0.170000       12.0110           0
     77593 WT26     266      MECN     H11      HGA3     0.090000        1.0080           0
     77594 WT26     266      MECN     H12      HGA3     0.090000        1.0080           0
     77595 WT26     266      MECN     H13      HGA3     0.090000        1.0080           0
     77596 WT26     266      MECN     C2       CG1N1    0.360000       12.0110           0
     77597 WT26     266      MECN     N3       NG1T1   -0.460000       14.0070           0
     77598 WT26     269      MECN     C1       CG331   -0.170000       12.0110           0
     77599 WT26     269      MECN     H11      HGA3     0.090000        1.0080           0
     77600 WT26     269      MECN     H12      HGA3     0.090000        1.0080           0
     77601 WT26     269      MECN     H13      HGA3     0.090000        1.0080           0
     77602 WT26     269      MECN     C2       CG1N1    0.360000       12.0110           0
     77603 WT26     269      MECN     N3       NG1T1   -0.460000       14.0070           0
     77604 WT26     271      MECN     C1       CG331   -0.170000       12.0110           0
     77605 WT26     271      MECN     H11      HGA3     0.090000        1.0080           0
     77606 WT26     271      MECN     H12      HGA3     0.090000        1.0080           0
     77607 WT26     271      MECN     H13      HGA3     0.090000        1.0080           0
     77608 WT26     271      MECN     C2       CG1N1    0.360000       12.0110           0
     77609 WT26     271      MECN     N3       NG1T1   -0.460000       14.0070           0
     77610 WT26     272      MECN     C1       CG331   -0.170000       12.0110           0
     77611 WT26     272      MECN     H11      HGA3     0.090000        1.0080           0
     77612 WT26     272      MECN     H12      HGA3     0.090000        1.0080           0
     77613 WT26     272      MECN     H13      HGA3     0.090000        1.0080           0
     77614 WT26     272      MECN     C2       CG1N1    0.360000       12.0110           0
     77615 WT26     272      MECN     N3       NG1T1   -0.460000       14.0070           0
     77616 WT26     275      MECN     C1       CG331   -0.170000       12.0110           0
     77617 WT26     275      MECN     H11      HGA3     0.090000        1.0080           0
     77618 WT26     275      MECN     H12      HGA3     0.090000        1.0080           0
     77619 WT26     275      MECN     H13      HGA3     0.090000        1.0080           0
     77620 WT26     275      MECN     C2       CG1N1    0.360000       12.0110           0
     77621 WT26     275      MECN     N3       NG1T1   -0.460000       14.0070           0
     77622 WT26     276      MECN     C1       CG331   -0.170000       12.0110           0
     77623 WT26     276      MECN     H11      HGA3     0.090000        1.0080           0
     77624 WT26     276      MECN     H12      HGA3     0.090000        1.0080           0
     77625 WT26     276      MECN     H13      HGA3     0.090000        1.0080           0
     77626 WT26     276      MECN     C2       CG1N1    0.360000       12.0110           0
     77627 WT26     276      MECN     N3       NG1T1   -0.460000       14.0070           0
     77628 WT26     278      MECN     C1       CG331   -0.170000       12.0110           0
     77629 WT26     278      MECN     H11      HGA3     0.090000        1.0080           0
     77630 WT26     278      MECN     H12      HGA3     0.090000        1.0080           0
     77631 WT26     278      MECN     H13      HGA3     0.090000        1.0080           0
     77632 WT26     278      MECN     C2       CG1N1    0.360000       12.0110           0
     77633 WT26     278      MECN     N3       NG1T1   -0.460000       14.0070           0
     77634 WT26     281      MECN     C1       CG331   -0.170000       12.0110           0
     77635 WT26     281      MECN     H11      HGA3     0.090000        1.0080           0
     77636 WT26     281      MECN     H12      HGA3     0.090000        1.0080           0
     77637 WT26     281      MECN     H13      HGA3     0.090000        1.0080           0
     77638 WT26     281      MECN     C2       CG1N1    0.360000       12.0110           0
     77639 WT26     281      MECN     N3       NG1T1   -0.460000       14.0070           0
     77640 WT26     283      MECN     C1       CG331   -0.170000       12.0110           0
     77641 WT26     283      MECN     H11      HGA3     0.090000        1.0080           0
     77642 WT26     283      MECN     H12      HGA3     0.090000        1.0080           0
     77643 WT26     283      MECN     H13      HGA3     0.090000        1.0080           0
     77644 WT26     283      MECN     C2       CG1N1    0.360000       12.0110           0
     77645 WT26     283      MECN     N3       NG1T1   -0.460000       14.0070           0
     77646 WT26     284      MECN     C1       CG331   -0.170000       12.0110           0
     77647 WT26     284      MECN     H11      HGA3     0.090000        1.0080           0
     77648 WT26     284      MECN     H12      HGA3     0.090000        1.0080           0
     77649 WT26     284      MECN     H13      HGA3     0.090000        1.0080           0
     77650 WT26     284      MECN     C2       CG1N1    0.360000       12.0110           0
     77651 WT26     284      MECN     N3       NG1T1   -0.460000       14.0070           0
     77652 WT26     290      MECN     C1       CG331   -0.170000       12.0110           0
     77653 WT26     290      MECN     H11      HGA3     0.090000        1.0080           0
     77654 WT26     290      MECN     H12      HGA3     0.090000        1.0080           0
     77655 WT26     290      MECN     H13      HGA3     0.090000        1.0080           0
     77656 WT26     290      MECN     C2       CG1N1    0.360000       12.0110           0
     77657 WT26     290      MECN     N3       NG1T1   -0.460000       14.0070           0
     77658 WT26     297      MECN     C1       CG331   -0.170000       12.0110           0
     77659 WT26     297      MECN     H11      HGA3     0.090000        1.0080           0
     77660 WT26     297      MECN     H12      HGA3     0.090000        1.0080           0
     77661 WT26     297      MECN     H13      HGA3     0.090000        1.0080           0
     77662 WT26     297      MECN     C2       CG1N1    0.360000       12.0110           0
     77663 WT26     297      MECN     N3       NG1T1   -0.460000       14.0070           0
     77664 WT26     300      MECN     C1       CG331   -0.170000       12.0110           0
     77665 WT26     300      MECN     H11      HGA3     0.090000        1.0080           0
     77666 WT26     300      MECN     H12      HGA3     0.090000        1.0080           0
     77667 WT26     300      MECN     H13      HGA3     0.090000        1.0080           0
     77668 WT26     300      MECN     C2       CG1N1    0.360000       12.0110           0
     77669 WT26     300      MECN     N3       NG1T1   -0.460000       14.0070           0
     77670 WT26     301      MECN     C1       CG331   -0.170000       12.0110           0
     77671 WT26     301      MECN     H11      HGA3     0.090000        1.0080           0
     77672 WT26     301      MECN     H12      HGA3     0.090000        1.0080           0
     77673 WT26     301      MECN     H13      HGA3     0.090000        1.0080           0
     77674 WT26     301      MECN     C2       CG1N1    0.360000       12.0110           0
     77675 WT26     301      MECN     N3       NG1T1   -0.460000       14.0070           0
     77676 WT26     303      MECN     C1       CG331   -0.170000       12.0110           0
     77677 WT26     303      MECN     H11      HGA3     0.090000        1.0080           0
     77678 WT26     303      MECN     H12      HGA3     0.090000        1.0080           0
     77679 WT26     303      MECN     H13      HGA3     0.090000        1.0080           0
     77680 WT26     303      MECN     C2       CG1N1    0.360000       12.0110           0
     77681 WT26     303      MECN     N3       NG1T1   -0.460000       14.0070           0
     77682 WT26     304      MECN     C1       CG331   -0.170000       12.0110           0
     77683 WT26     304      MECN     H11      HGA3     0.090000        1.0080           0
     77684 WT26     304      MECN     H12      HGA3     0.090000        1.0080           0
     77685 WT26     304      MECN     H13      HGA3     0.090000        1.0080           0
     77686 WT26     304      MECN     C2       CG1N1    0.360000       12.0110           0
     77687 WT26     304      MECN     N3       NG1T1   -0.460000       14.0070           0
     77688 WT26     305      MECN     C1       CG331   -0.170000       12.0110           0
     77689 WT26     305      MECN     H11      HGA3     0.090000        1.0080           0
     77690 WT26     305      MECN     H12      HGA3     0.090000        1.0080           0
     77691 WT26     305      MECN     H13      HGA3     0.090000        1.0080           0
     77692 WT26     305      MECN     C2       CG1N1    0.360000       12.0110           0
     77693 WT26     305      MECN     N3       NG1T1   -0.460000       14.0070           0
     77694 WT26     307      MECN     C1       CG331   -0.170000       12.0110           0
     77695 WT26     307      MECN     H11      HGA3     0.090000        1.0080           0
     77696 WT26     307      MECN     H12      HGA3     0.090000        1.0080           0
     77697 WT26     307      MECN     H13      HGA3     0.090000        1.0080           0
     77698 WT26     307      MECN     C2       CG1N1    0.360000       12.0110           0
     77699 WT26     307      MECN     N3       NG1T1   -0.460000       14.0070           0
     77700 WT26     309      MECN     C1       CG331   -0.170000       12.0110           0
     77701 WT26     309      MECN     H11      HGA3     0.090000        1.0080           0
     77702 WT26     309      MECN     H12      HGA3     0.090000        1.0080           0
     77703 WT26     309      MECN     H13      HGA3     0.090000        1.0080           0
     77704 WT26     309      MECN     C2       CG1N1    0.360000       12.0110           0
     77705 WT26     309      MECN     N3       NG1T1   -0.460000       14.0070           0
     77706 WT26     311      MECN     C1       CG331   -0.170000       12.0110           0
     77707 WT26     311      MECN     H11      HGA3     0.090000        1.0080           0
     77708 WT26     311      MECN     H12      HGA3     0.090000        1.0080           0
     77709 WT26     311      MECN     H13      HGA3     0.090000        1.0080           0
     77710 WT26     311      MECN     C2       CG1N1    0.360000       12.0110           0
     77711 WT26     311      MECN     N3       NG1T1   -0.460000       14.0070           0
     77712 WT26     312      MECN     C1       CG331   -0.170000       12.0110           0
     77713 WT26     312      MECN     H11      HGA3     0.090000        1.0080           0
     77714 WT26     312      MECN     H12      HGA3     0.090000        1.0080           0
     77715 WT26     312      MECN     H13      HGA3     0.090000        1.0080           0
     77716 WT26     312      MECN     C2       CG1N1    0.360000       12.0110           0
     77717 WT26     312      MECN     N3       NG1T1   -0.460000       14.0070           0
     77718 WT26     313      MECN     C1       CG331   -0.170000       12.0110           0
     77719 WT26     313      MECN     H11      HGA3     0.090000        1.0080           0
     77720 WT26     313      MECN     H12      HGA3     0.090000        1.0080           0
     77721 WT26     313      MECN     H13      HGA3     0.090000        1.0080           0
     77722 WT26     313      MECN     C2       CG1N1    0.360000       12.0110           0
     77723 WT26     313      MECN     N3       NG1T1   -0.460000       14.0070           0
     77724 WT26     314      MECN     C1       CG331   -0.170000       12.0110           0
     77725 WT26     314      MECN     H11      HGA3     0.090000        1.0080           0
     77726 WT26     314      MECN     H12      HGA3     0.090000        1.0080           0
     77727 WT26     314      MECN     H13      HGA3     0.090000        1.0080           0
     77728 WT26     314      MECN     C2       CG1N1    0.360000       12.0110           0
     77729 WT26     314      MECN     N3       NG1T1   -0.460000       14.0070           0
     77730 WT26     315      MECN     C1       CG331   -0.170000       12.0110           0
     77731 WT26     315      MECN     H11      HGA3     0.090000        1.0080           0
     77732 WT26     315      MECN     H12      HGA3     0.090000        1.0080           0
     77733 WT26     315      MECN     H13      HGA3     0.090000        1.0080           0
     77734 WT26     315      MECN     C2       CG1N1    0.360000       12.0110           0
     77735 WT26     315      MECN     N3       NG1T1   -0.460000       14.0070           0
     77736 WT26     320      MECN     C1       CG331   -0.170000       12.0110           0
     77737 WT26     320      MECN     H11      HGA3     0.090000        1.0080           0
     77738 WT26     320      MECN     H12      HGA3     0.090000        1.0080           0
     77739 WT26     320      MECN     H13      HGA3     0.090000        1.0080           0
     77740 WT26     320      MECN     C2       CG1N1    0.360000       12.0110           0
     77741 WT26     320      MECN     N3       NG1T1   -0.460000       14.0070           0
     77742 WT26     325      MECN     C1       CG331   -0.170000       12.0110           0
     77743 WT26     325      MECN     H11      HGA3     0.090000        1.0080           0
     77744 WT26     325      MECN     H12      HGA3     0.090000        1.0080           0
     77745 WT26     325      MECN     H13      HGA3     0.090000        1.0080           0
     77746 WT26     325      MECN     C2       CG1N1    0.360000       12.0110           0
     77747 WT26     325      MECN     N3       NG1T1   -0.460000       14.0070           0
     77748 WT26     329      MECN     C1       CG331   -0.170000       12.0110           0
     77749 WT26     329      MECN     H11      HGA3     0.090000        1.0080           0
     77750 WT26     329      MECN     H12      HGA3     0.090000        1.0080           0
     77751 WT26     329      MECN     H13      HGA3     0.090000        1.0080           0
     77752 WT26     329      MECN     C2       CG1N1    0.360000       12.0110           0
     77753 WT26     329      MECN     N3       NG1T1   -0.460000       14.0070           0
     77754 WT26     330      MECN     C1       CG331   -0.170000       12.0110           0
     77755 WT26     330      MECN     H11      HGA3     0.090000        1.0080           0
     77756 WT26     330      MECN     H12      HGA3     0.090000        1.0080           0
     77757 WT26     330      MECN     H13      HGA3     0.090000        1.0080           0
     77758 WT26     330      MECN     C2       CG1N1    0.360000       12.0110           0
     77759 WT26     330      MECN     N3       NG1T1   -0.460000       14.0070           0
     77760 WT26     331      MECN     C1       CG331   -0.170000       12.0110           0
     77761 WT26     331      MECN     H11      HGA3     0.090000        1.0080           0
     77762 WT26     331      MECN     H12      HGA3     0.090000        1.0080           0
     77763 WT26     331      MECN     H13      HGA3     0.090000        1.0080           0
     77764 WT26     331      MECN     C2       CG1N1    0.360000       12.0110           0
     77765 WT26     331      MECN     N3       NG1T1   -0.460000       14.0070           0
     77766 WT26     332      MECN     C1       CG331   -0.170000       12.0110           0
     77767 WT26     332      MECN     H11      HGA3     0.090000        1.0080           0
     77768 WT26     332      MECN     H12      HGA3     0.090000        1.0080           0
     77769 WT26     332      MECN     H13      HGA3     0.090000        1.0080           0
     77770 WT26     332      MECN     C2       CG1N1    0.360000       12.0110           0
     77771 WT26     332      MECN     N3       NG1T1   -0.460000       14.0070           0
     77772 WT26     335      MECN     C1       CG331   -0.170000       12.0110           0
     77773 WT26     335      MECN     H11      HGA3     0.090000        1.0080           0
     77774 WT26     335      MECN     H12      HGA3     0.090000        1.0080           0
     77775 WT26     335      MECN     H13      HGA3     0.090000        1.0080           0
     77776 WT26     335      MECN     C2       CG1N1    0.360000       12.0110           0
     77777 WT26     335      MECN     N3       NG1T1   -0.460000       14.0070           0
     77778 WT26     336      MECN     C1       CG331   -0.170000       12.0110           0
     77779 WT26     336      MECN     H11      HGA3     0.090000        1.0080           0
     77780 WT26     336      MECN     H12      HGA3     0.090000        1.0080           0
     77781 WT26     336      MECN     H13      HGA3     0.090000        1.0080           0
     77782 WT26     336      MECN     C2       CG1N1    0.360000       12.0110           0
     77783 WT26     336      MECN     N3       NG1T1   -0.460000       14.0070           0
     77784 WT26     339      MECN     C1       CG331   -0.170000       12.0110           0
     77785 WT26     339      MECN     H11      HGA3     0.090000        1.0080           0
     77786 WT26     339      MECN     H12      HGA3     0.090000        1.0080           0
     77787 WT26     339      MECN     H13      HGA3     0.090000        1.0080           0
     77788 WT26     339      MECN     C2       CG1N1    0.360000       12.0110           0
     77789 WT26     339      MECN     N3       NG1T1   -0.460000       14.0070           0
     77790 WT26     343      MECN     C1       CG331   -0.170000       12.0110           0
     77791 WT26     343      MECN     H11      HGA3     0.090000        1.0080           0
     77792 WT26     343      MECN     H12      HGA3     0.090000        1.0080           0
     77793 WT26     343      MECN     H13      HGA3     0.090000        1.0080           0
     77794 WT26     343      MECN     C2       CG1N1    0.360000       12.0110           0
     77795 WT26     343      MECN     N3       NG1T1   -0.460000       14.0070           0
     77796 WT26     344      MECN     C1       CG331   -0.170000       12.0110           0
     77797 WT26     344      MECN     H11      HGA3     0.090000        1.0080           0
     77798 WT26     344      MECN     H12      HGA3     0.090000        1.0080           0
     77799 WT26     344      MECN     H13      HGA3     0.090000        1.0080           0
     77800 WT26     344      MECN     C2       CG1N1    0.360000       12.0110           0
     77801 WT26     344      MECN     N3       NG1T1   -0.460000       14.0070           0
     77802 WT26     345      MECN     C1       CG331   -0.170000       12.0110           0
     77803 WT26     345      MECN     H11      HGA3     0.090000        1.0080           0
     77804 WT26     345      MECN     H12      HGA3     0.090000        1.0080           0
     77805 WT26     345      MECN     H13      HGA3     0.090000        1.0080           0
     77806 WT26     345      MECN     C2       CG1N1    0.360000       12.0110           0
     77807 WT26     345      MECN     N3       NG1T1   -0.460000       14.0070           0
     77808 WT26     347      MECN     C1       CG331   -0.170000       12.0110           0
     77809 WT26     347      MECN     H11      HGA3     0.090000        1.0080           0
     77810 WT26     347      MECN     H12      HGA3     0.090000        1.0080           0
     77811 WT26     347      MECN     H13      HGA3     0.090000        1.0080           0
     77812 WT26     347      MECN     C2       CG1N1    0.360000       12.0110           0
     77813 WT26     347      MECN     N3       NG1T1   -0.460000       14.0070           0
     77814 WT26     350      MECN     C1       CG331   -0.170000       12.0110           0
     77815 WT26     350      MECN     H11      HGA3     0.090000        1.0080           0
     77816 WT26     350      MECN     H12      HGA3     0.090000        1.0080           0
     77817 WT26     350      MECN     H13      HGA3     0.090000        1.0080           0
     77818 WT26     350      MECN     C2       CG1N1    0.360000       12.0110           0
     77819 WT26     350      MECN     N3       NG1T1   -0.460000       14.0070           0
     77820 WT26     353      MECN     C1       CG331   -0.170000       12.0110           0
     77821 WT26     353      MECN     H11      HGA3     0.090000        1.0080           0
     77822 WT26     353      MECN     H12      HGA3     0.090000        1.0080           0
     77823 WT26     353      MECN     H13      HGA3     0.090000        1.0080           0
     77824 WT26     353      MECN     C2       CG1N1    0.360000       12.0110           0
     77825 WT26     353      MECN     N3       NG1T1   -0.460000       14.0070           0
     77826 WT26     355      MECN     C1       CG331   -0.170000       12.0110           0
     77827 WT26     355      MECN     H11      HGA3     0.090000        1.0080           0
     77828 WT26     355      MECN     H12      HGA3     0.090000        1.0080           0
     77829 WT26     355      MECN     H13      HGA3     0.090000        1.0080           0
     77830 WT26     355      MECN     C2       CG1N1    0.360000       12.0110           0
     77831 WT26     355      MECN     N3       NG1T1   -0.460000       14.0070           0
     77832 WT26     359      MECN     C1       CG331   -0.170000       12.0110           0
     77833 WT26     359      MECN     H11      HGA3     0.090000        1.0080           0
     77834 WT26     359      MECN     H12      HGA3     0.090000        1.0080           0
     77835 WT26     359      MECN     H13      HGA3     0.090000        1.0080           0
     77836 WT26     359      MECN     C2       CG1N1    0.360000       12.0110           0
     77837 WT26     359      MECN     N3       NG1T1   -0.460000       14.0070           0
     77838 WT26     360      MECN     C1       CG331   -0.170000       12.0110           0
     77839 WT26     360      MECN     H11      HGA3     0.090000        1.0080           0
     77840 WT26     360      MECN     H12      HGA3     0.090000        1.0080           0
     77841 WT26     360      MECN     H13      HGA3     0.090000        1.0080           0
     77842 WT26     360      MECN     C2       CG1N1    0.360000       12.0110           0
     77843 WT26     360      MECN     N3       NG1T1   -0.460000       14.0070           0
     77844 WT26     362      MECN     C1       CG331   -0.170000       12.0110           0
     77845 WT26     362      MECN     H11      HGA3     0.090000        1.0080           0
     77846 WT26     362      MECN     H12      HGA3     0.090000        1.0080           0
     77847 WT26     362      MECN     H13      HGA3     0.090000        1.0080           0
     77848 WT26     362      MECN     C2       CG1N1    0.360000       12.0110           0
     77849 WT26     362      MECN     N3       NG1T1   -0.460000       14.0070           0
     77850 WT26     363      MECN     C1       CG331   -0.170000       12.0110           0
     77851 WT26     363      MECN     H11      HGA3     0.090000        1.0080           0
     77852 WT26     363      MECN     H12      HGA3     0.090000        1.0080           0
     77853 WT26     363      MECN     H13      HGA3     0.090000        1.0080           0
     77854 WT26     363      MECN     C2       CG1N1    0.360000       12.0110           0
     77855 WT26     363      MECN     N3       NG1T1   -0.460000       14.0070           0
     77856 WT26     364      MECN     C1       CG331   -0.170000       12.0110           0
     77857 WT26     364      MECN     H11      HGA3     0.090000        1.0080           0
     77858 WT26     364      MECN     H12      HGA3     0.090000        1.0080           0
     77859 WT26     364      MECN     H13      HGA3     0.090000        1.0080           0
     77860 WT26     364      MECN     C2       CG1N1    0.360000       12.0110           0
     77861 WT26     364      MECN     N3       NG1T1   -0.460000       14.0070           0
     77862 WT26     365      MECN     C1       CG331   -0.170000       12.0110           0
     77863 WT26     365      MECN     H11      HGA3     0.090000        1.0080           0
     77864 WT26     365      MECN     H12      HGA3     0.090000        1.0080           0
     77865 WT26     365      MECN     H13      HGA3     0.090000        1.0080           0
     77866 WT26     365      MECN     C2       CG1N1    0.360000       12.0110           0
     77867 WT26     365      MECN     N3       NG1T1   -0.460000       14.0070           0
     77868 WT26     366      MECN     C1       CG331   -0.170000       12.0110           0
     77869 WT26     366      MECN     H11      HGA3     0.090000        1.0080           0
     77870 WT26     366      MECN     H12      HGA3     0.090000        1.0080           0
     77871 WT26     366      MECN     H13      HGA3     0.090000        1.0080           0
     77872 WT26     366      MECN     C2       CG1N1    0.360000       12.0110           0
     77873 WT26     366      MECN     N3       NG1T1   -0.460000       14.0070           0
     77874 WT26     374      MECN     C1       CG331   -0.170000       12.0110           0
     77875 WT26     374      MECN     H11      HGA3     0.090000        1.0080           0
     77876 WT26     374      MECN     H12      HGA3     0.090000        1.0080           0
     77877 WT26     374      MECN     H13      HGA3     0.090000        1.0080           0
     77878 WT26     374      MECN     C2       CG1N1    0.360000       12.0110           0
     77879 WT26     374      MECN     N3       NG1T1   -0.460000       14.0070           0
     77880 WT26     375      MECN     C1       CG331   -0.170000       12.0110           0
     77881 WT26     375      MECN     H11      HGA3     0.090000        1.0080           0
     77882 WT26     375      MECN     H12      HGA3     0.090000        1.0080           0
     77883 WT26     375      MECN     H13      HGA3     0.090000        1.0080           0
     77884 WT26     375      MECN     C2       CG1N1    0.360000       12.0110           0
     77885 WT26     375      MECN     N3       NG1T1   -0.460000       14.0070           0
     77886 WT26     376      MECN     C1       CG331   -0.170000       12.0110           0
     77887 WT26     376      MECN     H11      HGA3     0.090000        1.0080           0
     77888 WT26     376      MECN     H12      HGA3     0.090000        1.0080           0
     77889 WT26     376      MECN     H13      HGA3     0.090000        1.0080           0
     77890 WT26     376      MECN     C2       CG1N1    0.360000       12.0110           0
     77891 WT26     376      MECN     N3       NG1T1   -0.460000       14.0070           0
     77892 WT26     377      MECN     C1       CG331   -0.170000       12.0110           0
     77893 WT26     377      MECN     H11      HGA3     0.090000        1.0080           0
     77894 WT26     377      MECN     H12      HGA3     0.090000        1.0080           0
     77895 WT26     377      MECN     H13      HGA3     0.090000        1.0080           0
     77896 WT26     377      MECN     C2       CG1N1    0.360000       12.0110           0
     77897 WT26     377      MECN     N3       NG1T1   -0.460000       14.0070           0
     77898 WT26     378      MECN     C1       CG331   -0.170000       12.0110           0
     77899 WT26     378      MECN     H11      HGA3     0.090000        1.0080           0
     77900 WT26     378      MECN     H12      HGA3     0.090000        1.0080           0
     77901 WT26     378      MECN     H13      HGA3     0.090000        1.0080           0
     77902 WT26     378      MECN     C2       CG1N1    0.360000       12.0110           0
     77903 WT26     378      MECN     N3       NG1T1   -0.460000       14.0070           0
     77904 WT26     380      MECN     C1       CG331   -0.170000       12.0110           0
     77905 WT26     380      MECN     H11      HGA3     0.090000        1.0080           0
     77906 WT26     380      MECN     H12      HGA3     0.090000        1.0080           0
     77907 WT26     380      MECN     H13      HGA3     0.090000        1.0080           0
     77908 WT26     380      MECN     C2       CG1N1    0.360000       12.0110           0
     77909 WT26     380      MECN     N3       NG1T1   -0.460000       14.0070           0
     77910 WT26     381      MECN     C1       CG331   -0.170000       12.0110           0
     77911 WT26     381      MECN     H11      HGA3     0.090000        1.0080           0
     77912 WT26     381      MECN     H12      HGA3     0.090000        1.0080           0
     77913 WT26     381      MECN     H13      HGA3     0.090000        1.0080           0
     77914 WT26     381      MECN     C2       CG1N1    0.360000       12.0110           0
     77915 WT26     381      MECN     N3       NG1T1   -0.460000       14.0070           0
     77916 WT26     383      MECN     C1       CG331   -0.170000       12.0110           0
     77917 WT26     383      MECN     H11      HGA3     0.090000        1.0080           0
     77918 WT26     383      MECN     H12      HGA3     0.090000        1.0080           0
     77919 WT26     383      MECN     H13      HGA3     0.090000        1.0080           0
     77920 WT26     383      MECN     C2       CG1N1    0.360000       12.0110           0
     77921 WT26     383      MECN     N3       NG1T1   -0.460000       14.0070           0
     77922 WT26     384      MECN     C1       CG331   -0.170000       12.0110           0
     77923 WT26     384      MECN     H11      HGA3     0.090000        1.0080           0
     77924 WT26     384      MECN     H12      HGA3     0.090000        1.0080           0
     77925 WT26     384      MECN     H13      HGA3     0.090000        1.0080           0
     77926 WT26     384      MECN     C2       CG1N1    0.360000       12.0110           0
     77927 WT26     384      MECN     N3       NG1T1   -0.460000       14.0070           0
     77928 WT26     386      MECN     C1       CG331   -0.170000       12.0110           0
     77929 WT26     386      MECN     H11      HGA3     0.090000        1.0080           0
     77930 WT26     386      MECN     H12      HGA3     0.090000        1.0080           0
     77931 WT26     386      MECN     H13      HGA3     0.090000        1.0080           0
     77932 WT26     386      MECN     C2       CG1N1    0.360000       12.0110           0
     77933 WT26     386      MECN     N3       NG1T1   -0.460000       14.0070           0
     77934 WT26     389      MECN     C1       CG331   -0.170000       12.0110           0
     77935 WT26     389      MECN     H11      HGA3     0.090000        1.0080           0
     77936 WT26     389      MECN     H12      HGA3     0.090000        1.0080           0
     77937 WT26     389      MECN     H13      HGA3     0.090000        1.0080           0
     77938 WT26     389      MECN     C2       CG1N1    0.360000       12.0110           0
     77939 WT26     389      MECN     N3       NG1T1   -0.460000       14.0070           0
     77940 WT26     394      MECN     C1       CG331   -0.170000       12.0110           0
     77941 WT26     394      MECN     H11      HGA3     0.090000        1.0080           0
     77942 WT26     394      MECN     H12      HGA3     0.090000        1.0080           0
     77943 WT26     394      MECN     H13      HGA3     0.090000        1.0080           0
     77944 WT26     394      MECN     C2       CG1N1    0.360000       12.0110           0
     77945 WT26     394      MECN     N3       NG1T1   -0.460000       14.0070           0
     77946 WT26     399      MECN     C1       CG331   -0.170000       12.0110           0
     77947 WT26     399      MECN     H11      HGA3     0.090000        1.0080           0
     77948 WT26     399      MECN     H12      HGA3     0.090000        1.0080           0
     77949 WT26     399      MECN     H13      HGA3     0.090000        1.0080           0
     77950 WT26     399      MECN     C2       CG1N1    0.360000       12.0110           0
     77951 WT26     399      MECN     N3       NG1T1   -0.460000       14.0070           0
     77952 WT26     400      MECN     C1       CG331   -0.170000       12.0110           0
     77953 WT26     400      MECN     H11      HGA3     0.090000        1.0080           0
     77954 WT26     400      MECN     H12      HGA3     0.090000        1.0080           0
     77955 WT26     400      MECN     H13      HGA3     0.090000        1.0080           0
     77956 WT26     400      MECN     C2       CG1N1    0.360000       12.0110           0
     77957 WT26     400      MECN     N3       NG1T1   -0.460000       14.0070           0
     77958 WT26     404      MECN     C1       CG331   -0.170000       12.0110           0
     77959 WT26     404      MECN     H11      HGA3     0.090000        1.0080           0
     77960 WT26     404      MECN     H12      HGA3     0.090000        1.0080           0
     77961 WT26     404      MECN     H13      HGA3     0.090000        1.0080           0
     77962 WT26     404      MECN     C2       CG1N1    0.360000       12.0110           0
     77963 WT26     404      MECN     N3       NG1T1   -0.460000       14.0070           0
     77964 WT26     405      MECN     C1       CG331   -0.170000       12.0110           0
     77965 WT26     405      MECN     H11      HGA3     0.090000        1.0080           0
     77966 WT26     405      MECN     H12      HGA3     0.090000        1.0080           0
     77967 WT26     405      MECN     H13      HGA3     0.090000        1.0080           0
     77968 WT26     405      MECN     C2       CG1N1    0.360000       12.0110           0
     77969 WT26     405      MECN     N3       NG1T1   -0.460000       14.0070           0
     77970 WT26     407      MECN     C1       CG331   -0.170000       12.0110           0
     77971 WT26     407      MECN     H11      HGA3     0.090000        1.0080           0
     77972 WT26     407      MECN     H12      HGA3     0.090000        1.0080           0
     77973 WT26     407      MECN     H13      HGA3     0.090000        1.0080           0
     77974 WT26     407      MECN     C2       CG1N1    0.360000       12.0110           0
     77975 WT26     407      MECN     N3       NG1T1   -0.460000       14.0070           0
     77976 WT26     409      MECN     C1       CG331   -0.170000       12.0110           0
     77977 WT26     409      MECN     H11      HGA3     0.090000        1.0080           0
     77978 WT26     409      MECN     H12      HGA3     0.090000        1.0080           0
     77979 WT26     409      MECN     H13      HGA3     0.090000        1.0080           0
     77980 WT26     409      MECN     C2       CG1N1    0.360000       12.0110           0
     77981 WT26     409      MECN     N3       NG1T1   -0.460000       14.0070           0
     77982 WT26     411      MECN     C1       CG331   -0.170000       12.0110           0
     77983 WT26     411      MECN     H11      HGA3     0.090000        1.0080           0
     77984 WT26     411      MECN     H12      HGA3     0.090000        1.0080           0
     77985 WT26     411      MECN     H13      HGA3     0.090000        1.0080           0
     77986 WT26     411      MECN     C2       CG1N1    0.360000       12.0110           0
     77987 WT26     411      MECN     N3       NG1T1   -0.460000       14.0070           0
     77988 WT26     412      MECN     C1       CG331   -0.170000       12.0110           0
     77989 WT26     412      MECN     H11      HGA3     0.090000        1.0080           0
     77990 WT26     412      MECN     H12      HGA3     0.090000        1.0080           0
     77991 WT26     412      MECN     H13      HGA3     0.090000        1.0080           0
     77992 WT26     412      MECN     C2       CG1N1    0.360000       12.0110           0
     77993 WT26     412      MECN     N3       NG1T1   -0.460000       14.0070           0
     77994 WT26     417      MECN     C1       CG331   -0.170000       12.0110           0
     77995 WT26     417      MECN     H11      HGA3     0.090000        1.0080           0
     77996 WT26     417      MECN     H12      HGA3     0.090000        1.0080           0
     77997 WT26     417      MECN     H13      HGA3     0.090000        1.0080           0
     77998 WT26     417      MECN     C2       CG1N1    0.360000       12.0110           0
     77999 WT26     417      MECN     N3       NG1T1   -0.460000       14.0070           0
     78000 WT26     419      MECN     C1       CG331   -0.170000       12.0110           0
     78001 WT26     419      MECN     H11      HGA3     0.090000        1.0080           0
     78002 WT26     419      MECN     H12      HGA3     0.090000        1.0080           0
     78003 WT26     419      MECN     H13      HGA3     0.090000        1.0080           0
     78004 WT26     419      MECN     C2       CG1N1    0.360000       12.0110           0
     78005 WT26     419      MECN     N3       NG1T1   -0.460000       14.0070           0
     78006 WT26     421      MECN     C1       CG331   -0.170000       12.0110           0
     78007 WT26     421      MECN     H11      HGA3     0.090000        1.0080           0
     78008 WT26     421      MECN     H12      HGA3     0.090000        1.0080           0
     78009 WT26     421      MECN     H13      HGA3     0.090000        1.0080           0
     78010 WT26     421      MECN     C2       CG1N1    0.360000       12.0110           0
     78011 WT26     421      MECN     N3       NG1T1   -0.460000       14.0070           0
     78012 WT26     422      MECN     C1       CG331   -0.170000       12.0110           0
     78013 WT26     422      MECN     H11      HGA3     0.090000        1.0080           0
     78014 WT26     422      MECN     H12      HGA3     0.090000        1.0080           0
     78015 WT26     422      MECN     H13      HGA3     0.090000        1.0080           0
     78016 WT26     422      MECN     C2       CG1N1    0.360000       12.0110           0
     78017 WT26     422      MECN     N3       NG1T1   -0.460000       14.0070           0
     78018 WT26     423      MECN     C1       CG331   -0.170000       12.0110           0
     78019 WT26     423      MECN     H11      HGA3     0.090000        1.0080           0
     78020 WT26     423      MECN     H12      HGA3     0.090000        1.0080           0
     78021 WT26     423      MECN     H13      HGA3     0.090000        1.0080           0
     78022 WT26     423      MECN     C2       CG1N1    0.360000       12.0110           0
     78023 WT26     423      MECN     N3       NG1T1   -0.460000       14.0070           0
     78024 WT26     429      MECN     C1       CG331   -0.170000       12.0110           0
     78025 WT26     429      MECN     H11      HGA3     0.090000        1.0080           0
     78026 WT26     429      MECN     H12      HGA3     0.090000        1.0080           0
     78027 WT26     429      MECN     H13      HGA3     0.090000        1.0080           0
     78028 WT26     429      MECN     C2       CG1N1    0.360000       12.0110           0
     78029 WT26     429      MECN     N3       NG1T1   -0.460000       14.0070           0
     78030 WT26     431      MECN     C1       CG331   -0.170000       12.0110           0
     78031 WT26     431      MECN     H11      HGA3     0.090000        1.0080           0
     78032 WT26     431      MECN     H12      HGA3     0.090000        1.0080           0
     78033 WT26     431      MECN     H13      HGA3     0.090000        1.0080           0
     78034 WT26     431      MECN     C2       CG1N1    0.360000       12.0110           0
     78035 WT26     431      MECN     N3       NG1T1   -0.460000       14.0070           0
     78036 WT26     432      MECN     C1       CG331   -0.170000       12.0110           0
     78037 WT26     432      MECN     H11      HGA3     0.090000        1.0080           0
     78038 WT26     432      MECN     H12      HGA3     0.090000        1.0080           0
     78039 WT26     432      MECN     H13      HGA3     0.090000        1.0080           0
     78040 WT26     432      MECN     C2       CG1N1    0.360000       12.0110           0
     78041 WT26     432      MECN     N3       NG1T1   -0.460000       14.0070           0
     78042 WT26     433      MECN     C1       CG331   -0.170000       12.0110           0
     78043 WT26     433      MECN     H11      HGA3     0.090000        1.0080           0
     78044 WT26     433      MECN     H12      HGA3     0.090000        1.0080           0
     78045 WT26     433      MECN     H13      HGA3     0.090000        1.0080           0
     78046 WT26     433      MECN     C2       CG1N1    0.360000       12.0110           0
     78047 WT26     433      MECN     N3       NG1T1   -0.460000       14.0070           0
     78048 WT26     434      MECN     C1       CG331   -0.170000       12.0110           0
     78049 WT26     434      MECN     H11      HGA3     0.090000        1.0080           0
     78050 WT26     434      MECN     H12      HGA3     0.090000        1.0080           0
     78051 WT26     434      MECN     H13      HGA3     0.090000        1.0080           0
     78052 WT26     434      MECN     C2       CG1N1    0.360000       12.0110           0
     78053 WT26     434      MECN     N3       NG1T1   -0.460000       14.0070           0
     78054 WT26     435      MECN     C1       CG331   -0.170000       12.0110           0
     78055 WT26     435      MECN     H11      HGA3     0.090000        1.0080           0
     78056 WT26     435      MECN     H12      HGA3     0.090000        1.0080           0
     78057 WT26     435      MECN     H13      HGA3     0.090000        1.0080           0
     78058 WT26     435      MECN     C2       CG1N1    0.360000       12.0110           0
     78059 WT26     435      MECN     N3       NG1T1   -0.460000       14.0070           0
     78060 WT26     437      MECN     C1       CG331   -0.170000       12.0110           0
     78061 WT26     437      MECN     H11      HGA3     0.090000        1.0080           0
     78062 WT26     437      MECN     H12      HGA3     0.090000        1.0080           0
     78063 WT26     437      MECN     H13      HGA3     0.090000        1.0080           0
     78064 WT26     437      MECN     C2       CG1N1    0.360000       12.0110           0
     78065 WT26     437      MECN     N3       NG1T1   -0.460000       14.0070           0
     78066 WT26     438      MECN     C1       CG331   -0.170000       12.0110           0
     78067 WT26     438      MECN     H11      HGA3     0.090000        1.0080           0
     78068 WT26     438      MECN     H12      HGA3     0.090000        1.0080           0
     78069 WT26     438      MECN     H13      HGA3     0.090000        1.0080           0
     78070 WT26     438      MECN     C2       CG1N1    0.360000       12.0110           0
     78071 WT26     438      MECN     N3       NG1T1   -0.460000       14.0070           0
     78072 WT26     441      MECN     C1       CG331   -0.170000       12.0110           0
     78073 WT26     441      MECN     H11      HGA3     0.090000        1.0080           0
     78074 WT26     441      MECN     H12      HGA3     0.090000        1.0080           0
     78075 WT26     441      MECN     H13      HGA3     0.090000        1.0080           0
     78076 WT26     441      MECN     C2       CG1N1    0.360000       12.0110           0
     78077 WT26     441      MECN     N3       NG1T1   -0.460000       14.0070           0
     78078 WT26     443      MECN     C1       CG331   -0.170000       12.0110           0
     78079 WT26     443      MECN     H11      HGA3     0.090000        1.0080           0
     78080 WT26     443      MECN     H12      HGA3     0.090000        1.0080           0
     78081 WT26     443      MECN     H13      HGA3     0.090000        1.0080           0
     78082 WT26     443      MECN     C2       CG1N1    0.360000       12.0110           0
     78083 WT26     443      MECN     N3       NG1T1   -0.460000       14.0070           0
     78084 WT26     446      MECN     C1       CG331   -0.170000       12.0110           0
     78085 WT26     446      MECN     H11      HGA3     0.090000        1.0080           0
     78086 WT26     446      MECN     H12      HGA3     0.090000        1.0080           0
     78087 WT26     446      MECN     H13      HGA3     0.090000        1.0080           0
     78088 WT26     446      MECN     C2       CG1N1    0.360000       12.0110           0
     78089 WT26     446      MECN     N3       NG1T1   -0.460000       14.0070           0
     78090 WT26     448      MECN     C1       CG331   -0.170000       12.0110           0
     78091 WT26     448      MECN     H11      HGA3     0.090000        1.0080           0
     78092 WT26     448      MECN     H12      HGA3     0.090000        1.0080           0
     78093 WT26     448      MECN     H13      HGA3     0.090000        1.0080           0
     78094 WT26     448      MECN     C2       CG1N1    0.360000       12.0110           0
     78095 WT26     448      MECN     N3       NG1T1   -0.460000       14.0070           0
     78096 WT26     452      MECN     C1       CG331   -0.170000       12.0110           0
     78097 WT26     452      MECN     H11      HGA3     0.090000        1.0080           0
     78098 WT26     452      MECN     H12      HGA3     0.090000        1.0080           0
     78099 WT26     452      MECN     H13      HGA3     0.090000        1.0080           0
     78100 WT26     452      MECN     C2       CG1N1    0.360000       12.0110           0
     78101 WT26     452      MECN     N3       NG1T1   -0.460000       14.0070           0
     78102 WT26     453      MECN     C1       CG331   -0.170000       12.0110           0
     78103 WT26     453      MECN     H11      HGA3     0.090000        1.0080           0
     78104 WT26     453      MECN     H12      HGA3     0.090000        1.0080           0
     78105 WT26     453      MECN     H13      HGA3     0.090000        1.0080           0
     78106 WT26     453      MECN     C2       CG1N1    0.360000       12.0110           0
     78107 WT26     453      MECN     N3       NG1T1   -0.460000       14.0070           0
     78108 WT26     455      MECN     C1       CG331   -0.170000       12.0110           0
     78109 WT26     455      MECN     H11      HGA3     0.090000        1.0080           0
     78110 WT26     455      MECN     H12      HGA3     0.090000        1.0080           0
     78111 WT26     455      MECN     H13      HGA3     0.090000        1.0080           0
     78112 WT26     455      MECN     C2       CG1N1    0.360000       12.0110           0
     78113 WT26     455      MECN     N3       NG1T1   -0.460000       14.0070           0
     78114 WT26     459      MECN     C1       CG331   -0.170000       12.0110           0
     78115 WT26     459      MECN     H11      HGA3     0.090000        1.0080           0
     78116 WT26     459      MECN     H12      HGA3     0.090000        1.0080           0
     78117 WT26     459      MECN     H13      HGA3     0.090000        1.0080           0
     78118 WT26     459      MECN     C2       CG1N1    0.360000       12.0110           0
     78119 WT26     459      MECN     N3       NG1T1   -0.460000       14.0070           0
     78120 WT26     460      MECN     C1       CG331   -0.170000       12.0110           0
     78121 WT26     460      MECN     H11      HGA3     0.090000        1.0080           0
     78122 WT26     460      MECN     H12      HGA3     0.090000        1.0080           0
     78123 WT26     460      MECN     H13      HGA3     0.090000        1.0080           0
     78124 WT26     460      MECN     C2       CG1N1    0.360000       12.0110           0
     78125 WT26     460      MECN     N3       NG1T1   -0.460000       14.0070           0
     78126 WT26     462      MECN     C1       CG331   -0.170000       12.0110           0
     78127 WT26     462      MECN     H11      HGA3     0.090000        1.0080           0
     78128 WT26     462      MECN     H12      HGA3     0.090000        1.0080           0
     78129 WT26     462      MECN     H13      HGA3     0.090000        1.0080           0
     78130 WT26     462      MECN     C2       CG1N1    0.360000       12.0110           0
     78131 WT26     462      MECN     N3       NG1T1   -0.460000       14.0070           0
     78132 WT26     463      MECN     C1       CG331   -0.170000       12.0110           0
     78133 WT26     463      MECN     H11      HGA3     0.090000        1.0080           0
     78134 WT26     463      MECN     H12      HGA3     0.090000        1.0080           0
     78135 WT26     463      MECN     H13      HGA3     0.090000        1.0080           0
     78136 WT26     463      MECN     C2       CG1N1    0.360000       12.0110           0
     78137 WT26     463      MECN     N3       NG1T1   -0.460000       14.0070           0
     78138 WT26     466      MECN     C1       CG331   -0.170000       12.0110           0
     78139 WT26     466      MECN     H11      HGA3     0.090000        1.0080           0
     78140 WT26     466      MECN     H12      HGA3     0.090000        1.0080           0
     78141 WT26     466      MECN     H13      HGA3     0.090000        1.0080           0
     78142 WT26     466      MECN     C2       CG1N1    0.360000       12.0110           0
     78143 WT26     466      MECN     N3       NG1T1   -0.460000       14.0070           0
     78144 WT26     474      MECN     C1       CG331   -0.170000       12.0110           0
     78145 WT26     474      MECN     H11      HGA3     0.090000        1.0080           0
     78146 WT26     474      MECN     H12      HGA3     0.090000        1.0080           0
     78147 WT26     474      MECN     H13      HGA3     0.090000        1.0080           0
     78148 WT26     474      MECN     C2       CG1N1    0.360000       12.0110           0
     78149 WT26     474      MECN     N3       NG1T1   -0.460000       14.0070           0
     78150 WT26     476      MECN     C1       CG331   -0.170000       12.0110           0
     78151 WT26     476      MECN     H11      HGA3     0.090000        1.0080           0
     78152 WT26     476      MECN     H12      HGA3     0.090000        1.0080           0
     78153 WT26     476      MECN     H13      HGA3     0.090000        1.0080           0
     78154 WT26     476      MECN     C2       CG1N1    0.360000       12.0110           0
     78155 WT26     476      MECN     N3       NG1T1   -0.460000       14.0070           0
     78156 WT26     478      MECN     C1       CG331   -0.170000       12.0110           0
     78157 WT26     478      MECN     H11      HGA3     0.090000        1.0080           0
     78158 WT26     478      MECN     H12      HGA3     0.090000        1.0080           0
     78159 WT26     478      MECN     H13      HGA3     0.090000        1.0080           0
     78160 WT26     478      MECN     C2       CG1N1    0.360000       12.0110           0
     78161 WT26     478      MECN     N3       NG1T1   -0.460000       14.0070           0
     78162 WT26     479      MECN     C1       CG331   -0.170000       12.0110           0
     78163 WT26     479      MECN     H11      HGA3     0.090000        1.0080           0
     78164 WT26     479      MECN     H12      HGA3     0.090000        1.0080           0
     78165 WT26     479      MECN     H13      HGA3     0.090000        1.0080           0
     78166 WT26     479      MECN     C2       CG1N1    0.360000       12.0110           0
     78167 WT26     479      MECN     N3       NG1T1   -0.460000       14.0070           0
     78168 WT26     481      MECN     C1       CG331   -0.170000       12.0110           0
     78169 WT26     481      MECN     H11      HGA3     0.090000        1.0080           0
     78170 WT26     481      MECN     H12      HGA3     0.090000        1.0080           0
     78171 WT26     481      MECN     H13      HGA3     0.090000        1.0080           0
     78172 WT26     481      MECN     C2       CG1N1    0.360000       12.0110           0
     78173 WT26     481      MECN     N3       NG1T1   -0.460000       14.0070           0
     78174 WT26     483      MECN     C1       CG331   -0.170000       12.0110           0
     78175 WT26     483      MECN     H11      HGA3     0.090000        1.0080           0
     78176 WT26     483      MECN     H12      HGA3     0.090000        1.0080           0
     78177 WT26     483      MECN     H13      HGA3     0.090000        1.0080           0
     78178 WT26     483      MECN     C2       CG1N1    0.360000       12.0110           0
     78179 WT26     483      MECN     N3       NG1T1   -0.460000       14.0070           0
     78180 WT26     487      MECN     C1       CG331   -0.170000       12.0110           0
     78181 WT26     487      MECN     H11      HGA3     0.090000        1.0080           0
     78182 WT26     487      MECN     H12      HGA3     0.090000        1.0080           0
     78183 WT26     487      MECN     H13      HGA3     0.090000        1.0080           0
     78184 WT26     487      MECN     C2       CG1N1    0.360000       12.0110           0
     78185 WT26     487      MECN     N3       NG1T1   -0.460000       14.0070           0
     78186 WT26     491      MECN     C1       CG331   -0.170000       12.0110           0
     78187 WT26     491      MECN     H11      HGA3     0.090000        1.0080           0
     78188 WT26     491      MECN     H12      HGA3     0.090000        1.0080           0
     78189 WT26     491      MECN     H13      HGA3     0.090000        1.0080           0
     78190 WT26     491      MECN     C2       CG1N1    0.360000       12.0110           0
     78191 WT26     491      MECN     N3       NG1T1   -0.460000       14.0070           0
     78192 WT26     493      MECN     C1       CG331   -0.170000       12.0110           0
     78193 WT26     493      MECN     H11      HGA3     0.090000        1.0080           0
     78194 WT26     493      MECN     H12      HGA3     0.090000        1.0080           0
     78195 WT26     493      MECN     H13      HGA3     0.090000        1.0080           0
     78196 WT26     493      MECN     C2       CG1N1    0.360000       12.0110           0
     78197 WT26     493      MECN     N3       NG1T1   -0.460000       14.0070           0
     78198 WT26     496      MECN     C1       CG331   -0.170000       12.0110           0
     78199 WT26     496      MECN     H11      HGA3     0.090000        1.0080           0
     78200 WT26     496      MECN     H12      HGA3     0.090000        1.0080           0
     78201 WT26     496      MECN     H13      HGA3     0.090000        1.0080           0
     78202 WT26     496      MECN     C2       CG1N1    0.360000       12.0110           0
     78203 WT26     496      MECN     N3       NG1T1   -0.460000       14.0070           0
     78204 WT26     499      MECN     C1       CG331   -0.170000       12.0110           0
     78205 WT26     499      MECN     H11      HGA3     0.090000        1.0080           0
     78206 WT26     499      MECN     H12      HGA3     0.090000        1.0080           0
     78207 WT26     499      MECN     H13      HGA3     0.090000        1.0080           0
     78208 WT26     499      MECN     C2       CG1N1    0.360000       12.0110           0
     78209 WT26     499      MECN     N3       NG1T1   -0.460000       14.0070           0
     78210 WT26     502      MECN     C1       CG331   -0.170000       12.0110           0
     78211 WT26     502      MECN     H11      HGA3     0.090000        1.0080           0
     78212 WT26     502      MECN     H12      HGA3     0.090000        1.0080           0
     78213 WT26     502      MECN     H13      HGA3     0.090000        1.0080           0
     78214 WT26     502      MECN     C2       CG1N1    0.360000       12.0110           0
     78215 WT26     502      MECN     N3       NG1T1   -0.460000       14.0070           0
     78216 WT26     503      MECN     C1       CG331   -0.170000       12.0110           0
     78217 WT26     503      MECN     H11      HGA3     0.090000        1.0080           0
     78218 WT26     503      MECN     H12      HGA3     0.090000        1.0080           0
     78219 WT26     503      MECN     H13      HGA3     0.090000        1.0080           0
     78220 WT26     503      MECN     C2       CG1N1    0.360000       12.0110           0
     78221 WT26     503      MECN     N3       NG1T1   -0.460000       14.0070           0
     78222 WT26     505      MECN     C1       CG331   -0.170000       12.0110           0
     78223 WT26     505      MECN     H11      HGA3     0.090000        1.0080           0
     78224 WT26     505      MECN     H12      HGA3     0.090000        1.0080           0
     78225 WT26     505      MECN     H13      HGA3     0.090000        1.0080           0
     78226 WT26     505      MECN     C2       CG1N1    0.360000       12.0110           0
     78227 WT26     505      MECN     N3       NG1T1   -0.460000       14.0070           0
     78228 WT26     506      MECN     C1       CG331   -0.170000       12.0110           0
     78229 WT26     506      MECN     H11      HGA3     0.090000        1.0080           0
     78230 WT26     506      MECN     H12      HGA3     0.090000        1.0080           0
     78231 WT26     506      MECN     H13      HGA3     0.090000        1.0080           0
     78232 WT26     506      MECN     C2       CG1N1    0.360000       12.0110           0
     78233 WT26     506      MECN     N3       NG1T1   -0.460000       14.0070           0
     78234 WT26     507      MECN     C1       CG331   -0.170000       12.0110           0
     78235 WT26     507      MECN     H11      HGA3     0.090000        1.0080           0
     78236 WT26     507      MECN     H12      HGA3     0.090000        1.0080           0
     78237 WT26     507      MECN     H13      HGA3     0.090000        1.0080           0
     78238 WT26     507      MECN     C2       CG1N1    0.360000       12.0110           0
     78239 WT26     507      MECN     N3       NG1T1   -0.460000       14.0070           0
     78240 WT26     510      MECN     C1       CG331   -0.170000       12.0110           0
     78241 WT26     510      MECN     H11      HGA3     0.090000        1.0080           0
     78242 WT26     510      MECN     H12      HGA3     0.090000        1.0080           0
     78243 WT26     510      MECN     H13      HGA3     0.090000        1.0080           0
     78244 WT26     510      MECN     C2       CG1N1    0.360000       12.0110           0
     78245 WT26     510      MECN     N3       NG1T1   -0.460000       14.0070           0
     78246 WT26     512      MECN     C1       CG331   -0.170000       12.0110           0
     78247 WT26     512      MECN     H11      HGA3     0.090000        1.0080           0
     78248 WT26     512      MECN     H12      HGA3     0.090000        1.0080           0
     78249 WT26     512      MECN     H13      HGA3     0.090000        1.0080           0
     78250 WT26     512      MECN     C2       CG1N1    0.360000       12.0110           0
     78251 WT26     512      MECN     N3       NG1T1   -0.460000       14.0070           0
     78252 WT26     514      MECN     C1       CG331   -0.170000       12.0110           0
     78253 WT26     514      MECN     H11      HGA3     0.090000        1.0080           0
     78254 WT26     514      MECN     H12      HGA3     0.090000        1.0080           0
     78255 WT26     514      MECN     H13      HGA3     0.090000        1.0080           0
     78256 WT26     514      MECN     C2       CG1N1    0.360000       12.0110           0
     78257 WT26     514      MECN     N3       NG1T1   -0.460000       14.0070           0
     78258 WT26     515      MECN     C1       CG331   -0.170000       12.0110           0
     78259 WT26     515      MECN     H11      HGA3     0.090000        1.0080           0
     78260 WT26     515      MECN     H12      HGA3     0.090000        1.0080           0
     78261 WT26     515      MECN     H13      HGA3     0.090000        1.0080           0
     78262 WT26     515      MECN     C2       CG1N1    0.360000       12.0110           0
     78263 WT26     515      MECN     N3       NG1T1   -0.460000       14.0070           0
     78264 WT26     516      MECN     C1       CG331   -0.170000       12.0110           0
     78265 WT26     516      MECN     H11      HGA3     0.090000        1.0080           0
     78266 WT26     516      MECN     H12      HGA3     0.090000        1.0080           0
     78267 WT26     516      MECN     H13      HGA3     0.090000        1.0080           0
     78268 WT26     516      MECN     C2       CG1N1    0.360000       12.0110           0
     78269 WT26     516      MECN     N3       NG1T1   -0.460000       14.0070           0
     78270 WT26     517      MECN     C1       CG331   -0.170000       12.0110           0
     78271 WT26     517      MECN     H11      HGA3     0.090000        1.0080           0
     78272 WT26     517      MECN     H12      HGA3     0.090000        1.0080           0
     78273 WT26     517      MECN     H13      HGA3     0.090000        1.0080           0
     78274 WT26     517      MECN     C2       CG1N1    0.360000       12.0110           0
     78275 WT26     517      MECN     N3       NG1T1   -0.460000       14.0070           0
     78276 WT26     521      MECN     C1       CG331   -0.170000       12.0110           0
     78277 WT26     521      MECN     H11      HGA3     0.090000        1.0080           0
     78278 WT26     521      MECN     H12      HGA3     0.090000        1.0080           0
     78279 WT26     521      MECN     H13      HGA3     0.090000        1.0080           0
     78280 WT26     521      MECN     C2       CG1N1    0.360000       12.0110           0
     78281 WT26     521      MECN     N3       NG1T1   -0.460000       14.0070           0
     78282 WT26     524      MECN     C1       CG331   -0.170000       12.0110           0
     78283 WT26     524      MECN     H11      HGA3     0.090000        1.0080           0
     78284 WT26     524      MECN     H12      HGA3     0.090000        1.0080           0
     78285 WT26     524      MECN     H13      HGA3     0.090000        1.0080           0
     78286 WT26     524      MECN     C2       CG1N1    0.360000       12.0110           0
     78287 WT26     524      MECN     N3       NG1T1   -0.460000       14.0070           0
     78288 WT26     525      MECN     C1       CG331   -0.170000       12.0110           0
     78289 WT26     525      MECN     H11      HGA3     0.090000        1.0080           0
     78290 WT26     525      MECN     H12      HGA3     0.090000        1.0080           0
     78291 WT26     525      MECN     H13      HGA3     0.090000        1.0080           0
     78292 WT26     525      MECN     C2       CG1N1    0.360000       12.0110           0
     78293 WT26     525      MECN     N3       NG1T1   -0.460000       14.0070           0
     78294 WT26     527      MECN     C1       CG331   -0.170000       12.0110           0
     78295 WT26     527      MECN     H11      HGA3     0.090000        1.0080           0
     78296 WT26     527      MECN     H12      HGA3     0.090000        1.0080           0
     78297 WT26     527      MECN     H13      HGA3     0.090000        1.0080           0
     78298 WT26     527      MECN     C2       CG1N1    0.360000       12.0110           0
     78299 WT26     527      MECN     N3       NG1T1   -0.460000       14.0070           0
     78300 WT26     528      MECN     C1       CG331   -0.170000       12.0110           0
     78301 WT26     528      MECN     H11      HGA3     0.090000        1.0080           0
     78302 WT26     528      MECN     H12      HGA3     0.090000        1.0080           0
     78303 WT26     528      MECN     H13      HGA3     0.090000        1.0080           0
     78304 WT26     528      MECN     C2       CG1N1    0.360000       12.0110           0
     78305 WT26     528      MECN     N3       NG1T1   -0.460000       14.0070           0
     78306 WT26     529      MECN     C1       CG331   -0.170000       12.0110           0
     78307 WT26     529      MECN     H11      HGA3     0.090000        1.0080           0
     78308 WT26     529      MECN     H12      HGA3     0.090000        1.0080           0
     78309 WT26     529      MECN     H13      HGA3     0.090000        1.0080           0
     78310 WT26     529      MECN     C2       CG1N1    0.360000       12.0110           0
     78311 WT26     529      MECN     N3       NG1T1   -0.460000       14.0070           0
     78312 WT26     533      MECN     C1       CG331   -0.170000       12.0110           0
     78313 WT26     533      MECN     H11      HGA3     0.090000        1.0080           0
     78314 WT26     533      MECN     H12      HGA3     0.090000        1.0080           0
     78315 WT26     533      MECN     H13      HGA3     0.090000        1.0080           0
     78316 WT26     533      MECN     C2       CG1N1    0.360000       12.0110           0
     78317 WT26     533      MECN     N3       NG1T1   -0.460000       14.0070           0
     78318 WT26     534      MECN     C1       CG331   -0.170000       12.0110           0
     78319 WT26     534      MECN     H11      HGA3     0.090000        1.0080           0
     78320 WT26     534      MECN     H12      HGA3     0.090000        1.0080           0
     78321 WT26     534      MECN     H13      HGA3     0.090000        1.0080           0
     78322 WT26     534      MECN     C2       CG1N1    0.360000       12.0110           0
     78323 WT26     534      MECN     N3       NG1T1   -0.460000       14.0070           0
     78324 WT26     535      MECN     C1       CG331   -0.170000       12.0110           0
     78325 WT26     535      MECN     H11      HGA3     0.090000        1.0080           0
     78326 WT26     535      MECN     H12      HGA3     0.090000        1.0080           0
     78327 WT26     535      MECN     H13      HGA3     0.090000        1.0080           0
     78328 WT26     535      MECN     C2       CG1N1    0.360000       12.0110           0
     78329 WT26     535      MECN     N3       NG1T1   -0.460000       14.0070           0
     78330 WT26     536      MECN     C1       CG331   -0.170000       12.0110           0
     78331 WT26     536      MECN     H11      HGA3     0.090000        1.0080           0
     78332 WT26     536      MECN     H12      HGA3     0.090000        1.0080           0
     78333 WT26     536      MECN     H13      HGA3     0.090000        1.0080           0
     78334 WT26     536      MECN     C2       CG1N1    0.360000       12.0110           0
     78335 WT26     536      MECN     N3       NG1T1   -0.460000       14.0070           0
     78336 WT26     538      MECN     C1       CG331   -0.170000       12.0110           0
     78337 WT26     538      MECN     H11      HGA3     0.090000        1.0080           0
     78338 WT26     538      MECN     H12      HGA3     0.090000        1.0080           0
     78339 WT26     538      MECN     H13      HGA3     0.090000        1.0080           0
     78340 WT26     538      MECN     C2       CG1N1    0.360000       12.0110           0
     78341 WT26     538      MECN     N3       NG1T1   -0.460000       14.0070           0
     78342 WT26     539      MECN     C1       CG331   -0.170000       12.0110           0
     78343 WT26     539      MECN     H11      HGA3     0.090000        1.0080           0
     78344 WT26     539      MECN     H12      HGA3     0.090000        1.0080           0
     78345 WT26     539      MECN     H13      HGA3     0.090000        1.0080           0
     78346 WT26     539      MECN     C2       CG1N1    0.360000       12.0110           0
     78347 WT26     539      MECN     N3       NG1T1   -0.460000       14.0070           0
     78348 WT26     540      MECN     C1       CG331   -0.170000       12.0110           0
     78349 WT26     540      MECN     H11      HGA3     0.090000        1.0080           0
     78350 WT26     540      MECN     H12      HGA3     0.090000        1.0080           0
     78351 WT26     540      MECN     H13      HGA3     0.090000        1.0080           0
     78352 WT26     540      MECN     C2       CG1N1    0.360000       12.0110           0
     78353 WT26     540      MECN     N3       NG1T1   -0.460000       14.0070           0
     78354 WT26     544      MECN     C1       CG331   -0.170000       12.0110           0
     78355 WT26     544      MECN     H11      HGA3     0.090000        1.0080           0
     78356 WT26     544      MECN     H12      HGA3     0.090000        1.0080           0
     78357 WT26     544      MECN     H13      HGA3     0.090000        1.0080           0
     78358 WT26     544      MECN     C2       CG1N1    0.360000       12.0110           0
     78359 WT26     544      MECN     N3       NG1T1   -0.460000       14.0070           0
     78360 WT26     545      MECN     C1       CG331   -0.170000       12.0110           0
     78361 WT26     545      MECN     H11      HGA3     0.090000        1.0080           0
     78362 WT26     545      MECN     H12      HGA3     0.090000        1.0080           0
     78363 WT26     545      MECN     H13      HGA3     0.090000        1.0080           0
     78364 WT26     545      MECN     C2       CG1N1    0.360000       12.0110           0
     78365 WT26     545      MECN     N3       NG1T1   -0.460000       14.0070           0
     78366 WT26     548      MECN     C1       CG331   -0.170000       12.0110           0
     78367 WT26     548      MECN     H11      HGA3     0.090000        1.0080           0
     78368 WT26     548      MECN     H12      HGA3     0.090000        1.0080           0
     78369 WT26     548      MECN     H13      HGA3     0.090000        1.0080           0
     78370 WT26     548      MECN     C2       CG1N1    0.360000       12.0110           0
     78371 WT26     548      MECN     N3       NG1T1   -0.460000       14.0070           0
     78372 WT26     549      MECN     C1       CG331   -0.170000       12.0110           0
     78373 WT26     549      MECN     H11      HGA3     0.090000        1.0080           0
     78374 WT26     549      MECN     H12      HGA3     0.090000        1.0080           0
     78375 WT26     549      MECN     H13      HGA3     0.090000        1.0080           0
     78376 WT26     549      MECN     C2       CG1N1    0.360000       12.0110           0
     78377 WT26     549      MECN     N3       NG1T1   -0.460000       14.0070           0
     78378 WT26     550      MECN     C1       CG331   -0.170000       12.0110           0
     78379 WT26     550      MECN     H11      HGA3     0.090000        1.0080           0
     78380 WT26     550      MECN     H12      HGA3     0.090000        1.0080           0
     78381 WT26     550      MECN     H13      HGA3     0.090000        1.0080           0
     78382 WT26     550      MECN     C2       CG1N1    0.360000       12.0110           0
     78383 WT26     550      MECN     N3       NG1T1   -0.460000       14.0070           0
     78384 WT26     551      MECN     C1       CG331   -0.170000       12.0110           0
     78385 WT26     551      MECN     H11      HGA3     0.090000        1.0080           0
     78386 WT26     551      MECN     H12      HGA3     0.090000        1.0080           0
     78387 WT26     551      MECN     H13      HGA3     0.090000        1.0080           0
     78388 WT26     551      MECN     C2       CG1N1    0.360000       12.0110           0
     78389 WT26     551      MECN     N3       NG1T1   -0.460000       14.0070           0
     78390 WT26     552      MECN     C1       CG331   -0.170000       12.0110           0
     78391 WT26     552      MECN     H11      HGA3     0.090000        1.0080           0
     78392 WT26     552      MECN     H12      HGA3     0.090000        1.0080           0
     78393 WT26     552      MECN     H13      HGA3     0.090000        1.0080           0
     78394 WT26     552      MECN     C2       CG1N1    0.360000       12.0110           0
     78395 WT26     552      MECN     N3       NG1T1   -0.460000       14.0070           0
     78396 WT26     554      MECN     C1       CG331   -0.170000       12.0110           0
     78397 WT26     554      MECN     H11      HGA3     0.090000        1.0080           0
     78398 WT26     554      MECN     H12      HGA3     0.090000        1.0080           0
     78399 WT26     554      MECN     H13      HGA3     0.090000        1.0080           0
     78400 WT26     554      MECN     C2       CG1N1    0.360000       12.0110           0
     78401 WT26     554      MECN     N3       NG1T1   -0.460000       14.0070           0
     78402 WT26     556      MECN     C1       CG331   -0.170000       12.0110           0
     78403 WT26     556      MECN     H11      HGA3     0.090000        1.0080           0
     78404 WT26     556      MECN     H12      HGA3     0.090000        1.0080           0
     78405 WT26     556      MECN     H13      HGA3     0.090000        1.0080           0
     78406 WT26     556      MECN     C2       CG1N1    0.360000       12.0110           0
     78407 WT26     556      MECN     N3       NG1T1   -0.460000       14.0070           0
     78408 WT26     559      MECN     C1       CG331   -0.170000       12.0110           0
     78409 WT26     559      MECN     H11      HGA3     0.090000        1.0080           0
     78410 WT26     559      MECN     H12      HGA3     0.090000        1.0080           0
     78411 WT26     559      MECN     H13      HGA3     0.090000        1.0080           0
     78412 WT26     559      MECN     C2       CG1N1    0.360000       12.0110           0
     78413 WT26     559      MECN     N3       NG1T1   -0.460000       14.0070           0
     78414 WT26     561      MECN     C1       CG331   -0.170000       12.0110           0
     78415 WT26     561      MECN     H11      HGA3     0.090000        1.0080           0
     78416 WT26     561      MECN     H12      HGA3     0.090000        1.0080           0
     78417 WT26     561      MECN     H13      HGA3     0.090000        1.0080           0
     78418 WT26     561      MECN     C2       CG1N1    0.360000       12.0110           0
     78419 WT26     561      MECN     N3       NG1T1   -0.460000       14.0070           0
     78420 WT26     565      MECN     C1       CG331   -0.170000       12.0110           0
     78421 WT26     565      MECN     H11      HGA3     0.090000        1.0080           0
     78422 WT26     565      MECN     H12      HGA3     0.090000        1.0080           0
     78423 WT26     565      MECN     H13      HGA3     0.090000        1.0080           0
     78424 WT26     565      MECN     C2       CG1N1    0.360000       12.0110           0
     78425 WT26     565      MECN     N3       NG1T1   -0.460000       14.0070           0
     78426 WT26     572      MECN     C1       CG331   -0.170000       12.0110           0
     78427 WT26     572      MECN     H11      HGA3     0.090000        1.0080           0
     78428 WT26     572      MECN     H12      HGA3     0.090000        1.0080           0
     78429 WT26     572      MECN     H13      HGA3     0.090000        1.0080           0
     78430 WT26     572      MECN     C2       CG1N1    0.360000       12.0110           0
     78431 WT26     572      MECN     N3       NG1T1   -0.460000       14.0070           0
     78432 WT26     575      MECN     C1       CG331   -0.170000       12.0110           0
     78433 WT26     575      MECN     H11      HGA3     0.090000        1.0080           0
     78434 WT26     575      MECN     H12      HGA3     0.090000        1.0080           0
     78435 WT26     575      MECN     H13      HGA3     0.090000        1.0080           0
     78436 WT26     575      MECN     C2       CG1N1    0.360000       12.0110           0
     78437 WT26     575      MECN     N3       NG1T1   -0.460000       14.0070           0
     78438 WT26     576      MECN     C1       CG331   -0.170000       12.0110           0
     78439 WT26     576      MECN     H11      HGA3     0.090000        1.0080           0
     78440 WT26     576      MECN     H12      HGA3     0.090000        1.0080           0
     78441 WT26     576      MECN     H13      HGA3     0.090000        1.0080           0
     78442 WT26     576      MECN     C2       CG1N1    0.360000       12.0110           0
     78443 WT26     576      MECN     N3       NG1T1   -0.460000       14.0070           0
     78444 WT26     577      MECN     C1       CG331   -0.170000       12.0110           0
     78445 WT26     577      MECN     H11      HGA3     0.090000        1.0080           0
     78446 WT26     577      MECN     H12      HGA3     0.090000        1.0080           0
     78447 WT26     577      MECN     H13      HGA3     0.090000        1.0080           0
     78448 WT26     577      MECN     C2       CG1N1    0.360000       12.0110           0
     78449 WT26     577      MECN     N3       NG1T1   -0.460000       14.0070           0
     78450 WT26     582      MECN     C1       CG331   -0.170000       12.0110           0
     78451 WT26     582      MECN     H11      HGA3     0.090000        1.0080           0
     78452 WT26     582      MECN     H12      HGA3     0.090000        1.0080           0
     78453 WT26     582      MECN     H13      HGA3     0.090000        1.0080           0
     78454 WT26     582      MECN     C2       CG1N1    0.360000       12.0110           0
     78455 WT26     582      MECN     N3       NG1T1   -0.460000       14.0070           0
     78456 WT26     584      MECN     C1       CG331   -0.170000       12.0110           0
     78457 WT26     584      MECN     H11      HGA3     0.090000        1.0080           0
     78458 WT26     584      MECN     H12      HGA3     0.090000        1.0080           0
     78459 WT26     584      MECN     H13      HGA3     0.090000        1.0080           0
     78460 WT26     584      MECN     C2       CG1N1    0.360000       12.0110           0
     78461 WT26     584      MECN     N3       NG1T1   -0.460000       14.0070           0
     78462 WT26     588      MECN     C1       CG331   -0.170000       12.0110           0
     78463 WT26     588      MECN     H11      HGA3     0.090000        1.0080           0
     78464 WT26     588      MECN     H12      HGA3     0.090000        1.0080           0
     78465 WT26     588      MECN     H13      HGA3     0.090000        1.0080           0
     78466 WT26     588      MECN     C2       CG1N1    0.360000       12.0110           0
     78467 WT26     588      MECN     N3       NG1T1   -0.460000       14.0070           0
     78468 WT26     591      MECN     C1       CG331   -0.170000       12.0110           0
     78469 WT26     591      MECN     H11      HGA3     0.090000        1.0080           0
     78470 WT26     591      MECN     H12      HGA3     0.090000        1.0080           0
     78471 WT26     591      MECN     H13      HGA3     0.090000        1.0080           0
     78472 WT26     591      MECN     C2       CG1N1    0.360000       12.0110           0
     78473 WT26     591      MECN     N3       NG1T1   -0.460000       14.0070           0
     78474 WT26     592      MECN     C1       CG331   -0.170000       12.0110           0
     78475 WT26     592      MECN     H11      HGA3     0.090000        1.0080           0
     78476 WT26     592      MECN     H12      HGA3     0.090000        1.0080           0
     78477 WT26     592      MECN     H13      HGA3     0.090000        1.0080           0
     78478 WT26     592      MECN     C2       CG1N1    0.360000       12.0110           0
     78479 WT26     592      MECN     N3       NG1T1   -0.460000       14.0070           0
     78480 WT26     593      MECN     C1       CG331   -0.170000       12.0110           0
     78481 WT26     593      MECN     H11      HGA3     0.090000        1.0080           0
     78482 WT26     593      MECN     H12      HGA3     0.090000        1.0080           0
     78483 WT26     593      MECN     H13      HGA3     0.090000        1.0080           0
     78484 WT26     593      MECN     C2       CG1N1    0.360000       12.0110           0
     78485 WT26     593      MECN     N3       NG1T1   -0.460000       14.0070           0
     78486 WT26     596      MECN     C1       CG331   -0.170000       12.0110           0
     78487 WT26     596      MECN     H11      HGA3     0.090000        1.0080           0
     78488 WT26     596      MECN     H12      HGA3     0.090000        1.0080           0
     78489 WT26     596      MECN     H13      HGA3     0.090000        1.0080           0
     78490 WT26     596      MECN     C2       CG1N1    0.360000       12.0110           0
     78491 WT26     596      MECN     N3       NG1T1   -0.460000       14.0070           0
     78492 WT26     597      MECN     C1       CG331   -0.170000       12.0110           0
     78493 WT26     597      MECN     H11      HGA3     0.090000        1.0080           0
     78494 WT26     597      MECN     H12      HGA3     0.090000        1.0080           0
     78495 WT26     597      MECN     H13      HGA3     0.090000        1.0080           0
     78496 WT26     597      MECN     C2       CG1N1    0.360000       12.0110           0
     78497 WT26     597      MECN     N3       NG1T1   -0.460000       14.0070           0
     78498 WT26     599      MECN     C1       CG331   -0.170000       12.0110           0
     78499 WT26     599      MECN     H11      HGA3     0.090000        1.0080           0
     78500 WT26     599      MECN     H12      HGA3     0.090000        1.0080           0
     78501 WT26     599      MECN     H13      HGA3     0.090000        1.0080           0
     78502 WT26     599      MECN     C2       CG1N1    0.360000       12.0110           0
     78503 WT26     599      MECN     N3       NG1T1   -0.460000       14.0070           0
     78504 WT26     600      MECN     C1       CG331   -0.170000       12.0110           0
     78505 WT26     600      MECN     H11      HGA3     0.090000        1.0080           0
     78506 WT26     600      MECN     H12      HGA3     0.090000        1.0080           0
     78507 WT26     600      MECN     H13      HGA3     0.090000        1.0080           0
     78508 WT26     600      MECN     C2       CG1N1    0.360000       12.0110           0
     78509 WT26     600      MECN     N3       NG1T1   -0.460000       14.0070           0
     78510 WT26     601      MECN     C1       CG331   -0.170000       12.0110           0
     78511 WT26     601      MECN     H11      HGA3     0.090000        1.0080           0
     78512 WT26     601      MECN     H12      HGA3     0.090000        1.0080           0
     78513 WT26     601      MECN     H13      HGA3     0.090000        1.0080           0
     78514 WT26     601      MECN     C2       CG1N1    0.360000       12.0110           0
     78515 WT26     601      MECN     N3       NG1T1   -0.460000       14.0070           0
     78516 WT26     603      MECN     C1       CG331   -0.170000       12.0110           0
     78517 WT26     603      MECN     H11      HGA3     0.090000        1.0080           0
     78518 WT26     603      MECN     H12      HGA3     0.090000        1.0080           0
     78519 WT26     603      MECN     H13      HGA3     0.090000        1.0080           0
     78520 WT26     603      MECN     C2       CG1N1    0.360000       12.0110           0
     78521 WT26     603      MECN     N3       NG1T1   -0.460000       14.0070           0
     78522 WT26     604      MECN     C1       CG331   -0.170000       12.0110           0
     78523 WT26     604      MECN     H11      HGA3     0.090000        1.0080           0
     78524 WT26     604      MECN     H12      HGA3     0.090000        1.0080           0
     78525 WT26     604      MECN     H13      HGA3     0.090000        1.0080           0
     78526 WT26     604      MECN     C2       CG1N1    0.360000       12.0110           0
     78527 WT26     604      MECN     N3       NG1T1   -0.460000       14.0070           0
     78528 WT26     607      MECN     C1       CG331   -0.170000       12.0110           0
     78529 WT26     607      MECN     H11      HGA3     0.090000        1.0080           0
     78530 WT26     607      MECN     H12      HGA3     0.090000        1.0080           0
     78531 WT26     607      MECN     H13      HGA3     0.090000        1.0080           0
     78532 WT26     607      MECN     C2       CG1N1    0.360000       12.0110           0
     78533 WT26     607      MECN     N3       NG1T1   -0.460000       14.0070           0
     78534 WT26     608      MECN     C1       CG331   -0.170000       12.0110           0
     78535 WT26     608      MECN     H11      HGA3     0.090000        1.0080           0
     78536 WT26     608      MECN     H12      HGA3     0.090000        1.0080           0
     78537 WT26     608      MECN     H13      HGA3     0.090000        1.0080           0
     78538 WT26     608      MECN     C2       CG1N1    0.360000       12.0110           0
     78539 WT26     608      MECN     N3       NG1T1   -0.460000       14.0070           0
     78540 WT26     609      MECN     C1       CG331   -0.170000       12.0110           0
     78541 WT26     609      MECN     H11      HGA3     0.090000        1.0080           0
     78542 WT26     609      MECN     H12      HGA3     0.090000        1.0080           0
     78543 WT26     609      MECN     H13      HGA3     0.090000        1.0080           0
     78544 WT26     609      MECN     C2       CG1N1    0.360000       12.0110           0
     78545 WT26     609      MECN     N3       NG1T1   -0.460000       14.0070           0
     78546 WT26     615      MECN     C1       CG331   -0.170000       12.0110           0
     78547 WT26     615      MECN     H11      HGA3     0.090000        1.0080           0
     78548 WT26     615      MECN     H12      HGA3     0.090000        1.0080           0
     78549 WT26     615      MECN     H13      HGA3     0.090000        1.0080           0
     78550 WT26     615      MECN     C2       CG1N1    0.360000       12.0110           0
     78551 WT26     615      MECN     N3       NG1T1   -0.460000       14.0070           0
     78552 WT26     616      MECN     C1       CG331   -0.170000       12.0110           0
     78553 WT26     616      MECN     H11      HGA3     0.090000        1.0080           0
     78554 WT26     616      MECN     H12      HGA3     0.090000        1.0080           0
     78555 WT26     616      MECN     H13      HGA3     0.090000        1.0080           0
     78556 WT26     616      MECN     C2       CG1N1    0.360000       12.0110           0
     78557 WT26     616      MECN     N3       NG1T1   -0.460000       14.0070           0
     78558 WT26     617      MECN     C1       CG331   -0.170000       12.0110           0
     78559 WT26     617      MECN     H11      HGA3     0.090000        1.0080           0
     78560 WT26     617      MECN     H12      HGA3     0.090000        1.0080           0
     78561 WT26     617      MECN     H13      HGA3     0.090000        1.0080           0
     78562 WT26     617      MECN     C2       CG1N1    0.360000       12.0110           0
     78563 WT26     617      MECN     N3       NG1T1   -0.460000       14.0070           0
     78564 WT26     618      MECN     C1       CG331   -0.170000       12.0110           0
     78565 WT26     618      MECN     H11      HGA3     0.090000        1.0080           0
     78566 WT26     618      MECN     H12      HGA3     0.090000        1.0080           0
     78567 WT26     618      MECN     H13      HGA3     0.090000        1.0080           0
     78568 WT26     618      MECN     C2       CG1N1    0.360000       12.0110           0
     78569 WT26     618      MECN     N3       NG1T1   -0.460000       14.0070           0
     78570 WT26     619      MECN     C1       CG331   -0.170000       12.0110           0
     78571 WT26     619      MECN     H11      HGA3     0.090000        1.0080           0
     78572 WT26     619      MECN     H12      HGA3     0.090000        1.0080           0
     78573 WT26     619      MECN     H13      HGA3     0.090000        1.0080           0
     78574 WT26     619      MECN     C2       CG1N1    0.360000       12.0110           0
     78575 WT26     619      MECN     N3       NG1T1   -0.460000       14.0070           0
     78576 WT26     621      MECN     C1       CG331   -0.170000       12.0110           0
     78577 WT26     621      MECN     H11      HGA3     0.090000        1.0080           0
     78578 WT26     621      MECN     H12      HGA3     0.090000        1.0080           0
     78579 WT26     621      MECN     H13      HGA3     0.090000        1.0080           0
     78580 WT26     621      MECN     C2       CG1N1    0.360000       12.0110           0
     78581 WT26     621      MECN     N3       NG1T1   -0.460000       14.0070           0
     78582 WT26     622      MECN     C1       CG331   -0.170000       12.0110           0
     78583 WT26     622      MECN     H11      HGA3     0.090000        1.0080           0
     78584 WT26     622      MECN     H12      HGA3     0.090000        1.0080           0
     78585 WT26     622      MECN     H13      HGA3     0.090000        1.0080           0
     78586 WT26     622      MECN     C2       CG1N1    0.360000       12.0110           0
     78587 WT26     622      MECN     N3       NG1T1   -0.460000       14.0070           0
     78588 WT26     624      MECN     C1       CG331   -0.170000       12.0110           0
     78589 WT26     624      MECN     H11      HGA3     0.090000        1.0080           0
     78590 WT26     624      MECN     H12      HGA3     0.090000        1.0080           0
     78591 WT26     624      MECN     H13      HGA3     0.090000        1.0080           0
     78592 WT26     624      MECN     C2       CG1N1    0.360000       12.0110           0
     78593 WT26     624      MECN     N3       NG1T1   -0.460000       14.0070           0
     78594 WT26     626      MECN     C1       CG331   -0.170000       12.0110           0
     78595 WT26     626      MECN     H11      HGA3     0.090000        1.0080           0
     78596 WT26     626      MECN     H12      HGA3     0.090000        1.0080           0
     78597 WT26     626      MECN     H13      HGA3     0.090000        1.0080           0
     78598 WT26     626      MECN     C2       CG1N1    0.360000       12.0110           0
     78599 WT26     626      MECN     N3       NG1T1   -0.460000       14.0070           0
     78600 WT26     627      MECN     C1       CG331   -0.170000       12.0110           0
     78601 WT26     627      MECN     H11      HGA3     0.090000        1.0080           0
     78602 WT26     627      MECN     H12      HGA3     0.090000        1.0080           0
     78603 WT26     627      MECN     H13      HGA3     0.090000        1.0080           0
     78604 WT26     627      MECN     C2       CG1N1    0.360000       12.0110           0
     78605 WT26     627      MECN     N3       NG1T1   -0.460000       14.0070           0
     78606 WT26     628      MECN     C1       CG331   -0.170000       12.0110           0
     78607 WT26     628      MECN     H11      HGA3     0.090000        1.0080           0
     78608 WT26     628      MECN     H12      HGA3     0.090000        1.0080           0
     78609 WT26     628      MECN     H13      HGA3     0.090000        1.0080           0
     78610 WT26     628      MECN     C2       CG1N1    0.360000       12.0110           0
     78611 WT26     628      MECN     N3       NG1T1   -0.460000       14.0070           0
     78612 WT26     629      MECN     C1       CG331   -0.170000       12.0110           0
     78613 WT26     629      MECN     H11      HGA3     0.090000        1.0080           0
     78614 WT26     629      MECN     H12      HGA3     0.090000        1.0080           0
     78615 WT26     629      MECN     H13      HGA3     0.090000        1.0080           0
     78616 WT26     629      MECN     C2       CG1N1    0.360000       12.0110           0
     78617 WT26     629      MECN     N3       NG1T1   -0.460000       14.0070           0
     78618 WT26     631      MECN     C1       CG331   -0.170000       12.0110           0
     78619 WT26     631      MECN     H11      HGA3     0.090000        1.0080           0
     78620 WT26     631      MECN     H12      HGA3     0.090000        1.0080           0
     78621 WT26     631      MECN     H13      HGA3     0.090000        1.0080           0
     78622 WT26     631      MECN     C2       CG1N1    0.360000       12.0110           0
     78623 WT26     631      MECN     N3       NG1T1   -0.460000       14.0070           0
     78624 WT26     633      MECN     C1       CG331   -0.170000       12.0110           0
     78625 WT26     633      MECN     H11      HGA3     0.090000        1.0080           0
     78626 WT26     633      MECN     H12      HGA3     0.090000        1.0080           0
     78627 WT26     633      MECN     H13      HGA3     0.090000        1.0080           0
     78628 WT26     633      MECN     C2       CG1N1    0.360000       12.0110           0
     78629 WT26     633      MECN     N3       NG1T1   -0.460000       14.0070           0
     78630 WT26     635      MECN     C1       CG331   -0.170000       12.0110           0
     78631 WT26     635      MECN     H11      HGA3     0.090000        1.0080           0
     78632 WT26     635      MECN     H12      HGA3     0.090000        1.0080           0
     78633 WT26     635      MECN     H13      HGA3     0.090000        1.0080           0
     78634 WT26     635      MECN     C2       CG1N1    0.360000       12.0110           0
     78635 WT26     635      MECN     N3       NG1T1   -0.460000       14.0070           0
     78636 WT26     640      MECN     C1       CG331   -0.170000       12.0110           0
     78637 WT26     640      MECN     H11      HGA3     0.090000        1.0080           0
     78638 WT26     640      MECN     H12      HGA3     0.090000        1.0080           0
     78639 WT26     640      MECN     H13      HGA3     0.090000        1.0080           0
     78640 WT26     640      MECN     C2       CG1N1    0.360000       12.0110           0
     78641 WT26     640      MECN     N3       NG1T1   -0.460000       14.0070           0
     78642 WT26     643      MECN     C1       CG331   -0.170000       12.0110           0
     78643 WT26     643      MECN     H11      HGA3     0.090000        1.0080           0
     78644 WT26     643      MECN     H12      HGA3     0.090000        1.0080           0
     78645 WT26     643      MECN     H13      HGA3     0.090000        1.0080           0
     78646 WT26     643      MECN     C2       CG1N1    0.360000       12.0110           0
     78647 WT26     643      MECN     N3       NG1T1   -0.460000       14.0070           0
     78648 WT26     645      MECN     C1       CG331   -0.170000       12.0110           0
     78649 WT26     645      MECN     H11      HGA3     0.090000        1.0080           0
     78650 WT26     645      MECN     H12      HGA3     0.090000        1.0080           0
     78651 WT26     645      MECN     H13      HGA3     0.090000        1.0080           0
     78652 WT26     645      MECN     C2       CG1N1    0.360000       12.0110           0
     78653 WT26     645      MECN     N3       NG1T1   -0.460000       14.0070           0
     78654 WT26     646      MECN     C1       CG331   -0.170000       12.0110           0
     78655 WT26     646      MECN     H11      HGA3     0.090000        1.0080           0
     78656 WT26     646      MECN     H12      HGA3     0.090000        1.0080           0
     78657 WT26     646      MECN     H13      HGA3     0.090000        1.0080           0
     78658 WT26     646      MECN     C2       CG1N1    0.360000       12.0110           0
     78659 WT26     646      MECN     N3       NG1T1   -0.460000       14.0070           0
     78660 WT26     648      MECN     C1       CG331   -0.170000       12.0110           0
     78661 WT26     648      MECN     H11      HGA3     0.090000        1.0080           0
     78662 WT26     648      MECN     H12      HGA3     0.090000        1.0080           0
     78663 WT26     648      MECN     H13      HGA3     0.090000        1.0080           0
     78664 WT26     648      MECN     C2       CG1N1    0.360000       12.0110           0
     78665 WT26     648      MECN     N3       NG1T1   -0.460000       14.0070           0
     78666 WT26     649      MECN     C1       CG331   -0.170000       12.0110           0
     78667 WT26     649      MECN     H11      HGA3     0.090000        1.0080           0
     78668 WT26     649      MECN     H12      HGA3     0.090000        1.0080           0
     78669 WT26     649      MECN     H13      HGA3     0.090000        1.0080           0
     78670 WT26     649      MECN     C2       CG1N1    0.360000       12.0110           0
     78671 WT26     649      MECN     N3       NG1T1   -0.460000       14.0070           0
     78672 WT26     653      MECN     C1       CG331   -0.170000       12.0110           0
     78673 WT26     653      MECN     H11      HGA3     0.090000        1.0080           0
     78674 WT26     653      MECN     H12      HGA3     0.090000        1.0080           0
     78675 WT26     653      MECN     H13      HGA3     0.090000        1.0080           0
     78676 WT26     653      MECN     C2       CG1N1    0.360000       12.0110           0
     78677 WT26     653      MECN     N3       NG1T1   -0.460000       14.0070           0
     78678 WT26     654      MECN     C1       CG331   -0.170000       12.0110           0
     78679 WT26     654      MECN     H11      HGA3     0.090000        1.0080           0
     78680 WT26     654      MECN     H12      HGA3     0.090000        1.0080           0
     78681 WT26     654      MECN     H13      HGA3     0.090000        1.0080           0
     78682 WT26     654      MECN     C2       CG1N1    0.360000       12.0110           0
     78683 WT26     654      MECN     N3       NG1T1   -0.460000       14.0070           0
     78684 WT26     657      MECN     C1       CG331   -0.170000       12.0110           0
     78685 WT26     657      MECN     H11      HGA3     0.090000        1.0080           0
     78686 WT26     657      MECN     H12      HGA3     0.090000        1.0080           0
     78687 WT26     657      MECN     H13      HGA3     0.090000        1.0080           0
     78688 WT26     657      MECN     C2       CG1N1    0.360000       12.0110           0
     78689 WT26     657      MECN     N3       NG1T1   -0.460000       14.0070           0
     78690 WT26     660      MECN     C1       CG331   -0.170000       12.0110           0
     78691 WT26     660      MECN     H11      HGA3     0.090000        1.0080           0
     78692 WT26     660      MECN     H12      HGA3     0.090000        1.0080           0
     78693 WT26     660      MECN     H13      HGA3     0.090000        1.0080           0
     78694 WT26     660      MECN     C2       CG1N1    0.360000       12.0110           0
     78695 WT26     660      MECN     N3       NG1T1   -0.460000       14.0070           0
     78696 WT26     662      MECN     C1       CG331   -0.170000       12.0110           0
     78697 WT26     662      MECN     H11      HGA3     0.090000        1.0080           0
     78698 WT26     662      MECN     H12      HGA3     0.090000        1.0080           0
     78699 WT26     662      MECN     H13      HGA3     0.090000        1.0080           0
     78700 WT26     662      MECN     C2       CG1N1    0.360000       12.0110           0
     78701 WT26     662      MECN     N3       NG1T1   -0.460000       14.0070           0
     78702 WT26     665      MECN     C1       CG331   -0.170000       12.0110           0
     78703 WT26     665      MECN     H11      HGA3     0.090000        1.0080           0
     78704 WT26     665      MECN     H12      HGA3     0.090000        1.0080           0
     78705 WT26     665      MECN     H13      HGA3     0.090000        1.0080           0
     78706 WT26     665      MECN     C2       CG1N1    0.360000       12.0110           0
     78707 WT26     665      MECN     N3       NG1T1   -0.460000       14.0070           0
     78708 WT26     666      MECN     C1       CG331   -0.170000       12.0110           0
     78709 WT26     666      MECN     H11      HGA3     0.090000        1.0080           0
     78710 WT26     666      MECN     H12      HGA3     0.090000        1.0080           0
     78711 WT26     666      MECN     H13      HGA3     0.090000        1.0080           0
     78712 WT26     666      MECN     C2       CG1N1    0.360000       12.0110           0
     78713 WT26     666      MECN     N3       NG1T1   -0.460000       14.0070           0
     78714 WT26     667      MECN     C1       CG331   -0.170000       12.0110           0
     78715 WT26     667      MECN     H11      HGA3     0.090000        1.0080           0
     78716 WT26     667      MECN     H12      HGA3     0.090000        1.0080           0
     78717 WT26     667      MECN     H13      HGA3     0.090000        1.0080           0
     78718 WT26     667      MECN     C2       CG1N1    0.360000       12.0110           0
     78719 WT26     667      MECN     N3       NG1T1   -0.460000       14.0070           0
     78720 WT26     668      MECN     C1       CG331   -0.170000       12.0110           0
     78721 WT26     668      MECN     H11      HGA3     0.090000        1.0080           0
     78722 WT26     668      MECN     H12      HGA3     0.090000        1.0080           0
     78723 WT26     668      MECN     H13      HGA3     0.090000        1.0080           0
     78724 WT26     668      MECN     C2       CG1N1    0.360000       12.0110           0
     78725 WT26     668      MECN     N3       NG1T1   -0.460000       14.0070           0
     78726 WT26     669      MECN     C1       CG331   -0.170000       12.0110           0
     78727 WT26     669      MECN     H11      HGA3     0.090000        1.0080           0
     78728 WT26     669      MECN     H12      HGA3     0.090000        1.0080           0
     78729 WT26     669      MECN     H13      HGA3     0.090000        1.0080           0
     78730 WT26     669      MECN     C2       CG1N1    0.360000       12.0110           0
     78731 WT26     669      MECN     N3       NG1T1   -0.460000       14.0070           0
     78732 WT26     671      MECN     C1       CG331   -0.170000       12.0110           0
     78733 WT26     671      MECN     H11      HGA3     0.090000        1.0080           0
     78734 WT26     671      MECN     H12      HGA3     0.090000        1.0080           0
     78735 WT26     671      MECN     H13      HGA3     0.090000        1.0080           0
     78736 WT26     671      MECN     C2       CG1N1    0.360000       12.0110           0
     78737 WT26     671      MECN     N3       NG1T1   -0.460000       14.0070           0
     78738 WT26     675      MECN     C1       CG331   -0.170000       12.0110           0
     78739 WT26     675      MECN     H11      HGA3     0.090000        1.0080           0
     78740 WT26     675      MECN     H12      HGA3     0.090000        1.0080           0
     78741 WT26     675      MECN     H13      HGA3     0.090000        1.0080           0
     78742 WT26     675      MECN     C2       CG1N1    0.360000       12.0110           0
     78743 WT26     675      MECN     N3       NG1T1   -0.460000       14.0070           0
     78744 WT26     676      MECN     C1       CG331   -0.170000       12.0110           0
     78745 WT26     676      MECN     H11      HGA3     0.090000        1.0080           0
     78746 WT26     676      MECN     H12      HGA3     0.090000        1.0080           0
     78747 WT26     676      MECN     H13      HGA3     0.090000        1.0080           0
     78748 WT26     676      MECN     C2       CG1N1    0.360000       12.0110           0
     78749 WT26     676      MECN     N3       NG1T1   -0.460000       14.0070           0
     78750 WT26     677      MECN     C1       CG331   -0.170000       12.0110           0
     78751 WT26     677      MECN     H11      HGA3     0.090000        1.0080           0
     78752 WT26     677      MECN     H12      HGA3     0.090000        1.0080           0
     78753 WT26     677      MECN     H13      HGA3     0.090000        1.0080           0
     78754 WT26     677      MECN     C2       CG1N1    0.360000       12.0110           0
     78755 WT26     677      MECN     N3       NG1T1   -0.460000       14.0070           0
     78756 WT26     678      MECN     C1       CG331   -0.170000       12.0110           0
     78757 WT26     678      MECN     H11      HGA3     0.090000        1.0080           0
     78758 WT26     678      MECN     H12      HGA3     0.090000        1.0080           0
     78759 WT26     678      MECN     H13      HGA3     0.090000        1.0080           0
     78760 WT26     678      MECN     C2       CG1N1    0.360000       12.0110           0
     78761 WT26     678      MECN     N3       NG1T1   -0.460000       14.0070           0
     78762 WT26     683      MECN     C1       CG331   -0.170000       12.0110           0
     78763 WT26     683      MECN     H11      HGA3     0.090000        1.0080           0
     78764 WT26     683      MECN     H12      HGA3     0.090000        1.0080           0
     78765 WT26     683      MECN     H13      HGA3     0.090000        1.0080           0
     78766 WT26     683      MECN     C2       CG1N1    0.360000       12.0110           0
     78767 WT26     683      MECN     N3       NG1T1   -0.460000       14.0070           0
     78768 WT26     685      MECN     C1       CG331   -0.170000       12.0110           0
     78769 WT26     685      MECN     H11      HGA3     0.090000        1.0080           0
     78770 WT26     685      MECN     H12      HGA3     0.090000        1.0080           0
     78771 WT26     685      MECN     H13      HGA3     0.090000        1.0080           0
     78772 WT26     685      MECN     C2       CG1N1    0.360000       12.0110           0
     78773 WT26     685      MECN     N3       NG1T1   -0.460000       14.0070           0
     78774 WT26     686      MECN     C1       CG331   -0.170000       12.0110           0
     78775 WT26     686      MECN     H11      HGA3     0.090000        1.0080           0
     78776 WT26     686      MECN     H12      HGA3     0.090000        1.0080           0
     78777 WT26     686      MECN     H13      HGA3     0.090000        1.0080           0
     78778 WT26     686      MECN     C2       CG1N1    0.360000       12.0110           0
     78779 WT26     686      MECN     N3       NG1T1   -0.460000       14.0070           0
     78780 WT26     690      MECN     C1       CG331   -0.170000       12.0110           0
     78781 WT26     690      MECN     H11      HGA3     0.090000        1.0080           0
     78782 WT26     690      MECN     H12      HGA3     0.090000        1.0080           0
     78783 WT26     690      MECN     H13      HGA3     0.090000        1.0080           0
     78784 WT26     690      MECN     C2       CG1N1    0.360000       12.0110           0
     78785 WT26     690      MECN     N3       NG1T1   -0.460000       14.0070           0
     78786 WT26     691      MECN     C1       CG331   -0.170000       12.0110           0
     78787 WT26     691      MECN     H11      HGA3     0.090000        1.0080           0
     78788 WT26     691      MECN     H12      HGA3     0.090000        1.0080           0
     78789 WT26     691      MECN     H13      HGA3     0.090000        1.0080           0
     78790 WT26     691      MECN     C2       CG1N1    0.360000       12.0110           0
     78791 WT26     691      MECN     N3       NG1T1   -0.460000       14.0070           0
     78792 WT26     693      MECN     C1       CG331   -0.170000       12.0110           0
     78793 WT26     693      MECN     H11      HGA3     0.090000        1.0080           0
     78794 WT26     693      MECN     H12      HGA3     0.090000        1.0080           0
     78795 WT26     693      MECN     H13      HGA3     0.090000        1.0080           0
     78796 WT26     693      MECN     C2       CG1N1    0.360000       12.0110           0
     78797 WT26     693      MECN     N3       NG1T1   -0.460000       14.0070           0
     78798 WT26     694      MECN     C1       CG331   -0.170000       12.0110           0
     78799 WT26     694      MECN     H11      HGA3     0.090000        1.0080           0
     78800 WT26     694      MECN     H12      HGA3     0.090000        1.0080           0
     78801 WT26     694      MECN     H13      HGA3     0.090000        1.0080           0
     78802 WT26     694      MECN     C2       CG1N1    0.360000       12.0110           0
     78803 WT26     694      MECN     N3       NG1T1   -0.460000       14.0070           0
     78804 WT26     695      MECN     C1       CG331   -0.170000       12.0110           0
     78805 WT26     695      MECN     H11      HGA3     0.090000        1.0080           0
     78806 WT26     695      MECN     H12      HGA3     0.090000        1.0080           0
     78807 WT26     695      MECN     H13      HGA3     0.090000        1.0080           0
     78808 WT26     695      MECN     C2       CG1N1    0.360000       12.0110           0
     78809 WT26     695      MECN     N3       NG1T1   -0.460000       14.0070           0
     78810 WT26     696      MECN     C1       CG331   -0.170000       12.0110           0
     78811 WT26     696      MECN     H11      HGA3     0.090000        1.0080           0
     78812 WT26     696      MECN     H12      HGA3     0.090000        1.0080           0
     78813 WT26     696      MECN     H13      HGA3     0.090000        1.0080           0
     78814 WT26     696      MECN     C2       CG1N1    0.360000       12.0110           0
     78815 WT26     696      MECN     N3       NG1T1   -0.460000       14.0070           0
     78816 WT26     697      MECN     C1       CG331   -0.170000       12.0110           0
     78817 WT26     697      MECN     H11      HGA3     0.090000        1.0080           0
     78818 WT26     697      MECN     H12      HGA3     0.090000        1.0080           0
     78819 WT26     697      MECN     H13      HGA3     0.090000        1.0080           0
     78820 WT26     697      MECN     C2       CG1N1    0.360000       12.0110           0
     78821 WT26     697      MECN     N3       NG1T1   -0.460000       14.0070           0
     78822 WT26     698      MECN     C1       CG331   -0.170000       12.0110           0
     78823 WT26     698      MECN     H11      HGA3     0.090000        1.0080           0
     78824 WT26     698      MECN     H12      HGA3     0.090000        1.0080           0
     78825 WT26     698      MECN     H13      HGA3     0.090000        1.0080           0
     78826 WT26     698      MECN     C2       CG1N1    0.360000       12.0110           0
     78827 WT26     698      MECN     N3       NG1T1   -0.460000       14.0070           0
     78828 WT26     701      MECN     C1       CG331   -0.170000       12.0110           0
     78829 WT26     701      MECN     H11      HGA3     0.090000        1.0080           0
     78830 WT26     701      MECN     H12      HGA3     0.090000        1.0080           0
     78831 WT26     701      MECN     H13      HGA3     0.090000        1.0080           0
     78832 WT26     701      MECN     C2       CG1N1    0.360000       12.0110           0
     78833 WT26     701      MECN     N3       NG1T1   -0.460000       14.0070           0
     78834 WT26     702      MECN     C1       CG331   -0.170000       12.0110           0
     78835 WT26     702      MECN     H11      HGA3     0.090000        1.0080           0
     78836 WT26     702      MECN     H12      HGA3     0.090000        1.0080           0
     78837 WT26     702      MECN     H13      HGA3     0.090000        1.0080           0
     78838 WT26     702      MECN     C2       CG1N1    0.360000       12.0110           0
     78839 WT26     702      MECN     N3       NG1T1   -0.460000       14.0070           0
     78840 WT26     707      MECN     C1       CG331   -0.170000       12.0110           0
     78841 WT26     707      MECN     H11      HGA3     0.090000        1.0080           0
     78842 WT26     707      MECN     H12      HGA3     0.090000        1.0080           0
     78843 WT26     707      MECN     H13      HGA3     0.090000        1.0080           0
     78844 WT26     707      MECN     C2       CG1N1    0.360000       12.0110           0
     78845 WT26     707      MECN     N3       NG1T1   -0.460000       14.0070           0
     78846 WT26     711      MECN     C1       CG331   -0.170000       12.0110           0
     78847 WT26     711      MECN     H11      HGA3     0.090000        1.0080           0
     78848 WT26     711      MECN     H12      HGA3     0.090000        1.0080           0
     78849 WT26     711      MECN     H13      HGA3     0.090000        1.0080           0
     78850 WT26     711      MECN     C2       CG1N1    0.360000       12.0110           0
     78851 WT26     711      MECN     N3       NG1T1   -0.460000       14.0070           0
     78852 WT26     713      MECN     C1       CG331   -0.170000       12.0110           0
     78853 WT26     713      MECN     H11      HGA3     0.090000        1.0080           0
     78854 WT26     713      MECN     H12      HGA3     0.090000        1.0080           0
     78855 WT26     713      MECN     H13      HGA3     0.090000        1.0080           0
     78856 WT26     713      MECN     C2       CG1N1    0.360000       12.0110           0
     78857 WT26     713      MECN     N3       NG1T1   -0.460000       14.0070           0
     78858 WT26     716      MECN     C1       CG331   -0.170000       12.0110           0
     78859 WT26     716      MECN     H11      HGA3     0.090000        1.0080           0
     78860 WT26     716      MECN     H12      HGA3     0.090000        1.0080           0
     78861 WT26     716      MECN     H13      HGA3     0.090000        1.0080           0
     78862 WT26     716      MECN     C2       CG1N1    0.360000       12.0110           0
     78863 WT26     716      MECN     N3       NG1T1   -0.460000       14.0070           0
     78864 WT26     720      MECN     C1       CG331   -0.170000       12.0110           0
     78865 WT26     720      MECN     H11      HGA3     0.090000        1.0080           0
     78866 WT26     720      MECN     H12      HGA3     0.090000        1.0080           0
     78867 WT26     720      MECN     H13      HGA3     0.090000        1.0080           0
     78868 WT26     720      MECN     C2       CG1N1    0.360000       12.0110           0
     78869 WT26     720      MECN     N3       NG1T1   -0.460000       14.0070           0
     78870 WT26     721      MECN     C1       CG331   -0.170000       12.0110           0
     78871 WT26     721      MECN     H11      HGA3     0.090000        1.0080           0
     78872 WT26     721      MECN     H12      HGA3     0.090000        1.0080           0
     78873 WT26     721      MECN     H13      HGA3     0.090000        1.0080           0
     78874 WT26     721      MECN     C2       CG1N1    0.360000       12.0110           0
     78875 WT26     721      MECN     N3       NG1T1   -0.460000       14.0070           0
     78876 WT26     723      MECN     C1       CG331   -0.170000       12.0110           0
     78877 WT26     723      MECN     H11      HGA3     0.090000        1.0080           0
     78878 WT26     723      MECN     H12      HGA3     0.090000        1.0080           0
     78879 WT26     723      MECN     H13      HGA3     0.090000        1.0080           0
     78880 WT26     723      MECN     C2       CG1N1    0.360000       12.0110           0
     78881 WT26     723      MECN     N3       NG1T1   -0.460000       14.0070           0
     78882 WT26     729      MECN     C1       CG331   -0.170000       12.0110           0
     78883 WT26     729      MECN     H11      HGA3     0.090000        1.0080           0
     78884 WT26     729      MECN     H12      HGA3     0.090000        1.0080           0
     78885 WT26     729      MECN     H13      HGA3     0.090000        1.0080           0
     78886 WT26     729      MECN     C2       CG1N1    0.360000       12.0110           0
     78887 WT26     729      MECN     N3       NG1T1   -0.460000       14.0070           0
     78888 WT26     730      MECN     C1       CG331   -0.170000       12.0110           0
     78889 WT26     730      MECN     H11      HGA3     0.090000        1.0080           0
     78890 WT26     730      MECN     H12      HGA3     0.090000        1.0080           0
     78891 WT26     730      MECN     H13      HGA3     0.090000        1.0080           0
     78892 WT26     730      MECN     C2       CG1N1    0.360000       12.0110           0
     78893 WT26     730      MECN     N3       NG1T1   -0.460000       14.0070           0
     78894 WT26     732      MECN     C1       CG331   -0.170000       12.0110           0
     78895 WT26     732      MECN     H11      HGA3     0.090000        1.0080           0
     78896 WT26     732      MECN     H12      HGA3     0.090000        1.0080           0
     78897 WT26     732      MECN     H13      HGA3     0.090000        1.0080           0
     78898 WT26     732      MECN     C2       CG1N1    0.360000       12.0110           0
     78899 WT26     732      MECN     N3       NG1T1   -0.460000       14.0070           0
     78900 WT26     733      MECN     C1       CG331   -0.170000       12.0110           0
     78901 WT26     733      MECN     H11      HGA3     0.090000        1.0080           0
     78902 WT26     733      MECN     H12      HGA3     0.090000        1.0080           0
     78903 WT26     733      MECN     H13      HGA3     0.090000        1.0080           0
     78904 WT26     733      MECN     C2       CG1N1    0.360000       12.0110           0
     78905 WT26     733      MECN     N3       NG1T1   -0.460000       14.0070           0
     78906 WT26     734      MECN     C1       CG331   -0.170000       12.0110           0
     78907 WT26     734      MECN     H11      HGA3     0.090000        1.0080           0
     78908 WT26     734      MECN     H12      HGA3     0.090000        1.0080           0
     78909 WT26     734      MECN     H13      HGA3     0.090000        1.0080           0
     78910 WT26     734      MECN     C2       CG1N1    0.360000       12.0110           0
     78911 WT26     734      MECN     N3       NG1T1   -0.460000       14.0070           0
     78912 WT26     735      MECN     C1       CG331   -0.170000       12.0110           0
     78913 WT26     735      MECN     H11      HGA3     0.090000        1.0080           0
     78914 WT26     735      MECN     H12      HGA3     0.090000        1.0080           0
     78915 WT26     735      MECN     H13      HGA3     0.090000        1.0080           0
     78916 WT26     735      MECN     C2       CG1N1    0.360000       12.0110           0
     78917 WT26     735      MECN     N3       NG1T1   -0.460000       14.0070           0
     78918 WT26     736      MECN     C1       CG331   -0.170000       12.0110           0
     78919 WT26     736      MECN     H11      HGA3     0.090000        1.0080           0
     78920 WT26     736      MECN     H12      HGA3     0.090000        1.0080           0
     78921 WT26     736      MECN     H13      HGA3     0.090000        1.0080           0
     78922 WT26     736      MECN     C2       CG1N1    0.360000       12.0110           0
     78923 WT26     736      MECN     N3       NG1T1   -0.460000       14.0070           0
     78924 WT26     738      MECN     C1       CG331   -0.170000       12.0110           0
     78925 WT26     738      MECN     H11      HGA3     0.090000        1.0080           0
     78926 WT26     738      MECN     H12      HGA3     0.090000        1.0080           0
     78927 WT26     738      MECN     H13      HGA3     0.090000        1.0080           0
     78928 WT26     738      MECN     C2       CG1N1    0.360000       12.0110           0
     78929 WT26     738      MECN     N3       NG1T1   -0.460000       14.0070           0
     78930 WT26     739      MECN     C1       CG331   -0.170000       12.0110           0
     78931 WT26     739      MECN     H11      HGA3     0.090000        1.0080           0
     78932 WT26     739      MECN     H12      HGA3     0.090000        1.0080           0
     78933 WT26     739      MECN     H13      HGA3     0.090000        1.0080           0
     78934 WT26     739      MECN     C2       CG1N1    0.360000       12.0110           0
     78935 WT26     739      MECN     N3       NG1T1   -0.460000       14.0070           0
     78936 WT26     740      MECN     C1       CG331   -0.170000       12.0110           0
     78937 WT26     740      MECN     H11      HGA3     0.090000        1.0080           0
     78938 WT26     740      MECN     H12      HGA3     0.090000        1.0080           0
     78939 WT26     740      MECN     H13      HGA3     0.090000        1.0080           0
     78940 WT26     740      MECN     C2       CG1N1    0.360000       12.0110           0
     78941 WT26     740      MECN     N3       NG1T1   -0.460000       14.0070           0
     78942 WT26     745      MECN     C1       CG331   -0.170000       12.0110           0
     78943 WT26     745      MECN     H11      HGA3     0.090000        1.0080           0
     78944 WT26     745      MECN     H12      HGA3     0.090000        1.0080           0
     78945 WT26     745      MECN     H13      HGA3     0.090000        1.0080           0
     78946 WT26     745      MECN     C2       CG1N1    0.360000       12.0110           0
     78947 WT26     745      MECN     N3       NG1T1   -0.460000       14.0070           0
     78948 WT26     746      MECN     C1       CG331   -0.170000       12.0110           0
     78949 WT26     746      MECN     H11      HGA3     0.090000        1.0080           0
     78950 WT26     746      MECN     H12      HGA3     0.090000        1.0080           0
     78951 WT26     746      MECN     H13      HGA3     0.090000        1.0080           0
     78952 WT26     746      MECN     C2       CG1N1    0.360000       12.0110           0
     78953 WT26     746      MECN     N3       NG1T1   -0.460000       14.0070           0
     78954 WT26     748      MECN     C1       CG331   -0.170000       12.0110           0
     78955 WT26     748      MECN     H11      HGA3     0.090000        1.0080           0
     78956 WT26     748      MECN     H12      HGA3     0.090000        1.0080           0
     78957 WT26     748      MECN     H13      HGA3     0.090000        1.0080           0
     78958 WT26     748      MECN     C2       CG1N1    0.360000       12.0110           0
     78959 WT26     748      MECN     N3       NG1T1   -0.460000       14.0070           0
     78960 WT26     750      MECN     C1       CG331   -0.170000       12.0110           0
     78961 WT26     750      MECN     H11      HGA3     0.090000        1.0080           0
     78962 WT26     750      MECN     H12      HGA3     0.090000        1.0080           0
     78963 WT26     750      MECN     H13      HGA3     0.090000        1.0080           0
     78964 WT26     750      MECN     C2       CG1N1    0.360000       12.0110           0
     78965 WT26     750      MECN     N3       NG1T1   -0.460000       14.0070           0
     78966 WT26     751      MECN     C1       CG331   -0.170000       12.0110           0
     78967 WT26     751      MECN     H11      HGA3     0.090000        1.0080           0
     78968 WT26     751      MECN     H12      HGA3     0.090000        1.0080           0
     78969 WT26     751      MECN     H13      HGA3     0.090000        1.0080           0
     78970 WT26     751      MECN     C2       CG1N1    0.360000       12.0110           0
     78971 WT26     751      MECN     N3       NG1T1   -0.460000       14.0070           0
     78972 WT26     752      MECN     C1       CG331   -0.170000       12.0110           0
     78973 WT26     752      MECN     H11      HGA3     0.090000        1.0080           0
     78974 WT26     752      MECN     H12      HGA3     0.090000        1.0080           0
     78975 WT26     752      MECN     H13      HGA3     0.090000        1.0080           0
     78976 WT26     752      MECN     C2       CG1N1    0.360000       12.0110           0
     78977 WT26     752      MECN     N3       NG1T1   -0.460000       14.0070           0
     78978 WT26     753      MECN     C1       CG331   -0.170000       12.0110           0
     78979 WT26     753      MECN     H11      HGA3     0.090000        1.0080           0
     78980 WT26     753      MECN     H12      HGA3     0.090000        1.0080           0
     78981 WT26     753      MECN     H13      HGA3     0.090000        1.0080           0
     78982 WT26     753      MECN     C2       CG1N1    0.360000       12.0110           0
     78983 WT26     753      MECN     N3       NG1T1   -0.460000       14.0070           0
     78984 WT26     759      MECN     C1       CG331   -0.170000       12.0110           0
     78985 WT26     759      MECN     H11      HGA3     0.090000        1.0080           0
     78986 WT26     759      MECN     H12      HGA3     0.090000        1.0080           0
     78987 WT26     759      MECN     H13      HGA3     0.090000        1.0080           0
     78988 WT26     759      MECN     C2       CG1N1    0.360000       12.0110           0
     78989 WT26     759      MECN     N3       NG1T1   -0.460000       14.0070           0
     78990 WT26     764      MECN     C1       CG331   -0.170000       12.0110           0
     78991 WT26     764      MECN     H11      HGA3     0.090000        1.0080           0
     78992 WT26     764      MECN     H12      HGA3     0.090000        1.0080           0
     78993 WT26     764      MECN     H13      HGA3     0.090000        1.0080           0
     78994 WT26     764      MECN     C2       CG1N1    0.360000       12.0110           0
     78995 WT26     764      MECN     N3       NG1T1   -0.460000       14.0070           0
     78996 WT26     767      MECN     C1       CG331   -0.170000       12.0110           0
     78997 WT26     767      MECN     H11      HGA3     0.090000        1.0080           0
     78998 WT26     767      MECN     H12      HGA3     0.090000        1.0080           0
     78999 WT26     767      MECN     H13      HGA3     0.090000        1.0080           0
     79000 WT26     767      MECN     C2       CG1N1    0.360000       12.0110           0
     79001 WT26     767      MECN     N3       NG1T1   -0.460000       14.0070           0
     79002 WT26     768      MECN     C1       CG331   -0.170000       12.0110           0
     79003 WT26     768      MECN     H11      HGA3     0.090000        1.0080           0
     79004 WT26     768      MECN     H12      HGA3     0.090000        1.0080           0
     79005 WT26     768      MECN     H13      HGA3     0.090000        1.0080           0
     79006 WT26     768      MECN     C2       CG1N1    0.360000       12.0110           0
     79007 WT26     768      MECN     N3       NG1T1   -0.460000       14.0070           0
     79008 WT26     769      MECN     C1       CG331   -0.170000       12.0110           0
     79009 WT26     769      MECN     H11      HGA3     0.090000        1.0080           0
     79010 WT26     769      MECN     H12      HGA3     0.090000        1.0080           0
     79011 WT26     769      MECN     H13      HGA3     0.090000        1.0080           0
     79012 WT26     769      MECN     C2       CG1N1    0.360000       12.0110           0
     79013 WT26     769      MECN     N3       NG1T1   -0.460000       14.0070           0
     79014 WT26     772      MECN     C1       CG331   -0.170000       12.0110           0
     79015 WT26     772      MECN     H11      HGA3     0.090000        1.0080           0
     79016 WT26     772      MECN     H12      HGA3     0.090000        1.0080           0
     79017 WT26     772      MECN     H13      HGA3     0.090000        1.0080           0
     79018 WT26     772      MECN     C2       CG1N1    0.360000       12.0110           0
     79019 WT26     772      MECN     N3       NG1T1   -0.460000       14.0070           0
     79020 WT26     774      MECN     C1       CG331   -0.170000       12.0110           0
     79021 WT26     774      MECN     H11      HGA3     0.090000        1.0080           0
     79022 WT26     774      MECN     H12      HGA3     0.090000        1.0080           0
     79023 WT26     774      MECN     H13      HGA3     0.090000        1.0080           0
     79024 WT26     774      MECN     C2       CG1N1    0.360000       12.0110           0
     79025 WT26     774      MECN     N3       NG1T1   -0.460000       14.0070           0
     79026 WT26     776      MECN     C1       CG331   -0.170000       12.0110           0
     79027 WT26     776      MECN     H11      HGA3     0.090000        1.0080           0
     79028 WT26     776      MECN     H12      HGA3     0.090000        1.0080           0
     79029 WT26     776      MECN     H13      HGA3     0.090000        1.0080           0
     79030 WT26     776      MECN     C2       CG1N1    0.360000       12.0110           0
     79031 WT26     776      MECN     N3       NG1T1   -0.460000       14.0070           0
     79032 WT26     779      MECN     C1       CG331   -0.170000       12.0110           0
     79033 WT26     779      MECN     H11      HGA3     0.090000        1.0080           0
     79034 WT26     779      MECN     H12      HGA3     0.090000        1.0080           0
     79035 WT26     779      MECN     H13      HGA3     0.090000        1.0080           0
     79036 WT26     779      MECN     C2       CG1N1    0.360000       12.0110           0
     79037 WT26     779      MECN     N3       NG1T1   -0.460000       14.0070           0
     79038 WT26     784      MECN     C1       CG331   -0.170000       12.0110           0
     79039 WT26     784      MECN     H11      HGA3     0.090000        1.0080           0
     79040 WT26     784      MECN     H12      HGA3     0.090000        1.0080           0
     79041 WT26     784      MECN     H13      HGA3     0.090000        1.0080           0
     79042 WT26     784      MECN     C2       CG1N1    0.360000       12.0110           0
     79043 WT26     784      MECN     N3       NG1T1   -0.460000       14.0070           0
     79044 WT26     792      MECN     C1       CG331   -0.170000       12.0110           0
     79045 WT26     792      MECN     H11      HGA3     0.090000        1.0080           0
     79046 WT26     792      MECN     H12      HGA3     0.090000        1.0080           0
     79047 WT26     792      MECN     H13      HGA3     0.090000        1.0080           0
     79048 WT26     792      MECN     C2       CG1N1    0.360000       12.0110           0
     79049 WT26     792      MECN     N3       NG1T1   -0.460000       14.0070           0
     79050 WT26     795      MECN     C1       CG331   -0.170000       12.0110           0
     79051 WT26     795      MECN     H11      HGA3     0.090000        1.0080           0
     79052 WT26     795      MECN     H12      HGA3     0.090000        1.0080           0
     79053 WT26     795      MECN     H13      HGA3     0.090000        1.0080           0
     79054 WT26     795      MECN     C2       CG1N1    0.360000       12.0110           0
     79055 WT26     795      MECN     N3       NG1T1   -0.460000       14.0070           0
     79056 WT26     796      MECN     C1       CG331   -0.170000       12.0110           0
     79057 WT26     796      MECN     H11      HGA3     0.090000        1.0080           0
     79058 WT26     796      MECN     H12      HGA3     0.090000        1.0080           0
     79059 WT26     796      MECN     H13      HGA3     0.090000        1.0080           0
     79060 WT26     796      MECN     C2       CG1N1    0.360000       12.0110           0
     79061 WT26     796      MECN     N3       NG1T1   -0.460000       14.0070           0
     79062 WT26     797      MECN     C1       CG331   -0.170000       12.0110           0
     79063 WT26     797      MECN     H11      HGA3     0.090000        1.0080           0
     79064 WT26     797      MECN     H12      HGA3     0.090000        1.0080           0
     79065 WT26     797      MECN     H13      HGA3     0.090000        1.0080           0
     79066 WT26     797      MECN     C2       CG1N1    0.360000       12.0110           0
     79067 WT26     797      MECN     N3       NG1T1   -0.460000       14.0070           0
     79068 WT26     798      MECN     C1       CG331   -0.170000       12.0110           0
     79069 WT26     798      MECN     H11      HGA3     0.090000        1.0080           0
     79070 WT26     798      MECN     H12      HGA3     0.090000        1.0080           0
     79071 WT26     798      MECN     H13      HGA3     0.090000        1.0080           0
     79072 WT26     798      MECN     C2       CG1N1    0.360000       12.0110           0
     79073 WT26     798      MECN     N3       NG1T1   -0.460000       14.0070           0
     79074 WT26     801      MECN     C1       CG331   -0.170000       12.0110           0
     79075 WT26     801      MECN     H11      HGA3     0.090000        1.0080           0
     79076 WT26     801      MECN     H12      HGA3     0.090000        1.0080           0
     79077 WT26     801      MECN     H13      HGA3     0.090000        1.0080           0
     79078 WT26     801      MECN     C2       CG1N1    0.360000       12.0110           0
     79079 WT26     801      MECN     N3       NG1T1   -0.460000       14.0070           0
     79080 WT26     802      MECN     C1       CG331   -0.170000       12.0110           0
     79081 WT26     802      MECN     H11      HGA3     0.090000        1.0080           0
     79082 WT26     802      MECN     H12      HGA3     0.090000        1.0080           0
     79083 WT26     802      MECN     H13      HGA3     0.090000        1.0080           0
     79084 WT26     802      MECN     C2       CG1N1    0.360000       12.0110           0
     79085 WT26     802      MECN     N3       NG1T1   -0.460000       14.0070           0
     79086 WT26     806      MECN     C1       CG331   -0.170000       12.0110           0
     79087 WT26     806      MECN     H11      HGA3     0.090000        1.0080           0
     79088 WT26     806      MECN     H12      HGA3     0.090000        1.0080           0
     79089 WT26     806      MECN     H13      HGA3     0.090000        1.0080           0
     79090 WT26     806      MECN     C2       CG1N1    0.360000       12.0110           0
     79091 WT26     806      MECN     N3       NG1T1   -0.460000       14.0070           0
     79092 WT26     812      MECN     C1       CG331   -0.170000       12.0110           0
     79093 WT26     812      MECN     H11      HGA3     0.090000        1.0080           0
     79094 WT26     812      MECN     H12      HGA3     0.090000        1.0080           0
     79095 WT26     812      MECN     H13      HGA3     0.090000        1.0080           0
     79096 WT26     812      MECN     C2       CG1N1    0.360000       12.0110           0
     79097 WT26     812      MECN     N3       NG1T1   -0.460000       14.0070           0
     79098 WT26     813      MECN     C1       CG331   -0.170000       12.0110           0
     79099 WT26     813      MECN     H11      HGA3     0.090000        1.0080           0
     79100 WT26     813      MECN     H12      HGA3     0.090000        1.0080           0
     79101 WT26     813      MECN     H13      HGA3     0.090000        1.0080           0
     79102 WT26     813      MECN     C2       CG1N1    0.360000       12.0110           0
     79103 WT26     813      MECN     N3       NG1T1   -0.460000       14.0070           0
     79104 WT26     816      MECN     C1       CG331   -0.170000       12.0110           0
     79105 WT26     816      MECN     H11      HGA3     0.090000        1.0080           0
     79106 WT26     816      MECN     H12      HGA3     0.090000        1.0080           0
     79107 WT26     816      MECN     H13      HGA3     0.090000        1.0080           0
     79108 WT26     816      MECN     C2       CG1N1    0.360000       12.0110           0
     79109 WT26     816      MECN     N3       NG1T1   -0.460000       14.0070           0
     79110 WT26     819      MECN     C1       CG331   -0.170000       12.0110           0
     79111 WT26     819      MECN     H11      HGA3     0.090000        1.0080           0
     79112 WT26     819      MECN     H12      HGA3     0.090000        1.0080           0
     79113 WT26     819      MECN     H13      HGA3     0.090000        1.0080           0
     79114 WT26     819      MECN     C2       CG1N1    0.360000       12.0110           0
     79115 WT26     819      MECN     N3       NG1T1   -0.460000       14.0070           0
     79116 WT26     820      MECN     C1       CG331   -0.170000       12.0110           0
     79117 WT26     820      MECN     H11      HGA3     0.090000        1.0080           0
     79118 WT26     820      MECN     H12      HGA3     0.090000        1.0080           0
     79119 WT26     820      MECN     H13      HGA3     0.090000        1.0080           0
     79120 WT26     820      MECN     C2       CG1N1    0.360000       12.0110           0
     79121 WT26     820      MECN     N3       NG1T1   -0.460000       14.0070           0
     79122 WT26     821      MECN     C1       CG331   -0.170000       12.0110           0
     79123 WT26     821      MECN     H11      HGA3     0.090000        1.0080           0
     79124 WT26     821      MECN     H12      HGA3     0.090000        1.0080           0
     79125 WT26     821      MECN     H13      HGA3     0.090000        1.0080           0
     79126 WT26     821      MECN     C2       CG1N1    0.360000       12.0110           0
     79127 WT26     821      MECN     N3       NG1T1   -0.460000       14.0070           0
     79128 WT26     823      MECN     C1       CG331   -0.170000       12.0110           0
     79129 WT26     823      MECN     H11      HGA3     0.090000        1.0080           0
     79130 WT26     823      MECN     H12      HGA3     0.090000        1.0080           0
     79131 WT26     823      MECN     H13      HGA3     0.090000        1.0080           0
     79132 WT26     823      MECN     C2       CG1N1    0.360000       12.0110           0
     79133 WT26     823      MECN     N3       NG1T1   -0.460000       14.0070           0
     79134 WT26     824      MECN     C1       CG331   -0.170000       12.0110           0
     79135 WT26     824      MECN     H11      HGA3     0.090000        1.0080           0
     79136 WT26     824      MECN     H12      HGA3     0.090000        1.0080           0
     79137 WT26     824      MECN     H13      HGA3     0.090000        1.0080           0
     79138 WT26     824      MECN     C2       CG1N1    0.360000       12.0110           0
     79139 WT26     824      MECN     N3       NG1T1   -0.460000       14.0070           0
     79140 WT26     826      MECN     C1       CG331   -0.170000       12.0110           0
     79141 WT26     826      MECN     H11      HGA3     0.090000        1.0080           0
     79142 WT26     826      MECN     H12      HGA3     0.090000        1.0080           0
     79143 WT26     826      MECN     H13      HGA3     0.090000        1.0080           0
     79144 WT26     826      MECN     C2       CG1N1    0.360000       12.0110           0
     79145 WT26     826      MECN     N3       NG1T1   -0.460000       14.0070           0
     79146 WT26     827      MECN     C1       CG331   -0.170000       12.0110           0
     79147 WT26     827      MECN     H11      HGA3     0.090000        1.0080           0
     79148 WT26     827      MECN     H12      HGA3     0.090000        1.0080           0
     79149 WT26     827      MECN     H13      HGA3     0.090000        1.0080           0
     79150 WT26     827      MECN     C2       CG1N1    0.360000       12.0110           0
     79151 WT26     827      MECN     N3       NG1T1   -0.460000       14.0070           0
     79152 WT26     828      MECN     C1       CG331   -0.170000       12.0110           0
     79153 WT26     828      MECN     H11      HGA3     0.090000        1.0080           0
     79154 WT26     828      MECN     H12      HGA3     0.090000        1.0080           0
     79155 WT26     828      MECN     H13      HGA3     0.090000        1.0080           0
     79156 WT26     828      MECN     C2       CG1N1    0.360000       12.0110           0
     79157 WT26     828      MECN     N3       NG1T1   -0.460000       14.0070           0
     79158 WT26     830      MECN     C1       CG331   -0.170000       12.0110           0
     79159 WT26     830      MECN     H11      HGA3     0.090000        1.0080           0
     79160 WT26     830      MECN     H12      HGA3     0.090000        1.0080           0
     79161 WT26     830      MECN     H13      HGA3     0.090000        1.0080           0
     79162 WT26     830      MECN     C2       CG1N1    0.360000       12.0110           0
     79163 WT26     830      MECN     N3       NG1T1   -0.460000       14.0070           0
     79164 WT26     831      MECN     C1       CG331   -0.170000       12.0110           0
     79165 WT26     831      MECN     H11      HGA3     0.090000        1.0080           0
     79166 WT26     831      MECN     H12      HGA3     0.090000        1.0080           0
     79167 WT26     831      MECN     H13      HGA3     0.090000        1.0080           0
     79168 WT26     831      MECN     C2       CG1N1    0.360000       12.0110           0
     79169 WT26     831      MECN     N3       NG1T1   -0.460000       14.0070           0
     79170 WT26     832      MECN     C1       CG331   -0.170000       12.0110           0
     79171 WT26     832      MECN     H11      HGA3     0.090000        1.0080           0
     79172 WT26     832      MECN     H12      HGA3     0.090000        1.0080           0
     79173 WT26     832      MECN     H13      HGA3     0.090000        1.0080           0
     79174 WT26     832      MECN     C2       CG1N1    0.360000       12.0110           0
     79175 WT26     832      MECN     N3       NG1T1   -0.460000       14.0070           0
     79176 WT26     840      MECN     C1       CG331   -0.170000       12.0110           0
     79177 WT26     840      MECN     H11      HGA3     0.090000        1.0080           0
     79178 WT26     840      MECN     H12      HGA3     0.090000        1.0080           0
     79179 WT26     840      MECN     H13      HGA3     0.090000        1.0080           0
     79180 WT26     840      MECN     C2       CG1N1    0.360000       12.0110           0
     79181 WT26     840      MECN     N3       NG1T1   -0.460000       14.0070           0
     79182 WT26     843      MECN     C1       CG331   -0.170000       12.0110           0
     79183 WT26     843      MECN     H11      HGA3     0.090000        1.0080           0
     79184 WT26     843      MECN     H12      HGA3     0.090000        1.0080           0
     79185 WT26     843      MECN     H13      HGA3     0.090000        1.0080           0
     79186 WT26     843      MECN     C2       CG1N1    0.360000       12.0110           0
     79187 WT26     843      MECN     N3       NG1T1   -0.460000       14.0070           0
     79188 WT26     844      MECN     C1       CG331   -0.170000       12.0110           0
     79189 WT26     844      MECN     H11      HGA3     0.090000        1.0080           0
     79190 WT26     844      MECN     H12      HGA3     0.090000        1.0080           0
     79191 WT26     844      MECN     H13      HGA3     0.090000        1.0080           0
     79192 WT26     844      MECN     C2       CG1N1    0.360000       12.0110           0
     79193 WT26     844      MECN     N3       NG1T1   -0.460000       14.0070           0
     79194 WT26     847      MECN     C1       CG331   -0.170000       12.0110           0
     79195 WT26     847      MECN     H11      HGA3     0.090000        1.0080           0
     79196 WT26     847      MECN     H12      HGA3     0.090000        1.0080           0
     79197 WT26     847      MECN     H13      HGA3     0.090000        1.0080           0
     79198 WT26     847      MECN     C2       CG1N1    0.360000       12.0110           0
     79199 WT26     847      MECN     N3       NG1T1   -0.460000       14.0070           0
     79200 WT26     849      MECN     C1       CG331   -0.170000       12.0110           0
     79201 WT26     849      MECN     H11      HGA3     0.090000        1.0080           0
     79202 WT26     849      MECN     H12      HGA3     0.090000        1.0080           0
     79203 WT26     849      MECN     H13      HGA3     0.090000        1.0080           0
     79204 WT26     849      MECN     C2       CG1N1    0.360000       12.0110           0
     79205 WT26     849      MECN     N3       NG1T1   -0.460000       14.0070           0
     79206 WT26     850      MECN     C1       CG331   -0.170000       12.0110           0
     79207 WT26     850      MECN     H11      HGA3     0.090000        1.0080           0
     79208 WT26     850      MECN     H12      HGA3     0.090000        1.0080           0
     79209 WT26     850      MECN     H13      HGA3     0.090000        1.0080           0
     79210 WT26     850      MECN     C2       CG1N1    0.360000       12.0110           0
     79211 WT26     850      MECN     N3       NG1T1   -0.460000       14.0070           0
     79212 WT26     851      MECN     C1       CG331   -0.170000       12.0110           0
     79213 WT26     851      MECN     H11      HGA3     0.090000        1.0080           0
     79214 WT26     851      MECN     H12      HGA3     0.090000        1.0080           0
     79215 WT26     851      MECN     H13      HGA3     0.090000        1.0080           0
     79216 WT26     851      MECN     C2       CG1N1    0.360000       12.0110           0
     79217 WT26     851      MECN     N3       NG1T1   -0.460000       14.0070           0
     79218 WT26     852      MECN     C1       CG331   -0.170000       12.0110           0
     79219 WT26     852      MECN     H11      HGA3     0.090000        1.0080           0
     79220 WT26     852      MECN     H12      HGA3     0.090000        1.0080           0
     79221 WT26     852      MECN     H13      HGA3     0.090000        1.0080           0
     79222 WT26     852      MECN     C2       CG1N1    0.360000       12.0110           0
     79223 WT26     852      MECN     N3       NG1T1   -0.460000       14.0070           0
     79224 WT26     857      MECN     C1       CG331   -0.170000       12.0110           0
     79225 WT26     857      MECN     H11      HGA3     0.090000        1.0080           0
     79226 WT26     857      MECN     H12      HGA3     0.090000        1.0080           0
     79227 WT26     857      MECN     H13      HGA3     0.090000        1.0080           0
     79228 WT26     857      MECN     C2       CG1N1    0.360000       12.0110           0
     79229 WT26     857      MECN     N3       NG1T1   -0.460000       14.0070           0
     79230 WT26     858      MECN     C1       CG331   -0.170000       12.0110           0
     79231 WT26     858      MECN     H11      HGA3     0.090000        1.0080           0
     79232 WT26     858      MECN     H12      HGA3     0.090000        1.0080           0
     79233 WT26     858      MECN     H13      HGA3     0.090000        1.0080           0
     79234 WT26     858      MECN     C2       CG1N1    0.360000       12.0110           0
     79235 WT26     858      MECN     N3       NG1T1   -0.460000       14.0070           0
     79236 WT26     861      MECN     C1       CG331   -0.170000       12.0110           0
     79237 WT26     861      MECN     H11      HGA3     0.090000        1.0080           0
     79238 WT26     861      MECN     H12      HGA3     0.090000        1.0080           0
     79239 WT26     861      MECN     H13      HGA3     0.090000        1.0080           0
     79240 WT26     861      MECN     C2       CG1N1    0.360000       12.0110           0
     79241 WT26     861      MECN     N3       NG1T1   -0.460000       14.0070           0
     79242 WT26     863      MECN     C1       CG331   -0.170000       12.0110           0
     79243 WT26     863      MECN     H11      HGA3     0.090000        1.0080           0
     79244 WT26     863      MECN     H12      HGA3     0.090000        1.0080           0
     79245 WT26     863      MECN     H13      HGA3     0.090000        1.0080           0
     79246 WT26     863      MECN     C2       CG1N1    0.360000       12.0110           0
     79247 WT26     863      MECN     N3       NG1T1   -0.460000       14.0070           0
     79248 WT26     865      MECN     C1       CG331   -0.170000       12.0110           0
     79249 WT26     865      MECN     H11      HGA3     0.090000        1.0080           0
     79250 WT26     865      MECN     H12      HGA3     0.090000        1.0080           0
     79251 WT26     865      MECN     H13      HGA3     0.090000        1.0080           0
     79252 WT26     865      MECN     C2       CG1N1    0.360000       12.0110           0
     79253 WT26     865      MECN     N3       NG1T1   -0.460000       14.0070           0
     79254 WT26     869      MECN     C1       CG331   -0.170000       12.0110           0
     79255 WT26     869      MECN     H11      HGA3     0.090000        1.0080           0
     79256 WT26     869      MECN     H12      HGA3     0.090000        1.0080           0
     79257 WT26     869      MECN     H13      HGA3     0.090000        1.0080           0
     79258 WT26     869      MECN     C2       CG1N1    0.360000       12.0110           0
     79259 WT26     869      MECN     N3       NG1T1   -0.460000       14.0070           0
     79260 WT26     872      MECN     C1       CG331   -0.170000       12.0110           0
     79261 WT26     872      MECN     H11      HGA3     0.090000        1.0080           0
     79262 WT26     872      MECN     H12      HGA3     0.090000        1.0080           0
     79263 WT26     872      MECN     H13      HGA3     0.090000        1.0080           0
     79264 WT26     872      MECN     C2       CG1N1    0.360000       12.0110           0
     79265 WT26     872      MECN     N3       NG1T1   -0.460000       14.0070           0
     79266 WT26     874      MECN     C1       CG331   -0.170000       12.0110           0
     79267 WT26     874      MECN     H11      HGA3     0.090000        1.0080           0
     79268 WT26     874      MECN     H12      HGA3     0.090000        1.0080           0
     79269 WT26     874      MECN     H13      HGA3     0.090000        1.0080           0
     79270 WT26     874      MECN     C2       CG1N1    0.360000       12.0110           0
     79271 WT26     874      MECN     N3       NG1T1   -0.460000       14.0070           0
     79272 WT26     875      MECN     C1       CG331   -0.170000       12.0110           0
     79273 WT26     875      MECN     H11      HGA3     0.090000        1.0080           0
     79274 WT26     875      MECN     H12      HGA3     0.090000        1.0080           0
     79275 WT26     875      MECN     H13      HGA3     0.090000        1.0080           0
     79276 WT26     875      MECN     C2       CG1N1    0.360000       12.0110           0
     79277 WT26     875      MECN     N3       NG1T1   -0.460000       14.0070           0
     79278 WT26     877      MECN     C1       CG331   -0.170000       12.0110           0
     79279 WT26     877      MECN     H11      HGA3     0.090000        1.0080           0
     79280 WT26     877      MECN     H12      HGA3     0.090000        1.0080           0
     79281 WT26     877      MECN     H13      HGA3     0.090000        1.0080           0
     79282 WT26     877      MECN     C2       CG1N1    0.360000       12.0110           0
     79283 WT26     877      MECN     N3       NG1T1   -0.460000       14.0070           0
     79284 WT26     880      MECN     C1       CG331   -0.170000       12.0110           0
     79285 WT26     880      MECN     H11      HGA3     0.090000        1.0080           0
     79286 WT26     880      MECN     H12      HGA3     0.090000        1.0080           0
     79287 WT26     880      MECN     H13      HGA3     0.090000        1.0080           0
     79288 WT26     880      MECN     C2       CG1N1    0.360000       12.0110           0
     79289 WT26     880      MECN     N3       NG1T1   -0.460000       14.0070           0
     79290 WT26     881      MECN     C1       CG331   -0.170000       12.0110           0
     79291 WT26     881      MECN     H11      HGA3     0.090000        1.0080           0
     79292 WT26     881      MECN     H12      HGA3     0.090000        1.0080           0
     79293 WT26     881      MECN     H13      HGA3     0.090000        1.0080           0
     79294 WT26     881      MECN     C2       CG1N1    0.360000       12.0110           0
     79295 WT26     881      MECN     N3       NG1T1   -0.460000       14.0070           0
     79296 WT26     885      MECN     C1       CG331   -0.170000       12.0110           0
     79297 WT26     885      MECN     H11      HGA3     0.090000        1.0080           0
     79298 WT26     885      MECN     H12      HGA3     0.090000        1.0080           0
     79299 WT26     885      MECN     H13      HGA3     0.090000        1.0080           0
     79300 WT26     885      MECN     C2       CG1N1    0.360000       12.0110           0
     79301 WT26     885      MECN     N3       NG1T1   -0.460000       14.0070           0
     79302 WT26     886      MECN     C1       CG331   -0.170000       12.0110           0
     79303 WT26     886      MECN     H11      HGA3     0.090000        1.0080           0
     79304 WT26     886      MECN     H12      HGA3     0.090000        1.0080           0
     79305 WT26     886      MECN     H13      HGA3     0.090000        1.0080           0
     79306 WT26     886      MECN     C2       CG1N1    0.360000       12.0110           0
     79307 WT26     886      MECN     N3       NG1T1   -0.460000       14.0070           0
     79308 WT26     888      MECN     C1       CG331   -0.170000       12.0110           0
     79309 WT26     888      MECN     H11      HGA3     0.090000        1.0080           0
     79310 WT26     888      MECN     H12      HGA3     0.090000        1.0080           0
     79311 WT26     888      MECN     H13      HGA3     0.090000        1.0080           0
     79312 WT26     888      MECN     C2       CG1N1    0.360000       12.0110           0
     79313 WT26     888      MECN     N3       NG1T1   -0.460000       14.0070           0
     79314 WT26     892      MECN     C1       CG331   -0.170000       12.0110           0
     79315 WT26     892      MECN     H11      HGA3     0.090000        1.0080           0
     79316 WT26     892      MECN     H12      HGA3     0.090000        1.0080           0
     79317 WT26     892      MECN     H13      HGA3     0.090000        1.0080           0
     79318 WT26     892      MECN     C2       CG1N1    0.360000       12.0110           0
     79319 WT26     892      MECN     N3       NG1T1   -0.460000       14.0070           0
     79320 WT26     901      MECN     C1       CG331   -0.170000       12.0110           0
     79321 WT26     901      MECN     H11      HGA3     0.090000        1.0080           0
     79322 WT26     901      MECN     H12      HGA3     0.090000        1.0080           0
     79323 WT26     901      MECN     H13      HGA3     0.090000        1.0080           0
     79324 WT26     901      MECN     C2       CG1N1    0.360000       12.0110           0
     79325 WT26     901      MECN     N3       NG1T1   -0.460000       14.0070           0
     79326 WT26     903      MECN     C1       CG331   -0.170000       12.0110           0
     79327 WT26     903      MECN     H11      HGA3     0.090000        1.0080           0
     79328 WT26     903      MECN     H12      HGA3     0.090000        1.0080           0
     79329 WT26     903      MECN     H13      HGA3     0.090000        1.0080           0
     79330 WT26     903      MECN     C2       CG1N1    0.360000       12.0110           0
     79331 WT26     903      MECN     N3       NG1T1   -0.460000       14.0070           0
     79332 WT26     905      MECN     C1       CG331   -0.170000       12.0110           0
     79333 WT26     905      MECN     H11      HGA3     0.090000        1.0080           0
     79334 WT26     905      MECN     H12      HGA3     0.090000        1.0080           0
     79335 WT26     905      MECN     H13      HGA3     0.090000        1.0080           0
     79336 WT26     905      MECN     C2       CG1N1    0.360000       12.0110           0
     79337 WT26     905      MECN     N3       NG1T1   -0.460000       14.0070           0
     79338 WT26     910      MECN     C1       CG331   -0.170000       12.0110           0
     79339 WT26     910      MECN     H11      HGA3     0.090000        1.0080           0
     79340 WT26     910      MECN     H12      HGA3     0.090000        1.0080           0
     79341 WT26     910      MECN     H13      HGA3     0.090000        1.0080           0
     79342 WT26     910      MECN     C2       CG1N1    0.360000       12.0110           0
     79343 WT26     910      MECN     N3       NG1T1   -0.460000       14.0070           0
     79344 WT26     912      MECN     C1       CG331   -0.170000       12.0110           0
     79345 WT26     912      MECN     H11      HGA3     0.090000        1.0080           0
     79346 WT26     912      MECN     H12      HGA3     0.090000        1.0080           0
     79347 WT26     912      MECN     H13      HGA3     0.090000        1.0080           0
     79348 WT26     912      MECN     C2       CG1N1    0.360000       12.0110           0
     79349 WT26     912      MECN     N3       NG1T1   -0.460000       14.0070           0
     79350 WT26     914      MECN     C1       CG331   -0.170000       12.0110           0
     79351 WT26     914      MECN     H11      HGA3     0.090000        1.0080           0
     79352 WT26     914      MECN     H12      HGA3     0.090000        1.0080           0
     79353 WT26     914      MECN     H13      HGA3     0.090000        1.0080           0
     79354 WT26     914      MECN     C2       CG1N1    0.360000       12.0110           0
     79355 WT26     914      MECN     N3       NG1T1   -0.460000       14.0070           0
     79356 WT26     915      MECN     C1       CG331   -0.170000       12.0110           0
     79357 WT26     915      MECN     H11      HGA3     0.090000        1.0080           0
     79358 WT26     915      MECN     H12      HGA3     0.090000        1.0080           0
     79359 WT26     915      MECN     H13      HGA3     0.090000        1.0080           0
     79360 WT26     915      MECN     C2       CG1N1    0.360000       12.0110           0
     79361 WT26     915      MECN     N3       NG1T1   -0.460000       14.0070           0
     79362 WT26     918      MECN     C1       CG331   -0.170000       12.0110           0
     79363 WT26     918      MECN     H11      HGA3     0.090000        1.0080           0
     79364 WT26     918      MECN     H12      HGA3     0.090000        1.0080           0
     79365 WT26     918      MECN     H13      HGA3     0.090000        1.0080           0
     79366 WT26     918      MECN     C2       CG1N1    0.360000       12.0110           0
     79367 WT26     918      MECN     N3       NG1T1   -0.460000       14.0070           0
     79368 WT26     921      MECN     C1       CG331   -0.170000       12.0110           0
     79369 WT26     921      MECN     H11      HGA3     0.090000        1.0080           0
     79370 WT26     921      MECN     H12      HGA3     0.090000        1.0080           0
     79371 WT26     921      MECN     H13      HGA3     0.090000        1.0080           0
     79372 WT26     921      MECN     C2       CG1N1    0.360000       12.0110           0
     79373 WT26     921      MECN     N3       NG1T1   -0.460000       14.0070           0
     79374 WT26     924      MECN     C1       CG331   -0.170000       12.0110           0
     79375 WT26     924      MECN     H11      HGA3     0.090000        1.0080           0
     79376 WT26     924      MECN     H12      HGA3     0.090000        1.0080           0
     79377 WT26     924      MECN     H13      HGA3     0.090000        1.0080           0
     79378 WT26     924      MECN     C2       CG1N1    0.360000       12.0110           0
     79379 WT26     924      MECN     N3       NG1T1   -0.460000       14.0070           0
     79380 WT26     927      MECN     C1       CG331   -0.170000       12.0110           0
     79381 WT26     927      MECN     H11      HGA3     0.090000        1.0080           0
     79382 WT26     927      MECN     H12      HGA3     0.090000        1.0080           0
     79383 WT26     927      MECN     H13      HGA3     0.090000        1.0080           0
     79384 WT26     927      MECN     C2       CG1N1    0.360000       12.0110           0
     79385 WT26     927      MECN     N3       NG1T1   -0.460000       14.0070           0
     79386 WT26     928      MECN     C1       CG331   -0.170000       12.0110           0
     79387 WT26     928      MECN     H11      HGA3     0.090000        1.0080           0
     79388 WT26     928      MECN     H12      HGA3     0.090000        1.0080           0
     79389 WT26     928      MECN     H13      HGA3     0.090000        1.0080           0
     79390 WT26     928      MECN     C2       CG1N1    0.360000       12.0110           0
     79391 WT26     928      MECN     N3       NG1T1   -0.460000       14.0070           0
     79392 WT26     931      MECN     C1       CG331   -0.170000       12.0110           0
     79393 WT26     931      MECN     H11      HGA3     0.090000        1.0080           0
     79394 WT26     931      MECN     H12      HGA3     0.090000        1.0080           0
     79395 WT26     931      MECN     H13      HGA3     0.090000        1.0080           0
     79396 WT26     931      MECN     C2       CG1N1    0.360000       12.0110           0
     79397 WT26     931      MECN     N3       NG1T1   -0.460000       14.0070           0
     79398 WT26     932      MECN     C1       CG331   -0.170000       12.0110           0
     79399 WT26     932      MECN     H11      HGA3     0.090000        1.0080           0
     79400 WT26     932      MECN     H12      HGA3     0.090000        1.0080           0
     79401 WT26     932      MECN     H13      HGA3     0.090000        1.0080           0
     79402 WT26     932      MECN     C2       CG1N1    0.360000       12.0110           0
     79403 WT26     932      MECN     N3       NG1T1   -0.460000       14.0070           0
     79404 WT26     936      MECN     C1       CG331   -0.170000       12.0110           0
     79405 WT26     936      MECN     H11      HGA3     0.090000        1.0080           0
     79406 WT26     936      MECN     H12      HGA3     0.090000        1.0080           0
     79407 WT26     936      MECN     H13      HGA3     0.090000        1.0080           0
     79408 WT26     936      MECN     C2       CG1N1    0.360000       12.0110           0
     79409 WT26     936      MECN     N3       NG1T1   -0.460000       14.0070           0
     79410 WT26     937      MECN     C1       CG331   -0.170000       12.0110           0
     79411 WT26     937      MECN     H11      HGA3     0.090000        1.0080           0
     79412 WT26     937      MECN     H12      HGA3     0.090000        1.0080           0
     79413 WT26     937      MECN     H13      HGA3     0.090000        1.0080           0
     79414 WT26     937      MECN     C2       CG1N1    0.360000       12.0110           0
     79415 WT26     937      MECN     N3       NG1T1   -0.460000       14.0070           0
     79416 WT26     940      MECN     C1       CG331   -0.170000       12.0110           0
     79417 WT26     940      MECN     H11      HGA3     0.090000        1.0080           0
     79418 WT26     940      MECN     H12      HGA3     0.090000        1.0080           0
     79419 WT26     940      MECN     H13      HGA3     0.090000        1.0080           0
     79420 WT26     940      MECN     C2       CG1N1    0.360000       12.0110           0
     79421 WT26     940      MECN     N3       NG1T1   -0.460000       14.0070           0
     79422 WT26     942      MECN     C1       CG331   -0.170000       12.0110           0
     79423 WT26     942      MECN     H11      HGA3     0.090000        1.0080           0
     79424 WT26     942      MECN     H12      HGA3     0.090000        1.0080           0
     79425 WT26     942      MECN     H13      HGA3     0.090000        1.0080           0
     79426 WT26     942      MECN     C2       CG1N1    0.360000       12.0110           0
     79427 WT26     942      MECN     N3       NG1T1   -0.460000       14.0070           0
     79428 WT26     944      MECN     C1       CG331   -0.170000       12.0110           0
     79429 WT26     944      MECN     H11      HGA3     0.090000        1.0080           0
     79430 WT26     944      MECN     H12      HGA3     0.090000        1.0080           0
     79431 WT26     944      MECN     H13      HGA3     0.090000        1.0080           0
     79432 WT26     944      MECN     C2       CG1N1    0.360000       12.0110           0
     79433 WT26     944      MECN     N3       NG1T1   -0.460000       14.0070           0
     79434 WT26     946      MECN     C1       CG331   -0.170000       12.0110           0
     79435 WT26     946      MECN     H11      HGA3     0.090000        1.0080           0
     79436 WT26     946      MECN     H12      HGA3     0.090000        1.0080           0
     79437 WT26     946      MECN     H13      HGA3     0.090000        1.0080           0
     79438 WT26     946      MECN     C2       CG1N1    0.360000       12.0110           0
     79439 WT26     946      MECN     N3       NG1T1   -0.460000       14.0070           0
     79440 WT26     949      MECN     C1       CG331   -0.170000       12.0110           0
     79441 WT26     949      MECN     H11      HGA3     0.090000        1.0080           0
     79442 WT26     949      MECN     H12      HGA3     0.090000        1.0080           0
     79443 WT26     949      MECN     H13      HGA3     0.090000        1.0080           0
     79444 WT26     949      MECN     C2       CG1N1    0.360000       12.0110           0
     79445 WT26     949      MECN     N3       NG1T1   -0.460000       14.0070           0
     79446 WT26     951      MECN     C1       CG331   -0.170000       12.0110           0
     79447 WT26     951      MECN     H11      HGA3     0.090000        1.0080           0
     79448 WT26     951      MECN     H12      HGA3     0.090000        1.0080           0
     79449 WT26     951      MECN     H13      HGA3     0.090000        1.0080           0
     79450 WT26     951      MECN     C2       CG1N1    0.360000       12.0110           0
     79451 WT26     951      MECN     N3       NG1T1   -0.460000       14.0070           0
     79452 WT26     952      MECN     C1       CG331   -0.170000       12.0110           0
     79453 WT26     952      MECN     H11      HGA3     0.090000        1.0080           0
     79454 WT26     952      MECN     H12      HGA3     0.090000        1.0080           0
     79455 WT26     952      MECN     H13      HGA3     0.090000        1.0080           0
     79456 WT26     952      MECN     C2       CG1N1    0.360000       12.0110           0
     79457 WT26     952      MECN     N3       NG1T1   -0.460000       14.0070           0
     79458 WT26     954      MECN     C1       CG331   -0.170000       12.0110           0
     79459 WT26     954      MECN     H11      HGA3     0.090000        1.0080           0
     79460 WT26     954      MECN     H12      HGA3     0.090000        1.0080           0
     79461 WT26     954      MECN     H13      HGA3     0.090000        1.0080           0
     79462 WT26     954      MECN     C2       CG1N1    0.360000       12.0110           0
     79463 WT26     954      MECN     N3       NG1T1   -0.460000       14.0070           0
     79464 WT26     956      MECN     C1       CG331   -0.170000       12.0110           0
     79465 WT26     956      MECN     H11      HGA3     0.090000        1.0080           0
     79466 WT26     956      MECN     H12      HGA3     0.090000        1.0080           0
     79467 WT26     956      MECN     H13      HGA3     0.090000        1.0080           0
     79468 WT26     956      MECN     C2       CG1N1    0.360000       12.0110           0
     79469 WT26     956      MECN     N3       NG1T1   -0.460000       14.0070           0
     79470 WT26     961      MECN     C1       CG331   -0.170000       12.0110           0
     79471 WT26     961      MECN     H11      HGA3     0.090000        1.0080           0
     79472 WT26     961      MECN     H12      HGA3     0.090000        1.0080           0
     79473 WT26     961      MECN     H13      HGA3     0.090000        1.0080           0
     79474 WT26     961      MECN     C2       CG1N1    0.360000       12.0110           0
     79475 WT26     961      MECN     N3       NG1T1   -0.460000       14.0070           0
     79476 WT26     962      MECN     C1       CG331   -0.170000       12.0110           0
     79477 WT26     962      MECN     H11      HGA3     0.090000        1.0080           0
     79478 WT26     962      MECN     H12      HGA3     0.090000        1.0080           0
     79479 WT26     962      MECN     H13      HGA3     0.090000        1.0080           0
     79480 WT26     962      MECN     C2       CG1N1    0.360000       12.0110           0
     79481 WT26     962      MECN     N3       NG1T1   -0.460000       14.0070           0
     79482 WT26     966      MECN     C1       CG331   -0.170000       12.0110           0
     79483 WT26     966      MECN     H11      HGA3     0.090000        1.0080           0
     79484 WT26     966      MECN     H12      HGA3     0.090000        1.0080           0
     79485 WT26     966      MECN     H13      HGA3     0.090000        1.0080           0
     79486 WT26     966      MECN     C2       CG1N1    0.360000       12.0110           0
     79487 WT26     966      MECN     N3       NG1T1   -0.460000       14.0070           0
     79488 WT26     968      MECN     C1       CG331   -0.170000       12.0110           0
     79489 WT26     968      MECN     H11      HGA3     0.090000        1.0080           0
     79490 WT26     968      MECN     H12      HGA3     0.090000        1.0080           0
     79491 WT26     968      MECN     H13      HGA3     0.090000        1.0080           0
     79492 WT26     968      MECN     C2       CG1N1    0.360000       12.0110           0
     79493 WT26     968      MECN     N3       NG1T1   -0.460000       14.0070           0
     79494 WT26     969      MECN     C1       CG331   -0.170000       12.0110           0
     79495 WT26     969      MECN     H11      HGA3     0.090000        1.0080           0
     79496 WT26     969      MECN     H12      HGA3     0.090000        1.0080           0
     79497 WT26     969      MECN     H13      HGA3     0.090000        1.0080           0
     79498 WT26     969      MECN     C2       CG1N1    0.360000       12.0110           0
     79499 WT26     969      MECN     N3       NG1T1   -0.460000       14.0070           0
     79500 WT26     970      MECN     C1       CG331   -0.170000       12.0110           0
     79501 WT26     970      MECN     H11      HGA3     0.090000        1.0080           0
     79502 WT26     970      MECN     H12      HGA3     0.090000        1.0080           0
     79503 WT26     970      MECN     H13      HGA3     0.090000        1.0080           0
     79504 WT26     970      MECN     C2       CG1N1    0.360000       12.0110           0
     79505 WT26     970      MECN     N3       NG1T1   -0.460000       14.0070           0
     79506 WT26     971      MECN     C1       CG331   -0.170000       12.0110           0
     79507 WT26     971      MECN     H11      HGA3     0.090000        1.0080           0
     79508 WT26     971      MECN     H12      HGA3     0.090000        1.0080           0
     79509 WT26     971      MECN     H13      HGA3     0.090000        1.0080           0
     79510 WT26     971      MECN     C2       CG1N1    0.360000       12.0110           0
     79511 WT26     971      MECN     N3       NG1T1   -0.460000       14.0070           0
     79512 WT26     972      MECN     C1       CG331   -0.170000       12.0110           0
     79513 WT26     972      MECN     H11      HGA3     0.090000        1.0080           0
     79514 WT26     972      MECN     H12      HGA3     0.090000        1.0080           0
     79515 WT26     972      MECN     H13      HGA3     0.090000        1.0080           0
     79516 WT26     972      MECN     C2       CG1N1    0.360000       12.0110           0
     79517 WT26     972      MECN     N3       NG1T1   -0.460000       14.0070           0
     79518 WT26     978      MECN     C1       CG331   -0.170000       12.0110           0
     79519 WT26     978      MECN     H11      HGA3     0.090000        1.0080           0
     79520 WT26     978      MECN     H12      HGA3     0.090000        1.0080           0
     79521 WT26     978      MECN     H13      HGA3     0.090000        1.0080           0
     79522 WT26     978      MECN     C2       CG1N1    0.360000       12.0110           0
     79523 WT26     978      MECN     N3       NG1T1   -0.460000       14.0070           0
     79524 WT26     979      MECN     C1       CG331   -0.170000       12.0110           0
     79525 WT26     979      MECN     H11      HGA3     0.090000        1.0080           0
     79526 WT26     979      MECN     H12      HGA3     0.090000        1.0080           0
     79527 WT26     979      MECN     H13      HGA3     0.090000        1.0080           0
     79528 WT26     979      MECN     C2       CG1N1    0.360000       12.0110           0
     79529 WT26     979      MECN     N3       NG1T1   -0.460000       14.0070           0
     79530 WT26     980      MECN     C1       CG331   -0.170000       12.0110           0
     79531 WT26     980      MECN     H11      HGA3     0.090000        1.0080           0
     79532 WT26     980      MECN     H12      HGA3     0.090000        1.0080           0
     79533 WT26     980      MECN     H13      HGA3     0.090000        1.0080           0
     79534 WT26     980      MECN     C2       CG1N1    0.360000       12.0110           0
     79535 WT26     980      MECN     N3       NG1T1   -0.460000       14.0070           0
     79536 WT26     981      MECN     C1       CG331   -0.170000       12.0110           0
     79537 WT26     981      MECN     H11      HGA3     0.090000        1.0080           0
     79538 WT26     981      MECN     H12      HGA3     0.090000        1.0080           0
     79539 WT26     981      MECN     H13      HGA3     0.090000        1.0080           0
     79540 WT26     981      MECN     C2       CG1N1    0.360000       12.0110           0
     79541 WT26     981      MECN     N3       NG1T1   -0.460000       14.0070           0
     79542 WT26     989      MECN     C1       CG331   -0.170000       12.0110           0
     79543 WT26     989      MECN     H11      HGA3     0.090000        1.0080           0
     79544 WT26     989      MECN     H12      HGA3     0.090000        1.0080           0
     79545 WT26     989      MECN     H13      HGA3     0.090000        1.0080           0
     79546 WT26     989      MECN     C2       CG1N1    0.360000       12.0110           0
     79547 WT26     989      MECN     N3       NG1T1   -0.460000       14.0070           0
     79548 WT26     990      MECN     C1       CG331   -0.170000       12.0110           0
     79549 WT26     990      MECN     H11      HGA3     0.090000        1.0080           0
     79550 WT26     990      MECN     H12      HGA3     0.090000        1.0080           0
     79551 WT26     990      MECN     H13      HGA3     0.090000        1.0080           0
     79552 WT26     990      MECN     C2       CG1N1    0.360000       12.0110           0
     79553 WT26     990      MECN     N3       NG1T1   -0.460000       14.0070           0
     79554 WT26     991      MECN     C1       CG331   -0.170000       12.0110           0
     79555 WT26     991      MECN     H11      HGA3     0.090000        1.0080           0
     79556 WT26     991      MECN     H12      HGA3     0.090000        1.0080           0
     79557 WT26     991      MECN     H13      HGA3     0.090000        1.0080           0
     79558 WT26     991      MECN     C2       CG1N1    0.360000       12.0110           0
     79559 WT26     991      MECN     N3       NG1T1   -0.460000       14.0070           0
     79560 WT26     993      MECN     C1       CG331   -0.170000       12.0110           0
     79561 WT26     993      MECN     H11      HGA3     0.090000        1.0080           0
     79562 WT26     993      MECN     H12      HGA3     0.090000        1.0080           0
     79563 WT26     993      MECN     H13      HGA3     0.090000        1.0080           0
     79564 WT26     993      MECN     C2       CG1N1    0.360000       12.0110           0
     79565 WT26     993      MECN     N3       NG1T1   -0.460000       14.0070           0
     79566 WT26     994      MECN     C1       CG331   -0.170000       12.0110           0
     79567 WT26     994      MECN     H11      HGA3     0.090000        1.0080           0
     79568 WT26     994      MECN     H12      HGA3     0.090000        1.0080           0
     79569 WT26     994      MECN     H13      HGA3     0.090000        1.0080           0
     79570 WT26     994      MECN     C2       CG1N1    0.360000       12.0110           0
     79571 WT26     994      MECN     N3       NG1T1   -0.460000       14.0070           0
     79572 WT26     996      MECN     C1       CG331   -0.170000       12.0110           0
     79573 WT26     996      MECN     H11      HGA3     0.090000        1.0080           0
     79574 WT26     996      MECN     H12      HGA3     0.090000        1.0080           0
     79575 WT26     996      MECN     H13      HGA3     0.090000        1.0080           0
     79576 WT26     996      MECN     C2       CG1N1    0.360000       12.0110           0
     79577 WT26     996      MECN     N3       NG1T1   -0.460000       14.0070           0
     79578 WT26     998      MECN     C1       CG331   -0.170000       12.0110           0
     79579 WT26     998      MECN     H11      HGA3     0.090000        1.0080           0
     79580 WT26     998      MECN     H12      HGA3     0.090000        1.0080           0
     79581 WT26     998      MECN     H13      HGA3     0.090000        1.0080           0
     79582 WT26     998      MECN     C2       CG1N1    0.360000       12.0110           0
     79583 WT26     998      MECN     N3       NG1T1   -0.460000       14.0070           0
     79584 WT26     1002     MECN     C1       CG331   -0.170000       12.0110           0
     79585 WT26     1002     MECN     H11      HGA3     0.090000        1.0080           0
     79586 WT26     1002     MECN     H12      HGA3     0.090000        1.0080           0
     79587 WT26     1002     MECN     H13      HGA3     0.090000        1.0080           0
     79588 WT26     1002     MECN     C2       CG1N1    0.360000       12.0110           0
     79589 WT26     1002     MECN     N3       NG1T1   -0.460000       14.0070           0
     79590 WT26     1004     MECN     C1       CG331   -0.170000       12.0110           0
     79591 WT26     1004     MECN     H11      HGA3     0.090000        1.0080           0
     79592 WT26     1004     MECN     H12      HGA3     0.090000        1.0080           0
     79593 WT26     1004     MECN     H13      HGA3     0.090000        1.0080           0
     79594 WT26     1004     MECN     C2       CG1N1    0.360000       12.0110           0
     79595 WT26     1004     MECN     N3       NG1T1   -0.460000       14.0070           0
     79596 WT26     1007     MECN     C1       CG331   -0.170000       12.0110           0
     79597 WT26     1007     MECN     H11      HGA3     0.090000        1.0080           0
     79598 WT26     1007     MECN     H12      HGA3     0.090000        1.0080           0
     79599 WT26     1007     MECN     H13      HGA3     0.090000        1.0080           0
     79600 WT26     1007     MECN     C2       CG1N1    0.360000       12.0110           0
     79601 WT26     1007     MECN     N3       NG1T1   -0.460000       14.0070           0
     79602 WT26     1008     MECN     C1       CG331   -0.170000       12.0110           0
     79603 WT26     1008     MECN     H11      HGA3     0.090000        1.0080           0
     79604 WT26     1008     MECN     H12      HGA3     0.090000        1.0080           0
     79605 WT26     1008     MECN     H13      HGA3     0.090000        1.0080           0
     79606 WT26     1008     MECN     C2       CG1N1    0.360000       12.0110           0
     79607 WT26     1008     MECN     N3       NG1T1   -0.460000       14.0070           0
     79608 WT26     1010     MECN     C1       CG331   -0.170000       12.0110           0
     79609 WT26     1010     MECN     H11      HGA3     0.090000        1.0080           0
     79610 WT26     1010     MECN     H12      HGA3     0.090000        1.0080           0
     79611 WT26     1010     MECN     H13      HGA3     0.090000        1.0080           0
     79612 WT26     1010     MECN     C2       CG1N1    0.360000       12.0110           0
     79613 WT26     1010     MECN     N3       NG1T1   -0.460000       14.0070           0
     79614 WT26     1012     MECN     C1       CG331   -0.170000       12.0110           0
     79615 WT26     1012     MECN     H11      HGA3     0.090000        1.0080           0
     79616 WT26     1012     MECN     H12      HGA3     0.090000        1.0080           0
     79617 WT26     1012     MECN     H13      HGA3     0.090000        1.0080           0
     79618 WT26     1012     MECN     C2       CG1N1    0.360000       12.0110           0
     79619 WT26     1012     MECN     N3       NG1T1   -0.460000       14.0070           0
     79620 WT26     1013     MECN     C1       CG331   -0.170000       12.0110           0
     79621 WT26     1013     MECN     H11      HGA3     0.090000        1.0080           0
     79622 WT26     1013     MECN     H12      HGA3     0.090000        1.0080           0
     79623 WT26     1013     MECN     H13      HGA3     0.090000        1.0080           0
     79624 WT26     1013     MECN     C2       CG1N1    0.360000       12.0110           0
     79625 WT26     1013     MECN     N3       NG1T1   -0.460000       14.0070           0
     79626 WT26     1018     MECN     C1       CG331   -0.170000       12.0110           0
     79627 WT26     1018     MECN     H11      HGA3     0.090000        1.0080           0
     79628 WT26     1018     MECN     H12      HGA3     0.090000        1.0080           0
     79629 WT26     1018     MECN     H13      HGA3     0.090000        1.0080           0
     79630 WT26     1018     MECN     C2       CG1N1    0.360000       12.0110           0
     79631 WT26     1018     MECN     N3       NG1T1   -0.460000       14.0070           0
     79632 WT26     1019     MECN     C1       CG331   -0.170000       12.0110           0
     79633 WT26     1019     MECN     H11      HGA3     0.090000        1.0080           0
     79634 WT26     1019     MECN     H12      HGA3     0.090000        1.0080           0
     79635 WT26     1019     MECN     H13      HGA3     0.090000        1.0080           0
     79636 WT26     1019     MECN     C2       CG1N1    0.360000       12.0110           0
     79637 WT26     1019     MECN     N3       NG1T1   -0.460000       14.0070           0
     79638 WT26     1028     MECN     C1       CG331   -0.170000       12.0110           0
     79639 WT26     1028     MECN     H11      HGA3     0.090000        1.0080           0
     79640 WT26     1028     MECN     H12      HGA3     0.090000        1.0080           0
     79641 WT26     1028     MECN     H13      HGA3     0.090000        1.0080           0
     79642 WT26     1028     MECN     C2       CG1N1    0.360000       12.0110           0
     79643 WT26     1028     MECN     N3       NG1T1   -0.460000       14.0070           0
     79644 WT26     1030     MECN     C1       CG331   -0.170000       12.0110           0
     79645 WT26     1030     MECN     H11      HGA3     0.090000        1.0080           0
     79646 WT26     1030     MECN     H12      HGA3     0.090000        1.0080           0
     79647 WT26     1030     MECN     H13      HGA3     0.090000        1.0080           0
     79648 WT26     1030     MECN     C2       CG1N1    0.360000       12.0110           0
     79649 WT26     1030     MECN     N3       NG1T1   -0.460000       14.0070           0
     79650 WT26     1031     MECN     C1       CG331   -0.170000       12.0110           0
     79651 WT26     1031     MECN     H11      HGA3     0.090000        1.0080           0
     79652 WT26     1031     MECN     H12      HGA3     0.090000        1.0080           0
     79653 WT26     1031     MECN     H13      HGA3     0.090000        1.0080           0
     79654 WT26     1031     MECN     C2       CG1N1    0.360000       12.0110           0
     79655 WT26     1031     MECN     N3       NG1T1   -0.460000       14.0070           0
     79656 WT26     1032     MECN     C1       CG331   -0.170000       12.0110           0
     79657 WT26     1032     MECN     H11      HGA3     0.090000        1.0080           0
     79658 WT26     1032     MECN     H12      HGA3     0.090000        1.0080           0
     79659 WT26     1032     MECN     H13      HGA3     0.090000        1.0080           0
     79660 WT26     1032     MECN     C2       CG1N1    0.360000       12.0110           0
     79661 WT26     1032     MECN     N3       NG1T1   -0.460000       14.0070           0
     79662 WT26     1033     MECN     C1       CG331   -0.170000       12.0110           0
     79663 WT26     1033     MECN     H11      HGA3     0.090000        1.0080           0
     79664 WT26     1033     MECN     H12      HGA3     0.090000        1.0080           0
     79665 WT26     1033     MECN     H13      HGA3     0.090000        1.0080           0
     79666 WT26     1033     MECN     C2       CG1N1    0.360000       12.0110           0
     79667 WT26     1033     MECN     N3       NG1T1   -0.460000       14.0070           0
     79668 WT26     1034     MECN     C1       CG331   -0.170000       12.0110           0
     79669 WT26     1034     MECN     H11      HGA3     0.090000        1.0080           0
     79670 WT26     1034     MECN     H12      HGA3     0.090000        1.0080           0
     79671 WT26     1034     MECN     H13      HGA3     0.090000        1.0080           0
     79672 WT26     1034     MECN     C2       CG1N1    0.360000       12.0110           0
     79673 WT26     1034     MECN     N3       NG1T1   -0.460000       14.0070           0
     79674 WT26     1036     MECN     C1       CG331   -0.170000       12.0110           0
     79675 WT26     1036     MECN     H11      HGA3     0.090000        1.0080           0
     79676 WT26     1036     MECN     H12      HGA3     0.090000        1.0080           0
     79677 WT26     1036     MECN     H13      HGA3     0.090000        1.0080           0
     79678 WT26     1036     MECN     C2       CG1N1    0.360000       12.0110           0
     79679 WT26     1036     MECN     N3       NG1T1   -0.460000       14.0070           0
     79680 WT26     1039     MECN     C1       CG331   -0.170000       12.0110           0
     79681 WT26     1039     MECN     H11      HGA3     0.090000        1.0080           0
     79682 WT26     1039     MECN     H12      HGA3     0.090000        1.0080           0
     79683 WT26     1039     MECN     H13      HGA3     0.090000        1.0080           0
     79684 WT26     1039     MECN     C2       CG1N1    0.360000       12.0110           0
     79685 WT26     1039     MECN     N3       NG1T1   -0.460000       14.0070           0
     79686 WT26     1041     MECN     C1       CG331   -0.170000       12.0110           0
     79687 WT26     1041     MECN     H11      HGA3     0.090000        1.0080           0
     79688 WT26     1041     MECN     H12      HGA3     0.090000        1.0080           0
     79689 WT26     1041     MECN     H13      HGA3     0.090000        1.0080           0
     79690 WT26     1041     MECN     C2       CG1N1    0.360000       12.0110           0
     79691 WT26     1041     MECN     N3       NG1T1   -0.460000       14.0070           0
     79692 WT26     1042     MECN     C1       CG331   -0.170000       12.0110           0
     79693 WT26     1042     MECN     H11      HGA3     0.090000        1.0080           0
     79694 WT26     1042     MECN     H12      HGA3     0.090000        1.0080           0
     79695 WT26     1042     MECN     H13      HGA3     0.090000        1.0080           0
     79696 WT26     1042     MECN     C2       CG1N1    0.360000       12.0110           0
     79697 WT26     1042     MECN     N3       NG1T1   -0.460000       14.0070           0
     79698 WT26     1043     MECN     C1       CG331   -0.170000       12.0110           0
     79699 WT26     1043     MECN     H11      HGA3     0.090000        1.0080           0
     79700 WT26     1043     MECN     H12      HGA3     0.090000        1.0080           0
     79701 WT26     1043     MECN     H13      HGA3     0.090000        1.0080           0
     79702 WT26     1043     MECN     C2       CG1N1    0.360000       12.0110           0
     79703 WT26     1043     MECN     N3       NG1T1   -0.460000       14.0070           0
     79704 WT26     1044     MECN     C1       CG331   -0.170000       12.0110           0
     79705 WT26     1044     MECN     H11      HGA3     0.090000        1.0080           0
     79706 WT26     1044     MECN     H12      HGA3     0.090000        1.0080           0
     79707 WT26     1044     MECN     H13      HGA3     0.090000        1.0080           0
     79708 WT26     1044     MECN     C2       CG1N1    0.360000       12.0110           0
     79709 WT26     1044     MECN     N3       NG1T1   -0.460000       14.0070           0
     79710 WT26     1049     MECN     C1       CG331   -0.170000       12.0110           0
     79711 WT26     1049     MECN     H11      HGA3     0.090000        1.0080           0
     79712 WT26     1049     MECN     H12      HGA3     0.090000        1.0080           0
     79713 WT26     1049     MECN     H13      HGA3     0.090000        1.0080           0
     79714 WT26     1049     MECN     C2       CG1N1    0.360000       12.0110           0
     79715 WT26     1049     MECN     N3       NG1T1   -0.460000       14.0070           0
     79716 WT26     1051     MECN     C1       CG331   -0.170000       12.0110           0
     79717 WT26     1051     MECN     H11      HGA3     0.090000        1.0080           0
     79718 WT26     1051     MECN     H12      HGA3     0.090000        1.0080           0
     79719 WT26     1051     MECN     H13      HGA3     0.090000        1.0080           0
     79720 WT26     1051     MECN     C2       CG1N1    0.360000       12.0110           0
     79721 WT26     1051     MECN     N3       NG1T1   -0.460000       14.0070           0
     79722 WT26     1055     MECN     C1       CG331   -0.170000       12.0110           0
     79723 WT26     1055     MECN     H11      HGA3     0.090000        1.0080           0
     79724 WT26     1055     MECN     H12      HGA3     0.090000        1.0080           0
     79725 WT26     1055     MECN     H13      HGA3     0.090000        1.0080           0
     79726 WT26     1055     MECN     C2       CG1N1    0.360000       12.0110           0
     79727 WT26     1055     MECN     N3       NG1T1   -0.460000       14.0070           0
     79728 WT26     1056     MECN     C1       CG331   -0.170000       12.0110           0
     79729 WT26     1056     MECN     H11      HGA3     0.090000        1.0080           0
     79730 WT26     1056     MECN     H12      HGA3     0.090000        1.0080           0
     79731 WT26     1056     MECN     H13      HGA3     0.090000        1.0080           0
     79732 WT26     1056     MECN     C2       CG1N1    0.360000       12.0110           0
     79733 WT26     1056     MECN     N3       NG1T1   -0.460000       14.0070           0
     79734 WT26     1057     MECN     C1       CG331   -0.170000       12.0110           0
     79735 WT26     1057     MECN     H11      HGA3     0.090000        1.0080           0
     79736 WT26     1057     MECN     H12      HGA3     0.090000        1.0080           0
     79737 WT26     1057     MECN     H13      HGA3     0.090000        1.0080           0
     79738 WT26     1057     MECN     C2       CG1N1    0.360000       12.0110           0
     79739 WT26     1057     MECN     N3       NG1T1   -0.460000       14.0070           0
     79740 WT26     1058     MECN     C1       CG331   -0.170000       12.0110           0
     79741 WT26     1058     MECN     H11      HGA3     0.090000        1.0080           0
     79742 WT26     1058     MECN     H12      HGA3     0.090000        1.0080           0
     79743 WT26     1058     MECN     H13      HGA3     0.090000        1.0080           0
     79744 WT26     1058     MECN     C2       CG1N1    0.360000       12.0110           0
     79745 WT26     1058     MECN     N3       NG1T1   -0.460000       14.0070           0
     79746 WT26     1062     MECN     C1       CG331   -0.170000       12.0110           0
     79747 WT26     1062     MECN     H11      HGA3     0.090000        1.0080           0
     79748 WT26     1062     MECN     H12      HGA3     0.090000        1.0080           0
     79749 WT26     1062     MECN     H13      HGA3     0.090000        1.0080           0
     79750 WT26     1062     MECN     C2       CG1N1    0.360000       12.0110           0
     79751 WT26     1062     MECN     N3       NG1T1   -0.460000       14.0070           0
     79752 WT26     1063     MECN     C1       CG331   -0.170000       12.0110           0
     79753 WT26     1063     MECN     H11      HGA3     0.090000        1.0080           0
     79754 WT26     1063     MECN     H12      HGA3     0.090000        1.0080           0
     79755 WT26     1063     MECN     H13      HGA3     0.090000        1.0080           0
     79756 WT26     1063     MECN     C2       CG1N1    0.360000       12.0110           0
     79757 WT26     1063     MECN     N3       NG1T1   -0.460000       14.0070           0
     79758 WT26     1064     MECN     C1       CG331   -0.170000       12.0110           0
     79759 WT26     1064     MECN     H11      HGA3     0.090000        1.0080           0
     79760 WT26     1064     MECN     H12      HGA3     0.090000        1.0080           0
     79761 WT26     1064     MECN     H13      HGA3     0.090000        1.0080           0
     79762 WT26     1064     MECN     C2       CG1N1    0.360000       12.0110           0
     79763 WT26     1064     MECN     N3       NG1T1   -0.460000       14.0070           0
     79764 WT26     1066     MECN     C1       CG331   -0.170000       12.0110           0
     79765 WT26     1066     MECN     H11      HGA3     0.090000        1.0080           0
     79766 WT26     1066     MECN     H12      HGA3     0.090000        1.0080           0
     79767 WT26     1066     MECN     H13      HGA3     0.090000        1.0080           0
     79768 WT26     1066     MECN     C2       CG1N1    0.360000       12.0110           0
     79769 WT26     1066     MECN     N3       NG1T1   -0.460000       14.0070           0
     79770 WT26     1067     MECN     C1       CG331   -0.170000       12.0110           0
     79771 WT26     1067     MECN     H11      HGA3     0.090000        1.0080           0
     79772 WT26     1067     MECN     H12      HGA3     0.090000        1.0080           0
     79773 WT26     1067     MECN     H13      HGA3     0.090000        1.0080           0
     79774 WT26     1067     MECN     C2       CG1N1    0.360000       12.0110           0
     79775 WT26     1067     MECN     N3       NG1T1   -0.460000       14.0070           0
     79776 WT26     1071     MECN     C1       CG331   -0.170000       12.0110           0
     79777 WT26     1071     MECN     H11      HGA3     0.090000        1.0080           0
     79778 WT26     1071     MECN     H12      HGA3     0.090000        1.0080           0
     79779 WT26     1071     MECN     H13      HGA3     0.090000        1.0080           0
     79780 WT26     1071     MECN     C2       CG1N1    0.360000       12.0110           0
     79781 WT26     1071     MECN     N3       NG1T1   -0.460000       14.0070           0
     79782 WT26     1072     MECN     C1       CG331   -0.170000       12.0110           0
     79783 WT26     1072     MECN     H11      HGA3     0.090000        1.0080           0
     79784 WT26     1072     MECN     H12      HGA3     0.090000        1.0080           0
     79785 WT26     1072     MECN     H13      HGA3     0.090000        1.0080           0
     79786 WT26     1072     MECN     C2       CG1N1    0.360000       12.0110           0
     79787 WT26     1072     MECN     N3       NG1T1   -0.460000       14.0070           0
     79788 WT26     1074     MECN     C1       CG331   -0.170000       12.0110           0
     79789 WT26     1074     MECN     H11      HGA3     0.090000        1.0080           0
     79790 WT26     1074     MECN     H12      HGA3     0.090000        1.0080           0
     79791 WT26     1074     MECN     H13      HGA3     0.090000        1.0080           0
     79792 WT26     1074     MECN     C2       CG1N1    0.360000       12.0110           0
     79793 WT26     1074     MECN     N3       NG1T1   -0.460000       14.0070           0
     79794 WT26     1075     MECN     C1       CG331   -0.170000       12.0110           0
     79795 WT26     1075     MECN     H11      HGA3     0.090000        1.0080           0
     79796 WT26     1075     MECN     H12      HGA3     0.090000        1.0080           0
     79797 WT26     1075     MECN     H13      HGA3     0.090000        1.0080           0
     79798 WT26     1075     MECN     C2       CG1N1    0.360000       12.0110           0
     79799 WT26     1075     MECN     N3       NG1T1   -0.460000       14.0070           0
     79800 WT26     1076     MECN     C1       CG331   -0.170000       12.0110           0
     79801 WT26     1076     MECN     H11      HGA3     0.090000        1.0080           0
     79802 WT26     1076     MECN     H12      HGA3     0.090000        1.0080           0
     79803 WT26     1076     MECN     H13      HGA3     0.090000        1.0080           0
     79804 WT26     1076     MECN     C2       CG1N1    0.360000       12.0110           0
     79805 WT26     1076     MECN     N3       NG1T1   -0.460000       14.0070           0
     79806 WT26     1079     MECN     C1       CG331   -0.170000       12.0110           0
     79807 WT26     1079     MECN     H11      HGA3     0.090000        1.0080           0
     79808 WT26     1079     MECN     H12      HGA3     0.090000        1.0080           0
     79809 WT26     1079     MECN     H13      HGA3     0.090000        1.0080           0
     79810 WT26     1079     MECN     C2       CG1N1    0.360000       12.0110           0
     79811 WT26     1079     MECN     N3       NG1T1   -0.460000       14.0070           0
     79812 WT26     1082     MECN     C1       CG331   -0.170000       12.0110           0
     79813 WT26     1082     MECN     H11      HGA3     0.090000        1.0080           0
     79814 WT26     1082     MECN     H12      HGA3     0.090000        1.0080           0
     79815 WT26     1082     MECN     H13      HGA3     0.090000        1.0080           0
     79816 WT26     1082     MECN     C2       CG1N1    0.360000       12.0110           0
     79817 WT26     1082     MECN     N3       NG1T1   -0.460000       14.0070           0
     79818 WT26     1084     MECN     C1       CG331   -0.170000       12.0110           0
     79819 WT26     1084     MECN     H11      HGA3     0.090000        1.0080           0
     79820 WT26     1084     MECN     H12      HGA3     0.090000        1.0080           0
     79821 WT26     1084     MECN     H13      HGA3     0.090000        1.0080           0
     79822 WT26     1084     MECN     C2       CG1N1    0.360000       12.0110           0
     79823 WT26     1084     MECN     N3       NG1T1   -0.460000       14.0070           0
     79824 WT26     1086     MECN     C1       CG331   -0.170000       12.0110           0
     79825 WT26     1086     MECN     H11      HGA3     0.090000        1.0080           0
     79826 WT26     1086     MECN     H12      HGA3     0.090000        1.0080           0
     79827 WT26     1086     MECN     H13      HGA3     0.090000        1.0080           0
     79828 WT26     1086     MECN     C2       CG1N1    0.360000       12.0110           0
     79829 WT26     1086     MECN     N3       NG1T1   -0.460000       14.0070           0
     79830 WT26     1089     MECN     C1       CG331   -0.170000       12.0110           0
     79831 WT26     1089     MECN     H11      HGA3     0.090000        1.0080           0
     79832 WT26     1089     MECN     H12      HGA3     0.090000        1.0080           0
     79833 WT26     1089     MECN     H13      HGA3     0.090000        1.0080           0
     79834 WT26     1089     MECN     C2       CG1N1    0.360000       12.0110           0
     79835 WT26     1089     MECN     N3       NG1T1   -0.460000       14.0070           0
     79836 WT26     1090     MECN     C1       CG331   -0.170000       12.0110           0
     79837 WT26     1090     MECN     H11      HGA3     0.090000        1.0080           0
     79838 WT26     1090     MECN     H12      HGA3     0.090000        1.0080           0
     79839 WT26     1090     MECN     H13      HGA3     0.090000        1.0080           0
     79840 WT26     1090     MECN     C2       CG1N1    0.360000       12.0110           0
     79841 WT26     1090     MECN     N3       NG1T1   -0.460000       14.0070           0
     79842 WT26     1091     MECN     C1       CG331   -0.170000       12.0110           0
     79843 WT26     1091     MECN     H11      HGA3     0.090000        1.0080           0
     79844 WT26     1091     MECN     H12      HGA3     0.090000        1.0080           0
     79845 WT26     1091     MECN     H13      HGA3     0.090000        1.0080           0
     79846 WT26     1091     MECN     C2       CG1N1    0.360000       12.0110           0
     79847 WT26     1091     MECN     N3       NG1T1   -0.460000       14.0070           0
     79848 WT26     1093     MECN     C1       CG331   -0.170000       12.0110           0
     79849 WT26     1093     MECN     H11      HGA3     0.090000        1.0080           0
     79850 WT26     1093     MECN     H12      HGA3     0.090000        1.0080           0
     79851 WT26     1093     MECN     H13      HGA3     0.090000        1.0080           0
     79852 WT26     1093     MECN     C2       CG1N1    0.360000       12.0110           0
     79853 WT26     1093     MECN     N3       NG1T1   -0.460000       14.0070           0
     79854 WT26     1097     MECN     C1       CG331   -0.170000       12.0110           0
     79855 WT26     1097     MECN     H11      HGA3     0.090000        1.0080           0
     79856 WT26     1097     MECN     H12      HGA3     0.090000        1.0080           0
     79857 WT26     1097     MECN     H13      HGA3     0.090000        1.0080           0
     79858 WT26     1097     MECN     C2       CG1N1    0.360000       12.0110           0
     79859 WT26     1097     MECN     N3       NG1T1   -0.460000       14.0070           0
     79860 WT26     1100     MECN     C1       CG331   -0.170000       12.0110           0
     79861 WT26     1100     MECN     H11      HGA3     0.090000        1.0080           0
     79862 WT26     1100     MECN     H12      HGA3     0.090000        1.0080           0
     79863 WT26     1100     MECN     H13      HGA3     0.090000        1.0080           0
     79864 WT26     1100     MECN     C2       CG1N1    0.360000       12.0110           0
     79865 WT26     1100     MECN     N3       NG1T1   -0.460000       14.0070           0
     79866 WT26     1102     MECN     C1       CG331   -0.170000       12.0110           0
     79867 WT26     1102     MECN     H11      HGA3     0.090000        1.0080           0
     79868 WT26     1102     MECN     H12      HGA3     0.090000        1.0080           0
     79869 WT26     1102     MECN     H13      HGA3     0.090000        1.0080           0
     79870 WT26     1102     MECN     C2       CG1N1    0.360000       12.0110           0
     79871 WT26     1102     MECN     N3       NG1T1   -0.460000       14.0070           0
     79872 WT26     1104     MECN     C1       CG331   -0.170000       12.0110           0
     79873 WT26     1104     MECN     H11      HGA3     0.090000        1.0080           0
     79874 WT26     1104     MECN     H12      HGA3     0.090000        1.0080           0
     79875 WT26     1104     MECN     H13      HGA3     0.090000        1.0080           0
     79876 WT26     1104     MECN     C2       CG1N1    0.360000       12.0110           0
     79877 WT26     1104     MECN     N3       NG1T1   -0.460000       14.0070           0
     79878 WT26     1105     MECN     C1       CG331   -0.170000       12.0110           0
     79879 WT26     1105     MECN     H11      HGA3     0.090000        1.0080           0
     79880 WT26     1105     MECN     H12      HGA3     0.090000        1.0080           0
     79881 WT26     1105     MECN     H13      HGA3     0.090000        1.0080           0
     79882 WT26     1105     MECN     C2       CG1N1    0.360000       12.0110           0
     79883 WT26     1105     MECN     N3       NG1T1   -0.460000       14.0070           0
     79884 WT26     1106     MECN     C1       CG331   -0.170000       12.0110           0
     79885 WT26     1106     MECN     H11      HGA3     0.090000        1.0080           0
     79886 WT26     1106     MECN     H12      HGA3     0.090000        1.0080           0
     79887 WT26     1106     MECN     H13      HGA3     0.090000        1.0080           0
     79888 WT26     1106     MECN     C2       CG1N1    0.360000       12.0110           0
     79889 WT26     1106     MECN     N3       NG1T1   -0.460000       14.0070           0
     79890 WT26     1108     MECN     C1       CG331   -0.170000       12.0110           0
     79891 WT26     1108     MECN     H11      HGA3     0.090000        1.0080           0
     79892 WT26     1108     MECN     H12      HGA3     0.090000        1.0080           0
     79893 WT26     1108     MECN     H13      HGA3     0.090000        1.0080           0
     79894 WT26     1108     MECN     C2       CG1N1    0.360000       12.0110           0
     79895 WT26     1108     MECN     N3       NG1T1   -0.460000       14.0070           0
     79896 WT26     1109     MECN     C1       CG331   -0.170000       12.0110           0
     79897 WT26     1109     MECN     H11      HGA3     0.090000        1.0080           0
     79898 WT26     1109     MECN     H12      HGA3     0.090000        1.0080           0
     79899 WT26     1109     MECN     H13      HGA3     0.090000        1.0080           0
     79900 WT26     1109     MECN     C2       CG1N1    0.360000       12.0110           0
     79901 WT26     1109     MECN     N3       NG1T1   -0.460000       14.0070           0
     79902 WT26     1111     MECN     C1       CG331   -0.170000       12.0110           0
     79903 WT26     1111     MECN     H11      HGA3     0.090000        1.0080           0
     79904 WT26     1111     MECN     H12      HGA3     0.090000        1.0080           0
     79905 WT26     1111     MECN     H13      HGA3     0.090000        1.0080           0
     79906 WT26     1111     MECN     C2       CG1N1    0.360000       12.0110           0
     79907 WT26     1111     MECN     N3       NG1T1   -0.460000       14.0070           0
     79908 WT26     1118     MECN     C1       CG331   -0.170000       12.0110           0
     79909 WT26     1118     MECN     H11      HGA3     0.090000        1.0080           0
     79910 WT26     1118     MECN     H12      HGA3     0.090000        1.0080           0
     79911 WT26     1118     MECN     H13      HGA3     0.090000        1.0080           0
     79912 WT26     1118     MECN     C2       CG1N1    0.360000       12.0110           0
     79913 WT26     1118     MECN     N3       NG1T1   -0.460000       14.0070           0
     79914 WT26     1119     MECN     C1       CG331   -0.170000       12.0110           0
     79915 WT26     1119     MECN     H11      HGA3     0.090000        1.0080           0
     79916 WT26     1119     MECN     H12      HGA3     0.090000        1.0080           0
     79917 WT26     1119     MECN     H13      HGA3     0.090000        1.0080           0
     79918 WT26     1119     MECN     C2       CG1N1    0.360000       12.0110           0
     79919 WT26     1119     MECN     N3       NG1T1   -0.460000       14.0070           0
     79920 WT26     1127     MECN     C1       CG331   -0.170000       12.0110           0
     79921 WT26     1127     MECN     H11      HGA3     0.090000        1.0080           0
     79922 WT26     1127     MECN     H12      HGA3     0.090000        1.0080           0
     79923 WT26     1127     MECN     H13      HGA3     0.090000        1.0080           0
     79924 WT26     1127     MECN     C2       CG1N1    0.360000       12.0110           0
     79925 WT26     1127     MECN     N3       NG1T1   -0.460000       14.0070           0
     79926 WT26     1128     MECN     C1       CG331   -0.170000       12.0110           0
     79927 WT26     1128     MECN     H11      HGA3     0.090000        1.0080           0
     79928 WT26     1128     MECN     H12      HGA3     0.090000        1.0080           0
     79929 WT26     1128     MECN     H13      HGA3     0.090000        1.0080           0
     79930 WT26     1128     MECN     C2       CG1N1    0.360000       12.0110           0
     79931 WT26     1128     MECN     N3       NG1T1   -0.460000       14.0070           0
     79932 WT26     1132     MECN     C1       CG331   -0.170000       12.0110           0
     79933 WT26     1132     MECN     H11      HGA3     0.090000        1.0080           0
     79934 WT26     1132     MECN     H12      HGA3     0.090000        1.0080           0
     79935 WT26     1132     MECN     H13      HGA3     0.090000        1.0080           0
     79936 WT26     1132     MECN     C2       CG1N1    0.360000       12.0110           0
     79937 WT26     1132     MECN     N3       NG1T1   -0.460000       14.0070           0
     79938 WT26     1133     MECN     C1       CG331   -0.170000       12.0110           0
     79939 WT26     1133     MECN     H11      HGA3     0.090000        1.0080           0
     79940 WT26     1133     MECN     H12      HGA3     0.090000        1.0080           0
     79941 WT26     1133     MECN     H13      HGA3     0.090000        1.0080           0
     79942 WT26     1133     MECN     C2       CG1N1    0.360000       12.0110           0
     79943 WT26     1133     MECN     N3       NG1T1   -0.460000       14.0070           0
     79944 WT26     1135     MECN     C1       CG331   -0.170000       12.0110           0
     79945 WT26     1135     MECN     H11      HGA3     0.090000        1.0080           0
     79946 WT26     1135     MECN     H12      HGA3     0.090000        1.0080           0
     79947 WT26     1135     MECN     H13      HGA3     0.090000        1.0080           0
     79948 WT26     1135     MECN     C2       CG1N1    0.360000       12.0110           0
     79949 WT26     1135     MECN     N3       NG1T1   -0.460000       14.0070           0
     79950 WT26     1137     MECN     C1       CG331   -0.170000       12.0110           0
     79951 WT26     1137     MECN     H11      HGA3     0.090000        1.0080           0
     79952 WT26     1137     MECN     H12      HGA3     0.090000        1.0080           0
     79953 WT26     1137     MECN     H13      HGA3     0.090000        1.0080           0
     79954 WT26     1137     MECN     C2       CG1N1    0.360000       12.0110           0
     79955 WT26     1137     MECN     N3       NG1T1   -0.460000       14.0070           0
     79956 WT26     1140     MECN     C1       CG331   -0.170000       12.0110           0
     79957 WT26     1140     MECN     H11      HGA3     0.090000        1.0080           0
     79958 WT26     1140     MECN     H12      HGA3     0.090000        1.0080           0
     79959 WT26     1140     MECN     H13      HGA3     0.090000        1.0080           0
     79960 WT26     1140     MECN     C2       CG1N1    0.360000       12.0110           0
     79961 WT26     1140     MECN     N3       NG1T1   -0.460000       14.0070           0
     79962 WT26     1142     MECN     C1       CG331   -0.170000       12.0110           0
     79963 WT26     1142     MECN     H11      HGA3     0.090000        1.0080           0
     79964 WT26     1142     MECN     H12      HGA3     0.090000        1.0080           0
     79965 WT26     1142     MECN     H13      HGA3     0.090000        1.0080           0
     79966 WT26     1142     MECN     C2       CG1N1    0.360000       12.0110           0
     79967 WT26     1142     MECN     N3       NG1T1   -0.460000       14.0070           0
     79968 WT26     1146     MECN     C1       CG331   -0.170000       12.0110           0
     79969 WT26     1146     MECN     H11      HGA3     0.090000        1.0080           0
     79970 WT26     1146     MECN     H12      HGA3     0.090000        1.0080           0
     79971 WT26     1146     MECN     H13      HGA3     0.090000        1.0080           0
     79972 WT26     1146     MECN     C2       CG1N1    0.360000       12.0110           0
     79973 WT26     1146     MECN     N3       NG1T1   -0.460000       14.0070           0
     79974 WT26     1148     MECN     C1       CG331   -0.170000       12.0110           0
     79975 WT26     1148     MECN     H11      HGA3     0.090000        1.0080           0
     79976 WT26     1148     MECN     H12      HGA3     0.090000        1.0080           0
     79977 WT26     1148     MECN     H13      HGA3     0.090000        1.0080           0
     79978 WT26     1148     MECN     C2       CG1N1    0.360000       12.0110           0
     79979 WT26     1148     MECN     N3       NG1T1   -0.460000       14.0070           0
     79980 WT26     1149     MECN     C1       CG331   -0.170000       12.0110           0
     79981 WT26     1149     MECN     H11      HGA3     0.090000        1.0080           0
     79982 WT26     1149     MECN     H12      HGA3     0.090000        1.0080           0
     79983 WT26     1149     MECN     H13      HGA3     0.090000        1.0080           0
     79984 WT26     1149     MECN     C2       CG1N1    0.360000       12.0110           0
     79985 WT26     1149     MECN     N3       NG1T1   -0.460000       14.0070           0
     79986 WT26     1150     MECN     C1       CG331   -0.170000       12.0110           0
     79987 WT26     1150     MECN     H11      HGA3     0.090000        1.0080           0
     79988 WT26     1150     MECN     H12      HGA3     0.090000        1.0080           0
     79989 WT26     1150     MECN     H13      HGA3     0.090000        1.0080           0
     79990 WT26     1150     MECN     C2       CG1N1    0.360000       12.0110           0
     79991 WT26     1150     MECN     N3       NG1T1   -0.460000       14.0070           0
     79992 WT26     1151     MECN     C1       CG331   -0.170000       12.0110           0
     79993 WT26     1151     MECN     H11      HGA3     0.090000        1.0080           0
     79994 WT26     1151     MECN     H12      HGA3     0.090000        1.0080           0
     79995 WT26     1151     MECN     H13      HGA3     0.090000        1.0080           0
     79996 WT26     1151     MECN     C2       CG1N1    0.360000       12.0110           0
     79997 WT26     1151     MECN     N3       NG1T1   -0.460000       14.0070           0
     79998 WT26     1152     MECN     C1       CG331   -0.170000       12.0110           0
     79999 WT26     1152     MECN     H11      HGA3     0.090000        1.0080           0
     80000 WT26     1152     MECN     H12      HGA3     0.090000        1.0080           0
     80001 WT26     1152     MECN     H13      HGA3     0.090000        1.0080           0
     80002 WT26     1152     MECN     C2       CG1N1    0.360000       12.0110           0
     80003 WT26     1152     MECN     N3       NG1T1   -0.460000       14.0070           0
     80004 WT26     1159     MECN     C1       CG331   -0.170000       12.0110           0
     80005 WT26     1159     MECN     H11      HGA3     0.090000        1.0080           0
     80006 WT26     1159     MECN     H12      HGA3     0.090000        1.0080           0
     80007 WT26     1159     MECN     H13      HGA3     0.090000        1.0080           0
     80008 WT26     1159     MECN     C2       CG1N1    0.360000       12.0110           0
     80009 WT26     1159     MECN     N3       NG1T1   -0.460000       14.0070           0
     80010 WT26     1161     MECN     C1       CG331   -0.170000       12.0110           0
     80011 WT26     1161     MECN     H11      HGA3     0.090000        1.0080           0
     80012 WT26     1161     MECN     H12      HGA3     0.090000        1.0080           0
     80013 WT26     1161     MECN     H13      HGA3     0.090000        1.0080           0
     80014 WT26     1161     MECN     C2       CG1N1    0.360000       12.0110           0
     80015 WT26     1161     MECN     N3       NG1T1   -0.460000       14.0070           0
     80016 WT26     1162     MECN     C1       CG331   -0.170000       12.0110           0
     80017 WT26     1162     MECN     H11      HGA3     0.090000        1.0080           0
     80018 WT26     1162     MECN     H12      HGA3     0.090000        1.0080           0
     80019 WT26     1162     MECN     H13      HGA3     0.090000        1.0080           0
     80020 WT26     1162     MECN     C2       CG1N1    0.360000       12.0110           0
     80021 WT26     1162     MECN     N3       NG1T1   -0.460000       14.0070           0
     80022 WT26     1167     MECN     C1       CG331   -0.170000       12.0110           0
     80023 WT26     1167     MECN     H11      HGA3     0.090000        1.0080           0
     80024 WT26     1167     MECN     H12      HGA3     0.090000        1.0080           0
     80025 WT26     1167     MECN     H13      HGA3     0.090000        1.0080           0
     80026 WT26     1167     MECN     C2       CG1N1    0.360000       12.0110           0
     80027 WT26     1167     MECN     N3       NG1T1   -0.460000       14.0070           0
     80028 WT26     1168     MECN     C1       CG331   -0.170000       12.0110           0
     80029 WT26     1168     MECN     H11      HGA3     0.090000        1.0080           0
     80030 WT26     1168     MECN     H12      HGA3     0.090000        1.0080           0
     80031 WT26     1168     MECN     H13      HGA3     0.090000        1.0080           0
     80032 WT26     1168     MECN     C2       CG1N1    0.360000       12.0110           0
     80033 WT26     1168     MECN     N3       NG1T1   -0.460000       14.0070           0
     80034 WT26     1170     MECN     C1       CG331   -0.170000       12.0110           0
     80035 WT26     1170     MECN     H11      HGA3     0.090000        1.0080           0
     80036 WT26     1170     MECN     H12      HGA3     0.090000        1.0080           0
     80037 WT26     1170     MECN     H13      HGA3     0.090000        1.0080           0
     80038 WT26     1170     MECN     C2       CG1N1    0.360000       12.0110           0
     80039 WT26     1170     MECN     N3       NG1T1   -0.460000       14.0070           0
     80040 WT26     1171     MECN     C1       CG331   -0.170000       12.0110           0
     80041 WT26     1171     MECN     H11      HGA3     0.090000        1.0080           0
     80042 WT26     1171     MECN     H12      HGA3     0.090000        1.0080           0
     80043 WT26     1171     MECN     H13      HGA3     0.090000        1.0080           0
     80044 WT26     1171     MECN     C2       CG1N1    0.360000       12.0110           0
     80045 WT26     1171     MECN     N3       NG1T1   -0.460000       14.0070           0
     80046 WT26     1175     MECN     C1       CG331   -0.170000       12.0110           0
     80047 WT26     1175     MECN     H11      HGA3     0.090000        1.0080           0
     80048 WT26     1175     MECN     H12      HGA3     0.090000        1.0080           0
     80049 WT26     1175     MECN     H13      HGA3     0.090000        1.0080           0
     80050 WT26     1175     MECN     C2       CG1N1    0.360000       12.0110           0
     80051 WT26     1175     MECN     N3       NG1T1   -0.460000       14.0070           0
     80052 WT26     1176     MECN     C1       CG331   -0.170000       12.0110           0
     80053 WT26     1176     MECN     H11      HGA3     0.090000        1.0080           0
     80054 WT26     1176     MECN     H12      HGA3     0.090000        1.0080           0
     80055 WT26     1176     MECN     H13      HGA3     0.090000        1.0080           0
     80056 WT26     1176     MECN     C2       CG1N1    0.360000       12.0110           0
     80057 WT26     1176     MECN     N3       NG1T1   -0.460000       14.0070           0
     80058 WT26     1177     MECN     C1       CG331   -0.170000       12.0110           0
     80059 WT26     1177     MECN     H11      HGA3     0.090000        1.0080           0
     80060 WT26     1177     MECN     H12      HGA3     0.090000        1.0080           0
     80061 WT26     1177     MECN     H13      HGA3     0.090000        1.0080           0
     80062 WT26     1177     MECN     C2       CG1N1    0.360000       12.0110           0
     80063 WT26     1177     MECN     N3       NG1T1   -0.460000       14.0070           0
     80064 WT26     1179     MECN     C1       CG331   -0.170000       12.0110           0
     80065 WT26     1179     MECN     H11      HGA3     0.090000        1.0080           0
     80066 WT26     1179     MECN     H12      HGA3     0.090000        1.0080           0
     80067 WT26     1179     MECN     H13      HGA3     0.090000        1.0080           0
     80068 WT26     1179     MECN     C2       CG1N1    0.360000       12.0110           0
     80069 WT26     1179     MECN     N3       NG1T1   -0.460000       14.0070           0
     80070 WT26     1180     MECN     C1       CG331   -0.170000       12.0110           0
     80071 WT26     1180     MECN     H11      HGA3     0.090000        1.0080           0
     80072 WT26     1180     MECN     H12      HGA3     0.090000        1.0080           0
     80073 WT26     1180     MECN     H13      HGA3     0.090000        1.0080           0
     80074 WT26     1180     MECN     C2       CG1N1    0.360000       12.0110           0
     80075 WT26     1180     MECN     N3       NG1T1   -0.460000       14.0070           0
     80076 WT26     1181     MECN     C1       CG331   -0.170000       12.0110           0
     80077 WT26     1181     MECN     H11      HGA3     0.090000        1.0080           0
     80078 WT26     1181     MECN     H12      HGA3     0.090000        1.0080           0
     80079 WT26     1181     MECN     H13      HGA3     0.090000        1.0080           0
     80080 WT26     1181     MECN     C2       CG1N1    0.360000       12.0110           0
     80081 WT26     1181     MECN     N3       NG1T1   -0.460000       14.0070           0
     80082 WT26     1184     MECN     C1       CG331   -0.170000       12.0110           0
     80083 WT26     1184     MECN     H11      HGA3     0.090000        1.0080           0
     80084 WT26     1184     MECN     H12      HGA3     0.090000        1.0080           0
     80085 WT26     1184     MECN     H13      HGA3     0.090000        1.0080           0
     80086 WT26     1184     MECN     C2       CG1N1    0.360000       12.0110           0
     80087 WT26     1184     MECN     N3       NG1T1   -0.460000       14.0070           0
     80088 WT26     1185     MECN     C1       CG331   -0.170000       12.0110           0
     80089 WT26     1185     MECN     H11      HGA3     0.090000        1.0080           0
     80090 WT26     1185     MECN     H12      HGA3     0.090000        1.0080           0
     80091 WT26     1185     MECN     H13      HGA3     0.090000        1.0080           0
     80092 WT26     1185     MECN     C2       CG1N1    0.360000       12.0110           0
     80093 WT26     1185     MECN     N3       NG1T1   -0.460000       14.0070           0
     80094 WT26     1188     MECN     C1       CG331   -0.170000       12.0110           0
     80095 WT26     1188     MECN     H11      HGA3     0.090000        1.0080           0
     80096 WT26     1188     MECN     H12      HGA3     0.090000        1.0080           0
     80097 WT26     1188     MECN     H13      HGA3     0.090000        1.0080           0
     80098 WT26     1188     MECN     C2       CG1N1    0.360000       12.0110           0
     80099 WT26     1188     MECN     N3       NG1T1   -0.460000       14.0070           0
     80100 WT26     1200     MECN     C1       CG331   -0.170000       12.0110           0
     80101 WT26     1200     MECN     H11      HGA3     0.090000        1.0080           0
     80102 WT26     1200     MECN     H12      HGA3     0.090000        1.0080           0
     80103 WT26     1200     MECN     H13      HGA3     0.090000        1.0080           0
     80104 WT26     1200     MECN     C2       CG1N1    0.360000       12.0110           0
     80105 WT26     1200     MECN     N3       NG1T1   -0.460000       14.0070           0
     80106 WT26     1202     MECN     C1       CG331   -0.170000       12.0110           0
     80107 WT26     1202     MECN     H11      HGA3     0.090000        1.0080           0
     80108 WT26     1202     MECN     H12      HGA3     0.090000        1.0080           0
     80109 WT26     1202     MECN     H13      HGA3     0.090000        1.0080           0
     80110 WT26     1202     MECN     C2       CG1N1    0.360000       12.0110           0
     80111 WT26     1202     MECN     N3       NG1T1   -0.460000       14.0070           0
     80112 WT26     1203     MECN     C1       CG331   -0.170000       12.0110           0
     80113 WT26     1203     MECN     H11      HGA3     0.090000        1.0080           0
     80114 WT26     1203     MECN     H12      HGA3     0.090000        1.0080           0
     80115 WT26     1203     MECN     H13      HGA3     0.090000        1.0080           0
     80116 WT26     1203     MECN     C2       CG1N1    0.360000       12.0110           0
     80117 WT26     1203     MECN     N3       NG1T1   -0.460000       14.0070           0
     80118 WT26     1204     MECN     C1       CG331   -0.170000       12.0110           0
     80119 WT26     1204     MECN     H11      HGA3     0.090000        1.0080           0
     80120 WT26     1204     MECN     H12      HGA3     0.090000        1.0080           0
     80121 WT26     1204     MECN     H13      HGA3     0.090000        1.0080           0
     80122 WT26     1204     MECN     C2       CG1N1    0.360000       12.0110           0
     80123 WT26     1204     MECN     N3       NG1T1   -0.460000       14.0070           0
     80124 WT26     1206     MECN     C1       CG331   -0.170000       12.0110           0
     80125 WT26     1206     MECN     H11      HGA3     0.090000        1.0080           0
     80126 WT26     1206     MECN     H12      HGA3     0.090000        1.0080           0
     80127 WT26     1206     MECN     H13      HGA3     0.090000        1.0080           0
     80128 WT26     1206     MECN     C2       CG1N1    0.360000       12.0110           0
     80129 WT26     1206     MECN     N3       NG1T1   -0.460000       14.0070           0
     80130 WT26     1207     MECN     C1       CG331   -0.170000       12.0110           0
     80131 WT26     1207     MECN     H11      HGA3     0.090000        1.0080           0
     80132 WT26     1207     MECN     H12      HGA3     0.090000        1.0080           0
     80133 WT26     1207     MECN     H13      HGA3     0.090000        1.0080           0
     80134 WT26     1207     MECN     C2       CG1N1    0.360000       12.0110           0
     80135 WT26     1207     MECN     N3       NG1T1   -0.460000       14.0070           0
     80136 WT26     1209     MECN     C1       CG331   -0.170000       12.0110           0
     80137 WT26     1209     MECN     H11      HGA3     0.090000        1.0080           0
     80138 WT26     1209     MECN     H12      HGA3     0.090000        1.0080           0
     80139 WT26     1209     MECN     H13      HGA3     0.090000        1.0080           0
     80140 WT26     1209     MECN     C2       CG1N1    0.360000       12.0110           0
     80141 WT26     1209     MECN     N3       NG1T1   -0.460000       14.0070           0
     80142 WT26     1213     MECN     C1       CG331   -0.170000       12.0110           0
     80143 WT26     1213     MECN     H11      HGA3     0.090000        1.0080           0
     80144 WT26     1213     MECN     H12      HGA3     0.090000        1.0080           0
     80145 WT26     1213     MECN     H13      HGA3     0.090000        1.0080           0
     80146 WT26     1213     MECN     C2       CG1N1    0.360000       12.0110           0
     80147 WT26     1213     MECN     N3       NG1T1   -0.460000       14.0070           0
     80148 WT26     1217     MECN     C1       CG331   -0.170000       12.0110           0
     80149 WT26     1217     MECN     H11      HGA3     0.090000        1.0080           0
     80150 WT26     1217     MECN     H12      HGA3     0.090000        1.0080           0
     80151 WT26     1217     MECN     H13      HGA3     0.090000        1.0080           0
     80152 WT26     1217     MECN     C2       CG1N1    0.360000       12.0110           0
     80153 WT26     1217     MECN     N3       NG1T1   -0.460000       14.0070           0
     80154 WT26     1220     MECN     C1       CG331   -0.170000       12.0110           0
     80155 WT26     1220     MECN     H11      HGA3     0.090000        1.0080           0
     80156 WT26     1220     MECN     H12      HGA3     0.090000        1.0080           0
     80157 WT26     1220     MECN     H13      HGA3     0.090000        1.0080           0
     80158 WT26     1220     MECN     C2       CG1N1    0.360000       12.0110           0
     80159 WT26     1220     MECN     N3       NG1T1   -0.460000       14.0070           0
     80160 WT26     1222     MECN     C1       CG331   -0.170000       12.0110           0
     80161 WT26     1222     MECN     H11      HGA3     0.090000        1.0080           0
     80162 WT26     1222     MECN     H12      HGA3     0.090000        1.0080           0
     80163 WT26     1222     MECN     H13      HGA3     0.090000        1.0080           0
     80164 WT26     1222     MECN     C2       CG1N1    0.360000       12.0110           0
     80165 WT26     1222     MECN     N3       NG1T1   -0.460000       14.0070           0
     80166 WT26     1224     MECN     C1       CG331   -0.170000       12.0110           0
     80167 WT26     1224     MECN     H11      HGA3     0.090000        1.0080           0
     80168 WT26     1224     MECN     H12      HGA3     0.090000        1.0080           0
     80169 WT26     1224     MECN     H13      HGA3     0.090000        1.0080           0
     80170 WT26     1224     MECN     C2       CG1N1    0.360000       12.0110           0
     80171 WT26     1224     MECN     N3       NG1T1   -0.460000       14.0070           0
     80172 WT26     1225     MECN     C1       CG331   -0.170000       12.0110           0
     80173 WT26     1225     MECN     H11      HGA3     0.090000        1.0080           0
     80174 WT26     1225     MECN     H12      HGA3     0.090000        1.0080           0
     80175 WT26     1225     MECN     H13      HGA3     0.090000        1.0080           0
     80176 WT26     1225     MECN     C2       CG1N1    0.360000       12.0110           0
     80177 WT26     1225     MECN     N3       NG1T1   -0.460000       14.0070           0
     80178 WT26     1226     MECN     C1       CG331   -0.170000       12.0110           0
     80179 WT26     1226     MECN     H11      HGA3     0.090000        1.0080           0
     80180 WT26     1226     MECN     H12      HGA3     0.090000        1.0080           0
     80181 WT26     1226     MECN     H13      HGA3     0.090000        1.0080           0
     80182 WT26     1226     MECN     C2       CG1N1    0.360000       12.0110           0
     80183 WT26     1226     MECN     N3       NG1T1   -0.460000       14.0070           0
     80184 WT26     1227     MECN     C1       CG331   -0.170000       12.0110           0
     80185 WT26     1227     MECN     H11      HGA3     0.090000        1.0080           0
     80186 WT26     1227     MECN     H12      HGA3     0.090000        1.0080           0
     80187 WT26     1227     MECN     H13      HGA3     0.090000        1.0080           0
     80188 WT26     1227     MECN     C2       CG1N1    0.360000       12.0110           0
     80189 WT26     1227     MECN     N3       NG1T1   -0.460000       14.0070           0
     80190 WT26     1229     MECN     C1       CG331   -0.170000       12.0110           0
     80191 WT26     1229     MECN     H11      HGA3     0.090000        1.0080           0
     80192 WT26     1229     MECN     H12      HGA3     0.090000        1.0080           0
     80193 WT26     1229     MECN     H13      HGA3     0.090000        1.0080           0
     80194 WT26     1229     MECN     C2       CG1N1    0.360000       12.0110           0
     80195 WT26     1229     MECN     N3       NG1T1   -0.460000       14.0070           0
     80196 WT26     1233     MECN     C1       CG331   -0.170000       12.0110           0
     80197 WT26     1233     MECN     H11      HGA3     0.090000        1.0080           0
     80198 WT26     1233     MECN     H12      HGA3     0.090000        1.0080           0
     80199 WT26     1233     MECN     H13      HGA3     0.090000        1.0080           0
     80200 WT26     1233     MECN     C2       CG1N1    0.360000       12.0110           0
     80201 WT26     1233     MECN     N3       NG1T1   -0.460000       14.0070           0
     80202 WT26     1235     MECN     C1       CG331   -0.170000       12.0110           0
     80203 WT26     1235     MECN     H11      HGA3     0.090000        1.0080           0
     80204 WT26     1235     MECN     H12      HGA3     0.090000        1.0080           0
     80205 WT26     1235     MECN     H13      HGA3     0.090000        1.0080           0
     80206 WT26     1235     MECN     C2       CG1N1    0.360000       12.0110           0
     80207 WT26     1235     MECN     N3       NG1T1   -0.460000       14.0070           0
     80208 WT26     1237     MECN     C1       CG331   -0.170000       12.0110           0
     80209 WT26     1237     MECN     H11      HGA3     0.090000        1.0080           0
     80210 WT26     1237     MECN     H12      HGA3     0.090000        1.0080           0
     80211 WT26     1237     MECN     H13      HGA3     0.090000        1.0080           0
     80212 WT26     1237     MECN     C2       CG1N1    0.360000       12.0110           0
     80213 WT26     1237     MECN     N3       NG1T1   -0.460000       14.0070           0
     80214 WT26     1239     MECN     C1       CG331   -0.170000       12.0110           0
     80215 WT26     1239     MECN     H11      HGA3     0.090000        1.0080           0
     80216 WT26     1239     MECN     H12      HGA3     0.090000        1.0080           0
     80217 WT26     1239     MECN     H13      HGA3     0.090000        1.0080           0
     80218 WT26     1239     MECN     C2       CG1N1    0.360000       12.0110           0
     80219 WT26     1239     MECN     N3       NG1T1   -0.460000       14.0070           0
     80220 WT26     1240     MECN     C1       CG331   -0.170000       12.0110           0
     80221 WT26     1240     MECN     H11      HGA3     0.090000        1.0080           0
     80222 WT26     1240     MECN     H12      HGA3     0.090000        1.0080           0
     80223 WT26     1240     MECN     H13      HGA3     0.090000        1.0080           0
     80224 WT26     1240     MECN     C2       CG1N1    0.360000       12.0110           0
     80225 WT26     1240     MECN     N3       NG1T1   -0.460000       14.0070           0
     80226 WT26     1244     MECN     C1       CG331   -0.170000       12.0110           0
     80227 WT26     1244     MECN     H11      HGA3     0.090000        1.0080           0
     80228 WT26     1244     MECN     H12      HGA3     0.090000        1.0080           0
     80229 WT26     1244     MECN     H13      HGA3     0.090000        1.0080           0
     80230 WT26     1244     MECN     C2       CG1N1    0.360000       12.0110           0
     80231 WT26     1244     MECN     N3       NG1T1   -0.460000       14.0070           0
     80232 WT26     1247     MECN     C1       CG331   -0.170000       12.0110           0
     80233 WT26     1247     MECN     H11      HGA3     0.090000        1.0080           0
     80234 WT26     1247     MECN     H12      HGA3     0.090000        1.0080           0
     80235 WT26     1247     MECN     H13      HGA3     0.090000        1.0080           0
     80236 WT26     1247     MECN     C2       CG1N1    0.360000       12.0110           0
     80237 WT26     1247     MECN     N3       NG1T1   -0.460000       14.0070           0
     80238 WT26     1250     MECN     C1       CG331   -0.170000       12.0110           0
     80239 WT26     1250     MECN     H11      HGA3     0.090000        1.0080           0
     80240 WT26     1250     MECN     H12      HGA3     0.090000        1.0080           0
     80241 WT26     1250     MECN     H13      HGA3     0.090000        1.0080           0
     80242 WT26     1250     MECN     C2       CG1N1    0.360000       12.0110           0
     80243 WT26     1250     MECN     N3       NG1T1   -0.460000       14.0070           0
     80244 WT26     1253     MECN     C1       CG331   -0.170000       12.0110           0
     80245 WT26     1253     MECN     H11      HGA3     0.090000        1.0080           0
     80246 WT26     1253     MECN     H12      HGA3     0.090000        1.0080           0
     80247 WT26     1253     MECN     H13      HGA3     0.090000        1.0080           0
     80248 WT26     1253     MECN     C2       CG1N1    0.360000       12.0110           0
     80249 WT26     1253     MECN     N3       NG1T1   -0.460000       14.0070           0
     80250 WT26     1254     MECN     C1       CG331   -0.170000       12.0110           0
     80251 WT26     1254     MECN     H11      HGA3     0.090000        1.0080           0
     80252 WT26     1254     MECN     H12      HGA3     0.090000        1.0080           0
     80253 WT26     1254     MECN     H13      HGA3     0.090000        1.0080           0
     80254 WT26     1254     MECN     C2       CG1N1    0.360000       12.0110           0
     80255 WT26     1254     MECN     N3       NG1T1   -0.460000       14.0070           0
     80256 WT26     1255     MECN     C1       CG331   -0.170000       12.0110           0
     80257 WT26     1255     MECN     H11      HGA3     0.090000        1.0080           0
     80258 WT26     1255     MECN     H12      HGA3     0.090000        1.0080           0
     80259 WT26     1255     MECN     H13      HGA3     0.090000        1.0080           0
     80260 WT26     1255     MECN     C2       CG1N1    0.360000       12.0110           0
     80261 WT26     1255     MECN     N3       NG1T1   -0.460000       14.0070           0
     80262 WT26     1258     MECN     C1       CG331   -0.170000       12.0110           0
     80263 WT26     1258     MECN     H11      HGA3     0.090000        1.0080           0
     80264 WT26     1258     MECN     H12      HGA3     0.090000        1.0080           0
     80265 WT26     1258     MECN     H13      HGA3     0.090000        1.0080           0
     80266 WT26     1258     MECN     C2       CG1N1    0.360000       12.0110           0
     80267 WT26     1258     MECN     N3       NG1T1   -0.460000       14.0070           0
     80268 WT26     1260     MECN     C1       CG331   -0.170000       12.0110           0
     80269 WT26     1260     MECN     H11      HGA3     0.090000        1.0080           0
     80270 WT26     1260     MECN     H12      HGA3     0.090000        1.0080           0
     80271 WT26     1260     MECN     H13      HGA3     0.090000        1.0080           0
     80272 WT26     1260     MECN     C2       CG1N1    0.360000       12.0110           0
     80273 WT26     1260     MECN     N3       NG1T1   -0.460000       14.0070           0
     80274 WT26     1261     MECN     C1       CG331   -0.170000       12.0110           0
     80275 WT26     1261     MECN     H11      HGA3     0.090000        1.0080           0
     80276 WT26     1261     MECN     H12      HGA3     0.090000        1.0080           0
     80277 WT26     1261     MECN     H13      HGA3     0.090000        1.0080           0
     80278 WT26     1261     MECN     C2       CG1N1    0.360000       12.0110           0
     80279 WT26     1261     MECN     N3       NG1T1   -0.460000       14.0070           0
     80280 WT26     1262     MECN     C1       CG331   -0.170000       12.0110           0
     80281 WT26     1262     MECN     H11      HGA3     0.090000        1.0080           0
     80282 WT26     1262     MECN     H12      HGA3     0.090000        1.0080           0
     80283 WT26     1262     MECN     H13      HGA3     0.090000        1.0080           0
     80284 WT26     1262     MECN     C2       CG1N1    0.360000       12.0110           0
     80285 WT26     1262     MECN     N3       NG1T1   -0.460000       14.0070           0
     80286 WT26     1263     MECN     C1       CG331   -0.170000       12.0110           0
     80287 WT26     1263     MECN     H11      HGA3     0.090000        1.0080           0
     80288 WT26     1263     MECN     H12      HGA3     0.090000        1.0080           0
     80289 WT26     1263     MECN     H13      HGA3     0.090000        1.0080           0
     80290 WT26     1263     MECN     C2       CG1N1    0.360000       12.0110           0
     80291 WT26     1263     MECN     N3       NG1T1   -0.460000       14.0070           0
     80292 WT26     1268     MECN     C1       CG331   -0.170000       12.0110           0
     80293 WT26     1268     MECN     H11      HGA3     0.090000        1.0080           0
     80294 WT26     1268     MECN     H12      HGA3     0.090000        1.0080           0
     80295 WT26     1268     MECN     H13      HGA3     0.090000        1.0080           0
     80296 WT26     1268     MECN     C2       CG1N1    0.360000       12.0110           0
     80297 WT26     1268     MECN     N3       NG1T1   -0.460000       14.0070           0
     80298 WT26     1270     MECN     C1       CG331   -0.170000       12.0110           0
     80299 WT26     1270     MECN     H11      HGA3     0.090000        1.0080           0
     80300 WT26     1270     MECN     H12      HGA3     0.090000        1.0080           0
     80301 WT26     1270     MECN     H13      HGA3     0.090000        1.0080           0
     80302 WT26     1270     MECN     C2       CG1N1    0.360000       12.0110           0
     80303 WT26     1270     MECN     N3       NG1T1   -0.460000       14.0070           0
     80304 WT26     1271     MECN     C1       CG331   -0.170000       12.0110           0
     80305 WT26     1271     MECN     H11      HGA3     0.090000        1.0080           0
     80306 WT26     1271     MECN     H12      HGA3     0.090000        1.0080           0
     80307 WT26     1271     MECN     H13      HGA3     0.090000        1.0080           0
     80308 WT26     1271     MECN     C2       CG1N1    0.360000       12.0110           0
     80309 WT26     1271     MECN     N3       NG1T1   -0.460000       14.0070           0
     80310 WT26     1272     MECN     C1       CG331   -0.170000       12.0110           0
     80311 WT26     1272     MECN     H11      HGA3     0.090000        1.0080           0
     80312 WT26     1272     MECN     H12      HGA3     0.090000        1.0080           0
     80313 WT26     1272     MECN     H13      HGA3     0.090000        1.0080           0
     80314 WT26     1272     MECN     C2       CG1N1    0.360000       12.0110           0
     80315 WT26     1272     MECN     N3       NG1T1   -0.460000       14.0070           0
     80316 WT26     1273     MECN     C1       CG331   -0.170000       12.0110           0
     80317 WT26     1273     MECN     H11      HGA3     0.090000        1.0080           0
     80318 WT26     1273     MECN     H12      HGA3     0.090000        1.0080           0
     80319 WT26     1273     MECN     H13      HGA3     0.090000        1.0080           0
     80320 WT26     1273     MECN     C2       CG1N1    0.360000       12.0110           0
     80321 WT26     1273     MECN     N3       NG1T1   -0.460000       14.0070           0
     80322 WT26     1274     MECN     C1       CG331   -0.170000       12.0110           0
     80323 WT26     1274     MECN     H11      HGA3     0.090000        1.0080           0
     80324 WT26     1274     MECN     H12      HGA3     0.090000        1.0080           0
     80325 WT26     1274     MECN     H13      HGA3     0.090000        1.0080           0
     80326 WT26     1274     MECN     C2       CG1N1    0.360000       12.0110           0
     80327 WT26     1274     MECN     N3       NG1T1   -0.460000       14.0070           0
     80328 WT26     1277     MECN     C1       CG331   -0.170000       12.0110           0
     80329 WT26     1277     MECN     H11      HGA3     0.090000        1.0080           0
     80330 WT26     1277     MECN     H12      HGA3     0.090000        1.0080           0
     80331 WT26     1277     MECN     H13      HGA3     0.090000        1.0080           0
     80332 WT26     1277     MECN     C2       CG1N1    0.360000       12.0110           0
     80333 WT26     1277     MECN     N3       NG1T1   -0.460000       14.0070           0
     80334 WT26     1280     MECN     C1       CG331   -0.170000       12.0110           0
     80335 WT26     1280     MECN     H11      HGA3     0.090000        1.0080           0
     80336 WT26     1280     MECN     H12      HGA3     0.090000        1.0080           0
     80337 WT26     1280     MECN     H13      HGA3     0.090000        1.0080           0
     80338 WT26     1280     MECN     C2       CG1N1    0.360000       12.0110           0
     80339 WT26     1280     MECN     N3       NG1T1   -0.460000       14.0070           0
     80340 WT26     1283     MECN     C1       CG331   -0.170000       12.0110           0
     80341 WT26     1283     MECN     H11      HGA3     0.090000        1.0080           0
     80342 WT26     1283     MECN     H12      HGA3     0.090000        1.0080           0
     80343 WT26     1283     MECN     H13      HGA3     0.090000        1.0080           0
     80344 WT26     1283     MECN     C2       CG1N1    0.360000       12.0110           0
     80345 WT26     1283     MECN     N3       NG1T1   -0.460000       14.0070           0
     80346 WT26     1285     MECN     C1       CG331   -0.170000       12.0110           0
     80347 WT26     1285     MECN     H11      HGA3     0.090000        1.0080           0
     80348 WT26     1285     MECN     H12      HGA3     0.090000        1.0080           0
     80349 WT26     1285     MECN     H13      HGA3     0.090000        1.0080           0
     80350 WT26     1285     MECN     C2       CG1N1    0.360000       12.0110           0
     80351 WT26     1285     MECN     N3       NG1T1   -0.460000       14.0070           0
     80352 WT26     1286     MECN     C1       CG331   -0.170000       12.0110           0
     80353 WT26     1286     MECN     H11      HGA3     0.090000        1.0080           0
     80354 WT26     1286     MECN     H12      HGA3     0.090000        1.0080           0
     80355 WT26     1286     MECN     H13      HGA3     0.090000        1.0080           0
     80356 WT26     1286     MECN     C2       CG1N1    0.360000       12.0110           0
     80357 WT26     1286     MECN     N3       NG1T1   -0.460000       14.0070           0
     80358 WT26     1292     MECN     C1       CG331   -0.170000       12.0110           0
     80359 WT26     1292     MECN     H11      HGA3     0.090000        1.0080           0
     80360 WT26     1292     MECN     H12      HGA3     0.090000        1.0080           0
     80361 WT26     1292     MECN     H13      HGA3     0.090000        1.0080           0
     80362 WT26     1292     MECN     C2       CG1N1    0.360000       12.0110           0
     80363 WT26     1292     MECN     N3       NG1T1   -0.460000       14.0070           0
     80364 WT26     1293     MECN     C1       CG331   -0.170000       12.0110           0
     80365 WT26     1293     MECN     H11      HGA3     0.090000        1.0080           0
     80366 WT26     1293     MECN     H12      HGA3     0.090000        1.0080           0
     80367 WT26     1293     MECN     H13      HGA3     0.090000        1.0080           0
     80368 WT26     1293     MECN     C2       CG1N1    0.360000       12.0110           0
     80369 WT26     1293     MECN     N3       NG1T1   -0.460000       14.0070           0
     80370 WT26     1295     MECN     C1       CG331   -0.170000       12.0110           0
     80371 WT26     1295     MECN     H11      HGA3     0.090000        1.0080           0
     80372 WT26     1295     MECN     H12      HGA3     0.090000        1.0080           0
     80373 WT26     1295     MECN     H13      HGA3     0.090000        1.0080           0
     80374 WT26     1295     MECN     C2       CG1N1    0.360000       12.0110           0
     80375 WT26     1295     MECN     N3       NG1T1   -0.460000       14.0070           0
     80376 WT26     1297     MECN     C1       CG331   -0.170000       12.0110           0
     80377 WT26     1297     MECN     H11      HGA3     0.090000        1.0080           0
     80378 WT26     1297     MECN     H12      HGA3     0.090000        1.0080           0
     80379 WT26     1297     MECN     H13      HGA3     0.090000        1.0080           0
     80380 WT26     1297     MECN     C2       CG1N1    0.360000       12.0110           0
     80381 WT26     1297     MECN     N3       NG1T1   -0.460000       14.0070           0
     80382 WT26     1298     MECN     C1       CG331   -0.170000       12.0110           0
     80383 WT26     1298     MECN     H11      HGA3     0.090000        1.0080           0
     80384 WT26     1298     MECN     H12      HGA3     0.090000        1.0080           0
     80385 WT26     1298     MECN     H13      HGA3     0.090000        1.0080           0
     80386 WT26     1298     MECN     C2       CG1N1    0.360000       12.0110           0
     80387 WT26     1298     MECN     N3       NG1T1   -0.460000       14.0070           0
     80388 WT26     1301     MECN     C1       CG331   -0.170000       12.0110           0
     80389 WT26     1301     MECN     H11      HGA3     0.090000        1.0080           0
     80390 WT26     1301     MECN     H12      HGA3     0.090000        1.0080           0
     80391 WT26     1301     MECN     H13      HGA3     0.090000        1.0080           0
     80392 WT26     1301     MECN     C2       CG1N1    0.360000       12.0110           0
     80393 WT26     1301     MECN     N3       NG1T1   -0.460000       14.0070           0
     80394 WT26     1305     MECN     C1       CG331   -0.170000       12.0110           0
     80395 WT26     1305     MECN     H11      HGA3     0.090000        1.0080           0
     80396 WT26     1305     MECN     H12      HGA3     0.090000        1.0080           0
     80397 WT26     1305     MECN     H13      HGA3     0.090000        1.0080           0
     80398 WT26     1305     MECN     C2       CG1N1    0.360000       12.0110           0
     80399 WT26     1305     MECN     N3       NG1T1   -0.460000       14.0070           0
     80400 WT26     1309     MECN     C1       CG331   -0.170000       12.0110           0
     80401 WT26     1309     MECN     H11      HGA3     0.090000        1.0080           0
     80402 WT26     1309     MECN     H12      HGA3     0.090000        1.0080           0
     80403 WT26     1309     MECN     H13      HGA3     0.090000        1.0080           0
     80404 WT26     1309     MECN     C2       CG1N1    0.360000       12.0110           0
     80405 WT26     1309     MECN     N3       NG1T1   -0.460000       14.0070           0
     80406 WT26     1310     MECN     C1       CG331   -0.170000       12.0110           0
     80407 WT26     1310     MECN     H11      HGA3     0.090000        1.0080           0
     80408 WT26     1310     MECN     H12      HGA3     0.090000        1.0080           0
     80409 WT26     1310     MECN     H13      HGA3     0.090000        1.0080           0
     80410 WT26     1310     MECN     C2       CG1N1    0.360000       12.0110           0
     80411 WT26     1310     MECN     N3       NG1T1   -0.460000       14.0070           0
     80412 WT26     1311     MECN     C1       CG331   -0.170000       12.0110           0
     80413 WT26     1311     MECN     H11      HGA3     0.090000        1.0080           0
     80414 WT26     1311     MECN     H12      HGA3     0.090000        1.0080           0
     80415 WT26     1311     MECN     H13      HGA3     0.090000        1.0080           0
     80416 WT26     1311     MECN     C2       CG1N1    0.360000       12.0110           0
     80417 WT26     1311     MECN     N3       NG1T1   -0.460000       14.0070           0
     80418 WT26     1312     MECN     C1       CG331   -0.170000       12.0110           0
     80419 WT26     1312     MECN     H11      HGA3     0.090000        1.0080           0
     80420 WT26     1312     MECN     H12      HGA3     0.090000        1.0080           0
     80421 WT26     1312     MECN     H13      HGA3     0.090000        1.0080           0
     80422 WT26     1312     MECN     C2       CG1N1    0.360000       12.0110           0
     80423 WT26     1312     MECN     N3       NG1T1   -0.460000       14.0070           0
     80424 WT26     1314     MECN     C1       CG331   -0.170000       12.0110           0
     80425 WT26     1314     MECN     H11      HGA3     0.090000        1.0080           0
     80426 WT26     1314     MECN     H12      HGA3     0.090000        1.0080           0
     80427 WT26     1314     MECN     H13      HGA3     0.090000        1.0080           0
     80428 WT26     1314     MECN     C2       CG1N1    0.360000       12.0110           0
     80429 WT26     1314     MECN     N3       NG1T1   -0.460000       14.0070           0
     80430 WT26     1315     MECN     C1       CG331   -0.170000       12.0110           0
     80431 WT26     1315     MECN     H11      HGA3     0.090000        1.0080           0
     80432 WT26     1315     MECN     H12      HGA3     0.090000        1.0080           0
     80433 WT26     1315     MECN     H13      HGA3     0.090000        1.0080           0
     80434 WT26     1315     MECN     C2       CG1N1    0.360000       12.0110           0
     80435 WT26     1315     MECN     N3       NG1T1   -0.460000       14.0070           0
     80436 WT26     1318     MECN     C1       CG331   -0.170000       12.0110           0
     80437 WT26     1318     MECN     H11      HGA3     0.090000        1.0080           0
     80438 WT26     1318     MECN     H12      HGA3     0.090000        1.0080           0
     80439 WT26     1318     MECN     H13      HGA3     0.090000        1.0080           0
     80440 WT26     1318     MECN     C2       CG1N1    0.360000       12.0110           0
     80441 WT26     1318     MECN     N3       NG1T1   -0.460000       14.0070           0
     80442 WT26     1319     MECN     C1       CG331   -0.170000       12.0110           0
     80443 WT26     1319     MECN     H11      HGA3     0.090000        1.0080           0
     80444 WT26     1319     MECN     H12      HGA3     0.090000        1.0080           0
     80445 WT26     1319     MECN     H13      HGA3     0.090000        1.0080           0
     80446 WT26     1319     MECN     C2       CG1N1    0.360000       12.0110           0
     80447 WT26     1319     MECN     N3       NG1T1   -0.460000       14.0070           0
     80448 WT26     1320     MECN     C1       CG331   -0.170000       12.0110           0
     80449 WT26     1320     MECN     H11      HGA3     0.090000        1.0080           0
     80450 WT26     1320     MECN     H12      HGA3     0.090000        1.0080           0
     80451 WT26     1320     MECN     H13      HGA3     0.090000        1.0080           0
     80452 WT26     1320     MECN     C2       CG1N1    0.360000       12.0110           0
     80453 WT26     1320     MECN     N3       NG1T1   -0.460000       14.0070           0
     80454 WT26     1324     MECN     C1       CG331   -0.170000       12.0110           0
     80455 WT26     1324     MECN     H11      HGA3     0.090000        1.0080           0
     80456 WT26     1324     MECN     H12      HGA3     0.090000        1.0080           0
     80457 WT26     1324     MECN     H13      HGA3     0.090000        1.0080           0
     80458 WT26     1324     MECN     C2       CG1N1    0.360000       12.0110           0
     80459 WT26     1324     MECN     N3       NG1T1   -0.460000       14.0070           0
     80460 WT26     1325     MECN     C1       CG331   -0.170000       12.0110           0
     80461 WT26     1325     MECN     H11      HGA3     0.090000        1.0080           0
     80462 WT26     1325     MECN     H12      HGA3     0.090000        1.0080           0
     80463 WT26     1325     MECN     H13      HGA3     0.090000        1.0080           0
     80464 WT26     1325     MECN     C2       CG1N1    0.360000       12.0110           0
     80465 WT26     1325     MECN     N3       NG1T1   -0.460000       14.0070           0
     80466 WT26     1327     MECN     C1       CG331   -0.170000       12.0110           0
     80467 WT26     1327     MECN     H11      HGA3     0.090000        1.0080           0
     80468 WT26     1327     MECN     H12      HGA3     0.090000        1.0080           0
     80469 WT26     1327     MECN     H13      HGA3     0.090000        1.0080           0
     80470 WT26     1327     MECN     C2       CG1N1    0.360000       12.0110           0
     80471 WT26     1327     MECN     N3       NG1T1   -0.460000       14.0070           0
     80472 WT26     1331     MECN     C1       CG331   -0.170000       12.0110           0
     80473 WT26     1331     MECN     H11      HGA3     0.090000        1.0080           0
     80474 WT26     1331     MECN     H12      HGA3     0.090000        1.0080           0
     80475 WT26     1331     MECN     H13      HGA3     0.090000        1.0080           0
     80476 WT26     1331     MECN     C2       CG1N1    0.360000       12.0110           0
     80477 WT26     1331     MECN     N3       NG1T1   -0.460000       14.0070           0
     80478 WT27     2        MECN     C1       CG331   -0.170000       12.0110           0
     80479 WT27     2        MECN     H11      HGA3     0.090000        1.0080           0
     80480 WT27     2        MECN     H12      HGA3     0.090000        1.0080           0
     80481 WT27     2        MECN     H13      HGA3     0.090000        1.0080           0
     80482 WT27     2        MECN     C2       CG1N1    0.360000       12.0110           0
     80483 WT27     2        MECN     N3       NG1T1   -0.460000       14.0070           0
     80484 WT27     6        MECN     C1       CG331   -0.170000       12.0110           0
     80485 WT27     6        MECN     H11      HGA3     0.090000        1.0080           0
     80486 WT27     6        MECN     H12      HGA3     0.090000        1.0080           0
     80487 WT27     6        MECN     H13      HGA3     0.090000        1.0080           0
     80488 WT27     6        MECN     C2       CG1N1    0.360000       12.0110           0
     80489 WT27     6        MECN     N3       NG1T1   -0.460000       14.0070           0
     80490 WT27     8        MECN     C1       CG331   -0.170000       12.0110           0
     80491 WT27     8        MECN     H11      HGA3     0.090000        1.0080           0
     80492 WT27     8        MECN     H12      HGA3     0.090000        1.0080           0
     80493 WT27     8        MECN     H13      HGA3     0.090000        1.0080           0
     80494 WT27     8        MECN     C2       CG1N1    0.360000       12.0110           0
     80495 WT27     8        MECN     N3       NG1T1   -0.460000       14.0070           0
     80496 WT27     11       MECN     C1       CG331   -0.170000       12.0110           0
     80497 WT27     11       MECN     H11      HGA3     0.090000        1.0080           0
     80498 WT27     11       MECN     H12      HGA3     0.090000        1.0080           0
     80499 WT27     11       MECN     H13      HGA3     0.090000        1.0080           0
     80500 WT27     11       MECN     C2       CG1N1    0.360000       12.0110           0
     80501 WT27     11       MECN     N3       NG1T1   -0.460000       14.0070           0
     80502 WT27     13       MECN     C1       CG331   -0.170000       12.0110           0
     80503 WT27     13       MECN     H11      HGA3     0.090000        1.0080           0
     80504 WT27     13       MECN     H12      HGA3     0.090000        1.0080           0
     80505 WT27     13       MECN     H13      HGA3     0.090000        1.0080           0
     80506 WT27     13       MECN     C2       CG1N1    0.360000       12.0110           0
     80507 WT27     13       MECN     N3       NG1T1   -0.460000       14.0070           0
     80508 WT27     15       MECN     C1       CG331   -0.170000       12.0110           0
     80509 WT27     15       MECN     H11      HGA3     0.090000        1.0080           0
     80510 WT27     15       MECN     H12      HGA3     0.090000        1.0080           0
     80511 WT27     15       MECN     H13      HGA3     0.090000        1.0080           0
     80512 WT27     15       MECN     C2       CG1N1    0.360000       12.0110           0
     80513 WT27     15       MECN     N3       NG1T1   -0.460000       14.0070           0
     80514 WT27     17       MECN     C1       CG331   -0.170000       12.0110           0
     80515 WT27     17       MECN     H11      HGA3     0.090000        1.0080           0
     80516 WT27     17       MECN     H12      HGA3     0.090000        1.0080           0
     80517 WT27     17       MECN     H13      HGA3     0.090000        1.0080           0
     80518 WT27     17       MECN     C2       CG1N1    0.360000       12.0110           0
     80519 WT27     17       MECN     N3       NG1T1   -0.460000       14.0070           0
     80520 WT27     18       MECN     C1       CG331   -0.170000       12.0110           0
     80521 WT27     18       MECN     H11      HGA3     0.090000        1.0080           0
     80522 WT27     18       MECN     H12      HGA3     0.090000        1.0080           0
     80523 WT27     18       MECN     H13      HGA3     0.090000        1.0080           0
     80524 WT27     18       MECN     C2       CG1N1    0.360000       12.0110           0
     80525 WT27     18       MECN     N3       NG1T1   -0.460000       14.0070           0
     80526 WT27     19       MECN     C1       CG331   -0.170000       12.0110           0
     80527 WT27     19       MECN     H11      HGA3     0.090000        1.0080           0
     80528 WT27     19       MECN     H12      HGA3     0.090000        1.0080           0
     80529 WT27     19       MECN     H13      HGA3     0.090000        1.0080           0
     80530 WT27     19       MECN     C2       CG1N1    0.360000       12.0110           0
     80531 WT27     19       MECN     N3       NG1T1   -0.460000       14.0070           0
     80532 WT27     20       MECN     C1       CG331   -0.170000       12.0110           0
     80533 WT27     20       MECN     H11      HGA3     0.090000        1.0080           0
     80534 WT27     20       MECN     H12      HGA3     0.090000        1.0080           0
     80535 WT27     20       MECN     H13      HGA3     0.090000        1.0080           0
     80536 WT27     20       MECN     C2       CG1N1    0.360000       12.0110           0
     80537 WT27     20       MECN     N3       NG1T1   -0.460000       14.0070           0
     80538 WT27     24       MECN     C1       CG331   -0.170000       12.0110           0
     80539 WT27     24       MECN     H11      HGA3     0.090000        1.0080           0
     80540 WT27     24       MECN     H12      HGA3     0.090000        1.0080           0
     80541 WT27     24       MECN     H13      HGA3     0.090000        1.0080           0
     80542 WT27     24       MECN     C2       CG1N1    0.360000       12.0110           0
     80543 WT27     24       MECN     N3       NG1T1   -0.460000       14.0070           0
     80544 WT27     25       MECN     C1       CG331   -0.170000       12.0110           0
     80545 WT27     25       MECN     H11      HGA3     0.090000        1.0080           0
     80546 WT27     25       MECN     H12      HGA3     0.090000        1.0080           0
     80547 WT27     25       MECN     H13      HGA3     0.090000        1.0080           0
     80548 WT27     25       MECN     C2       CG1N1    0.360000       12.0110           0
     80549 WT27     25       MECN     N3       NG1T1   -0.460000       14.0070           0
     80550 WT27     27       MECN     C1       CG331   -0.170000       12.0110           0
     80551 WT27     27       MECN     H11      HGA3     0.090000        1.0080           0
     80552 WT27     27       MECN     H12      HGA3     0.090000        1.0080           0
     80553 WT27     27       MECN     H13      HGA3     0.090000        1.0080           0
     80554 WT27     27       MECN     C2       CG1N1    0.360000       12.0110           0
     80555 WT27     27       MECN     N3       NG1T1   -0.460000       14.0070           0
     80556 WT27     28       MECN     C1       CG331   -0.170000       12.0110           0
     80557 WT27     28       MECN     H11      HGA3     0.090000        1.0080           0
     80558 WT27     28       MECN     H12      HGA3     0.090000        1.0080           0
     80559 WT27     28       MECN     H13      HGA3     0.090000        1.0080           0
     80560 WT27     28       MECN     C2       CG1N1    0.360000       12.0110           0
     80561 WT27     28       MECN     N3       NG1T1   -0.460000       14.0070           0
     80562 WT27     30       MECN     C1       CG331   -0.170000       12.0110           0
     80563 WT27     30       MECN     H11      HGA3     0.090000        1.0080           0
     80564 WT27     30       MECN     H12      HGA3     0.090000        1.0080           0
     80565 WT27     30       MECN     H13      HGA3     0.090000        1.0080           0
     80566 WT27     30       MECN     C2       CG1N1    0.360000       12.0110           0
     80567 WT27     30       MECN     N3       NG1T1   -0.460000       14.0070           0
     80568 WT27     32       MECN     C1       CG331   -0.170000       12.0110           0
     80569 WT27     32       MECN     H11      HGA3     0.090000        1.0080           0
     80570 WT27     32       MECN     H12      HGA3     0.090000        1.0080           0
     80571 WT27     32       MECN     H13      HGA3     0.090000        1.0080           0
     80572 WT27     32       MECN     C2       CG1N1    0.360000       12.0110           0
     80573 WT27     32       MECN     N3       NG1T1   -0.460000       14.0070           0
     80574 WT27     35       MECN     C1       CG331   -0.170000       12.0110           0
     80575 WT27     35       MECN     H11      HGA3     0.090000        1.0080           0
     80576 WT27     35       MECN     H12      HGA3     0.090000        1.0080           0
     80577 WT27     35       MECN     H13      HGA3     0.090000        1.0080           0
     80578 WT27     35       MECN     C2       CG1N1    0.360000       12.0110           0
     80579 WT27     35       MECN     N3       NG1T1   -0.460000       14.0070           0
     80580 WT27     38       MECN     C1       CG331   -0.170000       12.0110           0
     80581 WT27     38       MECN     H11      HGA3     0.090000        1.0080           0
     80582 WT27     38       MECN     H12      HGA3     0.090000        1.0080           0
     80583 WT27     38       MECN     H13      HGA3     0.090000        1.0080           0
     80584 WT27     38       MECN     C2       CG1N1    0.360000       12.0110           0
     80585 WT27     38       MECN     N3       NG1T1   -0.460000       14.0070           0
     80586 WT27     39       MECN     C1       CG331   -0.170000       12.0110           0
     80587 WT27     39       MECN     H11      HGA3     0.090000        1.0080           0
     80588 WT27     39       MECN     H12      HGA3     0.090000        1.0080           0
     80589 WT27     39       MECN     H13      HGA3     0.090000        1.0080           0
     80590 WT27     39       MECN     C2       CG1N1    0.360000       12.0110           0
     80591 WT27     39       MECN     N3       NG1T1   -0.460000       14.0070           0
     80592 WT27     40       MECN     C1       CG331   -0.170000       12.0110           0
     80593 WT27     40       MECN     H11      HGA3     0.090000        1.0080           0
     80594 WT27     40       MECN     H12      HGA3     0.090000        1.0080           0
     80595 WT27     40       MECN     H13      HGA3     0.090000        1.0080           0
     80596 WT27     40       MECN     C2       CG1N1    0.360000       12.0110           0
     80597 WT27     40       MECN     N3       NG1T1   -0.460000       14.0070           0
     80598 WT27     41       MECN     C1       CG331   -0.170000       12.0110           0
     80599 WT27     41       MECN     H11      HGA3     0.090000        1.0080           0
     80600 WT27     41       MECN     H12      HGA3     0.090000        1.0080           0
     80601 WT27     41       MECN     H13      HGA3     0.090000        1.0080           0
     80602 WT27     41       MECN     C2       CG1N1    0.360000       12.0110           0
     80603 WT27     41       MECN     N3       NG1T1   -0.460000       14.0070           0
     80604 WT27     45       MECN     C1       CG331   -0.170000       12.0110           0
     80605 WT27     45       MECN     H11      HGA3     0.090000        1.0080           0
     80606 WT27     45       MECN     H12      HGA3     0.090000        1.0080           0
     80607 WT27     45       MECN     H13      HGA3     0.090000        1.0080           0
     80608 WT27     45       MECN     C2       CG1N1    0.360000       12.0110           0
     80609 WT27     45       MECN     N3       NG1T1   -0.460000       14.0070           0
     80610 WT27     47       MECN     C1       CG331   -0.170000       12.0110           0
     80611 WT27     47       MECN     H11      HGA3     0.090000        1.0080           0
     80612 WT27     47       MECN     H12      HGA3     0.090000        1.0080           0
     80613 WT27     47       MECN     H13      HGA3     0.090000        1.0080           0
     80614 WT27     47       MECN     C2       CG1N1    0.360000       12.0110           0
     80615 WT27     47       MECN     N3       NG1T1   -0.460000       14.0070           0
     80616 WT27     48       MECN     C1       CG331   -0.170000       12.0110           0
     80617 WT27     48       MECN     H11      HGA3     0.090000        1.0080           0
     80618 WT27     48       MECN     H12      HGA3     0.090000        1.0080           0
     80619 WT27     48       MECN     H13      HGA3     0.090000        1.0080           0
     80620 WT27     48       MECN     C2       CG1N1    0.360000       12.0110           0
     80621 WT27     48       MECN     N3       NG1T1   -0.460000       14.0070           0
     80622 WT27     62       MECN     C1       CG331   -0.170000       12.0110           0
     80623 WT27     62       MECN     H11      HGA3     0.090000        1.0080           0
     80624 WT27     62       MECN     H12      HGA3     0.090000        1.0080           0
     80625 WT27     62       MECN     H13      HGA3     0.090000        1.0080           0
     80626 WT27     62       MECN     C2       CG1N1    0.360000       12.0110           0
     80627 WT27     62       MECN     N3       NG1T1   -0.460000       14.0070           0
     80628 WT27     65       MECN     C1       CG331   -0.170000       12.0110           0
     80629 WT27     65       MECN     H11      HGA3     0.090000        1.0080           0
     80630 WT27     65       MECN     H12      HGA3     0.090000        1.0080           0
     80631 WT27     65       MECN     H13      HGA3     0.090000        1.0080           0
     80632 WT27     65       MECN     C2       CG1N1    0.360000       12.0110           0
     80633 WT27     65       MECN     N3       NG1T1   -0.460000       14.0070           0
     80634 WT27     66       MECN     C1       CG331   -0.170000       12.0110           0
     80635 WT27     66       MECN     H11      HGA3     0.090000        1.0080           0
     80636 WT27     66       MECN     H12      HGA3     0.090000        1.0080           0
     80637 WT27     66       MECN     H13      HGA3     0.090000        1.0080           0
     80638 WT27     66       MECN     C2       CG1N1    0.360000       12.0110           0
     80639 WT27     66       MECN     N3       NG1T1   -0.460000       14.0070           0
     80640 WT27     67       MECN     C1       CG331   -0.170000       12.0110           0
     80641 WT27     67       MECN     H11      HGA3     0.090000        1.0080           0
     80642 WT27     67       MECN     H12      HGA3     0.090000        1.0080           0
     80643 WT27     67       MECN     H13      HGA3     0.090000        1.0080           0
     80644 WT27     67       MECN     C2       CG1N1    0.360000       12.0110           0
     80645 WT27     67       MECN     N3       NG1T1   -0.460000       14.0070           0
     80646 WT27     68       MECN     C1       CG331   -0.170000       12.0110           0
     80647 WT27     68       MECN     H11      HGA3     0.090000        1.0080           0
     80648 WT27     68       MECN     H12      HGA3     0.090000        1.0080           0
     80649 WT27     68       MECN     H13      HGA3     0.090000        1.0080           0
     80650 WT27     68       MECN     C2       CG1N1    0.360000       12.0110           0
     80651 WT27     68       MECN     N3       NG1T1   -0.460000       14.0070           0
     80652 WT27     70       MECN     C1       CG331   -0.170000       12.0110           0
     80653 WT27     70       MECN     H11      HGA3     0.090000        1.0080           0
     80654 WT27     70       MECN     H12      HGA3     0.090000        1.0080           0
     80655 WT27     70       MECN     H13      HGA3     0.090000        1.0080           0
     80656 WT27     70       MECN     C2       CG1N1    0.360000       12.0110           0
     80657 WT27     70       MECN     N3       NG1T1   -0.460000       14.0070           0
     80658 WT27     80       MECN     C1       CG331   -0.170000       12.0110           0
     80659 WT27     80       MECN     H11      HGA3     0.090000        1.0080           0
     80660 WT27     80       MECN     H12      HGA3     0.090000        1.0080           0
     80661 WT27     80       MECN     H13      HGA3     0.090000        1.0080           0
     80662 WT27     80       MECN     C2       CG1N1    0.360000       12.0110           0
     80663 WT27     80       MECN     N3       NG1T1   -0.460000       14.0070           0
     80664 WT27     82       MECN     C1       CG331   -0.170000       12.0110           0
     80665 WT27     82       MECN     H11      HGA3     0.090000        1.0080           0
     80666 WT27     82       MECN     H12      HGA3     0.090000        1.0080           0
     80667 WT27     82       MECN     H13      HGA3     0.090000        1.0080           0
     80668 WT27     82       MECN     C2       CG1N1    0.360000       12.0110           0
     80669 WT27     82       MECN     N3       NG1T1   -0.460000       14.0070           0
     80670 WT27     83       MECN     C1       CG331   -0.170000       12.0110           0
     80671 WT27     83       MECN     H11      HGA3     0.090000        1.0080           0
     80672 WT27     83       MECN     H12      HGA3     0.090000        1.0080           0
     80673 WT27     83       MECN     H13      HGA3     0.090000        1.0080           0
     80674 WT27     83       MECN     C2       CG1N1    0.360000       12.0110           0
     80675 WT27     83       MECN     N3       NG1T1   -0.460000       14.0070           0
     80676 WT27     88       MECN     C1       CG331   -0.170000       12.0110           0
     80677 WT27     88       MECN     H11      HGA3     0.090000        1.0080           0
     80678 WT27     88       MECN     H12      HGA3     0.090000        1.0080           0
     80679 WT27     88       MECN     H13      HGA3     0.090000        1.0080           0
     80680 WT27     88       MECN     C2       CG1N1    0.360000       12.0110           0
     80681 WT27     88       MECN     N3       NG1T1   -0.460000       14.0070           0
     80682 WT27     89       MECN     C1       CG331   -0.170000       12.0110           0
     80683 WT27     89       MECN     H11      HGA3     0.090000        1.0080           0
     80684 WT27     89       MECN     H12      HGA3     0.090000        1.0080           0
     80685 WT27     89       MECN     H13      HGA3     0.090000        1.0080           0
     80686 WT27     89       MECN     C2       CG1N1    0.360000       12.0110           0
     80687 WT27     89       MECN     N3       NG1T1   -0.460000       14.0070           0
     80688 WT27     93       MECN     C1       CG331   -0.170000       12.0110           0
     80689 WT27     93       MECN     H11      HGA3     0.090000        1.0080           0
     80690 WT27     93       MECN     H12      HGA3     0.090000        1.0080           0
     80691 WT27     93       MECN     H13      HGA3     0.090000        1.0080           0
     80692 WT27     93       MECN     C2       CG1N1    0.360000       12.0110           0
     80693 WT27     93       MECN     N3       NG1T1   -0.460000       14.0070           0
     80694 WT27     97       MECN     C1       CG331   -0.170000       12.0110           0
     80695 WT27     97       MECN     H11      HGA3     0.090000        1.0080           0
     80696 WT27     97       MECN     H12      HGA3     0.090000        1.0080           0
     80697 WT27     97       MECN     H13      HGA3     0.090000        1.0080           0
     80698 WT27     97       MECN     C2       CG1N1    0.360000       12.0110           0
     80699 WT27     97       MECN     N3       NG1T1   -0.460000       14.0070           0
     80700 WT27     99       MECN     C1       CG331   -0.170000       12.0110           0
     80701 WT27     99       MECN     H11      HGA3     0.090000        1.0080           0
     80702 WT27     99       MECN     H12      HGA3     0.090000        1.0080           0
     80703 WT27     99       MECN     H13      HGA3     0.090000        1.0080           0
     80704 WT27     99       MECN     C2       CG1N1    0.360000       12.0110           0
     80705 WT27     99       MECN     N3       NG1T1   -0.460000       14.0070           0
     80706 WT27     100      MECN     C1       CG331   -0.170000       12.0110           0
     80707 WT27     100      MECN     H11      HGA3     0.090000        1.0080           0
     80708 WT27     100      MECN     H12      HGA3     0.090000        1.0080           0
     80709 WT27     100      MECN     H13      HGA3     0.090000        1.0080           0
     80710 WT27     100      MECN     C2       CG1N1    0.360000       12.0110           0
     80711 WT27     100      MECN     N3       NG1T1   -0.460000       14.0070           0
     80712 WT27     102      MECN     C1       CG331   -0.170000       12.0110           0
     80713 WT27     102      MECN     H11      HGA3     0.090000        1.0080           0
     80714 WT27     102      MECN     H12      HGA3     0.090000        1.0080           0
     80715 WT27     102      MECN     H13      HGA3     0.090000        1.0080           0
     80716 WT27     102      MECN     C2       CG1N1    0.360000       12.0110           0
     80717 WT27     102      MECN     N3       NG1T1   -0.460000       14.0070           0
     80718 WT27     104      MECN     C1       CG331   -0.170000       12.0110           0
     80719 WT27     104      MECN     H11      HGA3     0.090000        1.0080           0
     80720 WT27     104      MECN     H12      HGA3     0.090000        1.0080           0
     80721 WT27     104      MECN     H13      HGA3     0.090000        1.0080           0
     80722 WT27     104      MECN     C2       CG1N1    0.360000       12.0110           0
     80723 WT27     104      MECN     N3       NG1T1   -0.460000       14.0070           0
     80724 WT27     107      MECN     C1       CG331   -0.170000       12.0110           0
     80725 WT27     107      MECN     H11      HGA3     0.090000        1.0080           0
     80726 WT27     107      MECN     H12      HGA3     0.090000        1.0080           0
     80727 WT27     107      MECN     H13      HGA3     0.090000        1.0080           0
     80728 WT27     107      MECN     C2       CG1N1    0.360000       12.0110           0
     80729 WT27     107      MECN     N3       NG1T1   -0.460000       14.0070           0
     80730 WT27     108      MECN     C1       CG331   -0.170000       12.0110           0
     80731 WT27     108      MECN     H11      HGA3     0.090000        1.0080           0
     80732 WT27     108      MECN     H12      HGA3     0.090000        1.0080           0
     80733 WT27     108      MECN     H13      HGA3     0.090000        1.0080           0
     80734 WT27     108      MECN     C2       CG1N1    0.360000       12.0110           0
     80735 WT27     108      MECN     N3       NG1T1   -0.460000       14.0070           0
     80736 WT27     114      MECN     C1       CG331   -0.170000       12.0110           0
     80737 WT27     114      MECN     H11      HGA3     0.090000        1.0080           0
     80738 WT27     114      MECN     H12      HGA3     0.090000        1.0080           0
     80739 WT27     114      MECN     H13      HGA3     0.090000        1.0080           0
     80740 WT27     114      MECN     C2       CG1N1    0.360000       12.0110           0
     80741 WT27     114      MECN     N3       NG1T1   -0.460000       14.0070           0
     80742 WT27     117      MECN     C1       CG331   -0.170000       12.0110           0
     80743 WT27     117      MECN     H11      HGA3     0.090000        1.0080           0
     80744 WT27     117      MECN     H12      HGA3     0.090000        1.0080           0
     80745 WT27     117      MECN     H13      HGA3     0.090000        1.0080           0
     80746 WT27     117      MECN     C2       CG1N1    0.360000       12.0110           0
     80747 WT27     117      MECN     N3       NG1T1   -0.460000       14.0070           0
     80748 WT27     119      MECN     C1       CG331   -0.170000       12.0110           0
     80749 WT27     119      MECN     H11      HGA3     0.090000        1.0080           0
     80750 WT27     119      MECN     H12      HGA3     0.090000        1.0080           0
     80751 WT27     119      MECN     H13      HGA3     0.090000        1.0080           0
     80752 WT27     119      MECN     C2       CG1N1    0.360000       12.0110           0
     80753 WT27     119      MECN     N3       NG1T1   -0.460000       14.0070           0
     80754 WT27     126      MECN     C1       CG331   -0.170000       12.0110           0
     80755 WT27     126      MECN     H11      HGA3     0.090000        1.0080           0
     80756 WT27     126      MECN     H12      HGA3     0.090000        1.0080           0
     80757 WT27     126      MECN     H13      HGA3     0.090000        1.0080           0
     80758 WT27     126      MECN     C2       CG1N1    0.360000       12.0110           0
     80759 WT27     126      MECN     N3       NG1T1   -0.460000       14.0070           0
     80760 WT27     128      MECN     C1       CG331   -0.170000       12.0110           0
     80761 WT27     128      MECN     H11      HGA3     0.090000        1.0080           0
     80762 WT27     128      MECN     H12      HGA3     0.090000        1.0080           0
     80763 WT27     128      MECN     H13      HGA3     0.090000        1.0080           0
     80764 WT27     128      MECN     C2       CG1N1    0.360000       12.0110           0
     80765 WT27     128      MECN     N3       NG1T1   -0.460000       14.0070           0
     80766 WT27     130      MECN     C1       CG331   -0.170000       12.0110           0
     80767 WT27     130      MECN     H11      HGA3     0.090000        1.0080           0
     80768 WT27     130      MECN     H12      HGA3     0.090000        1.0080           0
     80769 WT27     130      MECN     H13      HGA3     0.090000        1.0080           0
     80770 WT27     130      MECN     C2       CG1N1    0.360000       12.0110           0
     80771 WT27     130      MECN     N3       NG1T1   -0.460000       14.0070           0
     80772 WT27     131      MECN     C1       CG331   -0.170000       12.0110           0
     80773 WT27     131      MECN     H11      HGA3     0.090000        1.0080           0
     80774 WT27     131      MECN     H12      HGA3     0.090000        1.0080           0
     80775 WT27     131      MECN     H13      HGA3     0.090000        1.0080           0
     80776 WT27     131      MECN     C2       CG1N1    0.360000       12.0110           0
     80777 WT27     131      MECN     N3       NG1T1   -0.460000       14.0070           0
     80778 WT27     136      MECN     C1       CG331   -0.170000       12.0110           0
     80779 WT27     136      MECN     H11      HGA3     0.090000        1.0080           0
     80780 WT27     136      MECN     H12      HGA3     0.090000        1.0080           0
     80781 WT27     136      MECN     H13      HGA3     0.090000        1.0080           0
     80782 WT27     136      MECN     C2       CG1N1    0.360000       12.0110           0
     80783 WT27     136      MECN     N3       NG1T1   -0.460000       14.0070           0
     80784 WT27     137      MECN     C1       CG331   -0.170000       12.0110           0
     80785 WT27     137      MECN     H11      HGA3     0.090000        1.0080           0
     80786 WT27     137      MECN     H12      HGA3     0.090000        1.0080           0
     80787 WT27     137      MECN     H13      HGA3     0.090000        1.0080           0
     80788 WT27     137      MECN     C2       CG1N1    0.360000       12.0110           0
     80789 WT27     137      MECN     N3       NG1T1   -0.460000       14.0070           0
     80790 WT27     141      MECN     C1       CG331   -0.170000       12.0110           0
     80791 WT27     141      MECN     H11      HGA3     0.090000        1.0080           0
     80792 WT27     141      MECN     H12      HGA3     0.090000        1.0080           0
     80793 WT27     141      MECN     H13      HGA3     0.090000        1.0080           0
     80794 WT27     141      MECN     C2       CG1N1    0.360000       12.0110           0
     80795 WT27     141      MECN     N3       NG1T1   -0.460000       14.0070           0
     80796 WT27     142      MECN     C1       CG331   -0.170000       12.0110           0
     80797 WT27     142      MECN     H11      HGA3     0.090000        1.0080           0
     80798 WT27     142      MECN     H12      HGA3     0.090000        1.0080           0
     80799 WT27     142      MECN     H13      HGA3     0.090000        1.0080           0
     80800 WT27     142      MECN     C2       CG1N1    0.360000       12.0110           0
     80801 WT27     142      MECN     N3       NG1T1   -0.460000       14.0070           0
     80802 WT27     150      MECN     C1       CG331   -0.170000       12.0110           0
     80803 WT27     150      MECN     H11      HGA3     0.090000        1.0080           0
     80804 WT27     150      MECN     H12      HGA3     0.090000        1.0080           0
     80805 WT27     150      MECN     H13      HGA3     0.090000        1.0080           0
     80806 WT27     150      MECN     C2       CG1N1    0.360000       12.0110           0
     80807 WT27     150      MECN     N3       NG1T1   -0.460000       14.0070           0
     80808 WT27     152      MECN     C1       CG331   -0.170000       12.0110           0
     80809 WT27     152      MECN     H11      HGA3     0.090000        1.0080           0
     80810 WT27     152      MECN     H12      HGA3     0.090000        1.0080           0
     80811 WT27     152      MECN     H13      HGA3     0.090000        1.0080           0
     80812 WT27     152      MECN     C2       CG1N1    0.360000       12.0110           0
     80813 WT27     152      MECN     N3       NG1T1   -0.460000       14.0070           0
     80814 WT27     153      MECN     C1       CG331   -0.170000       12.0110           0
     80815 WT27     153      MECN     H11      HGA3     0.090000        1.0080           0
     80816 WT27     153      MECN     H12      HGA3     0.090000        1.0080           0
     80817 WT27     153      MECN     H13      HGA3     0.090000        1.0080           0
     80818 WT27     153      MECN     C2       CG1N1    0.360000       12.0110           0
     80819 WT27     153      MECN     N3       NG1T1   -0.460000       14.0070           0
     80820 WT27     154      MECN     C1       CG331   -0.170000       12.0110           0
     80821 WT27     154      MECN     H11      HGA3     0.090000        1.0080           0
     80822 WT27     154      MECN     H12      HGA3     0.090000        1.0080           0
     80823 WT27     154      MECN     H13      HGA3     0.090000        1.0080           0
     80824 WT27     154      MECN     C2       CG1N1    0.360000       12.0110           0
     80825 WT27     154      MECN     N3       NG1T1   -0.460000       14.0070           0
     80826 WT27     157      MECN     C1       CG331   -0.170000       12.0110           0
     80827 WT27     157      MECN     H11      HGA3     0.090000        1.0080           0
     80828 WT27     157      MECN     H12      HGA3     0.090000        1.0080           0
     80829 WT27     157      MECN     H13      HGA3     0.090000        1.0080           0
     80830 WT27     157      MECN     C2       CG1N1    0.360000       12.0110           0
     80831 WT27     157      MECN     N3       NG1T1   -0.460000       14.0070           0
     80832 WT27     158      MECN     C1       CG331   -0.170000       12.0110           0
     80833 WT27     158      MECN     H11      HGA3     0.090000        1.0080           0
     80834 WT27     158      MECN     H12      HGA3     0.090000        1.0080           0
     80835 WT27     158      MECN     H13      HGA3     0.090000        1.0080           0
     80836 WT27     158      MECN     C2       CG1N1    0.360000       12.0110           0
     80837 WT27     158      MECN     N3       NG1T1   -0.460000       14.0070           0
     80838 WT27     161      MECN     C1       CG331   -0.170000       12.0110           0
     80839 WT27     161      MECN     H11      HGA3     0.090000        1.0080           0
     80840 WT27     161      MECN     H12      HGA3     0.090000        1.0080           0
     80841 WT27     161      MECN     H13      HGA3     0.090000        1.0080           0
     80842 WT27     161      MECN     C2       CG1N1    0.360000       12.0110           0
     80843 WT27     161      MECN     N3       NG1T1   -0.460000       14.0070           0
     80844 WT27     163      MECN     C1       CG331   -0.170000       12.0110           0
     80845 WT27     163      MECN     H11      HGA3     0.090000        1.0080           0
     80846 WT27     163      MECN     H12      HGA3     0.090000        1.0080           0
     80847 WT27     163      MECN     H13      HGA3     0.090000        1.0080           0
     80848 WT27     163      MECN     C2       CG1N1    0.360000       12.0110           0
     80849 WT27     163      MECN     N3       NG1T1   -0.460000       14.0070           0
     80850 WT27     165      MECN     C1       CG331   -0.170000       12.0110           0
     80851 WT27     165      MECN     H11      HGA3     0.090000        1.0080           0
     80852 WT27     165      MECN     H12      HGA3     0.090000        1.0080           0
     80853 WT27     165      MECN     H13      HGA3     0.090000        1.0080           0
     80854 WT27     165      MECN     C2       CG1N1    0.360000       12.0110           0
     80855 WT27     165      MECN     N3       NG1T1   -0.460000       14.0070           0
     80856 WT27     166      MECN     C1       CG331   -0.170000       12.0110           0
     80857 WT27     166      MECN     H11      HGA3     0.090000        1.0080           0
     80858 WT27     166      MECN     H12      HGA3     0.090000        1.0080           0
     80859 WT27     166      MECN     H13      HGA3     0.090000        1.0080           0
     80860 WT27     166      MECN     C2       CG1N1    0.360000       12.0110           0
     80861 WT27     166      MECN     N3       NG1T1   -0.460000       14.0070           0
     80862 WT27     167      MECN     C1       CG331   -0.170000       12.0110           0
     80863 WT27     167      MECN     H11      HGA3     0.090000        1.0080           0
     80864 WT27     167      MECN     H12      HGA3     0.090000        1.0080           0
     80865 WT27     167      MECN     H13      HGA3     0.090000        1.0080           0
     80866 WT27     167      MECN     C2       CG1N1    0.360000       12.0110           0
     80867 WT27     167      MECN     N3       NG1T1   -0.460000       14.0070           0
     80868 WT27     168      MECN     C1       CG331   -0.170000       12.0110           0
     80869 WT27     168      MECN     H11      HGA3     0.090000        1.0080           0
     80870 WT27     168      MECN     H12      HGA3     0.090000        1.0080           0
     80871 WT27     168      MECN     H13      HGA3     0.090000        1.0080           0
     80872 WT27     168      MECN     C2       CG1N1    0.360000       12.0110           0
     80873 WT27     168      MECN     N3       NG1T1   -0.460000       14.0070           0
     80874 WT27     178      MECN     C1       CG331   -0.170000       12.0110           0
     80875 WT27     178      MECN     H11      HGA3     0.090000        1.0080           0
     80876 WT27     178      MECN     H12      HGA3     0.090000        1.0080           0
     80877 WT27     178      MECN     H13      HGA3     0.090000        1.0080           0
     80878 WT27     178      MECN     C2       CG1N1    0.360000       12.0110           0
     80879 WT27     178      MECN     N3       NG1T1   -0.460000       14.0070           0
     80880 WT27     181      MECN     C1       CG331   -0.170000       12.0110           0
     80881 WT27     181      MECN     H11      HGA3     0.090000        1.0080           0
     80882 WT27     181      MECN     H12      HGA3     0.090000        1.0080           0
     80883 WT27     181      MECN     H13      HGA3     0.090000        1.0080           0
     80884 WT27     181      MECN     C2       CG1N1    0.360000       12.0110           0
     80885 WT27     181      MECN     N3       NG1T1   -0.460000       14.0070           0
     80886 WT27     192      MECN     C1       CG331   -0.170000       12.0110           0
     80887 WT27     192      MECN     H11      HGA3     0.090000        1.0080           0
     80888 WT27     192      MECN     H12      HGA3     0.090000        1.0080           0
     80889 WT27     192      MECN     H13      HGA3     0.090000        1.0080           0
     80890 WT27     192      MECN     C2       CG1N1    0.360000       12.0110           0
     80891 WT27     192      MECN     N3       NG1T1   -0.460000       14.0070           0
     80892 WT27     193      MECN     C1       CG331   -0.170000       12.0110           0
     80893 WT27     193      MECN     H11      HGA3     0.090000        1.0080           0
     80894 WT27     193      MECN     H12      HGA3     0.090000        1.0080           0
     80895 WT27     193      MECN     H13      HGA3     0.090000        1.0080           0
     80896 WT27     193      MECN     C2       CG1N1    0.360000       12.0110           0
     80897 WT27     193      MECN     N3       NG1T1   -0.460000       14.0070           0
     80898 WT27     195      MECN     C1       CG331   -0.170000       12.0110           0
     80899 WT27     195      MECN     H11      HGA3     0.090000        1.0080           0
     80900 WT27     195      MECN     H12      HGA3     0.090000        1.0080           0
     80901 WT27     195      MECN     H13      HGA3     0.090000        1.0080           0
     80902 WT27     195      MECN     C2       CG1N1    0.360000       12.0110           0
     80903 WT27     195      MECN     N3       NG1T1   -0.460000       14.0070           0
     80904 WT27     196      MECN     C1       CG331   -0.170000       12.0110           0
     80905 WT27     196      MECN     H11      HGA3     0.090000        1.0080           0
     80906 WT27     196      MECN     H12      HGA3     0.090000        1.0080           0
     80907 WT27     196      MECN     H13      HGA3     0.090000        1.0080           0
     80908 WT27     196      MECN     C2       CG1N1    0.360000       12.0110           0
     80909 WT27     196      MECN     N3       NG1T1   -0.460000       14.0070           0
     80910 WT27     198      MECN     C1       CG331   -0.170000       12.0110           0
     80911 WT27     198      MECN     H11      HGA3     0.090000        1.0080           0
     80912 WT27     198      MECN     H12      HGA3     0.090000        1.0080           0
     80913 WT27     198      MECN     H13      HGA3     0.090000        1.0080           0
     80914 WT27     198      MECN     C2       CG1N1    0.360000       12.0110           0
     80915 WT27     198      MECN     N3       NG1T1   -0.460000       14.0070           0
     80916 WT27     199      MECN     C1       CG331   -0.170000       12.0110           0
     80917 WT27     199      MECN     H11      HGA3     0.090000        1.0080           0
     80918 WT27     199      MECN     H12      HGA3     0.090000        1.0080           0
     80919 WT27     199      MECN     H13      HGA3     0.090000        1.0080           0
     80920 WT27     199      MECN     C2       CG1N1    0.360000       12.0110           0
     80921 WT27     199      MECN     N3       NG1T1   -0.460000       14.0070           0
     80922 WT27     203      MECN     C1       CG331   -0.170000       12.0110           0
     80923 WT27     203      MECN     H11      HGA3     0.090000        1.0080           0
     80924 WT27     203      MECN     H12      HGA3     0.090000        1.0080           0
     80925 WT27     203      MECN     H13      HGA3     0.090000        1.0080           0
     80926 WT27     203      MECN     C2       CG1N1    0.360000       12.0110           0
     80927 WT27     203      MECN     N3       NG1T1   -0.460000       14.0070           0
     80928 WT27     205      MECN     C1       CG331   -0.170000       12.0110           0
     80929 WT27     205      MECN     H11      HGA3     0.090000        1.0080           0
     80930 WT27     205      MECN     H12      HGA3     0.090000        1.0080           0
     80931 WT27     205      MECN     H13      HGA3     0.090000        1.0080           0
     80932 WT27     205      MECN     C2       CG1N1    0.360000       12.0110           0
     80933 WT27     205      MECN     N3       NG1T1   -0.460000       14.0070           0
     80934 WT27     210      MECN     C1       CG331   -0.170000       12.0110           0
     80935 WT27     210      MECN     H11      HGA3     0.090000        1.0080           0
     80936 WT27     210      MECN     H12      HGA3     0.090000        1.0080           0
     80937 WT27     210      MECN     H13      HGA3     0.090000        1.0080           0
     80938 WT27     210      MECN     C2       CG1N1    0.360000       12.0110           0
     80939 WT27     210      MECN     N3       NG1T1   -0.460000       14.0070           0
     80940 WT27     217      MECN     C1       CG331   -0.170000       12.0110           0
     80941 WT27     217      MECN     H11      HGA3     0.090000        1.0080           0
     80942 WT27     217      MECN     H12      HGA3     0.090000        1.0080           0
     80943 WT27     217      MECN     H13      HGA3     0.090000        1.0080           0
     80944 WT27     217      MECN     C2       CG1N1    0.360000       12.0110           0
     80945 WT27     217      MECN     N3       NG1T1   -0.460000       14.0070           0
     80946 WT27     218      MECN     C1       CG331   -0.170000       12.0110           0
     80947 WT27     218      MECN     H11      HGA3     0.090000        1.0080           0
     80948 WT27     218      MECN     H12      HGA3     0.090000        1.0080           0
     80949 WT27     218      MECN     H13      HGA3     0.090000        1.0080           0
     80950 WT27     218      MECN     C2       CG1N1    0.360000       12.0110           0
     80951 WT27     218      MECN     N3       NG1T1   -0.460000       14.0070           0
     80952 WT27     223      MECN     C1       CG331   -0.170000       12.0110           0
     80953 WT27     223      MECN     H11      HGA3     0.090000        1.0080           0
     80954 WT27     223      MECN     H12      HGA3     0.090000        1.0080           0
     80955 WT27     223      MECN     H13      HGA3     0.090000        1.0080           0
     80956 WT27     223      MECN     C2       CG1N1    0.360000       12.0110           0
     80957 WT27     223      MECN     N3       NG1T1   -0.460000       14.0070           0
     80958 WT27     225      MECN     C1       CG331   -0.170000       12.0110           0
     80959 WT27     225      MECN     H11      HGA3     0.090000        1.0080           0
     80960 WT27     225      MECN     H12      HGA3     0.090000        1.0080           0
     80961 WT27     225      MECN     H13      HGA3     0.090000        1.0080           0
     80962 WT27     225      MECN     C2       CG1N1    0.360000       12.0110           0
     80963 WT27     225      MECN     N3       NG1T1   -0.460000       14.0070           0
     80964 WT27     232      MECN     C1       CG331   -0.170000       12.0110           0
     80965 WT27     232      MECN     H11      HGA3     0.090000        1.0080           0
     80966 WT27     232      MECN     H12      HGA3     0.090000        1.0080           0
     80967 WT27     232      MECN     H13      HGA3     0.090000        1.0080           0
     80968 WT27     232      MECN     C2       CG1N1    0.360000       12.0110           0
     80969 WT27     232      MECN     N3       NG1T1   -0.460000       14.0070           0
     80970 WT27     233      MECN     C1       CG331   -0.170000       12.0110           0
     80971 WT27     233      MECN     H11      HGA3     0.090000        1.0080           0
     80972 WT27     233      MECN     H12      HGA3     0.090000        1.0080           0
     80973 WT27     233      MECN     H13      HGA3     0.090000        1.0080           0
     80974 WT27     233      MECN     C2       CG1N1    0.360000       12.0110           0
     80975 WT27     233      MECN     N3       NG1T1   -0.460000       14.0070           0
     80976 WT27     235      MECN     C1       CG331   -0.170000       12.0110           0
     80977 WT27     235      MECN     H11      HGA3     0.090000        1.0080           0
     80978 WT27     235      MECN     H12      HGA3     0.090000        1.0080           0
     80979 WT27     235      MECN     H13      HGA3     0.090000        1.0080           0
     80980 WT27     235      MECN     C2       CG1N1    0.360000       12.0110           0
     80981 WT27     235      MECN     N3       NG1T1   -0.460000       14.0070           0
     80982 WT27     239      MECN     C1       CG331   -0.170000       12.0110           0
     80983 WT27     239      MECN     H11      HGA3     0.090000        1.0080           0
     80984 WT27     239      MECN     H12      HGA3     0.090000        1.0080           0
     80985 WT27     239      MECN     H13      HGA3     0.090000        1.0080           0
     80986 WT27     239      MECN     C2       CG1N1    0.360000       12.0110           0
     80987 WT27     239      MECN     N3       NG1T1   -0.460000       14.0070           0
     80988 WT27     243      MECN     C1       CG331   -0.170000       12.0110           0
     80989 WT27     243      MECN     H11      HGA3     0.090000        1.0080           0
     80990 WT27     243      MECN     H12      HGA3     0.090000        1.0080           0
     80991 WT27     243      MECN     H13      HGA3     0.090000        1.0080           0
     80992 WT27     243      MECN     C2       CG1N1    0.360000       12.0110           0
     80993 WT27     243      MECN     N3       NG1T1   -0.460000       14.0070           0
     80994 WT27     244      MECN     C1       CG331   -0.170000       12.0110           0
     80995 WT27     244      MECN     H11      HGA3     0.090000        1.0080           0
     80996 WT27     244      MECN     H12      HGA3     0.090000        1.0080           0
     80997 WT27     244      MECN     H13      HGA3     0.090000        1.0080           0
     80998 WT27     244      MECN     C2       CG1N1    0.360000       12.0110           0
     80999 WT27     244      MECN     N3       NG1T1   -0.460000       14.0070           0
     81000 WT27     246      MECN     C1       CG331   -0.170000       12.0110           0
     81001 WT27     246      MECN     H11      HGA3     0.090000        1.0080           0
     81002 WT27     246      MECN     H12      HGA3     0.090000        1.0080           0
     81003 WT27     246      MECN     H13      HGA3     0.090000        1.0080           0
     81004 WT27     246      MECN     C2       CG1N1    0.360000       12.0110           0
     81005 WT27     246      MECN     N3       NG1T1   -0.460000       14.0070           0
     81006 WT27     249      MECN     C1       CG331   -0.170000       12.0110           0
     81007 WT27     249      MECN     H11      HGA3     0.090000        1.0080           0
     81008 WT27     249      MECN     H12      HGA3     0.090000        1.0080           0
     81009 WT27     249      MECN     H13      HGA3     0.090000        1.0080           0
     81010 WT27     249      MECN     C2       CG1N1    0.360000       12.0110           0
     81011 WT27     249      MECN     N3       NG1T1   -0.460000       14.0070           0
     81012 WT27     250      MECN     C1       CG331   -0.170000       12.0110           0
     81013 WT27     250      MECN     H11      HGA3     0.090000        1.0080           0
     81014 WT27     250      MECN     H12      HGA3     0.090000        1.0080           0
     81015 WT27     250      MECN     H13      HGA3     0.090000        1.0080           0
     81016 WT27     250      MECN     C2       CG1N1    0.360000       12.0110           0
     81017 WT27     250      MECN     N3       NG1T1   -0.460000       14.0070           0
     81018 WT27     251      MECN     C1       CG331   -0.170000       12.0110           0
     81019 WT27     251      MECN     H11      HGA3     0.090000        1.0080           0
     81020 WT27     251      MECN     H12      HGA3     0.090000        1.0080           0
     81021 WT27     251      MECN     H13      HGA3     0.090000        1.0080           0
     81022 WT27     251      MECN     C2       CG1N1    0.360000       12.0110           0
     81023 WT27     251      MECN     N3       NG1T1   -0.460000       14.0070           0
     81024 WT27     252      MECN     C1       CG331   -0.170000       12.0110           0
     81025 WT27     252      MECN     H11      HGA3     0.090000        1.0080           0
     81026 WT27     252      MECN     H12      HGA3     0.090000        1.0080           0
     81027 WT27     252      MECN     H13      HGA3     0.090000        1.0080           0
     81028 WT27     252      MECN     C2       CG1N1    0.360000       12.0110           0
     81029 WT27     252      MECN     N3       NG1T1   -0.460000       14.0070           0
     81030 WT27     254      MECN     C1       CG331   -0.170000       12.0110           0
     81031 WT27     254      MECN     H11      HGA3     0.090000        1.0080           0
     81032 WT27     254      MECN     H12      HGA3     0.090000        1.0080           0
     81033 WT27     254      MECN     H13      HGA3     0.090000        1.0080           0
     81034 WT27     254      MECN     C2       CG1N1    0.360000       12.0110           0
     81035 WT27     254      MECN     N3       NG1T1   -0.460000       14.0070           0
     81036 WT27     258      MECN     C1       CG331   -0.170000       12.0110           0
     81037 WT27     258      MECN     H11      HGA3     0.090000        1.0080           0
     81038 WT27     258      MECN     H12      HGA3     0.090000        1.0080           0
     81039 WT27     258      MECN     H13      HGA3     0.090000        1.0080           0
     81040 WT27     258      MECN     C2       CG1N1    0.360000       12.0110           0
     81041 WT27     258      MECN     N3       NG1T1   -0.460000       14.0070           0
     81042 WT27     262      MECN     C1       CG331   -0.170000       12.0110           0
     81043 WT27     262      MECN     H11      HGA3     0.090000        1.0080           0
     81044 WT27     262      MECN     H12      HGA3     0.090000        1.0080           0
     81045 WT27     262      MECN     H13      HGA3     0.090000        1.0080           0
     81046 WT27     262      MECN     C2       CG1N1    0.360000       12.0110           0
     81047 WT27     262      MECN     N3       NG1T1   -0.460000       14.0070           0
     81048 WT27     263      MECN     C1       CG331   -0.170000       12.0110           0
     81049 WT27     263      MECN     H11      HGA3     0.090000        1.0080           0
     81050 WT27     263      MECN     H12      HGA3     0.090000        1.0080           0
     81051 WT27     263      MECN     H13      HGA3     0.090000        1.0080           0
     81052 WT27     263      MECN     C2       CG1N1    0.360000       12.0110           0
     81053 WT27     263      MECN     N3       NG1T1   -0.460000       14.0070           0
     81054 WT27     264      MECN     C1       CG331   -0.170000       12.0110           0
     81055 WT27     264      MECN     H11      HGA3     0.090000        1.0080           0
     81056 WT27     264      MECN     H12      HGA3     0.090000        1.0080           0
     81057 WT27     264      MECN     H13      HGA3     0.090000        1.0080           0
     81058 WT27     264      MECN     C2       CG1N1    0.360000       12.0110           0
     81059 WT27     264      MECN     N3       NG1T1   -0.460000       14.0070           0
     81060 WT27     265      MECN     C1       CG331   -0.170000       12.0110           0
     81061 WT27     265      MECN     H11      HGA3     0.090000        1.0080           0
     81062 WT27     265      MECN     H12      HGA3     0.090000        1.0080           0
     81063 WT27     265      MECN     H13      HGA3     0.090000        1.0080           0
     81064 WT27     265      MECN     C2       CG1N1    0.360000       12.0110           0
     81065 WT27     265      MECN     N3       NG1T1   -0.460000       14.0070           0
     81066 WT27     269      MECN     C1       CG331   -0.170000       12.0110           0
     81067 WT27     269      MECN     H11      HGA3     0.090000        1.0080           0
     81068 WT27     269      MECN     H12      HGA3     0.090000        1.0080           0
     81069 WT27     269      MECN     H13      HGA3     0.090000        1.0080           0
     81070 WT27     269      MECN     C2       CG1N1    0.360000       12.0110           0
     81071 WT27     269      MECN     N3       NG1T1   -0.460000       14.0070           0
     81072 WT27     275      MECN     C1       CG331   -0.170000       12.0110           0
     81073 WT27     275      MECN     H11      HGA3     0.090000        1.0080           0
     81074 WT27     275      MECN     H12      HGA3     0.090000        1.0080           0
     81075 WT27     275      MECN     H13      HGA3     0.090000        1.0080           0
     81076 WT27     275      MECN     C2       CG1N1    0.360000       12.0110           0
     81077 WT27     275      MECN     N3       NG1T1   -0.460000       14.0070           0
     81078 WT27     276      MECN     C1       CG331   -0.170000       12.0110           0
     81079 WT27     276      MECN     H11      HGA3     0.090000        1.0080           0
     81080 WT27     276      MECN     H12      HGA3     0.090000        1.0080           0
     81081 WT27     276      MECN     H13      HGA3     0.090000        1.0080           0
     81082 WT27     276      MECN     C2       CG1N1    0.360000       12.0110           0
     81083 WT27     276      MECN     N3       NG1T1   -0.460000       14.0070           0
     81084 WT27     278      MECN     C1       CG331   -0.170000       12.0110           0
     81085 WT27     278      MECN     H11      HGA3     0.090000        1.0080           0
     81086 WT27     278      MECN     H12      HGA3     0.090000        1.0080           0
     81087 WT27     278      MECN     H13      HGA3     0.090000        1.0080           0
     81088 WT27     278      MECN     C2       CG1N1    0.360000       12.0110           0
     81089 WT27     278      MECN     N3       NG1T1   -0.460000       14.0070           0
     81090 WT27     281      MECN     C1       CG331   -0.170000       12.0110           0
     81091 WT27     281      MECN     H11      HGA3     0.090000        1.0080           0
     81092 WT27     281      MECN     H12      HGA3     0.090000        1.0080           0
     81093 WT27     281      MECN     H13      HGA3     0.090000        1.0080           0
     81094 WT27     281      MECN     C2       CG1N1    0.360000       12.0110           0
     81095 WT27     281      MECN     N3       NG1T1   -0.460000       14.0070           0
     81096 WT27     282      MECN     C1       CG331   -0.170000       12.0110           0
     81097 WT27     282      MECN     H11      HGA3     0.090000        1.0080           0
     81098 WT27     282      MECN     H12      HGA3     0.090000        1.0080           0
     81099 WT27     282      MECN     H13      HGA3     0.090000        1.0080           0
     81100 WT27     282      MECN     C2       CG1N1    0.360000       12.0110           0
     81101 WT27     282      MECN     N3       NG1T1   -0.460000       14.0070           0
     81102 WT27     283      MECN     C1       CG331   -0.170000       12.0110           0
     81103 WT27     283      MECN     H11      HGA3     0.090000        1.0080           0
     81104 WT27     283      MECN     H12      HGA3     0.090000        1.0080           0
     81105 WT27     283      MECN     H13      HGA3     0.090000        1.0080           0
     81106 WT27     283      MECN     C2       CG1N1    0.360000       12.0110           0
     81107 WT27     283      MECN     N3       NG1T1   -0.460000       14.0070           0
     81108 WT27     285      MECN     C1       CG331   -0.170000       12.0110           0
     81109 WT27     285      MECN     H11      HGA3     0.090000        1.0080           0
     81110 WT27     285      MECN     H12      HGA3     0.090000        1.0080           0
     81111 WT27     285      MECN     H13      HGA3     0.090000        1.0080           0
     81112 WT27     285      MECN     C2       CG1N1    0.360000       12.0110           0
     81113 WT27     285      MECN     N3       NG1T1   -0.460000       14.0070           0
     81114 WT27     290      MECN     C1       CG331   -0.170000       12.0110           0
     81115 WT27     290      MECN     H11      HGA3     0.090000        1.0080           0
     81116 WT27     290      MECN     H12      HGA3     0.090000        1.0080           0
     81117 WT27     290      MECN     H13      HGA3     0.090000        1.0080           0
     81118 WT27     290      MECN     C2       CG1N1    0.360000       12.0110           0
     81119 WT27     290      MECN     N3       NG1T1   -0.460000       14.0070           0
     81120 WT27     295      MECN     C1       CG331   -0.170000       12.0110           0
     81121 WT27     295      MECN     H11      HGA3     0.090000        1.0080           0
     81122 WT27     295      MECN     H12      HGA3     0.090000        1.0080           0
     81123 WT27     295      MECN     H13      HGA3     0.090000        1.0080           0
     81124 WT27     295      MECN     C2       CG1N1    0.360000       12.0110           0
     81125 WT27     295      MECN     N3       NG1T1   -0.460000       14.0070           0
     81126 WT27     301      MECN     C1       CG331   -0.170000       12.0110           0
     81127 WT27     301      MECN     H11      HGA3     0.090000        1.0080           0
     81128 WT27     301      MECN     H12      HGA3     0.090000        1.0080           0
     81129 WT27     301      MECN     H13      HGA3     0.090000        1.0080           0
     81130 WT27     301      MECN     C2       CG1N1    0.360000       12.0110           0
     81131 WT27     301      MECN     N3       NG1T1   -0.460000       14.0070           0
     81132 WT27     302      MECN     C1       CG331   -0.170000       12.0110           0
     81133 WT27     302      MECN     H11      HGA3     0.090000        1.0080           0
     81134 WT27     302      MECN     H12      HGA3     0.090000        1.0080           0
     81135 WT27     302      MECN     H13      HGA3     0.090000        1.0080           0
     81136 WT27     302      MECN     C2       CG1N1    0.360000       12.0110           0
     81137 WT27     302      MECN     N3       NG1T1   -0.460000       14.0070           0
     81138 WT27     303      MECN     C1       CG331   -0.170000       12.0110           0
     81139 WT27     303      MECN     H11      HGA3     0.090000        1.0080           0
     81140 WT27     303      MECN     H12      HGA3     0.090000        1.0080           0
     81141 WT27     303      MECN     H13      HGA3     0.090000        1.0080           0
     81142 WT27     303      MECN     C2       CG1N1    0.360000       12.0110           0
     81143 WT27     303      MECN     N3       NG1T1   -0.460000       14.0070           0
     81144 WT27     304      MECN     C1       CG331   -0.170000       12.0110           0
     81145 WT27     304      MECN     H11      HGA3     0.090000        1.0080           0
     81146 WT27     304      MECN     H12      HGA3     0.090000        1.0080           0
     81147 WT27     304      MECN     H13      HGA3     0.090000        1.0080           0
     81148 WT27     304      MECN     C2       CG1N1    0.360000       12.0110           0
     81149 WT27     304      MECN     N3       NG1T1   -0.460000       14.0070           0
     81150 WT27     305      MECN     C1       CG331   -0.170000       12.0110           0
     81151 WT27     305      MECN     H11      HGA3     0.090000        1.0080           0
     81152 WT27     305      MECN     H12      HGA3     0.090000        1.0080           0
     81153 WT27     305      MECN     H13      HGA3     0.090000        1.0080           0
     81154 WT27     305      MECN     C2       CG1N1    0.360000       12.0110           0
     81155 WT27     305      MECN     N3       NG1T1   -0.460000       14.0070           0
     81156 WT27     307      MECN     C1       CG331   -0.170000       12.0110           0
     81157 WT27     307      MECN     H11      HGA3     0.090000        1.0080           0
     81158 WT27     307      MECN     H12      HGA3     0.090000        1.0080           0
     81159 WT27     307      MECN     H13      HGA3     0.090000        1.0080           0
     81160 WT27     307      MECN     C2       CG1N1    0.360000       12.0110           0
     81161 WT27     307      MECN     N3       NG1T1   -0.460000       14.0070           0
     81162 WT27     308      MECN     C1       CG331   -0.170000       12.0110           0
     81163 WT27     308      MECN     H11      HGA3     0.090000        1.0080           0
     81164 WT27     308      MECN     H12      HGA3     0.090000        1.0080           0
     81165 WT27     308      MECN     H13      HGA3     0.090000        1.0080           0
     81166 WT27     308      MECN     C2       CG1N1    0.360000       12.0110           0
     81167 WT27     308      MECN     N3       NG1T1   -0.460000       14.0070           0
     81168 WT27     309      MECN     C1       CG331   -0.170000       12.0110           0
     81169 WT27     309      MECN     H11      HGA3     0.090000        1.0080           0
     81170 WT27     309      MECN     H12      HGA3     0.090000        1.0080           0
     81171 WT27     309      MECN     H13      HGA3     0.090000        1.0080           0
     81172 WT27     309      MECN     C2       CG1N1    0.360000       12.0110           0
     81173 WT27     309      MECN     N3       NG1T1   -0.460000       14.0070           0
     81174 WT27     311      MECN     C1       CG331   -0.170000       12.0110           0
     81175 WT27     311      MECN     H11      HGA3     0.090000        1.0080           0
     81176 WT27     311      MECN     H12      HGA3     0.090000        1.0080           0
     81177 WT27     311      MECN     H13      HGA3     0.090000        1.0080           0
     81178 WT27     311      MECN     C2       CG1N1    0.360000       12.0110           0
     81179 WT27     311      MECN     N3       NG1T1   -0.460000       14.0070           0
     81180 WT27     314      MECN     C1       CG331   -0.170000       12.0110           0
     81181 WT27     314      MECN     H11      HGA3     0.090000        1.0080           0
     81182 WT27     314      MECN     H12      HGA3     0.090000        1.0080           0
     81183 WT27     314      MECN     H13      HGA3     0.090000        1.0080           0
     81184 WT27     314      MECN     C2       CG1N1    0.360000       12.0110           0
     81185 WT27     314      MECN     N3       NG1T1   -0.460000       14.0070           0
     81186 WT27     320      MECN     C1       CG331   -0.170000       12.0110           0
     81187 WT27     320      MECN     H11      HGA3     0.090000        1.0080           0
     81188 WT27     320      MECN     H12      HGA3     0.090000        1.0080           0
     81189 WT27     320      MECN     H13      HGA3     0.090000        1.0080           0
     81190 WT27     320      MECN     C2       CG1N1    0.360000       12.0110           0
     81191 WT27     320      MECN     N3       NG1T1   -0.460000       14.0070           0
     81192 WT27     329      MECN     C1       CG331   -0.170000       12.0110           0
     81193 WT27     329      MECN     H11      HGA3     0.090000        1.0080           0
     81194 WT27     329      MECN     H12      HGA3     0.090000        1.0080           0
     81195 WT27     329      MECN     H13      HGA3     0.090000        1.0080           0
     81196 WT27     329      MECN     C2       CG1N1    0.360000       12.0110           0
     81197 WT27     329      MECN     N3       NG1T1   -0.460000       14.0070           0
     81198 WT27     330      MECN     C1       CG331   -0.170000       12.0110           0
     81199 WT27     330      MECN     H11      HGA3     0.090000        1.0080           0
     81200 WT27     330      MECN     H12      HGA3     0.090000        1.0080           0
     81201 WT27     330      MECN     H13      HGA3     0.090000        1.0080           0
     81202 WT27     330      MECN     C2       CG1N1    0.360000       12.0110           0
     81203 WT27     330      MECN     N3       NG1T1   -0.460000       14.0070           0
     81204 WT27     331      MECN     C1       CG331   -0.170000       12.0110           0
     81205 WT27     331      MECN     H11      HGA3     0.090000        1.0080           0
     81206 WT27     331      MECN     H12      HGA3     0.090000        1.0080           0
     81207 WT27     331      MECN     H13      HGA3     0.090000        1.0080           0
     81208 WT27     331      MECN     C2       CG1N1    0.360000       12.0110           0
     81209 WT27     331      MECN     N3       NG1T1   -0.460000       14.0070           0
     81210 WT27     334      MECN     C1       CG331   -0.170000       12.0110           0
     81211 WT27     334      MECN     H11      HGA3     0.090000        1.0080           0
     81212 WT27     334      MECN     H12      HGA3     0.090000        1.0080           0
     81213 WT27     334      MECN     H13      HGA3     0.090000        1.0080           0
     81214 WT27     334      MECN     C2       CG1N1    0.360000       12.0110           0
     81215 WT27     334      MECN     N3       NG1T1   -0.460000       14.0070           0
     81216 WT27     343      MECN     C1       CG331   -0.170000       12.0110           0
     81217 WT27     343      MECN     H11      HGA3     0.090000        1.0080           0
     81218 WT27     343      MECN     H12      HGA3     0.090000        1.0080           0
     81219 WT27     343      MECN     H13      HGA3     0.090000        1.0080           0
     81220 WT27     343      MECN     C2       CG1N1    0.360000       12.0110           0
     81221 WT27     343      MECN     N3       NG1T1   -0.460000       14.0070           0
     81222 WT27     345      MECN     C1       CG331   -0.170000       12.0110           0
     81223 WT27     345      MECN     H11      HGA3     0.090000        1.0080           0
     81224 WT27     345      MECN     H12      HGA3     0.090000        1.0080           0
     81225 WT27     345      MECN     H13      HGA3     0.090000        1.0080           0
     81226 WT27     345      MECN     C2       CG1N1    0.360000       12.0110           0
     81227 WT27     345      MECN     N3       NG1T1   -0.460000       14.0070           0
     81228 WT27     346      MECN     C1       CG331   -0.170000       12.0110           0
     81229 WT27     346      MECN     H11      HGA3     0.090000        1.0080           0
     81230 WT27     346      MECN     H12      HGA3     0.090000        1.0080           0
     81231 WT27     346      MECN     H13      HGA3     0.090000        1.0080           0
     81232 WT27     346      MECN     C2       CG1N1    0.360000       12.0110           0
     81233 WT27     346      MECN     N3       NG1T1   -0.460000       14.0070           0
     81234 WT27     347      MECN     C1       CG331   -0.170000       12.0110           0
     81235 WT27     347      MECN     H11      HGA3     0.090000        1.0080           0
     81236 WT27     347      MECN     H12      HGA3     0.090000        1.0080           0
     81237 WT27     347      MECN     H13      HGA3     0.090000        1.0080           0
     81238 WT27     347      MECN     C2       CG1N1    0.360000       12.0110           0
     81239 WT27     347      MECN     N3       NG1T1   -0.460000       14.0070           0
     81240 WT27     350      MECN     C1       CG331   -0.170000       12.0110           0
     81241 WT27     350      MECN     H11      HGA3     0.090000        1.0080           0
     81242 WT27     350      MECN     H12      HGA3     0.090000        1.0080           0
     81243 WT27     350      MECN     H13      HGA3     0.090000        1.0080           0
     81244 WT27     350      MECN     C2       CG1N1    0.360000       12.0110           0
     81245 WT27     350      MECN     N3       NG1T1   -0.460000       14.0070           0
     81246 WT27     353      MECN     C1       CG331   -0.170000       12.0110           0
     81247 WT27     353      MECN     H11      HGA3     0.090000        1.0080           0
     81248 WT27     353      MECN     H12      HGA3     0.090000        1.0080           0
     81249 WT27     353      MECN     H13      HGA3     0.090000        1.0080           0
     81250 WT27     353      MECN     C2       CG1N1    0.360000       12.0110           0
     81251 WT27     353      MECN     N3       NG1T1   -0.460000       14.0070           0
     81252 WT27     355      MECN     C1       CG331   -0.170000       12.0110           0
     81253 WT27     355      MECN     H11      HGA3     0.090000        1.0080           0
     81254 WT27     355      MECN     H12      HGA3     0.090000        1.0080           0
     81255 WT27     355      MECN     H13      HGA3     0.090000        1.0080           0
     81256 WT27     355      MECN     C2       CG1N1    0.360000       12.0110           0
     81257 WT27     355      MECN     N3       NG1T1   -0.460000       14.0070           0
     81258 WT27     359      MECN     C1       CG331   -0.170000       12.0110           0
     81259 WT27     359      MECN     H11      HGA3     0.090000        1.0080           0
     81260 WT27     359      MECN     H12      HGA3     0.090000        1.0080           0
     81261 WT27     359      MECN     H13      HGA3     0.090000        1.0080           0
     81262 WT27     359      MECN     C2       CG1N1    0.360000       12.0110           0
     81263 WT27     359      MECN     N3       NG1T1   -0.460000       14.0070           0
     81264 WT27     362      MECN     C1       CG331   -0.170000       12.0110           0
     81265 WT27     362      MECN     H11      HGA3     0.090000        1.0080           0
     81266 WT27     362      MECN     H12      HGA3     0.090000        1.0080           0
     81267 WT27     362      MECN     H13      HGA3     0.090000        1.0080           0
     81268 WT27     362      MECN     C2       CG1N1    0.360000       12.0110           0
     81269 WT27     362      MECN     N3       NG1T1   -0.460000       14.0070           0
     81270 WT27     363      MECN     C1       CG331   -0.170000       12.0110           0
     81271 WT27     363      MECN     H11      HGA3     0.090000        1.0080           0
     81272 WT27     363      MECN     H12      HGA3     0.090000        1.0080           0
     81273 WT27     363      MECN     H13      HGA3     0.090000        1.0080           0
     81274 WT27     363      MECN     C2       CG1N1    0.360000       12.0110           0
     81275 WT27     363      MECN     N3       NG1T1   -0.460000       14.0070           0
     81276 WT27     364      MECN     C1       CG331   -0.170000       12.0110           0
     81277 WT27     364      MECN     H11      HGA3     0.090000        1.0080           0
     81278 WT27     364      MECN     H12      HGA3     0.090000        1.0080           0
     81279 WT27     364      MECN     H13      HGA3     0.090000        1.0080           0
     81280 WT27     364      MECN     C2       CG1N1    0.360000       12.0110           0
     81281 WT27     364      MECN     N3       NG1T1   -0.460000       14.0070           0
     81282 WT27     365      MECN     C1       CG331   -0.170000       12.0110           0
     81283 WT27     365      MECN     H11      HGA3     0.090000        1.0080           0
     81284 WT27     365      MECN     H12      HGA3     0.090000        1.0080           0
     81285 WT27     365      MECN     H13      HGA3     0.090000        1.0080           0
     81286 WT27     365      MECN     C2       CG1N1    0.360000       12.0110           0
     81287 WT27     365      MECN     N3       NG1T1   -0.460000       14.0070           0
     81288 WT27     375      MECN     C1       CG331   -0.170000       12.0110           0
     81289 WT27     375      MECN     H11      HGA3     0.090000        1.0080           0
     81290 WT27     375      MECN     H12      HGA3     0.090000        1.0080           0
     81291 WT27     375      MECN     H13      HGA3     0.090000        1.0080           0
     81292 WT27     375      MECN     C2       CG1N1    0.360000       12.0110           0
     81293 WT27     375      MECN     N3       NG1T1   -0.460000       14.0070           0
     81294 WT27     376      MECN     C1       CG331   -0.170000       12.0110           0
     81295 WT27     376      MECN     H11      HGA3     0.090000        1.0080           0
     81296 WT27     376      MECN     H12      HGA3     0.090000        1.0080           0
     81297 WT27     376      MECN     H13      HGA3     0.090000        1.0080           0
     81298 WT27     376      MECN     C2       CG1N1    0.360000       12.0110           0
     81299 WT27     376      MECN     N3       NG1T1   -0.460000       14.0070           0
     81300 WT27     377      MECN     C1       CG331   -0.170000       12.0110           0
     81301 WT27     377      MECN     H11      HGA3     0.090000        1.0080           0
     81302 WT27     377      MECN     H12      HGA3     0.090000        1.0080           0
     81303 WT27     377      MECN     H13      HGA3     0.090000        1.0080           0
     81304 WT27     377      MECN     C2       CG1N1    0.360000       12.0110           0
     81305 WT27     377      MECN     N3       NG1T1   -0.460000       14.0070           0
     81306 WT27     380      MECN     C1       CG331   -0.170000       12.0110           0
     81307 WT27     380      MECN     H11      HGA3     0.090000        1.0080           0
     81308 WT27     380      MECN     H12      HGA3     0.090000        1.0080           0
     81309 WT27     380      MECN     H13      HGA3     0.090000        1.0080           0
     81310 WT27     380      MECN     C2       CG1N1    0.360000       12.0110           0
     81311 WT27     380      MECN     N3       NG1T1   -0.460000       14.0070           0
     81312 WT27     389      MECN     C1       CG331   -0.170000       12.0110           0
     81313 WT27     389      MECN     H11      HGA3     0.090000        1.0080           0
     81314 WT27     389      MECN     H12      HGA3     0.090000        1.0080           0
     81315 WT27     389      MECN     H13      HGA3     0.090000        1.0080           0
     81316 WT27     389      MECN     C2       CG1N1    0.360000       12.0110           0
     81317 WT27     389      MECN     N3       NG1T1   -0.460000       14.0070           0
     81318 WT27     391      MECN     C1       CG331   -0.170000       12.0110           0
     81319 WT27     391      MECN     H11      HGA3     0.090000        1.0080           0
     81320 WT27     391      MECN     H12      HGA3     0.090000        1.0080           0
     81321 WT27     391      MECN     H13      HGA3     0.090000        1.0080           0
     81322 WT27     391      MECN     C2       CG1N1    0.360000       12.0110           0
     81323 WT27     391      MECN     N3       NG1T1   -0.460000       14.0070           0
     81324 WT27     393      MECN     C1       CG331   -0.170000       12.0110           0
     81325 WT27     393      MECN     H11      HGA3     0.090000        1.0080           0
     81326 WT27     393      MECN     H12      HGA3     0.090000        1.0080           0
     81327 WT27     393      MECN     H13      HGA3     0.090000        1.0080           0
     81328 WT27     393      MECN     C2       CG1N1    0.360000       12.0110           0
     81329 WT27     393      MECN     N3       NG1T1   -0.460000       14.0070           0
     81330 WT27     394      MECN     C1       CG331   -0.170000       12.0110           0
     81331 WT27     394      MECN     H11      HGA3     0.090000        1.0080           0
     81332 WT27     394      MECN     H12      HGA3     0.090000        1.0080           0
     81333 WT27     394      MECN     H13      HGA3     0.090000        1.0080           0
     81334 WT27     394      MECN     C2       CG1N1    0.360000       12.0110           0
     81335 WT27     394      MECN     N3       NG1T1   -0.460000       14.0070           0
     81336 WT27     395      MECN     C1       CG331   -0.170000       12.0110           0
     81337 WT27     395      MECN     H11      HGA3     0.090000        1.0080           0
     81338 WT27     395      MECN     H12      HGA3     0.090000        1.0080           0
     81339 WT27     395      MECN     H13      HGA3     0.090000        1.0080           0
     81340 WT27     395      MECN     C2       CG1N1    0.360000       12.0110           0
     81341 WT27     395      MECN     N3       NG1T1   -0.460000       14.0070           0
     81342 WT27     399      MECN     C1       CG331   -0.170000       12.0110           0
     81343 WT27     399      MECN     H11      HGA3     0.090000        1.0080           0
     81344 WT27     399      MECN     H12      HGA3     0.090000        1.0080           0
     81345 WT27     399      MECN     H13      HGA3     0.090000        1.0080           0
     81346 WT27     399      MECN     C2       CG1N1    0.360000       12.0110           0
     81347 WT27     399      MECN     N3       NG1T1   -0.460000       14.0070           0
     81348 WT27     405      MECN     C1       CG331   -0.170000       12.0110           0
     81349 WT27     405      MECN     H11      HGA3     0.090000        1.0080           0
     81350 WT27     405      MECN     H12      HGA3     0.090000        1.0080           0
     81351 WT27     405      MECN     H13      HGA3     0.090000        1.0080           0
     81352 WT27     405      MECN     C2       CG1N1    0.360000       12.0110           0
     81353 WT27     405      MECN     N3       NG1T1   -0.460000       14.0070           0
     81354 WT27     407      MECN     C1       CG331   -0.170000       12.0110           0
     81355 WT27     407      MECN     H11      HGA3     0.090000        1.0080           0
     81356 WT27     407      MECN     H12      HGA3     0.090000        1.0080           0
     81357 WT27     407      MECN     H13      HGA3     0.090000        1.0080           0
     81358 WT27     407      MECN     C2       CG1N1    0.360000       12.0110           0
     81359 WT27     407      MECN     N3       NG1T1   -0.460000       14.0070           0
     81360 WT27     409      MECN     C1       CG331   -0.170000       12.0110           0
     81361 WT27     409      MECN     H11      HGA3     0.090000        1.0080           0
     81362 WT27     409      MECN     H12      HGA3     0.090000        1.0080           0
     81363 WT27     409      MECN     H13      HGA3     0.090000        1.0080           0
     81364 WT27     409      MECN     C2       CG1N1    0.360000       12.0110           0
     81365 WT27     409      MECN     N3       NG1T1   -0.460000       14.0070           0
     81366 WT27     411      MECN     C1       CG331   -0.170000       12.0110           0
     81367 WT27     411      MECN     H11      HGA3     0.090000        1.0080           0
     81368 WT27     411      MECN     H12      HGA3     0.090000        1.0080           0
     81369 WT27     411      MECN     H13      HGA3     0.090000        1.0080           0
     81370 WT27     411      MECN     C2       CG1N1    0.360000       12.0110           0
     81371 WT27     411      MECN     N3       NG1T1   -0.460000       14.0070           0
     81372 WT27     413      MECN     C1       CG331   -0.170000       12.0110           0
     81373 WT27     413      MECN     H11      HGA3     0.090000        1.0080           0
     81374 WT27     413      MECN     H12      HGA3     0.090000        1.0080           0
     81375 WT27     413      MECN     H13      HGA3     0.090000        1.0080           0
     81376 WT27     413      MECN     C2       CG1N1    0.360000       12.0110           0
     81377 WT27     413      MECN     N3       NG1T1   -0.460000       14.0070           0
     81378 WT27     414      MECN     C1       CG331   -0.170000       12.0110           0
     81379 WT27     414      MECN     H11      HGA3     0.090000        1.0080           0
     81380 WT27     414      MECN     H12      HGA3     0.090000        1.0080           0
     81381 WT27     414      MECN     H13      HGA3     0.090000        1.0080           0
     81382 WT27     414      MECN     C2       CG1N1    0.360000       12.0110           0
     81383 WT27     414      MECN     N3       NG1T1   -0.460000       14.0070           0
     81384 WT27     417      MECN     C1       CG331   -0.170000       12.0110           0
     81385 WT27     417      MECN     H11      HGA3     0.090000        1.0080           0
     81386 WT27     417      MECN     H12      HGA3     0.090000        1.0080           0
     81387 WT27     417      MECN     H13      HGA3     0.090000        1.0080           0
     81388 WT27     417      MECN     C2       CG1N1    0.360000       12.0110           0
     81389 WT27     417      MECN     N3       NG1T1   -0.460000       14.0070           0
     81390 WT27     419      MECN     C1       CG331   -0.170000       12.0110           0
     81391 WT27     419      MECN     H11      HGA3     0.090000        1.0080           0
     81392 WT27     419      MECN     H12      HGA3     0.090000        1.0080           0
     81393 WT27     419      MECN     H13      HGA3     0.090000        1.0080           0
     81394 WT27     419      MECN     C2       CG1N1    0.360000       12.0110           0
     81395 WT27     419      MECN     N3       NG1T1   -0.460000       14.0070           0
     81396 WT27     422      MECN     C1       CG331   -0.170000       12.0110           0
     81397 WT27     422      MECN     H11      HGA3     0.090000        1.0080           0
     81398 WT27     422      MECN     H12      HGA3     0.090000        1.0080           0
     81399 WT27     422      MECN     H13      HGA3     0.090000        1.0080           0
     81400 WT27     422      MECN     C2       CG1N1    0.360000       12.0110           0
     81401 WT27     422      MECN     N3       NG1T1   -0.460000       14.0070           0
     81402 WT27     429      MECN     C1       CG331   -0.170000       12.0110           0
     81403 WT27     429      MECN     H11      HGA3     0.090000        1.0080           0
     81404 WT27     429      MECN     H12      HGA3     0.090000        1.0080           0
     81405 WT27     429      MECN     H13      HGA3     0.090000        1.0080           0
     81406 WT27     429      MECN     C2       CG1N1    0.360000       12.0110           0
     81407 WT27     429      MECN     N3       NG1T1   -0.460000       14.0070           0
     81408 WT27     431      MECN     C1       CG331   -0.170000       12.0110           0
     81409 WT27     431      MECN     H11      HGA3     0.090000        1.0080           0
     81410 WT27     431      MECN     H12      HGA3     0.090000        1.0080           0
     81411 WT27     431      MECN     H13      HGA3     0.090000        1.0080           0
     81412 WT27     431      MECN     C2       CG1N1    0.360000       12.0110           0
     81413 WT27     431      MECN     N3       NG1T1   -0.460000       14.0070           0
     81414 WT27     433      MECN     C1       CG331   -0.170000       12.0110           0
     81415 WT27     433      MECN     H11      HGA3     0.090000        1.0080           0
     81416 WT27     433      MECN     H12      HGA3     0.090000        1.0080           0
     81417 WT27     433      MECN     H13      HGA3     0.090000        1.0080           0
     81418 WT27     433      MECN     C2       CG1N1    0.360000       12.0110           0
     81419 WT27     433      MECN     N3       NG1T1   -0.460000       14.0070           0
     81420 WT27     434      MECN     C1       CG331   -0.170000       12.0110           0
     81421 WT27     434      MECN     H11      HGA3     0.090000        1.0080           0
     81422 WT27     434      MECN     H12      HGA3     0.090000        1.0080           0
     81423 WT27     434      MECN     H13      HGA3     0.090000        1.0080           0
     81424 WT27     434      MECN     C2       CG1N1    0.360000       12.0110           0
     81425 WT27     434      MECN     N3       NG1T1   -0.460000       14.0070           0
     81426 WT27     435      MECN     C1       CG331   -0.170000       12.0110           0
     81427 WT27     435      MECN     H11      HGA3     0.090000        1.0080           0
     81428 WT27     435      MECN     H12      HGA3     0.090000        1.0080           0
     81429 WT27     435      MECN     H13      HGA3     0.090000        1.0080           0
     81430 WT27     435      MECN     C2       CG1N1    0.360000       12.0110           0
     81431 WT27     435      MECN     N3       NG1T1   -0.460000       14.0070           0
     81432 WT27     439      MECN     C1       CG331   -0.170000       12.0110           0
     81433 WT27     439      MECN     H11      HGA3     0.090000        1.0080           0
     81434 WT27     439      MECN     H12      HGA3     0.090000        1.0080           0
     81435 WT27     439      MECN     H13      HGA3     0.090000        1.0080           0
     81436 WT27     439      MECN     C2       CG1N1    0.360000       12.0110           0
     81437 WT27     439      MECN     N3       NG1T1   -0.460000       14.0070           0
     81438 WT27     441      MECN     C1       CG331   -0.170000       12.0110           0
     81439 WT27     441      MECN     H11      HGA3     0.090000        1.0080           0
     81440 WT27     441      MECN     H12      HGA3     0.090000        1.0080           0
     81441 WT27     441      MECN     H13      HGA3     0.090000        1.0080           0
     81442 WT27     441      MECN     C2       CG1N1    0.360000       12.0110           0
     81443 WT27     441      MECN     N3       NG1T1   -0.460000       14.0070           0
     81444 WT27     443      MECN     C1       CG331   -0.170000       12.0110           0
     81445 WT27     443      MECN     H11      HGA3     0.090000        1.0080           0
     81446 WT27     443      MECN     H12      HGA3     0.090000        1.0080           0
     81447 WT27     443      MECN     H13      HGA3     0.090000        1.0080           0
     81448 WT27     443      MECN     C2       CG1N1    0.360000       12.0110           0
     81449 WT27     443      MECN     N3       NG1T1   -0.460000       14.0070           0
     81450 WT27     449      MECN     C1       CG331   -0.170000       12.0110           0
     81451 WT27     449      MECN     H11      HGA3     0.090000        1.0080           0
     81452 WT27     449      MECN     H12      HGA3     0.090000        1.0080           0
     81453 WT27     449      MECN     H13      HGA3     0.090000        1.0080           0
     81454 WT27     449      MECN     C2       CG1N1    0.360000       12.0110           0
     81455 WT27     449      MECN     N3       NG1T1   -0.460000       14.0070           0
     81456 WT27     452      MECN     C1       CG331   -0.170000       12.0110           0
     81457 WT27     452      MECN     H11      HGA3     0.090000        1.0080           0
     81458 WT27     452      MECN     H12      HGA3     0.090000        1.0080           0
     81459 WT27     452      MECN     H13      HGA3     0.090000        1.0080           0
     81460 WT27     452      MECN     C2       CG1N1    0.360000       12.0110           0
     81461 WT27     452      MECN     N3       NG1T1   -0.460000       14.0070           0
     81462 WT27     455      MECN     C1       CG331   -0.170000       12.0110           0
     81463 WT27     455      MECN     H11      HGA3     0.090000        1.0080           0
     81464 WT27     455      MECN     H12      HGA3     0.090000        1.0080           0
     81465 WT27     455      MECN     H13      HGA3     0.090000        1.0080           0
     81466 WT27     455      MECN     C2       CG1N1    0.360000       12.0110           0
     81467 WT27     455      MECN     N3       NG1T1   -0.460000       14.0070           0
     81468 WT27     456      MECN     C1       CG331   -0.170000       12.0110           0
     81469 WT27     456      MECN     H11      HGA3     0.090000        1.0080           0
     81470 WT27     456      MECN     H12      HGA3     0.090000        1.0080           0
     81471 WT27     456      MECN     H13      HGA3     0.090000        1.0080           0
     81472 WT27     456      MECN     C2       CG1N1    0.360000       12.0110           0
     81473 WT27     456      MECN     N3       NG1T1   -0.460000       14.0070           0
     81474 WT27     459      MECN     C1       CG331   -0.170000       12.0110           0
     81475 WT27     459      MECN     H11      HGA3     0.090000        1.0080           0
     81476 WT27     459      MECN     H12      HGA3     0.090000        1.0080           0
     81477 WT27     459      MECN     H13      HGA3     0.090000        1.0080           0
     81478 WT27     459      MECN     C2       CG1N1    0.360000       12.0110           0
     81479 WT27     459      MECN     N3       NG1T1   -0.460000       14.0070           0
     81480 WT27     460      MECN     C1       CG331   -0.170000       12.0110           0
     81481 WT27     460      MECN     H11      HGA3     0.090000        1.0080           0
     81482 WT27     460      MECN     H12      HGA3     0.090000        1.0080           0
     81483 WT27     460      MECN     H13      HGA3     0.090000        1.0080           0
     81484 WT27     460      MECN     C2       CG1N1    0.360000       12.0110           0
     81485 WT27     460      MECN     N3       NG1T1   -0.460000       14.0070           0
     81486 WT27     462      MECN     C1       CG331   -0.170000       12.0110           0
     81487 WT27     462      MECN     H11      HGA3     0.090000        1.0080           0
     81488 WT27     462      MECN     H12      HGA3     0.090000        1.0080           0
     81489 WT27     462      MECN     H13      HGA3     0.090000        1.0080           0
     81490 WT27     462      MECN     C2       CG1N1    0.360000       12.0110           0
     81491 WT27     462      MECN     N3       NG1T1   -0.460000       14.0070           0
     81492 WT27     463      MECN     C1       CG331   -0.170000       12.0110           0
     81493 WT27     463      MECN     H11      HGA3     0.090000        1.0080           0
     81494 WT27     463      MECN     H12      HGA3     0.090000        1.0080           0
     81495 WT27     463      MECN     H13      HGA3     0.090000        1.0080           0
     81496 WT27     463      MECN     C2       CG1N1    0.360000       12.0110           0
     81497 WT27     463      MECN     N3       NG1T1   -0.460000       14.0070           0
     81498 WT27     464      MECN     C1       CG331   -0.170000       12.0110           0
     81499 WT27     464      MECN     H11      HGA3     0.090000        1.0080           0
     81500 WT27     464      MECN     H12      HGA3     0.090000        1.0080           0
     81501 WT27     464      MECN     H13      HGA3     0.090000        1.0080           0
     81502 WT27     464      MECN     C2       CG1N1    0.360000       12.0110           0
     81503 WT27     464      MECN     N3       NG1T1   -0.460000       14.0070           0
     81504 WT27     466      MECN     C1       CG331   -0.170000       12.0110           0
     81505 WT27     466      MECN     H11      HGA3     0.090000        1.0080           0
     81506 WT27     466      MECN     H12      HGA3     0.090000        1.0080           0
     81507 WT27     466      MECN     H13      HGA3     0.090000        1.0080           0
     81508 WT27     466      MECN     C2       CG1N1    0.360000       12.0110           0
     81509 WT27     466      MECN     N3       NG1T1   -0.460000       14.0070           0
     81510 WT27     476      MECN     C1       CG331   -0.170000       12.0110           0
     81511 WT27     476      MECN     H11      HGA3     0.090000        1.0080           0
     81512 WT27     476      MECN     H12      HGA3     0.090000        1.0080           0
     81513 WT27     476      MECN     H13      HGA3     0.090000        1.0080           0
     81514 WT27     476      MECN     C2       CG1N1    0.360000       12.0110           0
     81515 WT27     476      MECN     N3       NG1T1   -0.460000       14.0070           0
     81516 WT27     479      MECN     C1       CG331   -0.170000       12.0110           0
     81517 WT27     479      MECN     H11      HGA3     0.090000        1.0080           0
     81518 WT27     479      MECN     H12      HGA3     0.090000        1.0080           0
     81519 WT27     479      MECN     H13      HGA3     0.090000        1.0080           0
     81520 WT27     479      MECN     C2       CG1N1    0.360000       12.0110           0
     81521 WT27     479      MECN     N3       NG1T1   -0.460000       14.0070           0
     81522 WT27     480      MECN     C1       CG331   -0.170000       12.0110           0
     81523 WT27     480      MECN     H11      HGA3     0.090000        1.0080           0
     81524 WT27     480      MECN     H12      HGA3     0.090000        1.0080           0
     81525 WT27     480      MECN     H13      HGA3     0.090000        1.0080           0
     81526 WT27     480      MECN     C2       CG1N1    0.360000       12.0110           0
     81527 WT27     480      MECN     N3       NG1T1   -0.460000       14.0070           0
     81528 WT27     483      MECN     C1       CG331   -0.170000       12.0110           0
     81529 WT27     483      MECN     H11      HGA3     0.090000        1.0080           0
     81530 WT27     483      MECN     H12      HGA3     0.090000        1.0080           0
     81531 WT27     483      MECN     H13      HGA3     0.090000        1.0080           0
     81532 WT27     483      MECN     C2       CG1N1    0.360000       12.0110           0
     81533 WT27     483      MECN     N3       NG1T1   -0.460000       14.0070           0
     81534 WT27     487      MECN     C1       CG331   -0.170000       12.0110           0
     81535 WT27     487      MECN     H11      HGA3     0.090000        1.0080           0
     81536 WT27     487      MECN     H12      HGA3     0.090000        1.0080           0
     81537 WT27     487      MECN     H13      HGA3     0.090000        1.0080           0
     81538 WT27     487      MECN     C2       CG1N1    0.360000       12.0110           0
     81539 WT27     487      MECN     N3       NG1T1   -0.460000       14.0070           0
     81540 WT27     491      MECN     C1       CG331   -0.170000       12.0110           0
     81541 WT27     491      MECN     H11      HGA3     0.090000        1.0080           0
     81542 WT27     491      MECN     H12      HGA3     0.090000        1.0080           0
     81543 WT27     491      MECN     H13      HGA3     0.090000        1.0080           0
     81544 WT27     491      MECN     C2       CG1N1    0.360000       12.0110           0
     81545 WT27     491      MECN     N3       NG1T1   -0.460000       14.0070           0
     81546 WT27     493      MECN     C1       CG331   -0.170000       12.0110           0
     81547 WT27     493      MECN     H11      HGA3     0.090000        1.0080           0
     81548 WT27     493      MECN     H12      HGA3     0.090000        1.0080           0
     81549 WT27     493      MECN     H13      HGA3     0.090000        1.0080           0
     81550 WT27     493      MECN     C2       CG1N1    0.360000       12.0110           0
     81551 WT27     493      MECN     N3       NG1T1   -0.460000       14.0070           0
     81552 WT27     496      MECN     C1       CG331   -0.170000       12.0110           0
     81553 WT27     496      MECN     H11      HGA3     0.090000        1.0080           0
     81554 WT27     496      MECN     H12      HGA3     0.090000        1.0080           0
     81555 WT27     496      MECN     H13      HGA3     0.090000        1.0080           0
     81556 WT27     496      MECN     C2       CG1N1    0.360000       12.0110           0
     81557 WT27     496      MECN     N3       NG1T1   -0.460000       14.0070           0
     81558 WT27     497      MECN     C1       CG331   -0.170000       12.0110           0
     81559 WT27     497      MECN     H11      HGA3     0.090000        1.0080           0
     81560 WT27     497      MECN     H12      HGA3     0.090000        1.0080           0
     81561 WT27     497      MECN     H13      HGA3     0.090000        1.0080           0
     81562 WT27     497      MECN     C2       CG1N1    0.360000       12.0110           0
     81563 WT27     497      MECN     N3       NG1T1   -0.460000       14.0070           0
     81564 WT27     499      MECN     C1       CG331   -0.170000       12.0110           0
     81565 WT27     499      MECN     H11      HGA3     0.090000        1.0080           0
     81566 WT27     499      MECN     H12      HGA3     0.090000        1.0080           0
     81567 WT27     499      MECN     H13      HGA3     0.090000        1.0080           0
     81568 WT27     499      MECN     C2       CG1N1    0.360000       12.0110           0
     81569 WT27     499      MECN     N3       NG1T1   -0.460000       14.0070           0
     81570 WT27     502      MECN     C1       CG331   -0.170000       12.0110           0
     81571 WT27     502      MECN     H11      HGA3     0.090000        1.0080           0
     81572 WT27     502      MECN     H12      HGA3     0.090000        1.0080           0
     81573 WT27     502      MECN     H13      HGA3     0.090000        1.0080           0
     81574 WT27     502      MECN     C2       CG1N1    0.360000       12.0110           0
     81575 WT27     502      MECN     N3       NG1T1   -0.460000       14.0070           0
     81576 WT27     503      MECN     C1       CG331   -0.170000       12.0110           0
     81577 WT27     503      MECN     H11      HGA3     0.090000        1.0080           0
     81578 WT27     503      MECN     H12      HGA3     0.090000        1.0080           0
     81579 WT27     503      MECN     H13      HGA3     0.090000        1.0080           0
     81580 WT27     503      MECN     C2       CG1N1    0.360000       12.0110           0
     81581 WT27     503      MECN     N3       NG1T1   -0.460000       14.0070           0
     81582 WT27     506      MECN     C1       CG331   -0.170000       12.0110           0
     81583 WT27     506      MECN     H11      HGA3     0.090000        1.0080           0
     81584 WT27     506      MECN     H12      HGA3     0.090000        1.0080           0
     81585 WT27     506      MECN     H13      HGA3     0.090000        1.0080           0
     81586 WT27     506      MECN     C2       CG1N1    0.360000       12.0110           0
     81587 WT27     506      MECN     N3       NG1T1   -0.460000       14.0070           0
     81588 WT27     507      MECN     C1       CG331   -0.170000       12.0110           0
     81589 WT27     507      MECN     H11      HGA3     0.090000        1.0080           0
     81590 WT27     507      MECN     H12      HGA3     0.090000        1.0080           0
     81591 WT27     507      MECN     H13      HGA3     0.090000        1.0080           0
     81592 WT27     507      MECN     C2       CG1N1    0.360000       12.0110           0
     81593 WT27     507      MECN     N3       NG1T1   -0.460000       14.0070           0
     81594 WT27     508      MECN     C1       CG331   -0.170000       12.0110           0
     81595 WT27     508      MECN     H11      HGA3     0.090000        1.0080           0
     81596 WT27     508      MECN     H12      HGA3     0.090000        1.0080           0
     81597 WT27     508      MECN     H13      HGA3     0.090000        1.0080           0
     81598 WT27     508      MECN     C2       CG1N1    0.360000       12.0110           0
     81599 WT27     508      MECN     N3       NG1T1   -0.460000       14.0070           0
     81600 WT27     511      MECN     C1       CG331   -0.170000       12.0110           0
     81601 WT27     511      MECN     H11      HGA3     0.090000        1.0080           0
     81602 WT27     511      MECN     H12      HGA3     0.090000        1.0080           0
     81603 WT27     511      MECN     H13      HGA3     0.090000        1.0080           0
     81604 WT27     511      MECN     C2       CG1N1    0.360000       12.0110           0
     81605 WT27     511      MECN     N3       NG1T1   -0.460000       14.0070           0
     81606 WT27     512      MECN     C1       CG331   -0.170000       12.0110           0
     81607 WT27     512      MECN     H11      HGA3     0.090000        1.0080           0
     81608 WT27     512      MECN     H12      HGA3     0.090000        1.0080           0
     81609 WT27     512      MECN     H13      HGA3     0.090000        1.0080           0
     81610 WT27     512      MECN     C2       CG1N1    0.360000       12.0110           0
     81611 WT27     512      MECN     N3       NG1T1   -0.460000       14.0070           0
     81612 WT27     514      MECN     C1       CG331   -0.170000       12.0110           0
     81613 WT27     514      MECN     H11      HGA3     0.090000        1.0080           0
     81614 WT27     514      MECN     H12      HGA3     0.090000        1.0080           0
     81615 WT27     514      MECN     H13      HGA3     0.090000        1.0080           0
     81616 WT27     514      MECN     C2       CG1N1    0.360000       12.0110           0
     81617 WT27     514      MECN     N3       NG1T1   -0.460000       14.0070           0
     81618 WT27     515      MECN     C1       CG331   -0.170000       12.0110           0
     81619 WT27     515      MECN     H11      HGA3     0.090000        1.0080           0
     81620 WT27     515      MECN     H12      HGA3     0.090000        1.0080           0
     81621 WT27     515      MECN     H13      HGA3     0.090000        1.0080           0
     81622 WT27     515      MECN     C2       CG1N1    0.360000       12.0110           0
     81623 WT27     515      MECN     N3       NG1T1   -0.460000       14.0070           0
     81624 WT27     516      MECN     C1       CG331   -0.170000       12.0110           0
     81625 WT27     516      MECN     H11      HGA3     0.090000        1.0080           0
     81626 WT27     516      MECN     H12      HGA3     0.090000        1.0080           0
     81627 WT27     516      MECN     H13      HGA3     0.090000        1.0080           0
     81628 WT27     516      MECN     C2       CG1N1    0.360000       12.0110           0
     81629 WT27     516      MECN     N3       NG1T1   -0.460000       14.0070           0
     81630 WT27     518      MECN     C1       CG331   -0.170000       12.0110           0
     81631 WT27     518      MECN     H11      HGA3     0.090000        1.0080           0
     81632 WT27     518      MECN     H12      HGA3     0.090000        1.0080           0
     81633 WT27     518      MECN     H13      HGA3     0.090000        1.0080           0
     81634 WT27     518      MECN     C2       CG1N1    0.360000       12.0110           0
     81635 WT27     518      MECN     N3       NG1T1   -0.460000       14.0070           0
     81636 WT27     521      MECN     C1       CG331   -0.170000       12.0110           0
     81637 WT27     521      MECN     H11      HGA3     0.090000        1.0080           0
     81638 WT27     521      MECN     H12      HGA3     0.090000        1.0080           0
     81639 WT27     521      MECN     H13      HGA3     0.090000        1.0080           0
     81640 WT27     521      MECN     C2       CG1N1    0.360000       12.0110           0
     81641 WT27     521      MECN     N3       NG1T1   -0.460000       14.0070           0
     81642 WT27     524      MECN     C1       CG331   -0.170000       12.0110           0
     81643 WT27     524      MECN     H11      HGA3     0.090000        1.0080           0
     81644 WT27     524      MECN     H12      HGA3     0.090000        1.0080           0
     81645 WT27     524      MECN     H13      HGA3     0.090000        1.0080           0
     81646 WT27     524      MECN     C2       CG1N1    0.360000       12.0110           0
     81647 WT27     524      MECN     N3       NG1T1   -0.460000       14.0070           0
     81648 WT27     526      MECN     C1       CG331   -0.170000       12.0110           0
     81649 WT27     526      MECN     H11      HGA3     0.090000        1.0080           0
     81650 WT27     526      MECN     H12      HGA3     0.090000        1.0080           0
     81651 WT27     526      MECN     H13      HGA3     0.090000        1.0080           0
     81652 WT27     526      MECN     C2       CG1N1    0.360000       12.0110           0
     81653 WT27     526      MECN     N3       NG1T1   -0.460000       14.0070           0
     81654 WT27     529      MECN     C1       CG331   -0.170000       12.0110           0
     81655 WT27     529      MECN     H11      HGA3     0.090000        1.0080           0
     81656 WT27     529      MECN     H12      HGA3     0.090000        1.0080           0
     81657 WT27     529      MECN     H13      HGA3     0.090000        1.0080           0
     81658 WT27     529      MECN     C2       CG1N1    0.360000       12.0110           0
     81659 WT27     529      MECN     N3       NG1T1   -0.460000       14.0070           0
     81660 WT27     533      MECN     C1       CG331   -0.170000       12.0110           0
     81661 WT27     533      MECN     H11      HGA3     0.090000        1.0080           0
     81662 WT27     533      MECN     H12      HGA3     0.090000        1.0080           0
     81663 WT27     533      MECN     H13      HGA3     0.090000        1.0080           0
     81664 WT27     533      MECN     C2       CG1N1    0.360000       12.0110           0
     81665 WT27     533      MECN     N3       NG1T1   -0.460000       14.0070           0
     81666 WT27     534      MECN     C1       CG331   -0.170000       12.0110           0
     81667 WT27     534      MECN     H11      HGA3     0.090000        1.0080           0
     81668 WT27     534      MECN     H12      HGA3     0.090000        1.0080           0
     81669 WT27     534      MECN     H13      HGA3     0.090000        1.0080           0
     81670 WT27     534      MECN     C2       CG1N1    0.360000       12.0110           0
     81671 WT27     534      MECN     N3       NG1T1   -0.460000       14.0070           0
     81672 WT27     536      MECN     C1       CG331   -0.170000       12.0110           0
     81673 WT27     536      MECN     H11      HGA3     0.090000        1.0080           0
     81674 WT27     536      MECN     H12      HGA3     0.090000        1.0080           0
     81675 WT27     536      MECN     H13      HGA3     0.090000        1.0080           0
     81676 WT27     536      MECN     C2       CG1N1    0.360000       12.0110           0
     81677 WT27     536      MECN     N3       NG1T1   -0.460000       14.0070           0
     81678 WT27     538      MECN     C1       CG331   -0.170000       12.0110           0
     81679 WT27     538      MECN     H11      HGA3     0.090000        1.0080           0
     81680 WT27     538      MECN     H12      HGA3     0.090000        1.0080           0
     81681 WT27     538      MECN     H13      HGA3     0.090000        1.0080           0
     81682 WT27     538      MECN     C2       CG1N1    0.360000       12.0110           0
     81683 WT27     538      MECN     N3       NG1T1   -0.460000       14.0070           0
     81684 WT27     539      MECN     C1       CG331   -0.170000       12.0110           0
     81685 WT27     539      MECN     H11      HGA3     0.090000        1.0080           0
     81686 WT27     539      MECN     H12      HGA3     0.090000        1.0080           0
     81687 WT27     539      MECN     H13      HGA3     0.090000        1.0080           0
     81688 WT27     539      MECN     C2       CG1N1    0.360000       12.0110           0
     81689 WT27     539      MECN     N3       NG1T1   -0.460000       14.0070           0
     81690 WT27     540      MECN     C1       CG331   -0.170000       12.0110           0
     81691 WT27     540      MECN     H11      HGA3     0.090000        1.0080           0
     81692 WT27     540      MECN     H12      HGA3     0.090000        1.0080           0
     81693 WT27     540      MECN     H13      HGA3     0.090000        1.0080           0
     81694 WT27     540      MECN     C2       CG1N1    0.360000       12.0110           0
     81695 WT27     540      MECN     N3       NG1T1   -0.460000       14.0070           0
     81696 WT27     545      MECN     C1       CG331   -0.170000       12.0110           0
     81697 WT27     545      MECN     H11      HGA3     0.090000        1.0080           0
     81698 WT27     545      MECN     H12      HGA3     0.090000        1.0080           0
     81699 WT27     545      MECN     H13      HGA3     0.090000        1.0080           0
     81700 WT27     545      MECN     C2       CG1N1    0.360000       12.0110           0
     81701 WT27     545      MECN     N3       NG1T1   -0.460000       14.0070           0
     81702 WT27     548      MECN     C1       CG331   -0.170000       12.0110           0
     81703 WT27     548      MECN     H11      HGA3     0.090000        1.0080           0
     81704 WT27     548      MECN     H12      HGA3     0.090000        1.0080           0
     81705 WT27     548      MECN     H13      HGA3     0.090000        1.0080           0
     81706 WT27     548      MECN     C2       CG1N1    0.360000       12.0110           0
     81707 WT27     548      MECN     N3       NG1T1   -0.460000       14.0070           0
     81708 WT27     549      MECN     C1       CG331   -0.170000       12.0110           0
     81709 WT27     549      MECN     H11      HGA3     0.090000        1.0080           0
     81710 WT27     549      MECN     H12      HGA3     0.090000        1.0080           0
     81711 WT27     549      MECN     H13      HGA3     0.090000        1.0080           0
     81712 WT27     549      MECN     C2       CG1N1    0.360000       12.0110           0
     81713 WT27     549      MECN     N3       NG1T1   -0.460000       14.0070           0
     81714 WT27     550      MECN     C1       CG331   -0.170000       12.0110           0
     81715 WT27     550      MECN     H11      HGA3     0.090000        1.0080           0
     81716 WT27     550      MECN     H12      HGA3     0.090000        1.0080           0
     81717 WT27     550      MECN     H13      HGA3     0.090000        1.0080           0
     81718 WT27     550      MECN     C2       CG1N1    0.360000       12.0110           0
     81719 WT27     550      MECN     N3       NG1T1   -0.460000       14.0070           0
     81720 WT27     551      MECN     C1       CG331   -0.170000       12.0110           0
     81721 WT27     551      MECN     H11      HGA3     0.090000        1.0080           0
     81722 WT27     551      MECN     H12      HGA3     0.090000        1.0080           0
     81723 WT27     551      MECN     H13      HGA3     0.090000        1.0080           0
     81724 WT27     551      MECN     C2       CG1N1    0.360000       12.0110           0
     81725 WT27     551      MECN     N3       NG1T1   -0.460000       14.0070           0
     81726 WT27     552      MECN     C1       CG331   -0.170000       12.0110           0
     81727 WT27     552      MECN     H11      HGA3     0.090000        1.0080           0
     81728 WT27     552      MECN     H12      HGA3     0.090000        1.0080           0
     81729 WT27     552      MECN     H13      HGA3     0.090000        1.0080           0
     81730 WT27     552      MECN     C2       CG1N1    0.360000       12.0110           0
     81731 WT27     552      MECN     N3       NG1T1   -0.460000       14.0070           0
     81732 WT27     559      MECN     C1       CG331   -0.170000       12.0110           0
     81733 WT27     559      MECN     H11      HGA3     0.090000        1.0080           0
     81734 WT27     559      MECN     H12      HGA3     0.090000        1.0080           0
     81735 WT27     559      MECN     H13      HGA3     0.090000        1.0080           0
     81736 WT27     559      MECN     C2       CG1N1    0.360000       12.0110           0
     81737 WT27     559      MECN     N3       NG1T1   -0.460000       14.0070           0
     81738 WT27     561      MECN     C1       CG331   -0.170000       12.0110           0
     81739 WT27     561      MECN     H11      HGA3     0.090000        1.0080           0
     81740 WT27     561      MECN     H12      HGA3     0.090000        1.0080           0
     81741 WT27     561      MECN     H13      HGA3     0.090000        1.0080           0
     81742 WT27     561      MECN     C2       CG1N1    0.360000       12.0110           0
     81743 WT27     561      MECN     N3       NG1T1   -0.460000       14.0070           0
     81744 WT27     562      MECN     C1       CG331   -0.170000       12.0110           0
     81745 WT27     562      MECN     H11      HGA3     0.090000        1.0080           0
     81746 WT27     562      MECN     H12      HGA3     0.090000        1.0080           0
     81747 WT27     562      MECN     H13      HGA3     0.090000        1.0080           0
     81748 WT27     562      MECN     C2       CG1N1    0.360000       12.0110           0
     81749 WT27     562      MECN     N3       NG1T1   -0.460000       14.0070           0
     81750 WT27     565      MECN     C1       CG331   -0.170000       12.0110           0
     81751 WT27     565      MECN     H11      HGA3     0.090000        1.0080           0
     81752 WT27     565      MECN     H12      HGA3     0.090000        1.0080           0
     81753 WT27     565      MECN     H13      HGA3     0.090000        1.0080           0
     81754 WT27     565      MECN     C2       CG1N1    0.360000       12.0110           0
     81755 WT27     565      MECN     N3       NG1T1   -0.460000       14.0070           0
     81756 WT27     572      MECN     C1       CG331   -0.170000       12.0110           0
     81757 WT27     572      MECN     H11      HGA3     0.090000        1.0080           0
     81758 WT27     572      MECN     H12      HGA3     0.090000        1.0080           0
     81759 WT27     572      MECN     H13      HGA3     0.090000        1.0080           0
     81760 WT27     572      MECN     C2       CG1N1    0.360000       12.0110           0
     81761 WT27     572      MECN     N3       NG1T1   -0.460000       14.0070           0
     81762 WT27     575      MECN     C1       CG331   -0.170000       12.0110           0
     81763 WT27     575      MECN     H11      HGA3     0.090000        1.0080           0
     81764 WT27     575      MECN     H12      HGA3     0.090000        1.0080           0
     81765 WT27     575      MECN     H13      HGA3     0.090000        1.0080           0
     81766 WT27     575      MECN     C2       CG1N1    0.360000       12.0110           0
     81767 WT27     575      MECN     N3       NG1T1   -0.460000       14.0070           0
     81768 WT27     576      MECN     C1       CG331   -0.170000       12.0110           0
     81769 WT27     576      MECN     H11      HGA3     0.090000        1.0080           0
     81770 WT27     576      MECN     H12      HGA3     0.090000        1.0080           0
     81771 WT27     576      MECN     H13      HGA3     0.090000        1.0080           0
     81772 WT27     576      MECN     C2       CG1N1    0.360000       12.0110           0
     81773 WT27     576      MECN     N3       NG1T1   -0.460000       14.0070           0
     81774 WT27     577      MECN     C1       CG331   -0.170000       12.0110           0
     81775 WT27     577      MECN     H11      HGA3     0.090000        1.0080           0
     81776 WT27     577      MECN     H12      HGA3     0.090000        1.0080           0
     81777 WT27     577      MECN     H13      HGA3     0.090000        1.0080           0
     81778 WT27     577      MECN     C2       CG1N1    0.360000       12.0110           0
     81779 WT27     577      MECN     N3       NG1T1   -0.460000       14.0070           0
     81780 WT27     582      MECN     C1       CG331   -0.170000       12.0110           0
     81781 WT27     582      MECN     H11      HGA3     0.090000        1.0080           0
     81782 WT27     582      MECN     H12      HGA3     0.090000        1.0080           0
     81783 WT27     582      MECN     H13      HGA3     0.090000        1.0080           0
     81784 WT27     582      MECN     C2       CG1N1    0.360000       12.0110           0
     81785 WT27     582      MECN     N3       NG1T1   -0.460000       14.0070           0
     81786 WT27     584      MECN     C1       CG331   -0.170000       12.0110           0
     81787 WT27     584      MECN     H11      HGA3     0.090000        1.0080           0
     81788 WT27     584      MECN     H12      HGA3     0.090000        1.0080           0
     81789 WT27     584      MECN     H13      HGA3     0.090000        1.0080           0
     81790 WT27     584      MECN     C2       CG1N1    0.360000       12.0110           0
     81791 WT27     584      MECN     N3       NG1T1   -0.460000       14.0070           0
     81792 WT27     585      MECN     C1       CG331   -0.170000       12.0110           0
     81793 WT27     585      MECN     H11      HGA3     0.090000        1.0080           0
     81794 WT27     585      MECN     H12      HGA3     0.090000        1.0080           0
     81795 WT27     585      MECN     H13      HGA3     0.090000        1.0080           0
     81796 WT27     585      MECN     C2       CG1N1    0.360000       12.0110           0
     81797 WT27     585      MECN     N3       NG1T1   -0.460000       14.0070           0
     81798 WT27     591      MECN     C1       CG331   -0.170000       12.0110           0
     81799 WT27     591      MECN     H11      HGA3     0.090000        1.0080           0
     81800 WT27     591      MECN     H12      HGA3     0.090000        1.0080           0
     81801 WT27     591      MECN     H13      HGA3     0.090000        1.0080           0
     81802 WT27     591      MECN     C2       CG1N1    0.360000       12.0110           0
     81803 WT27     591      MECN     N3       NG1T1   -0.460000       14.0070           0
     81804 WT27     592      MECN     C1       CG331   -0.170000       12.0110           0
     81805 WT27     592      MECN     H11      HGA3     0.090000        1.0080           0
     81806 WT27     592      MECN     H12      HGA3     0.090000        1.0080           0
     81807 WT27     592      MECN     H13      HGA3     0.090000        1.0080           0
     81808 WT27     592      MECN     C2       CG1N1    0.360000       12.0110           0
     81809 WT27     592      MECN     N3       NG1T1   -0.460000       14.0070           0
     81810 WT27     593      MECN     C1       CG331   -0.170000       12.0110           0
     81811 WT27     593      MECN     H11      HGA3     0.090000        1.0080           0
     81812 WT27     593      MECN     H12      HGA3     0.090000        1.0080           0
     81813 WT27     593      MECN     H13      HGA3     0.090000        1.0080           0
     81814 WT27     593      MECN     C2       CG1N1    0.360000       12.0110           0
     81815 WT27     593      MECN     N3       NG1T1   -0.460000       14.0070           0
     81816 WT27     595      MECN     C1       CG331   -0.170000       12.0110           0
     81817 WT27     595      MECN     H11      HGA3     0.090000        1.0080           0
     81818 WT27     595      MECN     H12      HGA3     0.090000        1.0080           0
     81819 WT27     595      MECN     H13      HGA3     0.090000        1.0080           0
     81820 WT27     595      MECN     C2       CG1N1    0.360000       12.0110           0
     81821 WT27     595      MECN     N3       NG1T1   -0.460000       14.0070           0
     81822 WT27     596      MECN     C1       CG331   -0.170000       12.0110           0
     81823 WT27     596      MECN     H11      HGA3     0.090000        1.0080           0
     81824 WT27     596      MECN     H12      HGA3     0.090000        1.0080           0
     81825 WT27     596      MECN     H13      HGA3     0.090000        1.0080           0
     81826 WT27     596      MECN     C2       CG1N1    0.360000       12.0110           0
     81827 WT27     596      MECN     N3       NG1T1   -0.460000       14.0070           0
     81828 WT27     597      MECN     C1       CG331   -0.170000       12.0110           0
     81829 WT27     597      MECN     H11      HGA3     0.090000        1.0080           0
     81830 WT27     597      MECN     H12      HGA3     0.090000        1.0080           0
     81831 WT27     597      MECN     H13      HGA3     0.090000        1.0080           0
     81832 WT27     597      MECN     C2       CG1N1    0.360000       12.0110           0
     81833 WT27     597      MECN     N3       NG1T1   -0.460000       14.0070           0
     81834 WT27     600      MECN     C1       CG331   -0.170000       12.0110           0
     81835 WT27     600      MECN     H11      HGA3     0.090000        1.0080           0
     81836 WT27     600      MECN     H12      HGA3     0.090000        1.0080           0
     81837 WT27     600      MECN     H13      HGA3     0.090000        1.0080           0
     81838 WT27     600      MECN     C2       CG1N1    0.360000       12.0110           0
     81839 WT27     600      MECN     N3       NG1T1   -0.460000       14.0070           0
     81840 WT27     602      MECN     C1       CG331   -0.170000       12.0110           0
     81841 WT27     602      MECN     H11      HGA3     0.090000        1.0080           0
     81842 WT27     602      MECN     H12      HGA3     0.090000        1.0080           0
     81843 WT27     602      MECN     H13      HGA3     0.090000        1.0080           0
     81844 WT27     602      MECN     C2       CG1N1    0.360000       12.0110           0
     81845 WT27     602      MECN     N3       NG1T1   -0.460000       14.0070           0
     81846 WT27     603      MECN     C1       CG331   -0.170000       12.0110           0
     81847 WT27     603      MECN     H11      HGA3     0.090000        1.0080           0
     81848 WT27     603      MECN     H12      HGA3     0.090000        1.0080           0
     81849 WT27     603      MECN     H13      HGA3     0.090000        1.0080           0
     81850 WT27     603      MECN     C2       CG1N1    0.360000       12.0110           0
     81851 WT27     603      MECN     N3       NG1T1   -0.460000       14.0070           0
     81852 WT27     604      MECN     C1       CG331   -0.170000       12.0110           0
     81853 WT27     604      MECN     H11      HGA3     0.090000        1.0080           0
     81854 WT27     604      MECN     H12      HGA3     0.090000        1.0080           0
     81855 WT27     604      MECN     H13      HGA3     0.090000        1.0080           0
     81856 WT27     604      MECN     C2       CG1N1    0.360000       12.0110           0
     81857 WT27     604      MECN     N3       NG1T1   -0.460000       14.0070           0
     81858 WT27     607      MECN     C1       CG331   -0.170000       12.0110           0
     81859 WT27     607      MECN     H11      HGA3     0.090000        1.0080           0
     81860 WT27     607      MECN     H12      HGA3     0.090000        1.0080           0
     81861 WT27     607      MECN     H13      HGA3     0.090000        1.0080           0
     81862 WT27     607      MECN     C2       CG1N1    0.360000       12.0110           0
     81863 WT27     607      MECN     N3       NG1T1   -0.460000       14.0070           0
     81864 WT27     609      MECN     C1       CG331   -0.170000       12.0110           0
     81865 WT27     609      MECN     H11      HGA3     0.090000        1.0080           0
     81866 WT27     609      MECN     H12      HGA3     0.090000        1.0080           0
     81867 WT27     609      MECN     H13      HGA3     0.090000        1.0080           0
     81868 WT27     609      MECN     C2       CG1N1    0.360000       12.0110           0
     81869 WT27     609      MECN     N3       NG1T1   -0.460000       14.0070           0
     81870 WT27     616      MECN     C1       CG331   -0.170000       12.0110           0
     81871 WT27     616      MECN     H11      HGA3     0.090000        1.0080           0
     81872 WT27     616      MECN     H12      HGA3     0.090000        1.0080           0
     81873 WT27     616      MECN     H13      HGA3     0.090000        1.0080           0
     81874 WT27     616      MECN     C2       CG1N1    0.360000       12.0110           0
     81875 WT27     616      MECN     N3       NG1T1   -0.460000       14.0070           0
     81876 WT27     619      MECN     C1       CG331   -0.170000       12.0110           0
     81877 WT27     619      MECN     H11      HGA3     0.090000        1.0080           0
     81878 WT27     619      MECN     H12      HGA3     0.090000        1.0080           0
     81879 WT27     619      MECN     H13      HGA3     0.090000        1.0080           0
     81880 WT27     619      MECN     C2       CG1N1    0.360000       12.0110           0
     81881 WT27     619      MECN     N3       NG1T1   -0.460000       14.0070           0
     81882 WT27     623      MECN     C1       CG331   -0.170000       12.0110           0
     81883 WT27     623      MECN     H11      HGA3     0.090000        1.0080           0
     81884 WT27     623      MECN     H12      HGA3     0.090000        1.0080           0
     81885 WT27     623      MECN     H13      HGA3     0.090000        1.0080           0
     81886 WT27     623      MECN     C2       CG1N1    0.360000       12.0110           0
     81887 WT27     623      MECN     N3       NG1T1   -0.460000       14.0070           0
     81888 WT27     624      MECN     C1       CG331   -0.170000       12.0110           0
     81889 WT27     624      MECN     H11      HGA3     0.090000        1.0080           0
     81890 WT27     624      MECN     H12      HGA3     0.090000        1.0080           0
     81891 WT27     624      MECN     H13      HGA3     0.090000        1.0080           0
     81892 WT27     624      MECN     C2       CG1N1    0.360000       12.0110           0
     81893 WT27     624      MECN     N3       NG1T1   -0.460000       14.0070           0
     81894 WT27     626      MECN     C1       CG331   -0.170000       12.0110           0
     81895 WT27     626      MECN     H11      HGA3     0.090000        1.0080           0
     81896 WT27     626      MECN     H12      HGA3     0.090000        1.0080           0
     81897 WT27     626      MECN     H13      HGA3     0.090000        1.0080           0
     81898 WT27     626      MECN     C2       CG1N1    0.360000       12.0110           0
     81899 WT27     626      MECN     N3       NG1T1   -0.460000       14.0070           0
     81900 WT27     628      MECN     C1       CG331   -0.170000       12.0110           0
     81901 WT27     628      MECN     H11      HGA3     0.090000        1.0080           0
     81902 WT27     628      MECN     H12      HGA3     0.090000        1.0080           0
     81903 WT27     628      MECN     H13      HGA3     0.090000        1.0080           0
     81904 WT27     628      MECN     C2       CG1N1    0.360000       12.0110           0
     81905 WT27     628      MECN     N3       NG1T1   -0.460000       14.0070           0
     81906 WT27     629      MECN     C1       CG331   -0.170000       12.0110           0
     81907 WT27     629      MECN     H11      HGA3     0.090000        1.0080           0
     81908 WT27     629      MECN     H12      HGA3     0.090000        1.0080           0
     81909 WT27     629      MECN     H13      HGA3     0.090000        1.0080           0
     81910 WT27     629      MECN     C2       CG1N1    0.360000       12.0110           0
     81911 WT27     629      MECN     N3       NG1T1   -0.460000       14.0070           0
     81912 WT27     631      MECN     C1       CG331   -0.170000       12.0110           0
     81913 WT27     631      MECN     H11      HGA3     0.090000        1.0080           0
     81914 WT27     631      MECN     H12      HGA3     0.090000        1.0080           0
     81915 WT27     631      MECN     H13      HGA3     0.090000        1.0080           0
     81916 WT27     631      MECN     C2       CG1N1    0.360000       12.0110           0
     81917 WT27     631      MECN     N3       NG1T1   -0.460000       14.0070           0
     81918 WT27     634      MECN     C1       CG331   -0.170000       12.0110           0
     81919 WT27     634      MECN     H11      HGA3     0.090000        1.0080           0
     81920 WT27     634      MECN     H12      HGA3     0.090000        1.0080           0
     81921 WT27     634      MECN     H13      HGA3     0.090000        1.0080           0
     81922 WT27     634      MECN     C2       CG1N1    0.360000       12.0110           0
     81923 WT27     634      MECN     N3       NG1T1   -0.460000       14.0070           0
     81924 WT27     635      MECN     C1       CG331   -0.170000       12.0110           0
     81925 WT27     635      MECN     H11      HGA3     0.090000        1.0080           0
     81926 WT27     635      MECN     H12      HGA3     0.090000        1.0080           0
     81927 WT27     635      MECN     H13      HGA3     0.090000        1.0080           0
     81928 WT27     635      MECN     C2       CG1N1    0.360000       12.0110           0
     81929 WT27     635      MECN     N3       NG1T1   -0.460000       14.0070           0
     81930 WT27     643      MECN     C1       CG331   -0.170000       12.0110           0
     81931 WT27     643      MECN     H11      HGA3     0.090000        1.0080           0
     81932 WT27     643      MECN     H12      HGA3     0.090000        1.0080           0
     81933 WT27     643      MECN     H13      HGA3     0.090000        1.0080           0
     81934 WT27     643      MECN     C2       CG1N1    0.360000       12.0110           0
     81935 WT27     643      MECN     N3       NG1T1   -0.460000       14.0070           0
     81936 WT27     653      MECN     C1       CG331   -0.170000       12.0110           0
     81937 WT27     653      MECN     H11      HGA3     0.090000        1.0080           0
     81938 WT27     653      MECN     H12      HGA3     0.090000        1.0080           0
     81939 WT27     653      MECN     H13      HGA3     0.090000        1.0080           0
     81940 WT27     653      MECN     C2       CG1N1    0.360000       12.0110           0
     81941 WT27     653      MECN     N3       NG1T1   -0.460000       14.0070           0
     81942 WT27     654      MECN     C1       CG331   -0.170000       12.0110           0
     81943 WT27     654      MECN     H11      HGA3     0.090000        1.0080           0
     81944 WT27     654      MECN     H12      HGA3     0.090000        1.0080           0
     81945 WT27     654      MECN     H13      HGA3     0.090000        1.0080           0
     81946 WT27     654      MECN     C2       CG1N1    0.360000       12.0110           0
     81947 WT27     654      MECN     N3       NG1T1   -0.460000       14.0070           0
     81948 WT27     660      MECN     C1       CG331   -0.170000       12.0110           0
     81949 WT27     660      MECN     H11      HGA3     0.090000        1.0080           0
     81950 WT27     660      MECN     H12      HGA3     0.090000        1.0080           0
     81951 WT27     660      MECN     H13      HGA3     0.090000        1.0080           0
     81952 WT27     660      MECN     C2       CG1N1    0.360000       12.0110           0
     81953 WT27     660      MECN     N3       NG1T1   -0.460000       14.0070           0
     81954 WT27     662      MECN     C1       CG331   -0.170000       12.0110           0
     81955 WT27     662      MECN     H11      HGA3     0.090000        1.0080           0
     81956 WT27     662      MECN     H12      HGA3     0.090000        1.0080           0
     81957 WT27     662      MECN     H13      HGA3     0.090000        1.0080           0
     81958 WT27     662      MECN     C2       CG1N1    0.360000       12.0110           0
     81959 WT27     662      MECN     N3       NG1T1   -0.460000       14.0070           0
     81960 WT27     665      MECN     C1       CG331   -0.170000       12.0110           0
     81961 WT27     665      MECN     H11      HGA3     0.090000        1.0080           0
     81962 WT27     665      MECN     H12      HGA3     0.090000        1.0080           0
     81963 WT27     665      MECN     H13      HGA3     0.090000        1.0080           0
     81964 WT27     665      MECN     C2       CG1N1    0.360000       12.0110           0
     81965 WT27     665      MECN     N3       NG1T1   -0.460000       14.0070           0
     81966 WT27     668      MECN     C1       CG331   -0.170000       12.0110           0
     81967 WT27     668      MECN     H11      HGA3     0.090000        1.0080           0
     81968 WT27     668      MECN     H12      HGA3     0.090000        1.0080           0
     81969 WT27     668      MECN     H13      HGA3     0.090000        1.0080           0
     81970 WT27     668      MECN     C2       CG1N1    0.360000       12.0110           0
     81971 WT27     668      MECN     N3       NG1T1   -0.460000       14.0070           0
     81972 WT27     669      MECN     C1       CG331   -0.170000       12.0110           0
     81973 WT27     669      MECN     H11      HGA3     0.090000        1.0080           0
     81974 WT27     669      MECN     H12      HGA3     0.090000        1.0080           0
     81975 WT27     669      MECN     H13      HGA3     0.090000        1.0080           0
     81976 WT27     669      MECN     C2       CG1N1    0.360000       12.0110           0
     81977 WT27     669      MECN     N3       NG1T1   -0.460000       14.0070           0
     81978 WT27     671      MECN     C1       CG331   -0.170000       12.0110           0
     81979 WT27     671      MECN     H11      HGA3     0.090000        1.0080           0
     81980 WT27     671      MECN     H12      HGA3     0.090000        1.0080           0
     81981 WT27     671      MECN     H13      HGA3     0.090000        1.0080           0
     81982 WT27     671      MECN     C2       CG1N1    0.360000       12.0110           0
     81983 WT27     671      MECN     N3       NG1T1   -0.460000       14.0070           0
     81984 WT27     675      MECN     C1       CG331   -0.170000       12.0110           0
     81985 WT27     675      MECN     H11      HGA3     0.090000        1.0080           0
     81986 WT27     675      MECN     H12      HGA3     0.090000        1.0080           0
     81987 WT27     675      MECN     H13      HGA3     0.090000        1.0080           0
     81988 WT27     675      MECN     C2       CG1N1    0.360000       12.0110           0
     81989 WT27     675      MECN     N3       NG1T1   -0.460000       14.0070           0
     81990 WT27     676      MECN     C1       CG331   -0.170000       12.0110           0
     81991 WT27     676      MECN     H11      HGA3     0.090000        1.0080           0
     81992 WT27     676      MECN     H12      HGA3     0.090000        1.0080           0
     81993 WT27     676      MECN     H13      HGA3     0.090000        1.0080           0
     81994 WT27     676      MECN     C2       CG1N1    0.360000       12.0110           0
     81995 WT27     676      MECN     N3       NG1T1   -0.460000       14.0070           0
     81996 WT27     677      MECN     C1       CG331   -0.170000       12.0110           0
     81997 WT27     677      MECN     H11      HGA3     0.090000        1.0080           0
     81998 WT27     677      MECN     H12      HGA3     0.090000        1.0080           0
     81999 WT27     677      MECN     H13      HGA3     0.090000        1.0080           0
     82000 WT27     677      MECN     C2       CG1N1    0.360000       12.0110           0
     82001 WT27     677      MECN     N3       NG1T1   -0.460000       14.0070           0
     82002 WT27     682      MECN     C1       CG331   -0.170000       12.0110           0
     82003 WT27     682      MECN     H11      HGA3     0.090000        1.0080           0
     82004 WT27     682      MECN     H12      HGA3     0.090000        1.0080           0
     82005 WT27     682      MECN     H13      HGA3     0.090000        1.0080           0
     82006 WT27     682      MECN     C2       CG1N1    0.360000       12.0110           0
     82007 WT27     682      MECN     N3       NG1T1   -0.460000       14.0070           0
     82008 WT27     683      MECN     C1       CG331   -0.170000       12.0110           0
     82009 WT27     683      MECN     H11      HGA3     0.090000        1.0080           0
     82010 WT27     683      MECN     H12      HGA3     0.090000        1.0080           0
     82011 WT27     683      MECN     H13      HGA3     0.090000        1.0080           0
     82012 WT27     683      MECN     C2       CG1N1    0.360000       12.0110           0
     82013 WT27     683      MECN     N3       NG1T1   -0.460000       14.0070           0
     82014 WT27     685      MECN     C1       CG331   -0.170000       12.0110           0
     82015 WT27     685      MECN     H11      HGA3     0.090000        1.0080           0
     82016 WT27     685      MECN     H12      HGA3     0.090000        1.0080           0
     82017 WT27     685      MECN     H13      HGA3     0.090000        1.0080           0
     82018 WT27     685      MECN     C2       CG1N1    0.360000       12.0110           0
     82019 WT27     685      MECN     N3       NG1T1   -0.460000       14.0070           0
     82020 WT27     686      MECN     C1       CG331   -0.170000       12.0110           0
     82021 WT27     686      MECN     H11      HGA3     0.090000        1.0080           0
     82022 WT27     686      MECN     H12      HGA3     0.090000        1.0080           0
     82023 WT27     686      MECN     H13      HGA3     0.090000        1.0080           0
     82024 WT27     686      MECN     C2       CG1N1    0.360000       12.0110           0
     82025 WT27     686      MECN     N3       NG1T1   -0.460000       14.0070           0
     82026 WT27     690      MECN     C1       CG331   -0.170000       12.0110           0
     82027 WT27     690      MECN     H11      HGA3     0.090000        1.0080           0
     82028 WT27     690      MECN     H12      HGA3     0.090000        1.0080           0
     82029 WT27     690      MECN     H13      HGA3     0.090000        1.0080           0
     82030 WT27     690      MECN     C2       CG1N1    0.360000       12.0110           0
     82031 WT27     690      MECN     N3       NG1T1   -0.460000       14.0070           0
     82032 WT27     693      MECN     C1       CG331   -0.170000       12.0110           0
     82033 WT27     693      MECN     H11      HGA3     0.090000        1.0080           0
     82034 WT27     693      MECN     H12      HGA3     0.090000        1.0080           0
     82035 WT27     693      MECN     H13      HGA3     0.090000        1.0080           0
     82036 WT27     693      MECN     C2       CG1N1    0.360000       12.0110           0
     82037 WT27     693      MECN     N3       NG1T1   -0.460000       14.0070           0
     82038 WT27     695      MECN     C1       CG331   -0.170000       12.0110           0
     82039 WT27     695      MECN     H11      HGA3     0.090000        1.0080           0
     82040 WT27     695      MECN     H12      HGA3     0.090000        1.0080           0
     82041 WT27     695      MECN     H13      HGA3     0.090000        1.0080           0
     82042 WT27     695      MECN     C2       CG1N1    0.360000       12.0110           0
     82043 WT27     695      MECN     N3       NG1T1   -0.460000       14.0070           0
     82044 WT27     696      MECN     C1       CG331   -0.170000       12.0110           0
     82045 WT27     696      MECN     H11      HGA3     0.090000        1.0080           0
     82046 WT27     696      MECN     H12      HGA3     0.090000        1.0080           0
     82047 WT27     696      MECN     H13      HGA3     0.090000        1.0080           0
     82048 WT27     696      MECN     C2       CG1N1    0.360000       12.0110           0
     82049 WT27     696      MECN     N3       NG1T1   -0.460000       14.0070           0
     82050 WT27     697      MECN     C1       CG331   -0.170000       12.0110           0
     82051 WT27     697      MECN     H11      HGA3     0.090000        1.0080           0
     82052 WT27     697      MECN     H12      HGA3     0.090000        1.0080           0
     82053 WT27     697      MECN     H13      HGA3     0.090000        1.0080           0
     82054 WT27     697      MECN     C2       CG1N1    0.360000       12.0110           0
     82055 WT27     697      MECN     N3       NG1T1   -0.460000       14.0070           0
     82056 WT27     701      MECN     C1       CG331   -0.170000       12.0110           0
     82057 WT27     701      MECN     H11      HGA3     0.090000        1.0080           0
     82058 WT27     701      MECN     H12      HGA3     0.090000        1.0080           0
     82059 WT27     701      MECN     H13      HGA3     0.090000        1.0080           0
     82060 WT27     701      MECN     C2       CG1N1    0.360000       12.0110           0
     82061 WT27     701      MECN     N3       NG1T1   -0.460000       14.0070           0
     82062 WT27     702      MECN     C1       CG331   -0.170000       12.0110           0
     82063 WT27     702      MECN     H11      HGA3     0.090000        1.0080           0
     82064 WT27     702      MECN     H12      HGA3     0.090000        1.0080           0
     82065 WT27     702      MECN     H13      HGA3     0.090000        1.0080           0
     82066 WT27     702      MECN     C2       CG1N1    0.360000       12.0110           0
     82067 WT27     702      MECN     N3       NG1T1   -0.460000       14.0070           0
     82068 WT27     707      MECN     C1       CG331   -0.170000       12.0110           0
     82069 WT27     707      MECN     H11      HGA3     0.090000        1.0080           0
     82070 WT27     707      MECN     H12      HGA3     0.090000        1.0080           0
     82071 WT27     707      MECN     H13      HGA3     0.090000        1.0080           0
     82072 WT27     707      MECN     C2       CG1N1    0.360000       12.0110           0
     82073 WT27     707      MECN     N3       NG1T1   -0.460000       14.0070           0
     82074 WT27     709      MECN     C1       CG331   -0.170000       12.0110           0
     82075 WT27     709      MECN     H11      HGA3     0.090000        1.0080           0
     82076 WT27     709      MECN     H12      HGA3     0.090000        1.0080           0
     82077 WT27     709      MECN     H13      HGA3     0.090000        1.0080           0
     82078 WT27     709      MECN     C2       CG1N1    0.360000       12.0110           0
     82079 WT27     709      MECN     N3       NG1T1   -0.460000       14.0070           0
     82080 WT27     711      MECN     C1       CG331   -0.170000       12.0110           0
     82081 WT27     711      MECN     H11      HGA3     0.090000        1.0080           0
     82082 WT27     711      MECN     H12      HGA3     0.090000        1.0080           0
     82083 WT27     711      MECN     H13      HGA3     0.090000        1.0080           0
     82084 WT27     711      MECN     C2       CG1N1    0.360000       12.0110           0
     82085 WT27     711      MECN     N3       NG1T1   -0.460000       14.0070           0
     82086 WT27     713      MECN     C1       CG331   -0.170000       12.0110           0
     82087 WT27     713      MECN     H11      HGA3     0.090000        1.0080           0
     82088 WT27     713      MECN     H12      HGA3     0.090000        1.0080           0
     82089 WT27     713      MECN     H13      HGA3     0.090000        1.0080           0
     82090 WT27     713      MECN     C2       CG1N1    0.360000       12.0110           0
     82091 WT27     713      MECN     N3       NG1T1   -0.460000       14.0070           0
     82092 WT27     714      MECN     C1       CG331   -0.170000       12.0110           0
     82093 WT27     714      MECN     H11      HGA3     0.090000        1.0080           0
     82094 WT27     714      MECN     H12      HGA3     0.090000        1.0080           0
     82095 WT27     714      MECN     H13      HGA3     0.090000        1.0080           0
     82096 WT27     714      MECN     C2       CG1N1    0.360000       12.0110           0
     82097 WT27     714      MECN     N3       NG1T1   -0.460000       14.0070           0
     82098 WT27     716      MECN     C1       CG331   -0.170000       12.0110           0
     82099 WT27     716      MECN     H11      HGA3     0.090000        1.0080           0
     82100 WT27     716      MECN     H12      HGA3     0.090000        1.0080           0
     82101 WT27     716      MECN     H13      HGA3     0.090000        1.0080           0
     82102 WT27     716      MECN     C2       CG1N1    0.360000       12.0110           0
     82103 WT27     716      MECN     N3       NG1T1   -0.460000       14.0070           0
     82104 WT27     717      MECN     C1       CG331   -0.170000       12.0110           0
     82105 WT27     717      MECN     H11      HGA3     0.090000        1.0080           0
     82106 WT27     717      MECN     H12      HGA3     0.090000        1.0080           0
     82107 WT27     717      MECN     H13      HGA3     0.090000        1.0080           0
     82108 WT27     717      MECN     C2       CG1N1    0.360000       12.0110           0
     82109 WT27     717      MECN     N3       NG1T1   -0.460000       14.0070           0
     82110 WT27     720      MECN     C1       CG331   -0.170000       12.0110           0
     82111 WT27     720      MECN     H11      HGA3     0.090000        1.0080           0
     82112 WT27     720      MECN     H12      HGA3     0.090000        1.0080           0
     82113 WT27     720      MECN     H13      HGA3     0.090000        1.0080           0
     82114 WT27     720      MECN     C2       CG1N1    0.360000       12.0110           0
     82115 WT27     720      MECN     N3       NG1T1   -0.460000       14.0070           0
     82116 WT27     729      MECN     C1       CG331   -0.170000       12.0110           0
     82117 WT27     729      MECN     H11      HGA3     0.090000        1.0080           0
     82118 WT27     729      MECN     H12      HGA3     0.090000        1.0080           0
     82119 WT27     729      MECN     H13      HGA3     0.090000        1.0080           0
     82120 WT27     729      MECN     C2       CG1N1    0.360000       12.0110           0
     82121 WT27     729      MECN     N3       NG1T1   -0.460000       14.0070           0
     82122 WT27     730      MECN     C1       CG331   -0.170000       12.0110           0
     82123 WT27     730      MECN     H11      HGA3     0.090000        1.0080           0
     82124 WT27     730      MECN     H12      HGA3     0.090000        1.0080           0
     82125 WT27     730      MECN     H13      HGA3     0.090000        1.0080           0
     82126 WT27     730      MECN     C2       CG1N1    0.360000       12.0110           0
     82127 WT27     730      MECN     N3       NG1T1   -0.460000       14.0070           0
     82128 WT27     732      MECN     C1       CG331   -0.170000       12.0110           0
     82129 WT27     732      MECN     H11      HGA3     0.090000        1.0080           0
     82130 WT27     732      MECN     H12      HGA3     0.090000        1.0080           0
     82131 WT27     732      MECN     H13      HGA3     0.090000        1.0080           0
     82132 WT27     732      MECN     C2       CG1N1    0.360000       12.0110           0
     82133 WT27     732      MECN     N3       NG1T1   -0.460000       14.0070           0
     82134 WT27     733      MECN     C1       CG331   -0.170000       12.0110           0
     82135 WT27     733      MECN     H11      HGA3     0.090000        1.0080           0
     82136 WT27     733      MECN     H12      HGA3     0.090000        1.0080           0
     82137 WT27     733      MECN     H13      HGA3     0.090000        1.0080           0
     82138 WT27     733      MECN     C2       CG1N1    0.360000       12.0110           0
     82139 WT27     733      MECN     N3       NG1T1   -0.460000       14.0070           0
     82140 WT27     734      MECN     C1       CG331   -0.170000       12.0110           0
     82141 WT27     734      MECN     H11      HGA3     0.090000        1.0080           0
     82142 WT27     734      MECN     H12      HGA3     0.090000        1.0080           0
     82143 WT27     734      MECN     H13      HGA3     0.090000        1.0080           0
     82144 WT27     734      MECN     C2       CG1N1    0.360000       12.0110           0
     82145 WT27     734      MECN     N3       NG1T1   -0.460000       14.0070           0
     82146 WT27     735      MECN     C1       CG331   -0.170000       12.0110           0
     82147 WT27     735      MECN     H11      HGA3     0.090000        1.0080           0
     82148 WT27     735      MECN     H12      HGA3     0.090000        1.0080           0
     82149 WT27     735      MECN     H13      HGA3     0.090000        1.0080           0
     82150 WT27     735      MECN     C2       CG1N1    0.360000       12.0110           0
     82151 WT27     735      MECN     N3       NG1T1   -0.460000       14.0070           0
     82152 WT27     736      MECN     C1       CG331   -0.170000       12.0110           0
     82153 WT27     736      MECN     H11      HGA3     0.090000        1.0080           0
     82154 WT27     736      MECN     H12      HGA3     0.090000        1.0080           0
     82155 WT27     736      MECN     H13      HGA3     0.090000        1.0080           0
     82156 WT27     736      MECN     C2       CG1N1    0.360000       12.0110           0
     82157 WT27     736      MECN     N3       NG1T1   -0.460000       14.0070           0
     82158 WT27     738      MECN     C1       CG331   -0.170000       12.0110           0
     82159 WT27     738      MECN     H11      HGA3     0.090000        1.0080           0
     82160 WT27     738      MECN     H12      HGA3     0.090000        1.0080           0
     82161 WT27     738      MECN     H13      HGA3     0.090000        1.0080           0
     82162 WT27     738      MECN     C2       CG1N1    0.360000       12.0110           0
     82163 WT27     738      MECN     N3       NG1T1   -0.460000       14.0070           0
     82164 WT27     739      MECN     C1       CG331   -0.170000       12.0110           0
     82165 WT27     739      MECN     H11      HGA3     0.090000        1.0080           0
     82166 WT27     739      MECN     H12      HGA3     0.090000        1.0080           0
     82167 WT27     739      MECN     H13      HGA3     0.090000        1.0080           0
     82168 WT27     739      MECN     C2       CG1N1    0.360000       12.0110           0
     82169 WT27     739      MECN     N3       NG1T1   -0.460000       14.0070           0
     82170 WT27     740      MECN     C1       CG331   -0.170000       12.0110           0
     82171 WT27     740      MECN     H11      HGA3     0.090000        1.0080           0
     82172 WT27     740      MECN     H12      HGA3     0.090000        1.0080           0
     82173 WT27     740      MECN     H13      HGA3     0.090000        1.0080           0
     82174 WT27     740      MECN     C2       CG1N1    0.360000       12.0110           0
     82175 WT27     740      MECN     N3       NG1T1   -0.460000       14.0070           0
     82176 WT27     745      MECN     C1       CG331   -0.170000       12.0110           0
     82177 WT27     745      MECN     H11      HGA3     0.090000        1.0080           0
     82178 WT27     745      MECN     H12      HGA3     0.090000        1.0080           0
     82179 WT27     745      MECN     H13      HGA3     0.090000        1.0080           0
     82180 WT27     745      MECN     C2       CG1N1    0.360000       12.0110           0
     82181 WT27     745      MECN     N3       NG1T1   -0.460000       14.0070           0
     82182 WT27     746      MECN     C1       CG331   -0.170000       12.0110           0
     82183 WT27     746      MECN     H11      HGA3     0.090000        1.0080           0
     82184 WT27     746      MECN     H12      HGA3     0.090000        1.0080           0
     82185 WT27     746      MECN     H13      HGA3     0.090000        1.0080           0
     82186 WT27     746      MECN     C2       CG1N1    0.360000       12.0110           0
     82187 WT27     746      MECN     N3       NG1T1   -0.460000       14.0070           0
     82188 WT27     750      MECN     C1       CG331   -0.170000       12.0110           0
     82189 WT27     750      MECN     H11      HGA3     0.090000        1.0080           0
     82190 WT27     750      MECN     H12      HGA3     0.090000        1.0080           0
     82191 WT27     750      MECN     H13      HGA3     0.090000        1.0080           0
     82192 WT27     750      MECN     C2       CG1N1    0.360000       12.0110           0
     82193 WT27     750      MECN     N3       NG1T1   -0.460000       14.0070           0
     82194 WT27     751      MECN     C1       CG331   -0.170000       12.0110           0
     82195 WT27     751      MECN     H11      HGA3     0.090000        1.0080           0
     82196 WT27     751      MECN     H12      HGA3     0.090000        1.0080           0
     82197 WT27     751      MECN     H13      HGA3     0.090000        1.0080           0
     82198 WT27     751      MECN     C2       CG1N1    0.360000       12.0110           0
     82199 WT27     751      MECN     N3       NG1T1   -0.460000       14.0070           0
     82200 WT27     752      MECN     C1       CG331   -0.170000       12.0110           0
     82201 WT27     752      MECN     H11      HGA3     0.090000        1.0080           0
     82202 WT27     752      MECN     H12      HGA3     0.090000        1.0080           0
     82203 WT27     752      MECN     H13      HGA3     0.090000        1.0080           0
     82204 WT27     752      MECN     C2       CG1N1    0.360000       12.0110           0
     82205 WT27     752      MECN     N3       NG1T1   -0.460000       14.0070           0
     82206 WT27     753      MECN     C1       CG331   -0.170000       12.0110           0
     82207 WT27     753      MECN     H11      HGA3     0.090000        1.0080           0
     82208 WT27     753      MECN     H12      HGA3     0.090000        1.0080           0
     82209 WT27     753      MECN     H13      HGA3     0.090000        1.0080           0
     82210 WT27     753      MECN     C2       CG1N1    0.360000       12.0110           0
     82211 WT27     753      MECN     N3       NG1T1   -0.460000       14.0070           0
     82212 WT27     759      MECN     C1       CG331   -0.170000       12.0110           0
     82213 WT27     759      MECN     H11      HGA3     0.090000        1.0080           0
     82214 WT27     759      MECN     H12      HGA3     0.090000        1.0080           0
     82215 WT27     759      MECN     H13      HGA3     0.090000        1.0080           0
     82216 WT27     759      MECN     C2       CG1N1    0.360000       12.0110           0
     82217 WT27     759      MECN     N3       NG1T1   -0.460000       14.0070           0
     82218 WT27     760      MECN     C1       CG331   -0.170000       12.0110           0
     82219 WT27     760      MECN     H11      HGA3     0.090000        1.0080           0
     82220 WT27     760      MECN     H12      HGA3     0.090000        1.0080           0
     82221 WT27     760      MECN     H13      HGA3     0.090000        1.0080           0
     82222 WT27     760      MECN     C2       CG1N1    0.360000       12.0110           0
     82223 WT27     760      MECN     N3       NG1T1   -0.460000       14.0070           0
     82224 WT27     763      MECN     C1       CG331   -0.170000       12.0110           0
     82225 WT27     763      MECN     H11      HGA3     0.090000        1.0080           0
     82226 WT27     763      MECN     H12      HGA3     0.090000        1.0080           0
     82227 WT27     763      MECN     H13      HGA3     0.090000        1.0080           0
     82228 WT27     763      MECN     C2       CG1N1    0.360000       12.0110           0
     82229 WT27     763      MECN     N3       NG1T1   -0.460000       14.0070           0
     82230 WT27     764      MECN     C1       CG331   -0.170000       12.0110           0
     82231 WT27     764      MECN     H11      HGA3     0.090000        1.0080           0
     82232 WT27     764      MECN     H12      HGA3     0.090000        1.0080           0
     82233 WT27     764      MECN     H13      HGA3     0.090000        1.0080           0
     82234 WT27     764      MECN     C2       CG1N1    0.360000       12.0110           0
     82235 WT27     764      MECN     N3       NG1T1   -0.460000       14.0070           0
     82236 WT27     766      MECN     C1       CG331   -0.170000       12.0110           0
     82237 WT27     766      MECN     H11      HGA3     0.090000        1.0080           0
     82238 WT27     766      MECN     H12      HGA3     0.090000        1.0080           0
     82239 WT27     766      MECN     H13      HGA3     0.090000        1.0080           0
     82240 WT27     766      MECN     C2       CG1N1    0.360000       12.0110           0
     82241 WT27     766      MECN     N3       NG1T1   -0.460000       14.0070           0
     82242 WT27     769      MECN     C1       CG331   -0.170000       12.0110           0
     82243 WT27     769      MECN     H11      HGA3     0.090000        1.0080           0
     82244 WT27     769      MECN     H12      HGA3     0.090000        1.0080           0
     82245 WT27     769      MECN     H13      HGA3     0.090000        1.0080           0
     82246 WT27     769      MECN     C2       CG1N1    0.360000       12.0110           0
     82247 WT27     769      MECN     N3       NG1T1   -0.460000       14.0070           0
     82248 WT27     773      MECN     C1       CG331   -0.170000       12.0110           0
     82249 WT27     773      MECN     H11      HGA3     0.090000        1.0080           0
     82250 WT27     773      MECN     H12      HGA3     0.090000        1.0080           0
     82251 WT27     773      MECN     H13      HGA3     0.090000        1.0080           0
     82252 WT27     773      MECN     C2       CG1N1    0.360000       12.0110           0
     82253 WT27     773      MECN     N3       NG1T1   -0.460000       14.0070           0
     82254 WT27     775      MECN     C1       CG331   -0.170000       12.0110           0
     82255 WT27     775      MECN     H11      HGA3     0.090000        1.0080           0
     82256 WT27     775      MECN     H12      HGA3     0.090000        1.0080           0
     82257 WT27     775      MECN     H13      HGA3     0.090000        1.0080           0
     82258 WT27     775      MECN     C2       CG1N1    0.360000       12.0110           0
     82259 WT27     775      MECN     N3       NG1T1   -0.460000       14.0070           0
     82260 WT27     779      MECN     C1       CG331   -0.170000       12.0110           0
     82261 WT27     779      MECN     H11      HGA3     0.090000        1.0080           0
     82262 WT27     779      MECN     H12      HGA3     0.090000        1.0080           0
     82263 WT27     779      MECN     H13      HGA3     0.090000        1.0080           0
     82264 WT27     779      MECN     C2       CG1N1    0.360000       12.0110           0
     82265 WT27     779      MECN     N3       NG1T1   -0.460000       14.0070           0
     82266 WT27     784      MECN     C1       CG331   -0.170000       12.0110           0
     82267 WT27     784      MECN     H11      HGA3     0.090000        1.0080           0
     82268 WT27     784      MECN     H12      HGA3     0.090000        1.0080           0
     82269 WT27     784      MECN     H13      HGA3     0.090000        1.0080           0
     82270 WT27     784      MECN     C2       CG1N1    0.360000       12.0110           0
     82271 WT27     784      MECN     N3       NG1T1   -0.460000       14.0070           0
     82272 WT27     786      MECN     C1       CG331   -0.170000       12.0110           0
     82273 WT27     786      MECN     H11      HGA3     0.090000        1.0080           0
     82274 WT27     786      MECN     H12      HGA3     0.090000        1.0080           0
     82275 WT27     786      MECN     H13      HGA3     0.090000        1.0080           0
     82276 WT27     786      MECN     C2       CG1N1    0.360000       12.0110           0
     82277 WT27     786      MECN     N3       NG1T1   -0.460000       14.0070           0
     82278 WT27     788      MECN     C1       CG331   -0.170000       12.0110           0
     82279 WT27     788      MECN     H11      HGA3     0.090000        1.0080           0
     82280 WT27     788      MECN     H12      HGA3     0.090000        1.0080           0
     82281 WT27     788      MECN     H13      HGA3     0.090000        1.0080           0
     82282 WT27     788      MECN     C2       CG1N1    0.360000       12.0110           0
     82283 WT27     788      MECN     N3       NG1T1   -0.460000       14.0070           0
     82284 WT27     792      MECN     C1       CG331   -0.170000       12.0110           0
     82285 WT27     792      MECN     H11      HGA3     0.090000        1.0080           0
     82286 WT27     792      MECN     H12      HGA3     0.090000        1.0080           0
     82287 WT27     792      MECN     H13      HGA3     0.090000        1.0080           0
     82288 WT27     792      MECN     C2       CG1N1    0.360000       12.0110           0
     82289 WT27     792      MECN     N3       NG1T1   -0.460000       14.0070           0
     82290 WT27     795      MECN     C1       CG331   -0.170000       12.0110           0
     82291 WT27     795      MECN     H11      HGA3     0.090000        1.0080           0
     82292 WT27     795      MECN     H12      HGA3     0.090000        1.0080           0
     82293 WT27     795      MECN     H13      HGA3     0.090000        1.0080           0
     82294 WT27     795      MECN     C2       CG1N1    0.360000       12.0110           0
     82295 WT27     795      MECN     N3       NG1T1   -0.460000       14.0070           0
     82296 WT27     796      MECN     C1       CG331   -0.170000       12.0110           0
     82297 WT27     796      MECN     H11      HGA3     0.090000        1.0080           0
     82298 WT27     796      MECN     H12      HGA3     0.090000        1.0080           0
     82299 WT27     796      MECN     H13      HGA3     0.090000        1.0080           0
     82300 WT27     796      MECN     C2       CG1N1    0.360000       12.0110           0
     82301 WT27     796      MECN     N3       NG1T1   -0.460000       14.0070           0
     82302 WT27     798      MECN     C1       CG331   -0.170000       12.0110           0
     82303 WT27     798      MECN     H11      HGA3     0.090000        1.0080           0
     82304 WT27     798      MECN     H12      HGA3     0.090000        1.0080           0
     82305 WT27     798      MECN     H13      HGA3     0.090000        1.0080           0
     82306 WT27     798      MECN     C2       CG1N1    0.360000       12.0110           0
     82307 WT27     798      MECN     N3       NG1T1   -0.460000       14.0070           0
     82308 WT27     801      MECN     C1       CG331   -0.170000       12.0110           0
     82309 WT27     801      MECN     H11      HGA3     0.090000        1.0080           0
     82310 WT27     801      MECN     H12      HGA3     0.090000        1.0080           0
     82311 WT27     801      MECN     H13      HGA3     0.090000        1.0080           0
     82312 WT27     801      MECN     C2       CG1N1    0.360000       12.0110           0
     82313 WT27     801      MECN     N3       NG1T1   -0.460000       14.0070           0
     82314 WT27     802      MECN     C1       CG331   -0.170000       12.0110           0
     82315 WT27     802      MECN     H11      HGA3     0.090000        1.0080           0
     82316 WT27     802      MECN     H12      HGA3     0.090000        1.0080           0
     82317 WT27     802      MECN     H13      HGA3     0.090000        1.0080           0
     82318 WT27     802      MECN     C2       CG1N1    0.360000       12.0110           0
     82319 WT27     802      MECN     N3       NG1T1   -0.460000       14.0070           0
     82320 WT27     809      MECN     C1       CG331   -0.170000       12.0110           0
     82321 WT27     809      MECN     H11      HGA3     0.090000        1.0080           0
     82322 WT27     809      MECN     H12      HGA3     0.090000        1.0080           0
     82323 WT27     809      MECN     H13      HGA3     0.090000        1.0080           0
     82324 WT27     809      MECN     C2       CG1N1    0.360000       12.0110           0
     82325 WT27     809      MECN     N3       NG1T1   -0.460000       14.0070           0
     82326 WT27     812      MECN     C1       CG331   -0.170000       12.0110           0
     82327 WT27     812      MECN     H11      HGA3     0.090000        1.0080           0
     82328 WT27     812      MECN     H12      HGA3     0.090000        1.0080           0
     82329 WT27     812      MECN     H13      HGA3     0.090000        1.0080           0
     82330 WT27     812      MECN     C2       CG1N1    0.360000       12.0110           0
     82331 WT27     812      MECN     N3       NG1T1   -0.460000       14.0070           0
     82332 WT27     813      MECN     C1       CG331   -0.170000       12.0110           0
     82333 WT27     813      MECN     H11      HGA3     0.090000        1.0080           0
     82334 WT27     813      MECN     H12      HGA3     0.090000        1.0080           0
     82335 WT27     813      MECN     H13      HGA3     0.090000        1.0080           0
     82336 WT27     813      MECN     C2       CG1N1    0.360000       12.0110           0
     82337 WT27     813      MECN     N3       NG1T1   -0.460000       14.0070           0
     82338 WT27     815      MECN     C1       CG331   -0.170000       12.0110           0
     82339 WT27     815      MECN     H11      HGA3     0.090000        1.0080           0
     82340 WT27     815      MECN     H12      HGA3     0.090000        1.0080           0
     82341 WT27     815      MECN     H13      HGA3     0.090000        1.0080           0
     82342 WT27     815      MECN     C2       CG1N1    0.360000       12.0110           0
     82343 WT27     815      MECN     N3       NG1T1   -0.460000       14.0070           0
     82344 WT27     816      MECN     C1       CG331   -0.170000       12.0110           0
     82345 WT27     816      MECN     H11      HGA3     0.090000        1.0080           0
     82346 WT27     816      MECN     H12      HGA3     0.090000        1.0080           0
     82347 WT27     816      MECN     H13      HGA3     0.090000        1.0080           0
     82348 WT27     816      MECN     C2       CG1N1    0.360000       12.0110           0
     82349 WT27     816      MECN     N3       NG1T1   -0.460000       14.0070           0
     82350 WT27     819      MECN     C1       CG331   -0.170000       12.0110           0
     82351 WT27     819      MECN     H11      HGA3     0.090000        1.0080           0
     82352 WT27     819      MECN     H12      HGA3     0.090000        1.0080           0
     82353 WT27     819      MECN     H13      HGA3     0.090000        1.0080           0
     82354 WT27     819      MECN     C2       CG1N1    0.360000       12.0110           0
     82355 WT27     819      MECN     N3       NG1T1   -0.460000       14.0070           0
     82356 WT27     820      MECN     C1       CG331   -0.170000       12.0110           0
     82357 WT27     820      MECN     H11      HGA3     0.090000        1.0080           0
     82358 WT27     820      MECN     H12      HGA3     0.090000        1.0080           0
     82359 WT27     820      MECN     H13      HGA3     0.090000        1.0080           0
     82360 WT27     820      MECN     C2       CG1N1    0.360000       12.0110           0
     82361 WT27     820      MECN     N3       NG1T1   -0.460000       14.0070           0
     82362 WT27     824      MECN     C1       CG331   -0.170000       12.0110           0
     82363 WT27     824      MECN     H11      HGA3     0.090000        1.0080           0
     82364 WT27     824      MECN     H12      HGA3     0.090000        1.0080           0
     82365 WT27     824      MECN     H13      HGA3     0.090000        1.0080           0
     82366 WT27     824      MECN     C2       CG1N1    0.360000       12.0110           0
     82367 WT27     824      MECN     N3       NG1T1   -0.460000       14.0070           0
     82368 WT27     826      MECN     C1       CG331   -0.170000       12.0110           0
     82369 WT27     826      MECN     H11      HGA3     0.090000        1.0080           0
     82370 WT27     826      MECN     H12      HGA3     0.090000        1.0080           0
     82371 WT27     826      MECN     H13      HGA3     0.090000        1.0080           0
     82372 WT27     826      MECN     C2       CG1N1    0.360000       12.0110           0
     82373 WT27     826      MECN     N3       NG1T1   -0.460000       14.0070           0
     82374 WT27     830      MECN     C1       CG331   -0.170000       12.0110           0
     82375 WT27     830      MECN     H11      HGA3     0.090000        1.0080           0
     82376 WT27     830      MECN     H12      HGA3     0.090000        1.0080           0
     82377 WT27     830      MECN     H13      HGA3     0.090000        1.0080           0
     82378 WT27     830      MECN     C2       CG1N1    0.360000       12.0110           0
     82379 WT27     830      MECN     N3       NG1T1   -0.460000       14.0070           0
     82380 WT27     831      MECN     C1       CG331   -0.170000       12.0110           0
     82381 WT27     831      MECN     H11      HGA3     0.090000        1.0080           0
     82382 WT27     831      MECN     H12      HGA3     0.090000        1.0080           0
     82383 WT27     831      MECN     H13      HGA3     0.090000        1.0080           0
     82384 WT27     831      MECN     C2       CG1N1    0.360000       12.0110           0
     82385 WT27     831      MECN     N3       NG1T1   -0.460000       14.0070           0
     82386 WT27     832      MECN     C1       CG331   -0.170000       12.0110           0
     82387 WT27     832      MECN     H11      HGA3     0.090000        1.0080           0
     82388 WT27     832      MECN     H12      HGA3     0.090000        1.0080           0
     82389 WT27     832      MECN     H13      HGA3     0.090000        1.0080           0
     82390 WT27     832      MECN     C2       CG1N1    0.360000       12.0110           0
     82391 WT27     832      MECN     N3       NG1T1   -0.460000       14.0070           0
     82392 WT27     835      MECN     C1       CG331   -0.170000       12.0110           0
     82393 WT27     835      MECN     H11      HGA3     0.090000        1.0080           0
     82394 WT27     835      MECN     H12      HGA3     0.090000        1.0080           0
     82395 WT27     835      MECN     H13      HGA3     0.090000        1.0080           0
     82396 WT27     835      MECN     C2       CG1N1    0.360000       12.0110           0
     82397 WT27     835      MECN     N3       NG1T1   -0.460000       14.0070           0
     82398 WT27     843      MECN     C1       CG331   -0.170000       12.0110           0
     82399 WT27     843      MECN     H11      HGA3     0.090000        1.0080           0
     82400 WT27     843      MECN     H12      HGA3     0.090000        1.0080           0
     82401 WT27     843      MECN     H13      HGA3     0.090000        1.0080           0
     82402 WT27     843      MECN     C2       CG1N1    0.360000       12.0110           0
     82403 WT27     843      MECN     N3       NG1T1   -0.460000       14.0070           0
     82404 WT27     844      MECN     C1       CG331   -0.170000       12.0110           0
     82405 WT27     844      MECN     H11      HGA3     0.090000        1.0080           0
     82406 WT27     844      MECN     H12      HGA3     0.090000        1.0080           0
     82407 WT27     844      MECN     H13      HGA3     0.090000        1.0080           0
     82408 WT27     844      MECN     C2       CG1N1    0.360000       12.0110           0
     82409 WT27     844      MECN     N3       NG1T1   -0.460000       14.0070           0
     82410 WT27     847      MECN     C1       CG331   -0.170000       12.0110           0
     82411 WT27     847      MECN     H11      HGA3     0.090000        1.0080           0
     82412 WT27     847      MECN     H12      HGA3     0.090000        1.0080           0
     82413 WT27     847      MECN     H13      HGA3     0.090000        1.0080           0
     82414 WT27     847      MECN     C2       CG1N1    0.360000       12.0110           0
     82415 WT27     847      MECN     N3       NG1T1   -0.460000       14.0070           0
     82416 WT27     848      MECN     C1       CG331   -0.170000       12.0110           0
     82417 WT27     848      MECN     H11      HGA3     0.090000        1.0080           0
     82418 WT27     848      MECN     H12      HGA3     0.090000        1.0080           0
     82419 WT27     848      MECN     H13      HGA3     0.090000        1.0080           0
     82420 WT27     848      MECN     C2       CG1N1    0.360000       12.0110           0
     82421 WT27     848      MECN     N3       NG1T1   -0.460000       14.0070           0
     82422 WT27     850      MECN     C1       CG331   -0.170000       12.0110           0
     82423 WT27     850      MECN     H11      HGA3     0.090000        1.0080           0
     82424 WT27     850      MECN     H12      HGA3     0.090000        1.0080           0
     82425 WT27     850      MECN     H13      HGA3     0.090000        1.0080           0
     82426 WT27     850      MECN     C2       CG1N1    0.360000       12.0110           0
     82427 WT27     850      MECN     N3       NG1T1   -0.460000       14.0070           0
     82428 WT27     851      MECN     C1       CG331   -0.170000       12.0110           0
     82429 WT27     851      MECN     H11      HGA3     0.090000        1.0080           0
     82430 WT27     851      MECN     H12      HGA3     0.090000        1.0080           0
     82431 WT27     851      MECN     H13      HGA3     0.090000        1.0080           0
     82432 WT27     851      MECN     C2       CG1N1    0.360000       12.0110           0
     82433 WT27     851      MECN     N3       NG1T1   -0.460000       14.0070           0
     82434 WT27     852      MECN     C1       CG331   -0.170000       12.0110           0
     82435 WT27     852      MECN     H11      HGA3     0.090000        1.0080           0
     82436 WT27     852      MECN     H12      HGA3     0.090000        1.0080           0
     82437 WT27     852      MECN     H13      HGA3     0.090000        1.0080           0
     82438 WT27     852      MECN     C2       CG1N1    0.360000       12.0110           0
     82439 WT27     852      MECN     N3       NG1T1   -0.460000       14.0070           0
     82440 WT27     857      MECN     C1       CG331   -0.170000       12.0110           0
     82441 WT27     857      MECN     H11      HGA3     0.090000        1.0080           0
     82442 WT27     857      MECN     H12      HGA3     0.090000        1.0080           0
     82443 WT27     857      MECN     H13      HGA3     0.090000        1.0080           0
     82444 WT27     857      MECN     C2       CG1N1    0.360000       12.0110           0
     82445 WT27     857      MECN     N3       NG1T1   -0.460000       14.0070           0
     82446 WT27     858      MECN     C1       CG331   -0.170000       12.0110           0
     82447 WT27     858      MECN     H11      HGA3     0.090000        1.0080           0
     82448 WT27     858      MECN     H12      HGA3     0.090000        1.0080           0
     82449 WT27     858      MECN     H13      HGA3     0.090000        1.0080           0
     82450 WT27     858      MECN     C2       CG1N1    0.360000       12.0110           0
     82451 WT27     858      MECN     N3       NG1T1   -0.460000       14.0070           0
     82452 WT27     865      MECN     C1       CG331   -0.170000       12.0110           0
     82453 WT27     865      MECN     H11      HGA3     0.090000        1.0080           0
     82454 WT27     865      MECN     H12      HGA3     0.090000        1.0080           0
     82455 WT27     865      MECN     H13      HGA3     0.090000        1.0080           0
     82456 WT27     865      MECN     C2       CG1N1    0.360000       12.0110           0
     82457 WT27     865      MECN     N3       NG1T1   -0.460000       14.0070           0
     82458 WT27     869      MECN     C1       CG331   -0.170000       12.0110           0
     82459 WT27     869      MECN     H11      HGA3     0.090000        1.0080           0
     82460 WT27     869      MECN     H12      HGA3     0.090000        1.0080           0
     82461 WT27     869      MECN     H13      HGA3     0.090000        1.0080           0
     82462 WT27     869      MECN     C2       CG1N1    0.360000       12.0110           0
     82463 WT27     869      MECN     N3       NG1T1   -0.460000       14.0070           0
     82464 WT27     872      MECN     C1       CG331   -0.170000       12.0110           0
     82465 WT27     872      MECN     H11      HGA3     0.090000        1.0080           0
     82466 WT27     872      MECN     H12      HGA3     0.090000        1.0080           0
     82467 WT27     872      MECN     H13      HGA3     0.090000        1.0080           0
     82468 WT27     872      MECN     C2       CG1N1    0.360000       12.0110           0
     82469 WT27     872      MECN     N3       NG1T1   -0.460000       14.0070           0
     82470 WT27     873      MECN     C1       CG331   -0.170000       12.0110           0
     82471 WT27     873      MECN     H11      HGA3     0.090000        1.0080           0
     82472 WT27     873      MECN     H12      HGA3     0.090000        1.0080           0
     82473 WT27     873      MECN     H13      HGA3     0.090000        1.0080           0
     82474 WT27     873      MECN     C2       CG1N1    0.360000       12.0110           0
     82475 WT27     873      MECN     N3       NG1T1   -0.460000       14.0070           0
     82476 WT27     874      MECN     C1       CG331   -0.170000       12.0110           0
     82477 WT27     874      MECN     H11      HGA3     0.090000        1.0080           0
     82478 WT27     874      MECN     H12      HGA3     0.090000        1.0080           0
     82479 WT27     874      MECN     H13      HGA3     0.090000        1.0080           0
     82480 WT27     874      MECN     C2       CG1N1    0.360000       12.0110           0
     82481 WT27     874      MECN     N3       NG1T1   -0.460000       14.0070           0
     82482 WT27     876      MECN     C1       CG331   -0.170000       12.0110           0
     82483 WT27     876      MECN     H11      HGA3     0.090000        1.0080           0
     82484 WT27     876      MECN     H12      HGA3     0.090000        1.0080           0
     82485 WT27     876      MECN     H13      HGA3     0.090000        1.0080           0
     82486 WT27     876      MECN     C2       CG1N1    0.360000       12.0110           0
     82487 WT27     876      MECN     N3       NG1T1   -0.460000       14.0070           0
     82488 WT27     877      MECN     C1       CG331   -0.170000       12.0110           0
     82489 WT27     877      MECN     H11      HGA3     0.090000        1.0080           0
     82490 WT27     877      MECN     H12      HGA3     0.090000        1.0080           0
     82491 WT27     877      MECN     H13      HGA3     0.090000        1.0080           0
     82492 WT27     877      MECN     C2       CG1N1    0.360000       12.0110           0
     82493 WT27     877      MECN     N3       NG1T1   -0.460000       14.0070           0
     82494 WT27     878      MECN     C1       CG331   -0.170000       12.0110           0
     82495 WT27     878      MECN     H11      HGA3     0.090000        1.0080           0
     82496 WT27     878      MECN     H12      HGA3     0.090000        1.0080           0
     82497 WT27     878      MECN     H13      HGA3     0.090000        1.0080           0
     82498 WT27     878      MECN     C2       CG1N1    0.360000       12.0110           0
     82499 WT27     878      MECN     N3       NG1T1   -0.460000       14.0070           0
     82500 WT27     880      MECN     C1       CG331   -0.170000       12.0110           0
     82501 WT27     880      MECN     H11      HGA3     0.090000        1.0080           0
     82502 WT27     880      MECN     H12      HGA3     0.090000        1.0080           0
     82503 WT27     880      MECN     H13      HGA3     0.090000        1.0080           0
     82504 WT27     880      MECN     C2       CG1N1    0.360000       12.0110           0
     82505 WT27     880      MECN     N3       NG1T1   -0.460000       14.0070           0
     82506 WT27     881      MECN     C1       CG331   -0.170000       12.0110           0
     82507 WT27     881      MECN     H11      HGA3     0.090000        1.0080           0
     82508 WT27     881      MECN     H12      HGA3     0.090000        1.0080           0
     82509 WT27     881      MECN     H13      HGA3     0.090000        1.0080           0
     82510 WT27     881      MECN     C2       CG1N1    0.360000       12.0110           0
     82511 WT27     881      MECN     N3       NG1T1   -0.460000       14.0070           0
     82512 WT27     885      MECN     C1       CG331   -0.170000       12.0110           0
     82513 WT27     885      MECN     H11      HGA3     0.090000        1.0080           0
     82514 WT27     885      MECN     H12      HGA3     0.090000        1.0080           0
     82515 WT27     885      MECN     H13      HGA3     0.090000        1.0080           0
     82516 WT27     885      MECN     C2       CG1N1    0.360000       12.0110           0
     82517 WT27     885      MECN     N3       NG1T1   -0.460000       14.0070           0
     82518 WT27     886      MECN     C1       CG331   -0.170000       12.0110           0
     82519 WT27     886      MECN     H11      HGA3     0.090000        1.0080           0
     82520 WT27     886      MECN     H12      HGA3     0.090000        1.0080           0
     82521 WT27     886      MECN     H13      HGA3     0.090000        1.0080           0
     82522 WT27     886      MECN     C2       CG1N1    0.360000       12.0110           0
     82523 WT27     886      MECN     N3       NG1T1   -0.460000       14.0070           0
     82524 WT27     901      MECN     C1       CG331   -0.170000       12.0110           0
     82525 WT27     901      MECN     H11      HGA3     0.090000        1.0080           0
     82526 WT27     901      MECN     H12      HGA3     0.090000        1.0080           0
     82527 WT27     901      MECN     H13      HGA3     0.090000        1.0080           0
     82528 WT27     901      MECN     C2       CG1N1    0.360000       12.0110           0
     82529 WT27     901      MECN     N3       NG1T1   -0.460000       14.0070           0
     82530 WT27     903      MECN     C1       CG331   -0.170000       12.0110           0
     82531 WT27     903      MECN     H11      HGA3     0.090000        1.0080           0
     82532 WT27     903      MECN     H12      HGA3     0.090000        1.0080           0
     82533 WT27     903      MECN     H13      HGA3     0.090000        1.0080           0
     82534 WT27     903      MECN     C2       CG1N1    0.360000       12.0110           0
     82535 WT27     903      MECN     N3       NG1T1   -0.460000       14.0070           0
     82536 WT27     909      MECN     C1       CG331   -0.170000       12.0110           0
     82537 WT27     909      MECN     H11      HGA3     0.090000        1.0080           0
     82538 WT27     909      MECN     H12      HGA3     0.090000        1.0080           0
     82539 WT27     909      MECN     H13      HGA3     0.090000        1.0080           0
     82540 WT27     909      MECN     C2       CG1N1    0.360000       12.0110           0
     82541 WT27     909      MECN     N3       NG1T1   -0.460000       14.0070           0
     82542 WT27     911      MECN     C1       CG331   -0.170000       12.0110           0
     82543 WT27     911      MECN     H11      HGA3     0.090000        1.0080           0
     82544 WT27     911      MECN     H12      HGA3     0.090000        1.0080           0
     82545 WT27     911      MECN     H13      HGA3     0.090000        1.0080           0
     82546 WT27     911      MECN     C2       CG1N1    0.360000       12.0110           0
     82547 WT27     911      MECN     N3       NG1T1   -0.460000       14.0070           0
     82548 WT27     912      MECN     C1       CG331   -0.170000       12.0110           0
     82549 WT27     912      MECN     H11      HGA3     0.090000        1.0080           0
     82550 WT27     912      MECN     H12      HGA3     0.090000        1.0080           0
     82551 WT27     912      MECN     H13      HGA3     0.090000        1.0080           0
     82552 WT27     912      MECN     C2       CG1N1    0.360000       12.0110           0
     82553 WT27     912      MECN     N3       NG1T1   -0.460000       14.0070           0
     82554 WT27     913      MECN     C1       CG331   -0.170000       12.0110           0
     82555 WT27     913      MECN     H11      HGA3     0.090000        1.0080           0
     82556 WT27     913      MECN     H12      HGA3     0.090000        1.0080           0
     82557 WT27     913      MECN     H13      HGA3     0.090000        1.0080           0
     82558 WT27     913      MECN     C2       CG1N1    0.360000       12.0110           0
     82559 WT27     913      MECN     N3       NG1T1   -0.460000       14.0070           0
     82560 WT27     917      MECN     C1       CG331   -0.170000       12.0110           0
     82561 WT27     917      MECN     H11      HGA3     0.090000        1.0080           0
     82562 WT27     917      MECN     H12      HGA3     0.090000        1.0080           0
     82563 WT27     917      MECN     H13      HGA3     0.090000        1.0080           0
     82564 WT27     917      MECN     C2       CG1N1    0.360000       12.0110           0
     82565 WT27     917      MECN     N3       NG1T1   -0.460000       14.0070           0
     82566 WT27     921      MECN     C1       CG331   -0.170000       12.0110           0
     82567 WT27     921      MECN     H11      HGA3     0.090000        1.0080           0
     82568 WT27     921      MECN     H12      HGA3     0.090000        1.0080           0
     82569 WT27     921      MECN     H13      HGA3     0.090000        1.0080           0
     82570 WT27     921      MECN     C2       CG1N1    0.360000       12.0110           0
     82571 WT27     921      MECN     N3       NG1T1   -0.460000       14.0070           0
     82572 WT27     923      MECN     C1       CG331   -0.170000       12.0110           0
     82573 WT27     923      MECN     H11      HGA3     0.090000        1.0080           0
     82574 WT27     923      MECN     H12      HGA3     0.090000        1.0080           0
     82575 WT27     923      MECN     H13      HGA3     0.090000        1.0080           0
     82576 WT27     923      MECN     C2       CG1N1    0.360000       12.0110           0
     82577 WT27     923      MECN     N3       NG1T1   -0.460000       14.0070           0
     82578 WT27     927      MECN     C1       CG331   -0.170000       12.0110           0
     82579 WT27     927      MECN     H11      HGA3     0.090000        1.0080           0
     82580 WT27     927      MECN     H12      HGA3     0.090000        1.0080           0
     82581 WT27     927      MECN     H13      HGA3     0.090000        1.0080           0
     82582 WT27     927      MECN     C2       CG1N1    0.360000       12.0110           0
     82583 WT27     927      MECN     N3       NG1T1   -0.460000       14.0070           0
     82584 WT27     928      MECN     C1       CG331   -0.170000       12.0110           0
     82585 WT27     928      MECN     H11      HGA3     0.090000        1.0080           0
     82586 WT27     928      MECN     H12      HGA3     0.090000        1.0080           0
     82587 WT27     928      MECN     H13      HGA3     0.090000        1.0080           0
     82588 WT27     928      MECN     C2       CG1N1    0.360000       12.0110           0
     82589 WT27     928      MECN     N3       NG1T1   -0.460000       14.0070           0
     82590 WT27     931      MECN     C1       CG331   -0.170000       12.0110           0
     82591 WT27     931      MECN     H11      HGA3     0.090000        1.0080           0
     82592 WT27     931      MECN     H12      HGA3     0.090000        1.0080           0
     82593 WT27     931      MECN     H13      HGA3     0.090000        1.0080           0
     82594 WT27     931      MECN     C2       CG1N1    0.360000       12.0110           0
     82595 WT27     931      MECN     N3       NG1T1   -0.460000       14.0070           0
     82596 WT27     932      MECN     C1       CG331   -0.170000       12.0110           0
     82597 WT27     932      MECN     H11      HGA3     0.090000        1.0080           0
     82598 WT27     932      MECN     H12      HGA3     0.090000        1.0080           0
     82599 WT27     932      MECN     H13      HGA3     0.090000        1.0080           0
     82600 WT27     932      MECN     C2       CG1N1    0.360000       12.0110           0
     82601 WT27     932      MECN     N3       NG1T1   -0.460000       14.0070           0
     82602 WT27     936      MECN     C1       CG331   -0.170000       12.0110           0
     82603 WT27     936      MECN     H11      HGA3     0.090000        1.0080           0
     82604 WT27     936      MECN     H12      HGA3     0.090000        1.0080           0
     82605 WT27     936      MECN     H13      HGA3     0.090000        1.0080           0
     82606 WT27     936      MECN     C2       CG1N1    0.360000       12.0110           0
     82607 WT27     936      MECN     N3       NG1T1   -0.460000       14.0070           0
     82608 WT27     937      MECN     C1       CG331   -0.170000       12.0110           0
     82609 WT27     937      MECN     H11      HGA3     0.090000        1.0080           0
     82610 WT27     937      MECN     H12      HGA3     0.090000        1.0080           0
     82611 WT27     937      MECN     H13      HGA3     0.090000        1.0080           0
     82612 WT27     937      MECN     C2       CG1N1    0.360000       12.0110           0
     82613 WT27     937      MECN     N3       NG1T1   -0.460000       14.0070           0
     82614 WT27     940      MECN     C1       CG331   -0.170000       12.0110           0
     82615 WT27     940      MECN     H11      HGA3     0.090000        1.0080           0
     82616 WT27     940      MECN     H12      HGA3     0.090000        1.0080           0
     82617 WT27     940      MECN     H13      HGA3     0.090000        1.0080           0
     82618 WT27     940      MECN     C2       CG1N1    0.360000       12.0110           0
     82619 WT27     940      MECN     N3       NG1T1   -0.460000       14.0070           0
     82620 WT27     942      MECN     C1       CG331   -0.170000       12.0110           0
     82621 WT27     942      MECN     H11      HGA3     0.090000        1.0080           0
     82622 WT27     942      MECN     H12      HGA3     0.090000        1.0080           0
     82623 WT27     942      MECN     H13      HGA3     0.090000        1.0080           0
     82624 WT27     942      MECN     C2       CG1N1    0.360000       12.0110           0
     82625 WT27     942      MECN     N3       NG1T1   -0.460000       14.0070           0
     82626 WT27     943      MECN     C1       CG331   -0.170000       12.0110           0
     82627 WT27     943      MECN     H11      HGA3     0.090000        1.0080           0
     82628 WT27     943      MECN     H12      HGA3     0.090000        1.0080           0
     82629 WT27     943      MECN     H13      HGA3     0.090000        1.0080           0
     82630 WT27     943      MECN     C2       CG1N1    0.360000       12.0110           0
     82631 WT27     943      MECN     N3       NG1T1   -0.460000       14.0070           0
     82632 WT27     944      MECN     C1       CG331   -0.170000       12.0110           0
     82633 WT27     944      MECN     H11      HGA3     0.090000        1.0080           0
     82634 WT27     944      MECN     H12      HGA3     0.090000        1.0080           0
     82635 WT27     944      MECN     H13      HGA3     0.090000        1.0080           0
     82636 WT27     944      MECN     C2       CG1N1    0.360000       12.0110           0
     82637 WT27     944      MECN     N3       NG1T1   -0.460000       14.0070           0
     82638 WT27     946      MECN     C1       CG331   -0.170000       12.0110           0
     82639 WT27     946      MECN     H11      HGA3     0.090000        1.0080           0
     82640 WT27     946      MECN     H12      HGA3     0.090000        1.0080           0
     82641 WT27     946      MECN     H13      HGA3     0.090000        1.0080           0
     82642 WT27     946      MECN     C2       CG1N1    0.360000       12.0110           0
     82643 WT27     946      MECN     N3       NG1T1   -0.460000       14.0070           0
     82644 WT27     949      MECN     C1       CG331   -0.170000       12.0110           0
     82645 WT27     949      MECN     H11      HGA3     0.090000        1.0080           0
     82646 WT27     949      MECN     H12      HGA3     0.090000        1.0080           0
     82647 WT27     949      MECN     H13      HGA3     0.090000        1.0080           0
     82648 WT27     949      MECN     C2       CG1N1    0.360000       12.0110           0
     82649 WT27     949      MECN     N3       NG1T1   -0.460000       14.0070           0
     82650 WT27     952      MECN     C1       CG331   -0.170000       12.0110           0
     82651 WT27     952      MECN     H11      HGA3     0.090000        1.0080           0
     82652 WT27     952      MECN     H12      HGA3     0.090000        1.0080           0
     82653 WT27     952      MECN     H13      HGA3     0.090000        1.0080           0
     82654 WT27     952      MECN     C2       CG1N1    0.360000       12.0110           0
     82655 WT27     952      MECN     N3       NG1T1   -0.460000       14.0070           0
     82656 WT27     954      MECN     C1       CG331   -0.170000       12.0110           0
     82657 WT27     954      MECN     H11      HGA3     0.090000        1.0080           0
     82658 WT27     954      MECN     H12      HGA3     0.090000        1.0080           0
     82659 WT27     954      MECN     H13      HGA3     0.090000        1.0080           0
     82660 WT27     954      MECN     C2       CG1N1    0.360000       12.0110           0
     82661 WT27     954      MECN     N3       NG1T1   -0.460000       14.0070           0
     82662 WT27     955      MECN     C1       CG331   -0.170000       12.0110           0
     82663 WT27     955      MECN     H11      HGA3     0.090000        1.0080           0
     82664 WT27     955      MECN     H12      HGA3     0.090000        1.0080           0
     82665 WT27     955      MECN     H13      HGA3     0.090000        1.0080           0
     82666 WT27     955      MECN     C2       CG1N1    0.360000       12.0110           0
     82667 WT27     955      MECN     N3       NG1T1   -0.460000       14.0070           0
     82668 WT27     962      MECN     C1       CG331   -0.170000       12.0110           0
     82669 WT27     962      MECN     H11      HGA3     0.090000        1.0080           0
     82670 WT27     962      MECN     H12      HGA3     0.090000        1.0080           0
     82671 WT27     962      MECN     H13      HGA3     0.090000        1.0080           0
     82672 WT27     962      MECN     C2       CG1N1    0.360000       12.0110           0
     82673 WT27     962      MECN     N3       NG1T1   -0.460000       14.0070           0
     82674 WT27     965      MECN     C1       CG331   -0.170000       12.0110           0
     82675 WT27     965      MECN     H11      HGA3     0.090000        1.0080           0
     82676 WT27     965      MECN     H12      HGA3     0.090000        1.0080           0
     82677 WT27     965      MECN     H13      HGA3     0.090000        1.0080           0
     82678 WT27     965      MECN     C2       CG1N1    0.360000       12.0110           0
     82679 WT27     965      MECN     N3       NG1T1   -0.460000       14.0070           0
     82680 WT27     966      MECN     C1       CG331   -0.170000       12.0110           0
     82681 WT27     966      MECN     H11      HGA3     0.090000        1.0080           0
     82682 WT27     966      MECN     H12      HGA3     0.090000        1.0080           0
     82683 WT27     966      MECN     H13      HGA3     0.090000        1.0080           0
     82684 WT27     966      MECN     C2       CG1N1    0.360000       12.0110           0
     82685 WT27     966      MECN     N3       NG1T1   -0.460000       14.0070           0
     82686 WT27     969      MECN     C1       CG331   -0.170000       12.0110           0
     82687 WT27     969      MECN     H11      HGA3     0.090000        1.0080           0
     82688 WT27     969      MECN     H12      HGA3     0.090000        1.0080           0
     82689 WT27     969      MECN     H13      HGA3     0.090000        1.0080           0
     82690 WT27     969      MECN     C2       CG1N1    0.360000       12.0110           0
     82691 WT27     969      MECN     N3       NG1T1   -0.460000       14.0070           0
     82692 WT27     970      MECN     C1       CG331   -0.170000       12.0110           0
     82693 WT27     970      MECN     H11      HGA3     0.090000        1.0080           0
     82694 WT27     970      MECN     H12      HGA3     0.090000        1.0080           0
     82695 WT27     970      MECN     H13      HGA3     0.090000        1.0080           0
     82696 WT27     970      MECN     C2       CG1N1    0.360000       12.0110           0
     82697 WT27     970      MECN     N3       NG1T1   -0.460000       14.0070           0
     82698 WT27     971      MECN     C1       CG331   -0.170000       12.0110           0
     82699 WT27     971      MECN     H11      HGA3     0.090000        1.0080           0
     82700 WT27     971      MECN     H12      HGA3     0.090000        1.0080           0
     82701 WT27     971      MECN     H13      HGA3     0.090000        1.0080           0
     82702 WT27     971      MECN     C2       CG1N1    0.360000       12.0110           0
     82703 WT27     971      MECN     N3       NG1T1   -0.460000       14.0070           0
     82704 WT27     972      MECN     C1       CG331   -0.170000       12.0110           0
     82705 WT27     972      MECN     H11      HGA3     0.090000        1.0080           0
     82706 WT27     972      MECN     H12      HGA3     0.090000        1.0080           0
     82707 WT27     972      MECN     H13      HGA3     0.090000        1.0080           0
     82708 WT27     972      MECN     C2       CG1N1    0.360000       12.0110           0
     82709 WT27     972      MECN     N3       NG1T1   -0.460000       14.0070           0
     82710 WT27     979      MECN     C1       CG331   -0.170000       12.0110           0
     82711 WT27     979      MECN     H11      HGA3     0.090000        1.0080           0
     82712 WT27     979      MECN     H12      HGA3     0.090000        1.0080           0
     82713 WT27     979      MECN     H13      HGA3     0.090000        1.0080           0
     82714 WT27     979      MECN     C2       CG1N1    0.360000       12.0110           0
     82715 WT27     979      MECN     N3       NG1T1   -0.460000       14.0070           0
     82716 WT27     980      MECN     C1       CG331   -0.170000       12.0110           0
     82717 WT27     980      MECN     H11      HGA3     0.090000        1.0080           0
     82718 WT27     980      MECN     H12      HGA3     0.090000        1.0080           0
     82719 WT27     980      MECN     H13      HGA3     0.090000        1.0080           0
     82720 WT27     980      MECN     C2       CG1N1    0.360000       12.0110           0
     82721 WT27     980      MECN     N3       NG1T1   -0.460000       14.0070           0
     82722 WT27     981      MECN     C1       CG331   -0.170000       12.0110           0
     82723 WT27     981      MECN     H11      HGA3     0.090000        1.0080           0
     82724 WT27     981      MECN     H12      HGA3     0.090000        1.0080           0
     82725 WT27     981      MECN     H13      HGA3     0.090000        1.0080           0
     82726 WT27     981      MECN     C2       CG1N1    0.360000       12.0110           0
     82727 WT27     981      MECN     N3       NG1T1   -0.460000       14.0070           0
     82728 WT27     984      MECN     C1       CG331   -0.170000       12.0110           0
     82729 WT27     984      MECN     H11      HGA3     0.090000        1.0080           0
     82730 WT27     984      MECN     H12      HGA3     0.090000        1.0080           0
     82731 WT27     984      MECN     H13      HGA3     0.090000        1.0080           0
     82732 WT27     984      MECN     C2       CG1N1    0.360000       12.0110           0
     82733 WT27     984      MECN     N3       NG1T1   -0.460000       14.0070           0
     82734 WT27     993      MECN     C1       CG331   -0.170000       12.0110           0
     82735 WT27     993      MECN     H11      HGA3     0.090000        1.0080           0
     82736 WT27     993      MECN     H12      HGA3     0.090000        1.0080           0
     82737 WT27     993      MECN     H13      HGA3     0.090000        1.0080           0
     82738 WT27     993      MECN     C2       CG1N1    0.360000       12.0110           0
     82739 WT27     993      MECN     N3       NG1T1   -0.460000       14.0070           0
     82740 WT27     996      MECN     C1       CG331   -0.170000       12.0110           0
     82741 WT27     996      MECN     H11      HGA3     0.090000        1.0080           0
     82742 WT27     996      MECN     H12      HGA3     0.090000        1.0080           0
     82743 WT27     996      MECN     H13      HGA3     0.090000        1.0080           0
     82744 WT27     996      MECN     C2       CG1N1    0.360000       12.0110           0
     82745 WT27     996      MECN     N3       NG1T1   -0.460000       14.0070           0
     82746 WT27     998      MECN     C1       CG331   -0.170000       12.0110           0
     82747 WT27     998      MECN     H11      HGA3     0.090000        1.0080           0
     82748 WT27     998      MECN     H12      HGA3     0.090000        1.0080           0
     82749 WT27     998      MECN     H13      HGA3     0.090000        1.0080           0
     82750 WT27     998      MECN     C2       CG1N1    0.360000       12.0110           0
     82751 WT27     998      MECN     N3       NG1T1   -0.460000       14.0070           0
     82752 WT27     1002     MECN     C1       CG331   -0.170000       12.0110           0
     82753 WT27     1002     MECN     H11      HGA3     0.090000        1.0080           0
     82754 WT27     1002     MECN     H12      HGA3     0.090000        1.0080           0
     82755 WT27     1002     MECN     H13      HGA3     0.090000        1.0080           0
     82756 WT27     1002     MECN     C2       CG1N1    0.360000       12.0110           0
     82757 WT27     1002     MECN     N3       NG1T1   -0.460000       14.0070           0
     82758 WT27     1004     MECN     C1       CG331   -0.170000       12.0110           0
     82759 WT27     1004     MECN     H11      HGA3     0.090000        1.0080           0
     82760 WT27     1004     MECN     H12      HGA3     0.090000        1.0080           0
     82761 WT27     1004     MECN     H13      HGA3     0.090000        1.0080           0
     82762 WT27     1004     MECN     C2       CG1N1    0.360000       12.0110           0
     82763 WT27     1004     MECN     N3       NG1T1   -0.460000       14.0070           0
     82764 WT27     1007     MECN     C1       CG331   -0.170000       12.0110           0
     82765 WT27     1007     MECN     H11      HGA3     0.090000        1.0080           0
     82766 WT27     1007     MECN     H12      HGA3     0.090000        1.0080           0
     82767 WT27     1007     MECN     H13      HGA3     0.090000        1.0080           0
     82768 WT27     1007     MECN     C2       CG1N1    0.360000       12.0110           0
     82769 WT27     1007     MECN     N3       NG1T1   -0.460000       14.0070           0
     82770 WT27     1009     MECN     C1       CG331   -0.170000       12.0110           0
     82771 WT27     1009     MECN     H11      HGA3     0.090000        1.0080           0
     82772 WT27     1009     MECN     H12      HGA3     0.090000        1.0080           0
     82773 WT27     1009     MECN     H13      HGA3     0.090000        1.0080           0
     82774 WT27     1009     MECN     C2       CG1N1    0.360000       12.0110           0
     82775 WT27     1009     MECN     N3       NG1T1   -0.460000       14.0070           0
     82776 WT27     1011     MECN     C1       CG331   -0.170000       12.0110           0
     82777 WT27     1011     MECN     H11      HGA3     0.090000        1.0080           0
     82778 WT27     1011     MECN     H12      HGA3     0.090000        1.0080           0
     82779 WT27     1011     MECN     H13      HGA3     0.090000        1.0080           0
     82780 WT27     1011     MECN     C2       CG1N1    0.360000       12.0110           0
     82781 WT27     1011     MECN     N3       NG1T1   -0.460000       14.0070           0
     82782 WT27     1013     MECN     C1       CG331   -0.170000       12.0110           0
     82783 WT27     1013     MECN     H11      HGA3     0.090000        1.0080           0
     82784 WT27     1013     MECN     H12      HGA3     0.090000        1.0080           0
     82785 WT27     1013     MECN     H13      HGA3     0.090000        1.0080           0
     82786 WT27     1013     MECN     C2       CG1N1    0.360000       12.0110           0
     82787 WT27     1013     MECN     N3       NG1T1   -0.460000       14.0070           0
     82788 WT27     1014     MECN     C1       CG331   -0.170000       12.0110           0
     82789 WT27     1014     MECN     H11      HGA3     0.090000        1.0080           0
     82790 WT27     1014     MECN     H12      HGA3     0.090000        1.0080           0
     82791 WT27     1014     MECN     H13      HGA3     0.090000        1.0080           0
     82792 WT27     1014     MECN     C2       CG1N1    0.360000       12.0110           0
     82793 WT27     1014     MECN     N3       NG1T1   -0.460000       14.0070           0
     82794 WT27     1018     MECN     C1       CG331   -0.170000       12.0110           0
     82795 WT27     1018     MECN     H11      HGA3     0.090000        1.0080           0
     82796 WT27     1018     MECN     H12      HGA3     0.090000        1.0080           0
     82797 WT27     1018     MECN     H13      HGA3     0.090000        1.0080           0
     82798 WT27     1018     MECN     C2       CG1N1    0.360000       12.0110           0
     82799 WT27     1018     MECN     N3       NG1T1   -0.460000       14.0070           0
     82800 WT27     1028     MECN     C1       CG331   -0.170000       12.0110           0
     82801 WT27     1028     MECN     H11      HGA3     0.090000        1.0080           0
     82802 WT27     1028     MECN     H12      HGA3     0.090000        1.0080           0
     82803 WT27     1028     MECN     H13      HGA3     0.090000        1.0080           0
     82804 WT27     1028     MECN     C2       CG1N1    0.360000       12.0110           0
     82805 WT27     1028     MECN     N3       NG1T1   -0.460000       14.0070           0
     82806 WT27     1031     MECN     C1       CG331   -0.170000       12.0110           0
     82807 WT27     1031     MECN     H11      HGA3     0.090000        1.0080           0
     82808 WT27     1031     MECN     H12      HGA3     0.090000        1.0080           0
     82809 WT27     1031     MECN     H13      HGA3     0.090000        1.0080           0
     82810 WT27     1031     MECN     C2       CG1N1    0.360000       12.0110           0
     82811 WT27     1031     MECN     N3       NG1T1   -0.460000       14.0070           0
     82812 WT27     1032     MECN     C1       CG331   -0.170000       12.0110           0
     82813 WT27     1032     MECN     H11      HGA3     0.090000        1.0080           0
     82814 WT27     1032     MECN     H12      HGA3     0.090000        1.0080           0
     82815 WT27     1032     MECN     H13      HGA3     0.090000        1.0080           0
     82816 WT27     1032     MECN     C2       CG1N1    0.360000       12.0110           0
     82817 WT27     1032     MECN     N3       NG1T1   -0.460000       14.0070           0
     82818 WT27     1035     MECN     C1       CG331   -0.170000       12.0110           0
     82819 WT27     1035     MECN     H11      HGA3     0.090000        1.0080           0
     82820 WT27     1035     MECN     H12      HGA3     0.090000        1.0080           0
     82821 WT27     1035     MECN     H13      HGA3     0.090000        1.0080           0
     82822 WT27     1035     MECN     C2       CG1N1    0.360000       12.0110           0
     82823 WT27     1035     MECN     N3       NG1T1   -0.460000       14.0070           0
     82824 WT27     1036     MECN     C1       CG331   -0.170000       12.0110           0
     82825 WT27     1036     MECN     H11      HGA3     0.090000        1.0080           0
     82826 WT27     1036     MECN     H12      HGA3     0.090000        1.0080           0
     82827 WT27     1036     MECN     H13      HGA3     0.090000        1.0080           0
     82828 WT27     1036     MECN     C2       CG1N1    0.360000       12.0110           0
     82829 WT27     1036     MECN     N3       NG1T1   -0.460000       14.0070           0
     82830 WT27     1041     MECN     C1       CG331   -0.170000       12.0110           0
     82831 WT27     1041     MECN     H11      HGA3     0.090000        1.0080           0
     82832 WT27     1041     MECN     H12      HGA3     0.090000        1.0080           0
     82833 WT27     1041     MECN     H13      HGA3     0.090000        1.0080           0
     82834 WT27     1041     MECN     C2       CG1N1    0.360000       12.0110           0
     82835 WT27     1041     MECN     N3       NG1T1   -0.460000       14.0070           0
     82836 WT27     1042     MECN     C1       CG331   -0.170000       12.0110           0
     82837 WT27     1042     MECN     H11      HGA3     0.090000        1.0080           0
     82838 WT27     1042     MECN     H12      HGA3     0.090000        1.0080           0
     82839 WT27     1042     MECN     H13      HGA3     0.090000        1.0080           0
     82840 WT27     1042     MECN     C2       CG1N1    0.360000       12.0110           0
     82841 WT27     1042     MECN     N3       NG1T1   -0.460000       14.0070           0
     82842 WT27     1044     MECN     C1       CG331   -0.170000       12.0110           0
     82843 WT27     1044     MECN     H11      HGA3     0.090000        1.0080           0
     82844 WT27     1044     MECN     H12      HGA3     0.090000        1.0080           0
     82845 WT27     1044     MECN     H13      HGA3     0.090000        1.0080           0
     82846 WT27     1044     MECN     C2       CG1N1    0.360000       12.0110           0
     82847 WT27     1044     MECN     N3       NG1T1   -0.460000       14.0070           0
     82848 WT27     1049     MECN     C1       CG331   -0.170000       12.0110           0
     82849 WT27     1049     MECN     H11      HGA3     0.090000        1.0080           0
     82850 WT27     1049     MECN     H12      HGA3     0.090000        1.0080           0
     82851 WT27     1049     MECN     H13      HGA3     0.090000        1.0080           0
     82852 WT27     1049     MECN     C2       CG1N1    0.360000       12.0110           0
     82853 WT27     1049     MECN     N3       NG1T1   -0.460000       14.0070           0
     82854 WT27     1056     MECN     C1       CG331   -0.170000       12.0110           0
     82855 WT27     1056     MECN     H11      HGA3     0.090000        1.0080           0
     82856 WT27     1056     MECN     H12      HGA3     0.090000        1.0080           0
     82857 WT27     1056     MECN     H13      HGA3     0.090000        1.0080           0
     82858 WT27     1056     MECN     C2       CG1N1    0.360000       12.0110           0
     82859 WT27     1056     MECN     N3       NG1T1   -0.460000       14.0070           0
     82860 WT27     1059     MECN     C1       CG331   -0.170000       12.0110           0
     82861 WT27     1059     MECN     H11      HGA3     0.090000        1.0080           0
     82862 WT27     1059     MECN     H12      HGA3     0.090000        1.0080           0
     82863 WT27     1059     MECN     H13      HGA3     0.090000        1.0080           0
     82864 WT27     1059     MECN     C2       CG1N1    0.360000       12.0110           0
     82865 WT27     1059     MECN     N3       NG1T1   -0.460000       14.0070           0
     82866 WT27     1064     MECN     C1       CG331   -0.170000       12.0110           0
     82867 WT27     1064     MECN     H11      HGA3     0.090000        1.0080           0
     82868 WT27     1064     MECN     H12      HGA3     0.090000        1.0080           0
     82869 WT27     1064     MECN     H13      HGA3     0.090000        1.0080           0
     82870 WT27     1064     MECN     C2       CG1N1    0.360000       12.0110           0
     82871 WT27     1064     MECN     N3       NG1T1   -0.460000       14.0070           0
     82872 WT27     1066     MECN     C1       CG331   -0.170000       12.0110           0
     82873 WT27     1066     MECN     H11      HGA3     0.090000        1.0080           0
     82874 WT27     1066     MECN     H12      HGA3     0.090000        1.0080           0
     82875 WT27     1066     MECN     H13      HGA3     0.090000        1.0080           0
     82876 WT27     1066     MECN     C2       CG1N1    0.360000       12.0110           0
     82877 WT27     1066     MECN     N3       NG1T1   -0.460000       14.0070           0
     82878 WT27     1067     MECN     C1       CG331   -0.170000       12.0110           0
     82879 WT27     1067     MECN     H11      HGA3     0.090000        1.0080           0
     82880 WT27     1067     MECN     H12      HGA3     0.090000        1.0080           0
     82881 WT27     1067     MECN     H13      HGA3     0.090000        1.0080           0
     82882 WT27     1067     MECN     C2       CG1N1    0.360000       12.0110           0
     82883 WT27     1067     MECN     N3       NG1T1   -0.460000       14.0070           0
     82884 WT27     1074     MECN     C1       CG331   -0.170000       12.0110           0
     82885 WT27     1074     MECN     H11      HGA3     0.090000        1.0080           0
     82886 WT27     1074     MECN     H12      HGA3     0.090000        1.0080           0
     82887 WT27     1074     MECN     H13      HGA3     0.090000        1.0080           0
     82888 WT27     1074     MECN     C2       CG1N1    0.360000       12.0110           0
     82889 WT27     1074     MECN     N3       NG1T1   -0.460000       14.0070           0
     82890 WT27     1076     MECN     C1       CG331   -0.170000       12.0110           0
     82891 WT27     1076     MECN     H11      HGA3     0.090000        1.0080           0
     82892 WT27     1076     MECN     H12      HGA3     0.090000        1.0080           0
     82893 WT27     1076     MECN     H13      HGA3     0.090000        1.0080           0
     82894 WT27     1076     MECN     C2       CG1N1    0.360000       12.0110           0
     82895 WT27     1076     MECN     N3       NG1T1   -0.460000       14.0070           0
     82896 WT27     1079     MECN     C1       CG331   -0.170000       12.0110           0
     82897 WT27     1079     MECN     H11      HGA3     0.090000        1.0080           0
     82898 WT27     1079     MECN     H12      HGA3     0.090000        1.0080           0
     82899 WT27     1079     MECN     H13      HGA3     0.090000        1.0080           0
     82900 WT27     1079     MECN     C2       CG1N1    0.360000       12.0110           0
     82901 WT27     1079     MECN     N3       NG1T1   -0.460000       14.0070           0
     82902 WT27     1082     MECN     C1       CG331   -0.170000       12.0110           0
     82903 WT27     1082     MECN     H11      HGA3     0.090000        1.0080           0
     82904 WT27     1082     MECN     H12      HGA3     0.090000        1.0080           0
     82905 WT27     1082     MECN     H13      HGA3     0.090000        1.0080           0
     82906 WT27     1082     MECN     C2       CG1N1    0.360000       12.0110           0
     82907 WT27     1082     MECN     N3       NG1T1   -0.460000       14.0070           0
     82908 WT27     1086     MECN     C1       CG331   -0.170000       12.0110           0
     82909 WT27     1086     MECN     H11      HGA3     0.090000        1.0080           0
     82910 WT27     1086     MECN     H12      HGA3     0.090000        1.0080           0
     82911 WT27     1086     MECN     H13      HGA3     0.090000        1.0080           0
     82912 WT27     1086     MECN     C2       CG1N1    0.360000       12.0110           0
     82913 WT27     1086     MECN     N3       NG1T1   -0.460000       14.0070           0
     82914 WT27     1090     MECN     C1       CG331   -0.170000       12.0110           0
     82915 WT27     1090     MECN     H11      HGA3     0.090000        1.0080           0
     82916 WT27     1090     MECN     H12      HGA3     0.090000        1.0080           0
     82917 WT27     1090     MECN     H13      HGA3     0.090000        1.0080           0
     82918 WT27     1090     MECN     C2       CG1N1    0.360000       12.0110           0
     82919 WT27     1090     MECN     N3       NG1T1   -0.460000       14.0070           0
     82920 WT27     1097     MECN     C1       CG331   -0.170000       12.0110           0
     82921 WT27     1097     MECN     H11      HGA3     0.090000        1.0080           0
     82922 WT27     1097     MECN     H12      HGA3     0.090000        1.0080           0
     82923 WT27     1097     MECN     H13      HGA3     0.090000        1.0080           0
     82924 WT27     1097     MECN     C2       CG1N1    0.360000       12.0110           0
     82925 WT27     1097     MECN     N3       NG1T1   -0.460000       14.0070           0
     82926 WT27     1100     MECN     C1       CG331   -0.170000       12.0110           0
     82927 WT27     1100     MECN     H11      HGA3     0.090000        1.0080           0
     82928 WT27     1100     MECN     H12      HGA3     0.090000        1.0080           0
     82929 WT27     1100     MECN     H13      HGA3     0.090000        1.0080           0
     82930 WT27     1100     MECN     C2       CG1N1    0.360000       12.0110           0
     82931 WT27     1100     MECN     N3       NG1T1   -0.460000       14.0070           0
     82932 WT27     1102     MECN     C1       CG331   -0.170000       12.0110           0
     82933 WT27     1102     MECN     H11      HGA3     0.090000        1.0080           0
     82934 WT27     1102     MECN     H12      HGA3     0.090000        1.0080           0
     82935 WT27     1102     MECN     H13      HGA3     0.090000        1.0080           0
     82936 WT27     1102     MECN     C2       CG1N1    0.360000       12.0110           0
     82937 WT27     1102     MECN     N3       NG1T1   -0.460000       14.0070           0
     82938 WT27     1104     MECN     C1       CG331   -0.170000       12.0110           0
     82939 WT27     1104     MECN     H11      HGA3     0.090000        1.0080           0
     82940 WT27     1104     MECN     H12      HGA3     0.090000        1.0080           0
     82941 WT27     1104     MECN     H13      HGA3     0.090000        1.0080           0
     82942 WT27     1104     MECN     C2       CG1N1    0.360000       12.0110           0
     82943 WT27     1104     MECN     N3       NG1T1   -0.460000       14.0070           0
     82944 WT27     1105     MECN     C1       CG331   -0.170000       12.0110           0
     82945 WT27     1105     MECN     H11      HGA3     0.090000        1.0080           0
     82946 WT27     1105     MECN     H12      HGA3     0.090000        1.0080           0
     82947 WT27     1105     MECN     H13      HGA3     0.090000        1.0080           0
     82948 WT27     1105     MECN     C2       CG1N1    0.360000       12.0110           0
     82949 WT27     1105     MECN     N3       NG1T1   -0.460000       14.0070           0
     82950 WT27     1108     MECN     C1       CG331   -0.170000       12.0110           0
     82951 WT27     1108     MECN     H11      HGA3     0.090000        1.0080           0
     82952 WT27     1108     MECN     H12      HGA3     0.090000        1.0080           0
     82953 WT27     1108     MECN     H13      HGA3     0.090000        1.0080           0
     82954 WT27     1108     MECN     C2       CG1N1    0.360000       12.0110           0
     82955 WT27     1108     MECN     N3       NG1T1   -0.460000       14.0070           0
     82956 WT27     1111     MECN     C1       CG331   -0.170000       12.0110           0
     82957 WT27     1111     MECN     H11      HGA3     0.090000        1.0080           0
     82958 WT27     1111     MECN     H12      HGA3     0.090000        1.0080           0
     82959 WT27     1111     MECN     H13      HGA3     0.090000        1.0080           0
     82960 WT27     1111     MECN     C2       CG1N1    0.360000       12.0110           0
     82961 WT27     1111     MECN     N3       NG1T1   -0.460000       14.0070           0
     82962 WT27     1118     MECN     C1       CG331   -0.170000       12.0110           0
     82963 WT27     1118     MECN     H11      HGA3     0.090000        1.0080           0
     82964 WT27     1118     MECN     H12      HGA3     0.090000        1.0080           0
     82965 WT27     1118     MECN     H13      HGA3     0.090000        1.0080           0
     82966 WT27     1118     MECN     C2       CG1N1    0.360000       12.0110           0
     82967 WT27     1118     MECN     N3       NG1T1   -0.460000       14.0070           0
     82968 WT27     1119     MECN     C1       CG331   -0.170000       12.0110           0
     82969 WT27     1119     MECN     H11      HGA3     0.090000        1.0080           0
     82970 WT27     1119     MECN     H12      HGA3     0.090000        1.0080           0
     82971 WT27     1119     MECN     H13      HGA3     0.090000        1.0080           0
     82972 WT27     1119     MECN     C2       CG1N1    0.360000       12.0110           0
     82973 WT27     1119     MECN     N3       NG1T1   -0.460000       14.0070           0
     82974 WT27     1122     MECN     C1       CG331   -0.170000       12.0110           0
     82975 WT27     1122     MECN     H11      HGA3     0.090000        1.0080           0
     82976 WT27     1122     MECN     H12      HGA3     0.090000        1.0080           0
     82977 WT27     1122     MECN     H13      HGA3     0.090000        1.0080           0
     82978 WT27     1122     MECN     C2       CG1N1    0.360000       12.0110           0
     82979 WT27     1122     MECN     N3       NG1T1   -0.460000       14.0070           0
     82980 WT27     1124     MECN     C1       CG331   -0.170000       12.0110           0
     82981 WT27     1124     MECN     H11      HGA3     0.090000        1.0080           0
     82982 WT27     1124     MECN     H12      HGA3     0.090000        1.0080           0
     82983 WT27     1124     MECN     H13      HGA3     0.090000        1.0080           0
     82984 WT27     1124     MECN     C2       CG1N1    0.360000       12.0110           0
     82985 WT27     1124     MECN     N3       NG1T1   -0.460000       14.0070           0
     82986 WT27     1126     MECN     C1       CG331   -0.170000       12.0110           0
     82987 WT27     1126     MECN     H11      HGA3     0.090000        1.0080           0
     82988 WT27     1126     MECN     H12      HGA3     0.090000        1.0080           0
     82989 WT27     1126     MECN     H13      HGA3     0.090000        1.0080           0
     82990 WT27     1126     MECN     C2       CG1N1    0.360000       12.0110           0
     82991 WT27     1126     MECN     N3       NG1T1   -0.460000       14.0070           0
     82992 WT27     1127     MECN     C1       CG331   -0.170000       12.0110           0
     82993 WT27     1127     MECN     H11      HGA3     0.090000        1.0080           0
     82994 WT27     1127     MECN     H12      HGA3     0.090000        1.0080           0
     82995 WT27     1127     MECN     H13      HGA3     0.090000        1.0080           0
     82996 WT27     1127     MECN     C2       CG1N1    0.360000       12.0110           0
     82997 WT27     1127     MECN     N3       NG1T1   -0.460000       14.0070           0
     82998 WT27     1128     MECN     C1       CG331   -0.170000       12.0110           0
     82999 WT27     1128     MECN     H11      HGA3     0.090000        1.0080           0
     83000 WT27     1128     MECN     H12      HGA3     0.090000        1.0080           0
     83001 WT27     1128     MECN     H13      HGA3     0.090000        1.0080           0
     83002 WT27     1128     MECN     C2       CG1N1    0.360000       12.0110           0
     83003 WT27     1128     MECN     N3       NG1T1   -0.460000       14.0070           0
     83004 WT27     1131     MECN     C1       CG331   -0.170000       12.0110           0
     83005 WT27     1131     MECN     H11      HGA3     0.090000        1.0080           0
     83006 WT27     1131     MECN     H12      HGA3     0.090000        1.0080           0
     83007 WT27     1131     MECN     H13      HGA3     0.090000        1.0080           0
     83008 WT27     1131     MECN     C2       CG1N1    0.360000       12.0110           0
     83009 WT27     1131     MECN     N3       NG1T1   -0.460000       14.0070           0
     83010 WT27     1132     MECN     C1       CG331   -0.170000       12.0110           0
     83011 WT27     1132     MECN     H11      HGA3     0.090000        1.0080           0
     83012 WT27     1132     MECN     H12      HGA3     0.090000        1.0080           0
     83013 WT27     1132     MECN     H13      HGA3     0.090000        1.0080           0
     83014 WT27     1132     MECN     C2       CG1N1    0.360000       12.0110           0
     83015 WT27     1132     MECN     N3       NG1T1   -0.460000       14.0070           0
     83016 WT27     1133     MECN     C1       CG331   -0.170000       12.0110           0
     83017 WT27     1133     MECN     H11      HGA3     0.090000        1.0080           0
     83018 WT27     1133     MECN     H12      HGA3     0.090000        1.0080           0
     83019 WT27     1133     MECN     H13      HGA3     0.090000        1.0080           0
     83020 WT27     1133     MECN     C2       CG1N1    0.360000       12.0110           0
     83021 WT27     1133     MECN     N3       NG1T1   -0.460000       14.0070           0
     83022 WT27     1135     MECN     C1       CG331   -0.170000       12.0110           0
     83023 WT27     1135     MECN     H11      HGA3     0.090000        1.0080           0
     83024 WT27     1135     MECN     H12      HGA3     0.090000        1.0080           0
     83025 WT27     1135     MECN     H13      HGA3     0.090000        1.0080           0
     83026 WT27     1135     MECN     C2       CG1N1    0.360000       12.0110           0
     83027 WT27     1135     MECN     N3       NG1T1   -0.460000       14.0070           0
     83028 WT27     1140     MECN     C1       CG331   -0.170000       12.0110           0
     83029 WT27     1140     MECN     H11      HGA3     0.090000        1.0080           0
     83030 WT27     1140     MECN     H12      HGA3     0.090000        1.0080           0
     83031 WT27     1140     MECN     H13      HGA3     0.090000        1.0080           0
     83032 WT27     1140     MECN     C2       CG1N1    0.360000       12.0110           0
     83033 WT27     1140     MECN     N3       NG1T1   -0.460000       14.0070           0
     83034 WT27     1142     MECN     C1       CG331   -0.170000       12.0110           0
     83035 WT27     1142     MECN     H11      HGA3     0.090000        1.0080           0
     83036 WT27     1142     MECN     H12      HGA3     0.090000        1.0080           0
     83037 WT27     1142     MECN     H13      HGA3     0.090000        1.0080           0
     83038 WT27     1142     MECN     C2       CG1N1    0.360000       12.0110           0
     83039 WT27     1142     MECN     N3       NG1T1   -0.460000       14.0070           0
     83040 WT27     1149     MECN     C1       CG331   -0.170000       12.0110           0
     83041 WT27     1149     MECN     H11      HGA3     0.090000        1.0080           0
     83042 WT27     1149     MECN     H12      HGA3     0.090000        1.0080           0
     83043 WT27     1149     MECN     H13      HGA3     0.090000        1.0080           0
     83044 WT27     1149     MECN     C2       CG1N1    0.360000       12.0110           0
     83045 WT27     1149     MECN     N3       NG1T1   -0.460000       14.0070           0
     83046 WT27     1150     MECN     C1       CG331   -0.170000       12.0110           0
     83047 WT27     1150     MECN     H11      HGA3     0.090000        1.0080           0
     83048 WT27     1150     MECN     H12      HGA3     0.090000        1.0080           0
     83049 WT27     1150     MECN     H13      HGA3     0.090000        1.0080           0
     83050 WT27     1150     MECN     C2       CG1N1    0.360000       12.0110           0
     83051 WT27     1150     MECN     N3       NG1T1   -0.460000       14.0070           0
     83052 WT27     1151     MECN     C1       CG331   -0.170000       12.0110           0
     83053 WT27     1151     MECN     H11      HGA3     0.090000        1.0080           0
     83054 WT27     1151     MECN     H12      HGA3     0.090000        1.0080           0
     83055 WT27     1151     MECN     H13      HGA3     0.090000        1.0080           0
     83056 WT27     1151     MECN     C2       CG1N1    0.360000       12.0110           0
     83057 WT27     1151     MECN     N3       NG1T1   -0.460000       14.0070           0
     83058 WT27     1152     MECN     C1       CG331   -0.170000       12.0110           0
     83059 WT27     1152     MECN     H11      HGA3     0.090000        1.0080           0
     83060 WT27     1152     MECN     H12      HGA3     0.090000        1.0080           0
     83061 WT27     1152     MECN     H13      HGA3     0.090000        1.0080           0
     83062 WT27     1152     MECN     C2       CG1N1    0.360000       12.0110           0
     83063 WT27     1152     MECN     N3       NG1T1   -0.460000       14.0070           0
     83064 WT27     1155     MECN     C1       CG331   -0.170000       12.0110           0
     83065 WT27     1155     MECN     H11      HGA3     0.090000        1.0080           0
     83066 WT27     1155     MECN     H12      HGA3     0.090000        1.0080           0
     83067 WT27     1155     MECN     H13      HGA3     0.090000        1.0080           0
     83068 WT27     1155     MECN     C2       CG1N1    0.360000       12.0110           0
     83069 WT27     1155     MECN     N3       NG1T1   -0.460000       14.0070           0
     83070 WT27     1158     MECN     C1       CG331   -0.170000       12.0110           0
     83071 WT27     1158     MECN     H11      HGA3     0.090000        1.0080           0
     83072 WT27     1158     MECN     H12      HGA3     0.090000        1.0080           0
     83073 WT27     1158     MECN     H13      HGA3     0.090000        1.0080           0
     83074 WT27     1158     MECN     C2       CG1N1    0.360000       12.0110           0
     83075 WT27     1158     MECN     N3       NG1T1   -0.460000       14.0070           0
     83076 WT27     1159     MECN     C1       CG331   -0.170000       12.0110           0
     83077 WT27     1159     MECN     H11      HGA3     0.090000        1.0080           0
     83078 WT27     1159     MECN     H12      HGA3     0.090000        1.0080           0
     83079 WT27     1159     MECN     H13      HGA3     0.090000        1.0080           0
     83080 WT27     1159     MECN     C2       CG1N1    0.360000       12.0110           0
     83081 WT27     1159     MECN     N3       NG1T1   -0.460000       14.0070           0
     83082 WT27     1162     MECN     C1       CG331   -0.170000       12.0110           0
     83083 WT27     1162     MECN     H11      HGA3     0.090000        1.0080           0
     83084 WT27     1162     MECN     H12      HGA3     0.090000        1.0080           0
     83085 WT27     1162     MECN     H13      HGA3     0.090000        1.0080           0
     83086 WT27     1162     MECN     C2       CG1N1    0.360000       12.0110           0
     83087 WT27     1162     MECN     N3       NG1T1   -0.460000       14.0070           0
     83088 WT27     1163     MECN     C1       CG331   -0.170000       12.0110           0
     83089 WT27     1163     MECN     H11      HGA3     0.090000        1.0080           0
     83090 WT27     1163     MECN     H12      HGA3     0.090000        1.0080           0
     83091 WT27     1163     MECN     H13      HGA3     0.090000        1.0080           0
     83092 WT27     1163     MECN     C2       CG1N1    0.360000       12.0110           0
     83093 WT27     1163     MECN     N3       NG1T1   -0.460000       14.0070           0
     83094 WT27     1167     MECN     C1       CG331   -0.170000       12.0110           0
     83095 WT27     1167     MECN     H11      HGA3     0.090000        1.0080           0
     83096 WT27     1167     MECN     H12      HGA3     0.090000        1.0080           0
     83097 WT27     1167     MECN     H13      HGA3     0.090000        1.0080           0
     83098 WT27     1167     MECN     C2       CG1N1    0.360000       12.0110           0
     83099 WT27     1167     MECN     N3       NG1T1   -0.460000       14.0070           0
     83100 WT27     1168     MECN     C1       CG331   -0.170000       12.0110           0
     83101 WT27     1168     MECN     H11      HGA3     0.090000        1.0080           0
     83102 WT27     1168     MECN     H12      HGA3     0.090000        1.0080           0
     83103 WT27     1168     MECN     H13      HGA3     0.090000        1.0080           0
     83104 WT27     1168     MECN     C2       CG1N1    0.360000       12.0110           0
     83105 WT27     1168     MECN     N3       NG1T1   -0.460000       14.0070           0
     83106 WT27     1170     MECN     C1       CG331   -0.170000       12.0110           0
     83107 WT27     1170     MECN     H11      HGA3     0.090000        1.0080           0
     83108 WT27     1170     MECN     H12      HGA3     0.090000        1.0080           0
     83109 WT27     1170     MECN     H13      HGA3     0.090000        1.0080           0
     83110 WT27     1170     MECN     C2       CG1N1    0.360000       12.0110           0
     83111 WT27     1170     MECN     N3       NG1T1   -0.460000       14.0070           0
     83112 WT27     1171     MECN     C1       CG331   -0.170000       12.0110           0
     83113 WT27     1171     MECN     H11      HGA3     0.090000        1.0080           0
     83114 WT27     1171     MECN     H12      HGA3     0.090000        1.0080           0
     83115 WT27     1171     MECN     H13      HGA3     0.090000        1.0080           0
     83116 WT27     1171     MECN     C2       CG1N1    0.360000       12.0110           0
     83117 WT27     1171     MECN     N3       NG1T1   -0.460000       14.0070           0
     83118 WT27     1175     MECN     C1       CG331   -0.170000       12.0110           0
     83119 WT27     1175     MECN     H11      HGA3     0.090000        1.0080           0
     83120 WT27     1175     MECN     H12      HGA3     0.090000        1.0080           0
     83121 WT27     1175     MECN     H13      HGA3     0.090000        1.0080           0
     83122 WT27     1175     MECN     C2       CG1N1    0.360000       12.0110           0
     83123 WT27     1175     MECN     N3       NG1T1   -0.460000       14.0070           0
     83124 WT27     1176     MECN     C1       CG331   -0.170000       12.0110           0
     83125 WT27     1176     MECN     H11      HGA3     0.090000        1.0080           0
     83126 WT27     1176     MECN     H12      HGA3     0.090000        1.0080           0
     83127 WT27     1176     MECN     H13      HGA3     0.090000        1.0080           0
     83128 WT27     1176     MECN     C2       CG1N1    0.360000       12.0110           0
     83129 WT27     1176     MECN     N3       NG1T1   -0.460000       14.0070           0
     83130 WT27     1177     MECN     C1       CG331   -0.170000       12.0110           0
     83131 WT27     1177     MECN     H11      HGA3     0.090000        1.0080           0
     83132 WT27     1177     MECN     H12      HGA3     0.090000        1.0080           0
     83133 WT27     1177     MECN     H13      HGA3     0.090000        1.0080           0
     83134 WT27     1177     MECN     C2       CG1N1    0.360000       12.0110           0
     83135 WT27     1177     MECN     N3       NG1T1   -0.460000       14.0070           0
     83136 WT27     1179     MECN     C1       CG331   -0.170000       12.0110           0
     83137 WT27     1179     MECN     H11      HGA3     0.090000        1.0080           0
     83138 WT27     1179     MECN     H12      HGA3     0.090000        1.0080           0
     83139 WT27     1179     MECN     H13      HGA3     0.090000        1.0080           0
     83140 WT27     1179     MECN     C2       CG1N1    0.360000       12.0110           0
     83141 WT27     1179     MECN     N3       NG1T1   -0.460000       14.0070           0
     83142 WT27     1180     MECN     C1       CG331   -0.170000       12.0110           0
     83143 WT27     1180     MECN     H11      HGA3     0.090000        1.0080           0
     83144 WT27     1180     MECN     H12      HGA3     0.090000        1.0080           0
     83145 WT27     1180     MECN     H13      HGA3     0.090000        1.0080           0
     83146 WT27     1180     MECN     C2       CG1N1    0.360000       12.0110           0
     83147 WT27     1180     MECN     N3       NG1T1   -0.460000       14.0070           0
     83148 WT27     1185     MECN     C1       CG331   -0.170000       12.0110           0
     83149 WT27     1185     MECN     H11      HGA3     0.090000        1.0080           0
     83150 WT27     1185     MECN     H12      HGA3     0.090000        1.0080           0
     83151 WT27     1185     MECN     H13      HGA3     0.090000        1.0080           0
     83152 WT27     1185     MECN     C2       CG1N1    0.360000       12.0110           0
     83153 WT27     1185     MECN     N3       NG1T1   -0.460000       14.0070           0
     83154 WT27     1193     MECN     C1       CG331   -0.170000       12.0110           0
     83155 WT27     1193     MECN     H11      HGA3     0.090000        1.0080           0
     83156 WT27     1193     MECN     H12      HGA3     0.090000        1.0080           0
     83157 WT27     1193     MECN     H13      HGA3     0.090000        1.0080           0
     83158 WT27     1193     MECN     C2       CG1N1    0.360000       12.0110           0
     83159 WT27     1193     MECN     N3       NG1T1   -0.460000       14.0070           0
     83160 WT27     1197     MECN     C1       CG331   -0.170000       12.0110           0
     83161 WT27     1197     MECN     H11      HGA3     0.090000        1.0080           0
     83162 WT27     1197     MECN     H12      HGA3     0.090000        1.0080           0
     83163 WT27     1197     MECN     H13      HGA3     0.090000        1.0080           0
     83164 WT27     1197     MECN     C2       CG1N1    0.360000       12.0110           0
     83165 WT27     1197     MECN     N3       NG1T1   -0.460000       14.0070           0
     83166 WT27     1202     MECN     C1       CG331   -0.170000       12.0110           0
     83167 WT27     1202     MECN     H11      HGA3     0.090000        1.0080           0
     83168 WT27     1202     MECN     H12      HGA3     0.090000        1.0080           0
     83169 WT27     1202     MECN     H13      HGA3     0.090000        1.0080           0
     83170 WT27     1202     MECN     C2       CG1N1    0.360000       12.0110           0
     83171 WT27     1202     MECN     N3       NG1T1   -0.460000       14.0070           0
     83172 WT27     1203     MECN     C1       CG331   -0.170000       12.0110           0
     83173 WT27     1203     MECN     H11      HGA3     0.090000        1.0080           0
     83174 WT27     1203     MECN     H12      HGA3     0.090000        1.0080           0
     83175 WT27     1203     MECN     H13      HGA3     0.090000        1.0080           0
     83176 WT27     1203     MECN     C2       CG1N1    0.360000       12.0110           0
     83177 WT27     1203     MECN     N3       NG1T1   -0.460000       14.0070           0
     83178 WT27     1204     MECN     C1       CG331   -0.170000       12.0110           0
     83179 WT27     1204     MECN     H11      HGA3     0.090000        1.0080           0
     83180 WT27     1204     MECN     H12      HGA3     0.090000        1.0080           0
     83181 WT27     1204     MECN     H13      HGA3     0.090000        1.0080           0
     83182 WT27     1204     MECN     C2       CG1N1    0.360000       12.0110           0
     83183 WT27     1204     MECN     N3       NG1T1   -0.460000       14.0070           0
     83184 WT27     1206     MECN     C1       CG331   -0.170000       12.0110           0
     83185 WT27     1206     MECN     H11      HGA3     0.090000        1.0080           0
     83186 WT27     1206     MECN     H12      HGA3     0.090000        1.0080           0
     83187 WT27     1206     MECN     H13      HGA3     0.090000        1.0080           0
     83188 WT27     1206     MECN     C2       CG1N1    0.360000       12.0110           0
     83189 WT27     1206     MECN     N3       NG1T1   -0.460000       14.0070           0
     83190 WT27     1207     MECN     C1       CG331   -0.170000       12.0110           0
     83191 WT27     1207     MECN     H11      HGA3     0.090000        1.0080           0
     83192 WT27     1207     MECN     H12      HGA3     0.090000        1.0080           0
     83193 WT27     1207     MECN     H13      HGA3     0.090000        1.0080           0
     83194 WT27     1207     MECN     C2       CG1N1    0.360000       12.0110           0
     83195 WT27     1207     MECN     N3       NG1T1   -0.460000       14.0070           0
     83196 WT27     1209     MECN     C1       CG331   -0.170000       12.0110           0
     83197 WT27     1209     MECN     H11      HGA3     0.090000        1.0080           0
     83198 WT27     1209     MECN     H12      HGA3     0.090000        1.0080           0
     83199 WT27     1209     MECN     H13      HGA3     0.090000        1.0080           0
     83200 WT27     1209     MECN     C2       CG1N1    0.360000       12.0110           0
     83201 WT27     1209     MECN     N3       NG1T1   -0.460000       14.0070           0
     83202 WT27     1210     MECN     C1       CG331   -0.170000       12.0110           0
     83203 WT27     1210     MECN     H11      HGA3     0.090000        1.0080           0
     83204 WT27     1210     MECN     H12      HGA3     0.090000        1.0080           0
     83205 WT27     1210     MECN     H13      HGA3     0.090000        1.0080           0
     83206 WT27     1210     MECN     C2       CG1N1    0.360000       12.0110           0
     83207 WT27     1210     MECN     N3       NG1T1   -0.460000       14.0070           0
     83208 WT27     1211     MECN     C1       CG331   -0.170000       12.0110           0
     83209 WT27     1211     MECN     H11      HGA3     0.090000        1.0080           0
     83210 WT27     1211     MECN     H12      HGA3     0.090000        1.0080           0
     83211 WT27     1211     MECN     H13      HGA3     0.090000        1.0080           0
     83212 WT27     1211     MECN     C2       CG1N1    0.360000       12.0110           0
     83213 WT27     1211     MECN     N3       NG1T1   -0.460000       14.0070           0
     83214 WT27     1213     MECN     C1       CG331   -0.170000       12.0110           0
     83215 WT27     1213     MECN     H11      HGA3     0.090000        1.0080           0
     83216 WT27     1213     MECN     H12      HGA3     0.090000        1.0080           0
     83217 WT27     1213     MECN     H13      HGA3     0.090000        1.0080           0
     83218 WT27     1213     MECN     C2       CG1N1    0.360000       12.0110           0
     83219 WT27     1213     MECN     N3       NG1T1   -0.460000       14.0070           0
     83220 WT27     1217     MECN     C1       CG331   -0.170000       12.0110           0
     83221 WT27     1217     MECN     H11      HGA3     0.090000        1.0080           0
     83222 WT27     1217     MECN     H12      HGA3     0.090000        1.0080           0
     83223 WT27     1217     MECN     H13      HGA3     0.090000        1.0080           0
     83224 WT27     1217     MECN     C2       CG1N1    0.360000       12.0110           0
     83225 WT27     1217     MECN     N3       NG1T1   -0.460000       14.0070           0
     83226 WT27     1220     MECN     C1       CG331   -0.170000       12.0110           0
     83227 WT27     1220     MECN     H11      HGA3     0.090000        1.0080           0
     83228 WT27     1220     MECN     H12      HGA3     0.090000        1.0080           0
     83229 WT27     1220     MECN     H13      HGA3     0.090000        1.0080           0
     83230 WT27     1220     MECN     C2       CG1N1    0.360000       12.0110           0
     83231 WT27     1220     MECN     N3       NG1T1   -0.460000       14.0070           0
     83232 WT27     1222     MECN     C1       CG331   -0.170000       12.0110           0
     83233 WT27     1222     MECN     H11      HGA3     0.090000        1.0080           0
     83234 WT27     1222     MECN     H12      HGA3     0.090000        1.0080           0
     83235 WT27     1222     MECN     H13      HGA3     0.090000        1.0080           0
     83236 WT27     1222     MECN     C2       CG1N1    0.360000       12.0110           0
     83237 WT27     1222     MECN     N3       NG1T1   -0.460000       14.0070           0
     83238 WT27     1224     MECN     C1       CG331   -0.170000       12.0110           0
     83239 WT27     1224     MECN     H11      HGA3     0.090000        1.0080           0
     83240 WT27     1224     MECN     H12      HGA3     0.090000        1.0080           0
     83241 WT27     1224     MECN     H13      HGA3     0.090000        1.0080           0
     83242 WT27     1224     MECN     C2       CG1N1    0.360000       12.0110           0
     83243 WT27     1224     MECN     N3       NG1T1   -0.460000       14.0070           0
     83244 WT27     1225     MECN     C1       CG331   -0.170000       12.0110           0
     83245 WT27     1225     MECN     H11      HGA3     0.090000        1.0080           0
     83246 WT27     1225     MECN     H12      HGA3     0.090000        1.0080           0
     83247 WT27     1225     MECN     H13      HGA3     0.090000        1.0080           0
     83248 WT27     1225     MECN     C2       CG1N1    0.360000       12.0110           0
     83249 WT27     1225     MECN     N3       NG1T1   -0.460000       14.0070           0
     83250 WT27     1226     MECN     C1       CG331   -0.170000       12.0110           0
     83251 WT27     1226     MECN     H11      HGA3     0.090000        1.0080           0
     83252 WT27     1226     MECN     H12      HGA3     0.090000        1.0080           0
     83253 WT27     1226     MECN     H13      HGA3     0.090000        1.0080           0
     83254 WT27     1226     MECN     C2       CG1N1    0.360000       12.0110           0
     83255 WT27     1226     MECN     N3       NG1T1   -0.460000       14.0070           0
     83256 WT27     1227     MECN     C1       CG331   -0.170000       12.0110           0
     83257 WT27     1227     MECN     H11      HGA3     0.090000        1.0080           0
     83258 WT27     1227     MECN     H12      HGA3     0.090000        1.0080           0
     83259 WT27     1227     MECN     H13      HGA3     0.090000        1.0080           0
     83260 WT27     1227     MECN     C2       CG1N1    0.360000       12.0110           0
     83261 WT27     1227     MECN     N3       NG1T1   -0.460000       14.0070           0
     83262 WT27     1233     MECN     C1       CG331   -0.170000       12.0110           0
     83263 WT27     1233     MECN     H11      HGA3     0.090000        1.0080           0
     83264 WT27     1233     MECN     H12      HGA3     0.090000        1.0080           0
     83265 WT27     1233     MECN     H13      HGA3     0.090000        1.0080           0
     83266 WT27     1233     MECN     C2       CG1N1    0.360000       12.0110           0
     83267 WT27     1233     MECN     N3       NG1T1   -0.460000       14.0070           0
     83268 WT27     1237     MECN     C1       CG331   -0.170000       12.0110           0
     83269 WT27     1237     MECN     H11      HGA3     0.090000        1.0080           0
     83270 WT27     1237     MECN     H12      HGA3     0.090000        1.0080           0
     83271 WT27     1237     MECN     H13      HGA3     0.090000        1.0080           0
     83272 WT27     1237     MECN     C2       CG1N1    0.360000       12.0110           0
     83273 WT27     1237     MECN     N3       NG1T1   -0.460000       14.0070           0
     83274 WT27     1240     MECN     C1       CG331   -0.170000       12.0110           0
     83275 WT27     1240     MECN     H11      HGA3     0.090000        1.0080           0
     83276 WT27     1240     MECN     H12      HGA3     0.090000        1.0080           0
     83277 WT27     1240     MECN     H13      HGA3     0.090000        1.0080           0
     83278 WT27     1240     MECN     C2       CG1N1    0.360000       12.0110           0
     83279 WT27     1240     MECN     N3       NG1T1   -0.460000       14.0070           0
     83280 WT27     1244     MECN     C1       CG331   -0.170000       12.0110           0
     83281 WT27     1244     MECN     H11      HGA3     0.090000        1.0080           0
     83282 WT27     1244     MECN     H12      HGA3     0.090000        1.0080           0
     83283 WT27     1244     MECN     H13      HGA3     0.090000        1.0080           0
     83284 WT27     1244     MECN     C2       CG1N1    0.360000       12.0110           0
     83285 WT27     1244     MECN     N3       NG1T1   -0.460000       14.0070           0
     83286 WT27     1247     MECN     C1       CG331   -0.170000       12.0110           0
     83287 WT27     1247     MECN     H11      HGA3     0.090000        1.0080           0
     83288 WT27     1247     MECN     H12      HGA3     0.090000        1.0080           0
     83289 WT27     1247     MECN     H13      HGA3     0.090000        1.0080           0
     83290 WT27     1247     MECN     C2       CG1N1    0.360000       12.0110           0
     83291 WT27     1247     MECN     N3       NG1T1   -0.460000       14.0070           0
     83292 WT27     1250     MECN     C1       CG331   -0.170000       12.0110           0
     83293 WT27     1250     MECN     H11      HGA3     0.090000        1.0080           0
     83294 WT27     1250     MECN     H12      HGA3     0.090000        1.0080           0
     83295 WT27     1250     MECN     H13      HGA3     0.090000        1.0080           0
     83296 WT27     1250     MECN     C2       CG1N1    0.360000       12.0110           0
     83297 WT27     1250     MECN     N3       NG1T1   -0.460000       14.0070           0
     83298 WT27     1254     MECN     C1       CG331   -0.170000       12.0110           0
     83299 WT27     1254     MECN     H11      HGA3     0.090000        1.0080           0
     83300 WT27     1254     MECN     H12      HGA3     0.090000        1.0080           0
     83301 WT27     1254     MECN     H13      HGA3     0.090000        1.0080           0
     83302 WT27     1254     MECN     C2       CG1N1    0.360000       12.0110           0
     83303 WT27     1254     MECN     N3       NG1T1   -0.460000       14.0070           0
     83304 WT27     1255     MECN     C1       CG331   -0.170000       12.0110           0
     83305 WT27     1255     MECN     H11      HGA3     0.090000        1.0080           0
     83306 WT27     1255     MECN     H12      HGA3     0.090000        1.0080           0
     83307 WT27     1255     MECN     H13      HGA3     0.090000        1.0080           0
     83308 WT27     1255     MECN     C2       CG1N1    0.360000       12.0110           0
     83309 WT27     1255     MECN     N3       NG1T1   -0.460000       14.0070           0
     83310 WT27     1258     MECN     C1       CG331   -0.170000       12.0110           0
     83311 WT27     1258     MECN     H11      HGA3     0.090000        1.0080           0
     83312 WT27     1258     MECN     H12      HGA3     0.090000        1.0080           0
     83313 WT27     1258     MECN     H13      HGA3     0.090000        1.0080           0
     83314 WT27     1258     MECN     C2       CG1N1    0.360000       12.0110           0
     83315 WT27     1258     MECN     N3       NG1T1   -0.460000       14.0070           0
     83316 WT27     1260     MECN     C1       CG331   -0.170000       12.0110           0
     83317 WT27     1260     MECN     H11      HGA3     0.090000        1.0080           0
     83318 WT27     1260     MECN     H12      HGA3     0.090000        1.0080           0
     83319 WT27     1260     MECN     H13      HGA3     0.090000        1.0080           0
     83320 WT27     1260     MECN     C2       CG1N1    0.360000       12.0110           0
     83321 WT27     1260     MECN     N3       NG1T1   -0.460000       14.0070           0
     83322 WT27     1262     MECN     C1       CG331   -0.170000       12.0110           0
     83323 WT27     1262     MECN     H11      HGA3     0.090000        1.0080           0
     83324 WT27     1262     MECN     H12      HGA3     0.090000        1.0080           0
     83325 WT27     1262     MECN     H13      HGA3     0.090000        1.0080           0
     83326 WT27     1262     MECN     C2       CG1N1    0.360000       12.0110           0
     83327 WT27     1262     MECN     N3       NG1T1   -0.460000       14.0070           0
     83328 WT27     1263     MECN     C1       CG331   -0.170000       12.0110           0
     83329 WT27     1263     MECN     H11      HGA3     0.090000        1.0080           0
     83330 WT27     1263     MECN     H12      HGA3     0.090000        1.0080           0
     83331 WT27     1263     MECN     H13      HGA3     0.090000        1.0080           0
     83332 WT27     1263     MECN     C2       CG1N1    0.360000       12.0110           0
     83333 WT27     1263     MECN     N3       NG1T1   -0.460000       14.0070           0
     83334 WT27     1264     MECN     C1       CG331   -0.170000       12.0110           0
     83335 WT27     1264     MECN     H11      HGA3     0.090000        1.0080           0
     83336 WT27     1264     MECN     H12      HGA3     0.090000        1.0080           0
     83337 WT27     1264     MECN     H13      HGA3     0.090000        1.0080           0
     83338 WT27     1264     MECN     C2       CG1N1    0.360000       12.0110           0
     83339 WT27     1264     MECN     N3       NG1T1   -0.460000       14.0070           0
     83340 WT27     1265     MECN     C1       CG331   -0.170000       12.0110           0
     83341 WT27     1265     MECN     H11      HGA3     0.090000        1.0080           0
     83342 WT27     1265     MECN     H12      HGA3     0.090000        1.0080           0
     83343 WT27     1265     MECN     H13      HGA3     0.090000        1.0080           0
     83344 WT27     1265     MECN     C2       CG1N1    0.360000       12.0110           0
     83345 WT27     1265     MECN     N3       NG1T1   -0.460000       14.0070           0
     83346 WT27     1268     MECN     C1       CG331   -0.170000       12.0110           0
     83347 WT27     1268     MECN     H11      HGA3     0.090000        1.0080           0
     83348 WT27     1268     MECN     H12      HGA3     0.090000        1.0080           0
     83349 WT27     1268     MECN     H13      HGA3     0.090000        1.0080           0
     83350 WT27     1268     MECN     C2       CG1N1    0.360000       12.0110           0
     83351 WT27     1268     MECN     N3       NG1T1   -0.460000       14.0070           0
     83352 WT27     1272     MECN     C1       CG331   -0.170000       12.0110           0
     83353 WT27     1272     MECN     H11      HGA3     0.090000        1.0080           0
     83354 WT27     1272     MECN     H12      HGA3     0.090000        1.0080           0
     83355 WT27     1272     MECN     H13      HGA3     0.090000        1.0080           0
     83356 WT27     1272     MECN     C2       CG1N1    0.360000       12.0110           0
     83357 WT27     1272     MECN     N3       NG1T1   -0.460000       14.0070           0
     83358 WT27     1277     MECN     C1       CG331   -0.170000       12.0110           0
     83359 WT27     1277     MECN     H11      HGA3     0.090000        1.0080           0
     83360 WT27     1277     MECN     H12      HGA3     0.090000        1.0080           0
     83361 WT27     1277     MECN     H13      HGA3     0.090000        1.0080           0
     83362 WT27     1277     MECN     C2       CG1N1    0.360000       12.0110           0
     83363 WT27     1277     MECN     N3       NG1T1   -0.460000       14.0070           0
     83364 WT27     1280     MECN     C1       CG331   -0.170000       12.0110           0
     83365 WT27     1280     MECN     H11      HGA3     0.090000        1.0080           0
     83366 WT27     1280     MECN     H12      HGA3     0.090000        1.0080           0
     83367 WT27     1280     MECN     H13      HGA3     0.090000        1.0080           0
     83368 WT27     1280     MECN     C2       CG1N1    0.360000       12.0110           0
     83369 WT27     1280     MECN     N3       NG1T1   -0.460000       14.0070           0
     83370 WT27     1283     MECN     C1       CG331   -0.170000       12.0110           0
     83371 WT27     1283     MECN     H11      HGA3     0.090000        1.0080           0
     83372 WT27     1283     MECN     H12      HGA3     0.090000        1.0080           0
     83373 WT27     1283     MECN     H13      HGA3     0.090000        1.0080           0
     83374 WT27     1283     MECN     C2       CG1N1    0.360000       12.0110           0
     83375 WT27     1283     MECN     N3       NG1T1   -0.460000       14.0070           0
     83376 WT27     1285     MECN     C1       CG331   -0.170000       12.0110           0
     83377 WT27     1285     MECN     H11      HGA3     0.090000        1.0080           0
     83378 WT27     1285     MECN     H12      HGA3     0.090000        1.0080           0
     83379 WT27     1285     MECN     H13      HGA3     0.090000        1.0080           0
     83380 WT27     1285     MECN     C2       CG1N1    0.360000       12.0110           0
     83381 WT27     1285     MECN     N3       NG1T1   -0.460000       14.0070           0
     83382 WT27     1286     MECN     C1       CG331   -0.170000       12.0110           0
     83383 WT27     1286     MECN     H11      HGA3     0.090000        1.0080           0
     83384 WT27     1286     MECN     H12      HGA3     0.090000        1.0080           0
     83385 WT27     1286     MECN     H13      HGA3     0.090000        1.0080           0
     83386 WT27     1286     MECN     C2       CG1N1    0.360000       12.0110           0
     83387 WT27     1286     MECN     N3       NG1T1   -0.460000       14.0070           0
     83388 WT27     1297     MECN     C1       CG331   -0.170000       12.0110           0
     83389 WT27     1297     MECN     H11      HGA3     0.090000        1.0080           0
     83390 WT27     1297     MECN     H12      HGA3     0.090000        1.0080           0
     83391 WT27     1297     MECN     H13      HGA3     0.090000        1.0080           0
     83392 WT27     1297     MECN     C2       CG1N1    0.360000       12.0110           0
     83393 WT27     1297     MECN     N3       NG1T1   -0.460000       14.0070           0
     83394 WT27     1301     MECN     C1       CG331   -0.170000       12.0110           0
     83395 WT27     1301     MECN     H11      HGA3     0.090000        1.0080           0
     83396 WT27     1301     MECN     H12      HGA3     0.090000        1.0080           0
     83397 WT27     1301     MECN     H13      HGA3     0.090000        1.0080           0
     83398 WT27     1301     MECN     C2       CG1N1    0.360000       12.0110           0
     83399 WT27     1301     MECN     N3       NG1T1   -0.460000       14.0070           0
     83400 WT27     1305     MECN     C1       CG331   -0.170000       12.0110           0
     83401 WT27     1305     MECN     H11      HGA3     0.090000        1.0080           0
     83402 WT27     1305     MECN     H12      HGA3     0.090000        1.0080           0
     83403 WT27     1305     MECN     H13      HGA3     0.090000        1.0080           0
     83404 WT27     1305     MECN     C2       CG1N1    0.360000       12.0110           0
     83405 WT27     1305     MECN     N3       NG1T1   -0.460000       14.0070           0
     83406 WT27     1309     MECN     C1       CG331   -0.170000       12.0110           0
     83407 WT27     1309     MECN     H11      HGA3     0.090000        1.0080           0
     83408 WT27     1309     MECN     H12      HGA3     0.090000        1.0080           0
     83409 WT27     1309     MECN     H13      HGA3     0.090000        1.0080           0
     83410 WT27     1309     MECN     C2       CG1N1    0.360000       12.0110           0
     83411 WT27     1309     MECN     N3       NG1T1   -0.460000       14.0070           0
     83412 WT27     1311     MECN     C1       CG331   -0.170000       12.0110           0
     83413 WT27     1311     MECN     H11      HGA3     0.090000        1.0080           0
     83414 WT27     1311     MECN     H12      HGA3     0.090000        1.0080           0
     83415 WT27     1311     MECN     H13      HGA3     0.090000        1.0080           0
     83416 WT27     1311     MECN     C2       CG1N1    0.360000       12.0110           0
     83417 WT27     1311     MECN     N3       NG1T1   -0.460000       14.0070           0
     83418 WT27     1312     MECN     C1       CG331   -0.170000       12.0110           0
     83419 WT27     1312     MECN     H11      HGA3     0.090000        1.0080           0
     83420 WT27     1312     MECN     H12      HGA3     0.090000        1.0080           0
     83421 WT27     1312     MECN     H13      HGA3     0.090000        1.0080           0
     83422 WT27     1312     MECN     C2       CG1N1    0.360000       12.0110           0
     83423 WT27     1312     MECN     N3       NG1T1   -0.460000       14.0070           0
     83424 WT27     1314     MECN     C1       CG331   -0.170000       12.0110           0
     83425 WT27     1314     MECN     H11      HGA3     0.090000        1.0080           0
     83426 WT27     1314     MECN     H12      HGA3     0.090000        1.0080           0
     83427 WT27     1314     MECN     H13      HGA3     0.090000        1.0080           0
     83428 WT27     1314     MECN     C2       CG1N1    0.360000       12.0110           0
     83429 WT27     1314     MECN     N3       NG1T1   -0.460000       14.0070           0
     83430 WT27     1318     MECN     C1       CG331   -0.170000       12.0110           0
     83431 WT27     1318     MECN     H11      HGA3     0.090000        1.0080           0
     83432 WT27     1318     MECN     H12      HGA3     0.090000        1.0080           0
     83433 WT27     1318     MECN     H13      HGA3     0.090000        1.0080           0
     83434 WT27     1318     MECN     C2       CG1N1    0.360000       12.0110           0
     83435 WT27     1318     MECN     N3       NG1T1   -0.460000       14.0070           0
     83436 WT27     1319     MECN     C1       CG331   -0.170000       12.0110           0
     83437 WT27     1319     MECN     H11      HGA3     0.090000        1.0080           0
     83438 WT27     1319     MECN     H12      HGA3     0.090000        1.0080           0
     83439 WT27     1319     MECN     H13      HGA3     0.090000        1.0080           0
     83440 WT27     1319     MECN     C2       CG1N1    0.360000       12.0110           0
     83441 WT27     1319     MECN     N3       NG1T1   -0.460000       14.0070           0
     83442 WT27     1320     MECN     C1       CG331   -0.170000       12.0110           0
     83443 WT27     1320     MECN     H11      HGA3     0.090000        1.0080           0
     83444 WT27     1320     MECN     H12      HGA3     0.090000        1.0080           0
     83445 WT27     1320     MECN     H13      HGA3     0.090000        1.0080           0
     83446 WT27     1320     MECN     C2       CG1N1    0.360000       12.0110           0
     83447 WT27     1320     MECN     N3       NG1T1   -0.460000       14.0070           0
     83448 WT27     1324     MECN     C1       CG331   -0.170000       12.0110           0
     83449 WT27     1324     MECN     H11      HGA3     0.090000        1.0080           0
     83450 WT27     1324     MECN     H12      HGA3     0.090000        1.0080           0
     83451 WT27     1324     MECN     H13      HGA3     0.090000        1.0080           0
     83452 WT27     1324     MECN     C2       CG1N1    0.360000       12.0110           0
     83453 WT27     1324     MECN     N3       NG1T1   -0.460000       14.0070           0
     83454 WT27     1327     MECN     C1       CG331   -0.170000       12.0110           0
     83455 WT27     1327     MECN     H11      HGA3     0.090000        1.0080           0
     83456 WT27     1327     MECN     H12      HGA3     0.090000        1.0080           0
     83457 WT27     1327     MECN     H13      HGA3     0.090000        1.0080           0
     83458 WT27     1327     MECN     C2       CG1N1    0.360000       12.0110           0
     83459 WT27     1327     MECN     N3       NG1T1   -0.460000       14.0070           0
     83460 WT27     1328     MECN     C1       CG331   -0.170000       12.0110           0
     83461 WT27     1328     MECN     H11      HGA3     0.090000        1.0080           0
     83462 WT27     1328     MECN     H12      HGA3     0.090000        1.0080           0
     83463 WT27     1328     MECN     H13      HGA3     0.090000        1.0080           0
     83464 WT27     1328     MECN     C2       CG1N1    0.360000       12.0110           0
     83465 WT27     1328     MECN     N3       NG1T1   -0.460000       14.0070           0
     83466 WT27     1331     MECN     C1       CG331   -0.170000       12.0110           0
     83467 WT27     1331     MECN     H11      HGA3     0.090000        1.0080           0
     83468 WT27     1331     MECN     H12      HGA3     0.090000        1.0080           0
     83469 WT27     1331     MECN     H13      HGA3     0.090000        1.0080           0
     83470 WT27     1331     MECN     C2       CG1N1    0.360000       12.0110           0
     83471 WT27     1331     MECN     N3       NG1T1   -0.460000       14.0070           0

   72363 !NBOND: bonds
         1         2         1         6         2         3         3         4
         4         7         4       181         5         6         5        10
         6         7         7         8         8        11         8       185
         9        14         9        10        10        11        11        12
        12        15        12       189        13        18        13        14
        14        15        15        16        16        19        16       193
        17        22        17        18        18        19        19        20
        20        23        20       197        21        22        21        26
        22        23        23        24        24        27        24       201
        25        26        25        30        26        27        27        28
        28        31        28       205        29        34        29        30
        30        31        31        32        32        35        32       209
        33        38        33        34        34        35        35        36
        36        39        36       213        37        42        37        38
        38        39        39        40        40        43        40       217
        41        42        41        46        42        43        43        44
        44        47        44       221        45        46        45        50
        46        47        47        48        48        51        48       225
        49        54        49        50        50        51        51        52
        52        55        52       229        53        58        53        54
        54        55        55        56        56        59        56       233
        57        62        57        58        58        59        59        60
        60        63        60       237        61        62        61        66
        62        63        63        64        64        67        64       241
        65        66        65        70        66        67        67        68
        68        71        68       245        69        74        69        70
        70        71        71        72        72        75        72       249
        73        78        73        74        74        75        75        76
        76        79        76       253        77        82        77        78
        78        79        79        80        80        83        80       257
        81        82        81        86        82        83        83        84
        84        87        84       261        85        86        85        90
        86        87        87        88        88        91        88       265
        89        94        89        90        90        91        91        92
        92        95        92       269        93        98        93        94
        94        95        95        96        96        99        96       273
        97       102        97        98        98        99        99       100
       100       103       100       277       101       102       101       106
       102       103       103       104       104       107       104       281
       105       106       105       110       106       107       107       108
       108       111       108       285       109       114       109       110
       110       111       111       112       112       115       112       289
       113       118       113       114       114       115       115       116
       116       119       116       293       117       122       117       118
       118       119       119       120       120       123       120       297
       121       122       121       126       122       123       123       124
       124       127       124       301       125       126       125       130
       126       127       127       128       128       131       128       305
       129       134       129       130       130       131       131       132
       132       135       132       309       133       134       133       138
       134       135       135       136       136       139       136       313
       137       142       137       138       138       139       139       140
       140       143       140       317       141       142       141       146
       142       143       143       144       144       147       144       321
       145       146       145       150       146       147       147       148
       148       151       148       325       149       154       149       150
       150       151       151       152       152       155       152       329
       153       158       153       154       154       155       155       156
       156       159       156       333       157       162       157       158
       158       159       159       160       160       163       160       337
       161       162       161       166       162       163       163       164
       164       167       164       341       165       166       165       170
       166       167       167       168       168       171       168       345
       169       174       169       170       170       171       171       172
       172       175       172       349       173       178       173       174
       174       175       175       176       176       179       176       353
       177       178       178       179       179       180       180       357
       181       182       181       186       182       183       183       184
       184       187       184       361       185       186       185       190
       186       187       187       188       188       191       188       365
       189       194       189       190       190       191       191       192
       192       195       192       369       193       198       193       194
       194       195       195       196       196       199       196       373
       197       202       197       198       198       199       199       200
       200       203       200       377       201       202       201       206
       202       203       203       204       204       207       204       381
       205       206       205       210       206       207       207       208
       208       211       208       385       209       214       209       210
       210       211       211       212       212       215       212       389
       213       218       213       214       214       215       215       216
       216       219       216       393       217       222       217       218
       218       219       219       220       220       223       220       397
       221       222       221       226       222       223       223       224
       224       227       224       401       225       226       225       230
       226       227       227       228       228       231       228       405
       229       234       229       230       230       231       231       232
       232       235       232       409       233       238       233       234
       234       235       235       236       236       239       236       413
       237       242       237       238       238       239       239       240
       240       243       240       417       241       242       241       246
       242       243       243       244       244       247       244       421
       245       246       245       250       246       247       247       248
       248       251       248       425       249       254       249       250
       250       251       251       252       252       255       252       429
       253       258       253       254       254       255       255       256
       256       259       256       433       257       262       257       258
       258       259       259       260       260       263       260       437
       261       262       261       266       262       263       263       264
       264       267       264       441       265       266       265       270
       266       267       267       268       268       271       268       445
       269       274       269       270       270       271       271       272
       272       275       272       449       273       278       273       274
       274       275       275       276       276       279       276       453
       277       282       277       278       278       279       279       280
       280       283       280       457       281       282       281       286
       282       283       283       284       284       287       284       461
       285       286       285       290       286       287       287       288
       288       291       288       465       289       294       289       290
       290       291       291       292       292       295       292       469
       293       298       293       294       294       295       295       296
       296       299       296       473       297       302       297       298
       298       299       299       300       300       303       300       477
       301       302       301       306       302       303       303       304
       304       307       304       481       305       306       305       310
       306       307       307       308       308       311       308       485
       309       314       309       310       310       311       311       312
       312       315       312       489       313       318       313       314
       314       315       315       316       316       319       316       493
       317       322       317       318       318       319       319       320
       320       323       320       497       321       322       321       326
       322       323       323       324       324       327       324       501
       325       326       325       330       326       327       327       328
       328       331       328       505       329       334       329       330
       330       331       331       332       332       335       332       509
       333       338       333       334       334       335       335       336
       336       339       336       513       337       342       337       338
       338       339       339       340       340       343       340       517
       341       342       341       346       342       343       343       344
       344       347       344       521       345       346       345       350
       346       347       347       348       348       351       348       525
       349       354       349       350       350       351       351       352
       352       355       352       529       353       354       353       358
       354       355       355       356       356       359       356       533
       357       358       358       359       359       360       360       537
       361       362       361       366       362       363       363       364
       364       367       364       541       365       366       365       370
       366       367       367       368       368       371       368       545
       369       374       369       370       370       371       371       372
       372       375       372       549       373       374       373       378
       374       375       375       376       376       379       376       553
       377       382       377       378       378       379       379       380
       380       383       380       557       381       382       381       386
       382       383       383       384       384       387       384       561
       385       386       385       390       386       387       387       388
       388       391       388       565       389       394       389       390
       390       391       391       392       392       395       392       569
       393       398       393       394       394       395       395       396
       396       399       396       573       397       402       397       398
       398       399       399       400       400       403       400       577
       401       402       401       406       402       403       403       404
       404       407       404       581       405       406       405       410
       406       407       407       408       408       411       408       585
       409       414       409       410       410       411       411       412
       412       415       412       589       413       418       413       414
       414       415       415       416       416       419       416       593
       417       422       417       418       418       419       419       420
       420       423       420       597       421       422       421       426
       422       423       423       424       424       427       424       601
       425       426       425       430       426       427       427       428
       428       431       428       605       429       434       429       430
       430       431       431       432       432       435       432       609
       433       438       433       434       434       435       435       436
       436       439       436       613       437       442       437       438
       438       439       439       440       440       443       440       617
       441       442       441       446       442       443       443       444
       444       447       444       621       445       446       445       450
       446       447       447       448       448       451       448       625
       449       454       449       450       450       451       451       452
       452       455       452       629       453       458       453       454
       454       455       455       456       456       459       456       633
       457       462       457       458       458       459       459       460
       460       463       460       637       461       462       461       466
       462       463       463       464       464       467       464       641
       465       466       465       470       466       467       467       468
       468       471       468       645       469       474       469       470
       470       471       471       472       472       475       472       649
       473       478       473       474       474       475       475       476
       476       479       476       653       477       482       477       478
       478       479       479       480       480       483       480       657
       481       482       481       486       482       483       483       484
       484       487       484       661       485       486       485       490
       486       487       487       488       488       491       488       665
       489       494       489       490       490       491       491       492
       492       495       492       669       493       498       493       494
       494       495       495       496       496       499       496       673
       497       502       497       498       498       499       499       500
       500       503       500       677       501       502       501       506
       502       503       503       504       504       507       504       681
       505       506       505       510       506       507       507       508
       508       511       508       685       509       514       509       510
       510       511       511       512       512       515       512       689
       513       518       513       514       514       515       515       516
       516       519       516       693       517       522       517       518
       518       519       519       520       520       523       520       697
       521       522       521       526       522       523       523       524
       524       527       524       701       525       526       525       530
       526       527       527       528       528       531       528       705
       529       534       529       530       530       531       531       532
       532       535       532       709       533       538       533       534
       534       535       535       536       536       539       536       713
       537       538       538       539       539       540       540       717
       541       542       541       546       542       543       543       544
       544       547       544       721       545       546       545       550
       546       547       547       548       548       551       548       725
       549       554       549       550       550       551       551       552
       552       555       552       729       553       558       553       554
       554       555       555       556       556       559       556       733
       557       562       557       558       558       559       559       560
       560       563       560       737       561       562       561       566
       562       563       563       564       564       567       564       741
       565       566       565       570       566       567       567       568
       568       571       568       745       569       574       569       570
       570       571       571       572       572       575       572       749
       573       578       573       574       574       575       575       576
       576       579       576       753       577       582       577       578
       578       579       579       580       580       583       580       757
       581       582       581       586       582       583       583       584
       584       587       584       761       585       586       585       590
       586       587       587       588       588       591       588       765
       589       594       589       590       590       591       591       592
       592       595       592       769       593       594       593       598
       594       595       595       596       596       599       596       773
       597       602       597       598       598       599       599       600
       600       603       600       777       601       602       601       606
       602       603       603       604       604       607       604       781
       605       606       605       610       606       607       607       608
       608       611       608       785       609       614       609       610
       610       611       611       612       612       615       612       789
       613       618       613       614       614       615       615       616
       616       619       616       793       617       622       617       618
       618       619       619       620       620       623       620       797
       621       622       621       626       622       623       623       624
       624       627       624       801       625       626       625       630
       626       627       627       628       628       631       628       805
       629       634       629       630       630       631       631       632
       632       635       632       809       633       638       633       634
       634       635       635       636       636       639       636       813
       637       642       637       638       638       639       639       640
       640       643       640       817       641       642       641       646
       642       643       643       644       644       647       644       821
       645       646       645       650       646       647       647       648
       648       651       648       825       649       654       649       650
       650       651       651       652       652       655       652       829
       653       658       653       654       654       655       655       656
       656       659       656       833       657       662       657       658
       658       659       659       660       660       663       660       837
       661       662       661       666       662       663       663       664
       664       667       664       841       665       666       665       670
       666       667       667       668       668       671       668       845
       669       674       669       670       670       671       671       672
       672       675       672       849       673       678       673       674
       674       675       675       676       676       679       676       853
       677       682       677       678       678       679       679       680
       680       683       680       857       681       682       681       686
       682       683       683       684       684       687       684       861
       685       686       685       690       686       687       687       688
       688       691       688       865       689       694       689       690
       690       691       691       692       692       695       692       869
       693       698       693       694       694       695       695       696
       696       699       696       873       697       702       697       698
       698       699       699       700       700       703       700       877
       701       702       701       706       702       703       703       704
       704       707       704       881       705       706       705       710
       706       707       707       708       708       711       708       885
       709       714       709       710       710       711       711       712
       712       715       712       889       713       718       713       714
       714       715       715       716       716       719       716       893
       717       718       718       719       719       720       720       897
       721       722       721       726       722       723       723       724
       724       727       724       901       725       726       725       730
       726       727       727       728       728       731       728       905
       729       734       729       730       730       731       731       732
       732       735       732       909       733       738       733       734
       734       735       735       736       736       739       736       913
       737       742       737       738       738       739       739       740
       740       743       740       917       741       742       741       746
       742       743       743       744       744       747       744       921
       745       746       745       750       746       747       747       748
       748       751       748       925       749       754       749       750
       750       751       751       752       752       755       752       929
       753       758       753       754       754       755       755       756
       756       759       756       933       757       762       757       758
       758       759       759       760       760       763       760       937
       761       762       761       766       762       763       763       764
       764       767       764       941       765       766       765       770
       766       767       767       768       768       771       768       945
       769       774       769       770       770       771       771       772
       772       775       772       949       773       778       773       774
       774       775       775       776       776       779       776       953
       777       782       777       778       778       779       779       780
       780       783       780       957       781       782       781       786
       782       783       783       784       784       787       784       961
       785       786       785       790       786       787       787       788
       788       791       788       965       789       794       789       790
       790       791       791       792       792       795       792       969
       793       798       793       794       794       795       795       796
       796       799       796       973       797       802       797       798
       798       799       799       800       800       803       800       977
       801       802       801       806       802       803       803       804
       804       807       804       981       805       806       805       810
       806       807       807       808       808       811       808       985
       809       814       809       810       810       811       811       812
       812       815       812       989       813       814       813       818
       814       815       815       816       816       819       816       993
       817       822       817       818       818       819       819       820
       820       823       820       997       821       822       821       826
       822       823       823       824       824       827       824      1001
       825       826       825       830       826       827       827       828
       828       831       828      1005       829       834       829       830
       830       831       831       832       832       835       832      1009
       833       838       833       834       834       835       835       836
       836       839       836      1013       837       842       837       838
       838       839       839       840       840       843       840      1017
       841       842       841       846       842       843       843       844
       844       847       844      1021       845       846       845       850
       846       847       847       848       848       851       848      1025
       849       854       849       850       850       851       851       852
       852       855       852      1029       853       858       853       854
       854       855       855       856       856       859       856      1033
       857       862       857       858       858       859       859       860
       860       863       860      1037       861       862       861       866
       862       863       863       864       864       867       864      1041
       865       866       865       870       866       867       867       868
       868       871       868      1045       869       874       869       870
       870       871       871       872       872       875       872      1049
       873       878       873       874       874       875       875       876
       876       879       876      1053       877       882       877       878
       878       879       879       880       880       883       880      1057
       881       882       881       886       882       883       883       884
       884       887       884      1061       885       886       885       890
       886       887       887       888       888       891       888      1065
       889       894       889       890       890       891       891       892
       892       895       892      1069       893       898       893       894
       894       895       895       896       896       899       896      1073
       897       898       898       899       899       900       900      1077
       901       902       901       906       902       903       903       904
       904       907       904      1081       905       906       905       910
       906       907       907       908       908       911       908      1085
       909       914       909       910       910       911       911       912
       912       915       912      1089       913       918       913       914
       914       915       915       916       916       919       916      1093
       917       922       917       918       918       919       919       920
       920       923       920      1097       921       922       921       926
       922       923       923       924       924       927       924      1101
       925       926       925       930       926       927       927       928
       928       931       928      1105       929       934       929       930
       930       931       931       932       932       935       932      1109
       933       938       933       934       934       935       935       936
       936       939       936      1113       937       942       937       938
       938       939       939       940       940       943       940      1117
       941       942       941       946       942       943       943       944
       944       947       944      1121       945       946       945       950
       946       947       947       948       948       951       948      1125
       949       954       949       950       950       951       951       952
       952       955       952      1129       953       958       953       954
       954       955       955       956       956       959       956      1133
       957       962       957       958       958       959       959       960
       960       963       960      1137       961       962       961       966
       962       963       963       964       964       967       964      1141
       965       966       965       970       966       967       967       968
       968       971       968      1145       969       974       969       970
       970       971       971       972       972       975       972      1149
       973       978       973       974       974       975       975       976
       976       979       976      1153       977       982       977       978
       978       979       979       980       980       983       980      1157
       981       982       981       986       982       983       983       984
       984       987       984      1161       985       986       985       990
       986       987       987       988       988       991       988      1165
       989       994       989       990       990       991       991       992
       992       995       992      1169       993       998       993       994
       994       995       995       996       996       999       996      1173
       997      1002       997       998       998       999       999      1000
      1000      1003      1000      1177      1001      1002      1001      1006
      1002      1003      1003      1004      1004      1007      1004      1181
      1005      1006      1005      1010      1006      1007      1007      1008
      1008      1011      1008      1185      1009      1014      1009      1010
      1010      1011      1011      1012      1012      1015      1012      1189
      1013      1018      1013      1014      1014      1015      1015      1016
      1016      1019      1016      1193      1017      1022      1017      1018
      1018      1019      1019      1020      1020      1023      1020      1197
      1021      1022      1021      1026      1022      1023      1023      1024
      1024      1027      1024      1201      1025      1026      1025      1030
      1026      1027      1027      1028      1028      1031      1028      1205
      1029      1034      1029      1030      1030      1031      1031      1032
      1032      1035      1032      1209      1033      1034      1033      1038
      1034      1035      1035      1036      1036      1039      1036      1213
      1037      1042      1037      1038      1038      1039      1039      1040
      1040      1043      1040      1217      1041      1042      1041      1046
      1042      1043      1043      1044      1044      1047      1044      1221
      1045      1046      1045      1050      1046      1047      1047      1048
      1048      1051      1048      1225      1049      1054      1049      1050
      1050      1051      1051      1052      1052      1055      1052      1229
      1053      1058      1053      1054      1054      1055      1055      1056
      1056      1059      1056      1233      1057      1062      1057      1058
      1058      1059      1059      1060      1060      1063      1060      1237
      1061      1062      1061      1066      1062      1063      1063      1064
      1064      1067      1064      1241      1065      1066      1065      1070
      1066      1067      1067      1068      1068      1071      1068      1245
      1069      1074      1069      1070      1070      1071      1071      1072
      1072      1075      1072      1249      1073      1078      1073      1074
      1074      1075      1075      1076      1076      1079      1076      1253
      1077      1078      1078      1079      1079      1080      1080      1257
      1081      1082      1081      1086      1082      1083      1083      1084
      1084      1087      1084      1261      1085      1086      1085      1090
      1086      1087      1087      1088      1088      1091      1088      1265
      1089      1094      1089      1090      1090      1091      1091      1092
      1092      1095      1092      1269      1093      1098      1093      1094
      1094      1095      1095      1096      1096      1099      1096      1273
      1097      1102      1097      1098      1098      1099      1099      1100
      1100      1103      1100      1277      1101      1102      1101      1106
      1102      1103      1103      1104      1104      1107      1104      1281
      1105      1106      1105      1110      1106      1107      1107      1108
      1108      1111      1108      1285      1109      1114      1109      1110
      1110      1111      1111      1112      1112      1115      1112      1289
      1113      1118      1113      1114      1114      1115      1115      1116
      1116      1119      1116      1293      1117      1122      1117      1118
      1118      1119      1119      1120      1120      1123      1120      1297
      1121      1122      1121      1126      1122      1123      1123      1124
      1124      1127      1124      1301      1125      1126      1125      1130
      1126      1127      1127      1128      1128      1131      1128      1305
      1129      1134      1129      1130      1130      1131      1131      1132
      1132      1135      1132      1309      1133      1138      1133      1134
      1134      1135      1135      1136      1136      1139      1136      1313
      1137      1142      1137      1138      1138      1139      1139      1140
      1140      1143      1140      1317      1141      1142      1141      1146
      1142      1143      1143      1144      1144      1147      1144      1321
      1145      1146      1145      1150      1146      1147      1147      1148
      1148      1151      1148      1325      1149      1154      1149      1150
      1150      1151      1151      1152      1152      1155      1152      1329
      1153      1158      1153      1154      1154      1155      1155      1156
      1156      1159      1156      1333      1157      1162      1157      1158
      1158      1159      1159      1160      1160      1163      1160      1337
      1161      1162      1161      1166      1162      1163      1163      1164
      1164      1167      1164      1341      1165      1166      1165      1170
      1166      1167      1167      1168      1168      1171      1168      1345
      1169      1174      1169      1170      1170      1171      1171      1172
      1172      1175      1172      1349      1173      1178      1173      1174
      1174      1175      1175      1176      1176      1179      1176      1353
      1177      1182      1177      1178      1178      1179      1179      1180
      1180      1183      1180      1357      1181      1182      1181      1186
      1182      1183      1183      1184      1184      1187      1184      1361
      1185      1186      1185      1190      1186      1187      1187      1188
      1188      1191      1188      1365      1189      1194      1189      1190
      1190      1191      1191      1192      1192      1195      1192      1369
      1193      1198      1193      1194      1194      1195      1195      1196
      1196      1199      1196      1373      1197      1202      1197      1198
      1198      1199      1199      1200      1200      1203      1200      1377
      1201      1202      1201      1206      1202      1203      1203      1204
      1204      1207      1204      1381      1205      1206      1205      1210
      1206      1207      1207      1208      1208      1211      1208      1385
      1209      1214      1209      1210      1210      1211      1211      1212
      1212      1215      1212      1389      1213      1218      1213      1214
      1214      1215      1215      1216      1216      1219      1216      1393
      1217      1222      1217      1218      1218      1219      1219      1220
      1220      1223      1220      1397      1221      1222      1221      1226
      1222      1223      1223      1224      1224      1227      1224      1401
      1225      1226      1225      1230      1226      1227      1227      1228
      1228      1231      1228      1405      1229      1234      1229      1230
      1230      1231      1231      1232      1232      1235      1232      1409
      1233      1238      1233      1234      1234      1235      1235      1236
      1236      1239      1236      1413      1237      1242      1237      1238
      1238      1239      1239      1240      1240      1243      1240      1417
      1241      1242      1241      1246      1242      1243      1243      1244
      1244      1247      1244      1421      1245      1246      1245      1250
      1246      1247      1247      1248      1248      1251      1248      1425
      1249      1254      1249      1250      1250      1251      1251      1252
      1252      1255      1252      1429      1253      1254      1253      1258
      1254      1255      1255      1256      1256      1259      1256      1433
      1257      1258      1258      1259      1259      1260      1260      1437
      1261      1262      1261      1266      1262      1263      1263      1264
      1264      1267      1264      1441      1265      1266      1265      1270
      1266      1267      1267      1268      1268      1271      1268      1445
      1269      1274      1269      1270      1270      1271      1271      1272
      1272      1275      1272      1449      1273      1274      1273      1278
      1274      1275      1275      1276      1276      1279      1276      1453
      1277      1282      1277      1278      1278      1279      1279      1280
      1280      1283      1280      1457      1281      1282      1281      1286
      1282      1283      1283      1284      1284      1287      1284      1461
      1285      1286      1285      1290      1286      1287      1287      1288
      1288      1291      1288      1465      1289      1294      1289      1290
      1290      1291      1291      1292      1292      1295      1292      1469
      1293      1298      1293      1294      1294      1295      1295      1296
      1296      1299      1296      1473      1297      1302      1297      1298
      1298      1299      1299      1300      1300      1303      1300      1477
      1301      1302      1301      1306      1302      1303      1303      1304
      1304      1307      1304      1481      1305      1306      1305      1310
      1306      1307      1307      1308      1308      1311      1308      1485
      1309      1314      1309      1310      1310      1311      1311      1312
      1312      1315      1312      1489      1313      1318      1313      1314
      1314      1315      1315      1316      1316      1319      1316      1493
      1317      1322      1317      1318      1318      1319      1319      1320
      1320      1323      1320      1497      1321      1322      1321      1326
      1322      1323      1323      1324      1324      1327      1324      1501
      1325      1326      1325      1330      1326      1327      1327      1328
      1328      1331      1328      1505      1329      1334      1329      1330
      1330      1331      1331      1332      1332      1335      1332      1509
      1333      1338      1333      1334      1334      1335      1335      1336
      1336      1339      1336      1513      1337      1342      1337      1338
      1338      1339      1339      1340      1340      1343      1340      1517
      1341      1342      1341      1346      1342      1343      1343      1344
      1344      1347      1344      1521      1345      1346      1345      1350
      1346      1347      1347      1348      1348      1351      1348      1525
      1349      1354      1349      1350      1350      1351      1351      1352
      1352      1355      1352      1529      1353      1358      1353      1354
      1354      1355      1355      1356      1356      1359      1356      1533
      1357      1362      1357      1358      1358      1359      1359      1360
      1360      1363      1360      1537      1361      1362      1361      1366
      1362      1363      1363      1364      1364      1367      1364      1541
      1365      1366      1365      1370      1366      1367      1367      1368
      1368      1371      1368      1545      1369      1374      1369      1370
      1370      1371      1371      1372      1372      1375      1372      1549
      1373      1378      1373      1374      1374      1375      1375      1376
      1376      1379      1376      1553      1377      1382      1377      1378
      1378      1379      1379      1380      1380      1383      1380      1557
      1381      1382      1381      1386      1382      1383      1383      1384
      1384      1387      1384      1561      1385      1386      1385      1390
      1386      1387      1387      1388      1388      1391      1388      1565
      1389      1394      1389      1390      1390      1391      1391      1392
      1392      1395      1392      1569      1393      1398      1393      1394
      1394      1395      1395      1396      1396      1399      1396      1573
      1397      1402      1397      1398      1398      1399      1399      1400
      1400      1403      1400      1577      1401      1402      1401      1406
      1402      1403      1403      1404      1404      1407      1404      1581
      1405      1406      1405      1410      1406      1407      1407      1408
      1408      1411      1408      1585      1409      1414      1409      1410
      1410      1411      1411      1412      1412      1415      1412      1589
      1413      1418      1413      1414      1414      1415      1415      1416
      1416      1419      1416      1593      1417      1422      1417      1418
      1418      1419      1419      1420      1420      1423      1420      1597
      1421      1422      1421      1426      1422      1423      1423      1424
      1424      1427      1424      1601      1425      1426      1425      1430
      1426      1427      1427      1428      1428      1431      1428      1605
      1429      1434      1429      1430      1430      1431      1431      1432
      1432      1435      1432      1609      1433      1438      1433      1434
      1434      1435      1435      1436      1436      1439      1436      1613
      1437      1438      1438      1439      1439      1440      1440      1617
      1441      1442      1441      1446      1442      1443      1443      1444
      1444      1621      1444      1447      1445      1446      1445      1450
      1446      1447      1447      1448      1448      1625      1448      1451
      1449      1454      1449      1450      1450      1451      1451      1452
      1452      1629      1452      1455      1453      1458      1453      1454
      1454      1455      1455      1456      1456      1633      1456      1459
      1457      1462      1457      1458      1458      1459      1459      1460
      1460      1637      1460      1463      1461      1462      1461      1466
      1462      1463      1463      1464      1464      1641      1464      1467
      1465      1466      1465      1470      1466      1467      1467      1468
      1468      1645      1468      1471      1469      1474      1469      1470
      1470      1471      1471      1472      1472      1475      1472      1649
      1473      1478      1473      1474      1474      1475      1475      1476
      1476      1479      1476      1653      1477      1482      1477      1478
      1478      1479      1479      1480      1480      1657      1480      1483
      1481      1482      1481      1486      1482      1483      1483      1484
      1484      1661      1484      1487      1485      1486      1485      1490
      1486      1487      1487      1488      1488      1665      1488      1491
      1489      1494      1489      1490      1490      1491      1491      1492
      1492      1495      1492      1669      1493      1494      1493      1498
      1494      1495      1495      1496      1496      1499      1496      1673
      1497      1498      1497      1502      1498      1499      1499      1500
      1500      1677      1500      1503      1501      1502      1501      1506
      1502      1503      1503      1504      1504      1681      1504      1507
      1505      1506      1505      1510      1506      1507      1507      1508
      1508      1685      1508      1511      1509      1510      1509      1514
      1510      1511      1511      1512      1512      1515      1512      1689
      1513      1514      1513      1518      1514      1515      1515      1516
      1516      1693      1516      1519      1517      1522      1517      1518
      1518      1519      1519      1520      1520      1697      1520      1523
      1521      1522      1521      1526      1522      1523      1523      1524
      1524      1701      1524      1527      1525      1526      1525      1530
      1526      1527      1527      1528      1528      1705      1528      1531
      1529      1534      1529      1530      1530      1531      1531      1532
      1532      1709      1532      1535      1533      1538      1533      1534
      1534      1535      1535      1536      1536      1539      1536      1713
      1537      1542      1537      1538      1538      1539      1539      1540
      1540      1717      1540      1543      1541      1542      1541      1546
      1542      1543      1543      1544      1544      1721      1544      1547
      1545      1546      1545      1550      1546      1547      1547      1548
      1548      1725      1548      1551      1549      1554      1549      1550
      1550      1551      1551      1552      1552      1555      1552      1729
      1553      1558      1553      1554      1554      1555      1555      1556
      1556      1559      1556      1733      1557      1562      1557      1558
      1558      1559      1559      1560      1560      1737      1560      1563
      1561      1562      1561      1566      1562      1563      1563      1564
      1564      1741      1564      1567      1565      1566      1565      1570
      1566      1567      1567      1568      1568      1745      1568      1571
      1569      1570      1569      1574      1570      1571      1571      1572
      1572      1575      1572      1749      1573      1574      1573      1578
      1574      1575      1575      1576      1576      1579      1576      1753
      1577      1578      1577      1582      1578      1579      1579      1580
      1580      1757      1580      1583      1581      1582      1581      1586
      1582      1583      1583      1584      1584      1761      1584      1587
      1585      1586      1585      1590      1586      1587      1587      1588
      1588      1765      1588      1591      1589      1594      1589      1590
      1590      1591      1591      1592      1592      1769      1592      1595
      1593      1598      1593      1594      1594      1595      1595      1596
      1596      1773      1596      1599      1597      1602      1597      1598
      1598      1599      1599      1600      1600      1777      1600      1603
      1601      1602      1601      1606      1602      1603      1603      1604
      1604      1781      1604      1607      1605      1606      1605      1610
      1606      1607      1607      1608      1608      1785      1608      1611
      1609      1614      1609      1610      1610      1611      1611      1612
      1612      1615      1612      1789      1613      1618      1613      1614
      1614      1615      1615      1616      1616      1619      1616      1793
      1617      1618      1618      1619      1619      1620      1620      1797
      1621      1622      1621      1626      1622      1623      1623      1624
      1624      1801      1624      1627      1625      1626      1625      1630
      1626      1627      1627      1628      1628      1805      1628      1631
      1629      1634      1629      1630      1630      1631      1631      1632
      1632      1635      1632      1809      1633      1638      1633      1634
      1634      1635      1635      1636      1636      1639      1636      1813
      1637      1642      1637      1638      1638      1639      1639      1640
      1640      1817      1640      1643      1641      1642      1641      1646
      1642      1643      1643      1644      1644      1821      1644      1647
      1645      1646      1645      1650      1646      1647      1647      1648
      1648      1825      1648      1651      1649      1650      1649      1654
      1650      1651      1651      1652      1652      1655      1652      1829
      1653      1654      1653      1658      1654      1655      1655      1656
      1656      1659      1656      1833      1657      1658      1657      1662
      1658      1659      1659      1660      1660      1837      1660      1663
      1661      1662      1661      1666      1662      1663      1663      1664
      1664      1841      1664      1667      1665      1666      1665      1670
      1666      1667      1667      1668      1668      1845      1668      1671
      1669      1674      1669      1670      1670      1671      1671      1672
      1672      1849      1672      1675      1673      1678      1673      1674
      1674      1675      1675      1676      1676      1853      1676      1679
      1677      1682      1677      1678      1678      1679      1679      1680
      1680      1857      1680      1683      1681      1682      1681      1686
      1682      1683      1683      1684      1684      1861      1684      1687
      1685      1686      1685      1690      1686      1687      1687      1688
      1688      1865      1688      1691      1689      1694      1689      1690
      1690      1691      1691      1692      1692      1695      1692      1869
      1693      1698      1693      1694      1694      1695      1695      1696
      1696      1699      1696      1873      1697      1702      1697      1698
      1698      1699      1699      1700      1700      1877      1700      1703
      1701      1702      1701      1706      1702      1703      1703      1704
      1704      1881      1704      1707      1705      1706      1705      1710
      1706      1707      1707      1708      1708      1885      1708      1711
      1709      1714      1709      1710      1710      1711      1711      1712
      1712      1715      1712      1889      1713      1714      1713      1718
      1714      1715      1715      1716      1716      1719      1716      1893
      1717      1718      1717      1722      1718      1719      1719      1720
      1720      1897      1720      1723      1721      1722      1721      1726
      1722      1723      1723      1724      1724      1901      1724      1727
      1725      1726      1725      1730      1726      1727      1727      1728
      1728      1905      1728      1731      1729      1730      1729      1734
      1730      1731      1731      1732      1732      1735      1732      1909
      1733      1734      1733      1738      1734      1735      1735      1736
      1736      1913      1736      1739      1737      1742      1737      1738
      1738      1739      1739      1740      1740      1917      1740      1743
      1741      1742      1741      1746      1742      1743      1743      1744
      1744      1921      1744      1747      1745      1746      1745      1750
      1746      1747      1747      1748      1748      1925      1748      1751
      1749      1754      1749      1750      1750      1751      1751      1752
      1752      1929      1752      1755      1753      1758      1753      1754
      1754      1755      1755      1756      1756      1759      1756      1933
      1757      1762      1757      1758      1758      1759      1759      1760
      1760      1937      1760      1763      1761      1762      1761      1766
      1762      1763      1763      1764      1764      1941      1764      1767
      1765      1766      1765      1770      1766      1767      1767      1768
      1768      1945      1768      1771      1769      1774      1769      1770
      1770      1771      1771      1772      1772      1775      1772      1949
      1773      1778      1773      1774      1774      1775      1775      1776
      1776      1779      1776      1953      1777      1782      1777      1778
      1778      1779      1779      1780      1780      1957      1780      1783
      1781      1782      1781      1786      1782      1783      1783      1784
      1784      1961      1784      1787      1785      1786      1785      1790
      1786      1787      1787      1788      1788      1965      1788      1791
      1789      1790      1789      1794      1790      1791      1791      1792
      1792      1795      1792      1969      1793      1794      1793      1798
      1794      1795      1795      1796      1796      1799      1796      1973
      1797      1798      1798      1799      1799      1800      1800      1977
      1801      1802      1801      1806      1802      1803      1803      1804
      1804      1981      1804      1807      1805      1806      1805      1810
      1806      1807      1807      1808      1808      1985      1808      1811
      1809      1810      1809      1814      1810      1811      1811      1812
      1812      1815      1812      1989      1813      1814      1813      1818
      1814      1815      1815      1816      1816      1819      1816      1993
      1817      1818      1817      1822      1818      1819      1819      1820
      1820      1997      1820      1823      1821      1822      1821      1826
      1822      1823      1823      1824      1824      2001      1824      1827
      1825      1826      1825      1830      1826      1827      1827      1828
      1828      2005      1828      1831      1829      1834      1829      1830
      1830      1831      1831      1832      1832      2009      1832      1835
      1833      1838      1833      1834      1834      1835      1835      1836
      1836      2013      1836      1839      1837      1842      1837      1838
      1838      1839      1839      1840      1840      2017      1840      1843
      1841      1842      1841      1846      1842      1843      1843      1844
      1844      2021      1844      1847      1845      1846      1845      1850
      1846      1847      1847      1848      1848      2025      1848      1851
      1849      1854      1849      1850      1850      1851      1851      1852
      1852      1855      1852      2029      1853      1858      1853      1854
      1854      1855      1855      1856      1856      1859      1856      2033
      1857      1862      1857      1858      1858      1859      1859      1860
      1860      2037      1860      1863      1861      1862      1861      1866
      1862      1863      1863      1864      1864      2041      1864      1867
      1865      1866      1865      1870      1866      1867      1867      1868
      1868      2045      1868      1871      1869      1870      1869      1874
      1870      1871      1871      1872      1872      1875      1872      2049
      1873      1874      1873      1878      1874      1875      1875      1876
      1876      1879      1876      2053      1877      1878      1877      1882
      1878      1879      1879      1880      1880      2057      1880      1883
      1881      1882      1881      1886      1882      1883      1883      1884
      1884      2061      1884      1887      1885      1886      1885      1890
      1886      1887      1887      1888      1888      2065      1888      1891
      1889      1894      1889      1890      1890      1891      1891      1892
      1892      2069      1892      1895      1893      1898      1893      1894
      1894      1895      1895      1896      1896      2073      1896      1899
      1897      1902      1897      1898      1898      1899      1899      1900
      1900      2077      1900      1903      1901      1902      1901      1906
      1902      1903      1903      1904      1904      2081      1904      1907
      1905      1906      1905      1910      1906      1907      1907      1908
      1908      2085      1908      1911      1909      1914      1909      1910
      1910      1911      1911      1912      1912      1915      1912      2089
      1913      1918      1913      1914      1914      1915      1915      1916
      1916      1919      1916      2093      1917      1922      1917      1918
      1918      1919      1919      1920      1920      2097      1920      1923
      1921      1922      1921      1926      1922      1923      1923      1924
      1924      2101      1924      1927      1925      1926      1925      1930
      1926      1927      1927      1928      1928      2105      1928      1931
      1929      1934      1929      1930      1930      1931      1931      1932
      1932      1935      1932      2109      1933      1934      1933      1938
      1934      1935      1935      1936      1936      1939      1936      2113
      1937      1938      1937      1942      1938      1939      1939      1940
      1940      2117      1940      1943      1941      1942      1941      1946
      1942      1943      1943      1944      1944      2121      1944      1947
      1945      1946      1945      1950      1946      1947      1947      1948
      1948      2125      1948      1951      1949      1950      1949      1954
      1950      1951      1951      1952      1952      1955      1952      2129
      1953      1954      1953      1958      1954      1955      1955      1956
      1956      2133      1956      1959      1957      1962      1957      1958
      1958      1959      1959      1960      1960      2137      1960      1963
      1961      1962      1961      1966      1962      1963      1963      1964
      1964      2141      1964      1967      1965      1966      1965      1970
      1966      1967      1967      1968      1968      2145      1968      1971
      1969      1974      1969      1970      1970      1971      1971      1972
      1972      2149      1972      1975      1973      1978      1973      1974
      1974      1975      1975      1976      1976      1979      1976      2153
      1977      1978      1978      1979      1979      1980      1980      2157
      1981      1982      1981      1986      1982      1983      1983      1984
      1984      2161      1984      1987      1985      1986      1985      1990
      1986      1987      1987      1988      1988      2165      1988      1991
      1989      1994      1989      1990      1990      1991      1991      1992
      1992      2169      1992      1995      1993      1998      1993      1994
      1994      1995      1995      1996      1996      1999      1996      2173
      1997      2002      1997      1998      1998      1999      1999      2000
      2000      2177      2000      2003      2001      2002      2001      2006
      2002      2003      2003      2004      2004      2181      2004      2007
      2005      2006      2005      2010      2006      2007      2007      2008
      2008      2185      2008      2011      2009      2014      2009      2010
      2010      2011      2011      2012      2012      2015      2012      2189
      2013      2018      2013      2014      2014      2015      2015      2016
      2016      2019      2016      2193      2017      2022      2017      2018
      2018      2019      2019      2020      2020      2197      2020      2023
      2021      2022      2021      2026      2022      2023      2023      2024
      2024      2201      2024      2027      2025      2026      2025      2030
      2026      2027      2027      2028      2028      2205      2028      2031
      2029      2030      2029      2034      2030      2031      2031      2032
      2032      2035      2032      2209      2033      2034      2033      2038
      2034      2035      2035      2036      2036      2039      2036      2213
      2037      2038      2037      2042      2038      2039      2039      2040
      2040      2217      2040      2043      2041      2042      2041      2046
      2042      2043      2043      2044      2044      2221      2044      2047
      2045      2046      2045      2050      2046      2047      2047      2048
      2048      2225      2048      2051      2049      2054      2049      2050
      2050      2051      2051      2052      2052      2229      2052      2055
      2053      2058      2053      2054      2054      2055      2055      2056
      2056      2233      2056      2059      2057      2062      2057      2058
      2058      2059      2059      2060      2060      2237      2060      2063
      2061      2062      2061      2066      2062      2063      2063      2064
      2064      2241      2064      2067      2065      2066      2065      2070
      2066      2067      2067      2068      2068      2245      2068      2071
      2069      2074      2069      2070      2070      2071      2071      2072
      2072      2075      2072      2249      2073      2078      2073      2074
      2074      2075      2075      2076      2076      2079      2076      2253
      2077      2082      2077      2078      2078      2079      2079      2080
      2080      2257      2080      2083      2081      2082      2081      2086
      2082      2083      2083      2084      2084      2261      2084      2087
      2085      2086      2085      2090      2086      2087      2087      2088
      2088      2265      2088      2091      2089      2090      2089      2094
      2090      2091      2091      2092      2092      2095      2092      2269
      2093      2094      2093      2098      2094      2095      2095      2096
      2096      2099      2096      2273      2097      2098      2097      2102
      2098      2099      2099      2100      2100      2277      2100      2103
      2101      2102      2101      2106      2102      2103      2103      2104
      2104      2281      2104      2107      2105      2106      2105      2110
      2106      2107      2107      2108      2108      2285      2108      2111
      2109      2114      2109      2110      2110      2111      2111      2112
      2112      2289      2112      2115      2113      2118      2113      2114
      2114      2115      2115      2116      2116      2293      2116      2119
      2117      2122      2117      2118      2118      2119      2119      2120
      2120      2297      2120      2123      2121      2122      2121      2126
      2122      2123      2123      2124      2124      2301      2124      2127
      2125      2126      2125      2130      2126      2127      2127      2128
      2128      2305      2128      2131      2129      2134      2129      2130
      2130      2131      2131      2132      2132      2135      2132      2309
      2133      2138      2133      2134      2134      2135      2135      2136
      2136      2139      2136      2313      2137      2142      2137      2138
      2138      2139      2139      2140      2140      2317      2140      2143
      2141      2142      2141      2146      2142      2143      2143      2144
      2144      2321      2144      2147      2145      2146      2145      2150
      2146      2147      2147      2148      2148      2325      2148      2151
      2149      2154      2149      2150      2150      2151      2151      2152
      2152      2155      2152      2329      2153      2154      2153      2158
      2154      2155      2155      2156      2156      2159      2156      2333
      2157      2158      2158      2159      2159      2160      2160      2337
      2161      2162      2161      2166      2162      2163      2163      2164
      2164      2167      2164      2341      2165      2166      2165      2170
      2166      2167      2167      2168      2168      2171      2168      2345
      2169      2174      2169      2170      2170      2171      2171      2172
      2172      2175      2172      2349      2173      2178      2173      2174
      2174      2175      2175      2176      2176      2179      2176      2353
      2177      2182      2177      2178      2178      2179      2179      2180
      2180      2183      2180      2357      2181      2182      2181      2186
      2182      2183      2183      2184      2184      2187      2184      2361
      2185      2186      2185      2190      2186      2187      2187      2188
      2188      2191      2188      2365      2189      2194      2189      2190
      2190      2191      2191      2192      2192      2195      2192      2369
      2193      2194      2193      2198      2194      2195      2195      2196
      2196      2199      2196      2373      2197      2202      2197      2198
      2198      2199      2199      2200      2200      2203      2200      2377
      2201      2202      2201      2206      2202      2203      2203      2204
      2204      2207      2204      2381      2205      2206      2205      2210
      2206      2207      2207      2208      2208      2211      2208      2385
      2209      2214      2209      2210      2210      2211      2211      2212
      2212      2215      2212      2389      2213      2218      2213      2214
      2214      2215      2215      2216      2216      2219      2216      2393
      2217      2222      2217      2218      2218      2219      2219      2220
      2220      2223      2220      2397      2221      2222      2221      2226
      2222      2223      2223      2224      2224      2227      2224      2401
      2225      2226      2225      2230      2226      2227      2227      2228
      2228      2231      2228      2405      2229      2234      2229      2230
      2230      2231      2231      2232      2232      2235      2232      2409
      2233      2238      2233      2234      2234      2235      2235      2236
      2236      2239      2236      2413      2237      2242      2237      2238
      2238      2239      2239      2240      2240      2243      2240      2417
      2241      2242      2241      2246      2242      2243      2243      2244
      2244      2247      2244      2421      2245      2246      2245      2250
      2246      2247      2247      2248      2248      2251      2248      2425
      2249      2254      2249      2250      2250      2251      2251      2252
      2252      2255      2252      2429      2253      2258      2253      2254
      2254      2255      2255      2256      2256      2259      2256      2433
      2257      2262      2257      2258      2258      2259      2259      2260
      2260      2263      2260      2437      2261      2262      2261      2266
      2262      2263      2263      2264      2264      2267      2264      2441
      2265      2266      2265      2270      2266      2267      2267      2268
      2268      2271      2268      2445      2269      2274      2269      2270
      2270      2271      2271      2272      2272      2275      2272      2449
      2273      2278      2273      2274      2274      2275      2275      2276
      2276      2279      2276      2453      2277      2282      2277      2278
      2278      2279      2279      2280      2280      2283      2280      2457
      2281      2282      2281      2286      2282      2283      2283      2284
      2284      2287      2284      2461      2285      2286      2285      2290
      2286      2287      2287      2288      2288      2291      2288      2465
      2289      2294      2289      2290      2290      2291      2291      2292
      2292      2295      2292      2469      2293      2298      2293      2294
      2294      2295      2295      2296      2296      2299      2296      2473
      2297      2302      2297      2298      2298      2299      2299      2300
      2300      2303      2300      2477      2301      2302      2301      2306
      2302      2303      2303      2304      2304      2307      2304      2481
      2305      2306      2305      2310      2306      2307      2307      2308
      2308      2311      2308      2485      2309      2314      2309      2310
      2310      2311      2311      2312      2312      2315      2312      2489
      2313      2318      2313      2314      2314      2315      2315      2316
      2316      2319      2316      2493      2317      2322      2317      2318
      2318      2319      2319      2320      2320      2323      2320      2497
      2321      2322      2321      2326      2322      2323      2323      2324
      2324      2327      2324      2501      2325      2326      2325      2330
      2326      2327      2327      2328      2328      2331      2328      2505
      2329      2334      2329      2330      2330      2331      2331      2332
      2332      2335      2332      2509      2333      2338      2333      2334
      2334      2335      2335      2336      2336      2339      2336      2513
      2337      2338      2338      2339      2339      2340      2340      2517
      2341      2342      2341      2346      2342      2343      2343      2344
      2344      2347      2344      2521      2345      2346      2345      2350
      2346      2347      2347      2348      2348      2351      2348      2525
      2349      2354      2349      2350      2350      2351      2351      2352
      2352      2355      2352      2529      2353      2358      2353      2354
      2354      2355      2355      2356      2356      2359      2356      2533
      2357      2362      2357      2358      2358      2359      2359      2360
      2360      2363      2360      2537      2361      2362      2361      2366
      2362      2363      2363      2364      2364      2367      2364      2541
      2365      2366      2365      2370      2366      2367      2367      2368
      2368      2371      2368      2545      2369      2374      2369      2370
      2370      2371      2371      2372      2372      2375      2372      2549
      2373      2378      2373      2374      2374      2375      2375      2376
      2376      2379      2376      2553      2377      2382      2377      2378
      2378      2379      2379      2380      2380      2383      2380      2557
      2381      2382      2381      2386      2382      2383      2383      2384
      2384      2387      2384      2561      2385      2386      2385      2390
      2386      2387      2387      2388      2388      2391      2388      2565
      2389      2394      2389      2390      2390      2391      2391      2392
      2392      2395      2392      2569      2393      2398      2393      2394
      2394      2395      2395      2396      2396      2399      2396      2573
      2397      2402      2397      2398      2398      2399      2399      2400
      2400      2403      2400      2577      2401      2402      2401      2406
      2402      2403      2403      2404      2404      2407      2404      2581
      2405      2406      2405      2410      2406      2407      2407      2408
      2408      2411      2408      2585      2409      2414      2409      2410
      2410      2411      2411      2412      2412      2415      2412      2589
      2413      2414      2413      2418      2414      2415      2415      2416
      2416      2419      2416      2593      2417      2422      2417      2418
      2418      2419      2419      2420      2420      2423      2420      2597
      2421      2422      2421      2426      2422      2423      2423      2424
      2424      2427      2424      2601      2425      2426      2425      2430
      2426      2427      2427      2428      2428      2431      2428      2605
      2429      2434      2429      2430      2430      2431      2431      2432
      2432      2435      2432      2609      2433      2438      2433      2434
      2434      2435      2435      2436      2436      2439      2436      2613
      2437      2442      2437      2438      2438      2439      2439      2440
      2440      2443      2440      2617      2441      2442      2441      2446
      2442      2443      2443      2444      2444      2447      2444      2621
      2445      2446      2445      2450      2446      2447      2447      2448
      2448      2451      2448      2625      2449      2454      2449      2450
      2450      2451      2451      2452      2452      2455      2452      2629
      2453      2458      2453      2454      2454      2455      2455      2456
      2456      2459      2456      2633      2457      2462      2457      2458
      2458      2459      2459      2460      2460      2463      2460      2637
      2461      2462      2461      2466      2462      2463      2463      2464
      2464      2467      2464      2641      2465      2466      2465      2470
      2466      2467      2467      2468      2468      2471      2468      2645
      2469      2474      2469      2470      2470      2471      2471      2472
      2472      2475      2472      2649      2473      2478      2473      2474
      2474      2475      2475      2476      2476      2479      2476      2653
      2477      2482      2477      2478      2478      2479      2479      2480
      2480      2483      2480      2657      2481      2482      2481      2486
      2482      2483      2483      2484      2484      2487      2484      2661
      2485      2486      2485      2490      2486      2487      2487      2488
      2488      2491      2488      2665      2489      2494      2489      2490
      2490      2491      2491      2492      2492      2495      2492      2669
      2493      2498      2493      2494      2494      2495      2495      2496
      2496      2499      2496      2673      2497      2502      2497      2498
      2498      2499      2499      2500      2500      2503      2500      2677
      2501      2502      2501      2506      2502      2503      2503      2504
      2504      2507      2504      2681      2505      2506      2505      2510
      2506      2507      2507      2508      2508      2511      2508      2685
      2509      2514      2509      2510      2510      2511      2511      2512
      2512      2515      2512      2689      2513      2518      2513      2514
      2514      2515      2515      2516      2516      2519      2516      2693
      2517      2518      2518      2519      2519      2520      2520      2697
      2521      2522      2521      2526      2522      2523      2523      2524
      2524      2527      2524      2701      2525      2526      2525      2530
      2526      2527      2527      2528      2528      2531      2528      2705
      2529      2534      2529      2530      2530      2531      2531      2532
      2532      2535      2532      2709      2533      2538      2533      2534
      2534      2535      2535      2536      2536      2539      2536      2713
      2537      2542      2537      2538      2538      2539      2539      2540
      2540      2543      2540      2717      2541      2542      2541      2546
      2542      2543      2543      2544      2544      2547      2544      2721
      2545      2546      2545      2550      2546      2547      2547      2548
      2548      2551      2548      2725      2549      2554      2549      2550
      2550      2551      2551      2552      2552      2555      2552      2729
      2553      2558      2553      2554      2554      2555      2555      2556
      2556      2559      2556      2733      2557      2562      2557      2558
      2558      2559      2559      2560      2560      2563      2560      2737
      2561      2562      2561      2566      2562      2563      2563      2564
      2564      2567      2564      2741      2565      2566      2565      2570
      2566      2567      2567      2568      2568      2571      2568      2745
      2569      2574      2569      2570      2570      2571      2571      2572
      2572      2575      2572      2749      2573      2578      2573      2574
      2574      2575      2575      2576      2576      2579      2576      2753
      2577      2582      2577      2578      2578      2579      2579      2580
      2580      2583      2580      2757      2581      2582      2581      2586
      2582      2583      2583      2584      2584      2587      2584      2761
      2585      2586      2585      2590      2586      2587      2587      2588
      2588      2591      2588      2765      2589      2594      2589      2590
      2590      2591      2591      2592      2592      2595      2592      2769
      2593      2598      2593      2594      2594      2595      2595      2596
      2596      2599      2596      2773      2597      2602      2597      2598
      2598      2599      2599      2600      2600      2603      2600      2777
      2601      2602      2601      2606      2602      2603      2603      2604
      2604      2607      2604      2781      2605      2606      2605      2610
      2606      2607      2607      2608      2608      2611      2608      2785
      2609      2614      2609      2610      2610      2611      2611      2612
      2612      2615      2612      2789      2613      2618      2613      2614
      2614      2615      2615      2616      2616      2619      2616      2793
      2617      2622      2617      2618      2618      2619      2619      2620
      2620      2623      2620      2797      2621      2622      2621      2626
      2622      2623      2623      2624      2624      2627      2624      2801
      2625      2626      2625      2630      2626      2627      2627      2628
      2628      2631      2628      2805      2629      2634      2629      2630
      2630      2631      2631      2632      2632      2635      2632      2809
      2633      2634      2633      2638      2634      2635      2635      2636
      2636      2639      2636      2813      2637      2642      2637      2638
      2638      2639      2639      2640      2640      2643      2640      2817
      2641      2642      2641      2646      2642      2643      2643      2644
      2644      2647      2644      2821      2645      2646      2645      2650
      2646      2647      2647      2648      2648      2651      2648      2825
      2649      2654      2649      2650      2650      2651      2651      2652
      2652      2655      2652      2829      2653      2658      2653      2654
      2654      2655      2655      2656      2656      2659      2656      2833
      2657      2662      2657      2658      2658      2659      2659      2660
      2660      2663      2660      2837      2661      2662      2661      2666
      2662      2663      2663      2664      2664      2667      2664      2841
      2665      2666      2665      2670      2666      2667      2667      2668
      2668      2671      2668      2845      2669      2674      2669      2670
      2670      2671      2671      2672      2672      2675      2672      2849
      2673      2678      2673      2674      2674      2675      2675      2676
      2676      2679      2676      2853      2677      2682      2677      2678
      2678      2679      2679      2680      2680      2683      2680      2857
      2681      2682      2681      2686      2682      2683      2683      2684
      2684      2687      2684      2861      2685      2686      2685      2690
      2686      2687      2687      2688      2688      2691      2688      2865
      2689      2694      2689      2690      2690      2691      2691      2692
      2692      2695      2692      2869      2693      2698      2693      2694
      2694      2695      2695      2696      2696      2699      2696      2873
      2697      2698      2698      2699      2699      2700      2700      2877
      2701      2702      2701      2706      2702      2703      2703      2704
      2704      2707      2704      2881      2705      2706      2705      2710
      2706      2707      2707      2708      2708      2711      2708      2885
      2709      2714      2709      2710      2710      2711      2711      2712
      2712      2715      2712      2889      2713      2718      2713      2714
      2714      2715      2715      2716      2716      2719      2716      2893
      2717      2722      2717      2718      2718      2719      2719      2720
      2720      2723      2720      2897      2721      2722      2721      2726
      2722      2723      2723      2724      2724      2727      2724      2901
      2725      2726      2725      2730      2726      2727      2727      2728
      2728      2731      2728      2905      2729      2734      2729      2730
      2730      2731      2731      2732      2732      2735      2732      2909
      2733      2738      2733      2734      2734      2735      2735      2736
      2736      2739      2736      2913      2737      2742      2737      2738
      2738      2739      2739      2740      2740      2743      2740      2917
      2741      2742      2741      2746      2742      2743      2743      2744
      2744      2747      2744      2921      2745      2746      2745      2750
      2746      2747      2747      2748      2748      2751      2748      2925
      2749      2754      2749      2750      2750      2751      2751      2752
      2752      2755      2752      2929      2753      2758      2753      2754
      2754      2755      2755      2756      2756      2759      2756      2933
      2757      2762      2757      2758      2758      2759      2759      2760
      2760      2763      2760      2937      2761      2762      2761      2766
      2762      2763      2763      2764      2764      2767      2764      2941
      2765      2766      2765      2770      2766      2767      2767      2768
      2768      2771      2768      2945      2769      2774      2769      2770
      2770      2771      2771      2772      2772      2775      2772      2949
      2773      2778      2773      2774      2774      2775      2775      2776
      2776      2779      2776      2953      2777      2782      2777      2778
      2778      2779      2779      2780      2780      2783      2780      2957
      2781      2782      2781      2786      2782      2783      2783      2784
      2784      2787      2784      2961      2785      2786      2785      2790
      2786      2787      2787      2788      2788      2791      2788      2965
      2789      2794      2789      2790      2790      2791      2791      2792
      2792      2795      2792      2969      2793      2798      2793      2794
      2794      2795      2795      2796      2796      2799      2796      2973
      2797      2802      2797      2798      2798      2799      2799      2800
      2800      2803      2800      2977      2801      2802      2801      2806
      2802      2803      2803      2804      2804      2807      2804      2981
      2805      2806      2805      2810      2806      2807      2807      2808
      2808      2811      2808      2985      2809      2814      2809      2810
      2810      2811      2811      2812      2812      2815      2812      2989
      2813      2818      2813      2814      2814      2815      2815      2816
      2816      2819      2816      2993      2817      2822      2817      2818
      2818      2819      2819      2820      2820      2823      2820      2997
      2821      2822      2821      2826      2822      2823      2823      2824
      2824      2827      2824      3001      2825      2826      2825      2830
      2826      2827      2827      2828      2828      2831      2828      3005
      2829      2834      2829      2830      2830      2831      2831      2832
      2832      2835      2832      3009      2833      2838      2833      2834
      2834      2835      2835      2836      2836      2839      2836      3013
      2837      2842      2837      2838      2838      2839      2839      2840
      2840      2843      2840      3017      2841      2842      2841      2846
      2842      2843      2843      2844      2844      2847      2844      3021
      2845      2846      2845      2850      2846      2847      2847      2848
      2848      2851      2848      3025      2849      2854      2849      2850
      2850      2851      2851      2852      2852      2855      2852      3029
      2853      2854      2853      2858      2854      2855      2855      2856
      2856      2859      2856      3033      2857      2862      2857      2858
      2858      2859      2859      2860      2860      2863      2860      3037
      2861      2862      2861      2866      2862      2863      2863      2864
      2864      2867      2864      3041      2865      2866      2865      2870
      2866      2867      2867      2868      2868      2871      2868      3045
      2869      2874      2869      2870      2870      2871      2871      2872
      2872      2875      2872      3049      2873      2878      2873      2874
      2874      2875      2875      2876      2876      2879      2876      3053
      2877      2878      2878      2879      2879      2880      2880      3057
      2881      2882      2881      2886      2882      2883      2883      2884
      2884      2887      2884      3061      2885      2886      2885      2890
      2886      2887      2887      2888      2888      2891      2888      3065
      2889      2894      2889      2890      2890      2891      2891      2892
      2892      2895      2892      3069      2893      2898      2893      2894
      2894      2895      2895      2896      2896      2899      2896      3073
      2897      2902      2897      2898      2898      2899      2899      2900
      2900      2903      2900      3077      2901      2902      2901      2906
      2902      2903      2903      2904      2904      2907      2904      3081
      2905      2906      2905      2910      2906      2907      2907      2908
      2908      2911      2908      3085      2909      2914      2909      2910
      2910      2911      2911      2912      2912      2915      2912      3089
      2913      2918      2913      2914      2914      2915      2915      2916
      2916      2919      2916      3093      2917      2922      2917      2918
      2918      2919      2919      2920      2920      2923      2920      3097
      2921      2922      2921      2926      2922      2923      2923      2924
      2924      2927      2924      3101      2925      2926      2925      2930
      2926      2927      2927      2928      2928      2931      2928      3105
      2929      2934      2929      2930      2930      2931      2931      2932
      2932      2935      2932      3109      2933      2938      2933      2934
      2934      2935      2935      2936      2936      2939      2936      3113
      2937      2942      2937      2938      2938      2939      2939      2940
      2940      2943      2940      3117      2941      2942      2941      2946
      2942      2943      2943      2944      2944      2947      2944      3121
      2945      2946      2945      2950      2946      2947      2947      2948
      2948      2951      2948      3125      2949      2954      2949      2950
      2950      2951      2951      2952      2952      2955      2952      3129
      2953      2958      2953      2954      2954      2955      2955      2956
      2956      2959      2956      3133      2957      2962      2957      2958
      2958      2959      2959      2960      2960      2963      2960      3137
      2961      2962      2961      2966      2962      2963      2963      2964
      2964      2967      2964      3141      2965      2966      2965      2970
      2966      2967      2967      2968      2968      2971      2968      3145
      2969      2974      2969      2970      2970      2971      2971      2972
      2972      2975      2972      3149      2973      2978      2973      2974
      2974      2975      2975      2976      2976      2979      2976      3153
      2977      2982      2977      2978      2978      2979      2979      2980
      2980      2983      2980      3157      2981      2982      2981      2986
      2982      2983      2983      2984      2984      2987      2984      3161
      2985      2986      2985      2990      2986      2987      2987      2988
      2988      2991      2988      3165      2989      2994      2989      2990
      2990      2991      2991      2992      2992      2995      2992      3169
      2993      2998      2993      2994      2994      2995      2995      2996
      2996      2999      2996      3173      2997      3002      2997      2998
      2998      2999      2999      3000      3000      3003      3000      3177
      3001      3002      3001      3006      3002      3003      3003      3004
      3004      3007      3004      3181      3005      3006      3005      3010
      3006      3007      3007      3008      3008      3011      3008      3185
      3009      3014      3009      3010      3010      3011      3011      3012
      3012      3015      3012      3189      3013      3018      3013      3014
      3014      3015      3015      3016      3016      3019      3016      3193
      3017      3022      3017      3018      3018      3019      3019      3020
      3020      3023      3020      3197      3021      3022      3021      3026
      3022      3023      3023      3024      3024      3027      3024      3201
      3025      3026      3025      3030      3026      3027      3027      3028
      3028      3031      3028      3205      3029      3034      3029      3030
      3030      3031      3031      3032      3032      3035      3032      3209
      3033      3038      3033      3034      3034      3035      3035      3036
      3036      3039      3036      3213      3037      3042      3037      3038
      3038      3039      3039      3040      3040      3043      3040      3217
      3041      3042      3041      3046      3042      3043      3043      3044
      3044      3047      3044      3221      3045      3046      3045      3050
      3046      3047      3047      3048      3048      3051      3048      3225
      3049      3054      3049      3050      3050      3051      3051      3052
      3052      3055      3052      3229      3053      3058      3053      3054
      3054      3055      3055      3056      3056      3059      3056      3233
      3057      3058      3058      3059      3059      3060      3060      3237
      3061      3062      3061      3066      3062      3063      3063      3064
      3064      3067      3064      3241      3065      3066      3065      3070
      3066      3067      3067      3068      3068      3071      3068      3245
      3069      3074      3069      3070      3070      3071      3071      3072
      3072      3075      3072      3249      3073      3078      3073      3074
      3074      3075      3075      3076      3076      3079      3076      3253
      3077      3082      3077      3078      3078      3079      3079      3080
      3080      3083      3080      3257      3081      3082      3081      3086
      3082      3083      3083      3084      3084      3087      3084      3261
      3085      3086      3085      3090      3086      3087      3087      3088
      3088      3091      3088      3265      3089      3094      3089      3090
      3090      3091      3091      3092      3092      3095      3092      3269
      3093      3094      3093      3098      3094      3095      3095      3096
      3096      3099      3096      3273      3097      3102      3097      3098
      3098      3099      3099      3100      3100      3103      3100      3277
      3101      3102      3101      3106      3102      3103      3103      3104
      3104      3107      3104      3281      3105      3106      3105      3110
      3106      3107      3107      3108      3108      3111      3108      3285
      3109      3114      3109      3110      3110      3111      3111      3112
      3112      3115      3112      3289      3113      3118      3113      3114
      3114      3115      3115      3116      3116      3119      3116      3293
      3117      3122      3117      3118      3118      3119      3119      3120
      3120      3123      3120      3297      3121      3122      3121      3126
      3122      3123      3123      3124      3124      3127      3124      3301
      3125      3126      3125      3130      3126      3127      3127      3128
      3128      3131      3128      3305      3129      3134      3129      3130
      3130      3131      3131      3132      3132      3135      3132      3309
      3133      3138      3133      3134      3134      3135      3135      3136
      3136      3139      3136      3313      3137      3142      3137      3138
      3138      3139      3139      3140      3140      3143      3140      3317
      3141      3142      3141      3146      3142      3143      3143      3144
      3144      3147      3144      3321      3145      3146      3145      3150
      3146      3147      3147      3148      3148      3151      3148      3325
      3149      3154      3149      3150      3150      3151      3151      3152
      3152      3155      3152      3329      3153      3158      3153      3154
      3154      3155      3155      3156      3156      3159      3156      3333
      3157      3162      3157      3158      3158      3159      3159      3160
      3160      3163      3160      3337      3161      3162      3161      3166
      3162      3163      3163      3164      3164      3167      3164      3341
      3165      3166      3165      3170      3166      3167      3167      3168
      3168      3171      3168      3345      3169      3174      3169      3170
      3170      3171      3171      3172      3172      3175      3172      3349
      3173      3178      3173      3174      3174      3175      3175      3176
      3176      3179      3176      3353      3177      3182      3177      3178
      3178      3179      3179      3180      3180      3183      3180      3357
      3181      3182      3181      3186      3182      3183      3183      3184
      3184      3187      3184      3361      3185      3186      3185      3190
      3186      3187      3187      3188      3188      3191      3188      3365
      3189      3194      3189      3190      3190      3191      3191      3192
      3192      3195      3192      3369      3193      3198      3193      3194
      3194      3195      3195      3196      3196      3199      3196      3373
      3197      3202      3197      3198      3198      3199      3199      3200
      3200      3203      3200      3377      3201      3202      3201      3206
      3202      3203      3203      3204      3204      3207      3204      3381
      3205      3206      3205      3210      3206      3207      3207      3208
      3208      3211      3208      3385      3209      3214      3209      3210
      3210      3211      3211      3212      3212      3215      3212      3389
      3213      3218      3213      3214      3214      3215      3215      3216
      3216      3219      3216      3393      3217      3222      3217      3218
      3218      3219      3219      3220      3220      3223      3220      3397
      3221      3222      3221      3226      3222      3223      3223      3224
      3224      3227      3224      3401      3225      3226      3225      3230
      3226      3227      3227      3228      3228      3231      3228      3405
      3229      3234      3229      3230      3230      3231      3231      3232
      3232      3235      3232      3409      3233      3238      3233      3234
      3234      3235      3235      3236      3236      3239      3236      3413
      3237      3238      3238      3239      3239      3240      3240      3417
      3241      3242      3241      3246      3242      3243      3243      3244
      3244      3247      3244      3421      3245      3246      3245      3250
      3246      3247      3247      3248      3248      3251      3248      3425
      3249      3254      3249      3250      3250      3251      3251      3252
      3252      3255      3252      3429      3253      3258      3253      3254
      3254      3255      3255      3256      3256      3259      3256      3433
      3257      3262      3257      3258      3258      3259      3259      3260
      3260      3263      3260      3437      3261      3262      3261      3266
      3262      3263      3263      3264      3264      3267      3264      3441
      3265      3266      3265      3270      3266      3267      3267      3268
      3268      3271      3268      3445      3269      3274      3269      3270
      3270      3271      3271      3272      3272      3275      3272      3449
      3273      3278      3273      3274      3274      3275      3275      3276
      3276      3279      3276      3453      3277      3282      3277      3278
      3278      3279      3279      3280      3280      3283      3280      3457
      3281      3282      3281      3286      3282      3283      3283      3284
      3284      3287      3284      3461      3285      3286      3285      3290
      3286      3287      3287      3288      3288      3291      3288      3465
      3289      3294      3289      3290      3290      3291      3291      3292
      3292      3295      3292      3469      3293      3298      3293      3294
      3294      3295      3295      3296      3296      3299      3296      3473
      3297      3302      3297      3298      3298      3299      3299      3300
      3300      3303      3300      3477      3301      3302      3301      3306
      3302      3303      3303      3304      3304      3307      3304      3481
      3305      3306      3305      3310      3306      3307      3307      3308
      3308      3311      3308      3485      3309      3314      3309      3310
      3310      3311      3311      3312      3312      3315      3312      3489
      3313      3314      3313      3318      3314      3315      3315      3316
      3316      3319      3316      3493      3317      3322      3317      3318
      3318      3319      3319      3320      3320      3323      3320      3497
      3321      3322      3321      3326      3322      3323      3323      3324
      3324      3327      3324      3501      3325      3326      3325      3330
      3326      3327      3327      3328      3328      3331      3328      3505
      3329      3334      3329      3330      3330      3331      3331      3332
      3332      3335      3332      3509      3333      3338      3333      3334
      3334      3335      3335      3336      3336      3339      3336      3513
      3337      3342      3337      3338      3338      3339      3339      3340
      3340      3343      3340      3517      3341      3342      3341      3346
      3342      3343      3343      3344      3344      3347      3344      3521
      3345      3346      3345      3350      3346      3347      3347      3348
      3348      3351      3348      3525      3349      3354      3349      3350
      3350      3351      3351      3352      3352      3355      3352      3529
      3353      3358      3353      3354      3354      3355      3355      3356
      3356      3359      3356      3533      3357      3362      3357      3358
      3358      3359      3359      3360      3360      3363      3360      3537
      3361      3362      3361      3366      3362      3363      3363      3364
      3364      3367      3364      3541      3365      3366      3365      3370
      3366      3367      3367      3368      3368      3371      3368      3545
      3369      3374      3369      3370      3370      3371      3371      3372
      3372      3375      3372      3549      3373      3378      3373      3374
      3374      3375      3375      3376      3376      3379      3376      3553
      3377      3382      3377      3378      3378      3379      3379      3380
      3380      3383      3380      3557      3381      3382      3381      3386
      3382      3383      3383      3384      3384      3387      3384      3561
      3385      3386      3385      3390      3386      3387      3387      3388
      3388      3391      3388      3565      3389      3394      3389      3390
      3390      3391      3391      3392      3392      3395      3392      3569
      3393      3398      3393      3394      3394      3395      3395      3396
      3396      3399      3396      3573      3397      3402      3397      3398
      3398      3399      3399      3400      3400      3403      3400      3577
      3401      3402      3401      3406      3402      3403      3403      3404
      3404      3407      3404      3581      3405      3406      3405      3410
      3406      3407      3407      3408      3408      3411      3408      3585
      3409      3414      3409      3410      3410      3411      3411      3412
      3412      3415      3412      3589      3413      3418      3413      3414
      3414      3415      3415      3416      3416      3419      3416      3593
      3417      3418      3418      3419      3419      3420      3420      3597
      3421      3422      3421      3426      3422      3423      3423      3424
      3424      3427      3424      3601      3425      3426      3425      3430
      3426      3427      3427      3428      3428      3431      3428      3605
      3429      3434      3429      3430      3430      3431      3431      3432
      3432      3435      3432      3609      3433      3438      3433      3434
      3434      3435      3435      3436      3436      3439      3436      3613
      3437      3442      3437      3438      3438      3439      3439      3440
      3440      3443      3440      3617      3441      3442      3441      3446
      3442      3443      3443      3444      3444      3447      3444      3621
      3445      3446      3445      3450      3446      3447      3447      3448
      3448      3451      3448      3625      3449      3454      3449      3450
      3450      3451      3451      3452      3452      3455      3452      3629
      3453      3458      3453      3454      3454      3455      3455      3456
      3456      3459      3456      3633      3457      3462      3457      3458
      3458      3459      3459      3460      3460      3463      3460      3637
      3461      3462      3461      3466      3462      3463      3463      3464
      3464      3467      3464      3641      3465      3466      3465      3470
      3466      3467      3467      3468      3468      3471      3468      3645
      3469      3474      3469      3470      3470      3471      3471      3472
      3472      3475      3472      3649      3473      3478      3473      3474
      3474      3475      3475      3476      3476      3479      3476      3653
      3477      3482      3477      3478      3478      3479      3479      3480
      3480      3483      3480      3657      3481      3482      3481      3486
      3482      3483      3483      3484      3484      3487      3484      3661
      3485      3486      3485      3490      3486      3487      3487      3488
      3488      3491      3488      3665      3489      3494      3489      3490
      3490      3491      3491      3492      3492      3495      3492      3669
      3493      3498      3493      3494      3494      3495      3495      3496
      3496      3499      3496      3673      3497      3502      3497      3498
      3498      3499      3499      3500      3500      3503      3500      3677
      3501      3502      3501      3506      3502      3503      3503      3504
      3504      3507      3504      3681      3505      3506      3505      3510
      3506      3507      3507      3508      3508      3511      3508      3685
      3509      3514      3509      3510      3510      3511      3511      3512
      3512      3515      3512      3689      3513      3518      3513      3514
      3514      3515      3515      3516      3516      3519      3516      3693
      3517      3522      3517      3518      3518      3519      3519      3520
      3520      3523      3520      3697      3521      3522      3521      3526
      3522      3523      3523      3524      3524      3527      3524      3701
      3525      3526      3525      3530      3526      3527      3527      3528
      3528      3531      3528      3705      3529      3534      3529      3530
      3530      3531      3531      3532      3532      3535      3532      3709
      3533      3534      3533      3538      3534      3535      3535      3536
      3536      3539      3536      3713      3537      3542      3537      3538
      3538      3539      3539      3540      3540      3543      3540      3717
      3541      3542      3541      3546      3542      3543      3543      3544
      3544      3547      3544      3721      3545      3546      3545      3550
      3546      3547      3547      3548      3548      3551      3548      3725
      3549      3554      3549      3550      3550      3551      3551      3552
      3552      3555      3552      3729      3553      3558      3553      3554
      3554      3555      3555      3556      3556      3559      3556      3733
      3557      3562      3557      3558      3558      3559      3559      3560
      3560      3563      3560      3737      3561      3562      3561      3566
      3562      3563      3563      3564      3564      3567      3564      3741
      3565      3566      3565      3570      3566      3567      3567      3568
      3568      3571      3568      3745      3569      3574      3569      3570
      3570      3571      3571      3572      3572      3575      3572      3749
      3573      3578      3573      3574      3574      3575      3575      3576
      3576      3579      3576      3753      3577      3582      3577      3578
      3578      3579      3579      3580      3580      3583      3580      3757
      3581      3582      3581      3586      3582      3583      3583      3584
      3584      3587      3584      3761      3585      3586      3585      3590
      3586      3587      3587      3588      3588      3591      3588      3765
      3589      3594      3589      3590      3590      3591      3591      3592
      3592      3595      3592      3769      3593      3598      3593      3594
      3594      3595      3595      3596      3596      3599      3596      3773
      3597      3598      3598      3599      3599      3600      3600      3777
      3601      3602      3601      3606      3602      3603      3603      3604
      3604      3781      3604      3607      3605      3606      3605      3610
      3606      3607      3607      3608      3608      3785      3608      3611
      3609      3614      3609      3610      3610      3611      3611      3612
      3612      3615      3612      3789      3613      3618      3613      3614
      3614      3615      3615      3616      3616      3619      3616      3793
      3617      3622      3617      3618      3618      3619      3619      3620
      3620      3797      3620      3623      3621      3622      3621      3626
      3622      3623      3623      3624      3624      3801      3624      3627
      3625      3626      3625      3630      3626      3627      3627      3628
      3628      3805      3628      3631      3629      3630      3629      3634
      3630      3631      3631      3632      3632      3635      3632      3809
      3633      3634      3633      3638      3634      3635      3635      3636
      3636      3639      3636      3813      3637      3638      3637      3642
      3638      3639      3639      3640      3640      3817      3640      3643
      3641      3642      3641      3646      3642      3643      3643      3644
      3644      3821      3644      3647      3645      3646      3645      3650
      3646      3647      3647      3648      3648      3825      3648      3651
      3649      3654      3649      3650      3650      3651      3651      3652
      3652      3829      3652      3655      3653      3658      3653      3654
      3654      3655      3655      3656      3656      3833      3656      3659
      3657      3662      3657      3658      3658      3659      3659      3660
      3660      3837      3660      3663      3661      3662      3661      3666
      3662      3663      3663      3664      3664      3841      3664      3667
      3665      3666      3665      3670      3666      3667      3667      3668
      3668      3845      3668      3671      3669      3674      3669      3670
      3670      3671      3671      3672      3672      3675      3672      3849
      3673      3678      3673      3674      3674      3675      3675      3676
      3676      3679      3676      3853      3677      3682      3677      3678
      3678      3679      3679      3680      3680      3857      3680      3683
      3681      3682      3681      3686      3682      3683      3683      3684
      3684      3861      3684      3687      3685      3686      3685      3690
      3686      3687      3687      3688      3688      3865      3688      3691
      3689      3690      3689      3694      3690      3691      3691      3692
      3692      3695      3692      3869      3693      3694      3693      3698
      3694      3695      3695      3696      3696      3699      3696      3873
      3697      3698      3697      3702      3698      3699      3699      3700
      3700      3877      3700      3703      3701      3702      3701      3706
      3702      3703      3703      3704      3704      3881      3704      3707
      3705      3706      3705      3710      3706      3707      3707      3708
      3708      3885      3708      3711      3709      3714      3709      3710
      3710      3711      3711      3712      3712      3889      3712      3715
      3713      3718      3713      3714      3714      3715      3715      3716
      3716      3893      3716      3719      3717      3722      3717      3718
      3718      3719      3719      3720      3720      3897      3720      3723
      3721      3722      3721      3726      3722      3723      3723      3724
      3724      3901      3724      3727      3725      3726      3725      3730
      3726      3727      3727      3728      3728      3905      3728      3731
      3729      3734      3729      3730      3730      3731      3731      3732
      3732      3735      3732      3909      3733      3738      3733      3734
      3734      3735      3735      3736      3736      3739      3736      3913
      3737      3742      3737      3738      3738      3739      3739      3740
      3740      3917      3740      3743      3741      3742      3741      3746
      3742      3743      3743      3744      3744      3921      3744      3747
      3745      3746      3745      3750      3746      3747      3747      3748
      3748      3925      3748      3751      3749      3754      3749      3750
      3750      3751      3751      3752      3752      3755      3752      3929
      3753      3754      3753      3758      3754      3755      3755      3756
      3756      3759      3756      3933      3757      3758      3757      3762
      3758      3759      3759      3760      3760      3937      3760      3763
      3761      3762      3761      3766      3762      3763      3763      3764
      3764      3941      3764      3767      3765      3766      3765      3770
      3766      3767      3767      3768      3768      3945      3768      3771
      3769      3770      3769      3774      3770      3771      3771      3772
      3772      3775      3772      3949      3773      3774      3773      3778
      3774      3775      3775      3776      3776      3953      3776      3779
      3777      3778      3778      3779      3779      3780      3780      3957
      3781      3782      3781      3786      3782      3783      3783      3784
      3784      3961      3784      3787      3785      3786      3785      3790
      3786      3787      3787      3788      3788      3965      3788      3791
      3789      3790      3789      3794      3790      3791      3791      3792
      3792      3795      3792      3969      3793      3794      3793      3798
      3794      3795      3795      3796      3796      3973      3796      3799
      3797      3802      3797      3798      3798      3799      3799      3800
      3800      3977      3800      3803      3801      3802      3801      3806
      3802      3803      3803      3804      3804      3981      3804      3807
      3805      3806      3805      3810      3806      3807      3807      3808
      3808      3985      3808      3811      3809      3814      3809      3810
      3810      3811      3811      3812      3812      3989      3812      3815
      3813      3818      3813      3814      3814      3815      3815      3816
      3816      3819      3816      3993      3817      3822      3817      3818
      3818      3819      3819      3820      3820      3997      3820      3823
      3821      3822      3821      3826      3822      3823      3823      3824
      3824      4001      3824      3827      3825      3826      3825      3830
      3826      3827      3827      3828      3828      4005      3828      3831
      3829      3834      3829      3830      3830      3831      3831      3832
      3832      3835      3832      4009      3833      3838      3833      3834
      3834      3835      3835      3836      3836      3839      3836      4013
      3837      3842      3837      3838      3838      3839      3839      3840
      3840      4017      3840      3843      3841      3842      3841      3846
      3842      3843      3843      3844      3844      4021      3844      3847
      3845      3846      3845      3850      3846      3847      3847      3848
      3848      4025      3848      3851      3849      3850      3849      3854
      3850      3851      3851      3852      3852      3855      3852      4029
      3853      3854      3853      3858      3854      3855      3855      3856
      3856      3859      3856      4033      3857      3858      3857      3862
      3858      3859      3859      3860      3860      4037      3860      3863
      3861      3862      3861      3866      3862      3863      3863      3864
      3864      4041      3864      3867      3865      3866      3865      3870
      3866      3867      3867      3868      3868      4045      3868      3871
      3869      3874      3869      3870      3870      3871      3871      3872
      3872      4049      3872      3875      3873      3878      3873      3874
      3874      3875      3875      3876      3876      4053      3876      3879
      3877      3882      3877      3878      3878      3879      3879      3880
      3880      4057      3880      3883      3881      3882      3881      3886
      3882      3883      3883      3884      3884      4061      3884      3887
      3885      3886      3885      3890      3886      3887      3887      3888
      3888      4065      3888      3891      3889      3894      3889      3890
      3890      3891      3891      3892      3892      3895      3892      4069
      3893      3898      3893      3894      3894      3895      3895      3896
      3896      3899      3896      4073      3897      3902      3897      3898
      3898      3899      3899      3900      3900      4077      3900      3903
      3901      3902      3901      3906      3902      3903      3903      3904
      3904      4081      3904      3907      3905      3906      3905      3910
      3906      3907      3907      3908      3908      4085      3908      3911
      3909      3910      3909      3914      3910      3911      3911      3912
      3912      3915      3912      4089      3913      3914      3913      3918
      3914      3915      3915      3916      3916      3919      3916      4093
      3917      3918      3917      3922      3918      3919      3919      3920
      3920      4097      3920      3923      3921      3922      3921      3926
      3922      3923      3923      3924      3924      4101      3924      3927
      3925      3926      3925      3930      3926      3927      3927      3928
      3928      4105      3928      3931      3929      3934      3929      3930
      3930      3931      3931      3932      3932      4109      3932      3935
      3933      3938      3933      3934      3934      3935      3935      3936
      3936      4113      3936      3939      3937      3942      3937      3938
      3938      3939      3939      3940      3940      4117      3940      3943
      3941      3942      3941      3946      3942      3943      3943      3944
      3944      4121      3944      3947      3945      3946      3945      3950
      3946      3947      3947      3948      3948      4125      3948      3951
      3949      3954      3949      3950      3950      3951      3951      3952
      3952      3955      3952      4129      3953      3958      3953      3954
      3954      3955      3955      3956      3956      3959      3956      4133
      3957      3958      3958      3959      3959      3960      3960      4137
      3961      3962      3961      3966      3962      3963      3963      3964
      3964      4141      3964      3967      3965      3966      3965      3970
      3966      3967      3967      3968      3968      4145      3968      3971
      3969      3974      3969      3970      3970      3971      3971      3972
      3972      3975      3972      4149      3973      3978      3973      3974
      3974      3975      3975      3976      3976      3979      3976      4153
      3977      3982      3977      3978      3978      3979      3979      3980
      3980      4157      3980      3983      3981      3982      3981      3986
      3982      3983      3983      3984      3984      4161      3984      3987
      3985      3986      3985      3990      3986      3987      3987      3988
      3988      4165      3988      3991      3989      3994      3989      3990
      3990      3991      3991      3992      3992      3995      3992      4169
      3993      3994      3993      3998      3994      3995      3995      3996
      3996      3999      3996      4173      3997      3998      3997      4002
      3998      3999      3999      4000      4000      4177      4000      4003
      4001      4002      4001      4006      4002      4003      4003      4004
      4004      4181      4004      4007      4005      4006      4005      4010
      4006      4007      4007      4008      4008      4185      4008      4011
      4009      4010      4009      4014      4010      4011      4011      4012
      4012      4015      4012      4189      4013      4014      4013      4018
      4014      4015      4015      4016      4016      4193      4016      4019
      4017      4022      4017      4018      4018      4019      4019      4020
      4020      4197      4020      4023      4021      4022      4021      4026
      4022      4023      4023      4024      4024      4201      4024      4027
      4025      4026      4025      4030      4026      4027      4027      4028
      4028      4205      4028      4031      4029      4034      4029      4030
      4030      4031      4031      4032      4032      4209      4032      4035
      4033      4038      4033      4034      4034      4035      4035      4036
      4036      4039      4036      4213      4037      4042      4037      4038
      4038      4039      4039      4040      4040      4217      4040      4043
      4041      4042      4041      4046      4042      4043      4043      4044
      4044      4221      4044      4047      4045      4046      4045      4050
      4046      4047      4047      4048      4048      4225      4048      4051
      4049      4054      4049      4050      4050      4051      4051      4052
      4052      4055      4052      4229      4053      4058      4053      4054
      4054      4055      4055      4056      4056      4059      4056      4233
      4057      4062      4057      4058      4058      4059      4059      4060
      4060      4237      4060      4063      4061      4062      4061      4066
      4062      4063      4063      4064      4064      4241      4064      4067
      4065      4066      4065      4070      4066      4067      4067      4068
      4068      4245      4068      4071      4069      4070      4069      4074
      4070      4071      4071      4072      4072      4075      4072      4249
      4073      4074      4073      4078      4074      4075      4075      4076
      4076      4079      4076      4253      4077      4078      4077      4082
      4078      4079      4079      4080      4080      4257      4080      4083
      4081      4082      4081      4086      4082      4083      4083      4084
      4084      4261      4084      4087      4085      4086      4085      4090
      4086      4087      4087      4088      4088      4265      4088      4091
      4089      4094      4089      4090      4090      4091      4091      4092
      4092      4269      4092      4095      4093      4098      4093      4094
      4094      4095      4095      4096      4096      4273      4096      4099
      4097      4102      4097      4098      4098      4099      4099      4100
      4100      4277      4100      4103      4101      4102      4101      4106
      4102      4103      4103      4104      4104      4281      4104      4107
      4105      4106      4105      4110      4106      4107      4107      4108
      4108      4285      4108      4111      4109      4114      4109      4110
      4110      4111      4111      4112      4112      4115      4112      4289
      4113      4118      4113      4114      4114      4115      4115      4116
      4116      4119      4116      4293      4117      4122      4117      4118
      4118      4119      4119      4120      4120      4297      4120      4123
      4121      4122      4121      4126      4122      4123      4123      4124
      4124      4301      4124      4127      4125      4126      4125      4130
      4126      4127      4127      4128      4128      4305      4128      4131
      4129      4130      4129      4134      4130      4131      4131      4132
      4132      4135      4132      4309      4133      4134      4133      4138
      4134      4135      4135      4136      4136      4139      4136      4313
      4137      4138      4138      4139      4139      4140      4140      4317
      4141      4142      4141      4146      4142      4143      4143      4144
      4144      4321      4144      4147      4145      4146      4145      4150
      4146      4147      4147      4148      4148      4325      4148      4151
      4149      4150      4149      4154      4150      4151      4151      4152
      4152      4155      4152      4329      4153      4154      4153      4158
      4154      4155      4155      4156      4156      4159      4156      4333
      4157      4158      4157      4162      4158      4159      4159      4160
      4160      4337      4160      4163      4161      4162      4161      4166
      4162      4163      4163      4164      4164      4341      4164      4167
      4165      4166      4165      4170      4166      4167      4167      4168
      4168      4345      4168      4171      4169      4174      4169      4170
      4170      4171      4171      4172      4172      4349      4172      4175
      4173      4178      4173      4174      4174      4175      4175      4176
      4176      4353      4176      4179      4177      4182      4177      4178
      4178      4179      4179      4180      4180      4357      4180      4183
      4181      4182      4181      4186      4182      4183      4183      4184
      4184      4361      4184      4187      4185      4186      4185      4190
      4186      4187      4187      4188      4188      4365      4188      4191
      4189      4194      4189      4190      4190      4191      4191      4192
      4192      4195      4192      4369      4193      4198      4193      4194
      4194      4195      4195      4196      4196      4199      4196      4373
      4197      4202      4197      4198      4198      4199      4199      4200
      4200      4377      4200      4203      4201      4202      4201      4206
      4202      4203      4203      4204      4204      4381      4204      4207
      4205      4206      4205      4210      4206      4207      4207      4208
      4208      4385      4208      4211      4209      4214      4209      4210
      4210      4211      4211      4212      4212      4215      4212      4389
      4213      4214      4213      4218      4214      4215      4215      4216
      4216      4219      4216      4393      4217      4218      4217      4222
      4218      4219      4219      4220      4220      4397      4220      4223
      4221      4222      4221      4226      4222      4223      4223      4224
      4224      4401      4224      4227      4225      4226      4225      4230
      4226      4227      4227      4228      4228      4405      4228      4231
      4229      4230      4229      4234      4230      4231      4231      4232
      4232      4235      4232      4409      4233      4234      4233      4238
      4234      4235      4235      4236      4236      4413      4236      4239
      4237      4242      4237      4238      4238      4239      4239      4240
      4240      4417      4240      4243      4241      4242      4241      4246
      4242      4243      4243      4244      4244      4421      4244      4247
      4245      4246      4245      4250      4246      4247      4247      4248
      4248      4425      4248      4251      4249      4254      4249      4250
      4250      4251      4251      4252      4252      4429      4252      4255
      4253      4258      4253      4254      4254      4255      4255      4256
      4256      4259      4256      4433      4257      4262      4257      4258
      4258      4259      4259      4260      4260      4437      4260      4263
      4261      4262      4261      4266      4262      4263      4263      4264
      4264      4441      4264      4267      4265      4266      4265      4270
      4266      4267      4267      4268      4268      4445      4268      4271
      4269      4274      4269      4270      4270      4271      4271      4272
      4272      4275      4272      4449      4273      4278      4273      4274
      4274      4275      4275      4276      4276      4279      4276      4453
      4277      4282      4277      4278      4278      4279      4279      4280
      4280      4457      4280      4283      4281      4282      4281      4286
      4282      4283      4283      4284      4284      4461      4284      4287
      4285      4286      4285      4290      4286      4287      4287      4288
      4288      4465      4288      4291      4289      4290      4289      4294
      4290      4291      4291      4292      4292      4295      4292      4469
      4293      4294      4293      4298      4294      4295      4295      4296
      4296      4299      4296      4473      4297      4298      4297      4302
      4298      4299      4299      4300      4300      4477      4300      4303
      4301      4302      4301      4306      4302      4303      4303      4304
      4304      4481      4304      4307      4305      4306      4305      4310
      4306      4307      4307      4308      4308      4485      4308      4311
      4309      4314      4309      4310      4310      4311      4311      4312
      4312      4489      4312      4315      4313      4318      4313      4314
      4314      4315      4315      4316      4316      4493      4316      4319
      4317      4318      4318      4319      4319      4320      4320      4497
      4321      4322      4321      4326      4322      4323      4323      4324
      4324      4327      4324      4501      4325      4326      4325      4330
      4326      4327      4327      4328      4328      4331      4328      4505
      4329      4334      4329      4330      4330      4331      4331      4332
      4332      4335      4332      4509      4333      4338      4333      4334
      4334      4335      4335      4336      4336      4339      4336      4513
      4337      4342      4337      4338      4338      4339      4339      4340
      4340      4343      4340      4517      4341      4342      4341      4346
      4342      4343      4343      4344      4344      4347      4344      4521
      4345      4346      4345      4350      4346      4347      4347      4348
      4348      4351      4348      4525      4349      4354      4349      4350
      4350      4351      4351      4352      4352      4355      4352      4529
      4353      4358      4353      4354      4354      4355      4355      4356
      4356      4359      4356      4533      4357      4362      4357      4358
      4358      4359      4359      4360      4360      4363      4360      4537
      4361      4362      4361      4366      4362      4363      4363      4364
      4364      4367      4364      4541      4365      4366      4365      4370
      4366      4367      4367      4368      4368      4371      4368      4545
      4369      4374      4369      4370      4370      4371      4371      4372
      4372      4375      4372      4549      4373      4378      4373      4374
      4374      4375      4375      4376      4376      4379      4376      4553
      4377      4382      4377      4378      4378      4379      4379      4380
      4380      4383      4380      4557      4381      4382      4381      4386
      4382      4383      4383      4384      4384      4387      4384      4561
      4385      4386      4385      4390      4386      4387      4387      4388
      4388      4391      4388      4565      4389      4394      4389      4390
      4390      4391      4391      4392      4392      4395      4392      4569
      4393      4398      4393      4394      4394      4395      4395      4396
      4396      4399      4396      4573      4397      4402      4397      4398
      4398      4399      4399      4400      4400      4403      4400      4577
      4401      4402      4401      4406      4402      4403      4403      4404
      4404      4407      4404      4581      4405      4406      4405      4410
      4406      4407      4407      4408      4408      4411      4408      4585
      4409      4414      4409      4410      4410      4411      4411      4412
      4412      4415      4412      4589      4413      4418      4413      4414
      4414      4415      4415      4416      4416      4419      4416      4593
      4417      4422      4417      4418      4418      4419      4419      4420
      4420      4423      4420      4597      4421      4422      4421      4426
      4422      4423      4423      4424      4424      4427      4424      4601
      4425      4426      4425      4430      4426      4427      4427      4428
      4428      4431      4428      4605      4429      4434      4429      4430
      4430      4431      4431      4432      4432      4435      4432      4609
      4433      4438      4433      4434      4434      4435      4435      4436
      4436      4439      4436      4613      4437      4442      4437      4438
      4438      4439      4439      4440      4440      4443      4440      4617
      4441      4442      4441      4446      4442      4443      4443      4444
      4444      4447      4444      4621      4445      4446      4445      4450
      4446      4447      4447      4448      4448      4451      4448      4625
      4449      4454      4449      4450      4450      4451      4451      4452
      4452      4455      4452      4629      4453      4454      4453      4458
      4454      4455      4455      4456      4456      4459      4456      4633
      4457      4462      4457      4458      4458      4459      4459      4460
      4460      4463      4460      4637      4461      4462      4461      4466
      4462      4463      4463      4464      4464      4467      4464      4641
      4465      4466      4465      4470      4466      4467      4467      4468
      4468      4471      4468      4645      4469      4474      4469      4470
      4470      4471      4471      4472      4472      4475      4472      4649
      4473      4478      4473      4474      4474      4475      4475      4476
      4476      4479      4476      4653      4477      4482      4477      4478
      4478      4479      4479      4480      4480      4483      4480      4657
      4481      4482      4481      4486      4482      4483      4483      4484
      4484      4487      4484      4661      4485      4486      4485      4490
      4486      4487      4487      4488      4488      4491      4488      4665
      4489      4494      4489      4490      4490      4491      4491      4492
      4492      4495      4492      4669      4493      4498      4493      4494
      4494      4495      4495      4496      4496      4499      4496      4673
      4497      4498      4498      4499      4499      4500      4500      4677
      4501      4502      4501      4506      4502      4503      4503      4504
      4504      4507      4505      4506      4505      4510      4506      4507
      4507      4508      4508      4511      4509      4514      4509      4510
      4510      4511      4511      4512      4512      4515      4513      4518
      4513      4514      4514      4515      4515      4516      4516      4519
      4517      4522      4517      4518      4518      4519      4519      4520
      4520      4523      4521      4522      4521      4526      4522      4523
      4523      4524      4524      4527      4525      4526      4525      4530
      4526      4527      4527      4528      4528      4531      4529      4534
      4529      4530      4530      4531      4531      4532      4532      4535
      4533      4538      4533      4534      4534      4535      4535      4536
      4536      4539      4537      4542      4537      4538      4538      4539
      4539      4540      4540      4543      4541      4542      4541      4546
      4542      4543      4543      4544      4544      4547      4545      4546
      4545      4550      4546      4547      4547      4548      4548      4551
      4549      4554      4549      4550      4550      4551      4551      4552
      4552      4555      4553      4558      4553      4554      4554      4555
      4555      4556      4556      4559      4557      4562      4557      4558
      4558      4559      4559      4560      4560      4563      4561      4562
      4561      4566      4562      4563      4563      4564      4564      4567
      4565      4566      4565      4570      4566      4567      4567      4568
      4568      4571      4569      4574      4569      4570      4570      4571
      4571      4572      4572      4575      4573      4578      4573      4574
      4574      4575      4575      4576      4576      4579      4577      4582
      4577      4578      4578      4579      4579      4580      4580      4583
      4581      4582      4581      4586      4582      4583      4583      4584
      4584      4587      4585      4586      4585      4590      4586      4587
      4587      4588      4588      4591      4589      4594      4589      4590
      4590      4591      4591      4592      4592      4595      4593      4598
      4593      4594      4594      4595      4595      4596      4596      4599
      4597      4602      4597      4598      4598      4599      4599      4600
      4600      4603      4601      4602      4601      4606      4602      4603
      4603      4604      4604      4607      4605      4606      4605      4610
      4606      4607      4607      4608      4608      4611      4609      4614
      4609      4610      4610      4611      4611      4612      4612      4615
      4613      4618      4613      4614      4614      4615      4615      4616
      4616      4619      4617      4622      4617      4618      4618      4619
      4619      4620      4620      4623      4621      4622      4621      4626
      4622      4623      4623      4624      4624      4627      4625      4626
      4625      4630      4626      4627      4627      4628      4628      4631
      4629      4634      4629      4630      4630      4631      4631      4632
      4632      4635      4633      4638      4633      4634      4634      4635
      4635      4636      4636      4639      4637      4642      4637      4638
      4638      4639      4639      4640      4640      4643      4641      4642
      4641      4646      4642      4643      4643      4644      4644      4647
      4645      4646      4645      4650      4646      4647      4647      4648
      4648      4651      4649      4654      4649      4650      4650      4651
      4651      4652      4652      4655      4653      4658      4653      4654
      4654      4655      4655      4656      4656      4659      4657      4662
      4657      4658      4658      4659      4659      4660      4660      4663
      4661      4662      4661      4666      4662      4663      4663      4664
      4664      4667      4665      4666      4665      4670      4666      4667
      4667      4668      4668      4671      4669      4674      4669      4670
      4670      4671      4671      4672      4672      4675      4673      4674
      4673      4678      4674      4675      4675      4676      4676      4679
      4677      4678      4678      4679      4679      4680      4944      4948
      4944      4945      4944      4946      4944      4947      4948      4949
      4950      4954      4950      4951      4950      4952      4950      4953
      4954      4955      4956      4960      4956      4957      4956      4958
      4956      4959      4960      4961      4962      4966      4962      4963
      4962      4964      4962      4965      4966      4967      4968      4972
      4968      4969      4968      4970      4968      4971      4972      4973
      4974      4978      4974      4975      4974      4976      4974      4977
      4978      4979      4980      4984      4980      4981      4980      4982
      4980      4983      4984      4985      4986      4990      4986      4987
      4986      4988      4986      4989      4990      4991      4992      4996
      4992      4993      4992      4994      4992      4995      4996      4997
      4998      5002      4998      4999      4998      5000      4998      5001
      5002      5003      5004      5008      5004      5005      5004      5006
      5004      5007      5008      5009      5010      5014      5010      5011
      5010      5012      5010      5013      5014      5015      5016      5020
      5016      5017      5016      5018      5016      5019      5020      5021
      5022      5026      5022      5023      5022      5024      5022      5025
      5026      5027      5028      5032      5028      5029      5028      5030
      5028      5031      5032      5033      5034      5038      5034      5035
      5034      5036      5034      5037      5038      5039      5040      5044
      5040      5041      5040      5042      5040      5043      5044      5045
      5046      5050      5046      5047      5046      5048      5046      5049
      5050      5051      5052      5056      5052      5053      5052      5054
      5052      5055      5056      5057      5058      5062      5058      5059
      5058      5060      5058      5061      5062      5063      5064      5068
      5064      5065      5064      5066      5064      5067      5068      5069
      5070      5074      5070      5071      5070      5072      5070      5073
      5074      5075      5076      5080      5076      5077      5076      5078
      5076      5079      5080      5081      5082      5086      5082      5083
      5082      5084      5082      5085      5086      5087      5088      5092
      5088      5089      5088      5090      5088      5091      5092      5093
      5094      5098      5094      5095      5094      5096      5094      5097
      5098      5099      5100      5104      5100      5101      5100      5102
      5100      5103      5104      5105      5106      5110      5106      5107
      5106      5108      5106      5109      5110      5111      5112      5116
      5112      5113      5112      5114      5112      5115      5116      5117
      5118      5122      5118      5119      5118      5120      5118      5121
      5122      5123      5124      5128      5124      5125      5124      5126
      5124      5127      5128      5129      5130      5134      5130      5131
      5130      5132      5130      5133      5134      5135      5136      5140
      5136      5137      5136      5138      5136      5139      5140      5141
      5142      5146      5142      5143      5142      5144      5142      5145
      5146      5147      5148      5152      5148      5149      5148      5150
      5148      5151      5152      5153      5154      5158      5154      5155
      5154      5156      5154      5157      5158      5159      5160      5164
      5160      5161      5160      5162      5160      5163      5164      5165
      5166      5170      5166      5167      5166      5168      5166      5169
      5170      5171      5172      5176      5172      5173      5172      5174
      5172      5175      5176      5177      5178      5182      5178      5179
      5178      5180      5178      5181      5182      5183      5184      5188
      5184      5185      5184      5186      5184      5187      5188      5189
      5190      5194      5190      5191      5190      5192      5190      5193
      5194      5195      5196      5200      5196      5197      5196      5198
      5196      5199      5200      5201      5202      5206      5202      5203
      5202      5204      5202      5205      5206      5207      5208      5212
      5208      5209      5208      5210      5208      5211      5212      5213
      5214      5218      5214      5215      5214      5216      5214      5217
      5218      5219      5220      5224      5220      5221      5220      5222
      5220      5223      5224      5225      5226      5230      5226      5227
      5226      5228      5226      5229      5230      5231      5232      5236
      5232      5233      5232      5234      5232      5235      5236      5237
      5238      5242      5238      5239      5238      5240      5238      5241
      5242      5243      5244      5248      5244      5245      5244      5246
      5244      5247      5248      5249      5250      5254      5250      5251
      5250      5252      5250      5253      5254      5255      5256      5260
      5256      5257      5256      5258      5256      5259      5260      5261
      5262      5266      5262      5263      5262      5264      5262      5265
      5266      5267      5268      5272      5268      5269      5268      5270
      5268      5271      5272      5273      5274      5278      5274      5275
      5274      5276      5274      5277      5278      5279      5280      5284
      5280      5281      5280      5282      5280      5283      5284      5285
      5286      5290      5286      5287      5286      5288      5286      5289
      5290      5291      5292      5296      5292      5293      5292      5294
      5292      5295      5296      5297      5298      5302      5298      5299
      5298      5300      5298      5301      5302      5303      5304      5308
      5304      5305      5304      5306      5304      5307      5308      5309
      5310      5314      5310      5311      5310      5312      5310      5313
      5314      5315      5316      5320      5316      5317      5316      5318
      5316      5319      5320      5321      5322      5326      5322      5323
      5322      5324      5322      5325      5326      5327      5328      5332
      5328      5329      5328      5330      5328      5331      5332      5333
      5334      5338      5334      5335      5334      5336      5334      5337
      5338      5339      5340      5344      5340      5341      5340      5342
      5340      5343      5344      5345      5346      5350      5346      5347
      5346      5348      5346      5349      5350      5351      5352      5356
      5352      5353      5352      5354      5352      5355      5356      5357
      5358      5362      5358      5359      5358      5360      5358      5361
      5362      5363      5364      5368      5364      5365      5364      5366
      5364      5367      5368      5369      5370      5374      5370      5371
      5370      5372      5370      5373      5374      5375      5376      5380
      5376      5377      5376      5378      5376      5379      5380      5381
      5382      5386      5382      5383      5382      5384      5382      5385
      5386      5387      5388      5392      5388      5389      5388      5390
      5388      5391      5392      5393      5394      5398      5394      5395
      5394      5396      5394      5397      5398      5399      5400      5404
      5400      5401      5400      5402      5400      5403      5404      5405
      5406      5410      5406      5407      5406      5408      5406      5409
      5410      5411      5412      5416      5412      5413      5412      5414
      5412      5415      5416      5417      5418      5422      5418      5419
      5418      5420      5418      5421      5422      5423      5424      5428
      5424      5425      5424      5426      5424      5427      5428      5429
      5430      5434      5430      5431      5430      5432      5430      5433
      5434      5435      5436      5440      5436      5437      5436      5438
      5436      5439      5440      5441      5442      5446      5442      5443
      5442      5444      5442      5445      5446      5447      5448      5452
      5448      5449      5448      5450      5448      5451      5452      5453
      5454      5458      5454      5455      5454      5456      5454      5457
      5458      5459      5460      5464      5460      5461      5460      5462
      5460      5463      5464      5465      5466      5470      5466      5467
      5466      5468      5466      5469      5470      5471      5472      5476
      5472      5473      5472      5474      5472      5475      5476      5477
      5478      5482      5478      5479      5478      5480      5478      5481
      5482      5483      5484      5488      5484      5485      5484      5486
      5484      5487      5488      5489      5490      5494      5490      5491
      5490      5492      5490      5493      5494      5495      5496      5500
      5496      5497      5496      5498      5496      5499      5500      5501
      5502      5506      5502      5503      5502      5504      5502      5505
      5506      5507      5508      5512      5508      5509      5508      5510
      5508      5511      5512      5513      5514      5518      5514      5515
      5514      5516      5514      5517      5518      5519      5520      5524
      5520      5521      5520      5522      5520      5523      5524      5525
      5526      5530      5526      5527      5526      5528      5526      5529
      5530      5531      5532      5536      5532      5533      5532      5534
      5532      5535      5536      5537      5538      5542      5538      5539
      5538      5540      5538      5541      5542      5543      5544      5548
      5544      5545      5544      5546      5544      5547      5548      5549
      5550      5554      5550      5551      5550      5552      5550      5553
      5554      5555      5556      5560      5556      5557      5556      5558
      5556      5559      5560      5561      5562      5566      5562      5563
      5562      5564      5562      5565      5566      5567      5568      5572
      5568      5569      5568      5570      5568      5571      5572      5573
      5574      5578      5574      5575      5574      5576      5574      5577
      5578      5579      5580      5584      5580      5581      5580      5582
      5580      5583      5584      5585      5586      5590      5586      5587
      5586      5588      5586      5589      5590      5591      5592      5596
      5592      5593      5592      5594      5592      5595      5596      5597
      5598      5602      5598      5599      5598      5600      5598      5601
      5602      5603      5604      5608      5604      5605      5604      5606
      5604      5607      5608      5609      5610      5614      5610      5611
      5610      5612      5610      5613      5614      5615      5616      5620
      5616      5617      5616      5618      5616      5619      5620      5621
      5622      5626      5622      5623      5622      5624      5622      5625
      5626      5627      5628      5632      5628      5629      5628      5630
      5628      5631      5632      5633      5634      5638      5634      5635
      5634      5636      5634      5637      5638      5639      5640      5644
      5640      5641      5640      5642      5640      5643      5644      5645
      5646      5650      5646      5647      5646      5648      5646      5649
      5650      5651      5652      5656      5652      5653      5652      5654
      5652      5655      5656      5657      5658      5662      5658      5659
      5658      5660      5658      5661      5662      5663      5664      5668
      5664      5665      5664      5666      5664      5667      5668      5669
      5670      5674      5670      5671      5670      5672      5670      5673
      5674      5675      5676      5680      5676      5677      5676      5678
      5676      5679      5680      5681      5682      5686      5682      5683
      5682      5684      5682      5685      5686      5687      5688      5692
      5688      5689      5688      5690      5688      5691      5692      5693
      5694      5698      5694      5695      5694      5696      5694      5697
      5698      5699      5700      5704      5700      5701      5700      5702
      5700      5703      5704      5705      5706      5710      5706      5707
      5706      5708      5706      5709      5710      5711      5712      5716
      5712      5713      5712      5714      5712      5715      5716      5717
      5718      5722      5718      5719      5718      5720      5718      5721
      5722      5723      5724      5728      5724      5725      5724      5726
      5724      5727      5728      5729      5730      5734      5730      5731
      5730      5732      5730      5733      5734      5735      5736      5740
      5736      5737      5736      5738      5736      5739      5740      5741
      5742      5746      5742      5743      5742      5744      5742      5745
      5746      5747      5748      5752      5748      5749      5748      5750
      5748      5751      5752      5753      5754      5758      5754      5755
      5754      5756      5754      5757      5758      5759      5760      5764
      5760      5761      5760      5762      5760      5763      5764      5765
      5766      5770      5766      5767      5766      5768      5766      5769
      5770      5771      5772      5776      5772      5773      5772      5774
      5772      5775      5776      5777      5778      5782      5778      5779
      5778      5780      5778      5781      5782      5783      5784      5788
      5784      5785      5784      5786      5784      5787      5788      5789
      5790      5794      5790      5791      5790      5792      5790      5793
      5794      5795      5796      5800      5796      5797      5796      5798
      5796      5799      5800      5801      5802      5806      5802      5803
      5802      5804      5802      5805      5806      5807      5808      5812
      5808      5809      5808      5810      5808      5811      5812      5813
      5814      5818      5814      5815      5814      5816      5814      5817
      5818      5819      5820      5824      5820      5821      5820      5822
      5820      5823      5824      5825      5826      5830      5826      5827
      5826      5828      5826      5829      5830      5831      5832      5836
      5832      5833      5832      5834      5832      5835      5836      5837
      5838      5842      5838      5839      5838      5840      5838      5841
      5842      5843      5844      5848      5844      5845      5844      5846
      5844      5847      5848      5849      5850      5854      5850      5851
      5850      5852      5850      5853      5854      5855      5856      5860
      5856      5857      5856      5858      5856      5859      5860      5861
      5862      5866      5862      5863      5862      5864      5862      5865
      5866      5867      5868      5872      5868      5869      5868      5870
      5868      5871      5872      5873      5874      5878      5874      5875
      5874      5876      5874      5877      5878      5879      5880      5884
      5880      5881      5880      5882      5880      5883      5884      5885
      5886      5890      5886      5887      5886      5888      5886      5889
      5890      5891      5892      5896      5892      5893      5892      5894
      5892      5895      5896      5897      5898      5902      5898      5899
      5898      5900      5898      5901      5902      5903      5904      5908
      5904      5905      5904      5906      5904      5907      5908      5909
      5910      5914      5910      5911      5910      5912      5910      5913
      5914      5915      5916      5920      5916      5917      5916      5918
      5916      5919      5920      5921      5922      5926      5922      5923
      5922      5924      5922      5925      5926      5927      5928      5932
      5928      5929      5928      5930      5928      5931      5932      5933
      5934      5938      5934      5935      5934      5936      5934      5937
      5938      5939      5940      5944      5940      5941      5940      5942
      5940      5943      5944      5945      5946      5950      5946      5947
      5946      5948      5946      5949      5950      5951      5952      5956
      5952      5953      5952      5954      5952      5955      5956      5957
      5958      5962      5958      5959      5958      5960      5958      5961
      5962      5963      5964      5968      5964      5965      5964      5966
      5964      5967      5968      5969      5970      5974      5970      5971
      5970      5972      5970      5973      5974      5975      5976      5980
      5976      5977      5976      5978      5976      5979      5980      5981
      5982      5986      5982      5983      5982      5984      5982      5985
      5986      5987      5988      5992      5988      5989      5988      5990
      5988      5991      5992      5993      5994      5998      5994      5995
      5994      5996      5994      5997      5998      5999      6000      6004
      6000      6001      6000      6002      6000      6003      6004      6005
      6006      6010      6006      6007      6006      6008      6006      6009
      6010      6011      6012      6016      6012      6013      6012      6014
      6012      6015      6016      6017      6018      6022      6018      6019
      6018      6020      6018      6021      6022      6023      6024      6028
      6024      6025      6024      6026      6024      6027      6028      6029
      6030      6034      6030      6031      6030      6032      6030      6033
      6034      6035      6036      6040      6036      6037      6036      6038
      6036      6039      6040      6041      6042      6046      6042      6043
      6042      6044      6042      6045      6046      6047      6048      6052
      6048      6049      6048      6050      6048      6051      6052      6053
      6054      6058      6054      6055      6054      6056      6054      6057
      6058      6059      6060      6064      6060      6061      6060      6062
      6060      6063      6064      6065      6066      6070      6066      6067
      6066      6068      6066      6069      6070      6071      6072      6076
      6072      6073      6072      6074      6072      6075      6076      6077
      6078      6082      6078      6079      6078      6080      6078      6081
      6082      6083      6084      6088      6084      6085      6084      6086
      6084      6087      6088      6089      6090      6094      6090      6091
      6090      6092      6090      6093      6094      6095      6096      6100
      6096      6097      6096      6098      6096      6099      6100      6101
      6102      6106      6102      6103      6102      6104      6102      6105
      6106      6107      6108      6112      6108      6109      6108      6110
      6108      6111      6112      6113      6114      6118      6114      6115
      6114      6116      6114      6117      6118      6119      6120      6124
      6120      6121      6120      6122      6120      6123      6124      6125
      6126      6130      6126      6127      6126      6128      6126      6129
      6130      6131      6132      6136      6132      6133      6132      6134
      6132      6135      6136      6137      6138      6142      6138      6139
      6138      6140      6138      6141      6142      6143      6144      6148
      6144      6145      6144      6146      6144      6147      6148      6149
      6150      6154      6150      6151      6150      6152      6150      6153
      6154      6155      6156      6160      6156      6157      6156      6158
      6156      6159      6160      6161      6162      6166      6162      6163
      6162      6164      6162      6165      6166      6167      6168      6172
      6168      6169      6168      6170      6168      6171      6172      6173
      6174      6178      6174      6175      6174      6176      6174      6177
      6178      6179      6180      6184      6180      6181      6180      6182
      6180      6183      6184      6185      6186      6190      6186      6187
      6186      6188      6186      6189      6190      6191      6192      6196
      6192      6193      6192      6194      6192      6195      6196      6197
      6198      6202      6198      6199      6198      6200      6198      6201
      6202      6203      6204      6208      6204      6205      6204      6206
      6204      6207      6208      6209      6210      6214      6210      6211
      6210      6212      6210      6213      6214      6215      6216      6220
      6216      6217      6216      6218      6216      6219      6220      6221
      6222      6226      6222      6223      6222      6224      6222      6225
      6226      6227      6228      6232      6228      6229      6228      6230
      6228      6231      6232      6233      6234      6238      6234      6235
      6234      6236      6234      6237      6238      6239      6240      6244
      6240      6241      6240      6242      6240      6243      6244      6245
      6246      6250      6246      6247      6246      6248      6246      6249
      6250      6251      6252      6256      6252      6253      6252      6254
      6252      6255      6256      6257      6258      6262      6258      6259
      6258      6260      6258      6261      6262      6263      6264      6268
      6264      6265      6264      6266      6264      6267      6268      6269
      6270      6274      6270      6271      6270      6272      6270      6273
      6274      6275      6276      6280      6276      6277      6276      6278
      6276      6279      6280      6281      6282      6286      6282      6283
      6282      6284      6282      6285      6286      6287      6288      6292
      6288      6289      6288      6290      6288      6291      6292      6293
      6294      6298      6294      6295      6294      6296      6294      6297
      6298      6299      6300      6304      6300      6301      6300      6302
      6300      6303      6304      6305      6306      6310      6306      6307
      6306      6308      6306      6309      6310      6311      6312      6316
      6312      6313      6312      6314      6312      6315      6316      6317
      6318      6322      6318      6319      6318      6320      6318      6321
      6322      6323      6324      6328      6324      6325      6324      6326
      6324      6327      6328      6329      6330      6334      6330      6331
      6330      6332      6330      6333      6334      6335      6336      6340
      6336      6337      6336      6338      6336      6339      6340      6341
      6342      6346      6342      6343      6342      6344      6342      6345
      6346      6347      6348      6352      6348      6349      6348      6350
      6348      6351      6352      6353      6354      6358      6354      6355
      6354      6356      6354      6357      6358      6359      6360      6364
      6360      6361      6360      6362      6360      6363      6364      6365
      6366      6370      6366      6367      6366      6368      6366      6369
      6370      6371      6372      6376      6372      6373      6372      6374
      6372      6375      6376      6377      6378      6382      6378      6379
      6378      6380      6378      6381      6382      6383      6384      6388
      6384      6385      6384      6386      6384      6387      6388      6389
      6390      6394      6390      6391      6390      6392      6390      6393
      6394      6395      6396      6400      6396      6397      6396      6398
      6396      6399      6400      6401      6402      6406      6402      6403
      6402      6404      6402      6405      6406      6407      6408      6412
      6408      6409      6408      6410      6408      6411      6412      6413
      6414      6418      6414      6415      6414      6416      6414      6417
      6418      6419      6420      6424      6420      6421      6420      6422
      6420      6423      6424      6425      6426      6430      6426      6427
      6426      6428      6426      6429      6430      6431      6432      6436
      6432      6433      6432      6434      6432      6435      6436      6437
      6438      6442      6438      6439      6438      6440      6438      6441
      6442      6443      6444      6448      6444      6445      6444      6446
      6444      6447      6448      6449      6450      6454      6450      6451
      6450      6452      6450      6453      6454      6455      6456      6460
      6456      6457      6456      6458      6456      6459      6460      6461
      6462      6466      6462      6463      6462      6464      6462      6465
      6466      6467      6468      6472      6468      6469      6468      6470
      6468      6471      6472      6473      6474      6478      6474      6475
      6474      6476      6474      6477      6478      6479      6480      6484
      6480      6481      6480      6482      6480      6483      6484      6485
      6486      6490      6486      6487      6486      6488      6486      6489
      6490      6491      6492      6496      6492      6493      6492      6494
      6492      6495      6496      6497      6498      6502      6498      6499
      6498      6500      6498      6501      6502      6503      6504      6508
      6504      6505      6504      6506      6504      6507      6508      6509
      6510      6514      6510      6511      6510      6512      6510      6513
      6514      6515      6516      6520      6516      6517      6516      6518
      6516      6519      6520      6521      6522      6526      6522      6523
      6522      6524      6522      6525      6526      6527      6528      6532
      6528      6529      6528      6530      6528      6531      6532      6533
      6534      6538      6534      6535      6534      6536      6534      6537
      6538      6539      6540      6544      6540      6541      6540      6542
      6540      6543      6544      6545      6546      6550      6546      6547
      6546      6548      6546      6549      6550      6551      6552      6556
      6552      6553      6552      6554      6552      6555      6556      6557
      6558      6562      6558      6559      6558      6560      6558      6561
      6562      6563      6564      6568      6564      6565      6564      6566
      6564      6567      6568      6569      6570      6574      6570      6571
      6570      6572      6570      6573      6574      6575      6576      6580
      6576      6577      6576      6578      6576      6579      6580      6581
      6582      6586      6582      6583      6582      6584      6582      6585
      6586      6587      6588      6592      6588      6589      6588      6590
      6588      6591      6592      6593      6594      6598      6594      6595
      6594      6596      6594      6597      6598      6599      6600      6604
      6600      6601      6600      6602      6600      6603      6604      6605
      6606      6610      6606      6607      6606      6608      6606      6609
      6610      6611      6612      6616      6612      6613      6612      6614
      6612      6615      6616      6617      6618      6622      6618      6619
      6618      6620      6618      6621      6622      6623      6624      6628
      6624      6625      6624      6626      6624      6627      6628      6629
      6630      6634      6630      6631      6630      6632      6630      6633
      6634      6635      6636      6640      6636      6637      6636      6638
      6636      6639      6640      6641      6642      6646      6642      6643
      6642      6644      6642      6645      6646      6647      6648      6652
      6648      6649      6648      6650      6648      6651      6652      6653
      6654      6658      6654      6655      6654      6656      6654      6657
      6658      6659      6660      6664      6660      6661      6660      6662
      6660      6663      6664      6665      6666      6670      6666      6667
      6666      6668      6666      6669      6670      6671      6672      6676
      6672      6673      6672      6674      6672      6675      6676      6677
      6678      6682      6678      6679      6678      6680      6678      6681
      6682      6683      6684      6688      6684      6685      6684      6686
      6684      6687      6688      6689      6690      6694      6690      6691
      6690      6692      6690      6693      6694      6695      6696      6700
      6696      6697      6696      6698      6696      6699      6700      6701
      6702      6706      6702      6703      6702      6704      6702      6705
      6706      6707      6708      6712      6708      6709      6708      6710
      6708      6711      6712      6713      6714      6718      6714      6715
      6714      6716      6714      6717      6718      6719      6720      6724
      6720      6721      6720      6722      6720      6723      6724      6725
      6726      6730      6726      6727      6726      6728      6726      6729
      6730      6731      6732      6736      6732      6733      6732      6734
      6732      6735      6736      6737      6738      6742      6738      6739
      6738      6740      6738      6741      6742      6743      6744      6748
      6744      6745      6744      6746      6744      6747      6748      6749
      6750      6754      6750      6751      6750      6752      6750      6753
      6754      6755      6756      6760      6756      6757      6756      6758
      6756      6759      6760      6761      6762      6766      6762      6763
      6762      6764      6762      6765      6766      6767      6768      6772
      6768      6769      6768      6770      6768      6771      6772      6773
      6774      6778      6774      6775      6774      6776      6774      6777
      6778      6779      6780      6784      6780      6781      6780      6782
      6780      6783      6784      6785      6786      6790      6786      6787
      6786      6788      6786      6789      6790      6791      6792      6796
      6792      6793      6792      6794      6792      6795      6796      6797
      6798      6802      6798      6799      6798      6800      6798      6801
      6802      6803      6804      6808      6804      6805      6804      6806
      6804      6807      6808      6809      6810      6814      6810      6811
      6810      6812      6810      6813      6814      6815      6816      6820
      6816      6817      6816      6818      6816      6819      6820      6821
      6822      6826      6822      6823      6822      6824      6822      6825
      6826      6827      6828      6832      6828      6829      6828      6830
      6828      6831      6832      6833      6834      6838      6834      6835
      6834      6836      6834      6837      6838      6839      6840      6844
      6840      6841      6840      6842      6840      6843      6844      6845
      6846      6850      6846      6847      6846      6848      6846      6849
      6850      6851      6852      6856      6852      6853      6852      6854
      6852      6855      6856      6857      6858      6862      6858      6859
      6858      6860      6858      6861      6862      6863      6864      6868
      6864      6865      6864      6866      6864      6867      6868      6869
      6870      6874      6870      6871      6870      6872      6870      6873
      6874      6875      6876      6880      6876      6877      6876      6878
      6876      6879      6880      6881      6882      6886      6882      6883
      6882      6884      6882      6885      6886      6887      6888      6892
      6888      6889      6888      6890      6888      6891      6892      6893
      6894      6898      6894      6895      6894      6896      6894      6897
      6898      6899      6900      6904      6900      6901      6900      6902
      6900      6903      6904      6905      6906      6910      6906      6907
      6906      6908      6906      6909      6910      6911      6912      6916
      6912      6913      6912      6914      6912      6915      6916      6917
      6918      6922      6918      6919      6918      6920      6918      6921
      6922      6923      6924      6928      6924      6925      6924      6926
      6924      6927      6928      6929      6930      6934      6930      6931
      6930      6932      6930      6933      6934      6935      6936      6940
      6936      6937      6936      6938      6936      6939      6940      6941
      6942      6946      6942      6943      6942      6944      6942      6945
      6946      6947      6948      6952      6948      6949      6948      6950
      6948      6951      6952      6953      6954      6958      6954      6955
      6954      6956      6954      6957      6958      6959      6960      6964
      6960      6961      6960      6962      6960      6963      6964      6965
      6966      6970      6966      6967      6966      6968      6966      6969
      6970      6971      6972      6976      6972      6973      6972      6974
      6972      6975      6976      6977      6978      6982      6978      6979
      6978      6980      6978      6981      6982      6983      6984      6988
      6984      6985      6984      6986      6984      6987      6988      6989
      6990      6994      6990      6991      6990      6992      6990      6993
      6994      6995      6996      7000      6996      6997      6996      6998
      6996      6999      7000      7001      7002      7006      7002      7003
      7002      7004      7002      7005      7006      7007      7008      7012
      7008      7009      7008      7010      7008      7011      7012      7013
      7014      7018      7014      7015      7014      7016      7014      7017
      7018      7019      7020      7024      7020      7021      7020      7022
      7020      7023      7024      7025      7026      7030      7026      7027
      7026      7028      7026      7029      7030      7031      7032      7036
      7032      7033      7032      7034      7032      7035      7036      7037
      7038      7042      7038      7039      7038      7040      7038      7041
      7042      7043      7044      7048      7044      7045      7044      7046
      7044      7047      7048      7049      7050      7054      7050      7051
      7050      7052      7050      7053      7054      7055      7056      7060
      7056      7057      7056      7058      7056      7059      7060      7061
      7062      7066      7062      7063      7062      7064      7062      7065
      7066      7067      7068      7072      7068      7069      7068      7070
      7068      7071      7072      7073      7074      7078      7074      7075
      7074      7076      7074      7077      7078      7079      7080      7084
      7080      7081      7080      7082      7080      7083      7084      7085
      7086      7090      7086      7087      7086      7088      7086      7089
      7090      7091      7092      7096      7092      7093      7092      7094
      7092      7095      7096      7097      7098      7102      7098      7099
      7098      7100      7098      7101      7102      7103      7104      7108
      7104      7105      7104      7106      7104      7107      7108      7109
      7110      7114      7110      7111      7110      7112      7110      7113
      7114      7115      7116      7120      7116      7117      7116      7118
      7116      7119      7120      7121      7122      7126      7122      7123
      7122      7124      7122      7125      7126      7127      7128      7132
      7128      7129      7128      7130      7128      7131      7132      7133
      7134      7138      7134      7135      7134      7136      7134      7137
      7138      7139      7140      7144      7140      7141      7140      7142
      7140      7143      7144      7145      7146      7150      7146      7147
      7146      7148      7146      7149      7150      7151      7152      7156
      7152      7153      7152      7154      7152      7155      7156      7157
      7158      7162      7158      7159      7158      7160      7158      7161
      7162      7163      7164      7168      7164      7165      7164      7166
      7164      7167      7168      7169      7170      7174      7170      7171
      7170      7172      7170      7173      7174      7175      7176      7180
      7176      7177      7176      7178      7176      7179      7180      7181
      7182      7186      7182      7183      7182      7184      7182      7185
      7186      7187      7188      7192      7188      7189      7188      7190
      7188      7191      7192      7193      7194      7198      7194      7195
      7194      7196      7194      7197      7198      7199      7200      7204
      7200      7201      7200      7202      7200      7203      7204      7205
      7206      7210      7206      7207      7206      7208      7206      7209
      7210      7211      7212      7216      7212      7213      7212      7214
      7212      7215      7216      7217      7218      7222      7218      7219
      7218      7220      7218      7221      7222      7223      7224      7228
      7224      7225      7224      7226      7224      7227      7228      7229
      7230      7234      7230      7231      7230      7232      7230      7233
      7234      7235      7236      7240      7236      7237      7236      7238
      7236      7239      7240      7241      7242      7246      7242      7243
      7242      7244      7242      7245      7246      7247      7248      7252
      7248      7249      7248      7250      7248      7251      7252      7253
      7254      7258      7254      7255      7254      7256      7254      7257
      7258      7259      7260      7264      7260      7261      7260      7262
      7260      7263      7264      7265      7266      7270      7266      7267
      7266      7268      7266      7269      7270      7271      7272      7276
      7272      7273      7272      7274      7272      7275      7276      7277
      7278      7282      7278      7279      7278      7280      7278      7281
      7282      7283      7284      7288      7284      7285      7284      7286
      7284      7287      7288      7289      7290      7294      7290      7291
      7290      7292      7290      7293      7294      7295      7296      7300
      7296      7297      7296      7298      7296      7299      7300      7301
      7302      7306      7302      7303      7302      7304      7302      7305
      7306      7307      7308      7312      7308      7309      7308      7310
      7308      7311      7312      7313      7314      7318      7314      7315
      7314      7316      7314      7317      7318      7319      7320      7324
      7320      7321      7320      7322      7320      7323      7324      7325
      7326      7330      7326      7327      7326      7328      7326      7329
      7330      7331      7332      7336      7332      7333      7332      7334
      7332      7335      7336      7337      7338      7342      7338      7339
      7338      7340      7338      7341      7342      7343      7344      7348
      7344      7345      7344      7346      7344      7347      7348      7349
      7350      7354      7350      7351      7350      7352      7350      7353
      7354      7355      7356      7360      7356      7357      7356      7358
      7356      7359      7360      7361      7362      7366      7362      7363
      7362      7364      7362      7365      7366      7367      7368      7372
      7368      7369      7368      7370      7368      7371      7372      7373
      7374      7378      7374      7375      7374      7376      7374      7377
      7378      7379      7380      7384      7380      7381      7380      7382
      7380      7383      7384      7385      7386      7390      7386      7387
      7386      7388      7386      7389      7390      7391      7392      7396
      7392      7393      7392      7394      7392      7395      7396      7397
      7398      7402      7398      7399      7398      7400      7398      7401
      7402      7403      7404      7408      7404      7405      7404      7406
      7404      7407      7408      7409      7410      7414      7410      7411
      7410      7412      7410      7413      7414      7415      7416      7420
      7416      7417      7416      7418      7416      7419      7420      7421
      7422      7426      7422      7423      7422      7424      7422      7425
      7426      7427      7428      7432      7428      7429      7428      7430
      7428      7431      7432      7433      7434      7438      7434      7435
      7434      7436      7434      7437      7438      7439      7440      7444
      7440      7441      7440      7442      7440      7443      7444      7445
      7446      7450      7446      7447      7446      7448      7446      7449
      7450      7451      7452      7456      7452      7453      7452      7454
      7452      7455      7456      7457      7458      7462      7458      7459
      7458      7460      7458      7461      7462      7463      7464      7468
      7464      7465      7464      7466      7464      7467      7468      7469
      7470      7474      7470      7471      7470      7472      7470      7473
      7474      7475      7476      7480      7476      7477      7476      7478
      7476      7479      7480      7481      7482      7486      7482      7483
      7482      7484      7482      7485      7486      7487      7488      7492
      7488      7489      7488      7490      7488      7491      7492      7493
      7494      7498      7494      7495      7494      7496      7494      7497
      7498      7499      7500      7504      7500      7501      7500      7502
      7500      7503      7504      7505      7506      7510      7506      7507
      7506      7508      7506      7509      7510      7511      7512      7516
      7512      7513      7512      7514      7512      7515      7516      7517
      7518      7522      7518      7519      7518      7520      7518      7521
      7522      7523      7524      7528      7524      7525      7524      7526
      7524      7527      7528      7529      7530      7534      7530      7531
      7530      7532      7530      7533      7534      7535      7536      7540
      7536      7537      7536      7538      7536      7539      7540      7541
      7542      7546      7542      7543      7542      7544      7542      7545
      7546      7547      7548      7552      7548      7549      7548      7550
      7548      7551      7552      7553      7554      7558      7554      7555
      7554      7556      7554      7557      7558      7559      7560      7564
      7560      7561      7560      7562      7560      7563      7564      7565
      7566      7570      7566      7567      7566      7568      7566      7569
      7570      7571      7572      7576      7572      7573      7572      7574
      7572      7575      7576      7577      7578      7582      7578      7579
      7578      7580      7578      7581      7582      7583      7584      7588
      7584      7585      7584      7586      7584      7587      7588      7589
      7590      7594      7590      7591      7590      7592      7590      7593
      7594      7595      7596      7600      7596      7597      7596      7598
      7596      7599      7600      7601      7602      7606      7602      7603
      7602      7604      7602      7605      7606      7607      7608      7612
      7608      7609      7608      7610      7608      7611      7612      7613
      7614      7618      7614      7615      7614      7616      7614      7617
      7618      7619      7620      7624      7620      7621      7620      7622
      7620      7623      7624      7625      7626      7630      7626      7627
      7626      7628      7626      7629      7630      7631      7632      7636
      7632      7633      7632      7634      7632      7635      7636      7637
      7638      7642      7638      7639      7638      7640      7638      7641
      7642      7643      7644      7648      7644      7645      7644      7646
      7644      7647      7648      7649      7650      7654      7650      7651
      7650      7652      7650      7653      7654      7655      7656      7660
      7656      7657      7656      7658      7656      7659      7660      7661
      7662      7666      7662      7663      7662      7664      7662      7665
      7666      7667      7668      7672      7668      7669      7668      7670
      7668      7671      7672      7673      7674      7678      7674      7675
      7674      7676      7674      7677      7678      7679      7680      7684
      7680      7681      7680      7682      7680      7683      7684      7685
      7686      7690      7686      7687      7686      7688      7686      7689
      7690      7691      7692      7696      7692      7693      7692      7694
      7692      7695      7696      7697      7698      7702      7698      7699
      7698      7700      7698      7701      7702      7703      7704      7708
      7704      7705      7704      7706      7704      7707      7708      7709
      7710      7714      7710      7711      7710      7712      7710      7713
      7714      7715      7716      7720      7716      7717      7716      7718
      7716      7719      7720      7721      7722      7726      7722      7723
      7722      7724      7722      7725      7726      7727      7728      7732
      7728      7729      7728      7730      7728      7731      7732      7733
      7734      7738      7734      7735      7734      7736      7734      7737
      7738      7739      7740      7744      7740      7741      7740      7742
      7740      7743      7744      7745      7746      7750      7746      7747
      7746      7748      7746      7749      7750      7751      7752      7756
      7752      7753      7752      7754      7752      7755      7756      7757
      7758      7762      7758      7759      7758      7760      7758      7761
      7762      7763      7764      7768      7764      7765      7764      7766
      7764      7767      7768      7769      7770      7774      7770      7771
      7770      7772      7770      7773      7774      7775      7776      7780
      7776      7777      7776      7778      7776      7779      7780      7781
      7782      7786      7782      7783      7782      7784      7782      7785
      7786      7787      7788      7792      7788      7789      7788      7790
      7788      7791      7792      7793      7794      7798      7794      7795
      7794      7796      7794      7797      7798      7799      7800      7804
      7800      7801      7800      7802      7800      7803      7804      7805
      7806      7810      7806      7807      7806      7808      7806      7809
      7810      7811      7812      7816      7812      7813      7812      7814
      7812      7815      7816      7817      7818      7822      7818      7819
      7818      7820      7818      7821      7822      7823      7824      7828
      7824      7825      7824      7826      7824      7827      7828      7829
      7830      7834      7830      7831      7830      7832      7830      7833
      7834      7835      7836      7840      7836      7837      7836      7838
      7836      7839      7840      7841      7842      7846      7842      7843
      7842      7844      7842      7845      7846      7847      7848      7852
      7848      7849      7848      7850      7848      7851      7852      7853
      7854      7858      7854      7855      7854      7856      7854      7857
      7858      7859      7860      7864      7860      7861      7860      7862
      7860      7863      7864      7865      7866      7870      7866      7867
      7866      7868      7866      7869      7870      7871      7872      7876
      7872      7873      7872      7874      7872      7875      7876      7877
      7878      7882      7878      7879      7878      7880      7878      7881
      7882      7883      7884      7888      7884      7885      7884      7886
      7884      7887      7888      7889      7890      7894      7890      7891
      7890      7892      7890      7893      7894      7895      7896      7900
      7896      7897      7896      7898      7896      7899      7900      7901
      7902      7906      7902      7903      7902      7904      7902      7905
      7906      7907      7908      7912      7908      7909      7908      7910
      7908      7911      7912      7913      7914      7918      7914      7915
      7914      7916      7914      7917      7918      7919      7920      7924
      7920      7921      7920      7922      7920      7923      7924      7925
      7926      7930      7926      7927      7926      7928      7926      7929
      7930      7931      7932      7936      7932      7933      7932      7934
      7932      7935      7936      7937      7938      7942      7938      7939
      7938      7940      7938      7941      7942      7943      7944      7948
      7944      7945      7944      7946      7944      7947      7948      7949
      7950      7954      7950      7951      7950      7952      7950      7953
      7954      7955      7956      7960      7956      7957      7956      7958
      7956      7959      7960      7961      7962      7966      7962      7963
      7962      7964      7962      7965      7966      7967      7968      7972
      7968      7969      7968      7970      7968      7971      7972      7973
      7974      7978      7974      7975      7974      7976      7974      7977
      7978      7979      7980      7984      7980      7981      7980      7982
      7980      7983      7984      7985      7986      7990      7986      7987
      7986      7988      7986      7989      7990      7991      7992      7996
      7992      7993      7992      7994      7992      7995      7996      7997
      7998      8002      7998      7999      7998      8000      7998      8001
      8002      8003      8004      8008      8004      8005      8004      8006
      8004      8007      8008      8009      8010      8014      8010      8011
      8010      8012      8010      8013      8014      8015      8016      8020
      8016      8017      8016      8018      8016      8019      8020      8021
      8022      8026      8022      8023      8022      8024      8022      8025
      8026      8027      8028      8032      8028      8029      8028      8030
      8028      8031      8032      8033      8034      8038      8034      8035
      8034      8036      8034      8037      8038      8039      8040      8044
      8040      8041      8040      8042      8040      8043      8044      8045
      8046      8050      8046      8047      8046      8048      8046      8049
      8050      8051      8052      8056      8052      8053      8052      8054
      8052      8055      8056      8057      8058      8062      8058      8059
      8058      8060      8058      8061      8062      8063      8064      8068
      8064      8065      8064      8066      8064      8067      8068      8069
      8070      8074      8070      8071      8070      8072      8070      8073
      8074      8075      8076      8080      8076      8077      8076      8078
      8076      8079      8080      8081      8082      8086      8082      8083
      8082      8084      8082      8085      8086      8087      8088      8092
      8088      8089      8088      8090      8088      8091      8092      8093
      8094      8098      8094      8095      8094      8096      8094      8097
      8098      8099      8100      8104      8100      8101      8100      8102
      8100      8103      8104      8105      8106      8110      8106      8107
      8106      8108      8106      8109      8110      8111      8112      8116
      8112      8113      8112      8114      8112      8115      8116      8117
      8118      8122      8118      8119      8118      8120      8118      8121
      8122      8123      8124      8128      8124      8125      8124      8126
      8124      8127      8128      8129      8130      8134      8130      8131
      8130      8132      8130      8133      8134      8135      8136      8140
      8136      8137      8136      8138      8136      8139      8140      8141
      8142      8146      8142      8143      8142      8144      8142      8145
      8146      8147      8148      8152      8148      8149      8148      8150
      8148      8151      8152      8153      8154      8158      8154      8155
      8154      8156      8154      8157      8158      8159      8160      8164
      8160      8161      8160      8162      8160      8163      8164      8165
      8166      8170      8166      8167      8166      8168      8166      8169
      8170      8171      8172      8176      8172      8173      8172      8174
      8172      8175      8176      8177      8178      8182      8178      8179
      8178      8180      8178      8181      8182      8183      8184      8188
      8184      8185      8184      8186      8184      8187      8188      8189
      8190      8194      8190      8191      8190      8192      8190      8193
      8194      8195      8196      8200      8196      8197      8196      8198
      8196      8199      8200      8201      8202      8206      8202      8203
      8202      8204      8202      8205      8206      8207      8208      8212
      8208      8209      8208      8210      8208      8211      8212      8213
      8214      8218      8214      8215      8214      8216      8214      8217
      8218      8219      8220      8224      8220      8221      8220      8222
      8220      8223      8224      8225      8226      8230      8226      8227
      8226      8228      8226      8229      8230      8231      8232      8236
      8232      8233      8232      8234      8232      8235      8236      8237
      8238      8242      8238      8239      8238      8240      8238      8241
      8242      8243      8244      8248      8244      8245      8244      8246
      8244      8247      8248      8249      8250      8254      8250      8251
      8250      8252      8250      8253      8254      8255      8256      8260
      8256      8257      8256      8258      8256      8259      8260      8261
      8262      8266      8262      8263      8262      8264      8262      8265
      8266      8267      8268      8272      8268      8269      8268      8270
      8268      8271      8272      8273      8274      8278      8274      8275
      8274      8276      8274      8277      8278      8279      8280      8284
      8280      8281      8280      8282      8280      8283      8284      8285
      8286      8290      8286      8287      8286      8288      8286      8289
      8290      8291      8292      8296      8292      8293      8292      8294
      8292      8295      8296      8297      8298      8302      8298      8299
      8298      8300      8298      8301      8302      8303      8304      8308
      8304      8305      8304      8306      8304      8307      8308      8309
      8310      8314      8310      8311      8310      8312      8310      8313
      8314      8315      8316      8320      8316      8317      8316      8318
      8316      8319      8320      8321      8322      8326      8322      8323
      8322      8324      8322      8325      8326      8327      8328      8332
      8328      8329      8328      8330      8328      8331      8332      8333
      8334      8338      8334      8335      8334      8336      8334      8337
      8338      8339      8340      8344      8340      8341      8340      8342
      8340      8343      8344      8345      8346      8350      8346      8347
      8346      8348      8346      8349      8350      8351      8352      8356
      8352      8353      8352      8354      8352      8355      8356      8357
      8358      8362      8358      8359      8358      8360      8358      8361
      8362      8363      8364      8368      8364      8365      8364      8366
      8364      8367      8368      8369      8370      8374      8370      8371
      8370      8372      8370      8373      8374      8375      8376      8380
      8376      8377      8376      8378      8376      8379      8380      8381
      8382      8386      8382      8383      8382      8384      8382      8385
      8386      8387      8388      8392      8388      8389      8388      8390
      8388      8391      8392      8393      8394      8398      8394      8395
      8394      8396      8394      8397      8398      8399      8400      8404
      8400      8401      8400      8402      8400      8403      8404      8405
      8406      8410      8406      8407      8406      8408      8406      8409
      8410      8411      8412      8416      8412      8413      8412      8414
      8412      8415      8416      8417      8418      8422      8418      8419
      8418      8420      8418      8421      8422      8423      8424      8428
      8424      8425      8424      8426      8424      8427      8428      8429
      8430      8434      8430      8431      8430      8432      8430      8433
      8434      8435      8436      8440      8436      8437      8436      8438
      8436      8439      8440      8441      8442      8446      8442      8443
      8442      8444      8442      8445      8446      8447      8448      8452
      8448      8449      8448      8450      8448      8451      8452      8453
      8454      8458      8454      8455      8454      8456      8454      8457
      8458      8459      8460      8464      8460      8461      8460      8462
      8460      8463      8464      8465      8466      8470      8466      8467
      8466      8468      8466      8469      8470      8471      8472      8476
      8472      8473      8472      8474      8472      8475      8476      8477
      8478      8482      8478      8479      8478      8480      8478      8481
      8482      8483      8484      8488      8484      8485      8484      8486
      8484      8487      8488      8489      8490      8494      8490      8491
      8490      8492      8490      8493      8494      8495      8496      8500
      8496      8497      8496      8498      8496      8499      8500      8501
      8502      8506      8502      8503      8502      8504      8502      8505
      8506      8507      8508      8512      8508      8509      8508      8510
      8508      8511      8512      8513      8514      8518      8514      8515
      8514      8516      8514      8517      8518      8519      8520      8524
      8520      8521      8520      8522      8520      8523      8524      8525
      8526      8530      8526      8527      8526      8528      8526      8529
      8530      8531      8532      8536      8532      8533      8532      8534
      8532      8535      8536      8537      8538      8542      8538      8539
      8538      8540      8538      8541      8542      8543      8544      8548
      8544      8545      8544      8546      8544      8547      8548      8549
      8550      8554      8550      8551      8550      8552      8550      8553
      8554      8555      8556      8560      8556      8557      8556      8558
      8556      8559      8560      8561      8562      8566      8562      8563
      8562      8564      8562      8565      8566      8567      8568      8572
      8568      8569      8568      8570      8568      8571      8572      8573
      8574      8578      8574      8575      8574      8576      8574      8577
      8578      8579      8580      8584      8580      8581      8580      8582
      8580      8583      8584      8585      8586      8590      8586      8587
      8586      8588      8586      8589      8590      8591      8592      8596
      8592      8593      8592      8594      8592      8595      8596      8597
      8598      8602      8598      8599      8598      8600      8598      8601
      8602      8603      8604      8608      8604      8605      8604      8606
      8604      8607      8608      8609      8610      8614      8610      8611
      8610      8612      8610      8613      8614      8615      8616      8620
      8616      8617      8616      8618      8616      8619      8620      8621
      8622      8626      8622      8623      8622      8624      8622      8625
      8626      8627      8628      8632      8628      8629      8628      8630
      8628      8631      8632      8633      8634      8638      8634      8635
      8634      8636      8634      8637      8638      8639      8640      8644
      8640      8641      8640      8642      8640      8643      8644      8645
      8646      8650      8646      8647      8646      8648      8646      8649
      8650      8651      8652      8656      8652      8653      8652      8654
      8652      8655      8656      8657      8658      8662      8658      8659
      8658      8660      8658      8661      8662      8663      8664      8668
      8664      8665      8664      8666      8664      8667      8668      8669
      8670      8674      8670      8671      8670      8672      8670      8673
      8674      8675      8676      8680      8676      8677      8676      8678
      8676      8679      8680      8681      8682      8686      8682      8683
      8682      8684      8682      8685      8686      8687      8688      8692
      8688      8689      8688      8690      8688      8691      8692      8693
      8694      8698      8694      8695      8694      8696      8694      8697
      8698      8699      8700      8704      8700      8701      8700      8702
      8700      8703      8704      8705      8706      8710      8706      8707
      8706      8708      8706      8709      8710      8711      8712      8716
      8712      8713      8712      8714      8712      8715      8716      8717
      8718      8722      8718      8719      8718      8720      8718      8721
      8722      8723      8724      8728      8724      8725      8724      8726
      8724      8727      8728      8729      8730      8734      8730      8731
      8730      8732      8730      8733      8734      8735      8736      8740
      8736      8737      8736      8738      8736      8739      8740      8741
      8742      8746      8742      8743      8742      8744      8742      8745
      8746      8747      8748      8752      8748      8749      8748      8750
      8748      8751      8752      8753      8754      8758      8754      8755
      8754      8756      8754      8757      8758      8759      8760      8764
      8760      8761      8760      8762      8760      8763      8764      8765
      8766      8770      8766      8767      8766      8768      8766      8769
      8770      8771      8772      8776      8772      8773      8772      8774
      8772      8775      8776      8777      8778      8782      8778      8779
      8778      8780      8778      8781      8782      8783      8784      8788
      8784      8785      8784      8786      8784      8787      8788      8789
      8790      8794      8790      8791      8790      8792      8790      8793
      8794      8795      8796      8800      8796      8797      8796      8798
      8796      8799      8800      8801      8802      8806      8802      8803
      8802      8804      8802      8805      8806      8807      8808      8812
      8808      8809      8808      8810      8808      8811      8812      8813
      8814      8818      8814      8815      8814      8816      8814      8817
      8818      8819      8820      8824      8820      8821      8820      8822
      8820      8823      8824      8825      8826      8830      8826      8827
      8826      8828      8826      8829      8830      8831      8832      8836
      8832      8833      8832      8834      8832      8835      8836      8837
      8838      8842      8838      8839      8838      8840      8838      8841
      8842      8843      8844      8848      8844      8845      8844      8846
      8844      8847      8848      8849      8850      8854      8850      8851
      8850      8852      8850      8853      8854      8855      8856      8860
      8856      8857      8856      8858      8856      8859      8860      8861
      8862      8866      8862      8863      8862      8864      8862      8865
      8866      8867      8868      8872      8868      8869      8868      8870
      8868      8871      8872      8873      8874      8878      8874      8875
      8874      8876      8874      8877      8878      8879      8880      8884
      8880      8881      8880      8882      8880      8883      8884      8885
      8886      8890      8886      8887      8886      8888      8886      8889
      8890      8891      8892      8896      8892      8893      8892      8894
      8892      8895      8896      8897      8898      8902      8898      8899
      8898      8900      8898      8901      8902      8903      8904      8908
      8904      8905      8904      8906      8904      8907      8908      8909
      8910      8914      8910      8911      8910      8912      8910      8913
      8914      8915      8916      8920      8916      8917      8916      8918
      8916      8919      8920      8921      8922      8926      8922      8923
      8922      8924      8922      8925      8926      8927      8928      8932
      8928      8929      8928      8930      8928      8931      8932      8933
      8934      8938      8934      8935      8934      8936      8934      8937
      8938      8939      8940      8944      8940      8941      8940      8942
      8940      8943      8944      8945      8946      8950      8946      8947
      8946      8948      8946      8949      8950      8951      8952      8956
      8952      8953      8952      8954      8952      8955      8956      8957
      8958      8962      8958      8959      8958      8960      8958      8961
      8962      8963      8964      8968      8964      8965      8964      8966
      8964      8967      8968      8969      8970      8974      8970      8971
      8970      8972      8970      8973      8974      8975      8976      8980
      8976      8977      8976      8978      8976      8979      8980      8981
      8982      8986      8982      8983      8982      8984      8982      8985
      8986      8987      8988      8992      8988      8989      8988      8990
      8988      8991      8992      8993      8994      8998      8994      8995
      8994      8996      8994      8997      8998      8999      9000      9004
      9000      9001      9000      9002      9000      9003      9004      9005
      9006      9010      9006      9007      9006      9008      9006      9009
      9010      9011      9012      9016      9012      9013      9012      9014
      9012      9015      9016      9017      9018      9022      9018      9019
      9018      9020      9018      9021      9022      9023      9024      9028
      9024      9025      9024      9026      9024      9027      9028      9029
      9030      9034      9030      9031      9030      9032      9030      9033
      9034      9035      9036      9040      9036      9037      9036      9038
      9036      9039      9040      9041      9042      9046      9042      9043
      9042      9044      9042      9045      9046      9047      9048      9052
      9048      9049      9048      9050      9048      9051      9052      9053
      9054      9058      9054      9055      9054      9056      9054      9057
      9058      9059      9060      9064      9060      9061      9060      9062
      9060      9063      9064      9065      9066      9070      9066      9067
      9066      9068      9066      9069      9070      9071      9072      9076
      9072      9073      9072      9074      9072      9075      9076      9077
      9078      9082      9078      9079      9078      9080      9078      9081
      9082      9083      9084      9088      9084      9085      9084      9086
      9084      9087      9088      9089      9090      9094      9090      9091
      9090      9092      9090      9093      9094      9095      9096      9100
      9096      9097      9096      9098      9096      9099      9100      9101
      9102      9106      9102      9103      9102      9104      9102      9105
      9106      9107      9108      9112      9108      9109      9108      9110
      9108      9111      9112      9113      9114      9118      9114      9115
      9114      9116      9114      9117      9118      9119      9120      9124
      9120      9121      9120      9122      9120      9123      9124      9125
      9126      9130      9126      9127      9126      9128      9126      9129
      9130      9131      9132      9136      9132      9133      9132      9134
      9132      9135      9136      9137      9138      9142      9138      9139
      9138      9140      9138      9141      9142      9143      9144      9148
      9144      9145      9144      9146      9144      9147      9148      9149
      9150      9154      9150      9151      9150      9152      9150      9153
      9154      9155      9156      9160      9156      9157      9156      9158
      9156      9159      9160      9161      9162      9166      9162      9163
      9162      9164      9162      9165      9166      9167      9168      9172
      9168      9169      9168      9170      9168      9171      9172      9173
      9174      9178      9174      9175      9174      9176      9174      9177
      9178      9179      9180      9184      9180      9181      9180      9182
      9180      9183      9184      9185      9186      9190      9186      9187
      9186      9188      9186      9189      9190      9191      9192      9196
      9192      9193      9192      9194      9192      9195      9196      9197
      9198      9202      9198      9199      9198      9200      9198      9201
      9202      9203      9204      9208      9204      9205      9204      9206
      9204      9207      9208      9209      9210      9214      9210      9211
      9210      9212      9210      9213      9214      9215      9216      9220
      9216      9217      9216      9218      9216      9219      9220      9221
      9222      9226      9222      9223      9222      9224      9222      9225
      9226      9227      9228      9232      9228      9229      9228      9230
      9228      9231      9232      9233      9234      9238      9234      9235
      9234      9236      9234      9237      9238      9239      9240      9244
      9240      9241      9240      9242      9240      9243      9244      9245
      9246      9250      9246      9247      9246      9248      9246      9249
      9250      9251      9252      9256      9252      9253      9252      9254
      9252      9255      9256      9257      9258      9262      9258      9259
      9258      9260      9258      9261      9262      9263      9264      9268
      9264      9265      9264      9266      9264      9267      9268      9269
      9270      9274      9270      9271      9270      9272      9270      9273
      9274      9275      9276      9280      9276      9277      9276      9278
      9276      9279      9280      9281      9282      9286      9282      9283
      9282      9284      9282      9285      9286      9287      9288      9292
      9288      9289      9288      9290      9288      9291      9292      9293
      9294      9298      9294      9295      9294      9296      9294      9297
      9298      9299      9300      9304      9300      9301      9300      9302
      9300      9303      9304      9305      9306      9310      9306      9307
      9306      9308      9306      9309      9310      9311      9312      9316
      9312      9313      9312      9314      9312      9315      9316      9317
      9318      9322      9318      9319      9318      9320      9318      9321
      9322      9323      9324      9328      9324      9325      9324      9326
      9324      9327      9328      9329      9330      9334      9330      9331
      9330      9332      9330      9333      9334      9335      9336      9340
      9336      9337      9336      9338      9336      9339      9340      9341
      9342      9346      9342      9343      9342      9344      9342      9345
      9346      9347      9348      9352      9348      9349      9348      9350
      9348      9351      9352      9353      9354      9358      9354      9355
      9354      9356      9354      9357      9358      9359      9360      9364
      9360      9361      9360      9362      9360      9363      9364      9365
      9366      9370      9366      9367      9366      9368      9366      9369
      9370      9371      9372      9376      9372      9373      9372      9374
      9372      9375      9376      9377      9378      9382      9378      9379
      9378      9380      9378      9381      9382      9383      9384      9388
      9384      9385      9384      9386      9384      9387      9388      9389
      9390      9394      9390      9391      9390      9392      9390      9393
      9394      9395      9396      9400      9396      9397      9396      9398
      9396      9399      9400      9401      9402      9406      9402      9403
      9402      9404      9402      9405      9406      9407      9408      9412
      9408      9409      9408      9410      9408      9411      9412      9413
      9414      9418      9414      9415      9414      9416      9414      9417
      9418      9419      9420      9424      9420      9421      9420      9422
      9420      9423      9424      9425      9426      9430      9426      9427
      9426      9428      9426      9429      9430      9431      9432      9436
      9432      9433      9432      9434      9432      9435      9436      9437
      9438      9442      9438      9439      9438      9440      9438      9441
      9442      9443      9444      9448      9444      9445      9444      9446
      9444      9447      9448      9449      9450      9454      9450      9451
      9450      9452      9450      9453      9454      9455      9456      9460
      9456      9457      9456      9458      9456      9459      9460      9461
      9462      9466      9462      9463      9462      9464      9462      9465
      9466      9467      9468      9472      9468      9469      9468      9470
      9468      9471      9472      9473      9474      9478      9474      9475
      9474      9476      9474      9477      9478      9479      9480      9484
      9480      9481      9480      9482      9480      9483      9484      9485
      9486      9490      9486      9487      9486      9488      9486      9489
      9490      9491      9492      9496      9492      9493      9492      9494
      9492      9495      9496      9497      9498      9502      9498      9499
      9498      9500      9498      9501      9502      9503      9504      9508
      9504      9505      9504      9506      9504      9507      9508      9509
      9510      9514      9510      9511      9510      9512      9510      9513
      9514      9515      9516      9520      9516      9517      9516      9518
      9516      9519      9520      9521      9522      9526      9522      9523
      9522      9524      9522      9525      9526      9527      9528      9532
      9528      9529      9528      9530      9528      9531      9532      9533
      9534      9538      9534      9535      9534      9536      9534      9537
      9538      9539      9540      9544      9540      9541      9540      9542
      9540      9543      9544      9545      9546      9550      9546      9547
      9546      9548      9546      9549      9550      9551      9552      9556
      9552      9553      9552      9554      9552      9555      9556      9557
      9558      9562      9558      9559      9558      9560      9558      9561
      9562      9563      9564      9568      9564      9565      9564      9566
      9564      9567      9568      9569      9570      9574      9570      9571
      9570      9572      9570      9573      9574      9575      9576      9580
      9576      9577      9576      9578      9576      9579      9580      9581
      9582      9586      9582      9583      9582      9584      9582      9585
      9586      9587      9588      9592      9588      9589      9588      9590
      9588      9591      9592      9593      9594      9598      9594      9595
      9594      9596      9594      9597      9598      9599      9600      9604
      9600      9601      9600      9602      9600      9603      9604      9605
      9606      9610      9606      9607      9606      9608      9606      9609
      9610      9611      9612      9616      9612      9613      9612      9614
      9612      9615      9616      9617      9618      9622      9618      9619
      9618      9620      9618      9621      9622      9623      9624      9628
      9624      9625      9624      9626      9624      9627      9628      9629
      9630      9634      9630      9631      9630      9632      9630      9633
      9634      9635      9636      9640      9636      9637      9636      9638
      9636      9639      9640      9641      9642      9646      9642      9643
      9642      9644      9642      9645      9646      9647      9648      9652
      9648      9649      9648      9650      9648      9651      9652      9653
      9654      9658      9654      9655      9654      9656      9654      9657
      9658      9659      9660      9664      9660      9661      9660      9662
      9660      9663      9664      9665      9666      9670      9666      9667
      9666      9668      9666      9669      9670      9671      9672      9676
      9672      9673      9672      9674      9672      9675      9676      9677
      9678      9682      9678      9679      9678      9680      9678      9681
      9682      9683      9684      9688      9684      9685      9684      9686
      9684      9687      9688      9689      9690      9694      9690      9691
      9690      9692      9690      9693      9694      9695      9696      9700
      9696      9697      9696      9698      9696      9699      9700      9701
      9702      9706      9702      9703      9702      9704      9702      9705
      9706      9707      9708      9712      9708      9709      9708      9710
      9708      9711      9712      9713      9714      9718      9714      9715
      9714      9716      9714      9717      9718      9719      9720      9724
      9720      9721      9720      9722      9720      9723      9724      9725
      9726      9730      9726      9727      9726      9728      9726      9729
      9730      9731      9732      9736      9732      9733      9732      9734
      9732      9735      9736      9737      9738      9742      9738      9739
      9738      9740      9738      9741      9742      9743      9744      9748
      9744      9745      9744      9746      9744      9747      9748      9749
      9750      9754      9750      9751      9750      9752      9750      9753
      9754      9755      9756      9760      9756      9757      9756      9758
      9756      9759      9760      9761      9762      9766      9762      9763
      9762      9764      9762      9765      9766      9767      9768      9772
      9768      9769      9768      9770      9768      9771      9772      9773
      9774      9778      9774      9775      9774      9776      9774      9777
      9778      9779      9780      9784      9780      9781      9780      9782
      9780      9783      9784      9785      9786      9790      9786      9787
      9786      9788      9786      9789      9790      9791      9792      9796
      9792      9793      9792      9794      9792      9795      9796      9797
      9798      9802      9798      9799      9798      9800      9798      9801
      9802      9803      9804      9808      9804      9805      9804      9806
      9804      9807      9808      9809      9810      9814      9810      9811
      9810      9812      9810      9813      9814      9815      9816      9820
      9816      9817      9816      9818      9816      9819      9820      9821
      9822      9826      9822      9823      9822      9824      9822      9825
      9826      9827      9828      9832      9828      9829      9828      9830
      9828      9831      9832      9833      9834      9838      9834      9835
      9834      9836      9834      9837      9838      9839      9840      9844
      9840      9841      9840      9842      9840      9843      9844      9845
      9846      9850      9846      9847      9846      9848      9846      9849
      9850      9851      9852      9856      9852      9853      9852      9854
      9852      9855      9856      9857      9858      9862      9858      9859
      9858      9860      9858      9861      9862      9863      9864      9868
      9864      9865      9864      9866      9864      9867      9868      9869
      9870      9874      9870      9871      9870      9872      9870      9873
      9874      9875      9876      9880      9876      9877      9876      9878
      9876      9879      9880      9881      9882      9886      9882      9883
      9882      9884      9882      9885      9886      9887      9888      9892
      9888      9889      9888      9890      9888      9891      9892      9893
      9894      9898      9894      9895      9894      9896      9894      9897
      9898      9899      9900      9904      9900      9901      9900      9902
      9900      9903      9904      9905      9906      9910      9906      9907
      9906      9908      9906      9909      9910      9911      9912      9916
      9912      9913      9912      9914      9912      9915      9916      9917
      9918      9922      9918      9919      9918      9920      9918      9921
      9922      9923      9924      9928      9924      9925      9924      9926
      9924      9927      9928      9929      9930      9934      9930      9931
      9930      9932      9930      9933      9934      9935      9936      9940
      9936      9937      9936      9938      9936      9939      9940      9941
      9942      9946      9942      9943      9942      9944      9942      9945
      9946      9947      9948      9952      9948      9949      9948      9950
      9948      9951      9952      9953      9954      9958      9954      9955
      9954      9956      9954      9957      9958      9959      9960      9964
      9960      9961      9960      9962      9960      9963      9964      9965
      9966      9970      9966      9967      9966      9968      9966      9969
      9970      9971      9972      9976      9972      9973      9972      9974
      9972      9975      9976      9977      9978      9982      9978      9979
      9978      9980      9978      9981      9982      9983      9984      9988
      9984      9985      9984      9986      9984      9987      9988      9989
      9990      9994      9990      9991      9990      9992      9990      9993
      9994      9995      9996     10000      9996      9997      9996      9998
      9996      9999     10000     10001     10002     10006     10002     10003
     10002     10004     10002     10005     10006     10007     10008     10012
     10008     10009     10008     10010     10008     10011     10012     10013
     10014     10018     10014     10015     10014     10016     10014     10017
     10018     10019     10020     10024     10020     10021     10020     10022
     10020     10023     10024     10025     10026     10030     10026     10027
     10026     10028     10026     10029     10030     10031     10032     10036
     10032     10033     10032     10034     10032     10035     10036     10037
     10038     10042     10038     10039     10038     10040     10038     10041
     10042     10043     10044     10048     10044     10045     10044     10046
     10044     10047     10048     10049     10050     10054     10050     10051
     10050     10052     10050     10053     10054     10055     10056     10060
     10056     10057     10056     10058     10056     10059     10060     10061
     10062     10066     10062     10063     10062     10064     10062     10065
     10066     10067     10068     10072     10068     10069     10068     10070
     10068     10071     10072     10073     10074     10078     10074     10075
     10074     10076     10074     10077     10078     10079     10080     10084
     10080     10081     10080     10082     10080     10083     10084     10085
     10086     10090     10086     10087     10086     10088     10086     10089
     10090     10091     10092     10096     10092     10093     10092     10094
     10092     10095     10096     10097     10098     10102     10098     10099
     10098     10100     10098     10101     10102     10103     10104     10108
     10104     10105     10104     10106     10104     10107     10108     10109
     10110     10114     10110     10111     10110     10112     10110     10113
     10114     10115     10116     10120     10116     10117     10116     10118
     10116     10119     10120     10121     10122     10126     10122     10123
     10122     10124     10122     10125     10126     10127     10128     10132
     10128     10129     10128     10130     10128     10131     10132     10133
     10134     10138     10134     10135     10134     10136     10134     10137
     10138     10139     10140     10144     10140     10141     10140     10142
     10140     10143     10144     10145     10146     10150     10146     10147
     10146     10148     10146     10149     10150     10151     10152     10156
     10152     10153     10152     10154     10152     10155     10156     10157
     10158     10162     10158     10159     10158     10160     10158     10161
     10162     10163     10164     10168     10164     10165     10164     10166
     10164     10167     10168     10169     10170     10174     10170     10171
     10170     10172     10170     10173     10174     10175     10176     10180
     10176     10177     10176     10178     10176     10179     10180     10181
     10182     10186     10182     10183     10182     10184     10182     10185
     10186     10187     10188     10192     10188     10189     10188     10190
     10188     10191     10192     10193     10194     10198     10194     10195
     10194     10196     10194     10197     10198     10199     10200     10204
     10200     10201     10200     10202     10200     10203     10204     10205
     10206     10210     10206     10207     10206     10208     10206     10209
     10210     10211     10212     10216     10212     10213     10212     10214
     10212     10215     10216     10217     10218     10222     10218     10219
     10218     10220     10218     10221     10222     10223     10224     10228
     10224     10225     10224     10226     10224     10227     10228     10229
     10230     10234     10230     10231     10230     10232     10230     10233
     10234     10235     10236     10240     10236     10237     10236     10238
     10236     10239     10240     10241     10242     10246     10242     10243
     10242     10244     10242     10245     10246     10247     10248     10252
     10248     10249     10248     10250     10248     10251     10252     10253
     10254     10258     10254     10255     10254     10256     10254     10257
     10258     10259     10260     10264     10260     10261     10260     10262
     10260     10263     10264     10265     10266     10270     10266     10267
     10266     10268     10266     10269     10270     10271     10272     10276
     10272     10273     10272     10274     10272     10275     10276     10277
     10278     10282     10278     10279     10278     10280     10278     10281
     10282     10283     10284     10288     10284     10285     10284     10286
     10284     10287     10288     10289     10290     10294     10290     10291
     10290     10292     10290     10293     10294     10295     10296     10300
     10296     10297     10296     10298     10296     10299     10300     10301
     10302     10306     10302     10303     10302     10304     10302     10305
     10306     10307     10308     10312     10308     10309     10308     10310
     10308     10311     10312     10313     10314     10318     10314     10315
     10314     10316     10314     10317     10318     10319     10320     10324
     10320     10321     10320     10322     10320     10323     10324     10325
     10326     10330     10326     10327     10326     10328     10326     10329
     10330     10331     10332     10336     10332     10333     10332     10334
     10332     10335     10336     10337     10338     10342     10338     10339
     10338     10340     10338     10341     10342     10343     10344     10348
     10344     10345     10344     10346     10344     10347     10348     10349
     10350     10354     10350     10351     10350     10352     10350     10353
     10354     10355     10356     10360     10356     10357     10356     10358
     10356     10359     10360     10361     10362     10366     10362     10363
     10362     10364     10362     10365     10366     10367     10368     10372
     10368     10369     10368     10370     10368     10371     10372     10373
     10374     10378     10374     10375     10374     10376     10374     10377
     10378     10379     10380     10384     10380     10381     10380     10382
     10380     10383     10384     10385     10386     10390     10386     10387
     10386     10388     10386     10389     10390     10391     10392     10396
     10392     10393     10392     10394     10392     10395     10396     10397
     10398     10402     10398     10399     10398     10400     10398     10401
     10402     10403     10404     10408     10404     10405     10404     10406
     10404     10407     10408     10409     10410     10414     10410     10411
     10410     10412     10410     10413     10414     10415     10416     10420
     10416     10417     10416     10418     10416     10419     10420     10421
     10422     10426     10422     10423     10422     10424     10422     10425
     10426     10427     10428     10432     10428     10429     10428     10430
     10428     10431     10432     10433     10434     10438     10434     10435
     10434     10436     10434     10437     10438     10439     10440     10444
     10440     10441     10440     10442     10440     10443     10444     10445
     10446     10450     10446     10447     10446     10448     10446     10449
     10450     10451     10452     10456     10452     10453     10452     10454
     10452     10455     10456     10457     10458     10462     10458     10459
     10458     10460     10458     10461     10462     10463     10464     10468
     10464     10465     10464     10466     10464     10467     10468     10469
     10470     10474     10470     10471     10470     10472     10470     10473
     10474     10475     10476     10480     10476     10477     10476     10478
     10476     10479     10480     10481     10482     10486     10482     10483
     10482     10484     10482     10485     10486     10487     10488     10492
     10488     10489     10488     10490     10488     10491     10492     10493
     10494     10498     10494     10495     10494     10496     10494     10497
     10498     10499     10500     10504     10500     10501     10500     10502
     10500     10503     10504     10505     10506     10510     10506     10507
     10506     10508     10506     10509     10510     10511     10512     10516
     10512     10513     10512     10514     10512     10515     10516     10517
     10518     10522     10518     10519     10518     10520     10518     10521
     10522     10523     10524     10528     10524     10525     10524     10526
     10524     10527     10528     10529     10530     10534     10530     10531
     10530     10532     10530     10533     10534     10535     10536     10540
     10536     10537     10536     10538     10536     10539     10540     10541
     10542     10546     10542     10543     10542     10544     10542     10545
     10546     10547     10548     10552     10548     10549     10548     10550
     10548     10551     10552     10553     10554     10558     10554     10555
     10554     10556     10554     10557     10558     10559     10560     10564
     10560     10561     10560     10562     10560     10563     10564     10565
     10566     10570     10566     10567     10566     10568     10566     10569
     10570     10571     10572     10576     10572     10573     10572     10574
     10572     10575     10576     10577     10578     10582     10578     10579
     10578     10580     10578     10581     10582     10583     10584     10588
     10584     10585     10584     10586     10584     10587     10588     10589
     10590     10594     10590     10591     10590     10592     10590     10593
     10594     10595     10596     10600     10596     10597     10596     10598
     10596     10599     10600     10601     10602     10606     10602     10603
     10602     10604     10602     10605     10606     10607     10608     10612
     10608     10609     10608     10610     10608     10611     10612     10613
     10614     10618     10614     10615     10614     10616     10614     10617
     10618     10619     10620     10624     10620     10621     10620     10622
     10620     10623     10624     10625     10626     10630     10626     10627
     10626     10628     10626     10629     10630     10631     10632     10636
     10632     10633     10632     10634     10632     10635     10636     10637
     10638     10642     10638     10639     10638     10640     10638     10641
     10642     10643     10644     10648     10644     10645     10644     10646
     10644     10647     10648     10649     10650     10654     10650     10651
     10650     10652     10650     10653     10654     10655     10656     10660
     10656     10657     10656     10658     10656     10659     10660     10661
     10662     10666     10662     10663     10662     10664     10662     10665
     10666     10667     10668     10672     10668     10669     10668     10670
     10668     10671     10672     10673     10674     10678     10674     10675
     10674     10676     10674     10677     10678     10679     10680     10684
     10680     10681     10680     10682     10680     10683     10684     10685
     10686     10690     10686     10687     10686     10688     10686     10689
     10690     10691     10692     10696     10692     10693     10692     10694
     10692     10695     10696     10697     10698     10702     10698     10699
     10698     10700     10698     10701     10702     10703     10704     10708
     10704     10705     10704     10706     10704     10707     10708     10709
     10710     10714     10710     10711     10710     10712     10710     10713
     10714     10715     10716     10720     10716     10717     10716     10718
     10716     10719     10720     10721     10722     10726     10722     10723
     10722     10724     10722     10725     10726     10727     10728     10732
     10728     10729     10728     10730     10728     10731     10732     10733
     10734     10738     10734     10735     10734     10736     10734     10737
     10738     10739     10740     10744     10740     10741     10740     10742
     10740     10743     10744     10745     10746     10750     10746     10747
     10746     10748     10746     10749     10750     10751     10752     10756
     10752     10753     10752     10754     10752     10755     10756     10757
     10758     10762     10758     10759     10758     10760     10758     10761
     10762     10763     10764     10768     10764     10765     10764     10766
     10764     10767     10768     10769     10770     10774     10770     10771
     10770     10772     10770     10773     10774     10775     10776     10780
     10776     10777     10776     10778     10776     10779     10780     10781
     10782     10786     10782     10783     10782     10784     10782     10785
     10786     10787     10788     10792     10788     10789     10788     10790
     10788     10791     10792     10793     10794     10798     10794     10795
     10794     10796     10794     10797     10798     10799     10800     10804
     10800     10801     10800     10802     10800     10803     10804     10805
     10806     10810     10806     10807     10806     10808     10806     10809
     10810     10811     10812     10816     10812     10813     10812     10814
     10812     10815     10816     10817     10818     10822     10818     10819
     10818     10820     10818     10821     10822     10823     10824     10828
     10824     10825     10824     10826     10824     10827     10828     10829
     10830     10834     10830     10831     10830     10832     10830     10833
     10834     10835     10836     10840     10836     10837     10836     10838
     10836     10839     10840     10841     10842     10846     10842     10843
     10842     10844     10842     10845     10846     10847     10848     10852
     10848     10849     10848     10850     10848     10851     10852     10853
     10854     10858     10854     10855     10854     10856     10854     10857
     10858     10859     10860     10864     10860     10861     10860     10862
     10860     10863     10864     10865     10866     10870     10866     10867
     10866     10868     10866     10869     10870     10871     10872     10876
     10872     10873     10872     10874     10872     10875     10876     10877
     10878     10882     10878     10879     10878     10880     10878     10881
     10882     10883     10884     10888     10884     10885     10884     10886
     10884     10887     10888     10889     10890     10894     10890     10891
     10890     10892     10890     10893     10894     10895     10896     10900
     10896     10897     10896     10898     10896     10899     10900     10901
     10902     10906     10902     10903     10902     10904     10902     10905
     10906     10907     10908     10912     10908     10909     10908     10910
     10908     10911     10912     10913     10914     10918     10914     10915
     10914     10916     10914     10917     10918     10919     10920     10924
     10920     10921     10920     10922     10920     10923     10924     10925
     10926     10930     10926     10927     10926     10928     10926     10929
     10930     10931     10932     10936     10932     10933     10932     10934
     10932     10935     10936     10937     10938     10942     10938     10939
     10938     10940     10938     10941     10942     10943     10944     10948
     10944     10945     10944     10946     10944     10947     10948     10949
     10950     10954     10950     10951     10950     10952     10950     10953
     10954     10955     10956     10960     10956     10957     10956     10958
     10956     10959     10960     10961     10962     10966     10962     10963
     10962     10964     10962     10965     10966     10967     10968     10972
     10968     10969     10968     10970     10968     10971     10972     10973
     10974     10978     10974     10975     10974     10976     10974     10977
     10978     10979     10980     10984     10980     10981     10980     10982
     10980     10983     10984     10985     10986     10990     10986     10987
     10986     10988     10986     10989     10990     10991     10992     10996
     10992     10993     10992     10994     10992     10995     10996     10997
     10998     11002     10998     10999     10998     11000     10998     11001
     11002     11003     11004     11008     11004     11005     11004     11006
     11004     11007     11008     11009     11010     11014     11010     11011
     11010     11012     11010     11013     11014     11015     11016     11020
     11016     11017     11016     11018     11016     11019     11020     11021
     11022     11026     11022     11023     11022     11024     11022     11025
     11026     11027     11028     11032     11028     11029     11028     11030
     11028     11031     11032     11033     11034     11038     11034     11035
     11034     11036     11034     11037     11038     11039     11040     11044
     11040     11041     11040     11042     11040     11043     11044     11045
     11046     11050     11046     11047     11046     11048     11046     11049
     11050     11051     11052     11056     11052     11053     11052     11054
     11052     11055     11056     11057     11058     11062     11058     11059
     11058     11060     11058     11061     11062     11063     11064     11068
     11064     11065     11064     11066     11064     11067     11068     11069
     11070     11074     11070     11071     11070     11072     11070     11073
     11074     11075     11076     11080     11076     11077     11076     11078
     11076     11079     11080     11081     11082     11086     11082     11083
     11082     11084     11082     11085     11086     11087     11088     11092
     11088     11089     11088     11090     11088     11091     11092     11093
     11094     11098     11094     11095     11094     11096     11094     11097
     11098     11099     11100     11104     11100     11101     11100     11102
     11100     11103     11104     11105     11106     11110     11106     11107
     11106     11108     11106     11109     11110     11111     11112     11116
     11112     11113     11112     11114     11112     11115     11116     11117
     11118     11122     11118     11119     11118     11120     11118     11121
     11122     11123     11124     11128     11124     11125     11124     11126
     11124     11127     11128     11129     11130     11134     11130     11131
     11130     11132     11130     11133     11134     11135     11136     11140
     11136     11137     11136     11138     11136     11139     11140     11141
     11142     11146     11142     11143     11142     11144     11142     11145
     11146     11147     11148     11152     11148     11149     11148     11150
     11148     11151     11152     11153     11154     11158     11154     11155
     11154     11156     11154     11157     11158     11159     11160     11164
     11160     11161     11160     11162     11160     11163     11164     11165
     11166     11170     11166     11167     11166     11168     11166     11169
     11170     11171     11172     11176     11172     11173     11172     11174
     11172     11175     11176     11177     11178     11182     11178     11179
     11178     11180     11178     11181     11182     11183     11184     11188
     11184     11185     11184     11186     11184     11187     11188     11189
     11190     11194     11190     11191     11190     11192     11190     11193
     11194     11195     11196     11200     11196     11197     11196     11198
     11196     11199     11200     11201     11202     11206     11202     11203
     11202     11204     11202     11205     11206     11207     11208     11212
     11208     11209     11208     11210     11208     11211     11212     11213
     11214     11218     11214     11215     11214     11216     11214     11217
     11218     11219     11220     11224     11220     11221     11220     11222
     11220     11223     11224     11225     11226     11230     11226     11227
     11226     11228     11226     11229     11230     11231     11232     11236
     11232     11233     11232     11234     11232     11235     11236     11237
     11238     11242     11238     11239     11238     11240     11238     11241
     11242     11243     11244     11248     11244     11245     11244     11246
     11244     11247     11248     11249     11250     11254     11250     11251
     11250     11252     11250     11253     11254     11255     11256     11260
     11256     11257     11256     11258     11256     11259     11260     11261
     11262     11266     11262     11263     11262     11264     11262     11265
     11266     11267     11268     11272     11268     11269     11268     11270
     11268     11271     11272     11273     11274     11278     11274     11275
     11274     11276     11274     11277     11278     11279     11280     11284
     11280     11281     11280     11282     11280     11283     11284     11285
     11286     11290     11286     11287     11286     11288     11286     11289
     11290     11291     11292     11296     11292     11293     11292     11294
     11292     11295     11296     11297     11298     11302     11298     11299
     11298     11300     11298     11301     11302     11303     11304     11308
     11304     11305     11304     11306     11304     11307     11308     11309
     11310     11314     11310     11311     11310     11312     11310     11313
     11314     11315     11316     11320     11316     11317     11316     11318
     11316     11319     11320     11321     11322     11326     11322     11323
     11322     11324     11322     11325     11326     11327     11328     11332
     11328     11329     11328     11330     11328     11331     11332     11333
     11334     11338     11334     11335     11334     11336     11334     11337
     11338     11339     11340     11344     11340     11341     11340     11342
     11340     11343     11344     11345     11346     11350     11346     11347
     11346     11348     11346     11349     11350     11351     11352     11356
     11352     11353     11352     11354     11352     11355     11356     11357
     11358     11362     11358     11359     11358     11360     11358     11361
     11362     11363     11364     11368     11364     11365     11364     11366
     11364     11367     11368     11369     11370     11374     11370     11371
     11370     11372     11370     11373     11374     11375     11376     11380
     11376     11377     11376     11378     11376     11379     11380     11381
     11382     11386     11382     11383     11382     11384     11382     11385
     11386     11387     11388     11392     11388     11389     11388     11390
     11388     11391     11392     11393     11394     11398     11394     11395
     11394     11396     11394     11397     11398     11399     11400     11404
     11400     11401     11400     11402     11400     11403     11404     11405
     11406     11410     11406     11407     11406     11408     11406     11409
     11410     11411     11412     11416     11412     11413     11412     11414
     11412     11415     11416     11417     11418     11422     11418     11419
     11418     11420     11418     11421     11422     11423     11424     11428
     11424     11425     11424     11426     11424     11427     11428     11429
     11430     11434     11430     11431     11430     11432     11430     11433
     11434     11435     11436     11440     11436     11437     11436     11438
     11436     11439     11440     11441     11442     11446     11442     11443
     11442     11444     11442     11445     11446     11447     11448     11452
     11448     11449     11448     11450     11448     11451     11452     11453
     11454     11458     11454     11455     11454     11456     11454     11457
     11458     11459     11460     11464     11460     11461     11460     11462
     11460     11463     11464     11465     11466     11470     11466     11467
     11466     11468     11466     11469     11470     11471     11472     11476
     11472     11473     11472     11474     11472     11475     11476     11477
     11478     11482     11478     11479     11478     11480     11478     11481
     11482     11483     11484     11488     11484     11485     11484     11486
     11484     11487     11488     11489     11490     11494     11490     11491
     11490     11492     11490     11493     11494     11495     11496     11500
     11496     11497     11496     11498     11496     11499     11500     11501
     11502     11506     11502     11503     11502     11504     11502     11505
     11506     11507     11508     11512     11508     11509     11508     11510
     11508     11511     11512     11513     11514     11518     11514     11515
     11514     11516     11514     11517     11518     11519     11520     11524
     11520     11521     11520     11522     11520     11523     11524     11525
     11526     11530     11526     11527     11526     11528     11526     11529
     11530     11531     11532     11536     11532     11533     11532     11534
     11532     11535     11536     11537     11538     11542     11538     11539
     11538     11540     11538     11541     11542     11543     11544     11548
     11544     11545     11544     11546     11544     11547     11548     11549
     11550     11554     11550     11551     11550     11552     11550     11553
     11554     11555     11556     11560     11556     11557     11556     11558
     11556     11559     11560     11561     11562     11566     11562     11563
     11562     11564     11562     11565     11566     11567     11568     11572
     11568     11569     11568     11570     11568     11571     11572     11573
     11574     11578     11574     11575     11574     11576     11574     11577
     11578     11579     11580     11584     11580     11581     11580     11582
     11580     11583     11584     11585     11586     11590     11586     11587
     11586     11588     11586     11589     11590     11591     11592     11596
     11592     11593     11592     11594     11592     11595     11596     11597
     11598     11602     11598     11599     11598     11600     11598     11601
     11602     11603     11604     11608     11604     11605     11604     11606
     11604     11607     11608     11609     11610     11614     11610     11611
     11610     11612     11610     11613     11614     11615     11616     11620
     11616     11617     11616     11618     11616     11619     11620     11621
     11622     11626     11622     11623     11622     11624     11622     11625
     11626     11627     11628     11632     11628     11629     11628     11630
     11628     11631     11632     11633     11634     11638     11634     11635
     11634     11636     11634     11637     11638     11639     11640     11644
     11640     11641     11640     11642     11640     11643     11644     11645
     11646     11650     11646     11647     11646     11648     11646     11649
     11650     11651     11652     11656     11652     11653     11652     11654
     11652     11655     11656     11657     11658     11662     11658     11659
     11658     11660     11658     11661     11662     11663     11664     11668
     11664     11665     11664     11666     11664     11667     11668     11669
     11670     11674     11670     11671     11670     11672     11670     11673
     11674     11675     11676     11680     11676     11677     11676     11678
     11676     11679     11680     11681     11682     11686     11682     11683
     11682     11684     11682     11685     11686     11687     11688     11692
     11688     11689     11688     11690     11688     11691     11692     11693
     11694     11698     11694     11695     11694     11696     11694     11697
     11698     11699     11700     11704     11700     11701     11700     11702
     11700     11703     11704     11705     11706     11710     11706     11707
     11706     11708     11706     11709     11710     11711     11712     11716
     11712     11713     11712     11714     11712     11715     11716     11717
     11718     11722     11718     11719     11718     11720     11718     11721
     11722     11723     11724     11728     11724     11725     11724     11726
     11724     11727     11728     11729     11730     11734     11730     11731
     11730     11732     11730     11733     11734     11735     11736     11740
     11736     11737     11736     11738     11736     11739     11740     11741
     11742     11746     11742     11743     11742     11744     11742     11745
     11746     11747     11748     11752     11748     11749     11748     11750
     11748     11751     11752     11753     11754     11758     11754     11755
     11754     11756     11754     11757     11758     11759     11760     11764
     11760     11761     11760     11762     11760     11763     11764     11765
     11766     11770     11766     11767     11766     11768     11766     11769
     11770     11771     11772     11776     11772     11773     11772     11774
     11772     11775     11776     11777     11778     11782     11778     11779
     11778     11780     11778     11781     11782     11783     11784     11788
     11784     11785     11784     11786     11784     11787     11788     11789
     11790     11794     11790     11791     11790     11792     11790     11793
     11794     11795     11796     11800     11796     11797     11796     11798
     11796     11799     11800     11801     11802     11806     11802     11803
     11802     11804     11802     11805     11806     11807     11808     11812
     11808     11809     11808     11810     11808     11811     11812     11813
     11814     11818     11814     11815     11814     11816     11814     11817
     11818     11819     11820     11824     11820     11821     11820     11822
     11820     11823     11824     11825     11826     11830     11826     11827
     11826     11828     11826     11829     11830     11831     11832     11836
     11832     11833     11832     11834     11832     11835     11836     11837
     11838     11842     11838     11839     11838     11840     11838     11841
     11842     11843     11844     11848     11844     11845     11844     11846
     11844     11847     11848     11849     11850     11854     11850     11851
     11850     11852     11850     11853     11854     11855     11856     11860
     11856     11857     11856     11858     11856     11859     11860     11861
     11862     11866     11862     11863     11862     11864     11862     11865
     11866     11867     11868     11872     11868     11869     11868     11870
     11868     11871     11872     11873     11874     11878     11874     11875
     11874     11876     11874     11877     11878     11879     11880     11884
     11880     11881     11880     11882     11880     11883     11884     11885
     11886     11890     11886     11887     11886     11888     11886     11889
     11890     11891     11892     11896     11892     11893     11892     11894
     11892     11895     11896     11897     11898     11902     11898     11899
     11898     11900     11898     11901     11902     11903     11904     11908
     11904     11905     11904     11906     11904     11907     11908     11909
     11910     11914     11910     11911     11910     11912     11910     11913
     11914     11915     11916     11920     11916     11917     11916     11918
     11916     11919     11920     11921     11922     11926     11922     11923
     11922     11924     11922     11925     11926     11927     11928     11932
     11928     11929     11928     11930     11928     11931     11932     11933
     11934     11938     11934     11935     11934     11936     11934     11937
     11938     11939     11940     11944     11940     11941     11940     11942
     11940     11943     11944     11945     11946     11950     11946     11947
     11946     11948     11946     11949     11950     11951     11952     11956
     11952     11953     11952     11954     11952     11955     11956     11957
     11958     11962     11958     11959     11958     11960     11958     11961
     11962     11963     11964     11968     11964     11965     11964     11966
     11964     11967     11968     11969     11970     11974     11970     11971
     11970     11972     11970     11973     11974     11975     11976     11980
     11976     11977     11976     11978     11976     11979     11980     11981
     11982     11986     11982     11983     11982     11984     11982     11985
     11986     11987     11988     11992     11988     11989     11988     11990
     11988     11991     11992     11993     11994     11998     11994     11995
     11994     11996     11994     11997     11998     11999     12000     12004
     12000     12001     12000     12002     12000     12003     12004     12005
     12006     12010     12006     12007     12006     12008     12006     12009
     12010     12011     12012     12016     12012     12013     12012     12014
     12012     12015     12016     12017     12018     12022     12018     12019
     12018     12020     12018     12021     12022     12023     12024     12028
     12024     12025     12024     12026     12024     12027     12028     12029
     12030     12034     12030     12031     12030     12032     12030     12033
     12034     12035     12036     12040     12036     12037     12036     12038
     12036     12039     12040     12041     12042     12046     12042     12043
     12042     12044     12042     12045     12046     12047     12048     12052
     12048     12049     12048     12050     12048     12051     12052     12053
     12054     12058     12054     12055     12054     12056     12054     12057
     12058     12059     12060     12064     12060     12061     12060     12062
     12060     12063     12064     12065     12066     12070     12066     12067
     12066     12068     12066     12069     12070     12071     12072     12076
     12072     12073     12072     12074     12072     12075     12076     12077
     12078     12082     12078     12079     12078     12080     12078     12081
     12082     12083     12084     12088     12084     12085     12084     12086
     12084     12087     12088     12089     12090     12094     12090     12091
     12090     12092     12090     12093     12094     12095     12096     12100
     12096     12097     12096     12098     12096     12099     12100     12101
     12102     12106     12102     12103     12102     12104     12102     12105
     12106     12107     12108     12112     12108     12109     12108     12110
     12108     12111     12112     12113     12114     12118     12114     12115
     12114     12116     12114     12117     12118     12119     12120     12124
     12120     12121     12120     12122     12120     12123     12124     12125
     12126     12130     12126     12127     12126     12128     12126     12129
     12130     12131     12132     12136     12132     12133     12132     12134
     12132     12135     12136     12137     12138     12142     12138     12139
     12138     12140     12138     12141     12142     12143     12144     12148
     12144     12145     12144     12146     12144     12147     12148     12149
     12150     12154     12150     12151     12150     12152     12150     12153
     12154     12155     12156     12160     12156     12157     12156     12158
     12156     12159     12160     12161     12162     12166     12162     12163
     12162     12164     12162     12165     12166     12167     12168     12172
     12168     12169     12168     12170     12168     12171     12172     12173
     12174     12178     12174     12175     12174     12176     12174     12177
     12178     12179     12180     12184     12180     12181     12180     12182
     12180     12183     12184     12185     12186     12190     12186     12187
     12186     12188     12186     12189     12190     12191     12192     12196
     12192     12193     12192     12194     12192     12195     12196     12197
     12198     12202     12198     12199     12198     12200     12198     12201
     12202     12203     12204     12208     12204     12205     12204     12206
     12204     12207     12208     12209     12210     12214     12210     12211
     12210     12212     12210     12213     12214     12215     12216     12220
     12216     12217     12216     12218     12216     12219     12220     12221
     12222     12226     12222     12223     12222     12224     12222     12225
     12226     12227     12228     12232     12228     12229     12228     12230
     12228     12231     12232     12233     12234     12238     12234     12235
     12234     12236     12234     12237     12238     12239     12240     12244
     12240     12241     12240     12242     12240     12243     12244     12245
     12246     12250     12246     12247     12246     12248     12246     12249
     12250     12251     12252     12256     12252     12253     12252     12254
     12252     12255     12256     12257     12258     12262     12258     12259
     12258     12260     12258     12261     12262     12263     12264     12268
     12264     12265     12264     12266     12264     12267     12268     12269
     12270     12274     12270     12271     12270     12272     12270     12273
     12274     12275     12276     12280     12276     12277     12276     12278
     12276     12279     12280     12281     12282     12286     12282     12283
     12282     12284     12282     12285     12286     12287     12288     12292
     12288     12289     12288     12290     12288     12291     12292     12293
     12294     12298     12294     12295     12294     12296     12294     12297
     12298     12299     12300     12304     12300     12301     12300     12302
     12300     12303     12304     12305     12306     12310     12306     12307
     12306     12308     12306     12309     12310     12311     12312     12316
     12312     12313     12312     12314     12312     12315     12316     12317
     12318     12322     12318     12319     12318     12320     12318     12321
     12322     12323     12324     12328     12324     12325     12324     12326
     12324     12327     12328     12329     12330     12334     12330     12331
     12330     12332     12330     12333     12334     12335     12336     12340
     12336     12337     12336     12338     12336     12339     12340     12341
     12342     12346     12342     12343     12342     12344     12342     12345
     12346     12347     12348     12352     12348     12349     12348     12350
     12348     12351     12352     12353     12354     12358     12354     12355
     12354     12356     12354     12357     12358     12359     12360     12364
     12360     12361     12360     12362     12360     12363     12364     12365
     12366     12370     12366     12367     12366     12368     12366     12369
     12370     12371     12372     12376     12372     12373     12372     12374
     12372     12375     12376     12377     12378     12382     12378     12379
     12378     12380     12378     12381     12382     12383     12384     12388
     12384     12385     12384     12386     12384     12387     12388     12389
     12390     12394     12390     12391     12390     12392     12390     12393
     12394     12395     12396     12400     12396     12397     12396     12398
     12396     12399     12400     12401     12402     12406     12402     12403
     12402     12404     12402     12405     12406     12407     12408     12412
     12408     12409     12408     12410     12408     12411     12412     12413
     12414     12418     12414     12415     12414     12416     12414     12417
     12418     12419     12420     12424     12420     12421     12420     12422
     12420     12423     12424     12425     12426     12430     12426     12427
     12426     12428     12426     12429     12430     12431     12432     12436
     12432     12433     12432     12434     12432     12435     12436     12437
     12438     12442     12438     12439     12438     12440     12438     12441
     12442     12443     12444     12448     12444     12445     12444     12446
     12444     12447     12448     12449     12450     12454     12450     12451
     12450     12452     12450     12453     12454     12455     12456     12460
     12456     12457     12456     12458     12456     12459     12460     12461
     12462     12466     12462     12463     12462     12464     12462     12465
     12466     12467     12468     12472     12468     12469     12468     12470
     12468     12471     12472     12473     12474     12478     12474     12475
     12474     12476     12474     12477     12478     12479     12480     12484
     12480     12481     12480     12482     12480     12483     12484     12485
     12486     12490     12486     12487     12486     12488     12486     12489
     12490     12491     12492     12496     12492     12493     12492     12494
     12492     12495     12496     12497     12498     12502     12498     12499
     12498     12500     12498     12501     12502     12503     12504     12508
     12504     12505     12504     12506     12504     12507     12508     12509
     12510     12514     12510     12511     12510     12512     12510     12513
     12514     12515     12516     12520     12516     12517     12516     12518
     12516     12519     12520     12521     12522     12526     12522     12523
     12522     12524     12522     12525     12526     12527     12528     12532
     12528     12529     12528     12530     12528     12531     12532     12533
     12534     12538     12534     12535     12534     12536     12534     12537
     12538     12539     12540     12544     12540     12541     12540     12542
     12540     12543     12544     12545     12546     12550     12546     12547
     12546     12548     12546     12549     12550     12551     12552     12556
     12552     12553     12552     12554     12552     12555     12556     12557
     12558     12562     12558     12559     12558     12560     12558     12561
     12562     12563     12564     12568     12564     12565     12564     12566
     12564     12567     12568     12569     12570     12574     12570     12571
     12570     12572     12570     12573     12574     12575     12576     12580
     12576     12577     12576     12578     12576     12579     12580     12581
     12582     12586     12582     12583     12582     12584     12582     12585
     12586     12587     12588     12592     12588     12589     12588     12590
     12588     12591     12592     12593     12594     12598     12594     12595
     12594     12596     12594     12597     12598     12599     12600     12604
     12600     12601     12600     12602     12600     12603     12604     12605
     12606     12610     12606     12607     12606     12608     12606     12609
     12610     12611     12612     12616     12612     12613     12612     12614
     12612     12615     12616     12617     12618     12622     12618     12619
     12618     12620     12618     12621     12622     12623     12624     12628
     12624     12625     12624     12626     12624     12627     12628     12629
     12630     12634     12630     12631     12630     12632     12630     12633
     12634     12635     12636     12640     12636     12637     12636     12638
     12636     12639     12640     12641     12642     12646     12642     12643
     12642     12644     12642     12645     12646     12647     12648     12652
     12648     12649     12648     12650     12648     12651     12652     12653
     12654     12658     12654     12655     12654     12656     12654     12657
     12658     12659     12660     12664     12660     12661     12660     12662
     12660     12663     12664     12665     12666     12670     12666     12667
     12666     12668     12666     12669     12670     12671     12672     12676
     12672     12673     12672     12674     12672     12675     12676     12677
     12678     12682     12678     12679     12678     12680     12678     12681
     12682     12683     12684     12688     12684     12685     12684     12686
     12684     12687     12688     12689     12690     12694     12690     12691
     12690     12692     12690     12693     12694     12695     12696     12700
     12696     12697     12696     12698     12696     12699     12700     12701
     12702     12706     12702     12703     12702     12704     12702     12705
     12706     12707     12708     12712     12708     12709     12708     12710
     12708     12711     12712     12713     12714     12718     12714     12715
     12714     12716     12714     12717     12718     12719     12720     12724
     12720     12721     12720     12722     12720     12723     12724     12725
     12726     12730     12726     12727     12726     12728     12726     12729
     12730     12731     12732     12736     12732     12733     12732     12734
     12732     12735     12736     12737     12738     12742     12738     12739
     12738     12740     12738     12741     12742     12743     12744     12748
     12744     12745     12744     12746     12744     12747     12748     12749
     12750     12754     12750     12751     12750     12752     12750     12753
     12754     12755     12756     12760     12756     12757     12756     12758
     12756     12759     12760     12761     12762     12766     12762     12763
     12762     12764     12762     12765     12766     12767     12768     12772
     12768     12769     12768     12770     12768     12771     12772     12773
     12774     12778     12774     12775     12774     12776     12774     12777
     12778     12779     12780     12784     12780     12781     12780     12782
     12780     12783     12784     12785     12786     12790     12786     12787
     12786     12788     12786     12789     12790     12791     12792     12796
     12792     12793     12792     12794     12792     12795     12796     12797
     12798     12802     12798     12799     12798     12800     12798     12801
     12802     12803     12804     12808     12804     12805     12804     12806
     12804     12807     12808     12809     12810     12814     12810     12811
     12810     12812     12810     12813     12814     12815     12816     12820
     12816     12817     12816     12818     12816     12819     12820     12821
     12822     12826     12822     12823     12822     12824     12822     12825
     12826     12827     12828     12832     12828     12829     12828     12830
     12828     12831     12832     12833     12834     12838     12834     12835
     12834     12836     12834     12837     12838     12839     12840     12844
     12840     12841     12840     12842     12840     12843     12844     12845
     12846     12850     12846     12847     12846     12848     12846     12849
     12850     12851     12852     12856     12852     12853     12852     12854
     12852     12855     12856     12857     12858     12862     12858     12859
     12858     12860     12858     12861     12862     12863     12864     12868
     12864     12865     12864     12866     12864     12867     12868     12869
     12870     12874     12870     12871     12870     12872     12870     12873
     12874     12875     12876     12880     12876     12877     12876     12878
     12876     12879     12880     12881     12882     12886     12882     12883
     12882     12884     12882     12885     12886     12887     12888     12892
     12888     12889     12888     12890     12888     12891     12892     12893
     12894     12898     12894     12895     12894     12896     12894     12897
     12898     12899     12900     12904     12900     12901     12900     12902
     12900     12903     12904     12905     12906     12910     12906     12907
     12906     12908     12906     12909     12910     12911     12912     12916
     12912     12913     12912     12914     12912     12915     12916     12917
     12918     12922     12918     12919     12918     12920     12918     12921
     12922     12923     12924     12928     12924     12925     12924     12926
     12924     12927     12928     12929     12930     12934     12930     12931
     12930     12932     12930     12933     12934     12935     12936     12940
     12936     12937     12936     12938     12936     12939     12940     12941
     12942     12946     12942     12943     12942     12944     12942     12945
     12946     12947     12948     12952     12948     12949     12948     12950
     12948     12951     12952     12953     12954     12958     12954     12955
     12954     12956     12954     12957     12958     12959     12960     12964
     12960     12961     12960     12962     12960     12963     12964     12965
     12966     12970     12966     12967     12966     12968     12966     12969
     12970     12971     12972     12976     12972     12973     12972     12974
     12972     12975     12976     12977     12978     12982     12978     12979
     12978     12980     12978     12981     12982     12983     12984     12988
     12984     12985     12984     12986     12984     12987     12988     12989
     12990     12994     12990     12991     12990     12992     12990     12993
     12994     12995     12996     13000     12996     12997     12996     12998
     12996     12999     13000     13001     13002     13006     13002     13003
     13002     13004     13002     13005     13006     13007     13008     13012
     13008     13009     13008     13010     13008     13011     13012     13013
     13014     13018     13014     13015     13014     13016     13014     13017
     13018     13019     13020     13024     13020     13021     13020     13022
     13020     13023     13024     13025     13026     13030     13026     13027
     13026     13028     13026     13029     13030     13031     13032     13036
     13032     13033     13032     13034     13032     13035     13036     13037
     13038     13042     13038     13039     13038     13040     13038     13041
     13042     13043     13044     13048     13044     13045     13044     13046
     13044     13047     13048     13049     13050     13054     13050     13051
     13050     13052     13050     13053     13054     13055     13056     13060
     13056     13057     13056     13058     13056     13059     13060     13061
     13062     13066     13062     13063     13062     13064     13062     13065
     13066     13067     13068     13072     13068     13069     13068     13070
     13068     13071     13072     13073     13074     13078     13074     13075
     13074     13076     13074     13077     13078     13079     13080     13084
     13080     13081     13080     13082     13080     13083     13084     13085
     13086     13090     13086     13087     13086     13088     13086     13089
     13090     13091     13092     13096     13092     13093     13092     13094
     13092     13095     13096     13097     13098     13102     13098     13099
     13098     13100     13098     13101     13102     13103     13104     13108
     13104     13105     13104     13106     13104     13107     13108     13109
     13110     13114     13110     13111     13110     13112     13110     13113
     13114     13115     13116     13120     13116     13117     13116     13118
     13116     13119     13120     13121     13122     13126     13122     13123
     13122     13124     13122     13125     13126     13127     13128     13132
     13128     13129     13128     13130     13128     13131     13132     13133
     13134     13138     13134     13135     13134     13136     13134     13137
     13138     13139     13140     13144     13140     13141     13140     13142
     13140     13143     13144     13145     13146     13150     13146     13147
     13146     13148     13146     13149     13150     13151     13152     13156
     13152     13153     13152     13154     13152     13155     13156     13157
     13158     13162     13158     13159     13158     13160     13158     13161
     13162     13163     13164     13168     13164     13165     13164     13166
     13164     13167     13168     13169     13170     13174     13170     13171
     13170     13172     13170     13173     13174     13175     13176     13180
     13176     13177     13176     13178     13176     13179     13180     13181
     13182     13186     13182     13183     13182     13184     13182     13185
     13186     13187     13188     13192     13188     13189     13188     13190
     13188     13191     13192     13193     13194     13198     13194     13195
     13194     13196     13194     13197     13198     13199     13200     13204
     13200     13201     13200     13202     13200     13203     13204     13205
     13206     13210     13206     13207     13206     13208     13206     13209
     13210     13211     13212     13216     13212     13213     13212     13214
     13212     13215     13216     13217     13218     13222     13218     13219
     13218     13220     13218     13221     13222     13223     13224     13228
     13224     13225     13224     13226     13224     13227     13228     13229
     13230     13234     13230     13231     13230     13232     13230     13233
     13234     13235     13236     13240     13236     13237     13236     13238
     13236     13239     13240     13241     13242     13246     13242     13243
     13242     13244     13242     13245     13246     13247     13248     13252
     13248     13249     13248     13250     13248     13251     13252     13253
     13254     13258     13254     13255     13254     13256     13254     13257
     13258     13259     13260     13264     13260     13261     13260     13262
     13260     13263     13264     13265     13266     13270     13266     13267
     13266     13268     13266     13269     13270     13271     13272     13276
     13272     13273     13272     13274     13272     13275     13276     13277
     13278     13282     13278     13279     13278     13280     13278     13281
     13282     13283     13284     13288     13284     13285     13284     13286
     13284     13287     13288     13289     13290     13294     13290     13291
     13290     13292     13290     13293     13294     13295     13296     13300
     13296     13297     13296     13298     13296     13299     13300     13301
     13302     13306     13302     13303     13302     13304     13302     13305
     13306     13307     13308     13312     13308     13309     13308     13310
     13308     13311     13312     13313     13314     13318     13314     13315
     13314     13316     13314     13317     13318     13319     13320     13324
     13320     13321     13320     13322     13320     13323     13324     13325
     13326     13330     13326     13327     13326     13328     13326     13329
     13330     13331     13332     13336     13332     13333     13332     13334
     13332     13335     13336     13337     13338     13342     13338     13339
     13338     13340     13338     13341     13342     13343     13344     13348
     13344     13345     13344     13346     13344     13347     13348     13349
     13350     13354     13350     13351     13350     13352     13350     13353
     13354     13355     13356     13360     13356     13357     13356     13358
     13356     13359     13360     13361     13362     13366     13362     13363
     13362     13364     13362     13365     13366     13367     13368     13372
     13368     13369     13368     13370     13368     13371     13372     13373
     13374     13378     13374     13375     13374     13376     13374     13377
     13378     13379     13380     13384     13380     13381     13380     13382
     13380     13383     13384     13385     13386     13390     13386     13387
     13386     13388     13386     13389     13390     13391     13392     13396
     13392     13393     13392     13394     13392     13395     13396     13397
     13398     13402     13398     13399     13398     13400     13398     13401
     13402     13403     13404     13408     13404     13405     13404     13406
     13404     13407     13408     13409     13410     13414     13410     13411
     13410     13412     13410     13413     13414     13415     13416     13420
     13416     13417     13416     13418     13416     13419     13420     13421
     13422     13426     13422     13423     13422     13424     13422     13425
     13426     13427     13428     13432     13428     13429     13428     13430
     13428     13431     13432     13433     13434     13438     13434     13435
     13434     13436     13434     13437     13438     13439     13440     13444
     13440     13441     13440     13442     13440     13443     13444     13445
     13446     13450     13446     13447     13446     13448     13446     13449
     13450     13451     13452     13456     13452     13453     13452     13454
     13452     13455     13456     13457     13458     13462     13458     13459
     13458     13460     13458     13461     13462     13463     13464     13468
     13464     13465     13464     13466     13464     13467     13468     13469
     13470     13474     13470     13471     13470     13472     13470     13473
     13474     13475     13476     13480     13476     13477     13476     13478
     13476     13479     13480     13481     13482     13486     13482     13483
     13482     13484     13482     13485     13486     13487     13488     13492
     13488     13489     13488     13490     13488     13491     13492     13493
     13494     13498     13494     13495     13494     13496     13494     13497
     13498     13499     13500     13504     13500     13501     13500     13502
     13500     13503     13504     13505     13506     13510     13506     13507
     13506     13508     13506     13509     13510     13511     13512     13516
     13512     13513     13512     13514     13512     13515     13516     13517
     13518     13522     13518     13519     13518     13520     13518     13521
     13522     13523     13524     13528     13524     13525     13524     13526
     13524     13527     13528     13529     13530     13534     13530     13531
     13530     13532     13530     13533     13534     13535     13536     13540
     13536     13537     13536     13538     13536     13539     13540     13541
     13542     13546     13542     13543     13542     13544     13542     13545
     13546     13547     13548     13552     13548     13549     13548     13550
     13548     13551     13552     13553     13554     13558     13554     13555
     13554     13556     13554     13557     13558     13559     13560     13564
     13560     13561     13560     13562     13560     13563     13564     13565
     13566     13570     13566     13567     13566     13568     13566     13569
     13570     13571     13572     13576     13572     13573     13572     13574
     13572     13575     13576     13577     13578     13582     13578     13579
     13578     13580     13578     13581     13582     13583     13584     13588
     13584     13585     13584     13586     13584     13587     13588     13589
     13590     13594     13590     13591     13590     13592     13590     13593
     13594     13595     13596     13600     13596     13597     13596     13598
     13596     13599     13600     13601     13602     13606     13602     13603
     13602     13604     13602     13605     13606     13607     13608     13612
     13608     13609     13608     13610     13608     13611     13612     13613
     13614     13618     13614     13615     13614     13616     13614     13617
     13618     13619     13620     13624     13620     13621     13620     13622
     13620     13623     13624     13625     13626     13630     13626     13627
     13626     13628     13626     13629     13630     13631     13632     13636
     13632     13633     13632     13634     13632     13635     13636     13637
     13638     13642     13638     13639     13638     13640     13638     13641
     13642     13643     13644     13648     13644     13645     13644     13646
     13644     13647     13648     13649     13650     13654     13650     13651
     13650     13652     13650     13653     13654     13655     13656     13660
     13656     13657     13656     13658     13656     13659     13660     13661
     13662     13666     13662     13663     13662     13664     13662     13665
     13666     13667     13668     13672     13668     13669     13668     13670
     13668     13671     13672     13673     13674     13678     13674     13675
     13674     13676     13674     13677     13678     13679     13680     13684
     13680     13681     13680     13682     13680     13683     13684     13685
     13686     13690     13686     13687     13686     13688     13686     13689
     13690     13691     13692     13696     13692     13693     13692     13694
     13692     13695     13696     13697     13698     13702     13698     13699
     13698     13700     13698     13701     13702     13703     13704     13708
     13704     13705     13704     13706     13704     13707     13708     13709
     13710     13714     13710     13711     13710     13712     13710     13713
     13714     13715     13716     13720     13716     13717     13716     13718
     13716     13719     13720     13721     13722     13726     13722     13723
     13722     13724     13722     13725     13726     13727     13728     13732
     13728     13729     13728     13730     13728     13731     13732     13733
     13734     13738     13734     13735     13734     13736     13734     13737
     13738     13739     13740     13744     13740     13741     13740     13742
     13740     13743     13744     13745     13746     13750     13746     13747
     13746     13748     13746     13749     13750     13751     13752     13756
     13752     13753     13752     13754     13752     13755     13756     13757
     13758     13762     13758     13759     13758     13760     13758     13761
     13762     13763     13764     13768     13764     13765     13764     13766
     13764     13767     13768     13769     13770     13774     13770     13771
     13770     13772     13770     13773     13774     13775     13776     13780
     13776     13777     13776     13778     13776     13779     13780     13781
     13782     13786     13782     13783     13782     13784     13782     13785
     13786     13787     13788     13792     13788     13789     13788     13790
     13788     13791     13792     13793     13794     13798     13794     13795
     13794     13796     13794     13797     13798     13799     13800     13804
     13800     13801     13800     13802     13800     13803     13804     13805
     13806     13810     13806     13807     13806     13808     13806     13809
     13810     13811     13812     13816     13812     13813     13812     13814
     13812     13815     13816     13817     13818     13822     13818     13819
     13818     13820     13818     13821     13822     13823     13824     13828
     13824     13825     13824     13826     13824     13827     13828     13829
     13830     13834     13830     13831     13830     13832     13830     13833
     13834     13835     13836     13840     13836     13837     13836     13838
     13836     13839     13840     13841     13842     13846     13842     13843
     13842     13844     13842     13845     13846     13847     13848     13852
     13848     13849     13848     13850     13848     13851     13852     13853
     13854     13858     13854     13855     13854     13856     13854     13857
     13858     13859     13860     13864     13860     13861     13860     13862
     13860     13863     13864     13865     13866     13870     13866     13867
     13866     13868     13866     13869     13870     13871     13872     13876
     13872     13873     13872     13874     13872     13875     13876     13877
     13878     13882     13878     13879     13878     13880     13878     13881
     13882     13883     13884     13888     13884     13885     13884     13886
     13884     13887     13888     13889     13890     13894     13890     13891
     13890     13892     13890     13893     13894     13895     13896     13900
     13896     13897     13896     13898     13896     13899     13900     13901
     13902     13906     13902     13903     13902     13904     13902     13905
     13906     13907     13908     13912     13908     13909     13908     13910
     13908     13911     13912     13913     13914     13918     13914     13915
     13914     13916     13914     13917     13918     13919     13920     13924
     13920     13921     13920     13922     13920     13923     13924     13925
     13926     13930     13926     13927     13926     13928     13926     13929
     13930     13931     13932     13936     13932     13933     13932     13934
     13932     13935     13936     13937     13938     13942     13938     13939
     13938     13940     13938     13941     13942     13943     13944     13948
     13944     13945     13944     13946     13944     13947     13948     13949
     13950     13954     13950     13951     13950     13952     13950     13953
     13954     13955     13956     13960     13956     13957     13956     13958
     13956     13959     13960     13961     13962     13966     13962     13963
     13962     13964     13962     13965     13966     13967     13968     13972
     13968     13969     13968     13970     13968     13971     13972     13973
     13974     13978     13974     13975     13974     13976     13974     13977
     13978     13979     13980     13984     13980     13981     13980     13982
     13980     13983     13984     13985     13986     13990     13986     13987
     13986     13988     13986     13989     13990     13991     13992     13996
     13992     13993     13992     13994     13992     13995     13996     13997
     13998     14002     13998     13999     13998     14000     13998     14001
     14002     14003     14004     14008     14004     14005     14004     14006
     14004     14007     14008     14009     14010     14014     14010     14011
     14010     14012     14010     14013     14014     14015     14016     14020
     14016     14017     14016     14018     14016     14019     14020     14021
     14022     14026     14022     14023     14022     14024     14022     14025
     14026     14027     14028     14032     14028     14029     14028     14030
     14028     14031     14032     14033     14034     14038     14034     14035
     14034     14036     14034     14037     14038     14039     14040     14044
     14040     14041     14040     14042     14040     14043     14044     14045
     14046     14050     14046     14047     14046     14048     14046     14049
     14050     14051     14052     14056     14052     14053     14052     14054
     14052     14055     14056     14057     14058     14062     14058     14059
     14058     14060     14058     14061     14062     14063     14064     14068
     14064     14065     14064     14066     14064     14067     14068     14069
     14070     14074     14070     14071     14070     14072     14070     14073
     14074     14075     14076     14080     14076     14077     14076     14078
     14076     14079     14080     14081     14082     14086     14082     14083
     14082     14084     14082     14085     14086     14087     14088     14092
     14088     14089     14088     14090     14088     14091     14092     14093
     14094     14098     14094     14095     14094     14096     14094     14097
     14098     14099     14100     14104     14100     14101     14100     14102
     14100     14103     14104     14105     14106     14110     14106     14107
     14106     14108     14106     14109     14110     14111     14112     14116
     14112     14113     14112     14114     14112     14115     14116     14117
     14118     14122     14118     14119     14118     14120     14118     14121
     14122     14123     14124     14128     14124     14125     14124     14126
     14124     14127     14128     14129     14130     14134     14130     14131
     14130     14132     14130     14133     14134     14135     14136     14140
     14136     14137     14136     14138     14136     14139     14140     14141
     14142     14146     14142     14143     14142     14144     14142     14145
     14146     14147     14148     14152     14148     14149     14148     14150
     14148     14151     14152     14153     14154     14158     14154     14155
     14154     14156     14154     14157     14158     14159     14160     14164
     14160     14161     14160     14162     14160     14163     14164     14165
     14166     14170     14166     14167     14166     14168     14166     14169
     14170     14171     14172     14176     14172     14173     14172     14174
     14172     14175     14176     14177     14178     14182     14178     14179
     14178     14180     14178     14181     14182     14183     14184     14188
     14184     14185     14184     14186     14184     14187     14188     14189
     14190     14194     14190     14191     14190     14192     14190     14193
     14194     14195     14196     14200     14196     14197     14196     14198
     14196     14199     14200     14201     14202     14206     14202     14203
     14202     14204     14202     14205     14206     14207     14208     14212
     14208     14209     14208     14210     14208     14211     14212     14213
     14214     14218     14214     14215     14214     14216     14214     14217
     14218     14219     14220     14224     14220     14221     14220     14222
     14220     14223     14224     14225     14226     14230     14226     14227
     14226     14228     14226     14229     14230     14231     14232     14236
     14232     14233     14232     14234     14232     14235     14236     14237
     14238     14242     14238     14239     14238     14240     14238     14241
     14242     14243     14244     14248     14244     14245     14244     14246
     14244     14247     14248     14249     14250     14254     14250     14251
     14250     14252     14250     14253     14254     14255     14256     14260
     14256     14257     14256     14258     14256     14259     14260     14261
     14262     14266     14262     14263     14262     14264     14262     14265
     14266     14267     14268     14272     14268     14269     14268     14270
     14268     14271     14272     14273     14274     14278     14274     14275
     14274     14276     14274     14277     14278     14279     14280     14284
     14280     14281     14280     14282     14280     14283     14284     14285
     14286     14290     14286     14287     14286     14288     14286     14289
     14290     14291     14292     14296     14292     14293     14292     14294
     14292     14295     14296     14297     14298     14302     14298     14299
     14298     14300     14298     14301     14302     14303     14304     14308
     14304     14305     14304     14306     14304     14307     14308     14309
     14310     14314     14310     14311     14310     14312     14310     14313
     14314     14315     14316     14320     14316     14317     14316     14318
     14316     14319     14320     14321     14322     14326     14322     14323
     14322     14324     14322     14325     14326     14327     14328     14332
     14328     14329     14328     14330     14328     14331     14332     14333
     14334     14338     14334     14335     14334     14336     14334     14337
     14338     14339     14340     14344     14340     14341     14340     14342
     14340     14343     14344     14345     14346     14350     14346     14347
     14346     14348     14346     14349     14350     14351     14352     14356
     14352     14353     14352     14354     14352     14355     14356     14357
     14358     14362     14358     14359     14358     14360     14358     14361
     14362     14363     14364     14368     14364     14365     14364     14366
     14364     14367     14368     14369     14370     14374     14370     14371
     14370     14372     14370     14373     14374     14375     14376     14380
     14376     14377     14376     14378     14376     14379     14380     14381
     14382     14386     14382     14383     14382     14384     14382     14385
     14386     14387     14388     14392     14388     14389     14388     14390
     14388     14391     14392     14393     14394     14398     14394     14395
     14394     14396     14394     14397     14398     14399     14400     14404
     14400     14401     14400     14402     14400     14403     14404     14405
     14406     14410     14406     14407     14406     14408     14406     14409
     14410     14411     14412     14416     14412     14413     14412     14414
     14412     14415     14416     14417     14418     14422     14418     14419
     14418     14420     14418     14421     14422     14423     14424     14428
     14424     14425     14424     14426     14424     14427     14428     14429
     14430     14434     14430     14431     14430     14432     14430     14433
     14434     14435     14436     14440     14436     14437     14436     14438
     14436     14439     14440     14441     14442     14446     14442     14443
     14442     14444     14442     14445     14446     14447     14448     14452
     14448     14449     14448     14450     14448     14451     14452     14453
     14454     14458     14454     14455     14454     14456     14454     14457
     14458     14459     14460     14464     14460     14461     14460     14462
     14460     14463     14464     14465     14466     14470     14466     14467
     14466     14468     14466     14469     14470     14471     14472     14476
     14472     14473     14472     14474     14472     14475     14476     14477
     14478     14482     14478     14479     14478     14480     14478     14481
     14482     14483     14484     14488     14484     14485     14484     14486
     14484     14487     14488     14489     14490     14494     14490     14491
     14490     14492     14490     14493     14494     14495     14496     14500
     14496     14497     14496     14498     14496     14499     14500     14501
     14502     14506     14502     14503     14502     14504     14502     14505
     14506     14507     14508     14512     14508     14509     14508     14510
     14508     14511     14512     14513     14514     14518     14514     14515
     14514     14516     14514     14517     14518     14519     14520     14524
     14520     14521     14520     14522     14520     14523     14524     14525
     14526     14530     14526     14527     14526     14528     14526     14529
     14530     14531     14532     14536     14532     14533     14532     14534
     14532     14535     14536     14537     14538     14542     14538     14539
     14538     14540     14538     14541     14542     14543     14544     14548
     14544     14545     14544     14546     14544     14547     14548     14549
     14550     14554     14550     14551     14550     14552     14550     14553
     14554     14555     14556     14560     14556     14557     14556     14558
     14556     14559     14560     14561     14562     14566     14562     14563
     14562     14564     14562     14565     14566     14567     14568     14572
     14568     14569     14568     14570     14568     14571     14572     14573
     14574     14578     14574     14575     14574     14576     14574     14577
     14578     14579     14580     14584     14580     14581     14580     14582
     14580     14583     14584     14585     14586     14590     14586     14587
     14586     14588     14586     14589     14590     14591     14592     14596
     14592     14593     14592     14594     14592     14595     14596     14597
     14598     14602     14598     14599     14598     14600     14598     14601
     14602     14603     14604     14608     14604     14605     14604     14606
     14604     14607     14608     14609     14610     14614     14610     14611
     14610     14612     14610     14613     14614     14615     14616     14620
     14616     14617     14616     14618     14616     14619     14620     14621
     14622     14626     14622     14623     14622     14624     14622     14625
     14626     14627     14628     14632     14628     14629     14628     14630
     14628     14631     14632     14633     14634     14638     14634     14635
     14634     14636     14634     14637     14638     14639     14640     14644
     14640     14641     14640     14642     14640     14643     14644     14645
     14646     14650     14646     14647     14646     14648     14646     14649
     14650     14651     14652     14656     14652     14653     14652     14654
     14652     14655     14656     14657     14658     14662     14658     14659
     14658     14660     14658     14661     14662     14663     14664     14668
     14664     14665     14664     14666     14664     14667     14668     14669
     14670     14674     14670     14671     14670     14672     14670     14673
     14674     14675     14676     14680     14676     14677     14676     14678
     14676     14679     14680     14681     14682     14686     14682     14683
     14682     14684     14682     14685     14686     14687     14688     14692
     14688     14689     14688     14690     14688     14691     14692     14693
     14694     14698     14694     14695     14694     14696     14694     14697
     14698     14699     14700     14704     14700     14701     14700     14702
     14700     14703     14704     14705     14706     14710     14706     14707
     14706     14708     14706     14709     14710     14711     14712     14716
     14712     14713     14712     14714     14712     14715     14716     14717
     14718     14722     14718     14719     14718     14720     14718     14721
     14722     14723     14724     14728     14724     14725     14724     14726
     14724     14727     14728     14729     14730     14734     14730     14731
     14730     14732     14730     14733     14734     14735     14736     14740
     14736     14737     14736     14738     14736     14739     14740     14741
     14742     14746     14742     14743     14742     14744     14742     14745
     14746     14747     14748     14752     14748     14749     14748     14750
     14748     14751     14752     14753     14754     14758     14754     14755
     14754     14756     14754     14757     14758     14759     14760     14764
     14760     14761     14760     14762     14760     14763     14764     14765
     14766     14770     14766     14767     14766     14768     14766     14769
     14770     14771     14772     14776     14772     14773     14772     14774
     14772     14775     14776     14777     14778     14782     14778     14779
     14778     14780     14778     14781     14782     14783     14784     14788
     14784     14785     14784     14786     14784     14787     14788     14789
     14790     14794     14790     14791     14790     14792     14790     14793
     14794     14795     14796     14800     14796     14797     14796     14798
     14796     14799     14800     14801     14802     14806     14802     14803
     14802     14804     14802     14805     14806     14807     14808     14812
     14808     14809     14808     14810     14808     14811     14812     14813
     14814     14818     14814     14815     14814     14816     14814     14817
     14818     14819     14820     14824     14820     14821     14820     14822
     14820     14823     14824     14825     14826     14830     14826     14827
     14826     14828     14826     14829     14830     14831     14832     14836
     14832     14833     14832     14834     14832     14835     14836     14837
     14838     14842     14838     14839     14838     14840     14838     14841
     14842     14843     14844     14848     14844     14845     14844     14846
     14844     14847     14848     14849     14850     14854     14850     14851
     14850     14852     14850     14853     14854     14855     14856     14860
     14856     14857     14856     14858     14856     14859     14860     14861
     14862     14866     14862     14863     14862     14864     14862     14865
     14866     14867     14868     14872     14868     14869     14868     14870
     14868     14871     14872     14873     14874     14878     14874     14875
     14874     14876     14874     14877     14878     14879     14880     14884
     14880     14881     14880     14882     14880     14883     14884     14885
     14886     14890     14886     14887     14886     14888     14886     14889
     14890     14891     14892     14896     14892     14893     14892     14894
     14892     14895     14896     14897     14898     14902     14898     14899
     14898     14900     14898     14901     14902     14903     14904     14908
     14904     14905     14904     14906     14904     14907     14908     14909
     14910     14914     14910     14911     14910     14912     14910     14913
     14914     14915     14916     14920     14916     14917     14916     14918
     14916     14919     14920     14921     14922     14926     14922     14923
     14922     14924     14922     14925     14926     14927     14928     14932
     14928     14929     14928     14930     14928     14931     14932     14933
     14934     14938     14934     14935     14934     14936     14934     14937
     14938     14939     14940     14944     14940     14941     14940     14942
     14940     14943     14944     14945     14946     14950     14946     14947
     14946     14948     14946     14949     14950     14951     14952     14956
     14952     14953     14952     14954     14952     14955     14956     14957
     14958     14962     14958     14959     14958     14960     14958     14961
     14962     14963     14964     14968     14964     14965     14964     14966
     14964     14967     14968     14969     14970     14974     14970     14971
     14970     14972     14970     14973     14974     14975     14976     14980
     14976     14977     14976     14978     14976     14979     14980     14981
     14982     14986     14982     14983     14982     14984     14982     14985
     14986     14987     14988     14992     14988     14989     14988     14990
     14988     14991     14992     14993     14994     14998     14994     14995
     14994     14996     14994     14997     14998     14999     15000     15004
     15000     15001     15000     15002     15000     15003     15004     15005
     15006     15010     15006     15007     15006     15008     15006     15009
     15010     15011     15012     15016     15012     15013     15012     15014
     15012     15015     15016     15017     15018     15022     15018     15019
     15018     15020     15018     15021     15022     15023     15024     15028
     15024     15025     15024     15026     15024     15027     15028     15029
     15030     15034     15030     15031     15030     15032     15030     15033
     15034     15035     15036     15040     15036     15037     15036     15038
     15036     15039     15040     15041     15042     15046     15042     15043
     15042     15044     15042     15045     15046     15047     15048     15052
     15048     15049     15048     15050     15048     15051     15052     15053
     15054     15058     15054     15055     15054     15056     15054     15057
     15058     15059     15060     15064     15060     15061     15060     15062
     15060     15063     15064     15065     15066     15070     15066     15067
     15066     15068     15066     15069     15070     15071     15072     15076
     15072     15073     15072     15074     15072     15075     15076     15077
     15078     15082     15078     15079     15078     15080     15078     15081
     15082     15083     15084     15088     15084     15085     15084     15086
     15084     15087     15088     15089     15090     15094     15090     15091
     15090     15092     15090     15093     15094     15095     15096     15100
     15096     15097     15096     15098     15096     15099     15100     15101
     15102     15106     15102     15103     15102     15104     15102     15105
     15106     15107     15108     15112     15108     15109     15108     15110
     15108     15111     15112     15113     15114     15118     15114     15115
     15114     15116     15114     15117     15118     15119     15120     15124
     15120     15121     15120     15122     15120     15123     15124     15125
     15126     15130     15126     15127     15126     15128     15126     15129
     15130     15131     15132     15136     15132     15133     15132     15134
     15132     15135     15136     15137     15138     15142     15138     15139
     15138     15140     15138     15141     15142     15143     15144     15148
     15144     15145     15144     15146     15144     15147     15148     15149
     15150     15154     15150     15151     15150     15152     15150     15153
     15154     15155     15156     15160     15156     15157     15156     15158
     15156     15159     15160     15161     15162     15166     15162     15163
     15162     15164     15162     15165     15166     15167     15168     15172
     15168     15169     15168     15170     15168     15171     15172     15173
     15174     15178     15174     15175     15174     15176     15174     15177
     15178     15179     15180     15184     15180     15181     15180     15182
     15180     15183     15184     15185     15186     15190     15186     15187
     15186     15188     15186     15189     15190     15191     15192     15196
     15192     15193     15192     15194     15192     15195     15196     15197
     15198     15202     15198     15199     15198     15200     15198     15201
     15202     15203     15204     15208     15204     15205     15204     15206
     15204     15207     15208     15209     15210     15214     15210     15211
     15210     15212     15210     15213     15214     15215     15216     15220
     15216     15217     15216     15218     15216     15219     15220     15221
     15222     15226     15222     15223     15222     15224     15222     15225
     15226     15227     15228     15232     15228     15229     15228     15230
     15228     15231     15232     15233     15234     15238     15234     15235
     15234     15236     15234     15237     15238     15239     15240     15244
     15240     15241     15240     15242     15240     15243     15244     15245
     15246     15250     15246     15247     15246     15248     15246     15249
     15250     15251     15252     15256     15252     15253     15252     15254
     15252     15255     15256     15257     15258     15262     15258     15259
     15258     15260     15258     15261     15262     15263     15264     15268
     15264     15265     15264     15266     15264     15267     15268     15269
     15270     15274     15270     15271     15270     15272     15270     15273
     15274     15275     15276     15280     15276     15277     15276     15278
     15276     15279     15280     15281     15282     15286     15282     15283
     15282     15284     15282     15285     15286     15287     15288     15292
     15288     15289     15288     15290     15288     15291     15292     15293
     15294     15298     15294     15295     15294     15296     15294     15297
     15298     15299     15300     15304     15300     15301     15300     15302
     15300     15303     15304     15305     15306     15310     15306     15307
     15306     15308     15306     15309     15310     15311     15312     15316
     15312     15313     15312     15314     15312     15315     15316     15317
     15318     15322     15318     15319     15318     15320     15318     15321
     15322     15323     15324     15328     15324     15325     15324     15326
     15324     15327     15328     15329     15330     15334     15330     15331
     15330     15332     15330     15333     15334     15335     15336     15340
     15336     15337     15336     15338     15336     15339     15340     15341
     15342     15346     15342     15343     15342     15344     15342     15345
     15346     15347     15348     15352     15348     15349     15348     15350
     15348     15351     15352     15353     15354     15358     15354     15355
     15354     15356     15354     15357     15358     15359     15360     15364
     15360     15361     15360     15362     15360     15363     15364     15365
     15366     15370     15366     15367     15366     15368     15366     15369
     15370     15371     15372     15376     15372     15373     15372     15374
     15372     15375     15376     15377     15378     15382     15378     15379
     15378     15380     15378     15381     15382     15383     15384     15388
     15384     15385     15384     15386     15384     15387     15388     15389
     15390     15394     15390     15391     15390     15392     15390     15393
     15394     15395     15396     15400     15396     15397     15396     15398
     15396     15399     15400     15401     15402     15406     15402     15403
     15402     15404     15402     15405     15406     15407     15408     15412
     15408     15409     15408     15410     15408     15411     15412     15413
     15414     15418     15414     15415     15414     15416     15414     15417
     15418     15419     15420     15424     15420     15421     15420     15422
     15420     15423     15424     15425     15426     15430     15426     15427
     15426     15428     15426     15429     15430     15431     15432     15436
     15432     15433     15432     15434     15432     15435     15436     15437
     15438     15442     15438     15439     15438     15440     15438     15441
     15442     15443     15444     15448     15444     15445     15444     15446
     15444     15447     15448     15449     15450     15454     15450     15451
     15450     15452     15450     15453     15454     15455     15456     15460
     15456     15457     15456     15458     15456     15459     15460     15461
     15462     15466     15462     15463     15462     15464     15462     15465
     15466     15467     15468     15472     15468     15469     15468     15470
     15468     15471     15472     15473     15474     15478     15474     15475
     15474     15476     15474     15477     15478     15479     15480     15484
     15480     15481     15480     15482     15480     15483     15484     15485
     15486     15490     15486     15487     15486     15488     15486     15489
     15490     15491     15492     15496     15492     15493     15492     15494
     15492     15495     15496     15497     15498     15502     15498     15499
     15498     15500     15498     15501     15502     15503     15504     15508
     15504     15505     15504     15506     15504     15507     15508     15509
     15510     15514     15510     15511     15510     15512     15510     15513
     15514     15515     15516     15520     15516     15517     15516     15518
     15516     15519     15520     15521     15522     15526     15522     15523
     15522     15524     15522     15525     15526     15527     15528     15532
     15528     15529     15528     15530     15528     15531     15532     15533
     15534     15538     15534     15535     15534     15536     15534     15537
     15538     15539     15540     15544     15540     15541     15540     15542
     15540     15543     15544     15545     15546     15550     15546     15547
     15546     15548     15546     15549     15550     15551     15552     15556
     15552     15553     15552     15554     15552     15555     15556     15557
     15558     15562     15558     15559     15558     15560     15558     15561
     15562     15563     15564     15568     15564     15565     15564     15566
     15564     15567     15568     15569     15570     15574     15570     15571
     15570     15572     15570     15573     15574     15575     15576     15580
     15576     15577     15576     15578     15576     15579     15580     15581
     15582     15586     15582     15583     15582     15584     15582     15585
     15586     15587     15588     15592     15588     15589     15588     15590
     15588     15591     15592     15593     15594     15598     15594     15595
     15594     15596     15594     15597     15598     15599     15600     15604
     15600     15601     15600     15602     15600     15603     15604     15605
     15606     15610     15606     15607     15606     15608     15606     15609
     15610     15611     15612     15616     15612     15613     15612     15614
     15612     15615     15616     15617     15618     15622     15618     15619
     15618     15620     15618     15621     15622     15623     15624     15628
     15624     15625     15624     15626     15624     15627     15628     15629
     15630     15634     15630     15631     15630     15632     15630     15633
     15634     15635     15636     15640     15636     15637     15636     15638
     15636     15639     15640     15641     15642     15646     15642     15643
     15642     15644     15642     15645     15646     15647     15648     15652
     15648     15649     15648     15650     15648     15651     15652     15653
     15654     15658     15654     15655     15654     15656     15654     15657
     15658     15659     15660     15664     15660     15661     15660     15662
     15660     15663     15664     15665     15666     15670     15666     15667
     15666     15668     15666     15669     15670     15671     15672     15676
     15672     15673     15672     15674     15672     15675     15676     15677
     15678     15682     15678     15679     15678     15680     15678     15681
     15682     15683     15684     15688     15684     15685     15684     15686
     15684     15687     15688     15689     15690     15694     15690     15691
     15690     15692     15690     15693     15694     15695     15696     15700
     15696     15697     15696     15698     15696     15699     15700     15701
     15702     15706     15702     15703     15702     15704     15702     15705
     15706     15707     15708     15712     15708     15709     15708     15710
     15708     15711     15712     15713     15714     15718     15714     15715
     15714     15716     15714     15717     15718     15719     15720     15724
     15720     15721     15720     15722     15720     15723     15724     15725
     15726     15730     15726     15727     15726     15728     15726     15729
     15730     15731     15732     15736     15732     15733     15732     15734
     15732     15735     15736     15737     15738     15742     15738     15739
     15738     15740     15738     15741     15742     15743     15744     15748
     15744     15745     15744     15746     15744     15747     15748     15749
     15750     15754     15750     15751     15750     15752     15750     15753
     15754     15755     15756     15760     15756     15757     15756     15758
     15756     15759     15760     15761     15762     15766     15762     15763
     15762     15764     15762     15765     15766     15767     15768     15772
     15768     15769     15768     15770     15768     15771     15772     15773
     15774     15778     15774     15775     15774     15776     15774     15777
     15778     15779     15780     15784     15780     15781     15780     15782
     15780     15783     15784     15785     15786     15790     15786     15787
     15786     15788     15786     15789     15790     15791     15792     15796
     15792     15793     15792     15794     15792     15795     15796     15797
     15798     15802     15798     15799     15798     15800     15798     15801
     15802     15803     15804     15808     15804     15805     15804     15806
     15804     15807     15808     15809     15810     15814     15810     15811
     15810     15812     15810     15813     15814     15815     15816     15820
     15816     15817     15816     15818     15816     15819     15820     15821
     15822     15826     15822     15823     15822     15824     15822     15825
     15826     15827     15828     15832     15828     15829     15828     15830
     15828     15831     15832     15833     15834     15838     15834     15835
     15834     15836     15834     15837     15838     15839     15840     15844
     15840     15841     15840     15842     15840     15843     15844     15845
     15846     15850     15846     15847     15846     15848     15846     15849
     15850     15851     15852     15856     15852     15853     15852     15854
     15852     15855     15856     15857     15858     15862     15858     15859
     15858     15860     15858     15861     15862     15863     15864     15868
     15864     15865     15864     15866     15864     15867     15868     15869
     15870     15874     15870     15871     15870     15872     15870     15873
     15874     15875     15876     15880     15876     15877     15876     15878
     15876     15879     15880     15881     15882     15886     15882     15883
     15882     15884     15882     15885     15886     15887     15888     15892
     15888     15889     15888     15890     15888     15891     15892     15893
     15894     15898     15894     15895     15894     15896     15894     15897
     15898     15899     15900     15904     15900     15901     15900     15902
     15900     15903     15904     15905     15906     15910     15906     15907
     15906     15908     15906     15909     15910     15911     15912     15916
     15912     15913     15912     15914     15912     15915     15916     15917
     15918     15922     15918     15919     15918     15920     15918     15921
     15922     15923     15924     15928     15924     15925     15924     15926
     15924     15927     15928     15929     15930     15934     15930     15931
     15930     15932     15930     15933     15934     15935     15936     15940
     15936     15937     15936     15938     15936     15939     15940     15941
     15942     15946     15942     15943     15942     15944     15942     15945
     15946     15947     15948     15952     15948     15949     15948     15950
     15948     15951     15952     15953     15954     15958     15954     15955
     15954     15956     15954     15957     15958     15959     15960     15964
     15960     15961     15960     15962     15960     15963     15964     15965
     15966     15970     15966     15967     15966     15968     15966     15969
     15970     15971     15972     15976     15972     15973     15972     15974
     15972     15975     15976     15977     15978     15982     15978     15979
     15978     15980     15978     15981     15982     15983     15984     15988
     15984     15985     15984     15986     15984     15987     15988     15989
     15990     15994     15990     15991     15990     15992     15990     15993
     15994     15995     15996     16000     15996     15997     15996     15998
     15996     15999     16000     16001     16002     16006     16002     16003
     16002     16004     16002     16005     16006     16007     16008     16012
     16008     16009     16008     16010     16008     16011     16012     16013
     16014     16018     16014     16015     16014     16016     16014     16017
     16018     16019     16020     16024     16020     16021     16020     16022
     16020     16023     16024     16025     16026     16030     16026     16027
     16026     16028     16026     16029     16030     16031     16032     16036
     16032     16033     16032     16034     16032     16035     16036     16037
     16038     16042     16038     16039     16038     16040     16038     16041
     16042     16043     16044     16048     16044     16045     16044     16046
     16044     16047     16048     16049     16050     16054     16050     16051
     16050     16052     16050     16053     16054     16055     16056     16060
     16056     16057     16056     16058     16056     16059     16060     16061
     16062     16066     16062     16063     16062     16064     16062     16065
     16066     16067     16068     16072     16068     16069     16068     16070
     16068     16071     16072     16073     16074     16078     16074     16075
     16074     16076     16074     16077     16078     16079     16080     16084
     16080     16081     16080     16082     16080     16083     16084     16085
     16086     16090     16086     16087     16086     16088     16086     16089
     16090     16091     16092     16096     16092     16093     16092     16094
     16092     16095     16096     16097     16098     16102     16098     16099
     16098     16100     16098     16101     16102     16103     16104     16108
     16104     16105     16104     16106     16104     16107     16108     16109
     16110     16114     16110     16111     16110     16112     16110     16113
     16114     16115     16116     16120     16116     16117     16116     16118
     16116     16119     16120     16121     16122     16126     16122     16123
     16122     16124     16122     16125     16126     16127     16128     16132
     16128     16129     16128     16130     16128     16131     16132     16133
     16134     16138     16134     16135     16134     16136     16134     16137
     16138     16139     16140     16144     16140     16141     16140     16142
     16140     16143     16144     16145     16146     16150     16146     16147
     16146     16148     16146     16149     16150     16151     16152     16156
     16152     16153     16152     16154     16152     16155     16156     16157
     16158     16162     16158     16159     16158     16160     16158     16161
     16162     16163     16164     16168     16164     16165     16164     16166
     16164     16167     16168     16169     16170     16174     16170     16171
     16170     16172     16170     16173     16174     16175     16176     16180
     16176     16177     16176     16178     16176     16179     16180     16181
     16182     16186     16182     16183     16182     16184     16182     16185
     16186     16187     16188     16192     16188     16189     16188     16190
     16188     16191     16192     16193     16194     16198     16194     16195
     16194     16196     16194     16197     16198     16199     16200     16204
     16200     16201     16200     16202     16200     16203     16204     16205
     16206     16210     16206     16207     16206     16208     16206     16209
     16210     16211     16212     16216     16212     16213     16212     16214
     16212     16215     16216     16217     16218     16222     16218     16219
     16218     16220     16218     16221     16222     16223     16224     16228
     16224     16225     16224     16226     16224     16227     16228     16229
     16230     16234     16230     16231     16230     16232     16230     16233
     16234     16235     16236     16240     16236     16237     16236     16238
     16236     16239     16240     16241     16242     16246     16242     16243
     16242     16244     16242     16245     16246     16247     16248     16252
     16248     16249     16248     16250     16248     16251     16252     16253
     16254     16258     16254     16255     16254     16256     16254     16257
     16258     16259     16260     16264     16260     16261     16260     16262
     16260     16263     16264     16265     16266     16270     16266     16267
     16266     16268     16266     16269     16270     16271     16272     16276
     16272     16273     16272     16274     16272     16275     16276     16277
     16278     16282     16278     16279     16278     16280     16278     16281
     16282     16283     16284     16288     16284     16285     16284     16286
     16284     16287     16288     16289     16290     16294     16290     16291
     16290     16292     16290     16293     16294     16295     16296     16300
     16296     16297     16296     16298     16296     16299     16300     16301
     16302     16306     16302     16303     16302     16304     16302     16305
     16306     16307     16308     16312     16308     16309     16308     16310
     16308     16311     16312     16313     16314     16318     16314     16315
     16314     16316     16314     16317     16318     16319     16320     16324
     16320     16321     16320     16322     16320     16323     16324     16325
     16326     16330     16326     16327     16326     16328     16326     16329
     16330     16331     16332     16336     16332     16333     16332     16334
     16332     16335     16336     16337     16338     16342     16338     16339
     16338     16340     16338     16341     16342     16343     16344     16348
     16344     16345     16344     16346     16344     16347     16348     16349
     16350     16354     16350     16351     16350     16352     16350     16353
     16354     16355     16356     16360     16356     16357     16356     16358
     16356     16359     16360     16361     16362     16366     16362     16363
     16362     16364     16362     16365     16366     16367     16368     16372
     16368     16369     16368     16370     16368     16371     16372     16373
     16374     16378     16374     16375     16374     16376     16374     16377
     16378     16379     16380     16384     16380     16381     16380     16382
     16380     16383     16384     16385     16386     16390     16386     16387
     16386     16388     16386     16389     16390     16391     16392     16396
     16392     16393     16392     16394     16392     16395     16396     16397
     16398     16402     16398     16399     16398     16400     16398     16401
     16402     16403     16404     16408     16404     16405     16404     16406
     16404     16407     16408     16409     16410     16414     16410     16411
     16410     16412     16410     16413     16414     16415     16416     16420
     16416     16417     16416     16418     16416     16419     16420     16421
     16422     16426     16422     16423     16422     16424     16422     16425
     16426     16427     16428     16432     16428     16429     16428     16430
     16428     16431     16432     16433     16434     16438     16434     16435
     16434     16436     16434     16437     16438     16439     16440     16444
     16440     16441     16440     16442     16440     16443     16444     16445
     16446     16450     16446     16447     16446     16448     16446     16449
     16450     16451     16452     16456     16452     16453     16452     16454
     16452     16455     16456     16457     16458     16462     16458     16459
     16458     16460     16458     16461     16462     16463     16464     16468
     16464     16465     16464     16466     16464     16467     16468     16469
     16470     16474     16470     16471     16470     16472     16470     16473
     16474     16475     16476     16480     16476     16477     16476     16478
     16476     16479     16480     16481     16482     16486     16482     16483
     16482     16484     16482     16485     16486     16487     16488     16492
     16488     16489     16488     16490     16488     16491     16492     16493
     16494     16498     16494     16495     16494     16496     16494     16497
     16498     16499     16500     16504     16500     16501     16500     16502
     16500     16503     16504     16505     16506     16510     16506     16507
     16506     16508     16506     16509     16510     16511     16512     16516
     16512     16513     16512     16514     16512     16515     16516     16517
     16518     16522     16518     16519     16518     16520     16518     16521
     16522     16523     16524     16528     16524     16525     16524     16526
     16524     16527     16528     16529     16530     16534     16530     16531
     16530     16532     16530     16533     16534     16535     16536     16540
     16536     16537     16536     16538     16536     16539     16540     16541
     16542     16546     16542     16543     16542     16544     16542     16545
     16546     16547     16548     16552     16548     16549     16548     16550
     16548     16551     16552     16553     16554     16558     16554     16555
     16554     16556     16554     16557     16558     16559     16560     16564
     16560     16561     16560     16562     16560     16563     16564     16565
     16566     16570     16566     16567     16566     16568     16566     16569
     16570     16571     16572     16576     16572     16573     16572     16574
     16572     16575     16576     16577     16578     16582     16578     16579
     16578     16580     16578     16581     16582     16583     16584     16588
     16584     16585     16584     16586     16584     16587     16588     16589
     16590     16594     16590     16591     16590     16592     16590     16593
     16594     16595     16596     16600     16596     16597     16596     16598
     16596     16599     16600     16601     16602     16606     16602     16603
     16602     16604     16602     16605     16606     16607     16608     16612
     16608     16609     16608     16610     16608     16611     16612     16613
     16614     16618     16614     16615     16614     16616     16614     16617
     16618     16619     16620     16624     16620     16621     16620     16622
     16620     16623     16624     16625     16626     16630     16626     16627
     16626     16628     16626     16629     16630     16631     16632     16636
     16632     16633     16632     16634     16632     16635     16636     16637
     16638     16642     16638     16639     16638     16640     16638     16641
     16642     16643     16644     16648     16644     16645     16644     16646
     16644     16647     16648     16649     16650     16654     16650     16651
     16650     16652     16650     16653     16654     16655     16656     16660
     16656     16657     16656     16658     16656     16659     16660     16661
     16662     16666     16662     16663     16662     16664     16662     16665
     16666     16667     16668     16672     16668     16669     16668     16670
     16668     16671     16672     16673     16674     16678     16674     16675
     16674     16676     16674     16677     16678     16679     16680     16684
     16680     16681     16680     16682     16680     16683     16684     16685
     16686     16690     16686     16687     16686     16688     16686     16689
     16690     16691     16692     16696     16692     16693     16692     16694
     16692     16695     16696     16697     16698     16702     16698     16699
     16698     16700     16698     16701     16702     16703     16704     16708
     16704     16705     16704     16706     16704     16707     16708     16709
     16710     16714     16710     16711     16710     16712     16710     16713
     16714     16715     16716     16720     16716     16717     16716     16718
     16716     16719     16720     16721     16722     16726     16722     16723
     16722     16724     16722     16725     16726     16727     16728     16732
     16728     16729     16728     16730     16728     16731     16732     16733
     16734     16738     16734     16735     16734     16736     16734     16737
     16738     16739     16740     16744     16740     16741     16740     16742
     16740     16743     16744     16745     16746     16750     16746     16747
     16746     16748     16746     16749     16750     16751     16752     16756
     16752     16753     16752     16754     16752     16755     16756     16757
     16758     16762     16758     16759     16758     16760     16758     16761
     16762     16763     16764     16768     16764     16765     16764     16766
     16764     16767     16768     16769     16770     16774     16770     16771
     16770     16772     16770     16773     16774     16775     16776     16780
     16776     16777     16776     16778     16776     16779     16780     16781
     16782     16786     16782     16783     16782     16784     16782     16785
     16786     16787     16788     16792     16788     16789     16788     16790
     16788     16791     16792     16793     16794     16798     16794     16795
     16794     16796     16794     16797     16798     16799     16800     16804
     16800     16801     16800     16802     16800     16803     16804     16805
     16806     16810     16806     16807     16806     16808     16806     16809
     16810     16811     16812     16816     16812     16813     16812     16814
     16812     16815     16816     16817     16818     16822     16818     16819
     16818     16820     16818     16821     16822     16823     16824     16828
     16824     16825     16824     16826     16824     16827     16828     16829
     16830     16834     16830     16831     16830     16832     16830     16833
     16834     16835     16836     16840     16836     16837     16836     16838
     16836     16839     16840     16841     16842     16846     16842     16843
     16842     16844     16842     16845     16846     16847     16848     16852
     16848     16849     16848     16850     16848     16851     16852     16853
     16854     16858     16854     16855     16854     16856     16854     16857
     16858     16859     16860     16864     16860     16861     16860     16862
     16860     16863     16864     16865     16866     16870     16866     16867
     16866     16868     16866     16869     16870     16871     16872     16876
     16872     16873     16872     16874     16872     16875     16876     16877
     16878     16882     16878     16879     16878     16880     16878     16881
     16882     16883     16884     16888     16884     16885     16884     16886
     16884     16887     16888     16889     16890     16894     16890     16891
     16890     16892     16890     16893     16894     16895     16896     16900
     16896     16897     16896     16898     16896     16899     16900     16901
     16902     16906     16902     16903     16902     16904     16902     16905
     16906     16907     16908     16912     16908     16909     16908     16910
     16908     16911     16912     16913     16914     16918     16914     16915
     16914     16916     16914     16917     16918     16919     16920     16924
     16920     16921     16920     16922     16920     16923     16924     16925
     16926     16930     16926     16927     16926     16928     16926     16929
     16930     16931     16932     16936     16932     16933     16932     16934
     16932     16935     16936     16937     16938     16942     16938     16939
     16938     16940     16938     16941     16942     16943     16944     16948
     16944     16945     16944     16946     16944     16947     16948     16949
     16950     16954     16950     16951     16950     16952     16950     16953
     16954     16955     16956     16960     16956     16957     16956     16958
     16956     16959     16960     16961     16962     16966     16962     16963
     16962     16964     16962     16965     16966     16967     16968     16972
     16968     16969     16968     16970     16968     16971     16972     16973
     16974     16978     16974     16975     16974     16976     16974     16977
     16978     16979     16980     16984     16980     16981     16980     16982
     16980     16983     16984     16985     16986     16990     16986     16987
     16986     16988     16986     16989     16990     16991     16992     16996
     16992     16993     16992     16994     16992     16995     16996     16997
     16998     17002     16998     16999     16998     17000     16998     17001
     17002     17003     17004     17008     17004     17005     17004     17006
     17004     17007     17008     17009     17010     17014     17010     17011
     17010     17012     17010     17013     17014     17015     17016     17020
     17016     17017     17016     17018     17016     17019     17020     17021
     17022     17026     17022     17023     17022     17024     17022     17025
     17026     17027     17028     17032     17028     17029     17028     17030
     17028     17031     17032     17033     17034     17038     17034     17035
     17034     17036     17034     17037     17038     17039     17040     17044
     17040     17041     17040     17042     17040     17043     17044     17045
     17046     17050     17046     17047     17046     17048     17046     17049
     17050     17051     17052     17056     17052     17053     17052     17054
     17052     17055     17056     17057     17058     17062     17058     17059
     17058     17060     17058     17061     17062     17063     17064     17068
     17064     17065     17064     17066     17064     17067     17068     17069
     17070     17074     17070     17071     17070     17072     17070     17073
     17074     17075     17076     17080     17076     17077     17076     17078
     17076     17079     17080     17081     17082     17086     17082     17083
     17082     17084     17082     17085     17086     17087     17088     17092
     17088     17089     17088     17090     17088     17091     17092     17093
     17094     17098     17094     17095     17094     17096     17094     17097
     17098     17099     17100     17104     17100     17101     17100     17102
     17100     17103     17104     17105     17106     17110     17106     17107
     17106     17108     17106     17109     17110     17111     17112     17116
     17112     17113     17112     17114     17112     17115     17116     17117
     17118     17122     17118     17119     17118     17120     17118     17121
     17122     17123     17124     17128     17124     17125     17124     17126
     17124     17127     17128     17129     17130     17134     17130     17131
     17130     17132     17130     17133     17134     17135     17136     17140
     17136     17137     17136     17138     17136     17139     17140     17141
     17142     17146     17142     17143     17142     17144     17142     17145
     17146     17147     17148     17152     17148     17149     17148     17150
     17148     17151     17152     17153     17154     17158     17154     17155
     17154     17156     17154     17157     17158     17159     17160     17164
     17160     17161     17160     17162     17160     17163     17164     17165
     17166     17170     17166     17167     17166     17168     17166     17169
     17170     17171     17172     17176     17172     17173     17172     17174
     17172     17175     17176     17177     17178     17182     17178     17179
     17178     17180     17178     17181     17182     17183     17184     17188
     17184     17185     17184     17186     17184     17187     17188     17189
     17190     17194     17190     17191     17190     17192     17190     17193
     17194     17195     17196     17200     17196     17197     17196     17198
     17196     17199     17200     17201     17202     17206     17202     17203
     17202     17204     17202     17205     17206     17207     17208     17212
     17208     17209     17208     17210     17208     17211     17212     17213
     17214     17218     17214     17215     17214     17216     17214     17217
     17218     17219     17220     17224     17220     17221     17220     17222
     17220     17223     17224     17225     17226     17230     17226     17227
     17226     17228     17226     17229     17230     17231     17232     17236
     17232     17233     17232     17234     17232     17235     17236     17237
     17238     17242     17238     17239     17238     17240     17238     17241
     17242     17243     17244     17248     17244     17245     17244     17246
     17244     17247     17248     17249     17250     17254     17250     17251
     17250     17252     17250     17253     17254     17255     17256     17260
     17256     17257     17256     17258     17256     17259     17260     17261
     17262     17266     17262     17263     17262     17264     17262     17265
     17266     17267     17268     17272     17268     17269     17268     17270
     17268     17271     17272     17273     17274     17278     17274     17275
     17274     17276     17274     17277     17278     17279     17280     17284
     17280     17281     17280     17282     17280     17283     17284     17285
     17286     17290     17286     17287     17286     17288     17286     17289
     17290     17291     17292     17296     17292     17293     17292     17294
     17292     17295     17296     17297     17298     17302     17298     17299
     17298     17300     17298     17301     17302     17303     17304     17308
     17304     17305     17304     17306     17304     17307     17308     17309
     17310     17314     17310     17311     17310     17312     17310     17313
     17314     17315     17316     17320     17316     17317     17316     17318
     17316     17319     17320     17321     17322     17326     17322     17323
     17322     17324     17322     17325     17326     17327     17328     17332
     17328     17329     17328     17330     17328     17331     17332     17333
     17334     17338     17334     17335     17334     17336     17334     17337
     17338     17339     17340     17344     17340     17341     17340     17342
     17340     17343     17344     17345     17346     17350     17346     17347
     17346     17348     17346     17349     17350     17351     17352     17356
     17352     17353     17352     17354     17352     17355     17356     17357
     17358     17362     17358     17359     17358     17360     17358     17361
     17362     17363     17364     17368     17364     17365     17364     17366
     17364     17367     17368     17369     17370     17374     17370     17371
     17370     17372     17370     17373     17374     17375     17376     17380
     17376     17377     17376     17378     17376     17379     17380     17381
     17382     17386     17382     17383     17382     17384     17382     17385
     17386     17387     17388     17392     17388     17389     17388     17390
     17388     17391     17392     17393     17394     17398     17394     17395
     17394     17396     17394     17397     17398     17399     17400     17404
     17400     17401     17400     17402     17400     17403     17404     17405
     17406     17410     17406     17407     17406     17408     17406     17409
     17410     17411     17412     17416     17412     17413     17412     17414
     17412     17415     17416     17417     17418     17422     17418     17419
     17418     17420     17418     17421     17422     17423     17424     17428
     17424     17425     17424     17426     17424     17427     17428     17429
     17430     17434     17430     17431     17430     17432     17430     17433
     17434     17435     17436     17440     17436     17437     17436     17438
     17436     17439     17440     17441     17442     17446     17442     17443
     17442     17444     17442     17445     17446     17447     17448     17452
     17448     17449     17448     17450     17448     17451     17452     17453
     17454     17458     17454     17455     17454     17456     17454     17457
     17458     17459     17460     17464     17460     17461     17460     17462
     17460     17463     17464     17465     17466     17470     17466     17467
     17466     17468     17466     17469     17470     17471     17472     17476
     17472     17473     17472     17474     17472     17475     17476     17477
     17478     17482     17478     17479     17478     17480     17478     17481
     17482     17483     17484     17488     17484     17485     17484     17486
     17484     17487     17488     17489     17490     17494     17490     17491
     17490     17492     17490     17493     17494     17495     17496     17500
     17496     17497     17496     17498     17496     17499     17500     17501
     17502     17506     17502     17503     17502     17504     17502     17505
     17506     17507     17508     17512     17508     17509     17508     17510
     17508     17511     17512     17513     17514     17518     17514     17515
     17514     17516     17514     17517     17518     17519     17520     17524
     17520     17521     17520     17522     17520     17523     17524     17525
     17526     17530     17526     17527     17526     17528     17526     17529
     17530     17531     17532     17536     17532     17533     17532     17534
     17532     17535     17536     17537     17538     17542     17538     17539
     17538     17540     17538     17541     17542     17543     17544     17548
     17544     17545     17544     17546     17544     17547     17548     17549
     17550     17554     17550     17551     17550     17552     17550     17553
     17554     17555     17556     17560     17556     17557     17556     17558
     17556     17559     17560     17561     17562     17566     17562     17563
     17562     17564     17562     17565     17566     17567     17568     17572
     17568     17569     17568     17570     17568     17571     17572     17573
     17574     17578     17574     17575     17574     17576     17574     17577
     17578     17579     17580     17584     17580     17581     17580     17582
     17580     17583     17584     17585     17586     17590     17586     17587
     17586     17588     17586     17589     17590     17591     17592     17596
     17592     17593     17592     17594     17592     17595     17596     17597
     17598     17602     17598     17599     17598     17600     17598     17601
     17602     17603     17604     17608     17604     17605     17604     17606
     17604     17607     17608     17609     17610     17614     17610     17611
     17610     17612     17610     17613     17614     17615     17616     17620
     17616     17617     17616     17618     17616     17619     17620     17621
     17622     17626     17622     17623     17622     17624     17622     17625
     17626     17627     17628     17632     17628     17629     17628     17630
     17628     17631     17632     17633     17634     17638     17634     17635
     17634     17636     17634     17637     17638     17639     17640     17644
     17640     17641     17640     17642     17640     17643     17644     17645
     17646     17650     17646     17647     17646     17648     17646     17649
     17650     17651     17652     17656     17652     17653     17652     17654
     17652     17655     17656     17657     17658     17662     17658     17659
     17658     17660     17658     17661     17662     17663     17664     17668
     17664     17665     17664     17666     17664     17667     17668     17669
     17670     17674     17670     17671     17670     17672     17670     17673
     17674     17675     17676     17680     17676     17677     17676     17678
     17676     17679     17680     17681     17682     17686     17682     17683
     17682     17684     17682     17685     17686     17687     17688     17692
     17688     17689     17688     17690     17688     17691     17692     17693
     17694     17698     17694     17695     17694     17696     17694     17697
     17698     17699     17700     17704     17700     17701     17700     17702
     17700     17703     17704     17705     17706     17710     17706     17707
     17706     17708     17706     17709     17710     17711     17712     17716
     17712     17713     17712     17714     17712     17715     17716     17717
     17718     17722     17718     17719     17718     17720     17718     17721
     17722     17723     17724     17728     17724     17725     17724     17726
     17724     17727     17728     17729     17730     17734     17730     17731
     17730     17732     17730     17733     17734     17735     17736     17740
     17736     17737     17736     17738     17736     17739     17740     17741
     17742     17746     17742     17743     17742     17744     17742     17745
     17746     17747     17748     17752     17748     17749     17748     17750
     17748     17751     17752     17753     17754     17758     17754     17755
     17754     17756     17754     17757     17758     17759     17760     17764
     17760     17761     17760     17762     17760     17763     17764     17765
     17766     17770     17766     17767     17766     17768     17766     17769
     17770     17771     17772     17776     17772     17773     17772     17774
     17772     17775     17776     17777     17778     17782     17778     17779
     17778     17780     17778     17781     17782     17783     17784     17788
     17784     17785     17784     17786     17784     17787     17788     17789
     17790     17794     17790     17791     17790     17792     17790     17793
     17794     17795     17796     17800     17796     17797     17796     17798
     17796     17799     17800     17801     17802     17806     17802     17803
     17802     17804     17802     17805     17806     17807     17808     17812
     17808     17809     17808     17810     17808     17811     17812     17813
     17814     17818     17814     17815     17814     17816     17814     17817
     17818     17819     17820     17824     17820     17821     17820     17822
     17820     17823     17824     17825     17826     17830     17826     17827
     17826     17828     17826     17829     17830     17831     17832     17836
     17832     17833     17832     17834     17832     17835     17836     17837
     17838     17842     17838     17839     17838     17840     17838     17841
     17842     17843     17844     17848     17844     17845     17844     17846
     17844     17847     17848     17849     17850     17854     17850     17851
     17850     17852     17850     17853     17854     17855     17856     17860
     17856     17857     17856     17858     17856     17859     17860     17861
     17862     17866     17862     17863     17862     17864     17862     17865
     17866     17867     17868     17872     17868     17869     17868     17870
     17868     17871     17872     17873     17874     17878     17874     17875
     17874     17876     17874     17877     17878     17879     17880     17884
     17880     17881     17880     17882     17880     17883     17884     17885
     17886     17890     17886     17887     17886     17888     17886     17889
     17890     17891     17892     17896     17892     17893     17892     17894
     17892     17895     17896     17897     17898     17902     17898     17899
     17898     17900     17898     17901     17902     17903     17904     17908
     17904     17905     17904     17906     17904     17907     17908     17909
     17910     17914     17910     17911     17910     17912     17910     17913
     17914     17915     17916     17920     17916     17917     17916     17918
     17916     17919     17920     17921     17922     17926     17922     17923
     17922     17924     17922     17925     17926     17927     17928     17932
     17928     17929     17928     17930     17928     17931     17932     17933
     17934     17938     17934     17935     17934     17936     17934     17937
     17938     17939     17940     17944     17940     17941     17940     17942
     17940     17943     17944     17945     17946     17950     17946     17947
     17946     17948     17946     17949     17950     17951     17952     17956
     17952     17953     17952     17954     17952     17955     17956     17957
     17958     17962     17958     17959     17958     17960     17958     17961
     17962     17963     17964     17968     17964     17965     17964     17966
     17964     17967     17968     17969     17970     17974     17970     17971
     17970     17972     17970     17973     17974     17975     17976     17980
     17976     17977     17976     17978     17976     17979     17980     17981
     17982     17986     17982     17983     17982     17984     17982     17985
     17986     17987     17988     17992     17988     17989     17988     17990
     17988     17991     17992     17993     17994     17998     17994     17995
     17994     17996     17994     17997     17998     17999     18000     18004
     18000     18001     18000     18002     18000     18003     18004     18005
     18006     18010     18006     18007     18006     18008     18006     18009
     18010     18011     18012     18016     18012     18013     18012     18014
     18012     18015     18016     18017     18018     18022     18018     18019
     18018     18020     18018     18021     18022     18023     18024     18028
     18024     18025     18024     18026     18024     18027     18028     18029
     18030     18034     18030     18031     18030     18032     18030     18033
     18034     18035     18036     18040     18036     18037     18036     18038
     18036     18039     18040     18041     18042     18046     18042     18043
     18042     18044     18042     18045     18046     18047     18048     18052
     18048     18049     18048     18050     18048     18051     18052     18053
     18054     18058     18054     18055     18054     18056     18054     18057
     18058     18059     18060     18064     18060     18061     18060     18062
     18060     18063     18064     18065     18066     18070     18066     18067
     18066     18068     18066     18069     18070     18071     18072     18076
     18072     18073     18072     18074     18072     18075     18076     18077
     18078     18082     18078     18079     18078     18080     18078     18081
     18082     18083     18084     18088     18084     18085     18084     18086
     18084     18087     18088     18089     18090     18094     18090     18091
     18090     18092     18090     18093     18094     18095     18096     18100
     18096     18097     18096     18098     18096     18099     18100     18101
     18102     18106     18102     18103     18102     18104     18102     18105
     18106     18107     18108     18112     18108     18109     18108     18110
     18108     18111     18112     18113     18114     18118     18114     18115
     18114     18116     18114     18117     18118     18119     18120     18124
     18120     18121     18120     18122     18120     18123     18124     18125
     18126     18130     18126     18127     18126     18128     18126     18129
     18130     18131     18132     18136     18132     18133     18132     18134
     18132     18135     18136     18137     18138     18142     18138     18139
     18138     18140     18138     18141     18142     18143     18144     18148
     18144     18145     18144     18146     18144     18147     18148     18149
     18150     18154     18150     18151     18150     18152     18150     18153
     18154     18155     18156     18160     18156     18157     18156     18158
     18156     18159     18160     18161     18162     18166     18162     18163
     18162     18164     18162     18165     18166     18167     18168     18172
     18168     18169     18168     18170     18168     18171     18172     18173
     18174     18178     18174     18175     18174     18176     18174     18177
     18178     18179     18180     18184     18180     18181     18180     18182
     18180     18183     18184     18185     18186     18190     18186     18187
     18186     18188     18186     18189     18190     18191     18192     18196
     18192     18193     18192     18194     18192     18195     18196     18197
     18198     18202     18198     18199     18198     18200     18198     18201
     18202     18203     18204     18208     18204     18205     18204     18206
     18204     18207     18208     18209     18210     18214     18210     18211
     18210     18212     18210     18213     18214     18215     18216     18220
     18216     18217     18216     18218     18216     18219     18220     18221
     18222     18226     18222     18223     18222     18224     18222     18225
     18226     18227     18228     18232     18228     18229     18228     18230
     18228     18231     18232     18233     18234     18238     18234     18235
     18234     18236     18234     18237     18238     18239     18240     18244
     18240     18241     18240     18242     18240     18243     18244     18245
     18246     18250     18246     18247     18246     18248     18246     18249
     18250     18251     18252     18256     18252     18253     18252     18254
     18252     18255     18256     18257     18258     18262     18258     18259
     18258     18260     18258     18261     18262     18263     18264     18268
     18264     18265     18264     18266     18264     18267     18268     18269
     18270     18274     18270     18271     18270     18272     18270     18273
     18274     18275     18276     18280     18276     18277     18276     18278
     18276     18279     18280     18281     18282     18286     18282     18283
     18282     18284     18282     18285     18286     18287     18288     18292
     18288     18289     18288     18290     18288     18291     18292     18293
     18294     18298     18294     18295     18294     18296     18294     18297
     18298     18299     18300     18304     18300     18301     18300     18302
     18300     18303     18304     18305     18306     18310     18306     18307
     18306     18308     18306     18309     18310     18311     18312     18316
     18312     18313     18312     18314     18312     18315     18316     18317
     18318     18322     18318     18319     18318     18320     18318     18321
     18322     18323     18324     18328     18324     18325     18324     18326
     18324     18327     18328     18329     18330     18334     18330     18331
     18330     18332     18330     18333     18334     18335     18336     18340
     18336     18337     18336     18338     18336     18339     18340     18341
     18342     18346     18342     18343     18342     18344     18342     18345
     18346     18347     18348     18352     18348     18349     18348     18350
     18348     18351     18352     18353     18354     18358     18354     18355
     18354     18356     18354     18357     18358     18359     18360     18364
     18360     18361     18360     18362     18360     18363     18364     18365
     18366     18370     18366     18367     18366     18368     18366     18369
     18370     18371     18372     18376     18372     18373     18372     18374
     18372     18375     18376     18377     18378     18382     18378     18379
     18378     18380     18378     18381     18382     18383     18384     18388
     18384     18385     18384     18386     18384     18387     18388     18389
     18390     18394     18390     18391     18390     18392     18390     18393
     18394     18395     18396     18400     18396     18397     18396     18398
     18396     18399     18400     18401     18402     18406     18402     18403
     18402     18404     18402     18405     18406     18407     18408     18412
     18408     18409     18408     18410     18408     18411     18412     18413
     18414     18418     18414     18415     18414     18416     18414     18417
     18418     18419     18420     18424     18420     18421     18420     18422
     18420     18423     18424     18425     18426     18430     18426     18427
     18426     18428     18426     18429     18430     18431     18432     18436
     18432     18433     18432     18434     18432     18435     18436     18437
     18438     18442     18438     18439     18438     18440     18438     18441
     18442     18443     18444     18448     18444     18445     18444     18446
     18444     18447     18448     18449     18450     18454     18450     18451
     18450     18452     18450     18453     18454     18455     18456     18460
     18456     18457     18456     18458     18456     18459     18460     18461
     18462     18466     18462     18463     18462     18464     18462     18465
     18466     18467     18468     18472     18468     18469     18468     18470
     18468     18471     18472     18473     18474     18478     18474     18475
     18474     18476     18474     18477     18478     18479     18480     18484
     18480     18481     18480     18482     18480     18483     18484     18485
     18486     18490     18486     18487     18486     18488     18486     18489
     18490     18491     18492     18496     18492     18493     18492     18494
     18492     18495     18496     18497     18498     18502     18498     18499
     18498     18500     18498     18501     18502     18503     18504     18508
     18504     18505     18504     18506     18504     18507     18508     18509
     18510     18514     18510     18511     18510     18512     18510     18513
     18514     18515     18516     18520     18516     18517     18516     18518
     18516     18519     18520     18521     18522     18526     18522     18523
     18522     18524     18522     18525     18526     18527     18528     18532
     18528     18529     18528     18530     18528     18531     18532     18533
     18534     18538     18534     18535     18534     18536     18534     18537
     18538     18539     18540     18544     18540     18541     18540     18542
     18540     18543     18544     18545     18546     18550     18546     18547
     18546     18548     18546     18549     18550     18551     18552     18556
     18552     18553     18552     18554     18552     18555     18556     18557
     18558     18562     18558     18559     18558     18560     18558     18561
     18562     18563     18564     18568     18564     18565     18564     18566
     18564     18567     18568     18569     18570     18574     18570     18571
     18570     18572     18570     18573     18574     18575     18576     18580
     18576     18577     18576     18578     18576     18579     18580     18581
     18582     18586     18582     18583     18582     18584     18582     18585
     18586     18587     18588     18592     18588     18589     18588     18590
     18588     18591     18592     18593     18594     18598     18594     18595
     18594     18596     18594     18597     18598     18599     18600     18604
     18600     18601     18600     18602     18600     18603     18604     18605
     18606     18610     18606     18607     18606     18608     18606     18609
     18610     18611     18612     18616     18612     18613     18612     18614
     18612     18615     18616     18617     18618     18622     18618     18619
     18618     18620     18618     18621     18622     18623     18624     18628
     18624     18625     18624     18626     18624     18627     18628     18629
     18630     18634     18630     18631     18630     18632     18630     18633
     18634     18635     18636     18640     18636     18637     18636     18638
     18636     18639     18640     18641     18642     18646     18642     18643
     18642     18644     18642     18645     18646     18647     18648     18652
     18648     18649     18648     18650     18648     18651     18652     18653
     18654     18658     18654     18655     18654     18656     18654     18657
     18658     18659     18660     18664     18660     18661     18660     18662
     18660     18663     18664     18665     18666     18670     18666     18667
     18666     18668     18666     18669     18670     18671     18672     18676
     18672     18673     18672     18674     18672     18675     18676     18677
     18678     18682     18678     18679     18678     18680     18678     18681
     18682     18683     18684     18688     18684     18685     18684     18686
     18684     18687     18688     18689     18690     18694     18690     18691
     18690     18692     18690     18693     18694     18695     18696     18700
     18696     18697     18696     18698     18696     18699     18700     18701
     18702     18706     18702     18703     18702     18704     18702     18705
     18706     18707     18708     18712     18708     18709     18708     18710
     18708     18711     18712     18713     18714     18718     18714     18715
     18714     18716     18714     18717     18718     18719     18720     18724
     18720     18721     18720     18722     18720     18723     18724     18725
     18726     18730     18726     18727     18726     18728     18726     18729
     18730     18731     18732     18736     18732     18733     18732     18734
     18732     18735     18736     18737     18738     18742     18738     18739
     18738     18740     18738     18741     18742     18743     18744     18748
     18744     18745     18744     18746     18744     18747     18748     18749
     18750     18754     18750     18751     18750     18752     18750     18753
     18754     18755     18756     18760     18756     18757     18756     18758
     18756     18759     18760     18761     18762     18766     18762     18763
     18762     18764     18762     18765     18766     18767     18768     18772
     18768     18769     18768     18770     18768     18771     18772     18773
     18774     18778     18774     18775     18774     18776     18774     18777
     18778     18779     18780     18784     18780     18781     18780     18782
     18780     18783     18784     18785     18786     18790     18786     18787
     18786     18788     18786     18789     18790     18791     18792     18796
     18792     18793     18792     18794     18792     18795     18796     18797
     18798     18802     18798     18799     18798     18800     18798     18801
     18802     18803     18804     18808     18804     18805     18804     18806
     18804     18807     18808     18809     18810     18814     18810     18811
     18810     18812     18810     18813     18814     18815     18816     18820
     18816     18817     18816     18818     18816     18819     18820     18821
     18822     18826     18822     18823     18822     18824     18822     18825
     18826     18827     18828     18832     18828     18829     18828     18830
     18828     18831     18832     18833     18834     18838     18834     18835
     18834     18836     18834     18837     18838     18839     18840     18844
     18840     18841     18840     18842     18840     18843     18844     18845
     18846     18850     18846     18847     18846     18848     18846     18849
     18850     18851     18852     18856     18852     18853     18852     18854
     18852     18855     18856     18857     18858     18862     18858     18859
     18858     18860     18858     18861     18862     18863     18864     18868
     18864     18865     18864     18866     18864     18867     18868     18869
     18870     18874     18870     18871     18870     18872     18870     18873
     18874     18875     18876     18880     18876     18877     18876     18878
     18876     18879     18880     18881     18882     18886     18882     18883
     18882     18884     18882     18885     18886     18887     18888     18892
     18888     18889     18888     18890     18888     18891     18892     18893
     18894     18898     18894     18895     18894     18896     18894     18897
     18898     18899     18900     18904     18900     18901     18900     18902
     18900     18903     18904     18905     18906     18910     18906     18907
     18906     18908     18906     18909     18910     18911     18912     18916
     18912     18913     18912     18914     18912     18915     18916     18917
     18918     18922     18918     18919     18918     18920     18918     18921
     18922     18923     18924     18928     18924     18925     18924     18926
     18924     18927     18928     18929     18930     18934     18930     18931
     18930     18932     18930     18933     18934     18935     18936     18940
     18936     18937     18936     18938     18936     18939     18940     18941
     18942     18946     18942     18943     18942     18944     18942     18945
     18946     18947     18948     18952     18948     18949     18948     18950
     18948     18951     18952     18953     18954     18958     18954     18955
     18954     18956     18954     18957     18958     18959     18960     18964
     18960     18961     18960     18962     18960     18963     18964     18965
     18966     18970     18966     18967     18966     18968     18966     18969
     18970     18971     18972     18976     18972     18973     18972     18974
     18972     18975     18976     18977     18978     18982     18978     18979
     18978     18980     18978     18981     18982     18983     18984     18988
     18984     18985     18984     18986     18984     18987     18988     18989
     18990     18994     18990     18991     18990     18992     18990     18993
     18994     18995     18996     19000     18996     18997     18996     18998
     18996     18999     19000     19001     19002     19006     19002     19003
     19002     19004     19002     19005     19006     19007     19008     19012
     19008     19009     19008     19010     19008     19011     19012     19013
     19014     19018     19014     19015     19014     19016     19014     19017
     19018     19019     19020     19024     19020     19021     19020     19022
     19020     19023     19024     19025     19026     19030     19026     19027
     19026     19028     19026     19029     19030     19031     19032     19036
     19032     19033     19032     19034     19032     19035     19036     19037
     19038     19042     19038     19039     19038     19040     19038     19041
     19042     19043     19044     19048     19044     19045     19044     19046
     19044     19047     19048     19049     19050     19054     19050     19051
     19050     19052     19050     19053     19054     19055     19056     19060
     19056     19057     19056     19058     19056     19059     19060     19061
     19062     19066     19062     19063     19062     19064     19062     19065
     19066     19067     19068     19072     19068     19069     19068     19070
     19068     19071     19072     19073     19074     19078     19074     19075
     19074     19076     19074     19077     19078     19079     19080     19084
     19080     19081     19080     19082     19080     19083     19084     19085
     19086     19090     19086     19087     19086     19088     19086     19089
     19090     19091     19092     19096     19092     19093     19092     19094
     19092     19095     19096     19097     19098     19102     19098     19099
     19098     19100     19098     19101     19102     19103     19104     19108
     19104     19105     19104     19106     19104     19107     19108     19109
     19110     19114     19110     19111     19110     19112     19110     19113
     19114     19115     19116     19120     19116     19117     19116     19118
     19116     19119     19120     19121     19122     19126     19122     19123
     19122     19124     19122     19125     19126     19127     19128     19132
     19128     19129     19128     19130     19128     19131     19132     19133
     19134     19138     19134     19135     19134     19136     19134     19137
     19138     19139     19140     19144     19140     19141     19140     19142
     19140     19143     19144     19145     19146     19150     19146     19147
     19146     19148     19146     19149     19150     19151     19152     19156
     19152     19153     19152     19154     19152     19155     19156     19157
     19158     19162     19158     19159     19158     19160     19158     19161
     19162     19163     19164     19168     19164     19165     19164     19166
     19164     19167     19168     19169     19170     19174     19170     19171
     19170     19172     19170     19173     19174     19175     19176     19180
     19176     19177     19176     19178     19176     19179     19180     19181
     19182     19186     19182     19183     19182     19184     19182     19185
     19186     19187     19188     19192     19188     19189     19188     19190
     19188     19191     19192     19193     19194     19198     19194     19195
     19194     19196     19194     19197     19198     19199     19200     19204
     19200     19201     19200     19202     19200     19203     19204     19205
     19206     19210     19206     19207     19206     19208     19206     19209
     19210     19211     19212     19216     19212     19213     19212     19214
     19212     19215     19216     19217     19218     19222     19218     19219
     19218     19220     19218     19221     19222     19223     19224     19228
     19224     19225     19224     19226     19224     19227     19228     19229
     19230     19234     19230     19231     19230     19232     19230     19233
     19234     19235     19236     19240     19236     19237     19236     19238
     19236     19239     19240     19241     19242     19246     19242     19243
     19242     19244     19242     19245     19246     19247     19248     19252
     19248     19249     19248     19250     19248     19251     19252     19253
     19254     19258     19254     19255     19254     19256     19254     19257
     19258     19259     19260     19264     19260     19261     19260     19262
     19260     19263     19264     19265     19266     19270     19266     19267
     19266     19268     19266     19269     19270     19271     19272     19276
     19272     19273     19272     19274     19272     19275     19276     19277
     19278     19282     19278     19279     19278     19280     19278     19281
     19282     19283     19284     19288     19284     19285     19284     19286
     19284     19287     19288     19289     19290     19294     19290     19291
     19290     19292     19290     19293     19294     19295     19296     19300
     19296     19297     19296     19298     19296     19299     19300     19301
     19302     19306     19302     19303     19302     19304     19302     19305
     19306     19307     19308     19312     19308     19309     19308     19310
     19308     19311     19312     19313     19314     19318     19314     19315
     19314     19316     19314     19317     19318     19319     19320     19324
     19320     19321     19320     19322     19320     19323     19324     19325
     19326     19330     19326     19327     19326     19328     19326     19329
     19330     19331     19332     19336     19332     19333     19332     19334
     19332     19335     19336     19337     19338     19342     19338     19339
     19338     19340     19338     19341     19342     19343     19344     19348
     19344     19345     19344     19346     19344     19347     19348     19349
     19350     19354     19350     19351     19350     19352     19350     19353
     19354     19355     19356     19360     19356     19357     19356     19358
     19356     19359     19360     19361     19362     19366     19362     19363
     19362     19364     19362     19365     19366     19367     19368     19372
     19368     19369     19368     19370     19368     19371     19372     19373
     19374     19378     19374     19375     19374     19376     19374     19377
     19378     19379     19380     19384     19380     19381     19380     19382
     19380     19383     19384     19385     19386     19390     19386     19387
     19386     19388     19386     19389     19390     19391     19392     19396
     19392     19393     19392     19394     19392     19395     19396     19397
     19398     19402     19398     19399     19398     19400     19398     19401
     19402     19403     19404     19408     19404     19405     19404     19406
     19404     19407     19408     19409     19410     19414     19410     19411
     19410     19412     19410     19413     19414     19415     19416     19420
     19416     19417     19416     19418     19416     19419     19420     19421
     19422     19426     19422     19423     19422     19424     19422     19425
     19426     19427     19428     19432     19428     19429     19428     19430
     19428     19431     19432     19433     19434     19438     19434     19435
     19434     19436     19434     19437     19438     19439     19440     19444
     19440     19441     19440     19442     19440     19443     19444     19445
     19446     19450     19446     19447     19446     19448     19446     19449
     19450     19451     19452     19456     19452     19453     19452     19454
     19452     19455     19456     19457     19458     19462     19458     19459
     19458     19460     19458     19461     19462     19463     19464     19468
     19464     19465     19464     19466     19464     19467     19468     19469
     19470     19474     19470     19471     19470     19472     19470     19473
     19474     19475     19476     19480     19476     19477     19476     19478
     19476     19479     19480     19481     19482     19486     19482     19483
     19482     19484     19482     19485     19486     19487     19488     19492
     19488     19489     19488     19490     19488     19491     19492     19493
     19494     19498     19494     19495     19494     19496     19494     19497
     19498     19499     19500     19504     19500     19501     19500     19502
     19500     19503     19504     19505     19506     19510     19506     19507
     19506     19508     19506     19509     19510     19511     19512     19516
     19512     19513     19512     19514     19512     19515     19516     19517
     19518     19522     19518     19519     19518     19520     19518     19521
     19522     19523     19524     19528     19524     19525     19524     19526
     19524     19527     19528     19529     19530     19534     19530     19531
     19530     19532     19530     19533     19534     19535     19536     19540
     19536     19537     19536     19538     19536     19539     19540     19541
     19542     19546     19542     19543     19542     19544     19542     19545
     19546     19547     19548     19552     19548     19549     19548     19550
     19548     19551     19552     19553     19554     19558     19554     19555
     19554     19556     19554     19557     19558     19559     19560     19564
     19560     19561     19560     19562     19560     19563     19564     19565
     19566     19570     19566     19567     19566     19568     19566     19569
     19570     19571     19572     19576     19572     19573     19572     19574
     19572     19575     19576     19577     19578     19582     19578     19579
     19578     19580     19578     19581     19582     19583     19584     19588
     19584     19585     19584     19586     19584     19587     19588     19589
     19590     19594     19590     19591     19590     19592     19590     19593
     19594     19595     19596     19600     19596     19597     19596     19598
     19596     19599     19600     19601     19602     19606     19602     19603
     19602     19604     19602     19605     19606     19607     19608     19612
     19608     19609     19608     19610     19608     19611     19612     19613
     19614     19618     19614     19615     19614     19616     19614     19617
     19618     19619     19620     19624     19620     19621     19620     19622
     19620     19623     19624     19625     19626     19630     19626     19627
     19626     19628     19626     19629     19630     19631     19632     19636
     19632     19633     19632     19634     19632     19635     19636     19637
     19638     19642     19638     19639     19638     19640     19638     19641
     19642     19643     19644     19648     19644     19645     19644     19646
     19644     19647     19648     19649     19650     19654     19650     19651
     19650     19652     19650     19653     19654     19655     19656     19660
     19656     19657     19656     19658     19656     19659     19660     19661
     19662     19666     19662     19663     19662     19664     19662     19665
     19666     19667     19668     19672     19668     19669     19668     19670
     19668     19671     19672     19673     19674     19678     19674     19675
     19674     19676     19674     19677     19678     19679     19680     19684
     19680     19681     19680     19682     19680     19683     19684     19685
     19686     19690     19686     19687     19686     19688     19686     19689
     19690     19691     19692     19696     19692     19693     19692     19694
     19692     19695     19696     19697     19698     19702     19698     19699
     19698     19700     19698     19701     19702     19703     19704     19708
     19704     19705     19704     19706     19704     19707     19708     19709
     19710     19714     19710     19711     19710     19712     19710     19713
     19714     19715     19716     19720     19716     19717     19716     19718
     19716     19719     19720     19721     19722     19726     19722     19723
     19722     19724     19722     19725     19726     19727     19728     19732
     19728     19729     19728     19730     19728     19731     19732     19733
     19734     19738     19734     19735     19734     19736     19734     19737
     19738     19739     19740     19744     19740     19741     19740     19742
     19740     19743     19744     19745     19746     19750     19746     19747
     19746     19748     19746     19749     19750     19751     19752     19756
     19752     19753     19752     19754     19752     19755     19756     19757
     19758     19762     19758     19759     19758     19760     19758     19761
     19762     19763     19764     19768     19764     19765     19764     19766
     19764     19767     19768     19769     19770     19774     19770     19771
     19770     19772     19770     19773     19774     19775     19776     19780
     19776     19777     19776     19778     19776     19779     19780     19781
     19782     19786     19782     19783     19782     19784     19782     19785
     19786     19787     19788     19792     19788     19789     19788     19790
     19788     19791     19792     19793     19794     19798     19794     19795
     19794     19796     19794     19797     19798     19799     19800     19804
     19800     19801     19800     19802     19800     19803     19804     19805
     19806     19810     19806     19807     19806     19808     19806     19809
     19810     19811     19812     19816     19812     19813     19812     19814
     19812     19815     19816     19817     19818     19822     19818     19819
     19818     19820     19818     19821     19822     19823     19824     19828
     19824     19825     19824     19826     19824     19827     19828     19829
     19830     19834     19830     19831     19830     19832     19830     19833
     19834     19835     19836     19840     19836     19837     19836     19838
     19836     19839     19840     19841     19842     19846     19842     19843
     19842     19844     19842     19845     19846     19847     19848     19852
     19848     19849     19848     19850     19848     19851     19852     19853
     19854     19858     19854     19855     19854     19856     19854     19857
     19858     19859     19860     19864     19860     19861     19860     19862
     19860     19863     19864     19865     19866     19870     19866     19867
     19866     19868     19866     19869     19870     19871     19872     19876
     19872     19873     19872     19874     19872     19875     19876     19877
     19878     19882     19878     19879     19878     19880     19878     19881
     19882     19883     19884     19888     19884     19885     19884     19886
     19884     19887     19888     19889     19890     19894     19890     19891
     19890     19892     19890     19893     19894     19895     19896     19900
     19896     19897     19896     19898     19896     19899     19900     19901
     19902     19906     19902     19903     19902     19904     19902     19905
     19906     19907     19908     19912     19908     19909     19908     19910
     19908     19911     19912     19913     19914     19918     19914     19915
     19914     19916     19914     19917     19918     19919     19920     19924
     19920     19921     19920     19922     19920     19923     19924     19925
     19926     19930     19926     19927     19926     19928     19926     19929
     19930     19931     19932     19936     19932     19933     19932     19934
     19932     19935     19936     19937     19938     19942     19938     19939
     19938     19940     19938     19941     19942     19943     19944     19948
     19944     19945     19944     19946     19944     19947     19948     19949
     19950     19954     19950     19951     19950     19952     19950     19953
     19954     19955     19956     19960     19956     19957     19956     19958
     19956     19959     19960     19961     19962     19966     19962     19963
     19962     19964     19962     19965     19966     19967     19968     19972
     19968     19969     19968     19970     19968     19971     19972     19973
     19974     19978     19974     19975     19974     19976     19974     19977
     19978     19979     19980     19984     19980     19981     19980     19982
     19980     19983     19984     19985     19986     19990     19986     19987
     19986     19988     19986     19989     19990     19991     19992     19996
     19992     19993     19992     19994     19992     19995     19996     19997
     19998     20002     19998     19999     19998     20000     19998     20001
     20002     20003     20004     20008     20004     20005     20004     20006
     20004     20007     20008     20009     20010     20014     20010     20011
     20010     20012     20010     20013     20014     20015     20016     20020
     20016     20017     20016     20018     20016     20019     20020     20021
     20022     20026     20022     20023     20022     20024     20022     20025
     20026     20027     20028     20032     20028     20029     20028     20030
     20028     20031     20032     20033     20034     20038     20034     20035
     20034     20036     20034     20037     20038     20039     20040     20044
     20040     20041     20040     20042     20040     20043     20044     20045
     20046     20050     20046     20047     20046     20048     20046     20049
     20050     20051     20052     20056     20052     20053     20052     20054
     20052     20055     20056     20057     20058     20062     20058     20059
     20058     20060     20058     20061     20062     20063     20064     20068
     20064     20065     20064     20066     20064     20067     20068     20069
     20070     20074     20070     20071     20070     20072     20070     20073
     20074     20075     20076     20080     20076     20077     20076     20078
     20076     20079     20080     20081     20082     20086     20082     20083
     20082     20084     20082     20085     20086     20087     20088     20092
     20088     20089     20088     20090     20088     20091     20092     20093
     20094     20098     20094     20095     20094     20096     20094     20097
     20098     20099     20100     20104     20100     20101     20100     20102
     20100     20103     20104     20105     20106     20110     20106     20107
     20106     20108     20106     20109     20110     20111     20112     20116
     20112     20113     20112     20114     20112     20115     20116     20117
     20118     20122     20118     20119     20118     20120     20118     20121
     20122     20123     20124     20128     20124     20125     20124     20126
     20124     20127     20128     20129     20130     20134     20130     20131
     20130     20132     20130     20133     20134     20135     20136     20140
     20136     20137     20136     20138     20136     20139     20140     20141
     20142     20146     20142     20143     20142     20144     20142     20145
     20146     20147     20148     20152     20148     20149     20148     20150
     20148     20151     20152     20153     20154     20158     20154     20155
     20154     20156     20154     20157     20158     20159     20160     20164
     20160     20161     20160     20162     20160     20163     20164     20165
     20166     20170     20166     20167     20166     20168     20166     20169
     20170     20171     20172     20176     20172     20173     20172     20174
     20172     20175     20176     20177     20178     20182     20178     20179
     20178     20180     20178     20181     20182     20183     20184     20188
     20184     20185     20184     20186     20184     20187     20188     20189
     20190     20194     20190     20191     20190     20192     20190     20193
     20194     20195     20196     20200     20196     20197     20196     20198
     20196     20199     20200     20201     20202     20206     20202     20203
     20202     20204     20202     20205     20206     20207     20208     20212
     20208     20209     20208     20210     20208     20211     20212     20213
     20214     20218     20214     20215     20214     20216     20214     20217
     20218     20219     20220     20224     20220     20221     20220     20222
     20220     20223     20224     20225     20226     20230     20226     20227
     20226     20228     20226     20229     20230     20231     20232     20236
     20232     20233     20232     20234     20232     20235     20236     20237
     20238     20242     20238     20239     20238     20240     20238     20241
     20242     20243     20244     20248     20244     20245     20244     20246
     20244     20247     20248     20249     20250     20254     20250     20251
     20250     20252     20250     20253     20254     20255     20256     20260
     20256     20257     20256     20258     20256     20259     20260     20261
     20262     20266     20262     20263     20262     20264     20262     20265
     20266     20267     20268     20272     20268     20269     20268     20270
     20268     20271     20272     20273     20274     20278     20274     20275
     20274     20276     20274     20277     20278     20279     20280     20284
     20280     20281     20280     20282     20280     20283     20284     20285
     20286     20290     20286     20287     20286     20288     20286     20289
     20290     20291     20292     20296     20292     20293     20292     20294
     20292     20295     20296     20297     20298     20302     20298     20299
     20298     20300     20298     20301     20302     20303     20304     20308
     20304     20305     20304     20306     20304     20307     20308     20309
     20310     20314     20310     20311     20310     20312     20310     20313
     20314     20315     20316     20320     20316     20317     20316     20318
     20316     20319     20320     20321     20322     20326     20322     20323
     20322     20324     20322     20325     20326     20327     20328     20332
     20328     20329     20328     20330     20328     20331     20332     20333
     20334     20338     20334     20335     20334     20336     20334     20337
     20338     20339     20340     20344     20340     20341     20340     20342
     20340     20343     20344     20345     20346     20350     20346     20347
     20346     20348     20346     20349     20350     20351     20352     20356
     20352     20353     20352     20354     20352     20355     20356     20357
     20358     20362     20358     20359     20358     20360     20358     20361
     20362     20363     20364     20368     20364     20365     20364     20366
     20364     20367     20368     20369     20370     20374     20370     20371
     20370     20372     20370     20373     20374     20375     20376     20380
     20376     20377     20376     20378     20376     20379     20380     20381
     20382     20386     20382     20383     20382     20384     20382     20385
     20386     20387     20388     20392     20388     20389     20388     20390
     20388     20391     20392     20393     20394     20398     20394     20395
     20394     20396     20394     20397     20398     20399     20400     20404
     20400     20401     20400     20402     20400     20403     20404     20405
     20406     20410     20406     20407     20406     20408     20406     20409
     20410     20411     20412     20416     20412     20413     20412     20414
     20412     20415     20416     20417     20418     20422     20418     20419
     20418     20420     20418     20421     20422     20423     20424     20428
     20424     20425     20424     20426     20424     20427     20428     20429
     20430     20434     20430     20431     20430     20432     20430     20433
     20434     20435     20436     20440     20436     20437     20436     20438
     20436     20439     20440     20441     20442     20446     20442     20443
     20442     20444     20442     20445     20446     20447     20448     20452
     20448     20449     20448     20450     20448     20451     20452     20453
     20454     20458     20454     20455     20454     20456     20454     20457
     20458     20459     20460     20464     20460     20461     20460     20462
     20460     20463     20464     20465     20466     20470     20466     20467
     20466     20468     20466     20469     20470     20471     20472     20476
     20472     20473     20472     20474     20472     20475     20476     20477
     20478     20482     20478     20479     20478     20480     20478     20481
     20482     20483     20484     20488     20484     20485     20484     20486
     20484     20487     20488     20489     20490     20494     20490     20491
     20490     20492     20490     20493     20494     20495     20496     20500
     20496     20497     20496     20498     20496     20499     20500     20501
     20502     20506     20502     20503     20502     20504     20502     20505
     20506     20507     20508     20512     20508     20509     20508     20510
     20508     20511     20512     20513     20514     20518     20514     20515
     20514     20516     20514     20517     20518     20519     20520     20524
     20520     20521     20520     20522     20520     20523     20524     20525
     20526     20530     20526     20527     20526     20528     20526     20529
     20530     20531     20532     20536     20532     20533     20532     20534
     20532     20535     20536     20537     20538     20542     20538     20539
     20538     20540     20538     20541     20542     20543     20544     20548
     20544     20545     20544     20546     20544     20547     20548     20549
     20550     20554     20550     20551     20550     20552     20550     20553
     20554     20555     20556     20560     20556     20557     20556     20558
     20556     20559     20560     20561     20562     20566     20562     20563
     20562     20564     20562     20565     20566     20567     20568     20572
     20568     20569     20568     20570     20568     20571     20572     20573
     20574     20578     20574     20575     20574     20576     20574     20577
     20578     20579     20580     20584     20580     20581     20580     20582
     20580     20583     20584     20585     20586     20590     20586     20587
     20586     20588     20586     20589     20590     20591     20592     20596
     20592     20593     20592     20594     20592     20595     20596     20597
     20598     20602     20598     20599     20598     20600     20598     20601
     20602     20603     20604     20608     20604     20605     20604     20606
     20604     20607     20608     20609     20610     20614     20610     20611
     20610     20612     20610     20613     20614     20615     20616     20620
     20616     20617     20616     20618     20616     20619     20620     20621
     20622     20626     20622     20623     20622     20624     20622     20625
     20626     20627     20628     20632     20628     20629     20628     20630
     20628     20631     20632     20633     20634     20638     20634     20635
     20634     20636     20634     20637     20638     20639     20640     20644
     20640     20641     20640     20642     20640     20643     20644     20645
     20646     20650     20646     20647     20646     20648     20646     20649
     20650     20651     20652     20656     20652     20653     20652     20654
     20652     20655     20656     20657     20658     20662     20658     20659
     20658     20660     20658     20661     20662     20663     20664     20668
     20664     20665     20664     20666     20664     20667     20668     20669
     20670     20674     20670     20671     20670     20672     20670     20673
     20674     20675     20676     20680     20676     20677     20676     20678
     20676     20679     20680     20681     20682     20686     20682     20683
     20682     20684     20682     20685     20686     20687     20688     20692
     20688     20689     20688     20690     20688     20691     20692     20693
     20694     20698     20694     20695     20694     20696     20694     20697
     20698     20699     20700     20704     20700     20701     20700     20702
     20700     20703     20704     20705     20706     20710     20706     20707
     20706     20708     20706     20709     20710     20711     20712     20716
     20712     20713     20712     20714     20712     20715     20716     20717
     20718     20722     20718     20719     20718     20720     20718     20721
     20722     20723     20724     20728     20724     20725     20724     20726
     20724     20727     20728     20729     20730     20734     20730     20731
     20730     20732     20730     20733     20734     20735     20736     20740
     20736     20737     20736     20738     20736     20739     20740     20741
     20742     20746     20742     20743     20742     20744     20742     20745
     20746     20747     20748     20752     20748     20749     20748     20750
     20748     20751     20752     20753     20754     20758     20754     20755
     20754     20756     20754     20757     20758     20759     20760     20764
     20760     20761     20760     20762     20760     20763     20764     20765
     20766     20770     20766     20767     20766     20768     20766     20769
     20770     20771     20772     20776     20772     20773     20772     20774
     20772     20775     20776     20777     20778     20782     20778     20779
     20778     20780     20778     20781     20782     20783     20784     20788
     20784     20785     20784     20786     20784     20787     20788     20789
     20790     20794     20790     20791     20790     20792     20790     20793
     20794     20795     20796     20800     20796     20797     20796     20798
     20796     20799     20800     20801     20802     20806     20802     20803
     20802     20804     20802     20805     20806     20807     20808     20812
     20808     20809     20808     20810     20808     20811     20812     20813
     20814     20818     20814     20815     20814     20816     20814     20817
     20818     20819     20820     20824     20820     20821     20820     20822
     20820     20823     20824     20825     20826     20830     20826     20827
     20826     20828     20826     20829     20830     20831     20832     20836
     20832     20833     20832     20834     20832     20835     20836     20837
     20838     20842     20838     20839     20838     20840     20838     20841
     20842     20843     20844     20848     20844     20845     20844     20846
     20844     20847     20848     20849     20850     20854     20850     20851
     20850     20852     20850     20853     20854     20855     20856     20860
     20856     20857     20856     20858     20856     20859     20860     20861
     20862     20866     20862     20863     20862     20864     20862     20865
     20866     20867     20868     20872     20868     20869     20868     20870
     20868     20871     20872     20873     20874     20878     20874     20875
     20874     20876     20874     20877     20878     20879     20880     20884
     20880     20881     20880     20882     20880     20883     20884     20885
     20886     20890     20886     20887     20886     20888     20886     20889
     20890     20891     20892     20896     20892     20893     20892     20894
     20892     20895     20896     20897     20898     20902     20898     20899
     20898     20900     20898     20901     20902     20903     20904     20908
     20904     20905     20904     20906     20904     20907     20908     20909
     20910     20914     20910     20911     20910     20912     20910     20913
     20914     20915     20916     20920     20916     20917     20916     20918
     20916     20919     20920     20921     20922     20926     20922     20923
     20922     20924     20922     20925     20926     20927     20928     20932
     20928     20929     20928     20930     20928     20931     20932     20933
     20934     20938     20934     20935     20934     20936     20934     20937
     20938     20939     20940     20944     20940     20941     20940     20942
     20940     20943     20944     20945     20946     20950     20946     20947
     20946     20948     20946     20949     20950     20951     20952     20956
     20952     20953     20952     20954     20952     20955     20956     20957
     20958     20962     20958     20959     20958     20960     20958     20961
     20962     20963     20964     20968     20964     20965     20964     20966
     20964     20967     20968     20969     20970     20974     20970     20971
     20970     20972     20970     20973     20974     20975     20976     20980
     20976     20977     20976     20978     20976     20979     20980     20981
     20982     20986     20982     20983     20982     20984     20982     20985
     20986     20987     20988     20992     20988     20989     20988     20990
     20988     20991     20992     20993     20994     20998     20994     20995
     20994     20996     20994     20997     20998     20999     21000     21004
     21000     21001     21000     21002     21000     21003     21004     21005
     21006     21010     21006     21007     21006     21008     21006     21009
     21010     21011     21012     21016     21012     21013     21012     21014
     21012     21015     21016     21017     21018     21022     21018     21019
     21018     21020     21018     21021     21022     21023     21024     21028
     21024     21025     21024     21026     21024     21027     21028     21029
     21030     21034     21030     21031     21030     21032     21030     21033
     21034     21035     21036     21040     21036     21037     21036     21038
     21036     21039     21040     21041     21042     21046     21042     21043
     21042     21044     21042     21045     21046     21047     21048     21052
     21048     21049     21048     21050     21048     21051     21052     21053
     21054     21058     21054     21055     21054     21056     21054     21057
     21058     21059     21060     21064     21060     21061     21060     21062
     21060     21063     21064     21065     21066     21070     21066     21067
     21066     21068     21066     21069     21070     21071     21072     21076
     21072     21073     21072     21074     21072     21075     21076     21077
     21078     21082     21078     21079     21078     21080     21078     21081
     21082     21083     21084     21088     21084     21085     21084     21086
     21084     21087     21088     21089     21090     21094     21090     21091
     21090     21092     21090     21093     21094     21095     21096     21100
     21096     21097     21096     21098     21096     21099     21100     21101
     21102     21106     21102     21103     21102     21104     21102     21105
     21106     21107     21108     21112     21108     21109     21108     21110
     21108     21111     21112     21113     21114     21118     21114     21115
     21114     21116     21114     21117     21118     21119     21120     21124
     21120     21121     21120     21122     21120     21123     21124     21125
     21126     21130     21126     21127     21126     21128     21126     21129
     21130     21131     21132     21136     21132     21133     21132     21134
     21132     21135     21136     21137     21138     21142     21138     21139
     21138     21140     21138     21141     21142     21143     21144     21148
     21144     21145     21144     21146     21144     21147     21148     21149
     21150     21154     21150     21151     21150     21152     21150     21153
     21154     21155     21156     21160     21156     21157     21156     21158
     21156     21159     21160     21161     21162     21166     21162     21163
     21162     21164     21162     21165     21166     21167     21168     21172
     21168     21169     21168     21170     21168     21171     21172     21173
     21174     21178     21174     21175     21174     21176     21174     21177
     21178     21179     21180     21184     21180     21181     21180     21182
     21180     21183     21184     21185     21186     21190     21186     21187
     21186     21188     21186     21189     21190     21191     21192     21196
     21192     21193     21192     21194     21192     21195     21196     21197
     21198     21202     21198     21199     21198     21200     21198     21201
     21202     21203     21204     21208     21204     21205     21204     21206
     21204     21207     21208     21209     21210     21214     21210     21211
     21210     21212     21210     21213     21214     21215     21216     21220
     21216     21217     21216     21218     21216     21219     21220     21221
     21222     21226     21222     21223     21222     21224     21222     21225
     21226     21227     21228     21232     21228     21229     21228     21230
     21228     21231     21232     21233     21234     21238     21234     21235
     21234     21236     21234     21237     21238     21239     21240     21244
     21240     21241     21240     21242     21240     21243     21244     21245
     21246     21250     21246     21247     21246     21248     21246     21249
     21250     21251     21252     21256     21252     21253     21252     21254
     21252     21255     21256     21257     21258     21262     21258     21259
     21258     21260     21258     21261     21262     21263     21264     21268
     21264     21265     21264     21266     21264     21267     21268     21269
     21270     21274     21270     21271     21270     21272     21270     21273
     21274     21275     21276     21280     21276     21277     21276     21278
     21276     21279     21280     21281     21282     21286     21282     21283
     21282     21284     21282     21285     21286     21287     21288     21292
     21288     21289     21288     21290     21288     21291     21292     21293
     21294     21298     21294     21295     21294     21296     21294     21297
     21298     21299     21300     21304     21300     21301     21300     21302
     21300     21303     21304     21305     21306     21310     21306     21307
     21306     21308     21306     21309     21310     21311     21312     21316
     21312     21313     21312     21314     21312     21315     21316     21317
     21318     21322     21318     21319     21318     21320     21318     21321
     21322     21323     21324     21328     21324     21325     21324     21326
     21324     21327     21328     21329     21330     21334     21330     21331
     21330     21332     21330     21333     21334     21335     21336     21340
     21336     21337     21336     21338     21336     21339     21340     21341
     21342     21346     21342     21343     21342     21344     21342     21345
     21346     21347     21348     21352     21348     21349     21348     21350
     21348     21351     21352     21353     21354     21358     21354     21355
     21354     21356     21354     21357     21358     21359     21360     21364
     21360     21361     21360     21362     21360     21363     21364     21365
     21366     21370     21366     21367     21366     21368     21366     21369
     21370     21371     21372     21376     21372     21373     21372     21374
     21372     21375     21376     21377     21378     21382     21378     21379
     21378     21380     21378     21381     21382     21383     21384     21388
     21384     21385     21384     21386     21384     21387     21388     21389
     21390     21394     21390     21391     21390     21392     21390     21393
     21394     21395     21396     21400     21396     21397     21396     21398
     21396     21399     21400     21401     21402     21406     21402     21403
     21402     21404     21402     21405     21406     21407     21408     21412
     21408     21409     21408     21410     21408     21411     21412     21413
     21414     21418     21414     21415     21414     21416     21414     21417
     21418     21419     21420     21424     21420     21421     21420     21422
     21420     21423     21424     21425     21426     21430     21426     21427
     21426     21428     21426     21429     21430     21431     21432     21436
     21432     21433     21432     21434     21432     21435     21436     21437
     21438     21442     21438     21439     21438     21440     21438     21441
     21442     21443     21444     21448     21444     21445     21444     21446
     21444     21447     21448     21449     21450     21454     21450     21451
     21450     21452     21450     21453     21454     21455     21456     21460
     21456     21457     21456     21458     21456     21459     21460     21461
     21462     21466     21462     21463     21462     21464     21462     21465
     21466     21467     21468     21472     21468     21469     21468     21470
     21468     21471     21472     21473     21474     21478     21474     21475
     21474     21476     21474     21477     21478     21479     21480     21484
     21480     21481     21480     21482     21480     21483     21484     21485
     21486     21490     21486     21487     21486     21488     21486     21489
     21490     21491     21492     21496     21492     21493     21492     21494
     21492     21495     21496     21497     21498     21502     21498     21499
     21498     21500     21498     21501     21502     21503     21504     21508
     21504     21505     21504     21506     21504     21507     21508     21509
     21510     21514     21510     21511     21510     21512     21510     21513
     21514     21515     21516     21520     21516     21517     21516     21518
     21516     21519     21520     21521     21522     21526     21522     21523
     21522     21524     21522     21525     21526     21527     21528     21532
     21528     21529     21528     21530     21528     21531     21532     21533
     21534     21538     21534     21535     21534     21536     21534     21537
     21538     21539     21540     21544     21540     21541     21540     21542
     21540     21543     21544     21545     21546     21550     21546     21547
     21546     21548     21546     21549     21550     21551     21552     21556
     21552     21553     21552     21554     21552     21555     21556     21557
     21558     21562     21558     21559     21558     21560     21558     21561
     21562     21563     21564     21568     21564     21565     21564     21566
     21564     21567     21568     21569     21570     21574     21570     21571
     21570     21572     21570     21573     21574     21575     21576     21580
     21576     21577     21576     21578     21576     21579     21580     21581
     21582     21586     21582     21583     21582     21584     21582     21585
     21586     21587     21588     21592     21588     21589     21588     21590
     21588     21591     21592     21593     21594     21598     21594     21595
     21594     21596     21594     21597     21598     21599     21600     21604
     21600     21601     21600     21602     21600     21603     21604     21605
     21606     21610     21606     21607     21606     21608     21606     21609
     21610     21611     21612     21616     21612     21613     21612     21614
     21612     21615     21616     21617     21618     21622     21618     21619
     21618     21620     21618     21621     21622     21623     21624     21628
     21624     21625     21624     21626     21624     21627     21628     21629
     21630     21634     21630     21631     21630     21632     21630     21633
     21634     21635     21636     21640     21636     21637     21636     21638
     21636     21639     21640     21641     21642     21646     21642     21643
     21642     21644     21642     21645     21646     21647     21648     21652
     21648     21649     21648     21650     21648     21651     21652     21653
     21654     21658     21654     21655     21654     21656     21654     21657
     21658     21659     21660     21664     21660     21661     21660     21662
     21660     21663     21664     21665     21666     21670     21666     21667
     21666     21668     21666     21669     21670     21671     21672     21676
     21672     21673     21672     21674     21672     21675     21676     21677
     21678     21682     21678     21679     21678     21680     21678     21681
     21682     21683     21684     21688     21684     21685     21684     21686
     21684     21687     21688     21689     21690     21694     21690     21691
     21690     21692     21690     21693     21694     21695     21696     21700
     21696     21697     21696     21698     21696     21699     21700     21701
     21702     21706     21702     21703     21702     21704     21702     21705
     21706     21707     21708     21712     21708     21709     21708     21710
     21708     21711     21712     21713     21714     21718     21714     21715
     21714     21716     21714     21717     21718     21719     21720     21724
     21720     21721     21720     21722     21720     21723     21724     21725
     21726     21730     21726     21727     21726     21728     21726     21729
     21730     21731     21732     21736     21732     21733     21732     21734
     21732     21735     21736     21737     21738     21742     21738     21739
     21738     21740     21738     21741     21742     21743     21744     21748
     21744     21745     21744     21746     21744     21747     21748     21749
     21750     21754     21750     21751     21750     21752     21750     21753
     21754     21755     21756     21760     21756     21757     21756     21758
     21756     21759     21760     21761     21762     21766     21762     21763
     21762     21764     21762     21765     21766     21767     21768     21772
     21768     21769     21768     21770     21768     21771     21772     21773
     21774     21778     21774     21775     21774     21776     21774     21777
     21778     21779     21780     21784     21780     21781     21780     21782
     21780     21783     21784     21785     21786     21790     21786     21787
     21786     21788     21786     21789     21790     21791     21792     21796
     21792     21793     21792     21794     21792     21795     21796     21797
     21798     21802     21798     21799     21798     21800     21798     21801
     21802     21803     21804     21808     21804     21805     21804     21806
     21804     21807     21808     21809     21810     21814     21810     21811
     21810     21812     21810     21813     21814     21815     21816     21820
     21816     21817     21816     21818     21816     21819     21820     21821
     21822     21826     21822     21823     21822     21824     21822     21825
     21826     21827     21828     21832     21828     21829     21828     21830
     21828     21831     21832     21833     21834     21838     21834     21835
     21834     21836     21834     21837     21838     21839     21840     21844
     21840     21841     21840     21842     21840     21843     21844     21845
     21846     21850     21846     21847     21846     21848     21846     21849
     21850     21851     21852     21856     21852     21853     21852     21854
     21852     21855     21856     21857     21858     21862     21858     21859
     21858     21860     21858     21861     21862     21863     21864     21868
     21864     21865     21864     21866     21864     21867     21868     21869
     21870     21874     21870     21871     21870     21872     21870     21873
     21874     21875     21876     21880     21876     21877     21876     21878
     21876     21879     21880     21881     21882     21886     21882     21883
     21882     21884     21882     21885     21886     21887     21888     21892
     21888     21889     21888     21890     21888     21891     21892     21893
     21894     21898     21894     21895     21894     21896     21894     21897
     21898     21899     21900     21904     21900     21901     21900     21902
     21900     21903     21904     21905     21906     21910     21906     21907
     21906     21908     21906     21909     21910     21911     21912     21916
     21912     21913     21912     21914     21912     21915     21916     21917
     21918     21922     21918     21919     21918     21920     21918     21921
     21922     21923     21924     21928     21924     21925     21924     21926
     21924     21927     21928     21929     21930     21934     21930     21931
     21930     21932     21930     21933     21934     21935     21936     21940
     21936     21937     21936     21938     21936     21939     21940     21941
     21942     21946     21942     21943     21942     21944     21942     21945
     21946     21947     21948     21952     21948     21949     21948     21950
     21948     21951     21952     21953     21954     21958     21954     21955
     21954     21956     21954     21957     21958     21959     21960     21964
     21960     21961     21960     21962     21960     21963     21964     21965
     21966     21970     21966     21967     21966     21968     21966     21969
     21970     21971     21972     21976     21972     21973     21972     21974
     21972     21975     21976     21977     21978     21982     21978     21979
     21978     21980     21978     21981     21982     21983     21984     21988
     21984     21985     21984     21986     21984     21987     21988     21989
     21990     21994     21990     21991     21990     21992     21990     21993
     21994     21995     21996     22000     21996     21997     21996     21998
     21996     21999     22000     22001     22002     22006     22002     22003
     22002     22004     22002     22005     22006     22007     22008     22012
     22008     22009     22008     22010     22008     22011     22012     22013
     22014     22018     22014     22015     22014     22016     22014     22017
     22018     22019     22020     22024     22020     22021     22020     22022
     22020     22023     22024     22025     22026     22030     22026     22027
     22026     22028     22026     22029     22030     22031     22032     22036
     22032     22033     22032     22034     22032     22035     22036     22037
     22038     22042     22038     22039     22038     22040     22038     22041
     22042     22043     22044     22048     22044     22045     22044     22046
     22044     22047     22048     22049     22050     22054     22050     22051
     22050     22052     22050     22053     22054     22055     22056     22060
     22056     22057     22056     22058     22056     22059     22060     22061
     22062     22066     22062     22063     22062     22064     22062     22065
     22066     22067     22068     22072     22068     22069     22068     22070
     22068     22071     22072     22073     22074     22078     22074     22075
     22074     22076     22074     22077     22078     22079     22080     22084
     22080     22081     22080     22082     22080     22083     22084     22085
     22086     22090     22086     22087     22086     22088     22086     22089
     22090     22091     22092     22096     22092     22093     22092     22094
     22092     22095     22096     22097     22098     22102     22098     22099
     22098     22100     22098     22101     22102     22103     22104     22108
     22104     22105     22104     22106     22104     22107     22108     22109
     22110     22114     22110     22111     22110     22112     22110     22113
     22114     22115     22116     22120     22116     22117     22116     22118
     22116     22119     22120     22121     22122     22126     22122     22123
     22122     22124     22122     22125     22126     22127     22128     22132
     22128     22129     22128     22130     22128     22131     22132     22133
     22134     22138     22134     22135     22134     22136     22134     22137
     22138     22139     22140     22144     22140     22141     22140     22142
     22140     22143     22144     22145     22146     22150     22146     22147
     22146     22148     22146     22149     22150     22151     22152     22156
     22152     22153     22152     22154     22152     22155     22156     22157
     22158     22162     22158     22159     22158     22160     22158     22161
     22162     22163     22164     22168     22164     22165     22164     22166
     22164     22167     22168     22169     22170     22174     22170     22171
     22170     22172     22170     22173     22174     22175     22176     22180
     22176     22177     22176     22178     22176     22179     22180     22181
     22182     22186     22182     22183     22182     22184     22182     22185
     22186     22187     22188     22192     22188     22189     22188     22190
     22188     22191     22192     22193     22194     22198     22194     22195
     22194     22196     22194     22197     22198     22199     22200     22204
     22200     22201     22200     22202     22200     22203     22204     22205
     22206     22210     22206     22207     22206     22208     22206     22209
     22210     22211     22212     22216     22212     22213     22212     22214
     22212     22215     22216     22217     22218     22222     22218     22219
     22218     22220     22218     22221     22222     22223     22224     22228
     22224     22225     22224     22226     22224     22227     22228     22229
     22230     22234     22230     22231     22230     22232     22230     22233
     22234     22235     22236     22240     22236     22237     22236     22238
     22236     22239     22240     22241     22242     22246     22242     22243
     22242     22244     22242     22245     22246     22247     22248     22252
     22248     22249     22248     22250     22248     22251     22252     22253
     22254     22258     22254     22255     22254     22256     22254     22257
     22258     22259     22260     22264     22260     22261     22260     22262
     22260     22263     22264     22265     22266     22270     22266     22267
     22266     22268     22266     22269     22270     22271     22272     22276
     22272     22273     22272     22274     22272     22275     22276     22277
     22278     22282     22278     22279     22278     22280     22278     22281
     22282     22283     22284     22288     22284     22285     22284     22286
     22284     22287     22288     22289     22290     22294     22290     22291
     22290     22292     22290     22293     22294     22295     22296     22300
     22296     22297     22296     22298     22296     22299     22300     22301
     22302     22306     22302     22303     22302     22304     22302     22305
     22306     22307     22308     22312     22308     22309     22308     22310
     22308     22311     22312     22313     22314     22318     22314     22315
     22314     22316     22314     22317     22318     22319     22320     22324
     22320     22321     22320     22322     22320     22323     22324     22325
     22326     22330     22326     22327     22326     22328     22326     22329
     22330     22331     22332     22336     22332     22333     22332     22334
     22332     22335     22336     22337     22338     22342     22338     22339
     22338     22340     22338     22341     22342     22343     22344     22348
     22344     22345     22344     22346     22344     22347     22348     22349
     22350     22354     22350     22351     22350     22352     22350     22353
     22354     22355     22356     22360     22356     22357     22356     22358
     22356     22359     22360     22361     22362     22366     22362     22363
     22362     22364     22362     22365     22366     22367     22368     22372
     22368     22369     22368     22370     22368     22371     22372     22373
     22374     22378     22374     22375     22374     22376     22374     22377
     22378     22379     22380     22384     22380     22381     22380     22382
     22380     22383     22384     22385     22386     22390     22386     22387
     22386     22388     22386     22389     22390     22391     22392     22396
     22392     22393     22392     22394     22392     22395     22396     22397
     22398     22402     22398     22399     22398     22400     22398     22401
     22402     22403     22404     22408     22404     22405     22404     22406
     22404     22407     22408     22409     22410     22414     22410     22411
     22410     22412     22410     22413     22414     22415     22416     22420
     22416     22417     22416     22418     22416     22419     22420     22421
     22422     22426     22422     22423     22422     22424     22422     22425
     22426     22427     22428     22432     22428     22429     22428     22430
     22428     22431     22432     22433     22434     22438     22434     22435
     22434     22436     22434     22437     22438     22439     22440     22444
     22440     22441     22440     22442     22440     22443     22444     22445
     22446     22450     22446     22447     22446     22448     22446     22449
     22450     22451     22452     22456     22452     22453     22452     22454
     22452     22455     22456     22457     22458     22462     22458     22459
     22458     22460     22458     22461     22462     22463     22464     22468
     22464     22465     22464     22466     22464     22467     22468     22469
     22470     22474     22470     22471     22470     22472     22470     22473
     22474     22475     22476     22480     22476     22477     22476     22478
     22476     22479     22480     22481     22482     22486     22482     22483
     22482     22484     22482     22485     22486     22487     22488     22492
     22488     22489     22488     22490     22488     22491     22492     22493
     22494     22498     22494     22495     22494     22496     22494     22497
     22498     22499     22500     22504     22500     22501     22500     22502
     22500     22503     22504     22505     22506     22510     22506     22507
     22506     22508     22506     22509     22510     22511     22512     22516
     22512     22513     22512     22514     22512     22515     22516     22517
     22518     22522     22518     22519     22518     22520     22518     22521
     22522     22523     22524     22528     22524     22525     22524     22526
     22524     22527     22528     22529     22530     22534     22530     22531
     22530     22532     22530     22533     22534     22535     22536     22540
     22536     22537     22536     22538     22536     22539     22540     22541
     22542     22546     22542     22543     22542     22544     22542     22545
     22546     22547     22548     22552     22548     22549     22548     22550
     22548     22551     22552     22553     22554     22558     22554     22555
     22554     22556     22554     22557     22558     22559     22560     22564
     22560     22561     22560     22562     22560     22563     22564     22565
     22566     22570     22566     22567     22566     22568     22566     22569
     22570     22571     22572     22576     22572     22573     22572     22574
     22572     22575     22576     22577     22578     22582     22578     22579
     22578     22580     22578     22581     22582     22583     22584     22588
     22584     22585     22584     22586     22584     22587     22588     22589
     22590     22594     22590     22591     22590     22592     22590     22593
     22594     22595     22596     22600     22596     22597     22596     22598
     22596     22599     22600     22601     22602     22606     22602     22603
     22602     22604     22602     22605     22606     22607     22608     22612
     22608     22609     22608     22610     22608     22611     22612     22613
     22614     22618     22614     22615     22614     22616     22614     22617
     22618     22619     22620     22624     22620     22621     22620     22622
     22620     22623     22624     22625     22626     22630     22626     22627
     22626     22628     22626     22629     22630     22631     22632     22636
     22632     22633     22632     22634     22632     22635     22636     22637
     22638     22642     22638     22639     22638     22640     22638     22641
     22642     22643     22644     22648     22644     22645     22644     22646
     22644     22647     22648     22649     22650     22654     22650     22651
     22650     22652     22650     22653     22654     22655     22656     22660
     22656     22657     22656     22658     22656     22659     22660     22661
     22662     22666     22662     22663     22662     22664     22662     22665
     22666     22667     22668     22672     22668     22669     22668     22670
     22668     22671     22672     22673     22674     22678     22674     22675
     22674     22676     22674     22677     22678     22679     22680     22684
     22680     22681     22680     22682     22680     22683     22684     22685
     22686     22690     22686     22687     22686     22688     22686     22689
     22690     22691     22692     22696     22692     22693     22692     22694
     22692     22695     22696     22697     22698     22702     22698     22699
     22698     22700     22698     22701     22702     22703     22704     22708
     22704     22705     22704     22706     22704     22707     22708     22709
     22710     22714     22710     22711     22710     22712     22710     22713
     22714     22715     22716     22720     22716     22717     22716     22718
     22716     22719     22720     22721     22722     22726     22722     22723
     22722     22724     22722     22725     22726     22727     22728     22732
     22728     22729     22728     22730     22728     22731     22732     22733
     22734     22738     22734     22735     22734     22736     22734     22737
     22738     22739     22740     22744     22740     22741     22740     22742
     22740     22743     22744     22745     22746     22750     22746     22747
     22746     22748     22746     22749     22750     22751     22752     22756
     22752     22753     22752     22754     22752     22755     22756     22757
     22758     22762     22758     22759     22758     22760     22758     22761
     22762     22763     22764     22768     22764     22765     22764     22766
     22764     22767     22768     22769     22770     22774     22770     22771
     22770     22772     22770     22773     22774     22775     22776     22780
     22776     22777     22776     22778     22776     22779     22780     22781
     22782     22786     22782     22783     22782     22784     22782     22785
     22786     22787     22788     22792     22788     22789     22788     22790
     22788     22791     22792     22793     22794     22798     22794     22795
     22794     22796     22794     22797     22798     22799     22800     22804
     22800     22801     22800     22802     22800     22803     22804     22805
     22806     22810     22806     22807     22806     22808     22806     22809
     22810     22811     22812     22816     22812     22813     22812     22814
     22812     22815     22816     22817     22818     22822     22818     22819
     22818     22820     22818     22821     22822     22823     22824     22828
     22824     22825     22824     22826     22824     22827     22828     22829
     22830     22834     22830     22831     22830     22832     22830     22833
     22834     22835     22836     22840     22836     22837     22836     22838
     22836     22839     22840     22841     22842     22846     22842     22843
     22842     22844     22842     22845     22846     22847     22848     22852
     22848     22849     22848     22850     22848     22851     22852     22853
     22854     22858     22854     22855     22854     22856     22854     22857
     22858     22859     22860     22864     22860     22861     22860     22862
     22860     22863     22864     22865     22866     22870     22866     22867
     22866     22868     22866     22869     22870     22871     22872     22876
     22872     22873     22872     22874     22872     22875     22876     22877
     22878     22882     22878     22879     22878     22880     22878     22881
     22882     22883     22884     22888     22884     22885     22884     22886
     22884     22887     22888     22889     22890     22894     22890     22891
     22890     22892     22890     22893     22894     22895     22896     22900
     22896     22897     22896     22898     22896     22899     22900     22901
     22902     22906     22902     22903     22902     22904     22902     22905
     22906     22907     22908     22912     22908     22909     22908     22910
     22908     22911     22912     22913     22914     22918     22914     22915
     22914     22916     22914     22917     22918     22919     22920     22924
     22920     22921     22920     22922     22920     22923     22924     22925
     22926     22930     22926     22927     22926     22928     22926     22929
     22930     22931     22932     22936     22932     22933     22932     22934
     22932     22935     22936     22937     22938     22942     22938     22939
     22938     22940     22938     22941     22942     22943     22944     22948
     22944     22945     22944     22946     22944     22947     22948     22949
     22950     22954     22950     22951     22950     22952     22950     22953
     22954     22955     22956     22960     22956     22957     22956     22958
     22956     22959     22960     22961     22962     22966     22962     22963
     22962     22964     22962     22965     22966     22967     22968     22972
     22968     22969     22968     22970     22968     22971     22972     22973
     22974     22978     22974     22975     22974     22976     22974     22977
     22978     22979     22980     22984     22980     22981     22980     22982
     22980     22983     22984     22985     22986     22990     22986     22987
     22986     22988     22986     22989     22990     22991     22992     22996
     22992     22993     22992     22994     22992     22995     22996     22997
     22998     23002     22998     22999     22998     23000     22998     23001
     23002     23003     23004     23008     23004     23005     23004     23006
     23004     23007     23008     23009     23010     23014     23010     23011
     23010     23012     23010     23013     23014     23015     23016     23020
     23016     23017     23016     23018     23016     23019     23020     23021
     23022     23026     23022     23023     23022     23024     23022     23025
     23026     23027     23028     23032     23028     23029     23028     23030
     23028     23031     23032     23033     23034     23038     23034     23035
     23034     23036     23034     23037     23038     23039     23040     23044
     23040     23041     23040     23042     23040     23043     23044     23045
     23046     23050     23046     23047     23046     23048     23046     23049
     23050     23051     23052     23056     23052     23053     23052     23054
     23052     23055     23056     23057     23058     23062     23058     23059
     23058     23060     23058     23061     23062     23063     23064     23068
     23064     23065     23064     23066     23064     23067     23068     23069
     23070     23074     23070     23071     23070     23072     23070     23073
     23074     23075     23076     23080     23076     23077     23076     23078
     23076     23079     23080     23081     23082     23086     23082     23083
     23082     23084     23082     23085     23086     23087     23088     23092
     23088     23089     23088     23090     23088     23091     23092     23093
     23094     23098     23094     23095     23094     23096     23094     23097
     23098     23099     23100     23104     23100     23101     23100     23102
     23100     23103     23104     23105     23106     23110     23106     23107
     23106     23108     23106     23109     23110     23111     23112     23116
     23112     23113     23112     23114     23112     23115     23116     23117
     23118     23122     23118     23119     23118     23120     23118     23121
     23122     23123     23124     23128     23124     23125     23124     23126
     23124     23127     23128     23129     23130     23134     23130     23131
     23130     23132     23130     23133     23134     23135     23136     23140
     23136     23137     23136     23138     23136     23139     23140     23141
     23142     23146     23142     23143     23142     23144     23142     23145
     23146     23147     23148     23152     23148     23149     23148     23150
     23148     23151     23152     23153     23154     23158     23154     23155
     23154     23156     23154     23157     23158     23159     23160     23164
     23160     23161     23160     23162     23160     23163     23164     23165
     23166     23170     23166     23167     23166     23168     23166     23169
     23170     23171     23172     23176     23172     23173     23172     23174
     23172     23175     23176     23177     23178     23182     23178     23179
     23178     23180     23178     23181     23182     23183     23184     23188
     23184     23185     23184     23186     23184     23187     23188     23189
     23190     23194     23190     23191     23190     23192     23190     23193
     23194     23195     23196     23200     23196     23197     23196     23198
     23196     23199     23200     23201     23202     23206     23202     23203
     23202     23204     23202     23205     23206     23207     23208     23212
     23208     23209     23208     23210     23208     23211     23212     23213
     23214     23218     23214     23215     23214     23216     23214     23217
     23218     23219     23220     23224     23220     23221     23220     23222
     23220     23223     23224     23225     23226     23230     23226     23227
     23226     23228     23226     23229     23230     23231     23232     23236
     23232     23233     23232     23234     23232     23235     23236     23237
     23238     23242     23238     23239     23238     23240     23238     23241
     23242     23243     23244     23248     23244     23245     23244     23246
     23244     23247     23248     23249     23250     23254     23250     23251
     23250     23252     23250     23253     23254     23255     23256     23260
     23256     23257     23256     23258     23256     23259     23260     23261
     23262     23266     23262     23263     23262     23264     23262     23265
     23266     23267     23268     23272     23268     23269     23268     23270
     23268     23271     23272     23273     23274     23278     23274     23275
     23274     23276     23274     23277     23278     23279     23280     23284
     23280     23281     23280     23282     23280     23283     23284     23285
     23286     23290     23286     23287     23286     23288     23286     23289
     23290     23291     23292     23296     23292     23293     23292     23294
     23292     23295     23296     23297     23298     23302     23298     23299
     23298     23300     23298     23301     23302     23303     23304     23308
     23304     23305     23304     23306     23304     23307     23308     23309
     23310     23314     23310     23311     23310     23312     23310     23313
     23314     23315     23316     23320     23316     23317     23316     23318
     23316     23319     23320     23321     23322     23326     23322     23323
     23322     23324     23322     23325     23326     23327     23328     23332
     23328     23329     23328     23330     23328     23331     23332     23333
     23334     23338     23334     23335     23334     23336     23334     23337
     23338     23339     23340     23344     23340     23341     23340     23342
     23340     23343     23344     23345     23346     23350     23346     23347
     23346     23348     23346     23349     23350     23351     23352     23356
     23352     23353     23352     23354     23352     23355     23356     23357
     23358     23362     23358     23359     23358     23360     23358     23361
     23362     23363     23364     23368     23364     23365     23364     23366
     23364     23367     23368     23369     23370     23374     23370     23371
     23370     23372     23370     23373     23374     23375     23376     23380
     23376     23377     23376     23378     23376     23379     23380     23381
     23382     23386     23382     23383     23382     23384     23382     23385
     23386     23387     23388     23392     23388     23389     23388     23390
     23388     23391     23392     23393     23394     23398     23394     23395
     23394     23396     23394     23397     23398     23399     23400     23404
     23400     23401     23400     23402     23400     23403     23404     23405
     23406     23410     23406     23407     23406     23408     23406     23409
     23410     23411     23412     23416     23412     23413     23412     23414
     23412     23415     23416     23417     23418     23422     23418     23419
     23418     23420     23418     23421     23422     23423     23424     23428
     23424     23425     23424     23426     23424     23427     23428     23429
     23430     23434     23430     23431     23430     23432     23430     23433
     23434     23435     23436     23440     23436     23437     23436     23438
     23436     23439     23440     23441     23442     23446     23442     23443
     23442     23444     23442     23445     23446     23447     23448     23452
     23448     23449     23448     23450     23448     23451     23452     23453
     23454     23458     23454     23455     23454     23456     23454     23457
     23458     23459     23460     23464     23460     23461     23460     23462
     23460     23463     23464     23465     23466     23470     23466     23467
     23466     23468     23466     23469     23470     23471     23472     23476
     23472     23473     23472     23474     23472     23475     23476     23477
     23478     23482     23478     23479     23478     23480     23478     23481
     23482     23483     23484     23488     23484     23485     23484     23486
     23484     23487     23488     23489     23490     23494     23490     23491
     23490     23492     23490     23493     23494     23495     23496     23500
     23496     23497     23496     23498     23496     23499     23500     23501
     23502     23506     23502     23503     23502     23504     23502     23505
     23506     23507     23508     23512     23508     23509     23508     23510
     23508     23511     23512     23513     23514     23518     23514     23515
     23514     23516     23514     23517     23518     23519     23520     23524
     23520     23521     23520     23522     23520     23523     23524     23525
     23526     23530     23526     23527     23526     23528     23526     23529
     23530     23531     23532     23536     23532     23533     23532     23534
     23532     23535     23536     23537     23538     23542     23538     23539
     23538     23540     23538     23541     23542     23543     23544     23548
     23544     23545     23544     23546     23544     23547     23548     23549
     23550     23554     23550     23551     23550     23552     23550     23553
     23554     23555     23556     23560     23556     23557     23556     23558
     23556     23559     23560     23561     23562     23566     23562     23563
     23562     23564     23562     23565     23566     23567     23568     23572
     23568     23569     23568     23570     23568     23571     23572     23573
     23574     23578     23574     23575     23574     23576     23574     23577
     23578     23579     23580     23584     23580     23581     23580     23582
     23580     23583     23584     23585     23586     23590     23586     23587
     23586     23588     23586     23589     23590     23591     23592     23596
     23592     23593     23592     23594     23592     23595     23596     23597
     23598     23602     23598     23599     23598     23600     23598     23601
     23602     23603     23604     23608     23604     23605     23604     23606
     23604     23607     23608     23609     23610     23614     23610     23611
     23610     23612     23610     23613     23614     23615     23616     23620
     23616     23617     23616     23618     23616     23619     23620     23621
     23622     23626     23622     23623     23622     23624     23622     23625
     23626     23627     23628     23632     23628     23629     23628     23630
     23628     23631     23632     23633     23634     23638     23634     23635
     23634     23636     23634     23637     23638     23639     23640     23644
     23640     23641     23640     23642     23640     23643     23644     23645
     23646     23650     23646     23647     23646     23648     23646     23649
     23650     23651     23652     23656     23652     23653     23652     23654
     23652     23655     23656     23657     23658     23662     23658     23659
     23658     23660     23658     23661     23662     23663     23664     23668
     23664     23665     23664     23666     23664     23667     23668     23669
     23670     23674     23670     23671     23670     23672     23670     23673
     23674     23675     23676     23680     23676     23677     23676     23678
     23676     23679     23680     23681     23682     23686     23682     23683
     23682     23684     23682     23685     23686     23687     23688     23692
     23688     23689     23688     23690     23688     23691     23692     23693
     23694     23698     23694     23695     23694     23696     23694     23697
     23698     23699     23700     23704     23700     23701     23700     23702
     23700     23703     23704     23705     23706     23710     23706     23707
     23706     23708     23706     23709     23710     23711     23712     23716
     23712     23713     23712     23714     23712     23715     23716     23717
     23718     23722     23718     23719     23718     23720     23718     23721
     23722     23723     23724     23728     23724     23725     23724     23726
     23724     23727     23728     23729     23730     23734     23730     23731
     23730     23732     23730     23733     23734     23735     23736     23740
     23736     23737     23736     23738     23736     23739     23740     23741
     23742     23746     23742     23743     23742     23744     23742     23745
     23746     23747     23748     23752     23748     23749     23748     23750
     23748     23751     23752     23753     23754     23758     23754     23755
     23754     23756     23754     23757     23758     23759     23760     23764
     23760     23761     23760     23762     23760     23763     23764     23765
     23766     23770     23766     23767     23766     23768     23766     23769
     23770     23771     23772     23776     23772     23773     23772     23774
     23772     23775     23776     23777     23778     23782     23778     23779
     23778     23780     23778     23781     23782     23783     23784     23788
     23784     23785     23784     23786     23784     23787     23788     23789
     23790     23794     23790     23791     23790     23792     23790     23793
     23794     23795     23796     23800     23796     23797     23796     23798
     23796     23799     23800     23801     23802     23806     23802     23803
     23802     23804     23802     23805     23806     23807     23808     23812
     23808     23809     23808     23810     23808     23811     23812     23813
     23814     23818     23814     23815     23814     23816     23814     23817
     23818     23819     23820     23824     23820     23821     23820     23822
     23820     23823     23824     23825     23826     23830     23826     23827
     23826     23828     23826     23829     23830     23831     23832     23836
     23832     23833     23832     23834     23832     23835     23836     23837
     23838     23842     23838     23839     23838     23840     23838     23841
     23842     23843     23844     23848     23844     23845     23844     23846
     23844     23847     23848     23849     23850     23854     23850     23851
     23850     23852     23850     23853     23854     23855     23856     23860
     23856     23857     23856     23858     23856     23859     23860     23861
     23862     23866     23862     23863     23862     23864     23862     23865
     23866     23867     23868     23872     23868     23869     23868     23870
     23868     23871     23872     23873     23874     23878     23874     23875
     23874     23876     23874     23877     23878     23879     23880     23884
     23880     23881     23880     23882     23880     23883     23884     23885
     23886     23890     23886     23887     23886     23888     23886     23889
     23890     23891     23892     23896     23892     23893     23892     23894
     23892     23895     23896     23897     23898     23902     23898     23899
     23898     23900     23898     23901     23902     23903     23904     23908
     23904     23905     23904     23906     23904     23907     23908     23909
     23910     23914     23910     23911     23910     23912     23910     23913
     23914     23915     23916     23920     23916     23917     23916     23918
     23916     23919     23920     23921     23922     23926     23922     23923
     23922     23924     23922     23925     23926     23927     23928     23932
     23928     23929     23928     23930     23928     23931     23932     23933
     23934     23938     23934     23935     23934     23936     23934     23937
     23938     23939     23940     23944     23940     23941     23940     23942
     23940     23943     23944     23945     23946     23950     23946     23947
     23946     23948     23946     23949     23950     23951     23952     23956
     23952     23953     23952     23954     23952     23955     23956     23957
     23958     23962     23958     23959     23958     23960     23958     23961
     23962     23963     23964     23968     23964     23965     23964     23966
     23964     23967     23968     23969     23970     23974     23970     23971
     23970     23972     23970     23973     23974     23975     23976     23980
     23976     23977     23976     23978     23976     23979     23980     23981
     23982     23986     23982     23983     23982     23984     23982     23985
     23986     23987     23988     23992     23988     23989     23988     23990
     23988     23991     23992     23993     23994     23998     23994     23995
     23994     23996     23994     23997     23998     23999     24000     24004
     24000     24001     24000     24002     24000     24003     24004     24005
     24006     24010     24006     24007     24006     24008     24006     24009
     24010     24011     24012     24016     24012     24013     24012     24014
     24012     24015     24016     24017     24018     24022     24018     24019
     24018     24020     24018     24021     24022     24023     24024     24028
     24024     24025     24024     24026     24024     24027     24028     24029
     24030     24034     24030     24031     24030     24032     24030     24033
     24034     24035     24036     24040     24036     24037     24036     24038
     24036     24039     24040     24041     24042     24046     24042     24043
     24042     24044     24042     24045     24046     24047     24048     24052
     24048     24049     24048     24050     24048     24051     24052     24053
     24054     24058     24054     24055     24054     24056     24054     24057
     24058     24059     24060     24064     24060     24061     24060     24062
     24060     24063     24064     24065     24066     24070     24066     24067
     24066     24068     24066     24069     24070     24071     24072     24076
     24072     24073     24072     24074     24072     24075     24076     24077
     24078     24082     24078     24079     24078     24080     24078     24081
     24082     24083     24084     24088     24084     24085     24084     24086
     24084     24087     24088     24089     24090     24094     24090     24091
     24090     24092     24090     24093     24094     24095     24096     24100
     24096     24097     24096     24098     24096     24099     24100     24101
     24102     24106     24102     24103     24102     24104     24102     24105
     24106     24107     24108     24112     24108     24109     24108     24110
     24108     24111     24112     24113     24114     24118     24114     24115
     24114     24116     24114     24117     24118     24119     24120     24124
     24120     24121     24120     24122     24120     24123     24124     24125
     24126     24130     24126     24127     24126     24128     24126     24129
     24130     24131     24132     24136     24132     24133     24132     24134
     24132     24135     24136     24137     24138     24142     24138     24139
     24138     24140     24138     24141     24142     24143     24144     24148
     24144     24145     24144     24146     24144     24147     24148     24149
     24150     24154     24150     24151     24150     24152     24150     24153
     24154     24155     24156     24160     24156     24157     24156     24158
     24156     24159     24160     24161     24162     24166     24162     24163
     24162     24164     24162     24165     24166     24167     24168     24172
     24168     24169     24168     24170     24168     24171     24172     24173
     24174     24178     24174     24175     24174     24176     24174     24177
     24178     24179     24180     24184     24180     24181     24180     24182
     24180     24183     24184     24185     24186     24190     24186     24187
     24186     24188     24186     24189     24190     24191     24192     24196
     24192     24193     24192     24194     24192     24195     24196     24197
     24198     24202     24198     24199     24198     24200     24198     24201
     24202     24203     24204     24208     24204     24205     24204     24206
     24204     24207     24208     24209     24210     24214     24210     24211
     24210     24212     24210     24213     24214     24215     24216     24220
     24216     24217     24216     24218     24216     24219     24220     24221
     24222     24226     24222     24223     24222     24224     24222     24225
     24226     24227     24228     24232     24228     24229     24228     24230
     24228     24231     24232     24233     24234     24238     24234     24235
     24234     24236     24234     24237     24238     24239     24240     24244
     24240     24241     24240     24242     24240     24243     24244     24245
     24246     24250     24246     24247     24246     24248     24246     24249
     24250     24251     24252     24256     24252     24253     24252     24254
     24252     24255     24256     24257     24258     24262     24258     24259
     24258     24260     24258     24261     24262     24263     24264     24268
     24264     24265     24264     24266     24264     24267     24268     24269
     24270     24274     24270     24271     24270     24272     24270     24273
     24274     24275     24276     24280     24276     24277     24276     24278
     24276     24279     24280     24281     24282     24286     24282     24283
     24282     24284     24282     24285     24286     24287     24288     24292
     24288     24289     24288     24290     24288     24291     24292     24293
     24294     24298     24294     24295     24294     24296     24294     24297
     24298     24299     24300     24304     24300     24301     24300     24302
     24300     24303     24304     24305     24306     24310     24306     24307
     24306     24308     24306     24309     24310     24311     24312     24316
     24312     24313     24312     24314     24312     24315     24316     24317
     24318     24322     24318     24319     24318     24320     24318     24321
     24322     24323     24324     24328     24324     24325     24324     24326
     24324     24327     24328     24329     24330     24334     24330     24331
     24330     24332     24330     24333     24334     24335     24336     24340
     24336     24337     24336     24338     24336     24339     24340     24341
     24342     24346     24342     24343     24342     24344     24342     24345
     24346     24347     24348     24352     24348     24349     24348     24350
     24348     24351     24352     24353     24354     24358     24354     24355
     24354     24356     24354     24357     24358     24359     24360     24364
     24360     24361     24360     24362     24360     24363     24364     24365
     24366     24370     24366     24367     24366     24368     24366     24369
     24370     24371     24372     24376     24372     24373     24372     24374
     24372     24375     24376     24377     24378     24382     24378     24379
     24378     24380     24378     24381     24382     24383     24384     24388
     24384     24385     24384     24386     24384     24387     24388     24389
     24390     24394     24390     24391     24390     24392     24390     24393
     24394     24395     24396     24400     24396     24397     24396     24398
     24396     24399     24400     24401     24402     24406     24402     24403
     24402     24404     24402     24405     24406     24407     24408     24412
     24408     24409     24408     24410     24408     24411     24412     24413
     24414     24418     24414     24415     24414     24416     24414     24417
     24418     24419     24420     24424     24420     24421     24420     24422
     24420     24423     24424     24425     24426     24430     24426     24427
     24426     24428     24426     24429     24430     24431     24432     24436
     24432     24433     24432     24434     24432     24435     24436     24437
     24438     24442     24438     24439     24438     24440     24438     24441
     24442     24443     24444     24448     24444     24445     24444     24446
     24444     24447     24448     24449     24450     24454     24450     24451
     24450     24452     24450     24453     24454     24455     24456     24460
     24456     24457     24456     24458     24456     24459     24460     24461
     24462     24466     24462     24463     24462     24464     24462     24465
     24466     24467     24468     24472     24468     24469     24468     24470
     24468     24471     24472     24473     24474     24478     24474     24475
     24474     24476     24474     24477     24478     24479     24480     24484
     24480     24481     24480     24482     24480     24483     24484     24485
     24486     24490     24486     24487     24486     24488     24486     24489
     24490     24491     24492     24496     24492     24493     24492     24494
     24492     24495     24496     24497     24498     24502     24498     24499
     24498     24500     24498     24501     24502     24503     24504     24508
     24504     24505     24504     24506     24504     24507     24508     24509
     24510     24514     24510     24511     24510     24512     24510     24513
     24514     24515     24516     24520     24516     24517     24516     24518
     24516     24519     24520     24521     24522     24526     24522     24523
     24522     24524     24522     24525     24526     24527     24528     24532
     24528     24529     24528     24530     24528     24531     24532     24533
     24534     24538     24534     24535     24534     24536     24534     24537
     24538     24539     24540     24544     24540     24541     24540     24542
     24540     24543     24544     24545     24546     24550     24546     24547
     24546     24548     24546     24549     24550     24551     24552     24556
     24552     24553     24552     24554     24552     24555     24556     24557
     24558     24562     24558     24559     24558     24560     24558     24561
     24562     24563     24564     24568     24564     24565     24564     24566
     24564     24567     24568     24569     24570     24574     24570     24571
     24570     24572     24570     24573     24574     24575     24576     24580
     24576     24577     24576     24578     24576     24579     24580     24581
     24582     24586     24582     24583     24582     24584     24582     24585
     24586     24587     24588     24592     24588     24589     24588     24590
     24588     24591     24592     24593     24594     24598     24594     24595
     24594     24596     24594     24597     24598     24599     24600     24604
     24600     24601     24600     24602     24600     24603     24604     24605
     24606     24610     24606     24607     24606     24608     24606     24609
     24610     24611     24612     24616     24612     24613     24612     24614
     24612     24615     24616     24617     24618     24622     24618     24619
     24618     24620     24618     24621     24622     24623     24624     24628
     24624     24625     24624     24626     24624     24627     24628     24629
     24630     24634     24630     24631     24630     24632     24630     24633
     24634     24635     24636     24640     24636     24637     24636     24638
     24636     24639     24640     24641     24642     24646     24642     24643
     24642     24644     24642     24645     24646     24647     24648     24652
     24648     24649     24648     24650     24648     24651     24652     24653
     24654     24658     24654     24655     24654     24656     24654     24657
     24658     24659     24660     24664     24660     24661     24660     24662
     24660     24663     24664     24665     24666     24670     24666     24667
     24666     24668     24666     24669     24670     24671     24672     24676
     24672     24673     24672     24674     24672     24675     24676     24677
     24678     24682     24678     24679     24678     24680     24678     24681
     24682     24683     24684     24688     24684     24685     24684     24686
     24684     24687     24688     24689     24690     24694     24690     24691
     24690     24692     24690     24693     24694     24695     24696     24700
     24696     24697     24696     24698     24696     24699     24700     24701
     24702     24706     24702     24703     24702     24704     24702     24705
     24706     24707     24708     24712     24708     24709     24708     24710
     24708     24711     24712     24713     24714     24718     24714     24715
     24714     24716     24714     24717     24718     24719     24720     24724
     24720     24721     24720     24722     24720     24723     24724     24725
     24726     24730     24726     24727     24726     24728     24726     24729
     24730     24731     24732     24736     24732     24733     24732     24734
     24732     24735     24736     24737     24738     24742     24738     24739
     24738     24740     24738     24741     24742     24743     24744     24748
     24744     24745     24744     24746     24744     24747     24748     24749
     24750     24754     24750     24751     24750     24752     24750     24753
     24754     24755     24756     24760     24756     24757     24756     24758
     24756     24759     24760     24761     24762     24766     24762     24763
     24762     24764     24762     24765     24766     24767     24768     24772
     24768     24769     24768     24770     24768     24771     24772     24773
     24774     24778     24774     24775     24774     24776     24774     24777
     24778     24779     24780     24784     24780     24781     24780     24782
     24780     24783     24784     24785     24786     24790     24786     24787
     24786     24788     24786     24789     24790     24791     24792     24796
     24792     24793     24792     24794     24792     24795     24796     24797
     24798     24802     24798     24799     24798     24800     24798     24801
     24802     24803     24804     24808     24804     24805     24804     24806
     24804     24807     24808     24809     24810     24814     24810     24811
     24810     24812     24810     24813     24814     24815     24816     24820
     24816     24817     24816     24818     24816     24819     24820     24821
     24822     24826     24822     24823     24822     24824     24822     24825
     24826     24827     24828     24832     24828     24829     24828     24830
     24828     24831     24832     24833     24834     24838     24834     24835
     24834     24836     24834     24837     24838     24839     24840     24844
     24840     24841     24840     24842     24840     24843     24844     24845
     24846     24850     24846     24847     24846     24848     24846     24849
     24850     24851     24852     24856     24852     24853     24852     24854
     24852     24855     24856     24857     24858     24862     24858     24859
     24858     24860     24858     24861     24862     24863     24864     24868
     24864     24865     24864     24866     24864     24867     24868     24869
     24870     24874     24870     24871     24870     24872     24870     24873
     24874     24875     24876     24880     24876     24877     24876     24878
     24876     24879     24880     24881     24882     24886     24882     24883
     24882     24884     24882     24885     24886     24887     24888     24892
     24888     24889     24888     24890     24888     24891     24892     24893
     24894     24898     24894     24895     24894     24896     24894     24897
     24898     24899     24900     24904     24900     24901     24900     24902
     24900     24903     24904     24905     24906     24910     24906     24907
     24906     24908     24906     24909     24910     24911     24912     24916
     24912     24913     24912     24914     24912     24915     24916     24917
     24918     24922     24918     24919     24918     24920     24918     24921
     24922     24923     24924     24928     24924     24925     24924     24926
     24924     24927     24928     24929     24930     24934     24930     24931
     24930     24932     24930     24933     24934     24935     24936     24940
     24936     24937     24936     24938     24936     24939     24940     24941
     24942     24946     24942     24943     24942     24944     24942     24945
     24946     24947     24948     24952     24948     24949     24948     24950
     24948     24951     24952     24953     24954     24958     24954     24955
     24954     24956     24954     24957     24958     24959     24960     24964
     24960     24961     24960     24962     24960     24963     24964     24965
     24966     24970     24966     24967     24966     24968     24966     24969
     24970     24971     24972     24976     24972     24973     24972     24974
     24972     24975     24976     24977     24978     24982     24978     24979
     24978     24980     24978     24981     24982     24983     24984     24988
     24984     24985     24984     24986     24984     24987     24988     24989
     24990     24994     24990     24991     24990     24992     24990     24993
     24994     24995     24996     25000     24996     24997     24996     24998
     24996     24999     25000     25001     25002     25006     25002     25003
     25002     25004     25002     25005     25006     25007     25008     25012
     25008     25009     25008     25010     25008     25011     25012     25013
     25014     25018     25014     25015     25014     25016     25014     25017
     25018     25019     25020     25024     25020     25021     25020     25022
     25020     25023     25024     25025     25026     25030     25026     25027
     25026     25028     25026     25029     25030     25031     25032     25036
     25032     25033     25032     25034     25032     25035     25036     25037
     25038     25042     25038     25039     25038     25040     25038     25041
     25042     25043     25044     25048     25044     25045     25044     25046
     25044     25047     25048     25049     25050     25054     25050     25051
     25050     25052     25050     25053     25054     25055     25056     25060
     25056     25057     25056     25058     25056     25059     25060     25061
     25062     25066     25062     25063     25062     25064     25062     25065
     25066     25067     25068     25072     25068     25069     25068     25070
     25068     25071     25072     25073     25074     25078     25074     25075
     25074     25076     25074     25077     25078     25079     25080     25084
     25080     25081     25080     25082     25080     25083     25084     25085
     25086     25090     25086     25087     25086     25088     25086     25089
     25090     25091     25092     25096     25092     25093     25092     25094
     25092     25095     25096     25097     25098     25102     25098     25099
     25098     25100     25098     25101     25102     25103     25104     25108
     25104     25105     25104     25106     25104     25107     25108     25109
     25110     25114     25110     25111     25110     25112     25110     25113
     25114     25115     25116     25120     25116     25117     25116     25118
     25116     25119     25120     25121     25122     25126     25122     25123
     25122     25124     25122     25125     25126     25127     25128     25132
     25128     25129     25128     25130     25128     25131     25132     25133
     25134     25138     25134     25135     25134     25136     25134     25137
     25138     25139     25140     25144     25140     25141     25140     25142
     25140     25143     25144     25145     25146     25150     25146     25147
     25146     25148     25146     25149     25150     25151     25152     25156
     25152     25153     25152     25154     25152     25155     25156     25157
     25158     25162     25158     25159     25158     25160     25158     25161
     25162     25163     25164     25168     25164     25165     25164     25166
     25164     25167     25168     25169     25170     25174     25170     25171
     25170     25172     25170     25173     25174     25175     25176     25180
     25176     25177     25176     25178     25176     25179     25180     25181
     25182     25186     25182     25183     25182     25184     25182     25185
     25186     25187     25188     25192     25188     25189     25188     25190
     25188     25191     25192     25193     25194     25198     25194     25195
     25194     25196     25194     25197     25198     25199     25200     25204
     25200     25201     25200     25202     25200     25203     25204     25205
     25206     25210     25206     25207     25206     25208     25206     25209
     25210     25211     25212     25216     25212     25213     25212     25214
     25212     25215     25216     25217     25218     25222     25218     25219
     25218     25220     25218     25221     25222     25223     25224     25228
     25224     25225     25224     25226     25224     25227     25228     25229
     25230     25234     25230     25231     25230     25232     25230     25233
     25234     25235     25236     25240     25236     25237     25236     25238
     25236     25239     25240     25241     25242     25246     25242     25243
     25242     25244     25242     25245     25246     25247     25248     25252
     25248     25249     25248     25250     25248     25251     25252     25253
     25254     25258     25254     25255     25254     25256     25254     25257
     25258     25259     25260     25264     25260     25261     25260     25262
     25260     25263     25264     25265     25266     25270     25266     25267
     25266     25268     25266     25269     25270     25271     25272     25276
     25272     25273     25272     25274     25272     25275     25276     25277
     25278     25282     25278     25279     25278     25280     25278     25281
     25282     25283     25284     25288     25284     25285     25284     25286
     25284     25287     25288     25289     25290     25294     25290     25291
     25290     25292     25290     25293     25294     25295     25296     25300
     25296     25297     25296     25298     25296     25299     25300     25301
     25302     25306     25302     25303     25302     25304     25302     25305
     25306     25307     25308     25312     25308     25309     25308     25310
     25308     25311     25312     25313     25314     25318     25314     25315
     25314     25316     25314     25317     25318     25319     25320     25324
     25320     25321     25320     25322     25320     25323     25324     25325
     25326     25330     25326     25327     25326     25328     25326     25329
     25330     25331     25332     25336     25332     25333     25332     25334
     25332     25335     25336     25337     25338     25342     25338     25339
     25338     25340     25338     25341     25342     25343     25344     25348
     25344     25345     25344     25346     25344     25347     25348     25349
     25350     25354     25350     25351     25350     25352     25350     25353
     25354     25355     25356     25360     25356     25357     25356     25358
     25356     25359     25360     25361     25362     25366     25362     25363
     25362     25364     25362     25365     25366     25367     25368     25372
     25368     25369     25368     25370     25368     25371     25372     25373
     25374     25378     25374     25375     25374     25376     25374     25377
     25378     25379     25380     25384     25380     25381     25380     25382
     25380     25383     25384     25385     25386     25390     25386     25387
     25386     25388     25386     25389     25390     25391     25392     25396
     25392     25393     25392     25394     25392     25395     25396     25397
     25398     25402     25398     25399     25398     25400     25398     25401
     25402     25403     25404     25408     25404     25405     25404     25406
     25404     25407     25408     25409     25410     25414     25410     25411
     25410     25412     25410     25413     25414     25415     25416     25420
     25416     25417     25416     25418     25416     25419     25420     25421
     25422     25426     25422     25423     25422     25424     25422     25425
     25426     25427     25428     25432     25428     25429     25428     25430
     25428     25431     25432     25433     25434     25438     25434     25435
     25434     25436     25434     25437     25438     25439     25440     25444
     25440     25441     25440     25442     25440     25443     25444     25445
     25446     25450     25446     25447     25446     25448     25446     25449
     25450     25451     25452     25456     25452     25453     25452     25454
     25452     25455     25456     25457     25458     25462     25458     25459
     25458     25460     25458     25461     25462     25463     25464     25468
     25464     25465     25464     25466     25464     25467     25468     25469
     25470     25474     25470     25471     25470     25472     25470     25473
     25474     25475     25476     25480     25476     25477     25476     25478
     25476     25479     25480     25481     25482     25486     25482     25483
     25482     25484     25482     25485     25486     25487     25488     25492
     25488     25489     25488     25490     25488     25491     25492     25493
     25494     25498     25494     25495     25494     25496     25494     25497
     25498     25499     25500     25504     25500     25501     25500     25502
     25500     25503     25504     25505     25506     25510     25506     25507
     25506     25508     25506     25509     25510     25511     25512     25516
     25512     25513     25512     25514     25512     25515     25516     25517
     25518     25522     25518     25519     25518     25520     25518     25521
     25522     25523     25524     25528     25524     25525     25524     25526
     25524     25527     25528     25529     25530     25534     25530     25531
     25530     25532     25530     25533     25534     25535     25536     25540
     25536     25537     25536     25538     25536     25539     25540     25541
     25542     25546     25542     25543     25542     25544     25542     25545
     25546     25547     25548     25552     25548     25549     25548     25550
     25548     25551     25552     25553     25554     25558     25554     25555
     25554     25556     25554     25557     25558     25559     25560     25564
     25560     25561     25560     25562     25560     25563     25564     25565
     25566     25570     25566     25567     25566     25568     25566     25569
     25570     25571     25572     25576     25572     25573     25572     25574
     25572     25575     25576     25577     25578     25582     25578     25579
     25578     25580     25578     25581     25582     25583     25584     25588
     25584     25585     25584     25586     25584     25587     25588     25589
     25590     25594     25590     25591     25590     25592     25590     25593
     25594     25595     25596     25600     25596     25597     25596     25598
     25596     25599     25600     25601     25602     25606     25602     25603
     25602     25604     25602     25605     25606     25607     25608     25612
     25608     25609     25608     25610     25608     25611     25612     25613
     25614     25618     25614     25615     25614     25616     25614     25617
     25618     25619     25620     25624     25620     25621     25620     25622
     25620     25623     25624     25625     25626     25630     25626     25627
     25626     25628     25626     25629     25630     25631     25632     25636
     25632     25633     25632     25634     25632     25635     25636     25637
     25638     25642     25638     25639     25638     25640     25638     25641
     25642     25643     25644     25648     25644     25645     25644     25646
     25644     25647     25648     25649     25650     25654     25650     25651
     25650     25652     25650     25653     25654     25655     25656     25660
     25656     25657     25656     25658     25656     25659     25660     25661
     25662     25666     25662     25663     25662     25664     25662     25665
     25666     25667     25668     25672     25668     25669     25668     25670
     25668     25671     25672     25673     25674     25678     25674     25675
     25674     25676     25674     25677     25678     25679     25680     25684
     25680     25681     25680     25682     25680     25683     25684     25685
     25686     25690     25686     25687     25686     25688     25686     25689
     25690     25691     25692     25696     25692     25693     25692     25694
     25692     25695     25696     25697     25698     25702     25698     25699
     25698     25700     25698     25701     25702     25703     25704     25708
     25704     25705     25704     25706     25704     25707     25708     25709
     25710     25714     25710     25711     25710     25712     25710     25713
     25714     25715     25716     25720     25716     25717     25716     25718
     25716     25719     25720     25721     25722     25726     25722     25723
     25722     25724     25722     25725     25726     25727     25728     25732
     25728     25729     25728     25730     25728     25731     25732     25733
     25734     25738     25734     25735     25734     25736     25734     25737
     25738     25739     25740     25744     25740     25741     25740     25742
     25740     25743     25744     25745     25746     25750     25746     25747
     25746     25748     25746     25749     25750     25751     25752     25756
     25752     25753     25752     25754     25752     25755     25756     25757
     25758     25762     25758     25759     25758     25760     25758     25761
     25762     25763     25764     25768     25764     25765     25764     25766
     25764     25767     25768     25769     25770     25774     25770     25771
     25770     25772     25770     25773     25774     25775     25776     25780
     25776     25777     25776     25778     25776     25779     25780     25781
     25782     25786     25782     25783     25782     25784     25782     25785
     25786     25787     25788     25792     25788     25789     25788     25790
     25788     25791     25792     25793     25794     25798     25794     25795
     25794     25796     25794     25797     25798     25799     25800     25804
     25800     25801     25800     25802     25800     25803     25804     25805
     25806     25810     25806     25807     25806     25808     25806     25809
     25810     25811     25812     25816     25812     25813     25812     25814
     25812     25815     25816     25817     25818     25822     25818     25819
     25818     25820     25818     25821     25822     25823     25824     25828
     25824     25825     25824     25826     25824     25827     25828     25829
     25830     25834     25830     25831     25830     25832     25830     25833
     25834     25835     25836     25840     25836     25837     25836     25838
     25836     25839     25840     25841     25842     25846     25842     25843
     25842     25844     25842     25845     25846     25847     25848     25852
     25848     25849     25848     25850     25848     25851     25852     25853
     25854     25858     25854     25855     25854     25856     25854     25857
     25858     25859     25860     25864     25860     25861     25860     25862
     25860     25863     25864     25865     25866     25870     25866     25867
     25866     25868     25866     25869     25870     25871     25872     25876
     25872     25873     25872     25874     25872     25875     25876     25877
     25878     25882     25878     25879     25878     25880     25878     25881
     25882     25883     25884     25888     25884     25885     25884     25886
     25884     25887     25888     25889     25890     25894     25890     25891
     25890     25892     25890     25893     25894     25895     25896     25900
     25896     25897     25896     25898     25896     25899     25900     25901
     25902     25906     25902     25903     25902     25904     25902     25905
     25906     25907     25908     25912     25908     25909     25908     25910
     25908     25911     25912     25913     25914     25918     25914     25915
     25914     25916     25914     25917     25918     25919     25920     25924
     25920     25921     25920     25922     25920     25923     25924     25925
     25926     25930     25926     25927     25926     25928     25926     25929
     25930     25931     25932     25936     25932     25933     25932     25934
     25932     25935     25936     25937     25938     25942     25938     25939
     25938     25940     25938     25941     25942     25943     25944     25948
     25944     25945     25944     25946     25944     25947     25948     25949
     25950     25954     25950     25951     25950     25952     25950     25953
     25954     25955     25956     25960     25956     25957     25956     25958
     25956     25959     25960     25961     25962     25966     25962     25963
     25962     25964     25962     25965     25966     25967     25968     25972
     25968     25969     25968     25970     25968     25971     25972     25973
     25974     25978     25974     25975     25974     25976     25974     25977
     25978     25979     25980     25984     25980     25981     25980     25982
     25980     25983     25984     25985     25986     25990     25986     25987
     25986     25988     25986     25989     25990     25991     25992     25996
     25992     25993     25992     25994     25992     25995     25996     25997
     25998     26002     25998     25999     25998     26000     25998     26001
     26002     26003     26004     26008     26004     26005     26004     26006
     26004     26007     26008     26009     26010     26014     26010     26011
     26010     26012     26010     26013     26014     26015     26016     26020
     26016     26017     26016     26018     26016     26019     26020     26021
     26022     26026     26022     26023     26022     26024     26022     26025
     26026     26027     26028     26032     26028     26029     26028     26030
     26028     26031     26032     26033     26034     26038     26034     26035
     26034     26036     26034     26037     26038     26039     26040     26044
     26040     26041     26040     26042     26040     26043     26044     26045
     26046     26050     26046     26047     26046     26048     26046     26049
     26050     26051     26052     26056     26052     26053     26052     26054
     26052     26055     26056     26057     26058     26062     26058     26059
     26058     26060     26058     26061     26062     26063     26064     26068
     26064     26065     26064     26066     26064     26067     26068     26069
     26070     26074     26070     26071     26070     26072     26070     26073
     26074     26075     26076     26080     26076     26077     26076     26078
     26076     26079     26080     26081     26082     26086     26082     26083
     26082     26084     26082     26085     26086     26087     26088     26092
     26088     26089     26088     26090     26088     26091     26092     26093
     26094     26098     26094     26095     26094     26096     26094     26097
     26098     26099     26100     26104     26100     26101     26100     26102
     26100     26103     26104     26105     26106     26110     26106     26107
     26106     26108     26106     26109     26110     26111     26112     26116
     26112     26113     26112     26114     26112     26115     26116     26117
     26118     26122     26118     26119     26118     26120     26118     26121
     26122     26123     26124     26128     26124     26125     26124     26126
     26124     26127     26128     26129     26130     26134     26130     26131
     26130     26132     26130     26133     26134     26135     26136     26140
     26136     26137     26136     26138     26136     26139     26140     26141
     26142     26146     26142     26143     26142     26144     26142     26145
     26146     26147     26148     26152     26148     26149     26148     26150
     26148     26151     26152     26153     26154     26158     26154     26155
     26154     26156     26154     26157     26158     26159     26160     26164
     26160     26161     26160     26162     26160     26163     26164     26165
     26166     26170     26166     26167     26166     26168     26166     26169
     26170     26171     26172     26176     26172     26173     26172     26174
     26172     26175     26176     26177     26178     26182     26178     26179
     26178     26180     26178     26181     26182     26183     26184     26188
     26184     26185     26184     26186     26184     26187     26188     26189
     26190     26194     26190     26191     26190     26192     26190     26193
     26194     26195     26196     26200     26196     26197     26196     26198
     26196     26199     26200     26201     26202     26206     26202     26203
     26202     26204     26202     26205     26206     26207     26208     26212
     26208     26209     26208     26210     26208     26211     26212     26213
     26214     26218     26214     26215     26214     26216     26214     26217
     26218     26219     26220     26224     26220     26221     26220     26222
     26220     26223     26224     26225     26226     26230     26226     26227
     26226     26228     26226     26229     26230     26231     26232     26236
     26232     26233     26232     26234     26232     26235     26236     26237
     26238     26242     26238     26239     26238     26240     26238     26241
     26242     26243     26244     26248     26244     26245     26244     26246
     26244     26247     26248     26249     26250     26254     26250     26251
     26250     26252     26250     26253     26254     26255     26256     26260
     26256     26257     26256     26258     26256     26259     26260     26261
     26262     26266     26262     26263     26262     26264     26262     26265
     26266     26267     26268     26272     26268     26269     26268     26270
     26268     26271     26272     26273     26274     26278     26274     26275
     26274     26276     26274     26277     26278     26279     26280     26284
     26280     26281     26280     26282     26280     26283     26284     26285
     26286     26290     26286     26287     26286     26288     26286     26289
     26290     26291     26292     26296     26292     26293     26292     26294
     26292     26295     26296     26297     26298     26302     26298     26299
     26298     26300     26298     26301     26302     26303     26304     26308
     26304     26305     26304     26306     26304     26307     26308     26309
     26310     26314     26310     26311     26310     26312     26310     26313
     26314     26315     26316     26320     26316     26317     26316     26318
     26316     26319     26320     26321     26322     26326     26322     26323
     26322     26324     26322     26325     26326     26327     26328     26332
     26328     26329     26328     26330     26328     26331     26332     26333
     26334     26338     26334     26335     26334     26336     26334     26337
     26338     26339     26340     26344     26340     26341     26340     26342
     26340     26343     26344     26345     26346     26350     26346     26347
     26346     26348     26346     26349     26350     26351     26352     26356
     26352     26353     26352     26354     26352     26355     26356     26357
     26358     26362     26358     26359     26358     26360     26358     26361
     26362     26363     26364     26368     26364     26365     26364     26366
     26364     26367     26368     26369     26370     26374     26370     26371
     26370     26372     26370     26373     26374     26375     26376     26380
     26376     26377     26376     26378     26376     26379     26380     26381
     26382     26386     26382     26383     26382     26384     26382     26385
     26386     26387     26388     26392     26388     26389     26388     26390
     26388     26391     26392     26393     26394     26398     26394     26395
     26394     26396     26394     26397     26398     26399     26400     26404
     26400     26401     26400     26402     26400     26403     26404     26405
     26406     26410     26406     26407     26406     26408     26406     26409
     26410     26411     26412     26416     26412     26413     26412     26414
     26412     26415     26416     26417     26418     26422     26418     26419
     26418     26420     26418     26421     26422     26423     26424     26428
     26424     26425     26424     26426     26424     26427     26428     26429
     26430     26434     26430     26431     26430     26432     26430     26433
     26434     26435     26436     26440     26436     26437     26436     26438
     26436     26439     26440     26441     26442     26446     26442     26443
     26442     26444     26442     26445     26446     26447     26448     26452
     26448     26449     26448     26450     26448     26451     26452     26453
     26454     26458     26454     26455     26454     26456     26454     26457
     26458     26459     26460     26464     26460     26461     26460     26462
     26460     26463     26464     26465     26466     26470     26466     26467
     26466     26468     26466     26469     26470     26471     26472     26476
     26472     26473     26472     26474     26472     26475     26476     26477
     26478     26482     26478     26479     26478     26480     26478     26481
     26482     26483     26484     26488     26484     26485     26484     26486
     26484     26487     26488     26489     26490     26494     26490     26491
     26490     26492     26490     26493     26494     26495     26496     26500
     26496     26497     26496     26498     26496     26499     26500     26501
     26502     26506     26502     26503     26502     26504     26502     26505
     26506     26507     26508     26512     26508     26509     26508     26510
     26508     26511     26512     26513     26514     26518     26514     26515
     26514     26516     26514     26517     26518     26519     26520     26524
     26520     26521     26520     26522     26520     26523     26524     26525
     26526     26530     26526     26527     26526     26528     26526     26529
     26530     26531     26532     26536     26532     26533     26532     26534
     26532     26535     26536     26537     26538     26542     26538     26539
     26538     26540     26538     26541     26542     26543     26544     26548
     26544     26545     26544     26546     26544     26547     26548     26549
     26550     26554     26550     26551     26550     26552     26550     26553
     26554     26555     26556     26560     26556     26557     26556     26558
     26556     26559     26560     26561     26562     26566     26562     26563
     26562     26564     26562     26565     26566     26567     26568     26572
     26568     26569     26568     26570     26568     26571     26572     26573
     26574     26578     26574     26575     26574     26576     26574     26577
     26578     26579     26580     26584     26580     26581     26580     26582
     26580     26583     26584     26585     26586     26590     26586     26587
     26586     26588     26586     26589     26590     26591     26592     26596
     26592     26593     26592     26594     26592     26595     26596     26597
     26598     26602     26598     26599     26598     26600     26598     26601
     26602     26603     26604     26608     26604     26605     26604     26606
     26604     26607     26608     26609     26610     26614     26610     26611
     26610     26612     26610     26613     26614     26615     26616     26620
     26616     26617     26616     26618     26616     26619     26620     26621
     26622     26626     26622     26623     26622     26624     26622     26625
     26626     26627     26628     26632     26628     26629     26628     26630
     26628     26631     26632     26633     26634     26638     26634     26635
     26634     26636     26634     26637     26638     26639     26640     26644
     26640     26641     26640     26642     26640     26643     26644     26645
     26646     26650     26646     26647     26646     26648     26646     26649
     26650     26651     26652     26656     26652     26653     26652     26654
     26652     26655     26656     26657     26658     26662     26658     26659
     26658     26660     26658     26661     26662     26663     26664     26668
     26664     26665     26664     26666     26664     26667     26668     26669
     26670     26674     26670     26671     26670     26672     26670     26673
     26674     26675     26676     26680     26676     26677     26676     26678
     26676     26679     26680     26681     26682     26686     26682     26683
     26682     26684     26682     26685     26686     26687     26688     26692
     26688     26689     26688     26690     26688     26691     26692     26693
     26694     26698     26694     26695     26694     26696     26694     26697
     26698     26699     26700     26704     26700     26701     26700     26702
     26700     26703     26704     26705     26706     26710     26706     26707
     26706     26708     26706     26709     26710     26711     26712     26716
     26712     26713     26712     26714     26712     26715     26716     26717
     26718     26722     26718     26719     26718     26720     26718     26721
     26722     26723     26724     26728     26724     26725     26724     26726
     26724     26727     26728     26729     26730     26734     26730     26731
     26730     26732     26730     26733     26734     26735     26736     26740
     26736     26737     26736     26738     26736     26739     26740     26741
     26742     26746     26742     26743     26742     26744     26742     26745
     26746     26747     26748     26752     26748     26749     26748     26750
     26748     26751     26752     26753     26754     26758     26754     26755
     26754     26756     26754     26757     26758     26759     26760     26764
     26760     26761     26760     26762     26760     26763     26764     26765
     26766     26770     26766     26767     26766     26768     26766     26769
     26770     26771     26772     26776     26772     26773     26772     26774
     26772     26775     26776     26777     26778     26782     26778     26779
     26778     26780     26778     26781     26782     26783     26784     26788
     26784     26785     26784     26786     26784     26787     26788     26789
     26790     26794     26790     26791     26790     26792     26790     26793
     26794     26795     26796     26800     26796     26797     26796     26798
     26796     26799     26800     26801     26802     26806     26802     26803
     26802     26804     26802     26805     26806     26807     26808     26812
     26808     26809     26808     26810     26808     26811     26812     26813
     26814     26818     26814     26815     26814     26816     26814     26817
     26818     26819     26820     26824     26820     26821     26820     26822
     26820     26823     26824     26825     26826     26830     26826     26827
     26826     26828     26826     26829     26830     26831     26832     26836
     26832     26833     26832     26834     26832     26835     26836     26837
     26838     26842     26838     26839     26838     26840     26838     26841
     26842     26843     26844     26848     26844     26845     26844     26846
     26844     26847     26848     26849     26850     26854     26850     26851
     26850     26852     26850     26853     26854     26855     26856     26860
     26856     26857     26856     26858     26856     26859     26860     26861
     26862     26866     26862     26863     26862     26864     26862     26865
     26866     26867     26868     26872     26868     26869     26868     26870
     26868     26871     26872     26873     26874     26878     26874     26875
     26874     26876     26874     26877     26878     26879     26880     26884
     26880     26881     26880     26882     26880     26883     26884     26885
     26886     26890     26886     26887     26886     26888     26886     26889
     26890     26891     26892     26896     26892     26893     26892     26894
     26892     26895     26896     26897     26898     26902     26898     26899
     26898     26900     26898     26901     26902     26903     26904     26908
     26904     26905     26904     26906     26904     26907     26908     26909
     26910     26914     26910     26911     26910     26912     26910     26913
     26914     26915     26916     26920     26916     26917     26916     26918
     26916     26919     26920     26921     26922     26926     26922     26923
     26922     26924     26922     26925     26926     26927     26928     26932
     26928     26929     26928     26930     26928     26931     26932     26933
     26934     26938     26934     26935     26934     26936     26934     26937
     26938     26939     26940     26944     26940     26941     26940     26942
     26940     26943     26944     26945     26946     26950     26946     26947
     26946     26948     26946     26949     26950     26951     26952     26956
     26952     26953     26952     26954     26952     26955     26956     26957
     26958     26962     26958     26959     26958     26960     26958     26961
     26962     26963     26964     26968     26964     26965     26964     26966
     26964     26967     26968     26969     26970     26974     26970     26971
     26970     26972     26970     26973     26974     26975     26976     26980
     26976     26977     26976     26978     26976     26979     26980     26981
     26982     26986     26982     26983     26982     26984     26982     26985
     26986     26987     26988     26992     26988     26989     26988     26990
     26988     26991     26992     26993     26994     26998     26994     26995
     26994     26996     26994     26997     26998     26999     27000     27004
     27000     27001     27000     27002     27000     27003     27004     27005
     27006     27010     27006     27007     27006     27008     27006     27009
     27010     27011     27012     27016     27012     27013     27012     27014
     27012     27015     27016     27017     27018     27022     27018     27019
     27018     27020     27018     27021     27022     27023     27024     27028
     27024     27025     27024     27026     27024     27027     27028     27029
     27030     27034     27030     27031     27030     27032     27030     27033
     27034     27035     27036     27040     27036     27037     27036     27038
     27036     27039     27040     27041     27042     27046     27042     27043
     27042     27044     27042     27045     27046     27047     27048     27052
     27048     27049     27048     27050     27048     27051     27052     27053
     27054     27058     27054     27055     27054     27056     27054     27057
     27058     27059     27060     27064     27060     27061     27060     27062
     27060     27063     27064     27065     27066     27070     27066     27067
     27066     27068     27066     27069     27070     27071     27072     27076
     27072     27073     27072     27074     27072     27075     27076     27077
     27078     27082     27078     27079     27078     27080     27078     27081
     27082     27083     27084     27088     27084     27085     27084     27086
     27084     27087     27088     27089     27090     27094     27090     27091
     27090     27092     27090     27093     27094     27095     27096     27100
     27096     27097     27096     27098     27096     27099     27100     27101
     27102     27106     27102     27103     27102     27104     27102     27105
     27106     27107     27108     27112     27108     27109     27108     27110
     27108     27111     27112     27113     27114     27118     27114     27115
     27114     27116     27114     27117     27118     27119     27120     27124
     27120     27121     27120     27122     27120     27123     27124     27125
     27126     27130     27126     27127     27126     27128     27126     27129
     27130     27131     27132     27136     27132     27133     27132     27134
     27132     27135     27136     27137     27138     27142     27138     27139
     27138     27140     27138     27141     27142     27143     27144     27148
     27144     27145     27144     27146     27144     27147     27148     27149
     27150     27154     27150     27151     27150     27152     27150     27153
     27154     27155     27156     27160     27156     27157     27156     27158
     27156     27159     27160     27161     27162     27166     27162     27163
     27162     27164     27162     27165     27166     27167     27168     27172
     27168     27169     27168     27170     27168     27171     27172     27173
     27174     27178     27174     27175     27174     27176     27174     27177
     27178     27179     27180     27184     27180     27181     27180     27182
     27180     27183     27184     27185     27186     27190     27186     27187
     27186     27188     27186     27189     27190     27191     27192     27196
     27192     27193     27192     27194     27192     27195     27196     27197
     27198     27202     27198     27199     27198     27200     27198     27201
     27202     27203     27204     27208     27204     27205     27204     27206
     27204     27207     27208     27209     27210     27214     27210     27211
     27210     27212     27210     27213     27214     27215     27216     27220
     27216     27217     27216     27218     27216     27219     27220     27221
     27222     27226     27222     27223     27222     27224     27222     27225
     27226     27227     27228     27232     27228     27229     27228     27230
     27228     27231     27232     27233     27234     27238     27234     27235
     27234     27236     27234     27237     27238     27239     27240     27244
     27240     27241     27240     27242     27240     27243     27244     27245
     27246     27250     27246     27247     27246     27248     27246     27249
     27250     27251     27252     27256     27252     27253     27252     27254
     27252     27255     27256     27257     27258     27262     27258     27259
     27258     27260     27258     27261     27262     27263     27264     27268
     27264     27265     27264     27266     27264     27267     27268     27269
     27270     27274     27270     27271     27270     27272     27270     27273
     27274     27275     27276     27280     27276     27277     27276     27278
     27276     27279     27280     27281     27282     27286     27282     27283
     27282     27284     27282     27285     27286     27287     27288     27292
     27288     27289     27288     27290     27288     27291     27292     27293
     27294     27298     27294     27295     27294     27296     27294     27297
     27298     27299     27300     27304     27300     27301     27300     27302
     27300     27303     27304     27305     27306     27310     27306     27307
     27306     27308     27306     27309     27310     27311     27312     27316
     27312     27313     27312     27314     27312     27315     27316     27317
     27318     27322     27318     27319     27318     27320     27318     27321
     27322     27323     27324     27328     27324     27325     27324     27326
     27324     27327     27328     27329     27330     27334     27330     27331
     27330     27332     27330     27333     27334     27335     27336     27340
     27336     27337     27336     27338     27336     27339     27340     27341
     27342     27346     27342     27343     27342     27344     27342     27345
     27346     27347     27348     27352     27348     27349     27348     27350
     27348     27351     27352     27353     27354     27358     27354     27355
     27354     27356     27354     27357     27358     27359     27360     27364
     27360     27361     27360     27362     27360     27363     27364     27365
     27366     27370     27366     27367     27366     27368     27366     27369
     27370     27371     27372     27376     27372     27373     27372     27374
     27372     27375     27376     27377     27378     27382     27378     27379
     27378     27380     27378     27381     27382     27383     27384     27388
     27384     27385     27384     27386     27384     27387     27388     27389
     27390     27394     27390     27391     27390     27392     27390     27393
     27394     27395     27396     27400     27396     27397     27396     27398
     27396     27399     27400     27401     27402     27406     27402     27403
     27402     27404     27402     27405     27406     27407     27408     27412
     27408     27409     27408     27410     27408     27411     27412     27413
     27414     27418     27414     27415     27414     27416     27414     27417
     27418     27419     27420     27424     27420     27421     27420     27422
     27420     27423     27424     27425     27426     27430     27426     27427
     27426     27428     27426     27429     27430     27431     27432     27436
     27432     27433     27432     27434     27432     27435     27436     27437
     27438     27442     27438     27439     27438     27440     27438     27441
     27442     27443     27444     27448     27444     27445     27444     27446
     27444     27447     27448     27449     27450     27454     27450     27451
     27450     27452     27450     27453     27454     27455     27456     27460
     27456     27457     27456     27458     27456     27459     27460     27461
     27462     27466     27462     27463     27462     27464     27462     27465
     27466     27467     27468     27472     27468     27469     27468     27470
     27468     27471     27472     27473     27474     27478     27474     27475
     27474     27476     27474     27477     27478     27479     27480     27484
     27480     27481     27480     27482     27480     27483     27484     27485
     27486     27490     27486     27487     27486     27488     27486     27489
     27490     27491     27492     27496     27492     27493     27492     27494
     27492     27495     27496     27497     27498     27502     27498     27499
     27498     27500     27498     27501     27502     27503     27504     27508
     27504     27505     27504     27506     27504     27507     27508     27509
     27510     27514     27510     27511     27510     27512     27510     27513
     27514     27515     27516     27520     27516     27517     27516     27518
     27516     27519     27520     27521     27522     27526     27522     27523
     27522     27524     27522     27525     27526     27527     27528     27532
     27528     27529     27528     27530     27528     27531     27532     27533
     27534     27538     27534     27535     27534     27536     27534     27537
     27538     27539     27540     27544     27540     27541     27540     27542
     27540     27543     27544     27545     27546     27550     27546     27547
     27546     27548     27546     27549     27550     27551     27552     27556
     27552     27553     27552     27554     27552     27555     27556     27557
     27558     27562     27558     27559     27558     27560     27558     27561
     27562     27563     27564     27568     27564     27565     27564     27566
     27564     27567     27568     27569     27570     27574     27570     27571
     27570     27572     27570     27573     27574     27575     27576     27580
     27576     27577     27576     27578     27576     27579     27580     27581
     27582     27586     27582     27583     27582     27584     27582     27585
     27586     27587     27588     27592     27588     27589     27588     27590
     27588     27591     27592     27593     27594     27598     27594     27595
     27594     27596     27594     27597     27598     27599     27600     27604
     27600     27601     27600     27602     27600     27603     27604     27605
     27606     27610     27606     27607     27606     27608     27606     27609
     27610     27611     27612     27616     27612     27613     27612     27614
     27612     27615     27616     27617     27618     27622     27618     27619
     27618     27620     27618     27621     27622     27623     27624     27628
     27624     27625     27624     27626     27624     27627     27628     27629
     27630     27634     27630     27631     27630     27632     27630     27633
     27634     27635     27636     27640     27636     27637     27636     27638
     27636     27639     27640     27641     27642     27646     27642     27643
     27642     27644     27642     27645     27646     27647     27648     27652
     27648     27649     27648     27650     27648     27651     27652     27653
     27654     27658     27654     27655     27654     27656     27654     27657
     27658     27659     27660     27664     27660     27661     27660     27662
     27660     27663     27664     27665     27666     27670     27666     27667
     27666     27668     27666     27669     27670     27671     27672     27676
     27672     27673     27672     27674     27672     27675     27676     27677
     27678     27682     27678     27679     27678     27680     27678     27681
     27682     27683     27684     27688     27684     27685     27684     27686
     27684     27687     27688     27689     27690     27694     27690     27691
     27690     27692     27690     27693     27694     27695     27696     27700
     27696     27697     27696     27698     27696     27699     27700     27701
     27702     27706     27702     27703     27702     27704     27702     27705
     27706     27707     27708     27712     27708     27709     27708     27710
     27708     27711     27712     27713     27714     27718     27714     27715
     27714     27716     27714     27717     27718     27719     27720     27724
     27720     27721     27720     27722     27720     27723     27724     27725
     27726     27730     27726     27727     27726     27728     27726     27729
     27730     27731     27732     27736     27732     27733     27732     27734
     27732     27735     27736     27737     27738     27742     27738     27739
     27738     27740     27738     27741     27742     27743     27744     27748
     27744     27745     27744     27746     27744     27747     27748     27749
     27750     27754     27750     27751     27750     27752     27750     27753
     27754     27755     27756     27760     27756     27757     27756     27758
     27756     27759     27760     27761     27762     27766     27762     27763
     27762     27764     27762     27765     27766     27767     27768     27772
     27768     27769     27768     27770     27768     27771     27772     27773
     27774     27778     27774     27775     27774     27776     27774     27777
     27778     27779     27780     27784     27780     27781     27780     27782
     27780     27783     27784     27785     27786     27790     27786     27787
     27786     27788     27786     27789     27790     27791     27792     27796
     27792     27793     27792     27794     27792     27795     27796     27797
     27798     27802     27798     27799     27798     27800     27798     27801
     27802     27803     27804     27808     27804     27805     27804     27806
     27804     27807     27808     27809     27810     27814     27810     27811
     27810     27812     27810     27813     27814     27815     27816     27820
     27816     27817     27816     27818     27816     27819     27820     27821
     27822     27826     27822     27823     27822     27824     27822     27825
     27826     27827     27828     27832     27828     27829     27828     27830
     27828     27831     27832     27833     27834     27838     27834     27835
     27834     27836     27834     27837     27838     27839     27840     27844
     27840     27841     27840     27842     27840     27843     27844     27845
     27846     27850     27846     27847     27846     27848     27846     27849
     27850     27851     27852     27856     27852     27853     27852     27854
     27852     27855     27856     27857     27858     27862     27858     27859
     27858     27860     27858     27861     27862     27863     27864     27868
     27864     27865     27864     27866     27864     27867     27868     27869
     27870     27874     27870     27871     27870     27872     27870     27873
     27874     27875     27876     27880     27876     27877     27876     27878
     27876     27879     27880     27881     27882     27886     27882     27883
     27882     27884     27882     27885     27886     27887     27888     27892
     27888     27889     27888     27890     27888     27891     27892     27893
     27894     27898     27894     27895     27894     27896     27894     27897
     27898     27899     27900     27904     27900     27901     27900     27902
     27900     27903     27904     27905     27906     27910     27906     27907
     27906     27908     27906     27909     27910     27911     27912     27916
     27912     27913     27912     27914     27912     27915     27916     27917
     27918     27922     27918     27919     27918     27920     27918     27921
     27922     27923     27924     27928     27924     27925     27924     27926
     27924     27927     27928     27929     27930     27934     27930     27931
     27930     27932     27930     27933     27934     27935     27936     27940
     27936     27937     27936     27938     27936     27939     27940     27941
     27942     27946     27942     27943     27942     27944     27942     27945
     27946     27947     27948     27952     27948     27949     27948     27950
     27948     27951     27952     27953     27954     27958     27954     27955
     27954     27956     27954     27957     27958     27959     27960     27964
     27960     27961     27960     27962     27960     27963     27964     27965
     27966     27970     27966     27967     27966     27968     27966     27969
     27970     27971     27972     27976     27972     27973     27972     27974
     27972     27975     27976     27977     27978     27982     27978     27979
     27978     27980     27978     27981     27982     27983     27984     27988
     27984     27985     27984     27986     27984     27987     27988     27989
     27990     27994     27990     27991     27990     27992     27990     27993
     27994     27995     27996     28000     27996     27997     27996     27998
     27996     27999     28000     28001     28002     28006     28002     28003
     28002     28004     28002     28005     28006     28007     28008     28012
     28008     28009     28008     28010     28008     28011     28012     28013
     28014     28018     28014     28015     28014     28016     28014     28017
     28018     28019     28020     28024     28020     28021     28020     28022
     28020     28023     28024     28025     28026     28030     28026     28027
     28026     28028     28026     28029     28030     28031     28032     28036
     28032     28033     28032     28034     28032     28035     28036     28037
     28038     28042     28038     28039     28038     28040     28038     28041
     28042     28043     28044     28048     28044     28045     28044     28046
     28044     28047     28048     28049     28050     28054     28050     28051
     28050     28052     28050     28053     28054     28055     28056     28060
     28056     28057     28056     28058     28056     28059     28060     28061
     28062     28066     28062     28063     28062     28064     28062     28065
     28066     28067     28068     28072     28068     28069     28068     28070
     28068     28071     28072     28073     28074     28078     28074     28075
     28074     28076     28074     28077     28078     28079     28080     28084
     28080     28081     28080     28082     28080     28083     28084     28085
     28086     28090     28086     28087     28086     28088     28086     28089
     28090     28091     28092     28096     28092     28093     28092     28094
     28092     28095     28096     28097     28098     28102     28098     28099
     28098     28100     28098     28101     28102     28103     28104     28108
     28104     28105     28104     28106     28104     28107     28108     28109
     28110     28114     28110     28111     28110     28112     28110     28113
     28114     28115     28116     28120     28116     28117     28116     28118
     28116     28119     28120     28121     28122     28126     28122     28123
     28122     28124     28122     28125     28126     28127     28128     28132
     28128     28129     28128     28130     28128     28131     28132     28133
     28134     28138     28134     28135     28134     28136     28134     28137
     28138     28139     28140     28144     28140     28141     28140     28142
     28140     28143     28144     28145     28146     28150     28146     28147
     28146     28148     28146     28149     28150     28151     28152     28156
     28152     28153     28152     28154     28152     28155     28156     28157
     28158     28162     28158     28159     28158     28160     28158     28161
     28162     28163     28164     28168     28164     28165     28164     28166
     28164     28167     28168     28169     28170     28174     28170     28171
     28170     28172     28170     28173     28174     28175     28176     28180
     28176     28177     28176     28178     28176     28179     28180     28181
     28182     28186     28182     28183     28182     28184     28182     28185
     28186     28187     28188     28192     28188     28189     28188     28190
     28188     28191     28192     28193     28194     28198     28194     28195
     28194     28196     28194     28197     28198     28199     28200     28204
     28200     28201     28200     28202     28200     28203     28204     28205
     28206     28210     28206     28207     28206     28208     28206     28209
     28210     28211     28212     28216     28212     28213     28212     28214
     28212     28215     28216     28217     28218     28222     28218     28219
     28218     28220     28218     28221     28222     28223     28224     28228
     28224     28225     28224     28226     28224     28227     28228     28229
     28230     28234     28230     28231     28230     28232     28230     28233
     28234     28235     28236     28240     28236     28237     28236     28238
     28236     28239     28240     28241     28242     28246     28242     28243
     28242     28244     28242     28245     28246     28247     28248     28252
     28248     28249     28248     28250     28248     28251     28252     28253
     28254     28258     28254     28255     28254     28256     28254     28257
     28258     28259     28260     28264     28260     28261     28260     28262
     28260     28263     28264     28265     28266     28270     28266     28267
     28266     28268     28266     28269     28270     28271     28272     28276
     28272     28273     28272     28274     28272     28275     28276     28277
     28278     28282     28278     28279     28278     28280     28278     28281
     28282     28283     28284     28288     28284     28285     28284     28286
     28284     28287     28288     28289     28290     28294     28290     28291
     28290     28292     28290     28293     28294     28295     28296     28300
     28296     28297     28296     28298     28296     28299     28300     28301
     28302     28306     28302     28303     28302     28304     28302     28305
     28306     28307     28308     28312     28308     28309     28308     28310
     28308     28311     28312     28313     28314     28318     28314     28315
     28314     28316     28314     28317     28318     28319     28320     28324
     28320     28321     28320     28322     28320     28323     28324     28325
     28326     28330     28326     28327     28326     28328     28326     28329
     28330     28331     28332     28336     28332     28333     28332     28334
     28332     28335     28336     28337     28338     28342     28338     28339
     28338     28340     28338     28341     28342     28343     28344     28348
     28344     28345     28344     28346     28344     28347     28348     28349
     28350     28354     28350     28351     28350     28352     28350     28353
     28354     28355     28356     28360     28356     28357     28356     28358
     28356     28359     28360     28361     28362     28366     28362     28363
     28362     28364     28362     28365     28366     28367     28368     28372
     28368     28369     28368     28370     28368     28371     28372     28373
     28374     28378     28374     28375     28374     28376     28374     28377
     28378     28379     28380     28384     28380     28381     28380     28382
     28380     28383     28384     28385     28386     28390     28386     28387
     28386     28388     28386     28389     28390     28391     28392     28396
     28392     28393     28392     28394     28392     28395     28396     28397
     28398     28402     28398     28399     28398     28400     28398     28401
     28402     28403     28404     28408     28404     28405     28404     28406
     28404     28407     28408     28409     28410     28414     28410     28411
     28410     28412     28410     28413     28414     28415     28416     28420
     28416     28417     28416     28418     28416     28419     28420     28421
     28422     28426     28422     28423     28422     28424     28422     28425
     28426     28427     28428     28432     28428     28429     28428     28430
     28428     28431     28432     28433     28434     28438     28434     28435
     28434     28436     28434     28437     28438     28439     28440     28444
     28440     28441     28440     28442     28440     28443     28444     28445
     28446     28450     28446     28447     28446     28448     28446     28449
     28450     28451     28452     28456     28452     28453     28452     28454
     28452     28455     28456     28457     28458     28462     28458     28459
     28458     28460     28458     28461     28462     28463     28464     28468
     28464     28465     28464     28466     28464     28467     28468     28469
     28470     28474     28470     28471     28470     28472     28470     28473
     28474     28475     28476     28480     28476     28477     28476     28478
     28476     28479     28480     28481     28482     28486     28482     28483
     28482     28484     28482     28485     28486     28487     28488     28492
     28488     28489     28488     28490     28488     28491     28492     28493
     28494     28498     28494     28495     28494     28496     28494     28497
     28498     28499     28500     28504     28500     28501     28500     28502
     28500     28503     28504     28505     28506     28510     28506     28507
     28506     28508     28506     28509     28510     28511     28512     28516
     28512     28513     28512     28514     28512     28515     28516     28517
     28518     28522     28518     28519     28518     28520     28518     28521
     28522     28523     28524     28528     28524     28525     28524     28526
     28524     28527     28528     28529     28530     28534     28530     28531
     28530     28532     28530     28533     28534     28535     28536     28540
     28536     28537     28536     28538     28536     28539     28540     28541
     28542     28546     28542     28543     28542     28544     28542     28545
     28546     28547     28548     28552     28548     28549     28548     28550
     28548     28551     28552     28553     28554     28558     28554     28555
     28554     28556     28554     28557     28558     28559     28560     28564
     28560     28561     28560     28562     28560     28563     28564     28565
     28566     28570     28566     28567     28566     28568     28566     28569
     28570     28571     28572     28576     28572     28573     28572     28574
     28572     28575     28576     28577     28578     28582     28578     28579
     28578     28580     28578     28581     28582     28583     28584     28588
     28584     28585     28584     28586     28584     28587     28588     28589
     28590     28594     28590     28591     28590     28592     28590     28593
     28594     28595     28596     28600     28596     28597     28596     28598
     28596     28599     28600     28601     28602     28606     28602     28603
     28602     28604     28602     28605     28606     28607     28608     28612
     28608     28609     28608     28610     28608     28611     28612     28613
     28614     28618     28614     28615     28614     28616     28614     28617
     28618     28619     28620     28624     28620     28621     28620     28622
     28620     28623     28624     28625     28626     28630     28626     28627
     28626     28628     28626     28629     28630     28631     28632     28636
     28632     28633     28632     28634     28632     28635     28636     28637
     28638     28642     28638     28639     28638     28640     28638     28641
     28642     28643     28644     28648     28644     28645     28644     28646
     28644     28647     28648     28649     28650     28654     28650     28651
     28650     28652     28650     28653     28654     28655     28656     28660
     28656     28657     28656     28658     28656     28659     28660     28661
     28662     28666     28662     28663     28662     28664     28662     28665
     28666     28667     28668     28672     28668     28669     28668     28670
     28668     28671     28672     28673     28674     28678     28674     28675
     28674     28676     28674     28677     28678     28679     28680     28684
     28680     28681     28680     28682     28680     28683     28684     28685
     28686     28690     28686     28687     28686     28688     28686     28689
     28690     28691     28692     28696     28692     28693     28692     28694
     28692     28695     28696     28697     28698     28702     28698     28699
     28698     28700     28698     28701     28702     28703     28704     28708
     28704     28705     28704     28706     28704     28707     28708     28709
     28710     28714     28710     28711     28710     28712     28710     28713
     28714     28715     28716     28720     28716     28717     28716     28718
     28716     28719     28720     28721     28722     28726     28722     28723
     28722     28724     28722     28725     28726     28727     28728     28732
     28728     28729     28728     28730     28728     28731     28732     28733
     28734     28738     28734     28735     28734     28736     28734     28737
     28738     28739     28740     28744     28740     28741     28740     28742
     28740     28743     28744     28745     28746     28750     28746     28747
     28746     28748     28746     28749     28750     28751     28752     28756
     28752     28753     28752     28754     28752     28755     28756     28757
     28758     28762     28758     28759     28758     28760     28758     28761
     28762     28763     28764     28768     28764     28765     28764     28766
     28764     28767     28768     28769     28770     28774     28770     28771
     28770     28772     28770     28773     28774     28775     28776     28780
     28776     28777     28776     28778     28776     28779     28780     28781
     28782     28786     28782     28783     28782     28784     28782     28785
     28786     28787     28788     28792     28788     28789     28788     28790
     28788     28791     28792     28793     28794     28798     28794     28795
     28794     28796     28794     28797     28798     28799     28800     28804
     28800     28801     28800     28802     28800     28803     28804     28805
     28806     28810     28806     28807     28806     28808     28806     28809
     28810     28811     28812     28816     28812     28813     28812     28814
     28812     28815     28816     28817     28818     28822     28818     28819
     28818     28820     28818     28821     28822     28823     28824     28828
     28824     28825     28824     28826     28824     28827     28828     28829
     28830     28834     28830     28831     28830     28832     28830     28833
     28834     28835     28836     28840     28836     28837     28836     28838
     28836     28839     28840     28841     28842     28846     28842     28843
     28842     28844     28842     28845     28846     28847     28848     28852
     28848     28849     28848     28850     28848     28851     28852     28853
     28854     28858     28854     28855     28854     28856     28854     28857
     28858     28859     28860     28864     28860     28861     28860     28862
     28860     28863     28864     28865     28866     28870     28866     28867
     28866     28868     28866     28869     28870     28871     28872     28876
     28872     28873     28872     28874     28872     28875     28876     28877
     28878     28882     28878     28879     28878     28880     28878     28881
     28882     28883     28884     28888     28884     28885     28884     28886
     28884     28887     28888     28889     28890     28894     28890     28891
     28890     28892     28890     28893     28894     28895     28896     28900
     28896     28897     28896     28898     28896     28899     28900     28901
     28902     28906     28902     28903     28902     28904     28902     28905
     28906     28907     28908     28912     28908     28909     28908     28910
     28908     28911     28912     28913     28914     28918     28914     28915
     28914     28916     28914     28917     28918     28919     28920     28924
     28920     28921     28920     28922     28920     28923     28924     28925
     28926     28930     28926     28927     28926     28928     28926     28929
     28930     28931     28932     28936     28932     28933     28932     28934
     28932     28935     28936     28937     28938     28942     28938     28939
     28938     28940     28938     28941     28942     28943     28944     28948
     28944     28945     28944     28946     28944     28947     28948     28949
     28950     28954     28950     28951     28950     28952     28950     28953
     28954     28955     28956     28960     28956     28957     28956     28958
     28956     28959     28960     28961     28962     28966     28962     28963
     28962     28964     28962     28965     28966     28967     28968     28972
     28968     28969     28968     28970     28968     28971     28972     28973
     28974     28978     28974     28975     28974     28976     28974     28977
     28978     28979     28980     28984     28980     28981     28980     28982
     28980     28983     28984     28985     28986     28990     28986     28987
     28986     28988     28986     28989     28990     28991     28992     28996
     28992     28993     28992     28994     28992     28995     28996     28997
     28998     29002     28998     28999     28998     29000     28998     29001
     29002     29003     29004     29008     29004     29005     29004     29006
     29004     29007     29008     29009     29010     29014     29010     29011
     29010     29012     29010     29013     29014     29015     29016     29020
     29016     29017     29016     29018     29016     29019     29020     29021
     29022     29026     29022     29023     29022     29024     29022     29025
     29026     29027     29028     29032     29028     29029     29028     29030
     29028     29031     29032     29033     29034     29038     29034     29035
     29034     29036     29034     29037     29038     29039     29040     29044
     29040     29041     29040     29042     29040     29043     29044     29045
     29046     29050     29046     29047     29046     29048     29046     29049
     29050     29051     29052     29056     29052     29053     29052     29054
     29052     29055     29056     29057     29058     29062     29058     29059
     29058     29060     29058     29061     29062     29063     29064     29068
     29064     29065     29064     29066     29064     29067     29068     29069
     29070     29074     29070     29071     29070     29072     29070     29073
     29074     29075     29076     29080     29076     29077     29076     29078
     29076     29079     29080     29081     29082     29086     29082     29083
     29082     29084     29082     29085     29086     29087     29088     29092
     29088     29089     29088     29090     29088     29091     29092     29093
     29094     29098     29094     29095     29094     29096     29094     29097
     29098     29099     29100     29104     29100     29101     29100     29102
     29100     29103     29104     29105     29106     29110     29106     29107
     29106     29108     29106     29109     29110     29111     29112     29116
     29112     29113     29112     29114     29112     29115     29116     29117
     29118     29122     29118     29119     29118     29120     29118     29121
     29122     29123     29124     29128     29124     29125     29124     29126
     29124     29127     29128     29129     29130     29134     29130     29131
     29130     29132     29130     29133     29134     29135     29136     29140
     29136     29137     29136     29138     29136     29139     29140     29141
     29142     29146     29142     29143     29142     29144     29142     29145
     29146     29147     29148     29152     29148     29149     29148     29150
     29148     29151     29152     29153     29154     29158     29154     29155
     29154     29156     29154     29157     29158     29159     29160     29164
     29160     29161     29160     29162     29160     29163     29164     29165
     29166     29170     29166     29167     29166     29168     29166     29169
     29170     29171     29172     29176     29172     29173     29172     29174
     29172     29175     29176     29177     29178     29182     29178     29179
     29178     29180     29178     29181     29182     29183     29184     29188
     29184     29185     29184     29186     29184     29187     29188     29189
     29190     29194     29190     29191     29190     29192     29190     29193
     29194     29195     29196     29200     29196     29197     29196     29198
     29196     29199     29200     29201     29202     29206     29202     29203
     29202     29204     29202     29205     29206     29207     29208     29212
     29208     29209     29208     29210     29208     29211     29212     29213
     29214     29218     29214     29215     29214     29216     29214     29217
     29218     29219     29220     29224     29220     29221     29220     29222
     29220     29223     29224     29225     29226     29230     29226     29227
     29226     29228     29226     29229     29230     29231     29232     29236
     29232     29233     29232     29234     29232     29235     29236     29237
     29238     29242     29238     29239     29238     29240     29238     29241
     29242     29243     29244     29248     29244     29245     29244     29246
     29244     29247     29248     29249     29250     29254     29250     29251
     29250     29252     29250     29253     29254     29255     29256     29260
     29256     29257     29256     29258     29256     29259     29260     29261
     29262     29266     29262     29263     29262     29264     29262     29265
     29266     29267     29268     29272     29268     29269     29268     29270
     29268     29271     29272     29273     29274     29278     29274     29275
     29274     29276     29274     29277     29278     29279     29280     29284
     29280     29281     29280     29282     29280     29283     29284     29285
     29286     29290     29286     29287     29286     29288     29286     29289
     29290     29291     29292     29296     29292     29293     29292     29294
     29292     29295     29296     29297     29298     29302     29298     29299
     29298     29300     29298     29301     29302     29303     29304     29308
     29304     29305     29304     29306     29304     29307     29308     29309
     29310     29314     29310     29311     29310     29312     29310     29313
     29314     29315     29316     29320     29316     29317     29316     29318
     29316     29319     29320     29321     29322     29326     29322     29323
     29322     29324     29322     29325     29326     29327     29328     29332
     29328     29329     29328     29330     29328     29331     29332     29333
     29334     29338     29334     29335     29334     29336     29334     29337
     29338     29339     29340     29344     29340     29341     29340     29342
     29340     29343     29344     29345     29346     29350     29346     29347
     29346     29348     29346     29349     29350     29351     29352     29356
     29352     29353     29352     29354     29352     29355     29356     29357
     29358     29362     29358     29359     29358     29360     29358     29361
     29362     29363     29364     29368     29364     29365     29364     29366
     29364     29367     29368     29369     29370     29374     29370     29371
     29370     29372     29370     29373     29374     29375     29376     29380
     29376     29377     29376     29378     29376     29379     29380     29381
     29382     29386     29382     29383     29382     29384     29382     29385
     29386     29387     29388     29392     29388     29389     29388     29390
     29388     29391     29392     29393     29394     29398     29394     29395
     29394     29396     29394     29397     29398     29399     29400     29404
     29400     29401     29400     29402     29400     29403     29404     29405
     29406     29410     29406     29407     29406     29408     29406     29409
     29410     29411     29412     29416     29412     29413     29412     29414
     29412     29415     29416     29417     29418     29422     29418     29419
     29418     29420     29418     29421     29422     29423     29424     29428
     29424     29425     29424     29426     29424     29427     29428     29429
     29430     29434     29430     29431     29430     29432     29430     29433
     29434     29435     29436     29440     29436     29437     29436     29438
     29436     29439     29440     29441     29442     29446     29442     29443
     29442     29444     29442     29445     29446     29447     29448     29452
     29448     29449     29448     29450     29448     29451     29452     29453
     29454     29458     29454     29455     29454     29456     29454     29457
     29458     29459     29460     29464     29460     29461     29460     29462
     29460     29463     29464     29465     29466     29470     29466     29467
     29466     29468     29466     29469     29470     29471     29472     29476
     29472     29473     29472     29474     29472     29475     29476     29477
     29478     29482     29478     29479     29478     29480     29478     29481
     29482     29483     29484     29488     29484     29485     29484     29486
     29484     29487     29488     29489     29490     29494     29490     29491
     29490     29492     29490     29493     29494     29495     29496     29500
     29496     29497     29496     29498     29496     29499     29500     29501
     29502     29506     29502     29503     29502     29504     29502     29505
     29506     29507     29508     29512     29508     29509     29508     29510
     29508     29511     29512     29513     29514     29518     29514     29515
     29514     29516     29514     29517     29518     29519     29520     29524
     29520     29521     29520     29522     29520     29523     29524     29525
     29526     29530     29526     29527     29526     29528     29526     29529
     29530     29531     29532     29536     29532     29533     29532     29534
     29532     29535     29536     29537     29538     29542     29538     29539
     29538     29540     29538     29541     29542     29543     29544     29548
     29544     29545     29544     29546     29544     29547     29548     29549
     29550     29554     29550     29551     29550     29552     29550     29553
     29554     29555     29556     29560     29556     29557     29556     29558
     29556     29559     29560     29561     29562     29566     29562     29563
     29562     29564     29562     29565     29566     29567     29568     29572
     29568     29569     29568     29570     29568     29571     29572     29573
     29574     29578     29574     29575     29574     29576     29574     29577
     29578     29579     29580     29584     29580     29581     29580     29582
     29580     29583     29584     29585     29586     29590     29586     29587
     29586     29588     29586     29589     29590     29591     29592     29596
     29592     29593     29592     29594     29592     29595     29596     29597
     29598     29602     29598     29599     29598     29600     29598     29601
     29602     29603     29604     29608     29604     29605     29604     29606
     29604     29607     29608     29609     29610     29614     29610     29611
     29610     29612     29610     29613     29614     29615     29616     29620
     29616     29617     29616     29618     29616     29619     29620     29621
     29622     29626     29622     29623     29622     29624     29622     29625
     29626     29627     29628     29632     29628     29629     29628     29630
     29628     29631     29632     29633     29634     29638     29634     29635
     29634     29636     29634     29637     29638     29639     29640     29644
     29640     29641     29640     29642     29640     29643     29644     29645
     29646     29650     29646     29647     29646     29648     29646     29649
     29650     29651     29652     29656     29652     29653     29652     29654
     29652     29655     29656     29657     29658     29662     29658     29659
     29658     29660     29658     29661     29662     29663     29664     29668
     29664     29665     29664     29666     29664     29667     29668     29669
     29670     29674     29670     29671     29670     29672     29670     29673
     29674     29675     29676     29680     29676     29677     29676     29678
     29676     29679     29680     29681     29682     29686     29682     29683
     29682     29684     29682     29685     29686     29687     29688     29692
     29688     29689     29688     29690     29688     29691     29692     29693
     29694     29698     29694     29695     29694     29696     29694     29697
     29698     29699     29700     29704     29700     29701     29700     29702
     29700     29703     29704     29705     29706     29710     29706     29707
     29706     29708     29706     29709     29710     29711     29712     29716
     29712     29713     29712     29714     29712     29715     29716     29717
     29718     29722     29718     29719     29718     29720     29718     29721
     29722     29723     29724     29728     29724     29725     29724     29726
     29724     29727     29728     29729     29730     29734     29730     29731
     29730     29732     29730     29733     29734     29735     29736     29740
     29736     29737     29736     29738     29736     29739     29740     29741
     29742     29746     29742     29743     29742     29744     29742     29745
     29746     29747     29748     29752     29748     29749     29748     29750
     29748     29751     29752     29753     29754     29758     29754     29755
     29754     29756     29754     29757     29758     29759     29760     29764
     29760     29761     29760     29762     29760     29763     29764     29765
     29766     29770     29766     29767     29766     29768     29766     29769
     29770     29771     29772     29776     29772     29773     29772     29774
     29772     29775     29776     29777     29778     29782     29778     29779
     29778     29780     29778     29781     29782     29783     29784     29788
     29784     29785     29784     29786     29784     29787     29788     29789
     29790     29794     29790     29791     29790     29792     29790     29793
     29794     29795     29796     29800     29796     29797     29796     29798
     29796     29799     29800     29801     29802     29806     29802     29803
     29802     29804     29802     29805     29806     29807     29808     29812
     29808     29809     29808     29810     29808     29811     29812     29813
     29814     29818     29814     29815     29814     29816     29814     29817
     29818     29819     29820     29824     29820     29821     29820     29822
     29820     29823     29824     29825     29826     29830     29826     29827
     29826     29828     29826     29829     29830     29831     29832     29836
     29832     29833     29832     29834     29832     29835     29836     29837
     29838     29842     29838     29839     29838     29840     29838     29841
     29842     29843     29844     29848     29844     29845     29844     29846
     29844     29847     29848     29849     29850     29854     29850     29851
     29850     29852     29850     29853     29854     29855     29856     29860
     29856     29857     29856     29858     29856     29859     29860     29861
     29862     29866     29862     29863     29862     29864     29862     29865
     29866     29867     29868     29872     29868     29869     29868     29870
     29868     29871     29872     29873     29874     29878     29874     29875
     29874     29876     29874     29877     29878     29879     29880     29884
     29880     29881     29880     29882     29880     29883     29884     29885
     29886     29890     29886     29887     29886     29888     29886     29889
     29890     29891     29892     29896     29892     29893     29892     29894
     29892     29895     29896     29897     29898     29902     29898     29899
     29898     29900     29898     29901     29902     29903     29904     29908
     29904     29905     29904     29906     29904     29907     29908     29909
     29910     29914     29910     29911     29910     29912     29910     29913
     29914     29915     29916     29920     29916     29917     29916     29918
     29916     29919     29920     29921     29922     29926     29922     29923
     29922     29924     29922     29925     29926     29927     29928     29932
     29928     29929     29928     29930     29928     29931     29932     29933
     29934     29938     29934     29935     29934     29936     29934     29937
     29938     29939     29940     29944     29940     29941     29940     29942
     29940     29943     29944     29945     29946     29950     29946     29947
     29946     29948     29946     29949     29950     29951     29952     29956
     29952     29953     29952     29954     29952     29955     29956     29957
     29958     29962     29958     29959     29958     29960     29958     29961
     29962     29963     29964     29968     29964     29965     29964     29966
     29964     29967     29968     29969     29970     29974     29970     29971
     29970     29972     29970     29973     29974     29975     29976     29980
     29976     29977     29976     29978     29976     29979     29980     29981
     29982     29986     29982     29983     29982     29984     29982     29985
     29986     29987     29988     29992     29988     29989     29988     29990
     29988     29991     29992     29993     29994     29998     29994     29995
     29994     29996     29994     29997     29998     29999     30000     30004
     30000     30001     30000     30002     30000     30003     30004     30005
     30006     30010     30006     30007     30006     30008     30006     30009
     30010     30011     30012     30016     30012     30013     30012     30014
     30012     30015     30016     30017     30018     30022     30018     30019
     30018     30020     30018     30021     30022     30023     30024     30028
     30024     30025     30024     30026     30024     30027     30028     30029
     30030     30034     30030     30031     30030     30032     30030     30033
     30034     30035     30036     30040     30036     30037     30036     30038
     30036     30039     30040     30041     30042     30046     30042     30043
     30042     30044     30042     30045     30046     30047     30048     30052
     30048     30049     30048     30050     30048     30051     30052     30053
     30054     30058     30054     30055     30054     30056     30054     30057
     30058     30059     30060     30064     30060     30061     30060     30062
     30060     30063     30064     30065     30066     30070     30066     30067
     30066     30068     30066     30069     30070     30071     30072     30076
     30072     30073     30072     30074     30072     30075     30076     30077
     30078     30082     30078     30079     30078     30080     30078     30081
     30082     30083     30084     30088     30084     30085     30084     30086
     30084     30087     30088     30089     30090     30094     30090     30091
     30090     30092     30090     30093     30094     30095     30096     30100
     30096     30097     30096     30098     30096     30099     30100     30101
     30102     30106     30102     30103     30102     30104     30102     30105
     30106     30107     30108     30112     30108     30109     30108     30110
     30108     30111     30112     30113     30114     30118     30114     30115
     30114     30116     30114     30117     30118     30119     30120     30124
     30120     30121     30120     30122     30120     30123     30124     30125
     30126     30130     30126     30127     30126     30128     30126     30129
     30130     30131     30132     30136     30132     30133     30132     30134
     30132     30135     30136     30137     30138     30142     30138     30139
     30138     30140     30138     30141     30142     30143     30144     30148
     30144     30145     30144     30146     30144     30147     30148     30149
     30150     30154     30150     30151     30150     30152     30150     30153
     30154     30155     30156     30160     30156     30157     30156     30158
     30156     30159     30160     30161     30162     30166     30162     30163
     30162     30164     30162     30165     30166     30167     30168     30172
     30168     30169     30168     30170     30168     30171     30172     30173
     30174     30178     30174     30175     30174     30176     30174     30177
     30178     30179     30180     30184     30180     30181     30180     30182
     30180     30183     30184     30185     30186     30190     30186     30187
     30186     30188     30186     30189     30190     30191     30192     30196
     30192     30193     30192     30194     30192     30195     30196     30197
     30198     30202     30198     30199     30198     30200     30198     30201
     30202     30203     30204     30208     30204     30205     30204     30206
     30204     30207     30208     30209     30210     30214     30210     30211
     30210     30212     30210     30213     30214     30215     30216     30220
     30216     30217     30216     30218     30216     30219     30220     30221
     30222     30226     30222     30223     30222     30224     30222     30225
     30226     30227     30228     30232     30228     30229     30228     30230
     30228     30231     30232     30233     30234     30238     30234     30235
     30234     30236     30234     30237     30238     30239     30240     30244
     30240     30241     30240     30242     30240     30243     30244     30245
     30246     30250     30246     30247     30246     30248     30246     30249
     30250     30251     30252     30256     30252     30253     30252     30254
     30252     30255     30256     30257     30258     30262     30258     30259
     30258     30260     30258     30261     30262     30263     30264     30268
     30264     30265     30264     30266     30264     30267     30268     30269
     30270     30274     30270     30271     30270     30272     30270     30273
     30274     30275     30276     30280     30276     30277     30276     30278
     30276     30279     30280     30281     30282     30286     30282     30283
     30282     30284     30282     30285     30286     30287     30288     30292
     30288     30289     30288     30290     30288     30291     30292     30293
     30294     30298     30294     30295     30294     30296     30294     30297
     30298     30299     30300     30304     30300     30301     30300     30302
     30300     30303     30304     30305     30306     30310     30306     30307
     30306     30308     30306     30309     30310     30311     30312     30316
     30312     30313     30312     30314     30312     30315     30316     30317
     30318     30322     30318     30319     30318     30320     30318     30321
     30322     30323     30324     30328     30324     30325     30324     30326
     30324     30327     30328     30329     30330     30334     30330     30331
     30330     30332     30330     30333     30334     30335     30336     30340
     30336     30337     30336     30338     30336     30339     30340     30341
     30342     30346     30342     30343     30342     30344     30342     30345
     30346     30347     30348     30352     30348     30349     30348     30350
     30348     30351     30352     30353     30354     30358     30354     30355
     30354     30356     30354     30357     30358     30359     30360     30364
     30360     30361     30360     30362     30360     30363     30364     30365
     30366     30370     30366     30367     30366     30368     30366     30369
     30370     30371     30372     30376     30372     30373     30372     30374
     30372     30375     30376     30377     30378     30382     30378     30379
     30378     30380     30378     30381     30382     30383     30384     30388
     30384     30385     30384     30386     30384     30387     30388     30389
     30390     30394     30390     30391     30390     30392     30390     30393
     30394     30395     30396     30400     30396     30397     30396     30398
     30396     30399     30400     30401     30402     30406     30402     30403
     30402     30404     30402     30405     30406     30407     30408     30412
     30408     30409     30408     30410     30408     30411     30412     30413
     30414     30418     30414     30415     30414     30416     30414     30417
     30418     30419     30420     30424     30420     30421     30420     30422
     30420     30423     30424     30425     30426     30430     30426     30427
     30426     30428     30426     30429     30430     30431     30432     30436
     30432     30433     30432     30434     30432     30435     30436     30437
     30438     30442     30438     30439     30438     30440     30438     30441
     30442     30443     30444     30448     30444     30445     30444     30446
     30444     30447     30448     30449     30450     30454     30450     30451
     30450     30452     30450     30453     30454     30455     30456     30460
     30456     30457     30456     30458     30456     30459     30460     30461
     30462     30466     30462     30463     30462     30464     30462     30465
     30466     30467     30468     30472     30468     30469     30468     30470
     30468     30471     30472     30473     30474     30478     30474     30475
     30474     30476     30474     30477     30478     30479     30480     30484
     30480     30481     30480     30482     30480     30483     30484     30485
     30486     30490     30486     30487     30486     30488     30486     30489
     30490     30491     30492     30496     30492     30493     30492     30494
     30492     30495     30496     30497     30498     30502     30498     30499
     30498     30500     30498     30501     30502     30503     30504     30508
     30504     30505     30504     30506     30504     30507     30508     30509
     30510     30514     30510     30511     30510     30512     30510     30513
     30514     30515     30516     30520     30516     30517     30516     30518
     30516     30519     30520     30521     30522     30526     30522     30523
     30522     30524     30522     30525     30526     30527     30528     30532
     30528     30529     30528     30530     30528     30531     30532     30533
     30534     30538     30534     30535     30534     30536     30534     30537
     30538     30539     30540     30544     30540     30541     30540     30542
     30540     30543     30544     30545     30546     30550     30546     30547
     30546     30548     30546     30549     30550     30551     30552     30556
     30552     30553     30552     30554     30552     30555     30556     30557
     30558     30562     30558     30559     30558     30560     30558     30561
     30562     30563     30564     30568     30564     30565     30564     30566
     30564     30567     30568     30569     30570     30574     30570     30571
     30570     30572     30570     30573     30574     30575     30576     30580
     30576     30577     30576     30578     30576     30579     30580     30581
     30582     30586     30582     30583     30582     30584     30582     30585
     30586     30587     30588     30592     30588     30589     30588     30590
     30588     30591     30592     30593     30594     30598     30594     30595
     30594     30596     30594     30597     30598     30599     30600     30604
     30600     30601     30600     30602     30600     30603     30604     30605
     30606     30610     30606     30607     30606     30608     30606     30609
     30610     30611     30612     30616     30612     30613     30612     30614
     30612     30615     30616     30617     30618     30622     30618     30619
     30618     30620     30618     30621     30622     30623     30624     30628
     30624     30625     30624     30626     30624     30627     30628     30629
     30630     30634     30630     30631     30630     30632     30630     30633
     30634     30635     30636     30640     30636     30637     30636     30638
     30636     30639     30640     30641     30642     30646     30642     30643
     30642     30644     30642     30645     30646     30647     30648     30652
     30648     30649     30648     30650     30648     30651     30652     30653
     30654     30658     30654     30655     30654     30656     30654     30657
     30658     30659     30660     30664     30660     30661     30660     30662
     30660     30663     30664     30665     30666     30670     30666     30667
     30666     30668     30666     30669     30670     30671     30672     30676
     30672     30673     30672     30674     30672     30675     30676     30677
     30678     30682     30678     30679     30678     30680     30678     30681
     30682     30683     30684     30688     30684     30685     30684     30686
     30684     30687     30688     30689     30690     30694     30690     30691
     30690     30692     30690     30693     30694     30695     30696     30700
     30696     30697     30696     30698     30696     30699     30700     30701
     30702     30706     30702     30703     30702     30704     30702     30705
     30706     30707     30708     30712     30708     30709     30708     30710
     30708     30711     30712     30713     30714     30718     30714     30715
     30714     30716     30714     30717     30718     30719     30720     30724
     30720     30721     30720     30722     30720     30723     30724     30725
     30726     30730     30726     30727     30726     30728     30726     30729
     30730     30731     30732     30736     30732     30733     30732     30734
     30732     30735     30736     30737     30738     30742     30738     30739
     30738     30740     30738     30741     30742     30743     30744     30748
     30744     30745     30744     30746     30744     30747     30748     30749
     30750     30754     30750     30751     30750     30752     30750     30753
     30754     30755     30756     30760     30756     30757     30756     30758
     30756     30759     30760     30761     30762     30766     30762     30763
     30762     30764     30762     30765     30766     30767     30768     30772
     30768     30769     30768     30770     30768     30771     30772     30773
     30774     30778     30774     30775     30774     30776     30774     30777
     30778     30779     30780     30784     30780     30781     30780     30782
     30780     30783     30784     30785     30786     30790     30786     30787
     30786     30788     30786     30789     30790     30791     30792     30796
     30792     30793     30792     30794     30792     30795     30796     30797
     30798     30802     30798     30799     30798     30800     30798     30801
     30802     30803     30804     30808     30804     30805     30804     30806
     30804     30807     30808     30809     30810     30814     30810     30811
     30810     30812     30810     30813     30814     30815     30816     30820
     30816     30817     30816     30818     30816     30819     30820     30821
     30822     30826     30822     30823     30822     30824     30822     30825
     30826     30827     30828     30832     30828     30829     30828     30830
     30828     30831     30832     30833     30834     30838     30834     30835
     30834     30836     30834     30837     30838     30839     30840     30844
     30840     30841     30840     30842     30840     30843     30844     30845
     30846     30850     30846     30847     30846     30848     30846     30849
     30850     30851     30852     30856     30852     30853     30852     30854
     30852     30855     30856     30857     30858     30862     30858     30859
     30858     30860     30858     30861     30862     30863     30864     30868
     30864     30865     30864     30866     30864     30867     30868     30869
     30870     30874     30870     30871     30870     30872     30870     30873
     30874     30875     30876     30880     30876     30877     30876     30878
     30876     30879     30880     30881     30882     30886     30882     30883
     30882     30884     30882     30885     30886     30887     30888     30892
     30888     30889     30888     30890     30888     30891     30892     30893
     30894     30898     30894     30895     30894     30896     30894     30897
     30898     30899     30900     30904     30900     30901     30900     30902
     30900     30903     30904     30905     30906     30910     30906     30907
     30906     30908     30906     30909     30910     30911     30912     30916
     30912     30913     30912     30914     30912     30915     30916     30917
     30918     30922     30918     30919     30918     30920     30918     30921
     30922     30923     30924     30928     30924     30925     30924     30926
     30924     30927     30928     30929     30930     30934     30930     30931
     30930     30932     30930     30933     30934     30935     30936     30940
     30936     30937     30936     30938     30936     30939     30940     30941
     30942     30946     30942     30943     30942     30944     30942     30945
     30946     30947     30948     30952     30948     30949     30948     30950
     30948     30951     30952     30953     30954     30958     30954     30955
     30954     30956     30954     30957     30958     30959     30960     30964
     30960     30961     30960     30962     30960     30963     30964     30965
     30966     30970     30966     30967     30966     30968     30966     30969
     30970     30971     30972     30976     30972     30973     30972     30974
     30972     30975     30976     30977     30978     30982     30978     30979
     30978     30980     30978     30981     30982     30983     30984     30988
     30984     30985     30984     30986     30984     30987     30988     30989
     30990     30994     30990     30991     30990     30992     30990     30993
     30994     30995     30996     31000     30996     30997     30996     30998
     30996     30999     31000     31001     31002     31006     31002     31003
     31002     31004     31002     31005     31006     31007     31008     31012
     31008     31009     31008     31010     31008     31011     31012     31013
     31014     31018     31014     31015     31014     31016     31014     31017
     31018     31019     31020     31024     31020     31021     31020     31022
     31020     31023     31024     31025     31026     31030     31026     31027
     31026     31028     31026     31029     31030     31031     31032     31036
     31032     31033     31032     31034     31032     31035     31036     31037
     31038     31042     31038     31039     31038     31040     31038     31041
     31042     31043     31044     31048     31044     31045     31044     31046
     31044     31047     31048     31049     31050     31054     31050     31051
     31050     31052     31050     31053     31054     31055     31056     31060
     31056     31057     31056     31058     31056     31059     31060     31061
     31062     31066     31062     31063     31062     31064     31062     31065
     31066     31067     31068     31072     31068     31069     31068     31070
     31068     31071     31072     31073     31074     31078     31074     31075
     31074     31076     31074     31077     31078     31079     31080     31084
     31080     31081     31080     31082     31080     31083     31084     31085
     31086     31090     31086     31087     31086     31088     31086     31089
     31090     31091     31092     31096     31092     31093     31092     31094
     31092     31095     31096     31097     31098     31102     31098     31099
     31098     31100     31098     31101     31102     31103     31104     31108
     31104     31105     31104     31106     31104     31107     31108     31109
     31110     31114     31110     31111     31110     31112     31110     31113
     31114     31115     31116     31120     31116     31117     31116     31118
     31116     31119     31120     31121     31122     31126     31122     31123
     31122     31124     31122     31125     31126     31127     31128     31132
     31128     31129     31128     31130     31128     31131     31132     31133
     31134     31138     31134     31135     31134     31136     31134     31137
     31138     31139     31140     31144     31140     31141     31140     31142
     31140     31143     31144     31145     31146     31150     31146     31147
     31146     31148     31146     31149     31150     31151     31152     31156
     31152     31153     31152     31154     31152     31155     31156     31157
     31158     31162     31158     31159     31158     31160     31158     31161
     31162     31163     31164     31168     31164     31165     31164     31166
     31164     31167     31168     31169     31170     31174     31170     31171
     31170     31172     31170     31173     31174     31175     31176     31180
     31176     31177     31176     31178     31176     31179     31180     31181
     31182     31186     31182     31183     31182     31184     31182     31185
     31186     31187     31188     31192     31188     31189     31188     31190
     31188     31191     31192     31193     31194     31198     31194     31195
     31194     31196     31194     31197     31198     31199     31200     31204
     31200     31201     31200     31202     31200     31203     31204     31205
     31206     31210     31206     31207     31206     31208     31206     31209
     31210     31211     31212     31216     31212     31213     31212     31214
     31212     31215     31216     31217     31218     31222     31218     31219
     31218     31220     31218     31221     31222     31223     31224     31228
     31224     31225     31224     31226     31224     31227     31228     31229
     31230     31234     31230     31231     31230     31232     31230     31233
     31234     31235     31236     31240     31236     31237     31236     31238
     31236     31239     31240     31241     31242     31246     31242     31243
     31242     31244     31242     31245     31246     31247     31248     31252
     31248     31249     31248     31250     31248     31251     31252     31253
     31254     31258     31254     31255     31254     31256     31254     31257
     31258     31259     31260     31264     31260     31261     31260     31262
     31260     31263     31264     31265     31266     31270     31266     31267
     31266     31268     31266     31269     31270     31271     31272     31276
     31272     31273     31272     31274     31272     31275     31276     31277
     31278     31282     31278     31279     31278     31280     31278     31281
     31282     31283     31284     31288     31284     31285     31284     31286
     31284     31287     31288     31289     31290     31294     31290     31291
     31290     31292     31290     31293     31294     31295     31296     31300
     31296     31297     31296     31298     31296     31299     31300     31301
     31302     31306     31302     31303     31302     31304     31302     31305
     31306     31307     31308     31312     31308     31309     31308     31310
     31308     31311     31312     31313     31314     31318     31314     31315
     31314     31316     31314     31317     31318     31319     31320     31324
     31320     31321     31320     31322     31320     31323     31324     31325
     31326     31330     31326     31327     31326     31328     31326     31329
     31330     31331     31332     31336     31332     31333     31332     31334
     31332     31335     31336     31337     31338     31342     31338     31339
     31338     31340     31338     31341     31342     31343     31344     31348
     31344     31345     31344     31346     31344     31347     31348     31349
     31350     31354     31350     31351     31350     31352     31350     31353
     31354     31355     31356     31360     31356     31357     31356     31358
     31356     31359     31360     31361     31362     31366     31362     31363
     31362     31364     31362     31365     31366     31367     31368     31372
     31368     31369     31368     31370     31368     31371     31372     31373
     31374     31378     31374     31375     31374     31376     31374     31377
     31378     31379     31380     31384     31380     31381     31380     31382
     31380     31383     31384     31385     31386     31390     31386     31387
     31386     31388     31386     31389     31390     31391     31392     31396
     31392     31393     31392     31394     31392     31395     31396     31397
     31398     31402     31398     31399     31398     31400     31398     31401
     31402     31403     31404     31408     31404     31405     31404     31406
     31404     31407     31408     31409     31410     31414     31410     31411
     31410     31412     31410     31413     31414     31415     31416     31420
     31416     31417     31416     31418     31416     31419     31420     31421
     31422     31426     31422     31423     31422     31424     31422     31425
     31426     31427     31428     31432     31428     31429     31428     31430
     31428     31431     31432     31433     31434     31438     31434     31435
     31434     31436     31434     31437     31438     31439     31440     31444
     31440     31441     31440     31442     31440     31443     31444     31445
     31446     31450     31446     31447     31446     31448     31446     31449
     31450     31451     31452     31456     31452     31453     31452     31454
     31452     31455     31456     31457     31458     31462     31458     31459
     31458     31460     31458     31461     31462     31463     31464     31468
     31464     31465     31464     31466     31464     31467     31468     31469
     31470     31474     31470     31471     31470     31472     31470     31473
     31474     31475     31476     31480     31476     31477     31476     31478
     31476     31479     31480     31481     31482     31486     31482     31483
     31482     31484     31482     31485     31486     31487     31488     31492
     31488     31489     31488     31490     31488     31491     31492     31493
     31494     31498     31494     31495     31494     31496     31494     31497
     31498     31499     31500     31504     31500     31501     31500     31502
     31500     31503     31504     31505     31506     31510     31506     31507
     31506     31508     31506     31509     31510     31511     31512     31516
     31512     31513     31512     31514     31512     31515     31516     31517
     31518     31522     31518     31519     31518     31520     31518     31521
     31522     31523     31524     31528     31524     31525     31524     31526
     31524     31527     31528     31529     31530     31534     31530     31531
     31530     31532     31530     31533     31534     31535     31536     31540
     31536     31537     31536     31538     31536     31539     31540     31541
     31542     31546     31542     31543     31542     31544     31542     31545
     31546     31547     31548     31552     31548     31549     31548     31550
     31548     31551     31552     31553     31554     31558     31554     31555
     31554     31556     31554     31557     31558     31559     31560     31564
     31560     31561     31560     31562     31560     31563     31564     31565
     31566     31570     31566     31567     31566     31568     31566     31569
     31570     31571     31572     31576     31572     31573     31572     31574
     31572     31575     31576     31577     31578     31582     31578     31579
     31578     31580     31578     31581     31582     31583     31584     31588
     31584     31585     31584     31586     31584     31587     31588     31589
     31590     31594     31590     31591     31590     31592     31590     31593
     31594     31595     31596     31600     31596     31597     31596     31598
     31596     31599     31600     31601     31602     31606     31602     31603
     31602     31604     31602     31605     31606     31607     31608     31612
     31608     31609     31608     31610     31608     31611     31612     31613
     31614     31618     31614     31615     31614     31616     31614     31617
     31618     31619     31620     31624     31620     31621     31620     31622
     31620     31623     31624     31625     31626     31630     31626     31627
     31626     31628     31626     31629     31630     31631     31632     31636
     31632     31633     31632     31634     31632     31635     31636     31637
     31638     31642     31638     31639     31638     31640     31638     31641
     31642     31643     31644     31648     31644     31645     31644     31646
     31644     31647     31648     31649     31650     31654     31650     31651
     31650     31652     31650     31653     31654     31655     31656     31660
     31656     31657     31656     31658     31656     31659     31660     31661
     31662     31666     31662     31663     31662     31664     31662     31665
     31666     31667     31668     31672     31668     31669     31668     31670
     31668     31671     31672     31673     31674     31678     31674     31675
     31674     31676     31674     31677     31678     31679     31680     31684
     31680     31681     31680     31682     31680     31683     31684     31685
     31686     31690     31686     31687     31686     31688     31686     31689
     31690     31691     31692     31696     31692     31693     31692     31694
     31692     31695     31696     31697     31698     31702     31698     31699
     31698     31700     31698     31701     31702     31703     31704     31708
     31704     31705     31704     31706     31704     31707     31708     31709
     31710     31714     31710     31711     31710     31712     31710     31713
     31714     31715     31716     31720     31716     31717     31716     31718
     31716     31719     31720     31721     31722     31726     31722     31723
     31722     31724     31722     31725     31726     31727     31728     31732
     31728     31729     31728     31730     31728     31731     31732     31733
     31734     31738     31734     31735     31734     31736     31734     31737
     31738     31739     31740     31744     31740     31741     31740     31742
     31740     31743     31744     31745     31746     31750     31746     31747
     31746     31748     31746     31749     31750     31751     31752     31756
     31752     31753     31752     31754     31752     31755     31756     31757
     31758     31762     31758     31759     31758     31760     31758     31761
     31762     31763     31764     31768     31764     31765     31764     31766
     31764     31767     31768     31769     31770     31774     31770     31771
     31770     31772     31770     31773     31774     31775     31776     31780
     31776     31777     31776     31778     31776     31779     31780     31781
     31782     31786     31782     31783     31782     31784     31782     31785
     31786     31787     31788     31792     31788     31789     31788     31790
     31788     31791     31792     31793     31794     31798     31794     31795
     31794     31796     31794     31797     31798     31799     31800     31804
     31800     31801     31800     31802     31800     31803     31804     31805
     31806     31810     31806     31807     31806     31808     31806     31809
     31810     31811     31812     31816     31812     31813     31812     31814
     31812     31815     31816     31817     31818     31822     31818     31819
     31818     31820     31818     31821     31822     31823     31824     31828
     31824     31825     31824     31826     31824     31827     31828     31829
     31830     31834     31830     31831     31830     31832     31830     31833
     31834     31835     31836     31840     31836     31837     31836     31838
     31836     31839     31840     31841     31842     31846     31842     31843
     31842     31844     31842     31845     31846     31847     31848     31852
     31848     31849     31848     31850     31848     31851     31852     31853
     31854     31858     31854     31855     31854     31856     31854     31857
     31858     31859     31860     31864     31860     31861     31860     31862
     31860     31863     31864     31865     31866     31870     31866     31867
     31866     31868     31866     31869     31870     31871     31872     31876
     31872     31873     31872     31874     31872     31875     31876     31877
     31878     31882     31878     31879     31878     31880     31878     31881
     31882     31883     31884     31888     31884     31885     31884     31886
     31884     31887     31888     31889     31890     31894     31890     31891
     31890     31892     31890     31893     31894     31895     31896     31900
     31896     31897     31896     31898     31896     31899     31900     31901
     31902     31906     31902     31903     31902     31904     31902     31905
     31906     31907     31908     31912     31908     31909     31908     31910
     31908     31911     31912     31913     31914     31918     31914     31915
     31914     31916     31914     31917     31918     31919     31920     31924
     31920     31921     31920     31922     31920     31923     31924     31925
     31926     31930     31926     31927     31926     31928     31926     31929
     31930     31931     31932     31936     31932     31933     31932     31934
     31932     31935     31936     31937     31938     31942     31938     31939
     31938     31940     31938     31941     31942     31943     31944     31948
     31944     31945     31944     31946     31944     31947     31948     31949
     31950     31954     31950     31951     31950     31952     31950     31953
     31954     31955     31956     31960     31956     31957     31956     31958
     31956     31959     31960     31961     31962     31966     31962     31963
     31962     31964     31962     31965     31966     31967     31968     31972
     31968     31969     31968     31970     31968     31971     31972     31973
     31974     31978     31974     31975     31974     31976     31974     31977
     31978     31979     31980     31984     31980     31981     31980     31982
     31980     31983     31984     31985     31986     31990     31986     31987
     31986     31988     31986     31989     31990     31991     31992     31996
     31992     31993     31992     31994     31992     31995     31996     31997
     31998     32002     31998     31999     31998     32000     31998     32001
     32002     32003     32004     32008     32004     32005     32004     32006
     32004     32007     32008     32009     32010     32014     32010     32011
     32010     32012     32010     32013     32014     32015     32016     32020
     32016     32017     32016     32018     32016     32019     32020     32021
     32022     32026     32022     32023     32022     32024     32022     32025
     32026     32027     32028     32032     32028     32029     32028     32030
     32028     32031     32032     32033     32034     32038     32034     32035
     32034     32036     32034     32037     32038     32039     32040     32044
     32040     32041     32040     32042     32040     32043     32044     32045
     32046     32050     32046     32047     32046     32048     32046     32049
     32050     32051     32052     32056     32052     32053     32052     32054
     32052     32055     32056     32057     32058     32062     32058     32059
     32058     32060     32058     32061     32062     32063     32064     32068
     32064     32065     32064     32066     32064     32067     32068     32069
     32070     32074     32070     32071     32070     32072     32070     32073
     32074     32075     32076     32080     32076     32077     32076     32078
     32076     32079     32080     32081     32082     32086     32082     32083
     32082     32084     32082     32085     32086     32087     32088     32092
     32088     32089     32088     32090     32088     32091     32092     32093
     32094     32098     32094     32095     32094     32096     32094     32097
     32098     32099     32100     32104     32100     32101     32100     32102
     32100     32103     32104     32105     32106     32110     32106     32107
     32106     32108     32106     32109     32110     32111     32112     32116
     32112     32113     32112     32114     32112     32115     32116     32117
     32118     32122     32118     32119     32118     32120     32118     32121
     32122     32123     32124     32128     32124     32125     32124     32126
     32124     32127     32128     32129     32130     32134     32130     32131
     32130     32132     32130     32133     32134     32135     32136     32140
     32136     32137     32136     32138     32136     32139     32140     32141
     32142     32146     32142     32143     32142     32144     32142     32145
     32146     32147     32148     32152     32148     32149     32148     32150
     32148     32151     32152     32153     32154     32158     32154     32155
     32154     32156     32154     32157     32158     32159     32160     32164
     32160     32161     32160     32162     32160     32163     32164     32165
     32166     32170     32166     32167     32166     32168     32166     32169
     32170     32171     32172     32176     32172     32173     32172     32174
     32172     32175     32176     32177     32178     32182     32178     32179
     32178     32180     32178     32181     32182     32183     32184     32188
     32184     32185     32184     32186     32184     32187     32188     32189
     32190     32194     32190     32191     32190     32192     32190     32193
     32194     32195     32196     32200     32196     32197     32196     32198
     32196     32199     32200     32201     32202     32206     32202     32203
     32202     32204     32202     32205     32206     32207     32208     32212
     32208     32209     32208     32210     32208     32211     32212     32213
     32214     32218     32214     32215     32214     32216     32214     32217
     32218     32219     32220     32224     32220     32221     32220     32222
     32220     32223     32224     32225     32226     32230     32226     32227
     32226     32228     32226     32229     32230     32231     32232     32236
     32232     32233     32232     32234     32232     32235     32236     32237
     32238     32242     32238     32239     32238     32240     32238     32241
     32242     32243     32244     32248     32244     32245     32244     32246
     32244     32247     32248     32249     32250     32254     32250     32251
     32250     32252     32250     32253     32254     32255     32256     32260
     32256     32257     32256     32258     32256     32259     32260     32261
     32262     32266     32262     32263     32262     32264     32262     32265
     32266     32267     32268     32272     32268     32269     32268     32270
     32268     32271     32272     32273     32274     32278     32274     32275
     32274     32276     32274     32277     32278     32279     32280     32284
     32280     32281     32280     32282     32280     32283     32284     32285
     32286     32290     32286     32287     32286     32288     32286     32289
     32290     32291     32292     32296     32292     32293     32292     32294
     32292     32295     32296     32297     32298     32302     32298     32299
     32298     32300     32298     32301     32302     32303     32304     32308
     32304     32305     32304     32306     32304     32307     32308     32309
     32310     32314     32310     32311     32310     32312     32310     32313
     32314     32315     32316     32320     32316     32317     32316     32318
     32316     32319     32320     32321     32322     32326     32322     32323
     32322     32324     32322     32325     32326     32327     32328     32332
     32328     32329     32328     32330     32328     32331     32332     32333
     32334     32338     32334     32335     32334     32336     32334     32337
     32338     32339     32340     32344     32340     32341     32340     32342
     32340     32343     32344     32345     32346     32350     32346     32347
     32346     32348     32346     32349     32350     32351     32352     32356
     32352     32353     32352     32354     32352     32355     32356     32357
     32358     32362     32358     32359     32358     32360     32358     32361
     32362     32363     32364     32368     32364     32365     32364     32366
     32364     32367     32368     32369     32370     32374     32370     32371
     32370     32372     32370     32373     32374     32375     32376     32380
     32376     32377     32376     32378     32376     32379     32380     32381
     32382     32386     32382     32383     32382     32384     32382     32385
     32386     32387     32388     32392     32388     32389     32388     32390
     32388     32391     32392     32393     32394     32398     32394     32395
     32394     32396     32394     32397     32398     32399     32400     32404
     32400     32401     32400     32402     32400     32403     32404     32405
     32406     32410     32406     32407     32406     32408     32406     32409
     32410     32411     32412     32416     32412     32413     32412     32414
     32412     32415     32416     32417     32418     32422     32418     32419
     32418     32420     32418     32421     32422     32423     32424     32428
     32424     32425     32424     32426     32424     32427     32428     32429
     32430     32434     32430     32431     32430     32432     32430     32433
     32434     32435     32436     32440     32436     32437     32436     32438
     32436     32439     32440     32441     32442     32446     32442     32443
     32442     32444     32442     32445     32446     32447     32448     32452
     32448     32449     32448     32450     32448     32451     32452     32453
     32454     32458     32454     32455     32454     32456     32454     32457
     32458     32459     32460     32464     32460     32461     32460     32462
     32460     32463     32464     32465     32466     32470     32466     32467
     32466     32468     32466     32469     32470     32471     32472     32476
     32472     32473     32472     32474     32472     32475     32476     32477
     32478     32482     32478     32479     32478     32480     32478     32481
     32482     32483     32484     32488     32484     32485     32484     32486
     32484     32487     32488     32489     32490     32494     32490     32491
     32490     32492     32490     32493     32494     32495     32496     32500
     32496     32497     32496     32498     32496     32499     32500     32501
     32502     32506     32502     32503     32502     32504     32502     32505
     32506     32507     32508     32512     32508     32509     32508     32510
     32508     32511     32512     32513     32514     32518     32514     32515
     32514     32516     32514     32517     32518     32519     32520     32524
     32520     32521     32520     32522     32520     32523     32524     32525
     32526     32530     32526     32527     32526     32528     32526     32529
     32530     32531     32532     32536     32532     32533     32532     32534
     32532     32535     32536     32537     32538     32542     32538     32539
     32538     32540     32538     32541     32542     32543     32544     32548
     32544     32545     32544     32546     32544     32547     32548     32549
     32550     32554     32550     32551     32550     32552     32550     32553
     32554     32555     32556     32560     32556     32557     32556     32558
     32556     32559     32560     32561     32562     32566     32562     32563
     32562     32564     32562     32565     32566     32567     32568     32572
     32568     32569     32568     32570     32568     32571     32572     32573
     32574     32578     32574     32575     32574     32576     32574     32577
     32578     32579     32580     32584     32580     32581     32580     32582
     32580     32583     32584     32585     32586     32590     32586     32587
     32586     32588     32586     32589     32590     32591     32592     32596
     32592     32593     32592     32594     32592     32595     32596     32597
     32598     32602     32598     32599     32598     32600     32598     32601
     32602     32603     32604     32608     32604     32605     32604     32606
     32604     32607     32608     32609     32610     32614     32610     32611
     32610     32612     32610     32613     32614     32615     32616     32620
     32616     32617     32616     32618     32616     32619     32620     32621
     32622     32626     32622     32623     32622     32624     32622     32625
     32626     32627     32628     32632     32628     32629     32628     32630
     32628     32631     32632     32633     32634     32638     32634     32635
     32634     32636     32634     32637     32638     32639     32640     32644
     32640     32641     32640     32642     32640     32643     32644     32645
     32646     32650     32646     32647     32646     32648     32646     32649
     32650     32651     32652     32656     32652     32653     32652     32654
     32652     32655     32656     32657     32658     32662     32658     32659
     32658     32660     32658     32661     32662     32663     32664     32668
     32664     32665     32664     32666     32664     32667     32668     32669
     32670     32674     32670     32671     32670     32672     32670     32673
     32674     32675     32676     32680     32676     32677     32676     32678
     32676     32679     32680     32681     32682     32686     32682     32683
     32682     32684     32682     32685     32686     32687     32688     32692
     32688     32689     32688     32690     32688     32691     32692     32693
     32694     32698     32694     32695     32694     32696     32694     32697
     32698     32699     32700     32704     32700     32701     32700     32702
     32700     32703     32704     32705     32706     32710     32706     32707
     32706     32708     32706     32709     32710     32711     32712     32716
     32712     32713     32712     32714     32712     32715     32716     32717
     32718     32722     32718     32719     32718     32720     32718     32721
     32722     32723     32724     32728     32724     32725     32724     32726
     32724     32727     32728     32729     32730     32734     32730     32731
     32730     32732     32730     32733     32734     32735     32736     32740
     32736     32737     32736     32738     32736     32739     32740     32741
     32742     32746     32742     32743     32742     32744     32742     32745
     32746     32747     32748     32752     32748     32749     32748     32750
     32748     32751     32752     32753     32754     32758     32754     32755
     32754     32756     32754     32757     32758     32759     32760     32764
     32760     32761     32760     32762     32760     32763     32764     32765
     32766     32770     32766     32767     32766     32768     32766     32769
     32770     32771     32772     32776     32772     32773     32772     32774
     32772     32775     32776     32777     32778     32782     32778     32779
     32778     32780     32778     32781     32782     32783     32784     32788
     32784     32785     32784     32786     32784     32787     32788     32789
     32790     32794     32790     32791     32790     32792     32790     32793
     32794     32795     32796     32800     32796     32797     32796     32798
     32796     32799     32800     32801     32802     32806     32802     32803
     32802     32804     32802     32805     32806     32807     32808     32812
     32808     32809     32808     32810     32808     32811     32812     32813
     32814     32818     32814     32815     32814     32816     32814     32817
     32818     32819     32820     32824     32820     32821     32820     32822
     32820     32823     32824     32825     32826     32830     32826     32827
     32826     32828     32826     32829     32830     32831     32832     32836
     32832     32833     32832     32834     32832     32835     32836     32837
     32838     32842     32838     32839     32838     32840     32838     32841
     32842     32843     32844     32848     32844     32845     32844     32846
     32844     32847     32848     32849     32850     32854     32850     32851
     32850     32852     32850     32853     32854     32855     32856     32860
     32856     32857     32856     32858     32856     32859     32860     32861
     32862     32866     32862     32863     32862     32864     32862     32865
     32866     32867     32868     32872     32868     32869     32868     32870
     32868     32871     32872     32873     32874     32878     32874     32875
     32874     32876     32874     32877     32878     32879     32880     32884
     32880     32881     32880     32882     32880     32883     32884     32885
     32886     32890     32886     32887     32886     32888     32886     32889
     32890     32891     32892     32896     32892     32893     32892     32894
     32892     32895     32896     32897     32898     32902     32898     32899
     32898     32900     32898     32901     32902     32903     32904     32908
     32904     32905     32904     32906     32904     32907     32908     32909
     32910     32914     32910     32911     32910     32912     32910     32913
     32914     32915     32916     32920     32916     32917     32916     32918
     32916     32919     32920     32921     32922     32926     32922     32923
     32922     32924     32922     32925     32926     32927     32928     32932
     32928     32929     32928     32930     32928     32931     32932     32933
     32934     32938     32934     32935     32934     32936     32934     32937
     32938     32939     32940     32944     32940     32941     32940     32942
     32940     32943     32944     32945     32946     32950     32946     32947
     32946     32948     32946     32949     32950     32951     32952     32956
     32952     32953     32952     32954     32952     32955     32956     32957
     32958     32962     32958     32959     32958     32960     32958     32961
     32962     32963     32964     32968     32964     32965     32964     32966
     32964     32967     32968     32969     32970     32974     32970     32971
     32970     32972     32970     32973     32974     32975     32976     32980
     32976     32977     32976     32978     32976     32979     32980     32981
     32982     32986     32982     32983     32982     32984     32982     32985
     32986     32987     32988     32992     32988     32989     32988     32990
     32988     32991     32992     32993     32994     32998     32994     32995
     32994     32996     32994     32997     32998     32999     33000     33004
     33000     33001     33000     33002     33000     33003     33004     33005
     33006     33010     33006     33007     33006     33008     33006     33009
     33010     33011     33012     33016     33012     33013     33012     33014
     33012     33015     33016     33017     33018     33022     33018     33019
     33018     33020     33018     33021     33022     33023     33024     33028
     33024     33025     33024     33026     33024     33027     33028     33029
     33030     33034     33030     33031     33030     33032     33030     33033
     33034     33035     33036     33040     33036     33037     33036     33038
     33036     33039     33040     33041     33042     33046     33042     33043
     33042     33044     33042     33045     33046     33047     33048     33052
     33048     33049     33048     33050     33048     33051     33052     33053
     33054     33058     33054     33055     33054     33056     33054     33057
     33058     33059     33060     33064     33060     33061     33060     33062
     33060     33063     33064     33065     33066     33070     33066     33067
     33066     33068     33066     33069     33070     33071     33072     33076
     33072     33073     33072     33074     33072     33075     33076     33077
     33078     33082     33078     33079     33078     33080     33078     33081
     33082     33083     33084     33088     33084     33085     33084     33086
     33084     33087     33088     33089     33090     33094     33090     33091
     33090     33092     33090     33093     33094     33095     33096     33100
     33096     33097     33096     33098     33096     33099     33100     33101
     33102     33106     33102     33103     33102     33104     33102     33105
     33106     33107     33108     33112     33108     33109     33108     33110
     33108     33111     33112     33113     33114     33118     33114     33115
     33114     33116     33114     33117     33118     33119     33120     33124
     33120     33121     33120     33122     33120     33123     33124     33125
     33126     33130     33126     33127     33126     33128     33126     33129
     33130     33131     33132     33136     33132     33133     33132     33134
     33132     33135     33136     33137     33138     33142     33138     33139
     33138     33140     33138     33141     33142     33143     33144     33148
     33144     33145     33144     33146     33144     33147     33148     33149
     33150     33154     33150     33151     33150     33152     33150     33153
     33154     33155     33156     33160     33156     33157     33156     33158
     33156     33159     33160     33161     33162     33166     33162     33163
     33162     33164     33162     33165     33166     33167     33168     33172
     33168     33169     33168     33170     33168     33171     33172     33173
     33174     33178     33174     33175     33174     33176     33174     33177
     33178     33179     33180     33184     33180     33181     33180     33182
     33180     33183     33184     33185     33186     33190     33186     33187
     33186     33188     33186     33189     33190     33191     33192     33196
     33192     33193     33192     33194     33192     33195     33196     33197
     33198     33202     33198     33199     33198     33200     33198     33201
     33202     33203     33204     33208     33204     33205     33204     33206
     33204     33207     33208     33209     33210     33214     33210     33211
     33210     33212     33210     33213     33214     33215     33216     33220
     33216     33217     33216     33218     33216     33219     33220     33221
     33222     33226     33222     33223     33222     33224     33222     33225
     33226     33227     33228     33232     33228     33229     33228     33230
     33228     33231     33232     33233     33234     33238     33234     33235
     33234     33236     33234     33237     33238     33239     33240     33244
     33240     33241     33240     33242     33240     33243     33244     33245
     33246     33250     33246     33247     33246     33248     33246     33249
     33250     33251     33252     33256     33252     33253     33252     33254
     33252     33255     33256     33257     33258     33262     33258     33259
     33258     33260     33258     33261     33262     33263     33264     33268
     33264     33265     33264     33266     33264     33267     33268     33269
     33270     33274     33270     33271     33270     33272     33270     33273
     33274     33275     33276     33280     33276     33277     33276     33278
     33276     33279     33280     33281     33282     33286     33282     33283
     33282     33284     33282     33285     33286     33287     33288     33292
     33288     33289     33288     33290     33288     33291     33292     33293
     33294     33298     33294     33295     33294     33296     33294     33297
     33298     33299     33300     33304     33300     33301     33300     33302
     33300     33303     33304     33305     33306     33310     33306     33307
     33306     33308     33306     33309     33310     33311     33312     33316
     33312     33313     33312     33314     33312     33315     33316     33317
     33318     33322     33318     33319     33318     33320     33318     33321
     33322     33323     33324     33328     33324     33325     33324     33326
     33324     33327     33328     33329     33330     33334     33330     33331
     33330     33332     33330     33333     33334     33335     33336     33340
     33336     33337     33336     33338     33336     33339     33340     33341
     33342     33346     33342     33343     33342     33344     33342     33345
     33346     33347     33348     33352     33348     33349     33348     33350
     33348     33351     33352     33353     33354     33358     33354     33355
     33354     33356     33354     33357     33358     33359     33360     33364
     33360     33361     33360     33362     33360     33363     33364     33365
     33366     33370     33366     33367     33366     33368     33366     33369
     33370     33371     33372     33376     33372     33373     33372     33374
     33372     33375     33376     33377     33378     33382     33378     33379
     33378     33380     33378     33381     33382     33383     33384     33388
     33384     33385     33384     33386     33384     33387     33388     33389
     33390     33394     33390     33391     33390     33392     33390     33393
     33394     33395     33396     33400     33396     33397     33396     33398
     33396     33399     33400     33401     33402     33406     33402     33403
     33402     33404     33402     33405     33406     33407     33408     33412
     33408     33409     33408     33410     33408     33411     33412     33413
     33414     33418     33414     33415     33414     33416     33414     33417
     33418     33419     33420     33424     33420     33421     33420     33422
     33420     33423     33424     33425     33426     33430     33426     33427
     33426     33428     33426     33429     33430     33431     33432     33436
     33432     33433     33432     33434     33432     33435     33436     33437
     33438     33442     33438     33439     33438     33440     33438     33441
     33442     33443     33444     33448     33444     33445     33444     33446
     33444     33447     33448     33449     33450     33454     33450     33451
     33450     33452     33450     33453     33454     33455     33456     33460
     33456     33457     33456     33458     33456     33459     33460     33461
     33462     33466     33462     33463     33462     33464     33462     33465
     33466     33467     33468     33472     33468     33469     33468     33470
     33468     33471     33472     33473     33474     33478     33474     33475
     33474     33476     33474     33477     33478     33479     33480     33484
     33480     33481     33480     33482     33480     33483     33484     33485
     33486     33490     33486     33487     33486     33488     33486     33489
     33490     33491     33492     33496     33492     33493     33492     33494
     33492     33495     33496     33497     33498     33502     33498     33499
     33498     33500     33498     33501     33502     33503     33504     33508
     33504     33505     33504     33506     33504     33507     33508     33509
     33510     33514     33510     33511     33510     33512     33510     33513
     33514     33515     33516     33520     33516     33517     33516     33518
     33516     33519     33520     33521     33522     33526     33522     33523
     33522     33524     33522     33525     33526     33527     33528     33532
     33528     33529     33528     33530     33528     33531     33532     33533
     33534     33538     33534     33535     33534     33536     33534     33537
     33538     33539     33540     33544     33540     33541     33540     33542
     33540     33543     33544     33545     33546     33550     33546     33547
     33546     33548     33546     33549     33550     33551     33552     33556
     33552     33553     33552     33554     33552     33555     33556     33557
     33558     33562     33558     33559     33558     33560     33558     33561
     33562     33563     33564     33568     33564     33565     33564     33566
     33564     33567     33568     33569     33570     33574     33570     33571
     33570     33572     33570     33573     33574     33575     33576     33580
     33576     33577     33576     33578     33576     33579     33580     33581
     33582     33586     33582     33583     33582     33584     33582     33585
     33586     33587     33588     33592     33588     33589     33588     33590
     33588     33591     33592     33593     33594     33598     33594     33595
     33594     33596     33594     33597     33598     33599     33600     33604
     33600     33601     33600     33602     33600     33603     33604     33605
     33606     33610     33606     33607     33606     33608     33606     33609
     33610     33611     33612     33616     33612     33613     33612     33614
     33612     33615     33616     33617     33618     33622     33618     33619
     33618     33620     33618     33621     33622     33623     33624     33628
     33624     33625     33624     33626     33624     33627     33628     33629
     33630     33634     33630     33631     33630     33632     33630     33633
     33634     33635     33636     33640     33636     33637     33636     33638
     33636     33639     33640     33641     33642     33646     33642     33643
     33642     33644     33642     33645     33646     33647     33648     33652
     33648     33649     33648     33650     33648     33651     33652     33653
     33654     33658     33654     33655     33654     33656     33654     33657
     33658     33659     33660     33664     33660     33661     33660     33662
     33660     33663     33664     33665     33666     33670     33666     33667
     33666     33668     33666     33669     33670     33671     33672     33676
     33672     33673     33672     33674     33672     33675     33676     33677
     33678     33682     33678     33679     33678     33680     33678     33681
     33682     33683     33684     33688     33684     33685     33684     33686
     33684     33687     33688     33689     33690     33694     33690     33691
     33690     33692     33690     33693     33694     33695     33696     33700
     33696     33697     33696     33698     33696     33699     33700     33701
     33702     33706     33702     33703     33702     33704     33702     33705
     33706     33707     33708     33712     33708     33709     33708     33710
     33708     33711     33712     33713     33714     33718     33714     33715
     33714     33716     33714     33717     33718     33719     33720     33724
     33720     33721     33720     33722     33720     33723     33724     33725
     33726     33730     33726     33727     33726     33728     33726     33729
     33730     33731     33732     33736     33732     33733     33732     33734
     33732     33735     33736     33737     33738     33742     33738     33739
     33738     33740     33738     33741     33742     33743     33744     33748
     33744     33745     33744     33746     33744     33747     33748     33749
     33750     33754     33750     33751     33750     33752     33750     33753
     33754     33755     33756     33760     33756     33757     33756     33758
     33756     33759     33760     33761     33762     33766     33762     33763
     33762     33764     33762     33765     33766     33767     33768     33772
     33768     33769     33768     33770     33768     33771     33772     33773
     33774     33778     33774     33775     33774     33776     33774     33777
     33778     33779     33780     33784     33780     33781     33780     33782
     33780     33783     33784     33785     33786     33790     33786     33787
     33786     33788     33786     33789     33790     33791     33792     33796
     33792     33793     33792     33794     33792     33795     33796     33797
     33798     33802     33798     33799     33798     33800     33798     33801
     33802     33803     33804     33808     33804     33805     33804     33806
     33804     33807     33808     33809     33810     33814     33810     33811
     33810     33812     33810     33813     33814     33815     33816     33820
     33816     33817     33816     33818     33816     33819     33820     33821
     33822     33826     33822     33823     33822     33824     33822     33825
     33826     33827     33828     33832     33828     33829     33828     33830
     33828     33831     33832     33833     33834     33838     33834     33835
     33834     33836     33834     33837     33838     33839     33840     33844
     33840     33841     33840     33842     33840     33843     33844     33845
     33846     33850     33846     33847     33846     33848     33846     33849
     33850     33851     33852     33856     33852     33853     33852     33854
     33852     33855     33856     33857     33858     33862     33858     33859
     33858     33860     33858     33861     33862     33863     33864     33868
     33864     33865     33864     33866     33864     33867     33868     33869
     33870     33874     33870     33871     33870     33872     33870     33873
     33874     33875     33876     33880     33876     33877     33876     33878
     33876     33879     33880     33881     33882     33886     33882     33883
     33882     33884     33882     33885     33886     33887     33888     33892
     33888     33889     33888     33890     33888     33891     33892     33893
     33894     33898     33894     33895     33894     33896     33894     33897
     33898     33899     33900     33904     33900     33901     33900     33902
     33900     33903     33904     33905     33906     33910     33906     33907
     33906     33908     33906     33909     33910     33911     33912     33916
     33912     33913     33912     33914     33912     33915     33916     33917
     33918     33922     33918     33919     33918     33920     33918     33921
     33922     33923     33924     33928     33924     33925     33924     33926
     33924     33927     33928     33929     33930     33934     33930     33931
     33930     33932     33930     33933     33934     33935     33936     33940
     33936     33937     33936     33938     33936     33939     33940     33941
     33942     33946     33942     33943     33942     33944     33942     33945
     33946     33947     33948     33952     33948     33949     33948     33950
     33948     33951     33952     33953     33954     33958     33954     33955
     33954     33956     33954     33957     33958     33959     33960     33964
     33960     33961     33960     33962     33960     33963     33964     33965
     33966     33970     33966     33967     33966     33968     33966     33969
     33970     33971     33972     33976     33972     33973     33972     33974
     33972     33975     33976     33977     33978     33982     33978     33979
     33978     33980     33978     33981     33982     33983     33984     33988
     33984     33985     33984     33986     33984     33987     33988     33989
     33990     33994     33990     33991     33990     33992     33990     33993
     33994     33995     33996     34000     33996     33997     33996     33998
     33996     33999     34000     34001     34002     34006     34002     34003
     34002     34004     34002     34005     34006     34007     34008     34012
     34008     34009     34008     34010     34008     34011     34012     34013
     34014     34018     34014     34015     34014     34016     34014     34017
     34018     34019     34020     34024     34020     34021     34020     34022
     34020     34023     34024     34025     34026     34030     34026     34027
     34026     34028     34026     34029     34030     34031     34032     34036
     34032     34033     34032     34034     34032     34035     34036     34037
     34038     34042     34038     34039     34038     34040     34038     34041
     34042     34043     34044     34048     34044     34045     34044     34046
     34044     34047     34048     34049     34050     34054     34050     34051
     34050     34052     34050     34053     34054     34055     34056     34060
     34056     34057     34056     34058     34056     34059     34060     34061
     34062     34066     34062     34063     34062     34064     34062     34065
     34066     34067     34068     34072     34068     34069     34068     34070
     34068     34071     34072     34073     34074     34078     34074     34075
     34074     34076     34074     34077     34078     34079     34080     34084
     34080     34081     34080     34082     34080     34083     34084     34085
     34086     34090     34086     34087     34086     34088     34086     34089
     34090     34091     34092     34096     34092     34093     34092     34094
     34092     34095     34096     34097     34098     34102     34098     34099
     34098     34100     34098     34101     34102     34103     34104     34108
     34104     34105     34104     34106     34104     34107     34108     34109
     34110     34114     34110     34111     34110     34112     34110     34113
     34114     34115     34116     34120     34116     34117     34116     34118
     34116     34119     34120     34121     34122     34126     34122     34123
     34122     34124     34122     34125     34126     34127     34128     34132
     34128     34129     34128     34130     34128     34131     34132     34133
     34134     34138     34134     34135     34134     34136     34134     34137
     34138     34139     34140     34144     34140     34141     34140     34142
     34140     34143     34144     34145     34146     34150     34146     34147
     34146     34148     34146     34149     34150     34151     34152     34156
     34152     34153     34152     34154     34152     34155     34156     34157
     34158     34162     34158     34159     34158     34160     34158     34161
     34162     34163     34164     34168     34164     34165     34164     34166
     34164     34167     34168     34169     34170     34174     34170     34171
     34170     34172     34170     34173     34174     34175     34176     34180
     34176     34177     34176     34178     34176     34179     34180     34181
     34182     34186     34182     34183     34182     34184     34182     34185
     34186     34187     34188     34192     34188     34189     34188     34190
     34188     34191     34192     34193     34194     34198     34194     34195
     34194     34196     34194     34197     34198     34199     34200     34204
     34200     34201     34200     34202     34200     34203     34204     34205
     34206     34210     34206     34207     34206     34208     34206     34209
     34210     34211     34212     34216     34212     34213     34212     34214
     34212     34215     34216     34217     34218     34222     34218     34219
     34218     34220     34218     34221     34222     34223     34224     34228
     34224     34225     34224     34226     34224     34227     34228     34229
     34230     34234     34230     34231     34230     34232     34230     34233
     34234     34235     34236     34240     34236     34237     34236     34238
     34236     34239     34240     34241     34242     34246     34242     34243
     34242     34244     34242     34245     34246     34247     34248     34252
     34248     34249     34248     34250     34248     34251     34252     34253
     34254     34258     34254     34255     34254     34256     34254     34257
     34258     34259     34260     34264     34260     34261     34260     34262
     34260     34263     34264     34265     34266     34270     34266     34267
     34266     34268     34266     34269     34270     34271     34272     34276
     34272     34273     34272     34274     34272     34275     34276     34277
     34278     34282     34278     34279     34278     34280     34278     34281
     34282     34283     34284     34288     34284     34285     34284     34286
     34284     34287     34288     34289     34290     34294     34290     34291
     34290     34292     34290     34293     34294     34295     34296     34300
     34296     34297     34296     34298     34296     34299     34300     34301
     34302     34306     34302     34303     34302     34304     34302     34305
     34306     34307     34308     34312     34308     34309     34308     34310
     34308     34311     34312     34313     34314     34318     34314     34315
     34314     34316     34314     34317     34318     34319     34320     34324
     34320     34321     34320     34322     34320     34323     34324     34325
     34326     34330     34326     34327     34326     34328     34326     34329
     34330     34331     34332     34336     34332     34333     34332     34334
     34332     34335     34336     34337     34338     34342     34338     34339
     34338     34340     34338     34341     34342     34343     34344     34348
     34344     34345     34344     34346     34344     34347     34348     34349
     34350     34354     34350     34351     34350     34352     34350     34353
     34354     34355     34356     34360     34356     34357     34356     34358
     34356     34359     34360     34361     34362     34366     34362     34363
     34362     34364     34362     34365     34366     34367     34368     34372
     34368     34369     34368     34370     34368     34371     34372     34373
     34374     34378     34374     34375     34374     34376     34374     34377
     34378     34379     34380     34384     34380     34381     34380     34382
     34380     34383     34384     34385     34386     34390     34386     34387
     34386     34388     34386     34389     34390     34391     34392     34396
     34392     34393     34392     34394     34392     34395     34396     34397
     34398     34402     34398     34399     34398     34400     34398     34401
     34402     34403     34404     34408     34404     34405     34404     34406
     34404     34407     34408     34409     34410     34414     34410     34411
     34410     34412     34410     34413     34414     34415     34416     34420
     34416     34417     34416     34418     34416     34419     34420     34421
     34422     34426     34422     34423     34422     34424     34422     34425
     34426     34427     34428     34432     34428     34429     34428     34430
     34428     34431     34432     34433     34434     34438     34434     34435
     34434     34436     34434     34437     34438     34439     34440     34444
     34440     34441     34440     34442     34440     34443     34444     34445
     34446     34450     34446     34447     34446     34448     34446     34449
     34450     34451     34452     34456     34452     34453     34452     34454
     34452     34455     34456     34457     34458     34462     34458     34459
     34458     34460     34458     34461     34462     34463     34464     34468
     34464     34465     34464     34466     34464     34467     34468     34469
     34470     34474     34470     34471     34470     34472     34470     34473
     34474     34475     34476     34480     34476     34477     34476     34478
     34476     34479     34480     34481     34482     34486     34482     34483
     34482     34484     34482     34485     34486     34487     34488     34492
     34488     34489     34488     34490     34488     34491     34492     34493
     34494     34498     34494     34495     34494     34496     34494     34497
     34498     34499     34500     34504     34500     34501     34500     34502
     34500     34503     34504     34505     34506     34510     34506     34507
     34506     34508     34506     34509     34510     34511     34512     34516
     34512     34513     34512     34514     34512     34515     34516     34517
     34518     34522     34518     34519     34518     34520     34518     34521
     34522     34523     34524     34528     34524     34525     34524     34526
     34524     34527     34528     34529     34530     34534     34530     34531
     34530     34532     34530     34533     34534     34535     34536     34540
     34536     34537     34536     34538     34536     34539     34540     34541
     34542     34546     34542     34543     34542     34544     34542     34545
     34546     34547     34548     34552     34548     34549     34548     34550
     34548     34551     34552     34553     34554     34558     34554     34555
     34554     34556     34554     34557     34558     34559     34560     34564
     34560     34561     34560     34562     34560     34563     34564     34565
     34566     34570     34566     34567     34566     34568     34566     34569
     34570     34571     34572     34576     34572     34573     34572     34574
     34572     34575     34576     34577     34578     34582     34578     34579
     34578     34580     34578     34581     34582     34583     34584     34588
     34584     34585     34584     34586     34584     34587     34588     34589
     34590     34594     34590     34591     34590     34592     34590     34593
     34594     34595     34596     34600     34596     34597     34596     34598
     34596     34599     34600     34601     34602     34606     34602     34603
     34602     34604     34602     34605     34606     34607     34608     34612
     34608     34609     34608     34610     34608     34611     34612     34613
     34614     34618     34614     34615     34614     34616     34614     34617
     34618     34619     34620     34624     34620     34621     34620     34622
     34620     34623     34624     34625     34626     34630     34626     34627
     34626     34628     34626     34629     34630     34631     34632     34636
     34632     34633     34632     34634     34632     34635     34636     34637
     34638     34642     34638     34639     34638     34640     34638     34641
     34642     34643     34644     34648     34644     34645     34644     34646
     34644     34647     34648     34649     34650     34654     34650     34651
     34650     34652     34650     34653     34654     34655     34656     34660
     34656     34657     34656     34658     34656     34659     34660     34661
     34662     34666     34662     34663     34662     34664     34662     34665
     34666     34667     34668     34672     34668     34669     34668     34670
     34668     34671     34672     34673     34674     34678     34674     34675
     34674     34676     34674     34677     34678     34679     34680     34684
     34680     34681     34680     34682     34680     34683     34684     34685
     34686     34690     34686     34687     34686     34688     34686     34689
     34690     34691     34692     34696     34692     34693     34692     34694
     34692     34695     34696     34697     34698     34702     34698     34699
     34698     34700     34698     34701     34702     34703     34704     34708
     34704     34705     34704     34706     34704     34707     34708     34709
     34710     34714     34710     34711     34710     34712     34710     34713
     34714     34715     34716     34720     34716     34717     34716     34718
     34716     34719     34720     34721     34722     34726     34722     34723
     34722     34724     34722     34725     34726     34727     34728     34732
     34728     34729     34728     34730     34728     34731     34732     34733
     34734     34738     34734     34735     34734     34736     34734     34737
     34738     34739     34740     34744     34740     34741     34740     34742
     34740     34743     34744     34745     34746     34750     34746     34747
     34746     34748     34746     34749     34750     34751     34752     34756
     34752     34753     34752     34754     34752     34755     34756     34757
     34758     34762     34758     34759     34758     34760     34758     34761
     34762     34763     34764     34768     34764     34765     34764     34766
     34764     34767     34768     34769     34770     34774     34770     34771
     34770     34772     34770     34773     34774     34775     34776     34780
     34776     34777     34776     34778     34776     34779     34780     34781
     34782     34786     34782     34783     34782     34784     34782     34785
     34786     34787     34788     34792     34788     34789     34788     34790
     34788     34791     34792     34793     34794     34798     34794     34795
     34794     34796     34794     34797     34798     34799     34800     34804
     34800     34801     34800     34802     34800     34803     34804     34805
     34806     34810     34806     34807     34806     34808     34806     34809
     34810     34811     34812     34816     34812     34813     34812     34814
     34812     34815     34816     34817     34818     34822     34818     34819
     34818     34820     34818     34821     34822     34823     34824     34828
     34824     34825     34824     34826     34824     34827     34828     34829
     34830     34834     34830     34831     34830     34832     34830     34833
     34834     34835     34836     34840     34836     34837     34836     34838
     34836     34839     34840     34841     34842     34846     34842     34843
     34842     34844     34842     34845     34846     34847     34848     34852
     34848     34849     34848     34850     34848     34851     34852     34853
     34854     34858     34854     34855     34854     34856     34854     34857
     34858     34859     34860     34864     34860     34861     34860     34862
     34860     34863     34864     34865     34866     34870     34866     34867
     34866     34868     34866     34869     34870     34871     34872     34876
     34872     34873     34872     34874     34872     34875     34876     34877
     34878     34882     34878     34879     34878     34880     34878     34881
     34882     34883     34884     34888     34884     34885     34884     34886
     34884     34887     34888     34889     34890     34894     34890     34891
     34890     34892     34890     34893     34894     34895     34896     34900
     34896     34897     34896     34898     34896     34899     34900     34901
     34902     34906     34902     34903     34902     34904     34902     34905
     34906     34907     34908     34912     34908     34909     34908     34910
     34908     34911     34912     34913     34914     34918     34914     34915
     34914     34916     34914     34917     34918     34919     34920     34924
     34920     34921     34920     34922     34920     34923     34924     34925
     34926     34930     34926     34927     34926     34928     34926     34929
     34930     34931     34932     34936     34932     34933     34932     34934
     34932     34935     34936     34937     34938     34942     34938     34939
     34938     34940     34938     34941     34942     34943     34944     34948
     34944     34945     34944     34946     34944     34947     34948     34949
     34950     34954     34950     34951     34950     34952     34950     34953
     34954     34955     34956     34960     34956     34957     34956     34958
     34956     34959     34960     34961     34962     34966     34962     34963
     34962     34964     34962     34965     34966     34967     34968     34972
     34968     34969     34968     34970     34968     34971     34972     34973
     34974     34978     34974     34975     34974     34976     34974     34977
     34978     34979     34980     34984     34980     34981     34980     34982
     34980     34983     34984     34985     34986     34990     34986     34987
     34986     34988     34986     34989     34990     34991     34992     34996
     34992     34993     34992     34994     34992     34995     34996     34997
     34998     35002     34998     34999     34998     35000     34998     35001
     35002     35003     35004     35008     35004     35005     35004     35006
     35004     35007     35008     35009     35010     35014     35010     35011
     35010     35012     35010     35013     35014     35015     35016     35020
     35016     35017     35016     35018     35016     35019     35020     35021
     35022     35026     35022     35023     35022     35024     35022     35025
     35026     35027     35028     35032     35028     35029     35028     35030
     35028     35031     35032     35033     35034     35038     35034     35035
     35034     35036     35034     35037     35038     35039     35040     35044
     35040     35041     35040     35042     35040     35043     35044     35045
     35046     35050     35046     35047     35046     35048     35046     35049
     35050     35051     35052     35056     35052     35053     35052     35054
     35052     35055     35056     35057     35058     35062     35058     35059
     35058     35060     35058     35061     35062     35063     35064     35068
     35064     35065     35064     35066     35064     35067     35068     35069
     35070     35074     35070     35071     35070     35072     35070     35073
     35074     35075     35076     35080     35076     35077     35076     35078
     35076     35079     35080     35081     35082     35086     35082     35083
     35082     35084     35082     35085     35086     35087     35088     35092
     35088     35089     35088     35090     35088     35091     35092     35093
     35094     35098     35094     35095     35094     35096     35094     35097
     35098     35099     35100     35104     35100     35101     35100     35102
     35100     35103     35104     35105     35106     35110     35106     35107
     35106     35108     35106     35109     35110     35111     35112     35116
     35112     35113     35112     35114     35112     35115     35116     35117
     35118     35122     35118     35119     35118     35120     35118     35121
     35122     35123     35124     35128     35124     35125     35124     35126
     35124     35127     35128     35129     35130     35134     35130     35131
     35130     35132     35130     35133     35134     35135     35136     35140
     35136     35137     35136     35138     35136     35139     35140     35141
     35142     35146     35142     35143     35142     35144     35142     35145
     35146     35147     35148     35152     35148     35149     35148     35150
     35148     35151     35152     35153     35154     35158     35154     35155
     35154     35156     35154     35157     35158     35159     35160     35164
     35160     35161     35160     35162     35160     35163     35164     35165
     35166     35170     35166     35167     35166     35168     35166     35169
     35170     35171     35172     35176     35172     35173     35172     35174
     35172     35175     35176     35177     35178     35182     35178     35179
     35178     35180     35178     35181     35182     35183     35184     35188
     35184     35185     35184     35186     35184     35187     35188     35189
     35190     35194     35190     35191     35190     35192     35190     35193
     35194     35195     35196     35200     35196     35197     35196     35198
     35196     35199     35200     35201     35202     35206     35202     35203
     35202     35204     35202     35205     35206     35207     35208     35212
     35208     35209     35208     35210     35208     35211     35212     35213
     35214     35218     35214     35215     35214     35216     35214     35217
     35218     35219     35220     35224     35220     35221     35220     35222
     35220     35223     35224     35225     35226     35230     35226     35227
     35226     35228     35226     35229     35230     35231     35232     35236
     35232     35233     35232     35234     35232     35235     35236     35237
     35238     35242     35238     35239     35238     35240     35238     35241
     35242     35243     35244     35248     35244     35245     35244     35246
     35244     35247     35248     35249     35250     35254     35250     35251
     35250     35252     35250     35253     35254     35255     35256     35260
     35256     35257     35256     35258     35256     35259     35260     35261
     35262     35266     35262     35263     35262     35264     35262     35265
     35266     35267     35268     35272     35268     35269     35268     35270
     35268     35271     35272     35273     35274     35278     35274     35275
     35274     35276     35274     35277     35278     35279     35280     35284
     35280     35281     35280     35282     35280     35283     35284     35285
     35286     35290     35286     35287     35286     35288     35286     35289
     35290     35291     35292     35296     35292     35293     35292     35294
     35292     35295     35296     35297     35298     35302     35298     35299
     35298     35300     35298     35301     35302     35303     35304     35308
     35304     35305     35304     35306     35304     35307     35308     35309
     35310     35314     35310     35311     35310     35312     35310     35313
     35314     35315     35316     35320     35316     35317     35316     35318
     35316     35319     35320     35321     35322     35326     35322     35323
     35322     35324     35322     35325     35326     35327     35328     35332
     35328     35329     35328     35330     35328     35331     35332     35333
     35334     35338     35334     35335     35334     35336     35334     35337
     35338     35339     35340     35344     35340     35341     35340     35342
     35340     35343     35344     35345     35346     35350     35346     35347
     35346     35348     35346     35349     35350     35351     35352     35356
     35352     35353     35352     35354     35352     35355     35356     35357
     35358     35362     35358     35359     35358     35360     35358     35361
     35362     35363     35364     35368     35364     35365     35364     35366
     35364     35367     35368     35369     35370     35374     35370     35371
     35370     35372     35370     35373     35374     35375     35376     35380
     35376     35377     35376     35378     35376     35379     35380     35381
     35382     35386     35382     35383     35382     35384     35382     35385
     35386     35387     35388     35392     35388     35389     35388     35390
     35388     35391     35392     35393     35394     35398     35394     35395
     35394     35396     35394     35397     35398     35399     35400     35404
     35400     35401     35400     35402     35400     35403     35404     35405
     35406     35410     35406     35407     35406     35408     35406     35409
     35410     35411     35412     35416     35412     35413     35412     35414
     35412     35415     35416     35417     35418     35422     35418     35419
     35418     35420     35418     35421     35422     35423     35424     35428
     35424     35425     35424     35426     35424     35427     35428     35429
     35430     35434     35430     35431     35430     35432     35430     35433
     35434     35435     35436     35440     35436     35437     35436     35438
     35436     35439     35440     35441     35442     35446     35442     35443
     35442     35444     35442     35445     35446     35447     35448     35452
     35448     35449     35448     35450     35448     35451     35452     35453
     35454     35458     35454     35455     35454     35456     35454     35457
     35458     35459     35460     35464     35460     35461     35460     35462
     35460     35463     35464     35465     35466     35470     35466     35467
     35466     35468     35466     35469     35470     35471     35472     35476
     35472     35473     35472     35474     35472     35475     35476     35477
     35478     35482     35478     35479     35478     35480     35478     35481
     35482     35483     35484     35488     35484     35485     35484     35486
     35484     35487     35488     35489     35490     35494     35490     35491
     35490     35492     35490     35493     35494     35495     35496     35500
     35496     35497     35496     35498     35496     35499     35500     35501
     35502     35506     35502     35503     35502     35504     35502     35505
     35506     35507     35508     35512     35508     35509     35508     35510
     35508     35511     35512     35513     35514     35518     35514     35515
     35514     35516     35514     35517     35518     35519     35520     35524
     35520     35521     35520     35522     35520     35523     35524     35525
     35526     35530     35526     35527     35526     35528     35526     35529
     35530     35531     35532     35536     35532     35533     35532     35534
     35532     35535     35536     35537     35538     35542     35538     35539
     35538     35540     35538     35541     35542     35543     35544     35548
     35544     35545     35544     35546     35544     35547     35548     35549
     35550     35554     35550     35551     35550     35552     35550     35553
     35554     35555     35556     35560     35556     35557     35556     35558
     35556     35559     35560     35561     35562     35566     35562     35563
     35562     35564     35562     35565     35566     35567     35568     35572
     35568     35569     35568     35570     35568     35571     35572     35573
     35574     35578     35574     35575     35574     35576     35574     35577
     35578     35579     35580     35584     35580     35581     35580     35582
     35580     35583     35584     35585     35586     35590     35586     35587
     35586     35588     35586     35589     35590     35591     35592     35596
     35592     35593     35592     35594     35592     35595     35596     35597
     35598     35602     35598     35599     35598     35600     35598     35601
     35602     35603     35604     35608     35604     35605     35604     35606
     35604     35607     35608     35609     35610     35614     35610     35611
     35610     35612     35610     35613     35614     35615     35616     35620
     35616     35617     35616     35618     35616     35619     35620     35621
     35622     35626     35622     35623     35622     35624     35622     35625
     35626     35627     35628     35632     35628     35629     35628     35630
     35628     35631     35632     35633     35634     35638     35634     35635
     35634     35636     35634     35637     35638     35639     35640     35644
     35640     35641     35640     35642     35640     35643     35644     35645
     35646     35650     35646     35647     35646     35648     35646     35649
     35650     35651     35652     35656     35652     35653     35652     35654
     35652     35655     35656     35657     35658     35662     35658     35659
     35658     35660     35658     35661     35662     35663     35664     35668
     35664     35665     35664     35666     35664     35667     35668     35669
     35670     35674     35670     35671     35670     35672     35670     35673
     35674     35675     35676     35680     35676     35677     35676     35678
     35676     35679     35680     35681     35682     35686     35682     35683
     35682     35684     35682     35685     35686     35687     35688     35692
     35688     35689     35688     35690     35688     35691     35692     35693
     35694     35698     35694     35695     35694     35696     35694     35697
     35698     35699     35700     35704     35700     35701     35700     35702
     35700     35703     35704     35705     35706     35710     35706     35707
     35706     35708     35706     35709     35710     35711     35712     35716
     35712     35713     35712     35714     35712     35715     35716     35717
     35718     35722     35718     35719     35718     35720     35718     35721
     35722     35723     35724     35728     35724     35725     35724     35726
     35724     35727     35728     35729     35730     35734     35730     35731
     35730     35732     35730     35733     35734     35735     35736     35740
     35736     35737     35736     35738     35736     35739     35740     35741
     35742     35746     35742     35743     35742     35744     35742     35745
     35746     35747     35748     35752     35748     35749     35748     35750
     35748     35751     35752     35753     35754     35758     35754     35755
     35754     35756     35754     35757     35758     35759     35760     35764
     35760     35761     35760     35762     35760     35763     35764     35765
     35766     35770     35766     35767     35766     35768     35766     35769
     35770     35771     35772     35776     35772     35773     35772     35774
     35772     35775     35776     35777     35778     35782     35778     35779
     35778     35780     35778     35781     35782     35783     35784     35788
     35784     35785     35784     35786     35784     35787     35788     35789
     35790     35794     35790     35791     35790     35792     35790     35793
     35794     35795     35796     35800     35796     35797     35796     35798
     35796     35799     35800     35801     35802     35806     35802     35803
     35802     35804     35802     35805     35806     35807     35808     35812
     35808     35809     35808     35810     35808     35811     35812     35813
     35814     35818     35814     35815     35814     35816     35814     35817
     35818     35819     35820     35824     35820     35821     35820     35822
     35820     35823     35824     35825     35826     35830     35826     35827
     35826     35828     35826     35829     35830     35831     35832     35836
     35832     35833     35832     35834     35832     35835     35836     35837
     35838     35842     35838     35839     35838     35840     35838     35841
     35842     35843     35844     35848     35844     35845     35844     35846
     35844     35847     35848     35849     35850     35854     35850     35851
     35850     35852     35850     35853     35854     35855     35856     35860
     35856     35857     35856     35858     35856     35859     35860     35861
     35862     35866     35862     35863     35862     35864     35862     35865
     35866     35867     35868     35872     35868     35869     35868     35870
     35868     35871     35872     35873     35874     35878     35874     35875
     35874     35876     35874     35877     35878     35879     35880     35884
     35880     35881     35880     35882     35880     35883     35884     35885
     35886     35890     35886     35887     35886     35888     35886     35889
     35890     35891     35892     35896     35892     35893     35892     35894
     35892     35895     35896     35897     35898     35902     35898     35899
     35898     35900     35898     35901     35902     35903     35904     35908
     35904     35905     35904     35906     35904     35907     35908     35909
     35910     35914     35910     35911     35910     35912     35910     35913
     35914     35915     35916     35920     35916     35917     35916     35918
     35916     35919     35920     35921     35922     35926     35922     35923
     35922     35924     35922     35925     35926     35927     35928     35932
     35928     35929     35928     35930     35928     35931     35932     35933
     35934     35938     35934     35935     35934     35936     35934     35937
     35938     35939     35940     35944     35940     35941     35940     35942
     35940     35943     35944     35945     35946     35950     35946     35947
     35946     35948     35946     35949     35950     35951     35952     35956
     35952     35953     35952     35954     35952     35955     35956     35957
     35958     35962     35958     35959     35958     35960     35958     35961
     35962     35963     35964     35968     35964     35965     35964     35966
     35964     35967     35968     35969     35970     35974     35970     35971
     35970     35972     35970     35973     35974     35975     35976     35980
     35976     35977     35976     35978     35976     35979     35980     35981
     35982     35986     35982     35983     35982     35984     35982     35985
     35986     35987     35988     35992     35988     35989     35988     35990
     35988     35991     35992     35993     35994     35998     35994     35995
     35994     35996     35994     35997     35998     35999     36000     36004
     36000     36001     36000     36002     36000     36003     36004     36005
     36006     36010     36006     36007     36006     36008     36006     36009
     36010     36011     36012     36016     36012     36013     36012     36014
     36012     36015     36016     36017     36018     36022     36018     36019
     36018     36020     36018     36021     36022     36023     36024     36028
     36024     36025     36024     36026     36024     36027     36028     36029
     36030     36034     36030     36031     36030     36032     36030     36033
     36034     36035     36036     36040     36036     36037     36036     36038
     36036     36039     36040     36041     36042     36046     36042     36043
     36042     36044     36042     36045     36046     36047     36048     36052
     36048     36049     36048     36050     36048     36051     36052     36053
     36054     36058     36054     36055     36054     36056     36054     36057
     36058     36059     36060     36064     36060     36061     36060     36062
     36060     36063     36064     36065     36066     36070     36066     36067
     36066     36068     36066     36069     36070     36071     36072     36076
     36072     36073     36072     36074     36072     36075     36076     36077
     36078     36082     36078     36079     36078     36080     36078     36081
     36082     36083     36084     36088     36084     36085     36084     36086
     36084     36087     36088     36089     36090     36094     36090     36091
     36090     36092     36090     36093     36094     36095     36096     36100
     36096     36097     36096     36098     36096     36099     36100     36101
     36102     36106     36102     36103     36102     36104     36102     36105
     36106     36107     36108     36112     36108     36109     36108     36110
     36108     36111     36112     36113     36114     36118     36114     36115
     36114     36116     36114     36117     36118     36119     36120     36124
     36120     36121     36120     36122     36120     36123     36124     36125
     36126     36130     36126     36127     36126     36128     36126     36129
     36130     36131     36132     36136     36132     36133     36132     36134
     36132     36135     36136     36137     36138     36142     36138     36139
     36138     36140     36138     36141     36142     36143     36144     36148
     36144     36145     36144     36146     36144     36147     36148     36149
     36150     36154     36150     36151     36150     36152     36150     36153
     36154     36155     36156     36160     36156     36157     36156     36158
     36156     36159     36160     36161     36162     36166     36162     36163
     36162     36164     36162     36165     36166     36167     36168     36172
     36168     36169     36168     36170     36168     36171     36172     36173
     36174     36178     36174     36175     36174     36176     36174     36177
     36178     36179     36180     36184     36180     36181     36180     36182
     36180     36183     36184     36185     36186     36190     36186     36187
     36186     36188     36186     36189     36190     36191     36192     36196
     36192     36193     36192     36194     36192     36195     36196     36197
     36198     36202     36198     36199     36198     36200     36198     36201
     36202     36203     36204     36208     36204     36205     36204     36206
     36204     36207     36208     36209     36210     36214     36210     36211
     36210     36212     36210     36213     36214     36215     36216     36220
     36216     36217     36216     36218     36216     36219     36220     36221
     36222     36226     36222     36223     36222     36224     36222     36225
     36226     36227     36228     36232     36228     36229     36228     36230
     36228     36231     36232     36233     36234     36238     36234     36235
     36234     36236     36234     36237     36238     36239     36240     36244
     36240     36241     36240     36242     36240     36243     36244     36245
     36246     36250     36246     36247     36246     36248     36246     36249
     36250     36251     36252     36256     36252     36253     36252     36254
     36252     36255     36256     36257     36258     36262     36258     36259
     36258     36260     36258     36261     36262     36263     36264     36268
     36264     36265     36264     36266     36264     36267     36268     36269
     36270     36274     36270     36271     36270     36272     36270     36273
     36274     36275     36276     36280     36276     36277     36276     36278
     36276     36279     36280     36281     36282     36286     36282     36283
     36282     36284     36282     36285     36286     36287     36288     36292
     36288     36289     36288     36290     36288     36291     36292     36293
     36294     36298     36294     36295     36294     36296     36294     36297
     36298     36299     36300     36304     36300     36301     36300     36302
     36300     36303     36304     36305     36306     36310     36306     36307
     36306     36308     36306     36309     36310     36311     36312     36316
     36312     36313     36312     36314     36312     36315     36316     36317
     36318     36322     36318     36319     36318     36320     36318     36321
     36322     36323     36324     36328     36324     36325     36324     36326
     36324     36327     36328     36329     36330     36334     36330     36331
     36330     36332     36330     36333     36334     36335     36336     36340
     36336     36337     36336     36338     36336     36339     36340     36341
     36342     36346     36342     36343     36342     36344     36342     36345
     36346     36347     36348     36352     36348     36349     36348     36350
     36348     36351     36352     36353     36354     36358     36354     36355
     36354     36356     36354     36357     36358     36359     36360     36364
     36360     36361     36360     36362     36360     36363     36364     36365
     36366     36370     36366     36367     36366     36368     36366     36369
     36370     36371     36372     36376     36372     36373     36372     36374
     36372     36375     36376     36377     36378     36382     36378     36379
     36378     36380     36378     36381     36382     36383     36384     36388
     36384     36385     36384     36386     36384     36387     36388     36389
     36390     36394     36390     36391     36390     36392     36390     36393
     36394     36395     36396     36400     36396     36397     36396     36398
     36396     36399     36400     36401     36402     36406     36402     36403
     36402     36404     36402     36405     36406     36407     36408     36412
     36408     36409     36408     36410     36408     36411     36412     36413
     36414     36418     36414     36415     36414     36416     36414     36417
     36418     36419     36420     36424     36420     36421     36420     36422
     36420     36423     36424     36425     36426     36430     36426     36427
     36426     36428     36426     36429     36430     36431     36432     36436
     36432     36433     36432     36434     36432     36435     36436     36437
     36438     36442     36438     36439     36438     36440     36438     36441
     36442     36443     36444     36448     36444     36445     36444     36446
     36444     36447     36448     36449     36450     36454     36450     36451
     36450     36452     36450     36453     36454     36455     36456     36460
     36456     36457     36456     36458     36456     36459     36460     36461
     36462     36466     36462     36463     36462     36464     36462     36465
     36466     36467     36468     36472     36468     36469     36468     36470
     36468     36471     36472     36473     36474     36478     36474     36475
     36474     36476     36474     36477     36478     36479     36480     36484
     36480     36481     36480     36482     36480     36483     36484     36485
     36486     36490     36486     36487     36486     36488     36486     36489
     36490     36491     36492     36496     36492     36493     36492     36494
     36492     36495     36496     36497     36498     36502     36498     36499
     36498     36500     36498     36501     36502     36503     36504     36508
     36504     36505     36504     36506     36504     36507     36508     36509
     36510     36514     36510     36511     36510     36512     36510     36513
     36514     36515     36516     36520     36516     36517     36516     36518
     36516     36519     36520     36521     36522     36526     36522     36523
     36522     36524     36522     36525     36526     36527     36528     36532
     36528     36529     36528     36530     36528     36531     36532     36533
     36534     36538     36534     36535     36534     36536     36534     36537
     36538     36539     36540     36544     36540     36541     36540     36542
     36540     36543     36544     36545     36546     36550     36546     36547
     36546     36548     36546     36549     36550     36551     36552     36556
     36552     36553     36552     36554     36552     36555     36556     36557
     36558     36562     36558     36559     36558     36560     36558     36561
     36562     36563     36564     36568     36564     36565     36564     36566
     36564     36567     36568     36569     36570     36574     36570     36571
     36570     36572     36570     36573     36574     36575     36576     36580
     36576     36577     36576     36578     36576     36579     36580     36581
     36582     36586     36582     36583     36582     36584     36582     36585
     36586     36587     36588     36592     36588     36589     36588     36590
     36588     36591     36592     36593     36594     36598     36594     36595
     36594     36596     36594     36597     36598     36599     36600     36604
     36600     36601     36600     36602     36600     36603     36604     36605
     36606     36610     36606     36607     36606     36608     36606     36609
     36610     36611     36612     36616     36612     36613     36612     36614
     36612     36615     36616     36617     36618     36622     36618     36619
     36618     36620     36618     36621     36622     36623     36624     36628
     36624     36625     36624     36626     36624     36627     36628     36629
     36630     36634     36630     36631     36630     36632     36630     36633
     36634     36635     36636     36640     36636     36637     36636     36638
     36636     36639     36640     36641     36642     36646     36642     36643
     36642     36644     36642     36645     36646     36647     36648     36652
     36648     36649     36648     36650     36648     36651     36652     36653
     36654     36658     36654     36655     36654     36656     36654     36657
     36658     36659     36660     36664     36660     36661     36660     36662
     36660     36663     36664     36665     36666     36670     36666     36667
     36666     36668     36666     36669     36670     36671     36672     36676
     36672     36673     36672     36674     36672     36675     36676     36677
     36678     36682     36678     36679     36678     36680     36678     36681
     36682     36683     36684     36688     36684     36685     36684     36686
     36684     36687     36688     36689     36690     36694     36690     36691
     36690     36692     36690     36693     36694     36695     36696     36700
     36696     36697     36696     36698     36696     36699     36700     36701
     36702     36706     36702     36703     36702     36704     36702     36705
     36706     36707     36708     36712     36708     36709     36708     36710
     36708     36711     36712     36713     36714     36718     36714     36715
     36714     36716     36714     36717     36718     36719     36720     36724
     36720     36721     36720     36722     36720     36723     36724     36725
     36726     36730     36726     36727     36726     36728     36726     36729
     36730     36731     36732     36736     36732     36733     36732     36734
     36732     36735     36736     36737     36738     36742     36738     36739
     36738     36740     36738     36741     36742     36743     36744     36748
     36744     36745     36744     36746     36744     36747     36748     36749
     36750     36754     36750     36751     36750     36752     36750     36753
     36754     36755     36756     36760     36756     36757     36756     36758
     36756     36759     36760     36761     36762     36766     36762     36763
     36762     36764     36762     36765     36766     36767     36768     36772
     36768     36769     36768     36770     36768     36771     36772     36773
     36774     36778     36774     36775     36774     36776     36774     36777
     36778     36779     36780     36784     36780     36781     36780     36782
     36780     36783     36784     36785     36786     36790     36786     36787
     36786     36788     36786     36789     36790     36791     36792     36796
     36792     36793     36792     36794     36792     36795     36796     36797
     36798     36802     36798     36799     36798     36800     36798     36801
     36802     36803     36804     36808     36804     36805     36804     36806
     36804     36807     36808     36809     36810     36814     36810     36811
     36810     36812     36810     36813     36814     36815     36816     36820
     36816     36817     36816     36818     36816     36819     36820     36821
     36822     36826     36822     36823     36822     36824     36822     36825
     36826     36827     36828     36832     36828     36829     36828     36830
     36828     36831     36832     36833     36834     36838     36834     36835
     36834     36836     36834     36837     36838     36839     36840     36844
     36840     36841     36840     36842     36840     36843     36844     36845
     36846     36850     36846     36847     36846     36848     36846     36849
     36850     36851     36852     36856     36852     36853     36852     36854
     36852     36855     36856     36857     36858     36862     36858     36859
     36858     36860     36858     36861     36862     36863     36864     36868
     36864     36865     36864     36866     36864     36867     36868     36869
     36870     36874     36870     36871     36870     36872     36870     36873
     36874     36875     36876     36880     36876     36877     36876     36878
     36876     36879     36880     36881     36882     36886     36882     36883
     36882     36884     36882     36885     36886     36887     36888     36892
     36888     36889     36888     36890     36888     36891     36892     36893
     36894     36898     36894     36895     36894     36896     36894     36897
     36898     36899     36900     36904     36900     36901     36900     36902
     36900     36903     36904     36905     36906     36910     36906     36907
     36906     36908     36906     36909     36910     36911     36912     36916
     36912     36913     36912     36914     36912     36915     36916     36917
     36918     36922     36918     36919     36918     36920     36918     36921
     36922     36923     36924     36928     36924     36925     36924     36926
     36924     36927     36928     36929     36930     36934     36930     36931
     36930     36932     36930     36933     36934     36935     36936     36940
     36936     36937     36936     36938     36936     36939     36940     36941
     36942     36946     36942     36943     36942     36944     36942     36945
     36946     36947     36948     36952     36948     36949     36948     36950
     36948     36951     36952     36953     36954     36958     36954     36955
     36954     36956     36954     36957     36958     36959     36960     36964
     36960     36961     36960     36962     36960     36963     36964     36965
     36966     36970     36966     36967     36966     36968     36966     36969
     36970     36971     36972     36976     36972     36973     36972     36974
     36972     36975     36976     36977     36978     36982     36978     36979
     36978     36980     36978     36981     36982     36983     36984     36988
     36984     36985     36984     36986     36984     36987     36988     36989
     36990     36994     36990     36991     36990     36992     36990     36993
     36994     36995     36996     37000     36996     36997     36996     36998
     36996     36999     37000     37001     37002     37006     37002     37003
     37002     37004     37002     37005     37006     37007     37008     37012
     37008     37009     37008     37010     37008     37011     37012     37013
     37014     37018     37014     37015     37014     37016     37014     37017
     37018     37019     37020     37024     37020     37021     37020     37022
     37020     37023     37024     37025     37026     37030     37026     37027
     37026     37028     37026     37029     37030     37031     37032     37036
     37032     37033     37032     37034     37032     37035     37036     37037
     37038     37042     37038     37039     37038     37040     37038     37041
     37042     37043     37044     37048     37044     37045     37044     37046
     37044     37047     37048     37049     37050     37054     37050     37051
     37050     37052     37050     37053     37054     37055     37056     37060
     37056     37057     37056     37058     37056     37059     37060     37061
     37062     37066     37062     37063     37062     37064     37062     37065
     37066     37067     37068     37072     37068     37069     37068     37070
     37068     37071     37072     37073     37074     37078     37074     37075
     37074     37076     37074     37077     37078     37079     37080     37084
     37080     37081     37080     37082     37080     37083     37084     37085
     37086     37090     37086     37087     37086     37088     37086     37089
     37090     37091     37092     37096     37092     37093     37092     37094
     37092     37095     37096     37097     37098     37102     37098     37099
     37098     37100     37098     37101     37102     37103     37104     37108
     37104     37105     37104     37106     37104     37107     37108     37109
     37110     37114     37110     37111     37110     37112     37110     37113
     37114     37115     37116     37120     37116     37117     37116     37118
     37116     37119     37120     37121     37122     37126     37122     37123
     37122     37124     37122     37125     37126     37127     37128     37132
     37128     37129     37128     37130     37128     37131     37132     37133
     37134     37138     37134     37135     37134     37136     37134     37137
     37138     37139     37140     37144     37140     37141     37140     37142
     37140     37143     37144     37145     37146     37150     37146     37147
     37146     37148     37146     37149     37150     37151     37152     37156
     37152     37153     37152     37154     37152     37155     37156     37157
     37158     37162     37158     37159     37158     37160     37158     37161
     37162     37163     37164     37168     37164     37165     37164     37166
     37164     37167     37168     37169     37170     37174     37170     37171
     37170     37172     37170     37173     37174     37175     37176     37180
     37176     37177     37176     37178     37176     37179     37180     37181
     37182     37186     37182     37183     37182     37184     37182     37185
     37186     37187     37188     37192     37188     37189     37188     37190
     37188     37191     37192     37193     37194     37198     37194     37195
     37194     37196     37194     37197     37198     37199     37200     37204
     37200     37201     37200     37202     37200     37203     37204     37205
     37206     37210     37206     37207     37206     37208     37206     37209
     37210     37211     37212     37216     37212     37213     37212     37214
     37212     37215     37216     37217     37218     37222     37218     37219
     37218     37220     37218     37221     37222     37223     37224     37228
     37224     37225     37224     37226     37224     37227     37228     37229
     37230     37234     37230     37231     37230     37232     37230     37233
     37234     37235     37236     37240     37236     37237     37236     37238
     37236     37239     37240     37241     37242     37246     37242     37243
     37242     37244     37242     37245     37246     37247     37248     37252
     37248     37249     37248     37250     37248     37251     37252     37253
     37254     37258     37254     37255     37254     37256     37254     37257
     37258     37259     37260     37264     37260     37261     37260     37262
     37260     37263     37264     37265     37266     37270     37266     37267
     37266     37268     37266     37269     37270     37271     37272     37276
     37272     37273     37272     37274     37272     37275     37276     37277
     37278     37282     37278     37279     37278     37280     37278     37281
     37282     37283     37284     37288     37284     37285     37284     37286
     37284     37287     37288     37289     37290     37294     37290     37291
     37290     37292     37290     37293     37294     37295     37296     37300
     37296     37297     37296     37298     37296     37299     37300     37301
     37302     37306     37302     37303     37302     37304     37302     37305
     37306     37307     37308     37312     37308     37309     37308     37310
     37308     37311     37312     37313     37314     37318     37314     37315
     37314     37316     37314     37317     37318     37319     37320     37324
     37320     37321     37320     37322     37320     37323     37324     37325
     37326     37330     37326     37327     37326     37328     37326     37329
     37330     37331     37332     37336     37332     37333     37332     37334
     37332     37335     37336     37337     37338     37342     37338     37339
     37338     37340     37338     37341     37342     37343     37344     37348
     37344     37345     37344     37346     37344     37347     37348     37349
     37350     37354     37350     37351     37350     37352     37350     37353
     37354     37355     37356     37360     37356     37357     37356     37358
     37356     37359     37360     37361     37362     37366     37362     37363
     37362     37364     37362     37365     37366     37367     37368     37372
     37368     37369     37368     37370     37368     37371     37372     37373
     37374     37378     37374     37375     37374     37376     37374     37377
     37378     37379     37380     37384     37380     37381     37380     37382
     37380     37383     37384     37385     37386     37390     37386     37387
     37386     37388     37386     37389     37390     37391     37392     37396
     37392     37393     37392     37394     37392     37395     37396     37397
     37398     37402     37398     37399     37398     37400     37398     37401
     37402     37403     37404     37408     37404     37405     37404     37406
     37404     37407     37408     37409     37410     37414     37410     37411
     37410     37412     37410     37413     37414     37415     37416     37420
     37416     37417     37416     37418     37416     37419     37420     37421
     37422     37426     37422     37423     37422     37424     37422     37425
     37426     37427     37428     37432     37428     37429     37428     37430
     37428     37431     37432     37433     37434     37438     37434     37435
     37434     37436     37434     37437     37438     37439     37440     37444
     37440     37441     37440     37442     37440     37443     37444     37445
     37446     37450     37446     37447     37446     37448     37446     37449
     37450     37451     37452     37456     37452     37453     37452     37454
     37452     37455     37456     37457     37458     37462     37458     37459
     37458     37460     37458     37461     37462     37463     37464     37468
     37464     37465     37464     37466     37464     37467     37468     37469
     37470     37474     37470     37471     37470     37472     37470     37473
     37474     37475     37476     37480     37476     37477     37476     37478
     37476     37479     37480     37481     37482     37486     37482     37483
     37482     37484     37482     37485     37486     37487     37488     37492
     37488     37489     37488     37490     37488     37491     37492     37493
     37494     37498     37494     37495     37494     37496     37494     37497
     37498     37499     37500     37504     37500     37501     37500     37502
     37500     37503     37504     37505     37506     37510     37506     37507
     37506     37508     37506     37509     37510     37511     37512     37516
     37512     37513     37512     37514     37512     37515     37516     37517
     37518     37522     37518     37519     37518     37520     37518     37521
     37522     37523     37524     37528     37524     37525     37524     37526
     37524     37527     37528     37529     37530     37534     37530     37531
     37530     37532     37530     37533     37534     37535     37536     37540
     37536     37537     37536     37538     37536     37539     37540     37541
     37542     37546     37542     37543     37542     37544     37542     37545
     37546     37547     37548     37552     37548     37549     37548     37550
     37548     37551     37552     37553     37554     37558     37554     37555
     37554     37556     37554     37557     37558     37559     37560     37564
     37560     37561     37560     37562     37560     37563     37564     37565
     37566     37570     37566     37567     37566     37568     37566     37569
     37570     37571     37572     37576     37572     37573     37572     37574
     37572     37575     37576     37577     37578     37582     37578     37579
     37578     37580     37578     37581     37582     37583     37584     37588
     37584     37585     37584     37586     37584     37587     37588     37589
     37590     37594     37590     37591     37590     37592     37590     37593
     37594     37595     37596     37600     37596     37597     37596     37598
     37596     37599     37600     37601     37602     37606     37602     37603
     37602     37604     37602     37605     37606     37607     37608     37612
     37608     37609     37608     37610     37608     37611     37612     37613
     37614     37618     37614     37615     37614     37616     37614     37617
     37618     37619     37620     37624     37620     37621     37620     37622
     37620     37623     37624     37625     37626     37630     37626     37627
     37626     37628     37626     37629     37630     37631     37632     37636
     37632     37633     37632     37634     37632     37635     37636     37637
     37638     37642     37638     37639     37638     37640     37638     37641
     37642     37643     37644     37648     37644     37645     37644     37646
     37644     37647     37648     37649     37650     37654     37650     37651
     37650     37652     37650     37653     37654     37655     37656     37660
     37656     37657     37656     37658     37656     37659     37660     37661
     37662     37666     37662     37663     37662     37664     37662     37665
     37666     37667     37668     37672     37668     37669     37668     37670
     37668     37671     37672     37673     37674     37678     37674     37675
     37674     37676     37674     37677     37678     37679     37680     37684
     37680     37681     37680     37682     37680     37683     37684     37685
     37686     37690     37686     37687     37686     37688     37686     37689
     37690     37691     37692     37696     37692     37693     37692     37694
     37692     37695     37696     37697     37698     37702     37698     37699
     37698     37700     37698     37701     37702     37703     37704     37708
     37704     37705     37704     37706     37704     37707     37708     37709
     37710     37714     37710     37711     37710     37712     37710     37713
     37714     37715     37716     37720     37716     37717     37716     37718
     37716     37719     37720     37721     37722     37726     37722     37723
     37722     37724     37722     37725     37726     37727     37728     37732
     37728     37729     37728     37730     37728     37731     37732     37733
     37734     37738     37734     37735     37734     37736     37734     37737
     37738     37739     37740     37744     37740     37741     37740     37742
     37740     37743     37744     37745     37746     37750     37746     37747
     37746     37748     37746     37749     37750     37751     37752     37756
     37752     37753     37752     37754     37752     37755     37756     37757
     37758     37762     37758     37759     37758     37760     37758     37761
     37762     37763     37764     37768     37764     37765     37764     37766
     37764     37767     37768     37769     37770     37774     37770     37771
     37770     37772     37770     37773     37774     37775     37776     37780
     37776     37777     37776     37778     37776     37779     37780     37781
     37782     37786     37782     37783     37782     37784     37782     37785
     37786     37787     37788     37792     37788     37789     37788     37790
     37788     37791     37792     37793     37794     37798     37794     37795
     37794     37796     37794     37797     37798     37799     37800     37804
     37800     37801     37800     37802     37800     37803     37804     37805
     37806     37810     37806     37807     37806     37808     37806     37809
     37810     37811     37812     37816     37812     37813     37812     37814
     37812     37815     37816     37817     37818     37822     37818     37819
     37818     37820     37818     37821     37822     37823     37824     37828
     37824     37825     37824     37826     37824     37827     37828     37829
     37830     37834     37830     37831     37830     37832     37830     37833
     37834     37835     37836     37840     37836     37837     37836     37838
     37836     37839     37840     37841     37842     37846     37842     37843
     37842     37844     37842     37845     37846     37847     37848     37852
     37848     37849     37848     37850     37848     37851     37852     37853
     37854     37858     37854     37855     37854     37856     37854     37857
     37858     37859     37860     37864     37860     37861     37860     37862
     37860     37863     37864     37865     37866     37870     37866     37867
     37866     37868     37866     37869     37870     37871     37872     37876
     37872     37873     37872     37874     37872     37875     37876     37877
     37878     37882     37878     37879     37878     37880     37878     37881
     37882     37883     37884     37888     37884     37885     37884     37886
     37884     37887     37888     37889     37890     37894     37890     37891
     37890     37892     37890     37893     37894     37895     37896     37900
     37896     37897     37896     37898     37896     37899     37900     37901
     37902     37906     37902     37903     37902     37904     37902     37905
     37906     37907     37908     37912     37908     37909     37908     37910
     37908     37911     37912     37913     37914     37918     37914     37915
     37914     37916     37914     37917     37918     37919     37920     37924
     37920     37921     37920     37922     37920     37923     37924     37925
     37926     37930     37926     37927     37926     37928     37926     37929
     37930     37931     37932     37936     37932     37933     37932     37934
     37932     37935     37936     37937     37938     37942     37938     37939
     37938     37940     37938     37941     37942     37943     37944     37948
     37944     37945     37944     37946     37944     37947     37948     37949
     37950     37954     37950     37951     37950     37952     37950     37953
     37954     37955     37956     37960     37956     37957     37956     37958
     37956     37959     37960     37961     37962     37966     37962     37963
     37962     37964     37962     37965     37966     37967     37968     37972
     37968     37969     37968     37970     37968     37971     37972     37973
     37974     37978     37974     37975     37974     37976     37974     37977
     37978     37979     37980     37984     37980     37981     37980     37982
     37980     37983     37984     37985     37986     37990     37986     37987
     37986     37988     37986     37989     37990     37991     37992     37996
     37992     37993     37992     37994     37992     37995     37996     37997
     37998     38002     37998     37999     37998     38000     37998     38001
     38002     38003     38004     38008     38004     38005     38004     38006
     38004     38007     38008     38009     38010     38014     38010     38011
     38010     38012     38010     38013     38014     38015     38016     38020
     38016     38017     38016     38018     38016     38019     38020     38021
     38022     38026     38022     38023     38022     38024     38022     38025
     38026     38027     38028     38032     38028     38029     38028     38030
     38028     38031     38032     38033     38034     38038     38034     38035
     38034     38036     38034     38037     38038     38039     38040     38044
     38040     38041     38040     38042     38040     38043     38044     38045
     38046     38050     38046     38047     38046     38048     38046     38049
     38050     38051     38052     38056     38052     38053     38052     38054
     38052     38055     38056     38057     38058     38062     38058     38059
     38058     38060     38058     38061     38062     38063     38064     38068
     38064     38065     38064     38066     38064     38067     38068     38069
     38070     38074     38070     38071     38070     38072     38070     38073
     38074     38075     38076     38080     38076     38077     38076     38078
     38076     38079     38080     38081     38082     38086     38082     38083
     38082     38084     38082     38085     38086     38087     38088     38092
     38088     38089     38088     38090     38088     38091     38092     38093
     38094     38098     38094     38095     38094     38096     38094     38097
     38098     38099     38100     38104     38100     38101     38100     38102
     38100     38103     38104     38105     38106     38110     38106     38107
     38106     38108     38106     38109     38110     38111     38112     38116
     38112     38113     38112     38114     38112     38115     38116     38117
     38118     38122     38118     38119     38118     38120     38118     38121
     38122     38123     38124     38128     38124     38125     38124     38126
     38124     38127     38128     38129     38130     38134     38130     38131
     38130     38132     38130     38133     38134     38135     38136     38140
     38136     38137     38136     38138     38136     38139     38140     38141
     38142     38146     38142     38143     38142     38144     38142     38145
     38146     38147     38148     38152     38148     38149     38148     38150
     38148     38151     38152     38153     38154     38158     38154     38155
     38154     38156     38154     38157     38158     38159     38160     38164
     38160     38161     38160     38162     38160     38163     38164     38165
     38166     38170     38166     38167     38166     38168     38166     38169
     38170     38171     38172     38176     38172     38173     38172     38174
     38172     38175     38176     38177     38178     38182     38178     38179
     38178     38180     38178     38181     38182     38183     38184     38188
     38184     38185     38184     38186     38184     38187     38188     38189
     38190     38194     38190     38191     38190     38192     38190     38193
     38194     38195     38196     38200     38196     38197     38196     38198
     38196     38199     38200     38201     38202     38206     38202     38203
     38202     38204     38202     38205     38206     38207     38208     38212
     38208     38209     38208     38210     38208     38211     38212     38213
     38214     38218     38214     38215     38214     38216     38214     38217
     38218     38219     38220     38224     38220     38221     38220     38222
     38220     38223     38224     38225     38226     38230     38226     38227
     38226     38228     38226     38229     38230     38231     38232     38236
     38232     38233     38232     38234     38232     38235     38236     38237
     38238     38242     38238     38239     38238     38240     38238     38241
     38242     38243     38244     38248     38244     38245     38244     38246
     38244     38247     38248     38249     38250     38254     38250     38251
     38250     38252     38250     38253     38254     38255     38256     38260
     38256     38257     38256     38258     38256     38259     38260     38261
     38262     38266     38262     38263     38262     38264     38262     38265
     38266     38267     38268     38272     38268     38269     38268     38270
     38268     38271     38272     38273     38274     38278     38274     38275
     38274     38276     38274     38277     38278     38279     38280     38284
     38280     38281     38280     38282     38280     38283     38284     38285
     38286     38290     38286     38287     38286     38288     38286     38289
     38290     38291     38292     38296     38292     38293     38292     38294
     38292     38295     38296     38297     38298     38302     38298     38299
     38298     38300     38298     38301     38302     38303     38304     38308
     38304     38305     38304     38306     38304     38307     38308     38309
     38310     38314     38310     38311     38310     38312     38310     38313
     38314     38315     38316     38320     38316     38317     38316     38318
     38316     38319     38320     38321     38322     38326     38322     38323
     38322     38324     38322     38325     38326     38327     38328     38332
     38328     38329     38328     38330     38328     38331     38332     38333
     38334     38338     38334     38335     38334     38336     38334     38337
     38338     38339     38340     38344     38340     38341     38340     38342
     38340     38343     38344     38345     38346     38350     38346     38347
     38346     38348     38346     38349     38350     38351     38352     38356
     38352     38353     38352     38354     38352     38355     38356     38357
     38358     38362     38358     38359     38358     38360     38358     38361
     38362     38363     38364     38368     38364     38365     38364     38366
     38364     38367     38368     38369     38370     38374     38370     38371
     38370     38372     38370     38373     38374     38375     38376     38380
     38376     38377     38376     38378     38376     38379     38380     38381
     38382     38386     38382     38383     38382     38384     38382     38385
     38386     38387     38388     38392     38388     38389     38388     38390
     38388     38391     38392     38393     38394     38398     38394     38395
     38394     38396     38394     38397     38398     38399     38400     38404
     38400     38401     38400     38402     38400     38403     38404     38405
     38406     38410     38406     38407     38406     38408     38406     38409
     38410     38411     38412     38416     38412     38413     38412     38414
     38412     38415     38416     38417     38418     38422     38418     38419
     38418     38420     38418     38421     38422     38423     38424     38428
     38424     38425     38424     38426     38424     38427     38428     38429
     38430     38434     38430     38431     38430     38432     38430     38433
     38434     38435     38436     38440     38436     38437     38436     38438
     38436     38439     38440     38441     38442     38446     38442     38443
     38442     38444     38442     38445     38446     38447     38448     38452
     38448     38449     38448     38450     38448     38451     38452     38453
     38454     38458     38454     38455     38454     38456     38454     38457
     38458     38459     38460     38464     38460     38461     38460     38462
     38460     38463     38464     38465     38466     38470     38466     38467
     38466     38468     38466     38469     38470     38471     38472     38476
     38472     38473     38472     38474     38472     38475     38476     38477
     38478     38482     38478     38479     38478     38480     38478     38481
     38482     38483     38484     38488     38484     38485     38484     38486
     38484     38487     38488     38489     38490     38494     38490     38491
     38490     38492     38490     38493     38494     38495     38496     38500
     38496     38497     38496     38498     38496     38499     38500     38501
     38502     38506     38502     38503     38502     38504     38502     38505
     38506     38507     38508     38512     38508     38509     38508     38510
     38508     38511     38512     38513     38514     38518     38514     38515
     38514     38516     38514     38517     38518     38519     38520     38524
     38520     38521     38520     38522     38520     38523     38524     38525
     38526     38530     38526     38527     38526     38528     38526     38529
     38530     38531     38532     38536     38532     38533     38532     38534
     38532     38535     38536     38537     38538     38542     38538     38539
     38538     38540     38538     38541     38542     38543     38544     38548
     38544     38545     38544     38546     38544     38547     38548     38549
     38550     38554     38550     38551     38550     38552     38550     38553
     38554     38555     38556     38560     38556     38557     38556     38558
     38556     38559     38560     38561     38562     38566     38562     38563
     38562     38564     38562     38565     38566     38567     38568     38572
     38568     38569     38568     38570     38568     38571     38572     38573
     38574     38578     38574     38575     38574     38576     38574     38577
     38578     38579     38580     38584     38580     38581     38580     38582
     38580     38583     38584     38585     38586     38590     38586     38587
     38586     38588     38586     38589     38590     38591     38592     38596
     38592     38593     38592     38594     38592     38595     38596     38597
     38598     38602     38598     38599     38598     38600     38598     38601
     38602     38603     38604     38608     38604     38605     38604     38606
     38604     38607     38608     38609     38610     38614     38610     38611
     38610     38612     38610     38613     38614     38615     38616     38620
     38616     38617     38616     38618     38616     38619     38620     38621
     38622     38626     38622     38623     38622     38624     38622     38625
     38626     38627     38628     38632     38628     38629     38628     38630
     38628     38631     38632     38633     38634     38638     38634     38635
     38634     38636     38634     38637     38638     38639     38640     38644
     38640     38641     38640     38642     38640     38643     38644     38645
     38646     38650     38646     38647     38646     38648     38646     38649
     38650     38651     38652     38656     38652     38653     38652     38654
     38652     38655     38656     38657     38658     38662     38658     38659
     38658     38660     38658     38661     38662     38663     38664     38668
     38664     38665     38664     38666     38664     38667     38668     38669
     38670     38674     38670     38671     38670     38672     38670     38673
     38674     38675     38676     38680     38676     38677     38676     38678
     38676     38679     38680     38681     38682     38686     38682     38683
     38682     38684     38682     38685     38686     38687     38688     38692
     38688     38689     38688     38690     38688     38691     38692     38693
     38694     38698     38694     38695     38694     38696     38694     38697
     38698     38699     38700     38704     38700     38701     38700     38702
     38700     38703     38704     38705     38706     38710     38706     38707
     38706     38708     38706     38709     38710     38711     38712     38716
     38712     38713     38712     38714     38712     38715     38716     38717
     38718     38722     38718     38719     38718     38720     38718     38721
     38722     38723     38724     38728     38724     38725     38724     38726
     38724     38727     38728     38729     38730     38734     38730     38731
     38730     38732     38730     38733     38734     38735     38736     38740
     38736     38737     38736     38738     38736     38739     38740     38741
     38742     38746     38742     38743     38742     38744     38742     38745
     38746     38747     38748     38752     38748     38749     38748     38750
     38748     38751     38752     38753     38754     38758     38754     38755
     38754     38756     38754     38757     38758     38759     38760     38764
     38760     38761     38760     38762     38760     38763     38764     38765
     38766     38770     38766     38767     38766     38768     38766     38769
     38770     38771     38772     38776     38772     38773     38772     38774
     38772     38775     38776     38777     38778     38782     38778     38779
     38778     38780     38778     38781     38782     38783     38784     38788
     38784     38785     38784     38786     38784     38787     38788     38789
     38790     38794     38790     38791     38790     38792     38790     38793
     38794     38795     38796     38800     38796     38797     38796     38798
     38796     38799     38800     38801     38802     38806     38802     38803
     38802     38804     38802     38805     38806     38807     38808     38812
     38808     38809     38808     38810     38808     38811     38812     38813
     38814     38818     38814     38815     38814     38816     38814     38817
     38818     38819     38820     38824     38820     38821     38820     38822
     38820     38823     38824     38825     38826     38830     38826     38827
     38826     38828     38826     38829     38830     38831     38832     38836
     38832     38833     38832     38834     38832     38835     38836     38837
     38838     38842     38838     38839     38838     38840     38838     38841
     38842     38843     38844     38848     38844     38845     38844     38846
     38844     38847     38848     38849     38850     38854     38850     38851
     38850     38852     38850     38853     38854     38855     38856     38860
     38856     38857     38856     38858     38856     38859     38860     38861
     38862     38866     38862     38863     38862     38864     38862     38865
     38866     38867     38868     38872     38868     38869     38868     38870
     38868     38871     38872     38873     38874     38878     38874     38875
     38874     38876     38874     38877     38878     38879     38880     38884
     38880     38881     38880     38882     38880     38883     38884     38885
     38886     38890     38886     38887     38886     38888     38886     38889
     38890     38891     38892     38896     38892     38893     38892     38894
     38892     38895     38896     38897     38898     38902     38898     38899
     38898     38900     38898     38901     38902     38903     38904     38908
     38904     38905     38904     38906     38904     38907     38908     38909
     38910     38914     38910     38911     38910     38912     38910     38913
     38914     38915     38916     38920     38916     38917     38916     38918
     38916     38919     38920     38921     38922     38926     38922     38923
     38922     38924     38922     38925     38926     38927     38928     38932
     38928     38929     38928     38930     38928     38931     38932     38933
     38934     38938     38934     38935     38934     38936     38934     38937
     38938     38939     38940     38944     38940     38941     38940     38942
     38940     38943     38944     38945     38946     38950     38946     38947
     38946     38948     38946     38949     38950     38951     38952     38956
     38952     38953     38952     38954     38952     38955     38956     38957
     38958     38962     38958     38959     38958     38960     38958     38961
     38962     38963     38964     38968     38964     38965     38964     38966
     38964     38967     38968     38969     38970     38974     38970     38971
     38970     38972     38970     38973     38974     38975     38976     38980
     38976     38977     38976     38978     38976     38979     38980     38981
     38982     38986     38982     38983     38982     38984     38982     38985
     38986     38987     38988     38992     38988     38989     38988     38990
     38988     38991     38992     38993     38994     38998     38994     38995
     38994     38996     38994     38997     38998     38999     39000     39004
     39000     39001     39000     39002     39000     39003     39004     39005
     39006     39010     39006     39007     39006     39008     39006     39009
     39010     39011     39012     39016     39012     39013     39012     39014
     39012     39015     39016     39017     39018     39022     39018     39019
     39018     39020     39018     39021     39022     39023     39024     39028
     39024     39025     39024     39026     39024     39027     39028     39029
     39030     39034     39030     39031     39030     39032     39030     39033
     39034     39035     39036     39040     39036     39037     39036     39038
     39036     39039     39040     39041     39042     39046     39042     39043
     39042     39044     39042     39045     39046     39047     39048     39052
     39048     39049     39048     39050     39048     39051     39052     39053
     39054     39058     39054     39055     39054     39056     39054     39057
     39058     39059     39060     39064     39060     39061     39060     39062
     39060     39063     39064     39065     39066     39070     39066     39067
     39066     39068     39066     39069     39070     39071     39072     39076
     39072     39073     39072     39074     39072     39075     39076     39077
     39078     39082     39078     39079     39078     39080     39078     39081
     39082     39083     39084     39088     39084     39085     39084     39086
     39084     39087     39088     39089     39090     39094     39090     39091
     39090     39092     39090     39093     39094     39095     39096     39100
     39096     39097     39096     39098     39096     39099     39100     39101
     39102     39106     39102     39103     39102     39104     39102     39105
     39106     39107     39108     39112     39108     39109     39108     39110
     39108     39111     39112     39113     39114     39118     39114     39115
     39114     39116     39114     39117     39118     39119     39120     39124
     39120     39121     39120     39122     39120     39123     39124     39125
     39126     39130     39126     39127     39126     39128     39126     39129
     39130     39131     39132     39136     39132     39133     39132     39134
     39132     39135     39136     39137     39138     39142     39138     39139
     39138     39140     39138     39141     39142     39143     39144     39148
     39144     39145     39144     39146     39144     39147     39148     39149
     39150     39154     39150     39151     39150     39152     39150     39153
     39154     39155     39156     39160     39156     39157     39156     39158
     39156     39159     39160     39161     39162     39166     39162     39163
     39162     39164     39162     39165     39166     39167     39168     39172
     39168     39169     39168     39170     39168     39171     39172     39173
     39174     39178     39174     39175     39174     39176     39174     39177
     39178     39179     39180     39184     39180     39181     39180     39182
     39180     39183     39184     39185     39186     39190     39186     39187
     39186     39188     39186     39189     39190     39191     39192     39196
     39192     39193     39192     39194     39192     39195     39196     39197
     39198     39202     39198     39199     39198     39200     39198     39201
     39202     39203     39204     39208     39204     39205     39204     39206
     39204     39207     39208     39209     39210     39214     39210     39211
     39210     39212     39210     39213     39214     39215     39216     39220
     39216     39217     39216     39218     39216     39219     39220     39221
     39222     39226     39222     39223     39222     39224     39222     39225
     39226     39227     39228     39232     39228     39229     39228     39230
     39228     39231     39232     39233     39234     39238     39234     39235
     39234     39236     39234     39237     39238     39239     39240     39244
     39240     39241     39240     39242     39240     39243     39244     39245
     39246     39250     39246     39247     39246     39248     39246     39249
     39250     39251     39252     39256     39252     39253     39252     39254
     39252     39255     39256     39257     39258     39262     39258     39259
     39258     39260     39258     39261     39262     39263     39264     39268
     39264     39265     39264     39266     39264     39267     39268     39269
     39270     39274     39270     39271     39270     39272     39270     39273
     39274     39275     39276     39280     39276     39277     39276     39278
     39276     39279     39280     39281     39282     39286     39282     39283
     39282     39284     39282     39285     39286     39287     39288     39292
     39288     39289     39288     39290     39288     39291     39292     39293
     39294     39298     39294     39295     39294     39296     39294     39297
     39298     39299     39300     39304     39300     39301     39300     39302
     39300     39303     39304     39305     39306     39310     39306     39307
     39306     39308     39306     39309     39310     39311     39312     39316
     39312     39313     39312     39314     39312     39315     39316     39317
     39318     39322     39318     39319     39318     39320     39318     39321
     39322     39323     39324     39328     39324     39325     39324     39326
     39324     39327     39328     39329     39330     39334     39330     39331
     39330     39332     39330     39333     39334     39335     39336     39340
     39336     39337     39336     39338     39336     39339     39340     39341
     39342     39346     39342     39343     39342     39344     39342     39345
     39346     39347     39348     39352     39348     39349     39348     39350
     39348     39351     39352     39353     39354     39358     39354     39355
     39354     39356     39354     39357     39358     39359     39360     39364
     39360     39361     39360     39362     39360     39363     39364     39365
     39366     39370     39366     39367     39366     39368     39366     39369
     39370     39371     39372     39376     39372     39373     39372     39374
     39372     39375     39376     39377     39378     39382     39378     39379
     39378     39380     39378     39381     39382     39383     39384     39388
     39384     39385     39384     39386     39384     39387     39388     39389
     39390     39394     39390     39391     39390     39392     39390     39393
     39394     39395     39396     39400     39396     39397     39396     39398
     39396     39399     39400     39401     39402     39406     39402     39403
     39402     39404     39402     39405     39406     39407     39408     39412
     39408     39409     39408     39410     39408     39411     39412     39413
     39414     39418     39414     39415     39414     39416     39414     39417
     39418     39419     39420     39424     39420     39421     39420     39422
     39420     39423     39424     39425     39426     39430     39426     39427
     39426     39428     39426     39429     39430     39431     39432     39436
     39432     39433     39432     39434     39432     39435     39436     39437
     39438     39442     39438     39439     39438     39440     39438     39441
     39442     39443     39444     39448     39444     39445     39444     39446
     39444     39447     39448     39449     39450     39454     39450     39451
     39450     39452     39450     39453     39454     39455     39456     39460
     39456     39457     39456     39458     39456     39459     39460     39461
     39462     39466     39462     39463     39462     39464     39462     39465
     39466     39467     39468     39472     39468     39469     39468     39470
     39468     39471     39472     39473     39474     39478     39474     39475
     39474     39476     39474     39477     39478     39479     39480     39484
     39480     39481     39480     39482     39480     39483     39484     39485
     39486     39490     39486     39487     39486     39488     39486     39489
     39490     39491     39492     39496     39492     39493     39492     39494
     39492     39495     39496     39497     39498     39502     39498     39499
     39498     39500     39498     39501     39502     39503     39504     39508
     39504     39505     39504     39506     39504     39507     39508     39509
     39510     39514     39510     39511     39510     39512     39510     39513
     39514     39515     39516     39520     39516     39517     39516     39518
     39516     39519     39520     39521     39522     39526     39522     39523
     39522     39524     39522     39525     39526     39527     39528     39532
     39528     39529     39528     39530     39528     39531     39532     39533
     39534     39538     39534     39535     39534     39536     39534     39537
     39538     39539     39540     39544     39540     39541     39540     39542
     39540     39543     39544     39545     39546     39550     39546     39547
     39546     39548     39546     39549     39550     39551     39552     39556
     39552     39553     39552     39554     39552     39555     39556     39557
     39558     39562     39558     39559     39558     39560     39558     39561
     39562     39563     39564     39568     39564     39565     39564     39566
     39564     39567     39568     39569     39570     39574     39570     39571
     39570     39572     39570     39573     39574     39575     39576     39580
     39576     39577     39576     39578     39576     39579     39580     39581
     39582     39586     39582     39583     39582     39584     39582     39585
     39586     39587     39588     39592     39588     39589     39588     39590
     39588     39591     39592     39593     39594     39598     39594     39595
     39594     39596     39594     39597     39598     39599     39600     39604
     39600     39601     39600     39602     39600     39603     39604     39605
     39606     39610     39606     39607     39606     39608     39606     39609
     39610     39611     39612     39616     39612     39613     39612     39614
     39612     39615     39616     39617     39618     39622     39618     39619
     39618     39620     39618     39621     39622     39623     39624     39628
     39624     39625     39624     39626     39624     39627     39628     39629
     39630     39634     39630     39631     39630     39632     39630     39633
     39634     39635     39636     39640     39636     39637     39636     39638
     39636     39639     39640     39641     39642     39646     39642     39643
     39642     39644     39642     39645     39646     39647     39648     39652
     39648     39649     39648     39650     39648     39651     39652     39653
     39654     39658     39654     39655     39654     39656     39654     39657
     39658     39659     39660     39664     39660     39661     39660     39662
     39660     39663     39664     39665     39666     39670     39666     39667
     39666     39668     39666     39669     39670     39671     39672     39676
     39672     39673     39672     39674     39672     39675     39676     39677
     39678     39682     39678     39679     39678     39680     39678     39681
     39682     39683     39684     39688     39684     39685     39684     39686
     39684     39687     39688     39689     39690     39694     39690     39691
     39690     39692     39690     39693     39694     39695     39696     39700
     39696     39697     39696     39698     39696     39699     39700     39701
     39702     39706     39702     39703     39702     39704     39702     39705
     39706     39707     39708     39712     39708     39709     39708     39710
     39708     39711     39712     39713     39714     39718     39714     39715
     39714     39716     39714     39717     39718     39719     39720     39724
     39720     39721     39720     39722     39720     39723     39724     39725
     39726     39730     39726     39727     39726     39728     39726     39729
     39730     39731     39732     39736     39732     39733     39732     39734
     39732     39735     39736     39737     39738     39742     39738     39739
     39738     39740     39738     39741     39742     39743     39744     39748
     39744     39745     39744     39746     39744     39747     39748     39749
     39750     39754     39750     39751     39750     39752     39750     39753
     39754     39755     39756     39760     39756     39757     39756     39758
     39756     39759     39760     39761     39762     39766     39762     39763
     39762     39764     39762     39765     39766     39767     39768     39772
     39768     39769     39768     39770     39768     39771     39772     39773
     39774     39778     39774     39775     39774     39776     39774     39777
     39778     39779     39780     39784     39780     39781     39780     39782
     39780     39783     39784     39785     39786     39790     39786     39787
     39786     39788     39786     39789     39790     39791     39792     39796
     39792     39793     39792     39794     39792     39795     39796     39797
     39798     39802     39798     39799     39798     39800     39798     39801
     39802     39803     39804     39808     39804     39805     39804     39806
     39804     39807     39808     39809     39810     39814     39810     39811
     39810     39812     39810     39813     39814     39815     39816     39820
     39816     39817     39816     39818     39816     39819     39820     39821
     39822     39826     39822     39823     39822     39824     39822     39825
     39826     39827     39828     39832     39828     39829     39828     39830
     39828     39831     39832     39833     39834     39838     39834     39835
     39834     39836     39834     39837     39838     39839     39840     39844
     39840     39841     39840     39842     39840     39843     39844     39845
     39846     39850     39846     39847     39846     39848     39846     39849
     39850     39851     39852     39856     39852     39853     39852     39854
     39852     39855     39856     39857     39858     39862     39858     39859
     39858     39860     39858     39861     39862     39863     39864     39868
     39864     39865     39864     39866     39864     39867     39868     39869
     39870     39874     39870     39871     39870     39872     39870     39873
     39874     39875     39876     39880     39876     39877     39876     39878
     39876     39879     39880     39881     39882     39886     39882     39883
     39882     39884     39882     39885     39886     39887     39888     39892
     39888     39889     39888     39890     39888     39891     39892     39893
     39894     39898     39894     39895     39894     39896     39894     39897
     39898     39899     39900     39904     39900     39901     39900     39902
     39900     39903     39904     39905     39906     39910     39906     39907
     39906     39908     39906     39909     39910     39911     39912     39916
     39912     39913     39912     39914     39912     39915     39916     39917
     39918     39922     39918     39919     39918     39920     39918     39921
     39922     39923     39924     39928     39924     39925     39924     39926
     39924     39927     39928     39929     39930     39934     39930     39931
     39930     39932     39930     39933     39934     39935     39936     39940
     39936     39937     39936     39938     39936     39939     39940     39941
     39942     39946     39942     39943     39942     39944     39942     39945
     39946     39947     39948     39952     39948     39949     39948     39950
     39948     39951     39952     39953     39954     39958     39954     39955
     39954     39956     39954     39957     39958     39959     39960     39964
     39960     39961     39960     39962     39960     39963     39964     39965
     39966     39970     39966     39967     39966     39968     39966     39969
     39970     39971     39972     39976     39972     39973     39972     39974
     39972     39975     39976     39977     39978     39982     39978     39979
     39978     39980     39978     39981     39982     39983     39984     39988
     39984     39985     39984     39986     39984     39987     39988     39989
     39990     39994     39990     39991     39990     39992     39990     39993
     39994     39995     39996     40000     39996     39997     39996     39998
     39996     39999     40000     40001     40002     40006     40002     40003
     40002     40004     40002     40005     40006     40007     40008     40012
     40008     40009     40008     40010     40008     40011     40012     40013
     40014     40018     40014     40015     40014     40016     40014     40017
     40018     40019     40020     40024     40020     40021     40020     40022
     40020     40023     40024     40025     40026     40030     40026     40027
     40026     40028     40026     40029     40030     40031     40032     40036
     40032     40033     40032     40034     40032     40035     40036     40037
     40038     40042     40038     40039     40038     40040     40038     40041
     40042     40043     40044     40048     40044     40045     40044     40046
     40044     40047     40048     40049     40050     40054     40050     40051
     40050     40052     40050     40053     40054     40055     40056     40060
     40056     40057     40056     40058     40056     40059     40060     40061
     40062     40066     40062     40063     40062     40064     40062     40065
     40066     40067     40068     40072     40068     40069     40068     40070
     40068     40071     40072     40073     40074     40078     40074     40075
     40074     40076     40074     40077     40078     40079     40080     40084
     40080     40081     40080     40082     40080     40083     40084     40085
     40086     40090     40086     40087     40086     40088     40086     40089
     40090     40091     40092     40096     40092     40093     40092     40094
     40092     40095     40096     40097     40098     40102     40098     40099
     40098     40100     40098     40101     40102     40103     40104     40108
     40104     40105     40104     40106     40104     40107     40108     40109
     40110     40114     40110     40111     40110     40112     40110     40113
     40114     40115     40116     40120     40116     40117     40116     40118
     40116     40119     40120     40121     40122     40126     40122     40123
     40122     40124     40122     40125     40126     40127     40128     40132
     40128     40129     40128     40130     40128     40131     40132     40133
     40134     40138     40134     40135     40134     40136     40134     40137
     40138     40139     40140     40144     40140     40141     40140     40142
     40140     40143     40144     40145     40146     40150     40146     40147
     40146     40148     40146     40149     40150     40151     40152     40156
     40152     40153     40152     40154     40152     40155     40156     40157
     40158     40162     40158     40159     40158     40160     40158     40161
     40162     40163     40164     40168     40164     40165     40164     40166
     40164     40167     40168     40169     40170     40174     40170     40171
     40170     40172     40170     40173     40174     40175     40176     40180
     40176     40177     40176     40178     40176     40179     40180     40181
     40182     40186     40182     40183     40182     40184     40182     40185
     40186     40187     40188     40192     40188     40189     40188     40190
     40188     40191     40192     40193     40194     40198     40194     40195
     40194     40196     40194     40197     40198     40199     40200     40204
     40200     40201     40200     40202     40200     40203     40204     40205
     40206     40210     40206     40207     40206     40208     40206     40209
     40210     40211     40212     40216     40212     40213     40212     40214
     40212     40215     40216     40217     40218     40222     40218     40219
     40218     40220     40218     40221     40222     40223     40224     40228
     40224     40225     40224     40226     40224     40227     40228     40229
     40230     40234     40230     40231     40230     40232     40230     40233
     40234     40235     40236     40240     40236     40237     40236     40238
     40236     40239     40240     40241     40242     40246     40242     40243
     40242     40244     40242     40245     40246     40247     40248     40252
     40248     40249     40248     40250     40248     40251     40252     40253
     40254     40258     40254     40255     40254     40256     40254     40257
     40258     40259     40260     40264     40260     40261     40260     40262
     40260     40263     40264     40265     40266     40270     40266     40267
     40266     40268     40266     40269     40270     40271     40272     40276
     40272     40273     40272     40274     40272     40275     40276     40277
     40278     40282     40278     40279     40278     40280     40278     40281
     40282     40283     40284     40288     40284     40285     40284     40286
     40284     40287     40288     40289     40290     40294     40290     40291
     40290     40292     40290     40293     40294     40295     40296     40300
     40296     40297     40296     40298     40296     40299     40300     40301
     40302     40306     40302     40303     40302     40304     40302     40305
     40306     40307     40308     40312     40308     40309     40308     40310
     40308     40311     40312     40313     40314     40318     40314     40315
     40314     40316     40314     40317     40318     40319     40320     40324
     40320     40321     40320     40322     40320     40323     40324     40325
     40326     40330     40326     40327     40326     40328     40326     40329
     40330     40331     40332     40336     40332     40333     40332     40334
     40332     40335     40336     40337     40338     40342     40338     40339
     40338     40340     40338     40341     40342     40343     40344     40348
     40344     40345     40344     40346     40344     40347     40348     40349
     40350     40354     40350     40351     40350     40352     40350     40353
     40354     40355     40356     40360     40356     40357     40356     40358
     40356     40359     40360     40361     40362     40366     40362     40363
     40362     40364     40362     40365     40366     40367     40368     40372
     40368     40369     40368     40370     40368     40371     40372     40373
     40374     40378     40374     40375     40374     40376     40374     40377
     40378     40379     40380     40384     40380     40381     40380     40382
     40380     40383     40384     40385     40386     40390     40386     40387
     40386     40388     40386     40389     40390     40391     40392     40396
     40392     40393     40392     40394     40392     40395     40396     40397
     40398     40402     40398     40399     40398     40400     40398     40401
     40402     40403     40404     40408     40404     40405     40404     40406
     40404     40407     40408     40409     40410     40414     40410     40411
     40410     40412     40410     40413     40414     40415     40416     40420
     40416     40417     40416     40418     40416     40419     40420     40421
     40422     40426     40422     40423     40422     40424     40422     40425
     40426     40427     40428     40432     40428     40429     40428     40430
     40428     40431     40432     40433     40434     40438     40434     40435
     40434     40436     40434     40437     40438     40439     40440     40444
     40440     40441     40440     40442     40440     40443     40444     40445
     40446     40450     40446     40447     40446     40448     40446     40449
     40450     40451     40452     40456     40452     40453     40452     40454
     40452     40455     40456     40457     40458     40462     40458     40459
     40458     40460     40458     40461     40462     40463     40464     40468
     40464     40465     40464     40466     40464     40467     40468     40469
     40470     40474     40470     40471     40470     40472     40470     40473
     40474     40475     40476     40480     40476     40477     40476     40478
     40476     40479     40480     40481     40482     40486     40482     40483
     40482     40484     40482     40485     40486     40487     40488     40492
     40488     40489     40488     40490     40488     40491     40492     40493
     40494     40498     40494     40495     40494     40496     40494     40497
     40498     40499     40500     40504     40500     40501     40500     40502
     40500     40503     40504     40505     40506     40510     40506     40507
     40506     40508     40506     40509     40510     40511     40512     40516
     40512     40513     40512     40514     40512     40515     40516     40517
     40518     40522     40518     40519     40518     40520     40518     40521
     40522     40523     40524     40528     40524     40525     40524     40526
     40524     40527     40528     40529     40530     40534     40530     40531
     40530     40532     40530     40533     40534     40535     40536     40540
     40536     40537     40536     40538     40536     40539     40540     40541
     40542     40546     40542     40543     40542     40544     40542     40545
     40546     40547     40548     40552     40548     40549     40548     40550
     40548     40551     40552     40553     40554     40558     40554     40555
     40554     40556     40554     40557     40558     40559     40560     40564
     40560     40561     40560     40562     40560     40563     40564     40565
     40566     40570     40566     40567     40566     40568     40566     40569
     40570     40571     40572     40576     40572     40573     40572     40574
     40572     40575     40576     40577     40578     40582     40578     40579
     40578     40580     40578     40581     40582     40583     40584     40588
     40584     40585     40584     40586     40584     40587     40588     40589
     40590     40594     40590     40591     40590     40592     40590     40593
     40594     40595     40596     40600     40596     40597     40596     40598
     40596     40599     40600     40601     40602     40606     40602     40603
     40602     40604     40602     40605     40606     40607     40608     40612
     40608     40609     40608     40610     40608     40611     40612     40613
     40614     40618     40614     40615     40614     40616     40614     40617
     40618     40619     40620     40624     40620     40621     40620     40622
     40620     40623     40624     40625     40626     40630     40626     40627
     40626     40628     40626     40629     40630     40631     40632     40636
     40632     40633     40632     40634     40632     40635     40636     40637
     40638     40642     40638     40639     40638     40640     40638     40641
     40642     40643     40644     40648     40644     40645     40644     40646
     40644     40647     40648     40649     40650     40654     40650     40651
     40650     40652     40650     40653     40654     40655     40656     40660
     40656     40657     40656     40658     40656     40659     40660     40661
     40662     40666     40662     40663     40662     40664     40662     40665
     40666     40667     40668     40672     40668     40669     40668     40670
     40668     40671     40672     40673     40674     40678     40674     40675
     40674     40676     40674     40677     40678     40679     40680     40684
     40680     40681     40680     40682     40680     40683     40684     40685
     40686     40690     40686     40687     40686     40688     40686     40689
     40690     40691     40692     40696     40692     40693     40692     40694
     40692     40695     40696     40697     40698     40702     40698     40699
     40698     40700     40698     40701     40702     40703     40704     40708
     40704     40705     40704     40706     40704     40707     40708     40709
     40710     40714     40710     40711     40710     40712     40710     40713
     40714     40715     40716     40720     40716     40717     40716     40718
     40716     40719     40720     40721     40722     40726     40722     40723
     40722     40724     40722     40725     40726     40727     40728     40732
     40728     40729     40728     40730     40728     40731     40732     40733
     40734     40738     40734     40735     40734     40736     40734     40737
     40738     40739     40740     40744     40740     40741     40740     40742
     40740     40743     40744     40745     40746     40750     40746     40747
     40746     40748     40746     40749     40750     40751     40752     40756
     40752     40753     40752     40754     40752     40755     40756     40757
     40758     40762     40758     40759     40758     40760     40758     40761
     40762     40763     40764     40768     40764     40765     40764     40766
     40764     40767     40768     40769     40770     40774     40770     40771
     40770     40772     40770     40773     40774     40775     40776     40780
     40776     40777     40776     40778     40776     40779     40780     40781
     40782     40786     40782     40783     40782     40784     40782     40785
     40786     40787     40788     40792     40788     40789     40788     40790
     40788     40791     40792     40793     40794     40798     40794     40795
     40794     40796     40794     40797     40798     40799     40800     40804
     40800     40801     40800     40802     40800     40803     40804     40805
     40806     40810     40806     40807     40806     40808     40806     40809
     40810     40811     40812     40816     40812     40813     40812     40814
     40812     40815     40816     40817     40818     40822     40818     40819
     40818     40820     40818     40821     40822     40823     40824     40828
     40824     40825     40824     40826     40824     40827     40828     40829
     40830     40834     40830     40831     40830     40832     40830     40833
     40834     40835     40836     40840     40836     40837     40836     40838
     40836     40839     40840     40841     40842     40846     40842     40843
     40842     40844     40842     40845     40846     40847     40848     40852
     40848     40849     40848     40850     40848     40851     40852     40853
     40854     40858     40854     40855     40854     40856     40854     40857
     40858     40859     40860     40864     40860     40861     40860     40862
     40860     40863     40864     40865     40866     40870     40866     40867
     40866     40868     40866     40869     40870     40871     40872     40876
     40872     40873     40872     40874     40872     40875     40876     40877
     40878     40882     40878     40879     40878     40880     40878     40881
     40882     40883     40884     40888     40884     40885     40884     40886
     40884     40887     40888     40889     40890     40894     40890     40891
     40890     40892     40890     40893     40894     40895     40896     40900
     40896     40897     40896     40898     40896     40899     40900     40901
     40902     40906     40902     40903     40902     40904     40902     40905
     40906     40907     40908     40912     40908     40909     40908     40910
     40908     40911     40912     40913     40914     40918     40914     40915
     40914     40916     40914     40917     40918     40919     40920     40924
     40920     40921     40920     40922     40920     40923     40924     40925
     40926     40930     40926     40927     40926     40928     40926     40929
     40930     40931     40932     40936     40932     40933     40932     40934
     40932     40935     40936     40937     40938     40942     40938     40939
     40938     40940     40938     40941     40942     40943     40944     40948
     40944     40945     40944     40946     40944     40947     40948     40949
     40950     40954     40950     40951     40950     40952     40950     40953
     40954     40955     40956     40960     40956     40957     40956     40958
     40956     40959     40960     40961     40962     40966     40962     40963
     40962     40964     40962     40965     40966     40967     40968     40972
     40968     40969     40968     40970     40968     40971     40972     40973
     40974     40978     40974     40975     40974     40976     40974     40977
     40978     40979     40980     40984     40980     40981     40980     40982
     40980     40983     40984     40985     40986     40990     40986     40987
     40986     40988     40986     40989     40990     40991     40992     40996
     40992     40993     40992     40994     40992     40995     40996     40997
     40998     41002     40998     40999     40998     41000     40998     41001
     41002     41003     41004     41008     41004     41005     41004     41006
     41004     41007     41008     41009     41010     41014     41010     41011
     41010     41012     41010     41013     41014     41015     41016     41020
     41016     41017     41016     41018     41016     41019     41020     41021
     41022     41026     41022     41023     41022     41024     41022     41025
     41026     41027     41028     41032     41028     41029     41028     41030
     41028     41031     41032     41033     41034     41038     41034     41035
     41034     41036     41034     41037     41038     41039     41040     41044
     41040     41041     41040     41042     41040     41043     41044     41045
     41046     41050     41046     41047     41046     41048     41046     41049
     41050     41051     41052     41056     41052     41053     41052     41054
     41052     41055     41056     41057     41058     41062     41058     41059
     41058     41060     41058     41061     41062     41063     41064     41068
     41064     41065     41064     41066     41064     41067     41068     41069
     41070     41074     41070     41071     41070     41072     41070     41073
     41074     41075     41076     41080     41076     41077     41076     41078
     41076     41079     41080     41081     41082     41086     41082     41083
     41082     41084     41082     41085     41086     41087     41088     41092
     41088     41089     41088     41090     41088     41091     41092     41093
     41094     41098     41094     41095     41094     41096     41094     41097
     41098     41099     41100     41104     41100     41101     41100     41102
     41100     41103     41104     41105     41106     41110     41106     41107
     41106     41108     41106     41109     41110     41111     41112     41116
     41112     41113     41112     41114     41112     41115     41116     41117
     41118     41122     41118     41119     41118     41120     41118     41121
     41122     41123     41124     41128     41124     41125     41124     41126
     41124     41127     41128     41129     41130     41134     41130     41131
     41130     41132     41130     41133     41134     41135     41136     41140
     41136     41137     41136     41138     41136     41139     41140     41141
     41142     41146     41142     41143     41142     41144     41142     41145
     41146     41147     41148     41152     41148     41149     41148     41150
     41148     41151     41152     41153     41154     41158     41154     41155
     41154     41156     41154     41157     41158     41159     41160     41164
     41160     41161     41160     41162     41160     41163     41164     41165
     41166     41170     41166     41167     41166     41168     41166     41169
     41170     41171     41172     41176     41172     41173     41172     41174
     41172     41175     41176     41177     41178     41182     41178     41179
     41178     41180     41178     41181     41182     41183     41184     41188
     41184     41185     41184     41186     41184     41187     41188     41189
     41190     41194     41190     41191     41190     41192     41190     41193
     41194     41195     41196     41200     41196     41197     41196     41198
     41196     41199     41200     41201     41202     41206     41202     41203
     41202     41204     41202     41205     41206     41207     41208     41212
     41208     41209     41208     41210     41208     41211     41212     41213
     41214     41218     41214     41215     41214     41216     41214     41217
     41218     41219     41220     41224     41220     41221     41220     41222
     41220     41223     41224     41225     41226     41230     41226     41227
     41226     41228     41226     41229     41230     41231     41232     41236
     41232     41233     41232     41234     41232     41235     41236     41237
     41238     41242     41238     41239     41238     41240     41238     41241
     41242     41243     41244     41248     41244     41245     41244     41246
     41244     41247     41248     41249     41250     41254     41250     41251
     41250     41252     41250     41253     41254     41255     41256     41260
     41256     41257     41256     41258     41256     41259     41260     41261
     41262     41266     41262     41263     41262     41264     41262     41265
     41266     41267     41268     41272     41268     41269     41268     41270
     41268     41271     41272     41273     41274     41278     41274     41275
     41274     41276     41274     41277     41278     41279     41280     41284
     41280     41281     41280     41282     41280     41283     41284     41285
     41286     41290     41286     41287     41286     41288     41286     41289
     41290     41291     41292     41296     41292     41293     41292     41294
     41292     41295     41296     41297     41298     41302     41298     41299
     41298     41300     41298     41301     41302     41303     41304     41308
     41304     41305     41304     41306     41304     41307     41308     41309
     41310     41314     41310     41311     41310     41312     41310     41313
     41314     41315     41316     41320     41316     41317     41316     41318
     41316     41319     41320     41321     41322     41326     41322     41323
     41322     41324     41322     41325     41326     41327     41328     41332
     41328     41329     41328     41330     41328     41331     41332     41333
     41334     41338     41334     41335     41334     41336     41334     41337
     41338     41339     41340     41344     41340     41341     41340     41342
     41340     41343     41344     41345     41346     41350     41346     41347
     41346     41348     41346     41349     41350     41351     41352     41356
     41352     41353     41352     41354     41352     41355     41356     41357
     41358     41362     41358     41359     41358     41360     41358     41361
     41362     41363     41364     41368     41364     41365     41364     41366
     41364     41367     41368     41369     41370     41374     41370     41371
     41370     41372     41370     41373     41374     41375     41376     41380
     41376     41377     41376     41378     41376     41379     41380     41381
     41382     41386     41382     41383     41382     41384     41382     41385
     41386     41387     41388     41392     41388     41389     41388     41390
     41388     41391     41392     41393     41394     41398     41394     41395
     41394     41396     41394     41397     41398     41399     41400     41404
     41400     41401     41400     41402     41400     41403     41404     41405
     41406     41410     41406     41407     41406     41408     41406     41409
     41410     41411     41412     41416     41412     41413     41412     41414
     41412     41415     41416     41417     41418     41422     41418     41419
     41418     41420     41418     41421     41422     41423     41424     41428
     41424     41425     41424     41426     41424     41427     41428     41429
     41430     41434     41430     41431     41430     41432     41430     41433
     41434     41435     41436     41440     41436     41437     41436     41438
     41436     41439     41440     41441     41442     41446     41442     41443
     41442     41444     41442     41445     41446     41447     41448     41452
     41448     41449     41448     41450     41448     41451     41452     41453
     41454     41458     41454     41455     41454     41456     41454     41457
     41458     41459     41460     41464     41460     41461     41460     41462
     41460     41463     41464     41465     41466     41470     41466     41467
     41466     41468     41466     41469     41470     41471     41472     41476
     41472     41473     41472     41474     41472     41475     41476     41477
     41478     41482     41478     41479     41478     41480     41478     41481
     41482     41483     41484     41488     41484     41485     41484     41486
     41484     41487     41488     41489     41490     41494     41490     41491
     41490     41492     41490     41493     41494     41495     41496     41500
     41496     41497     41496     41498     41496     41499     41500     41501
     41502     41506     41502     41503     41502     41504     41502     41505
     41506     41507     41508     41512     41508     41509     41508     41510
     41508     41511     41512     41513     41514     41518     41514     41515
     41514     41516     41514     41517     41518     41519     41520     41524
     41520     41521     41520     41522     41520     41523     41524     41525
     41526     41530     41526     41527     41526     41528     41526     41529
     41530     41531     41532     41536     41532     41533     41532     41534
     41532     41535     41536     41537     41538     41542     41538     41539
     41538     41540     41538     41541     41542     41543     41544     41548
     41544     41545     41544     41546     41544     41547     41548     41549
     41550     41554     41550     41551     41550     41552     41550     41553
     41554     41555     41556     41560     41556     41557     41556     41558
     41556     41559     41560     41561     41562     41566     41562     41563
     41562     41564     41562     41565     41566     41567     41568     41572
     41568     41569     41568     41570     41568     41571     41572     41573
     41574     41578     41574     41575     41574     41576     41574     41577
     41578     41579     41580     41584     41580     41581     41580     41582
     41580     41583     41584     41585     41586     41590     41586     41587
     41586     41588     41586     41589     41590     41591     41592     41596
     41592     41593     41592     41594     41592     41595     41596     41597
     41598     41602     41598     41599     41598     41600     41598     41601
     41602     41603     41604     41608     41604     41605     41604     41606
     41604     41607     41608     41609     41610     41614     41610     41611
     41610     41612     41610     41613     41614     41615     41616     41620
     41616     41617     41616     41618     41616     41619     41620     41621
     41622     41626     41622     41623     41622     41624     41622     41625
     41626     41627     41628     41632     41628     41629     41628     41630
     41628     41631     41632     41633     41634     41638     41634     41635
     41634     41636     41634     41637     41638     41639     41640     41644
     41640     41641     41640     41642     41640     41643     41644     41645
     41646     41650     41646     41647     41646     41648     41646     41649
     41650     41651     41652     41656     41652     41653     41652     41654
     41652     41655     41656     41657     41658     41662     41658     41659
     41658     41660     41658     41661     41662     41663     41664     41668
     41664     41665     41664     41666     41664     41667     41668     41669
     41670     41674     41670     41671     41670     41672     41670     41673
     41674     41675     41676     41680     41676     41677     41676     41678
     41676     41679     41680     41681     41682     41686     41682     41683
     41682     41684     41682     41685     41686     41687     41688     41692
     41688     41689     41688     41690     41688     41691     41692     41693
     41694     41698     41694     41695     41694     41696     41694     41697
     41698     41699     41700     41704     41700     41701     41700     41702
     41700     41703     41704     41705     41706     41710     41706     41707
     41706     41708     41706     41709     41710     41711     41712     41716
     41712     41713     41712     41714     41712     41715     41716     41717
     41718     41722     41718     41719     41718     41720     41718     41721
     41722     41723     41724     41728     41724     41725     41724     41726
     41724     41727     41728     41729     41730     41734     41730     41731
     41730     41732     41730     41733     41734     41735     41736     41740
     41736     41737     41736     41738     41736     41739     41740     41741
     41742     41746     41742     41743     41742     41744     41742     41745
     41746     41747     41748     41752     41748     41749     41748     41750
     41748     41751     41752     41753     41754     41758     41754     41755
     41754     41756     41754     41757     41758     41759     41760     41764
     41760     41761     41760     41762     41760     41763     41764     41765
     41766     41770     41766     41767     41766     41768     41766     41769
     41770     41771     41772     41776     41772     41773     41772     41774
     41772     41775     41776     41777     41778     41782     41778     41779
     41778     41780     41778     41781     41782     41783     41784     41788
     41784     41785     41784     41786     41784     41787     41788     41789
     41790     41794     41790     41791     41790     41792     41790     41793
     41794     41795     41796     41800     41796     41797     41796     41798
     41796     41799     41800     41801     41802     41806     41802     41803
     41802     41804     41802     41805     41806     41807     41808     41812
     41808     41809     41808     41810     41808     41811     41812     41813
     41814     41818     41814     41815     41814     41816     41814     41817
     41818     41819     41820     41824     41820     41821     41820     41822
     41820     41823     41824     41825     41826     41830     41826     41827
     41826     41828     41826     41829     41830     41831     41832     41836
     41832     41833     41832     41834     41832     41835     41836     41837
     41838     41842     41838     41839     41838     41840     41838     41841
     41842     41843     41844     41848     41844     41845     41844     41846
     41844     41847     41848     41849     41850     41854     41850     41851
     41850     41852     41850     41853     41854     41855     41856     41860
     41856     41857     41856     41858     41856     41859     41860     41861
     41862     41866     41862     41863     41862     41864     41862     41865
     41866     41867     41868     41872     41868     41869     41868     41870
     41868     41871     41872     41873     41874     41878     41874     41875
     41874     41876     41874     41877     41878     41879     41880     41884
     41880     41881     41880     41882     41880     41883     41884     41885
     41886     41890     41886     41887     41886     41888     41886     41889
     41890     41891     41892     41896     41892     41893     41892     41894
     41892     41895     41896     41897     41898     41902     41898     41899
     41898     41900     41898     41901     41902     41903     41904     41908
     41904     41905     41904     41906     41904     41907     41908     41909
     41910     41914     41910     41911     41910     41912     41910     41913
     41914     41915     41916     41920     41916     41917     41916     41918
     41916     41919     41920     41921     41922     41926     41922     41923
     41922     41924     41922     41925     41926     41927     41928     41932
     41928     41929     41928     41930     41928     41931     41932     41933
     41934     41938     41934     41935     41934     41936     41934     41937
     41938     41939     41940     41944     41940     41941     41940     41942
     41940     41943     41944     41945     41946     41950     41946     41947
     41946     41948     41946     41949     41950     41951     41952     41956
     41952     41953     41952     41954     41952     41955     41956     41957
     41958     41962     41958     41959     41958     41960     41958     41961
     41962     41963     41964     41968     41964     41965     41964     41966
     41964     41967     41968     41969     41970     41974     41970     41971
     41970     41972     41970     41973     41974     41975     41976     41980
     41976     41977     41976     41978     41976     41979     41980     41981
     41982     41986     41982     41983     41982     41984     41982     41985
     41986     41987     41988     41992     41988     41989     41988     41990
     41988     41991     41992     41993     41994     41998     41994     41995
     41994     41996     41994     41997     41998     41999     42000     42004
     42000     42001     42000     42002     42000     42003     42004     42005
     42006     42010     42006     42007     42006     42008     42006     42009
     42010     42011     42012     42016     42012     42013     42012     42014
     42012     42015     42016     42017     42018     42022     42018     42019
     42018     42020     42018     42021     42022     42023     42024     42028
     42024     42025     42024     42026     42024     42027     42028     42029
     42030     42034     42030     42031     42030     42032     42030     42033
     42034     42035     42036     42040     42036     42037     42036     42038
     42036     42039     42040     42041     42042     42046     42042     42043
     42042     42044     42042     42045     42046     42047     42048     42052
     42048     42049     42048     42050     42048     42051     42052     42053
     42054     42058     42054     42055     42054     42056     42054     42057
     42058     42059     42060     42064     42060     42061     42060     42062
     42060     42063     42064     42065     42066     42070     42066     42067
     42066     42068     42066     42069     42070     42071     42072     42076
     42072     42073     42072     42074     42072     42075     42076     42077
     42078     42082     42078     42079     42078     42080     42078     42081
     42082     42083     42084     42088     42084     42085     42084     42086
     42084     42087     42088     42089     42090     42094     42090     42091
     42090     42092     42090     42093     42094     42095     42096     42100
     42096     42097     42096     42098     42096     42099     42100     42101
     42102     42106     42102     42103     42102     42104     42102     42105
     42106     42107     42108     42112     42108     42109     42108     42110
     42108     42111     42112     42113     42114     42118     42114     42115
     42114     42116     42114     42117     42118     42119     42120     42124
     42120     42121     42120     42122     42120     42123     42124     42125
     42126     42130     42126     42127     42126     42128     42126     42129
     42130     42131     42132     42136     42132     42133     42132     42134
     42132     42135     42136     42137     42138     42142     42138     42139
     42138     42140     42138     42141     42142     42143     42144     42148
     42144     42145     42144     42146     42144     42147     42148     42149
     42150     42154     42150     42151     42150     42152     42150     42153
     42154     42155     42156     42160     42156     42157     42156     42158
     42156     42159     42160     42161     42162     42166     42162     42163
     42162     42164     42162     42165     42166     42167     42168     42172
     42168     42169     42168     42170     42168     42171     42172     42173
     42174     42178     42174     42175     42174     42176     42174     42177
     42178     42179     42180     42184     42180     42181     42180     42182
     42180     42183     42184     42185     42186     42190     42186     42187
     42186     42188     42186     42189     42190     42191     42192     42196
     42192     42193     42192     42194     42192     42195     42196     42197
     42198     42202     42198     42199     42198     42200     42198     42201
     42202     42203     42204     42208     42204     42205     42204     42206
     42204     42207     42208     42209     42210     42214     42210     42211
     42210     42212     42210     42213     42214     42215     42216     42220
     42216     42217     42216     42218     42216     42219     42220     42221
     42222     42226     42222     42223     42222     42224     42222     42225
     42226     42227     42228     42232     42228     42229     42228     42230
     42228     42231     42232     42233     42234     42238     42234     42235
     42234     42236     42234     42237     42238     42239     42240     42244
     42240     42241     42240     42242     42240     42243     42244     42245
     42246     42250     42246     42247     42246     42248     42246     42249
     42250     42251     42252     42256     42252     42253     42252     42254
     42252     42255     42256     42257     42258     42262     42258     42259
     42258     42260     42258     42261     42262     42263     42264     42268
     42264     42265     42264     42266     42264     42267     42268     42269
     42270     42274     42270     42271     42270     42272     42270     42273
     42274     42275     42276     42280     42276     42277     42276     42278
     42276     42279     42280     42281     42282     42286     42282     42283
     42282     42284     42282     42285     42286     42287     42288     42292
     42288     42289     42288     42290     42288     42291     42292     42293
     42294     42298     42294     42295     42294     42296     42294     42297
     42298     42299     42300     42304     42300     42301     42300     42302
     42300     42303     42304     42305     42306     42310     42306     42307
     42306     42308     42306     42309     42310     42311     42312     42316
     42312     42313     42312     42314     42312     42315     42316     42317
     42318     42322     42318     42319     42318     42320     42318     42321
     42322     42323     42324     42328     42324     42325     42324     42326
     42324     42327     42328     42329     42330     42334     42330     42331
     42330     42332     42330     42333     42334     42335     42336     42340
     42336     42337     42336     42338     42336     42339     42340     42341
     42342     42346     42342     42343     42342     42344     42342     42345
     42346     42347     42348     42352     42348     42349     42348     42350
     42348     42351     42352     42353     42354     42358     42354     42355
     42354     42356     42354     42357     42358     42359     42360     42364
     42360     42361     42360     42362     42360     42363     42364     42365
     42366     42370     42366     42367     42366     42368     42366     42369
     42370     42371     42372     42376     42372     42373     42372     42374
     42372     42375     42376     42377     42378     42382     42378     42379
     42378     42380     42378     42381     42382     42383     42384     42388
     42384     42385     42384     42386     42384     42387     42388     42389
     42390     42394     42390     42391     42390     42392     42390     42393
     42394     42395     42396     42400     42396     42397     42396     42398
     42396     42399     42400     42401     42402     42406     42402     42403
     42402     42404     42402     42405     42406     42407     42408     42412
     42408     42409     42408     42410     42408     42411     42412     42413
     42414     42418     42414     42415     42414     42416     42414     42417
     42418     42419     42420     42424     42420     42421     42420     42422
     42420     42423     42424     42425     42426     42430     42426     42427
     42426     42428     42426     42429     42430     42431     42432     42436
     42432     42433     42432     42434     42432     42435     42436     42437
     42438     42442     42438     42439     42438     42440     42438     42441
     42442     42443     42444     42448     42444     42445     42444     42446
     42444     42447     42448     42449     42450     42454     42450     42451
     42450     42452     42450     42453     42454     42455     42456     42460
     42456     42457     42456     42458     42456     42459     42460     42461
     42462     42466     42462     42463     42462     42464     42462     42465
     42466     42467     42468     42472     42468     42469     42468     42470
     42468     42471     42472     42473     42474     42478     42474     42475
     42474     42476     42474     42477     42478     42479     42480     42484
     42480     42481     42480     42482     42480     42483     42484     42485
     42486     42490     42486     42487     42486     42488     42486     42489
     42490     42491     42492     42496     42492     42493     42492     42494
     42492     42495     42496     42497     42498     42502     42498     42499
     42498     42500     42498     42501     42502     42503     42504     42508
     42504     42505     42504     42506     42504     42507     42508     42509
     42510     42514     42510     42511     42510     42512     42510     42513
     42514     42515     42516     42520     42516     42517     42516     42518
     42516     42519     42520     42521     42522     42526     42522     42523
     42522     42524     42522     42525     42526     42527     42528     42532
     42528     42529     42528     42530     42528     42531     42532     42533
     42534     42538     42534     42535     42534     42536     42534     42537
     42538     42539     42540     42544     42540     42541     42540     42542
     42540     42543     42544     42545     42546     42550     42546     42547
     42546     42548     42546     42549     42550     42551     42552     42556
     42552     42553     42552     42554     42552     42555     42556     42557
     42558     42562     42558     42559     42558     42560     42558     42561
     42562     42563     42564     42568     42564     42565     42564     42566
     42564     42567     42568     42569     42570     42574     42570     42571
     42570     42572     42570     42573     42574     42575     42576     42580
     42576     42577     42576     42578     42576     42579     42580     42581
     42582     42586     42582     42583     42582     42584     42582     42585
     42586     42587     42588     42592     42588     42589     42588     42590
     42588     42591     42592     42593     42594     42598     42594     42595
     42594     42596     42594     42597     42598     42599     42600     42604
     42600     42601     42600     42602     42600     42603     42604     42605
     42606     42610     42606     42607     42606     42608     42606     42609
     42610     42611     42612     42616     42612     42613     42612     42614
     42612     42615     42616     42617     42618     42622     42618     42619
     42618     42620     42618     42621     42622     42623     42624     42628
     42624     42625     42624     42626     42624     42627     42628     42629
     42630     42634     42630     42631     42630     42632     42630     42633
     42634     42635     42636     42640     42636     42637     42636     42638
     42636     42639     42640     42641     42642     42646     42642     42643
     42642     42644     42642     42645     42646     42647     42648     42652
     42648     42649     42648     42650     42648     42651     42652     42653
     42654     42658     42654     42655     42654     42656     42654     42657
     42658     42659     42660     42664     42660     42661     42660     42662
     42660     42663     42664     42665     42666     42670     42666     42667
     42666     42668     42666     42669     42670     42671     42672     42676
     42672     42673     42672     42674     42672     42675     42676     42677
     42678     42682     42678     42679     42678     42680     42678     42681
     42682     42683     42684     42688     42684     42685     42684     42686
     42684     42687     42688     42689     42690     42694     42690     42691
     42690     42692     42690     42693     42694     42695     42696     42700
     42696     42697     42696     42698     42696     42699     42700     42701
     42702     42706     42702     42703     42702     42704     42702     42705
     42706     42707     42708     42712     42708     42709     42708     42710
     42708     42711     42712     42713     42714     42718     42714     42715
     42714     42716     42714     42717     42718     42719     42720     42724
     42720     42721     42720     42722     42720     42723     42724     42725
     42726     42730     42726     42727     42726     42728     42726     42729
     42730     42731     42732     42736     42732     42733     42732     42734
     42732     42735     42736     42737     42738     42742     42738     42739
     42738     42740     42738     42741     42742     42743     42744     42748
     42744     42745     42744     42746     42744     42747     42748     42749
     42750     42754     42750     42751     42750     42752     42750     42753
     42754     42755     42756     42760     42756     42757     42756     42758
     42756     42759     42760     42761     42762     42766     42762     42763
     42762     42764     42762     42765     42766     42767     42768     42772
     42768     42769     42768     42770     42768     42771     42772     42773
     42774     42778     42774     42775     42774     42776     42774     42777
     42778     42779     42780     42784     42780     42781     42780     42782
     42780     42783     42784     42785     42786     42790     42786     42787
     42786     42788     42786     42789     42790     42791     42792     42796
     42792     42793     42792     42794     42792     42795     42796     42797
     42798     42802     42798     42799     42798     42800     42798     42801
     42802     42803     42804     42808     42804     42805     42804     42806
     42804     42807     42808     42809     42810     42814     42810     42811
     42810     42812     42810     42813     42814     42815     42816     42820
     42816     42817     42816     42818     42816     42819     42820     42821
     42822     42826     42822     42823     42822     42824     42822     42825
     42826     42827     42828     42832     42828     42829     42828     42830
     42828     42831     42832     42833     42834     42838     42834     42835
     42834     42836     42834     42837     42838     42839     42840     42844
     42840     42841     42840     42842     42840     42843     42844     42845
     42846     42850     42846     42847     42846     42848     42846     42849
     42850     42851     42852     42856     42852     42853     42852     42854
     42852     42855     42856     42857     42858     42862     42858     42859
     42858     42860     42858     42861     42862     42863     42864     42868
     42864     42865     42864     42866     42864     42867     42868     42869
     42870     42874     42870     42871     42870     42872     42870     42873
     42874     42875     42876     42880     42876     42877     42876     42878
     42876     42879     42880     42881     42882     42886     42882     42883
     42882     42884     42882     42885     42886     42887     42888     42892
     42888     42889     42888     42890     42888     42891     42892     42893
     42894     42898     42894     42895     42894     42896     42894     42897
     42898     42899     42900     42904     42900     42901     42900     42902
     42900     42903     42904     42905     42906     42910     42906     42907
     42906     42908     42906     42909     42910     42911     42912     42916
     42912     42913     42912     42914     42912     42915     42916     42917
     42918     42922     42918     42919     42918     42920     42918     42921
     42922     42923     42924     42928     42924     42925     42924     42926
     42924     42927     42928     42929     42930     42934     42930     42931
     42930     42932     42930     42933     42934     42935     42936     42940
     42936     42937     42936     42938     42936     42939     42940     42941
     42942     42946     42942     42943     42942     42944     42942     42945
     42946     42947     42948     42952     42948     42949     42948     42950
     42948     42951     42952     42953     42954     42958     42954     42955
     42954     42956     42954     42957     42958     42959     42960     42964
     42960     42961     42960     42962     42960     42963     42964     42965
     42966     42970     42966     42967     42966     42968     42966     42969
     42970     42971     42972     42976     42972     42973     42972     42974
     42972     42975     42976     42977     42978     42982     42978     42979
     42978     42980     42978     42981     42982     42983     42984     42988
     42984     42985     42984     42986     42984     42987     42988     42989
     42990     42994     42990     42991     42990     42992     42990     42993
     42994     42995     42996     43000     42996     42997     42996     42998
     42996     42999     43000     43001     43002     43006     43002     43003
     43002     43004     43002     43005     43006     43007     43008     43012
     43008     43009     43008     43010     43008     43011     43012     43013
     43014     43018     43014     43015     43014     43016     43014     43017
     43018     43019     43020     43024     43020     43021     43020     43022
     43020     43023     43024     43025     43026     43030     43026     43027
     43026     43028     43026     43029     43030     43031     43032     43036
     43032     43033     43032     43034     43032     43035     43036     43037
     43038     43042     43038     43039     43038     43040     43038     43041
     43042     43043     43044     43048     43044     43045     43044     43046
     43044     43047     43048     43049     43050     43054     43050     43051
     43050     43052     43050     43053     43054     43055     43056     43060
     43056     43057     43056     43058     43056     43059     43060     43061
     43062     43066     43062     43063     43062     43064     43062     43065
     43066     43067     43068     43072     43068     43069     43068     43070
     43068     43071     43072     43073     43074     43078     43074     43075
     43074     43076     43074     43077     43078     43079     43080     43084
     43080     43081     43080     43082     43080     43083     43084     43085
     43086     43090     43086     43087     43086     43088     43086     43089
     43090     43091     43092     43096     43092     43093     43092     43094
     43092     43095     43096     43097     43098     43102     43098     43099
     43098     43100     43098     43101     43102     43103     43104     43108
     43104     43105     43104     43106     43104     43107     43108     43109
     43110     43114     43110     43111     43110     43112     43110     43113
     43114     43115     43116     43120     43116     43117     43116     43118
     43116     43119     43120     43121     43122     43126     43122     43123
     43122     43124     43122     43125     43126     43127     43128     43132
     43128     43129     43128     43130     43128     43131     43132     43133
     43134     43138     43134     43135     43134     43136     43134     43137
     43138     43139     43140     43144     43140     43141     43140     43142
     43140     43143     43144     43145     43146     43150     43146     43147
     43146     43148     43146     43149     43150     43151     43152     43156
     43152     43153     43152     43154     43152     43155     43156     43157
     43158     43162     43158     43159     43158     43160     43158     43161
     43162     43163     43164     43168     43164     43165     43164     43166
     43164     43167     43168     43169     43170     43174     43170     43171
     43170     43172     43170     43173     43174     43175     43176     43180
     43176     43177     43176     43178     43176     43179     43180     43181
     43182     43186     43182     43183     43182     43184     43182     43185
     43186     43187     43188     43192     43188     43189     43188     43190
     43188     43191     43192     43193     43194     43198     43194     43195
     43194     43196     43194     43197     43198     43199     43200     43204
     43200     43201     43200     43202     43200     43203     43204     43205
     43206     43210     43206     43207     43206     43208     43206     43209
     43210     43211     43212     43216     43212     43213     43212     43214
     43212     43215     43216     43217     43218     43222     43218     43219
     43218     43220     43218     43221     43222     43223     43224     43228
     43224     43225     43224     43226     43224     43227     43228     43229
     43230     43234     43230     43231     43230     43232     43230     43233
     43234     43235     43236     43240     43236     43237     43236     43238
     43236     43239     43240     43241     43242     43246     43242     43243
     43242     43244     43242     43245     43246     43247     43248     43252
     43248     43249     43248     43250     43248     43251     43252     43253
     43254     43258     43254     43255     43254     43256     43254     43257
     43258     43259     43260     43264     43260     43261     43260     43262
     43260     43263     43264     43265     43266     43270     43266     43267
     43266     43268     43266     43269     43270     43271     43272     43276
     43272     43273     43272     43274     43272     43275     43276     43277
     43278     43282     43278     43279     43278     43280     43278     43281
     43282     43283     43284     43288     43284     43285     43284     43286
     43284     43287     43288     43289     43290     43294     43290     43291
     43290     43292     43290     43293     43294     43295     43296     43300
     43296     43297     43296     43298     43296     43299     43300     43301
     43302     43306     43302     43303     43302     43304     43302     43305
     43306     43307     43308     43312     43308     43309     43308     43310
     43308     43311     43312     43313     43314     43318     43314     43315
     43314     43316     43314     43317     43318     43319     43320     43324
     43320     43321     43320     43322     43320     43323     43324     43325
     43326     43330     43326     43327     43326     43328     43326     43329
     43330     43331     43332     43336     43332     43333     43332     43334
     43332     43335     43336     43337     43338     43342     43338     43339
     43338     43340     43338     43341     43342     43343     43344     43348
     43344     43345     43344     43346     43344     43347     43348     43349
     43350     43354     43350     43351     43350     43352     43350     43353
     43354     43355     43356     43360     43356     43357     43356     43358
     43356     43359     43360     43361     43362     43366     43362     43363
     43362     43364     43362     43365     43366     43367     43368     43372
     43368     43369     43368     43370     43368     43371     43372     43373
     43374     43378     43374     43375     43374     43376     43374     43377
     43378     43379     43380     43384     43380     43381     43380     43382
     43380     43383     43384     43385     43386     43390     43386     43387
     43386     43388     43386     43389     43390     43391     43392     43396
     43392     43393     43392     43394     43392     43395     43396     43397
     43398     43402     43398     43399     43398     43400     43398     43401
     43402     43403     43404     43408     43404     43405     43404     43406
     43404     43407     43408     43409     43410     43414     43410     43411
     43410     43412     43410     43413     43414     43415     43416     43420
     43416     43417     43416     43418     43416     43419     43420     43421
     43422     43426     43422     43423     43422     43424     43422     43425
     43426     43427     43428     43432     43428     43429     43428     43430
     43428     43431     43432     43433     43434     43438     43434     43435
     43434     43436     43434     43437     43438     43439     43440     43444
     43440     43441     43440     43442     43440     43443     43444     43445
     43446     43450     43446     43447     43446     43448     43446     43449
     43450     43451     43452     43456     43452     43453     43452     43454
     43452     43455     43456     43457     43458     43462     43458     43459
     43458     43460     43458     43461     43462     43463     43464     43468
     43464     43465     43464     43466     43464     43467     43468     43469
     43470     43474     43470     43471     43470     43472     43470     43473
     43474     43475     43476     43480     43476     43477     43476     43478
     43476     43479     43480     43481     43482     43486     43482     43483
     43482     43484     43482     43485     43486     43487     43488     43492
     43488     43489     43488     43490     43488     43491     43492     43493
     43494     43498     43494     43495     43494     43496     43494     43497
     43498     43499     43500     43504     43500     43501     43500     43502
     43500     43503     43504     43505     43506     43510     43506     43507
     43506     43508     43506     43509     43510     43511     43512     43516
     43512     43513     43512     43514     43512     43515     43516     43517
     43518     43522     43518     43519     43518     43520     43518     43521
     43522     43523     43524     43528     43524     43525     43524     43526
     43524     43527     43528     43529     43530     43534     43530     43531
     43530     43532     43530     43533     43534     43535     43536     43540
     43536     43537     43536     43538     43536     43539     43540     43541
     43542     43546     43542     43543     43542     43544     43542     43545
     43546     43547     43548     43552     43548     43549     43548     43550
     43548     43551     43552     43553     43554     43558     43554     43555
     43554     43556     43554     43557     43558     43559     43560     43564
     43560     43561     43560     43562     43560     43563     43564     43565
     43566     43570     43566     43567     43566     43568     43566     43569
     43570     43571     43572     43576     43572     43573     43572     43574
     43572     43575     43576     43577     43578     43582     43578     43579
     43578     43580     43578     43581     43582     43583     43584     43588
     43584     43585     43584     43586     43584     43587     43588     43589
     43590     43594     43590     43591     43590     43592     43590     43593
     43594     43595     43596     43600     43596     43597     43596     43598
     43596     43599     43600     43601     43602     43606     43602     43603
     43602     43604     43602     43605     43606     43607     43608     43612
     43608     43609     43608     43610     43608     43611     43612     43613
     43614     43618     43614     43615     43614     43616     43614     43617
     43618     43619     43620     43624     43620     43621     43620     43622
     43620     43623     43624     43625     43626     43630     43626     43627
     43626     43628     43626     43629     43630     43631     43632     43636
     43632     43633     43632     43634     43632     43635     43636     43637
     43638     43642     43638     43639     43638     43640     43638     43641
     43642     43643     43644     43648     43644     43645     43644     43646
     43644     43647     43648     43649     43650     43654     43650     43651
     43650     43652     43650     43653     43654     43655     43656     43660
     43656     43657     43656     43658     43656     43659     43660     43661
     43662     43666     43662     43663     43662     43664     43662     43665
     43666     43667     43668     43672     43668     43669     43668     43670
     43668     43671     43672     43673     43674     43678     43674     43675
     43674     43676     43674     43677     43678     43679     43680     43684
     43680     43681     43680     43682     43680     43683     43684     43685
     43686     43690     43686     43687     43686     43688     43686     43689
     43690     43691     43692     43696     43692     43693     43692     43694
     43692     43695     43696     43697     43698     43702     43698     43699
     43698     43700     43698     43701     43702     43703     43704     43708
     43704     43705     43704     43706     43704     43707     43708     43709
     43710     43714     43710     43711     43710     43712     43710     43713
     43714     43715     43716     43720     43716     43717     43716     43718
     43716     43719     43720     43721     43722     43726     43722     43723
     43722     43724     43722     43725     43726     43727     43728     43732
     43728     43729     43728     43730     43728     43731     43732     43733
     43734     43738     43734     43735     43734     43736     43734     43737
     43738     43739     43740     43744     43740     43741     43740     43742
     43740     43743     43744     43745     43746     43750     43746     43747
     43746     43748     43746     43749     43750     43751     43752     43756
     43752     43753     43752     43754     43752     43755     43756     43757
     43758     43762     43758     43759     43758     43760     43758     43761
     43762     43763     43764     43768     43764     43765     43764     43766
     43764     43767     43768     43769     43770     43774     43770     43771
     43770     43772     43770     43773     43774     43775     43776     43780
     43776     43777     43776     43778     43776     43779     43780     43781
     43782     43786     43782     43783     43782     43784     43782     43785
     43786     43787     43788     43792     43788     43789     43788     43790
     43788     43791     43792     43793     43794     43798     43794     43795
     43794     43796     43794     43797     43798     43799     43800     43804
     43800     43801     43800     43802     43800     43803     43804     43805
     43806     43810     43806     43807     43806     43808     43806     43809
     43810     43811     43812     43816     43812     43813     43812     43814
     43812     43815     43816     43817     43818     43822     43818     43819
     43818     43820     43818     43821     43822     43823     43824     43828
     43824     43825     43824     43826     43824     43827     43828     43829
     43830     43834     43830     43831     43830     43832     43830     43833
     43834     43835     43836     43840     43836     43837     43836     43838
     43836     43839     43840     43841     43842     43846     43842     43843
     43842     43844     43842     43845     43846     43847     43848     43852
     43848     43849     43848     43850     43848     43851     43852     43853
     43854     43858     43854     43855     43854     43856     43854     43857
     43858     43859     43860     43864     43860     43861     43860     43862
     43860     43863     43864     43865     43866     43870     43866     43867
     43866     43868     43866     43869     43870     43871     43872     43876
     43872     43873     43872     43874     43872     43875     43876     43877
     43878     43882     43878     43879     43878     43880     43878     43881
     43882     43883     43884     43888     43884     43885     43884     43886
     43884     43887     43888     43889     43890     43894     43890     43891
     43890     43892     43890     43893     43894     43895     43896     43900
     43896     43897     43896     43898     43896     43899     43900     43901
     43902     43906     43902     43903     43902     43904     43902     43905
     43906     43907     43908     43912     43908     43909     43908     43910
     43908     43911     43912     43913     43914     43918     43914     43915
     43914     43916     43914     43917     43918     43919     43920     43924
     43920     43921     43920     43922     43920     43923     43924     43925
     43926     43930     43926     43927     43926     43928     43926     43929
     43930     43931     43932     43936     43932     43933     43932     43934
     43932     43935     43936     43937     43938     43942     43938     43939
     43938     43940     43938     43941     43942     43943     43944     43948
     43944     43945     43944     43946     43944     43947     43948     43949
     43950     43954     43950     43951     43950     43952     43950     43953
     43954     43955     43956     43960     43956     43957     43956     43958
     43956     43959     43960     43961     43962     43966     43962     43963
     43962     43964     43962     43965     43966     43967     43968     43972
     43968     43969     43968     43970     43968     43971     43972     43973
     43974     43978     43974     43975     43974     43976     43974     43977
     43978     43979     43980     43984     43980     43981     43980     43982
     43980     43983     43984     43985     43986     43990     43986     43987
     43986     43988     43986     43989     43990     43991     43992     43996
     43992     43993     43992     43994     43992     43995     43996     43997
     43998     44002     43998     43999     43998     44000     43998     44001
     44002     44003     44004     44008     44004     44005     44004     44006
     44004     44007     44008     44009     44010     44014     44010     44011
     44010     44012     44010     44013     44014     44015     44016     44020
     44016     44017     44016     44018     44016     44019     44020     44021
     44022     44026     44022     44023     44022     44024     44022     44025
     44026     44027     44028     44032     44028     44029     44028     44030
     44028     44031     44032     44033     44034     44038     44034     44035
     44034     44036     44034     44037     44038     44039     44040     44044
     44040     44041     44040     44042     44040     44043     44044     44045
     44046     44050     44046     44047     44046     44048     44046     44049
     44050     44051     44052     44056     44052     44053     44052     44054
     44052     44055     44056     44057     44058     44062     44058     44059
     44058     44060     44058     44061     44062     44063     44064     44068
     44064     44065     44064     44066     44064     44067     44068     44069
     44070     44074     44070     44071     44070     44072     44070     44073
     44074     44075     44076     44080     44076     44077     44076     44078
     44076     44079     44080     44081     44082     44086     44082     44083
     44082     44084     44082     44085     44086     44087     44088     44092
     44088     44089     44088     44090     44088     44091     44092     44093
     44094     44098     44094     44095     44094     44096     44094     44097
     44098     44099     44100     44104     44100     44101     44100     44102
     44100     44103     44104     44105     44106     44110     44106     44107
     44106     44108     44106     44109     44110     44111     44112     44116
     44112     44113     44112     44114     44112     44115     44116     44117
     44118     44122     44118     44119     44118     44120     44118     44121
     44122     44123     44124     44128     44124     44125     44124     44126
     44124     44127     44128     44129     44130     44134     44130     44131
     44130     44132     44130     44133     44134     44135     44136     44140
     44136     44137     44136     44138     44136     44139     44140     44141
     44142     44146     44142     44143     44142     44144     44142     44145
     44146     44147     44148     44152     44148     44149     44148     44150
     44148     44151     44152     44153     44154     44158     44154     44155
     44154     44156     44154     44157     44158     44159     44160     44164
     44160     44161     44160     44162     44160     44163     44164     44165
     44166     44170     44166     44167     44166     44168     44166     44169
     44170     44171     44172     44176     44172     44173     44172     44174
     44172     44175     44176     44177     44178     44182     44178     44179
     44178     44180     44178     44181     44182     44183     44184     44188
     44184     44185     44184     44186     44184     44187     44188     44189
     44190     44194     44190     44191     44190     44192     44190     44193
     44194     44195     44196     44200     44196     44197     44196     44198
     44196     44199     44200     44201     44202     44206     44202     44203
     44202     44204     44202     44205     44206     44207     44208     44212
     44208     44209     44208     44210     44208     44211     44212     44213
     44214     44218     44214     44215     44214     44216     44214     44217
     44218     44219     44220     44224     44220     44221     44220     44222
     44220     44223     44224     44225     44226     44230     44226     44227
     44226     44228     44226     44229     44230     44231     44232     44236
     44232     44233     44232     44234     44232     44235     44236     44237
     44238     44242     44238     44239     44238     44240     44238     44241
     44242     44243     44244     44248     44244     44245     44244     44246
     44244     44247     44248     44249     44250     44254     44250     44251
     44250     44252     44250     44253     44254     44255     44256     44260
     44256     44257     44256     44258     44256     44259     44260     44261
     44262     44266     44262     44263     44262     44264     44262     44265
     44266     44267     44268     44272     44268     44269     44268     44270
     44268     44271     44272     44273     44274     44278     44274     44275
     44274     44276     44274     44277     44278     44279     44280     44284
     44280     44281     44280     44282     44280     44283     44284     44285
     44286     44290     44286     44287     44286     44288     44286     44289
     44290     44291     44292     44296     44292     44293     44292     44294
     44292     44295     44296     44297     44298     44302     44298     44299
     44298     44300     44298     44301     44302     44303     44304     44308
     44304     44305     44304     44306     44304     44307     44308     44309
     44310     44314     44310     44311     44310     44312     44310     44313
     44314     44315     44316     44320     44316     44317     44316     44318
     44316     44319     44320     44321     44322     44326     44322     44323
     44322     44324     44322     44325     44326     44327     44328     44332
     44328     44329     44328     44330     44328     44331     44332     44333
     44334     44338     44334     44335     44334     44336     44334     44337
     44338     44339     44340     44344     44340     44341     44340     44342
     44340     44343     44344     44345     44346     44350     44346     44347
     44346     44348     44346     44349     44350     44351     44352     44356
     44352     44353     44352     44354     44352     44355     44356     44357
     44358     44362     44358     44359     44358     44360     44358     44361
     44362     44363     44364     44368     44364     44365     44364     44366
     44364     44367     44368     44369     44370     44374     44370     44371
     44370     44372     44370     44373     44374     44375     44376     44380
     44376     44377     44376     44378     44376     44379     44380     44381
     44382     44386     44382     44383     44382     44384     44382     44385
     44386     44387     44388     44392     44388     44389     44388     44390
     44388     44391     44392     44393     44394     44398     44394     44395
     44394     44396     44394     44397     44398     44399     44400     44404
     44400     44401     44400     44402     44400     44403     44404     44405
     44406     44410     44406     44407     44406     44408     44406     44409
     44410     44411     44412     44416     44412     44413     44412     44414
     44412     44415     44416     44417     44418     44422     44418     44419
     44418     44420     44418     44421     44422     44423     44424     44428
     44424     44425     44424     44426     44424     44427     44428     44429
     44430     44434     44430     44431     44430     44432     44430     44433
     44434     44435     44436     44440     44436     44437     44436     44438
     44436     44439     44440     44441     44442     44446     44442     44443
     44442     44444     44442     44445     44446     44447     44448     44452
     44448     44449     44448     44450     44448     44451     44452     44453
     44454     44458     44454     44455     44454     44456     44454     44457
     44458     44459     44460     44464     44460     44461     44460     44462
     44460     44463     44464     44465     44466     44470     44466     44467
     44466     44468     44466     44469     44470     44471     44472     44476
     44472     44473     44472     44474     44472     44475     44476     44477
     44478     44482     44478     44479     44478     44480     44478     44481
     44482     44483     44484     44488     44484     44485     44484     44486
     44484     44487     44488     44489     44490     44494     44490     44491
     44490     44492     44490     44493     44494     44495     44496     44500
     44496     44497     44496     44498     44496     44499     44500     44501
     44502     44506     44502     44503     44502     44504     44502     44505
     44506     44507     44508     44512     44508     44509     44508     44510
     44508     44511     44512     44513     44514     44518     44514     44515
     44514     44516     44514     44517     44518     44519     44520     44524
     44520     44521     44520     44522     44520     44523     44524     44525
     44526     44530     44526     44527     44526     44528     44526     44529
     44530     44531     44532     44536     44532     44533     44532     44534
     44532     44535     44536     44537     44538     44542     44538     44539
     44538     44540     44538     44541     44542     44543     44544     44548
     44544     44545     44544     44546     44544     44547     44548     44549
     44550     44554     44550     44551     44550     44552     44550     44553
     44554     44555     44556     44560     44556     44557     44556     44558
     44556     44559     44560     44561     44562     44566     44562     44563
     44562     44564     44562     44565     44566     44567     44568     44572
     44568     44569     44568     44570     44568     44571     44572     44573
     44574     44578     44574     44575     44574     44576     44574     44577
     44578     44579     44580     44584     44580     44581     44580     44582
     44580     44583     44584     44585     44586     44590     44586     44587
     44586     44588     44586     44589     44590     44591     44592     44596
     44592     44593     44592     44594     44592     44595     44596     44597
     44598     44602     44598     44599     44598     44600     44598     44601
     44602     44603     44604     44608     44604     44605     44604     44606
     44604     44607     44608     44609     44610     44614     44610     44611
     44610     44612     44610     44613     44614     44615     44616     44620
     44616     44617     44616     44618     44616     44619     44620     44621
     44622     44626     44622     44623     44622     44624     44622     44625
     44626     44627     44628     44632     44628     44629     44628     44630
     44628     44631     44632     44633     44634     44638     44634     44635
     44634     44636     44634     44637     44638     44639     44640     44644
     44640     44641     44640     44642     44640     44643     44644     44645
     44646     44650     44646     44647     44646     44648     44646     44649
     44650     44651     44652     44656     44652     44653     44652     44654
     44652     44655     44656     44657     44658     44662     44658     44659
     44658     44660     44658     44661     44662     44663     44664     44668
     44664     44665     44664     44666     44664     44667     44668     44669
     44670     44674     44670     44671     44670     44672     44670     44673
     44674     44675     44676     44680     44676     44677     44676     44678
     44676     44679     44680     44681     44682     44686     44682     44683
     44682     44684     44682     44685     44686     44687     44688     44692
     44688     44689     44688     44690     44688     44691     44692     44693
     44694     44698     44694     44695     44694     44696     44694     44697
     44698     44699     44700     44704     44700     44701     44700     44702
     44700     44703     44704     44705     44706     44710     44706     44707
     44706     44708     44706     44709     44710     44711     44712     44716
     44712     44713     44712     44714     44712     44715     44716     44717
     44718     44722     44718     44719     44718     44720     44718     44721
     44722     44723     44724     44728     44724     44725     44724     44726
     44724     44727     44728     44729     44730     44734     44730     44731
     44730     44732     44730     44733     44734     44735     44736     44740
     44736     44737     44736     44738     44736     44739     44740     44741
     44742     44746     44742     44743     44742     44744     44742     44745
     44746     44747     44748     44752     44748     44749     44748     44750
     44748     44751     44752     44753     44754     44758     44754     44755
     44754     44756     44754     44757     44758     44759     44760     44764
     44760     44761     44760     44762     44760     44763     44764     44765
     44766     44770     44766     44767     44766     44768     44766     44769
     44770     44771     44772     44776     44772     44773     44772     44774
     44772     44775     44776     44777     44778     44782     44778     44779
     44778     44780     44778     44781     44782     44783     44784     44788
     44784     44785     44784     44786     44784     44787     44788     44789
     44790     44794     44790     44791     44790     44792     44790     44793
     44794     44795     44796     44800     44796     44797     44796     44798
     44796     44799     44800     44801     44802     44806     44802     44803
     44802     44804     44802     44805     44806     44807     44808     44812
     44808     44809     44808     44810     44808     44811     44812     44813
     44814     44818     44814     44815     44814     44816     44814     44817
     44818     44819     44820     44824     44820     44821     44820     44822
     44820     44823     44824     44825     44826     44830     44826     44827
     44826     44828     44826     44829     44830     44831     44832     44836
     44832     44833     44832     44834     44832     44835     44836     44837
     44838     44842     44838     44839     44838     44840     44838     44841
     44842     44843     44844     44848     44844     44845     44844     44846
     44844     44847     44848     44849     44850     44854     44850     44851
     44850     44852     44850     44853     44854     44855     44856     44860
     44856     44857     44856     44858     44856     44859     44860     44861
     44862     44866     44862     44863     44862     44864     44862     44865
     44866     44867     44868     44872     44868     44869     44868     44870
     44868     44871     44872     44873     44874     44878     44874     44875
     44874     44876     44874     44877     44878     44879     44880     44884
     44880     44881     44880     44882     44880     44883     44884     44885
     44886     44890     44886     44887     44886     44888     44886     44889
     44890     44891     44892     44896     44892     44893     44892     44894
     44892     44895     44896     44897     44898     44902     44898     44899
     44898     44900     44898     44901     44902     44903     44904     44908
     44904     44905     44904     44906     44904     44907     44908     44909
     44910     44914     44910     44911     44910     44912     44910     44913
     44914     44915     44916     44920     44916     44917     44916     44918
     44916     44919     44920     44921     44922     44926     44922     44923
     44922     44924     44922     44925     44926     44927     44928     44932
     44928     44929     44928     44930     44928     44931     44932     44933
     44934     44938     44934     44935     44934     44936     44934     44937
     44938     44939     44940     44944     44940     44941     44940     44942
     44940     44943     44944     44945     44946     44950     44946     44947
     44946     44948     44946     44949     44950     44951     44952     44956
     44952     44953     44952     44954     44952     44955     44956     44957
     44958     44962     44958     44959     44958     44960     44958     44961
     44962     44963     44964     44968     44964     44965     44964     44966
     44964     44967     44968     44969     44970     44974     44970     44971
     44970     44972     44970     44973     44974     44975     44976     44980
     44976     44977     44976     44978     44976     44979     44980     44981
     44982     44986     44982     44983     44982     44984     44982     44985
     44986     44987     44988     44992     44988     44989     44988     44990
     44988     44991     44992     44993     44994     44998     44994     44995
     44994     44996     44994     44997     44998     44999     45000     45004
     45000     45001     45000     45002     45000     45003     45004     45005
     45006     45010     45006     45007     45006     45008     45006     45009
     45010     45011     45012     45016     45012     45013     45012     45014
     45012     45015     45016     45017     45018     45022     45018     45019
     45018     45020     45018     45021     45022     45023     45024     45028
     45024     45025     45024     45026     45024     45027     45028     45029
     45030     45034     45030     45031     45030     45032     45030     45033
     45034     45035     45036     45040     45036     45037     45036     45038
     45036     45039     45040     45041     45042     45046     45042     45043
     45042     45044     45042     45045     45046     45047     45048     45052
     45048     45049     45048     45050     45048     45051     45052     45053
     45054     45058     45054     45055     45054     45056     45054     45057
     45058     45059     45060     45064     45060     45061     45060     45062
     45060     45063     45064     45065     45066     45070     45066     45067
     45066     45068     45066     45069     45070     45071     45072     45076
     45072     45073     45072     45074     45072     45075     45076     45077
     45078     45082     45078     45079     45078     45080     45078     45081
     45082     45083     45084     45088     45084     45085     45084     45086
     45084     45087     45088     45089     45090     45094     45090     45091
     45090     45092     45090     45093     45094     45095     45096     45100
     45096     45097     45096     45098     45096     45099     45100     45101
     45102     45106     45102     45103     45102     45104     45102     45105
     45106     45107     45108     45112     45108     45109     45108     45110
     45108     45111     45112     45113     45114     45118     45114     45115
     45114     45116     45114     45117     45118     45119     45120     45124
     45120     45121     45120     45122     45120     45123     45124     45125
     45126     45130     45126     45127     45126     45128     45126     45129
     45130     45131     45132     45136     45132     45133     45132     45134
     45132     45135     45136     45137     45138     45142     45138     45139
     45138     45140     45138     45141     45142     45143     45144     45148
     45144     45145     45144     45146     45144     45147     45148     45149
     45150     45154     45150     45151     45150     45152     45150     45153
     45154     45155     45156     45160     45156     45157     45156     45158
     45156     45159     45160     45161     45162     45166     45162     45163
     45162     45164     45162     45165     45166     45167     45168     45172
     45168     45169     45168     45170     45168     45171     45172     45173
     45174     45178     45174     45175     45174     45176     45174     45177
     45178     45179     45180     45184     45180     45181     45180     45182
     45180     45183     45184     45185     45186     45190     45186     45187
     45186     45188     45186     45189     45190     45191     45192     45196
     45192     45193     45192     45194     45192     45195     45196     45197
     45198     45202     45198     45199     45198     45200     45198     45201
     45202     45203     45204     45208     45204     45205     45204     45206
     45204     45207     45208     45209     45210     45214     45210     45211
     45210     45212     45210     45213     45214     45215     45216     45220
     45216     45217     45216     45218     45216     45219     45220     45221
     45222     45226     45222     45223     45222     45224     45222     45225
     45226     45227     45228     45232     45228     45229     45228     45230
     45228     45231     45232     45233     45234     45238     45234     45235
     45234     45236     45234     45237     45238     45239     45240     45244
     45240     45241     45240     45242     45240     45243     45244     45245
     45246     45250     45246     45247     45246     45248     45246     45249
     45250     45251     45252     45256     45252     45253     45252     45254
     45252     45255     45256     45257     45258     45262     45258     45259
     45258     45260     45258     45261     45262     45263     45264     45268
     45264     45265     45264     45266     45264     45267     45268     45269
     45270     45274     45270     45271     45270     45272     45270     45273
     45274     45275     45276     45280     45276     45277     45276     45278
     45276     45279     45280     45281     45282     45286     45282     45283
     45282     45284     45282     45285     45286     45287     45288     45292
     45288     45289     45288     45290     45288     45291     45292     45293
     45294     45298     45294     45295     45294     45296     45294     45297
     45298     45299     45300     45304     45300     45301     45300     45302
     45300     45303     45304     45305     45306     45310     45306     45307
     45306     45308     45306     45309     45310     45311     45312     45316
     45312     45313     45312     45314     45312     45315     45316     45317
     45318     45322     45318     45319     45318     45320     45318     45321
     45322     45323     45324     45328     45324     45325     45324     45326
     45324     45327     45328     45329     45330     45334     45330     45331
     45330     45332     45330     45333     45334     45335     45336     45340
     45336     45337     45336     45338     45336     45339     45340     45341
     45342     45346     45342     45343     45342     45344     45342     45345
     45346     45347     45348     45352     45348     45349     45348     45350
     45348     45351     45352     45353     45354     45358     45354     45355
     45354     45356     45354     45357     45358     45359     45360     45364
     45360     45361     45360     45362     45360     45363     45364     45365
     45366     45370     45366     45367     45366     45368     45366     45369
     45370     45371     45372     45376     45372     45373     45372     45374
     45372     45375     45376     45377     45378     45382     45378     45379
     45378     45380     45378     45381     45382     45383     45384     45388
     45384     45385     45384     45386     45384     45387     45388     45389
     45390     45394     45390     45391     45390     45392     45390     45393
     45394     45395     45396     45400     45396     45397     45396     45398
     45396     45399     45400     45401     45402     45406     45402     45403
     45402     45404     45402     45405     45406     45407     45408     45412
     45408     45409     45408     45410     45408     45411     45412     45413
     45414     45418     45414     45415     45414     45416     45414     45417
     45418     45419     45420     45424     45420     45421     45420     45422
     45420     45423     45424     45425     45426     45430     45426     45427
     45426     45428     45426     45429     45430     45431     45432     45436
     45432     45433     45432     45434     45432     45435     45436     45437
     45438     45442     45438     45439     45438     45440     45438     45441
     45442     45443     45444     45448     45444     45445     45444     45446
     45444     45447     45448     45449     45450     45454     45450     45451
     45450     45452     45450     45453     45454     45455     45456     45460
     45456     45457     45456     45458     45456     45459     45460     45461
     45462     45466     45462     45463     45462     45464     45462     45465
     45466     45467     45468     45472     45468     45469     45468     45470
     45468     45471     45472     45473     45474     45478     45474     45475
     45474     45476     45474     45477     45478     45479     45480     45484
     45480     45481     45480     45482     45480     45483     45484     45485
     45486     45490     45486     45487     45486     45488     45486     45489
     45490     45491     45492     45496     45492     45493     45492     45494
     45492     45495     45496     45497     45498     45502     45498     45499
     45498     45500     45498     45501     45502     45503     45504     45508
     45504     45505     45504     45506     45504     45507     45508     45509
     45510     45514     45510     45511     45510     45512     45510     45513
     45514     45515     45516     45520     45516     45517     45516     45518
     45516     45519     45520     45521     45522     45526     45522     45523
     45522     45524     45522     45525     45526     45527     45528     45532
     45528     45529     45528     45530     45528     45531     45532     45533
     45534     45538     45534     45535     45534     45536     45534     45537
     45538     45539     45540     45544     45540     45541     45540     45542
     45540     45543     45544     45545     45546     45550     45546     45547
     45546     45548     45546     45549     45550     45551     45552     45556
     45552     45553     45552     45554     45552     45555     45556     45557
     45558     45562     45558     45559     45558     45560     45558     45561
     45562     45563     45564     45568     45564     45565     45564     45566
     45564     45567     45568     45569     45570     45574     45570     45571
     45570     45572     45570     45573     45574     45575     45576     45580
     45576     45577     45576     45578     45576     45579     45580     45581
     45582     45586     45582     45583     45582     45584     45582     45585
     45586     45587     45588     45592     45588     45589     45588     45590
     45588     45591     45592     45593     45594     45598     45594     45595
     45594     45596     45594     45597     45598     45599     45600     45604
     45600     45601     45600     45602     45600     45603     45604     45605
     45606     45610     45606     45607     45606     45608     45606     45609
     45610     45611     45612     45616     45612     45613     45612     45614
     45612     45615     45616     45617     45618     45622     45618     45619
     45618     45620     45618     45621     45622     45623     45624     45628
     45624     45625     45624     45626     45624     45627     45628     45629
     45630     45634     45630     45631     45630     45632     45630     45633
     45634     45635     45636     45640     45636     45637     45636     45638
     45636     45639     45640     45641     45642     45646     45642     45643
     45642     45644     45642     45645     45646     45647     45648     45652
     45648     45649     45648     45650     45648     45651     45652     45653
     45654     45658     45654     45655     45654     45656     45654     45657
     45658     45659     45660     45664     45660     45661     45660     45662
     45660     45663     45664     45665     45666     45670     45666     45667
     45666     45668     45666     45669     45670     45671     45672     45676
     45672     45673     45672     45674     45672     45675     45676     45677
     45678     45682     45678     45679     45678     45680     45678     45681
     45682     45683     45684     45688     45684     45685     45684     45686
     45684     45687     45688     45689     45690     45694     45690     45691
     45690     45692     45690     45693     45694     45695     45696     45700
     45696     45697     45696     45698     45696     45699     45700     45701
     45702     45706     45702     45703     45702     45704     45702     45705
     45706     45707     45708     45712     45708     45709     45708     45710
     45708     45711     45712     45713     45714     45718     45714     45715
     45714     45716     45714     45717     45718     45719     45720     45724
     45720     45721     45720     45722     45720     45723     45724     45725
     45726     45730     45726     45727     45726     45728     45726     45729
     45730     45731     45732     45736     45732     45733     45732     45734
     45732     45735     45736     45737     45738     45742     45738     45739
     45738     45740     45738     45741     45742     45743     45744     45748
     45744     45745     45744     45746     45744     45747     45748     45749
     45750     45754     45750     45751     45750     45752     45750     45753
     45754     45755     45756     45760     45756     45757     45756     45758
     45756     45759     45760     45761     45762     45766     45762     45763
     45762     45764     45762     45765     45766     45767     45768     45772
     45768     45769     45768     45770     45768     45771     45772     45773
     45774     45778     45774     45775     45774     45776     45774     45777
     45778     45779     45780     45784     45780     45781     45780     45782
     45780     45783     45784     45785     45786     45790     45786     45787
     45786     45788     45786     45789     45790     45791     45792     45796
     45792     45793     45792     45794     45792     45795     45796     45797
     45798     45802     45798     45799     45798     45800     45798     45801
     45802     45803     45804     45808     45804     45805     45804     45806
     45804     45807     45808     45809     45810     45814     45810     45811
     45810     45812     45810     45813     45814     45815     45816     45820
     45816     45817     45816     45818     45816     45819     45820     45821
     45822     45826     45822     45823     45822     45824     45822     45825
     45826     45827     45828     45832     45828     45829     45828     45830
     45828     45831     45832     45833     45834     45838     45834     45835
     45834     45836     45834     45837     45838     45839     45840     45844
     45840     45841     45840     45842     45840     45843     45844     45845
     45846     45850     45846     45847     45846     45848     45846     45849
     45850     45851     45852     45856     45852     45853     45852     45854
     45852     45855     45856     45857     45858     45862     45858     45859
     45858     45860     45858     45861     45862     45863     45864     45868
     45864     45865     45864     45866     45864     45867     45868     45869
     45870     45874     45870     45871     45870     45872     45870     45873
     45874     45875     45876     45880     45876     45877     45876     45878
     45876     45879     45880     45881     45882     45886     45882     45883
     45882     45884     45882     45885     45886     45887     45888     45892
     45888     45889     45888     45890     45888     45891     45892     45893
     45894     45898     45894     45895     45894     45896     45894     45897
     45898     45899     45900     45904     45900     45901     45900     45902
     45900     45903     45904     45905     45906     45910     45906     45907
     45906     45908     45906     45909     45910     45911     45912     45916
     45912     45913     45912     45914     45912     45915     45916     45917
     45918     45922     45918     45919     45918     45920     45918     45921
     45922     45923     45924     45928     45924     45925     45924     45926
     45924     45927     45928     45929     45930     45934     45930     45931
     45930     45932     45930     45933     45934     45935     45936     45940
     45936     45937     45936     45938     45936     45939     45940     45941
     45942     45946     45942     45943     45942     45944     45942     45945
     45946     45947     45948     45952     45948     45949     45948     45950
     45948     45951     45952     45953     45954     45958     45954     45955
     45954     45956     45954     45957     45958     45959     45960     45964
     45960     45961     45960     45962     45960     45963     45964     45965
     45966     45970     45966     45967     45966     45968     45966     45969
     45970     45971     45972     45976     45972     45973     45972     45974
     45972     45975     45976     45977     45978     45982     45978     45979
     45978     45980     45978     45981     45982     45983     45984     45988
     45984     45985     45984     45986     45984     45987     45988     45989
     45990     45994     45990     45991     45990     45992     45990     45993
     45994     45995     45996     46000     45996     45997     45996     45998
     45996     45999     46000     46001     46002     46006     46002     46003
     46002     46004     46002     46005     46006     46007     46008     46012
     46008     46009     46008     46010     46008     46011     46012     46013
     46014     46018     46014     46015     46014     46016     46014     46017
     46018     46019     46020     46024     46020     46021     46020     46022
     46020     46023     46024     46025     46026     46030     46026     46027
     46026     46028     46026     46029     46030     46031     46032     46036
     46032     46033     46032     46034     46032     46035     46036     46037
     46038     46042     46038     46039     46038     46040     46038     46041
     46042     46043     46044     46048     46044     46045     46044     46046
     46044     46047     46048     46049     46050     46054     46050     46051
     46050     46052     46050     46053     46054     46055     46056     46060
     46056     46057     46056     46058     46056     46059     46060     46061
     46062     46066     46062     46063     46062     46064     46062     46065
     46066     46067     46068     46072     46068     46069     46068     46070
     46068     46071     46072     46073     46074     46078     46074     46075
     46074     46076     46074     46077     46078     46079     46080     46084
     46080     46081     46080     46082     46080     46083     46084     46085
     46086     46090     46086     46087     46086     46088     46086     46089
     46090     46091     46092     46096     46092     46093     46092     46094
     46092     46095     46096     46097     46098     46102     46098     46099
     46098     46100     46098     46101     46102     46103     46104     46108
     46104     46105     46104     46106     46104     46107     46108     46109
     46110     46114     46110     46111     46110     46112     46110     46113
     46114     46115     46116     46120     46116     46117     46116     46118
     46116     46119     46120     46121     46122     46126     46122     46123
     46122     46124     46122     46125     46126     46127     46128     46132
     46128     46129     46128     46130     46128     46131     46132     46133
     46134     46138     46134     46135     46134     46136     46134     46137
     46138     46139     46140     46144     46140     46141     46140     46142
     46140     46143     46144     46145     46146     46150     46146     46147
     46146     46148     46146     46149     46150     46151     46152     46156
     46152     46153     46152     46154     46152     46155     46156     46157
     46158     46162     46158     46159     46158     46160     46158     46161
     46162     46163     46164     46168     46164     46165     46164     46166
     46164     46167     46168     46169     46170     46174     46170     46171
     46170     46172     46170     46173     46174     46175     46176     46180
     46176     46177     46176     46178     46176     46179     46180     46181
     46182     46186     46182     46183     46182     46184     46182     46185
     46186     46187     46188     46192     46188     46189     46188     46190
     46188     46191     46192     46193     46194     46198     46194     46195
     46194     46196     46194     46197     46198     46199     46200     46204
     46200     46201     46200     46202     46200     46203     46204     46205
     46206     46210     46206     46207     46206     46208     46206     46209
     46210     46211     46212     46216     46212     46213     46212     46214
     46212     46215     46216     46217     46218     46222     46218     46219
     46218     46220     46218     46221     46222     46223     46224     46228
     46224     46225     46224     46226     46224     46227     46228     46229
     46230     46234     46230     46231     46230     46232     46230     46233
     46234     46235     46236     46240     46236     46237     46236     46238
     46236     46239     46240     46241     46242     46246     46242     46243
     46242     46244     46242     46245     46246     46247     46248     46252
     46248     46249     46248     46250     46248     46251     46252     46253
     46254     46258     46254     46255     46254     46256     46254     46257
     46258     46259     46260     46264     46260     46261     46260     46262
     46260     46263     46264     46265     46266     46270     46266     46267
     46266     46268     46266     46269     46270     46271     46272     46276
     46272     46273     46272     46274     46272     46275     46276     46277
     46278     46282     46278     46279     46278     46280     46278     46281
     46282     46283     46284     46288     46284     46285     46284     46286
     46284     46287     46288     46289     46290     46294     46290     46291
     46290     46292     46290     46293     46294     46295     46296     46300
     46296     46297     46296     46298     46296     46299     46300     46301
     46302     46306     46302     46303     46302     46304     46302     46305
     46306     46307     46308     46312     46308     46309     46308     46310
     46308     46311     46312     46313     46314     46318     46314     46315
     46314     46316     46314     46317     46318     46319     46320     46324
     46320     46321     46320     46322     46320     46323     46324     46325
     46326     46330     46326     46327     46326     46328     46326     46329
     46330     46331     46332     46336     46332     46333     46332     46334
     46332     46335     46336     46337     46338     46342     46338     46339
     46338     46340     46338     46341     46342     46343     46344     46348
     46344     46345     46344     46346     46344     46347     46348     46349
     46350     46354     46350     46351     46350     46352     46350     46353
     46354     46355     46356     46360     46356     46357     46356     46358
     46356     46359     46360     46361     46362     46366     46362     46363
     46362     46364     46362     46365     46366     46367     46368     46372
     46368     46369     46368     46370     46368     46371     46372     46373
     46374     46378     46374     46375     46374     46376     46374     46377
     46378     46379     46380     46384     46380     46381     46380     46382
     46380     46383     46384     46385     46386     46390     46386     46387
     46386     46388     46386     46389     46390     46391     46392     46396
     46392     46393     46392     46394     46392     46395     46396     46397
     46398     46402     46398     46399     46398     46400     46398     46401
     46402     46403     46404     46408     46404     46405     46404     46406
     46404     46407     46408     46409     46410     46414     46410     46411
     46410     46412     46410     46413     46414     46415     46416     46420
     46416     46417     46416     46418     46416     46419     46420     46421
     46422     46426     46422     46423     46422     46424     46422     46425
     46426     46427     46428     46432     46428     46429     46428     46430
     46428     46431     46432     46433     46434     46438     46434     46435
     46434     46436     46434     46437     46438     46439     46440     46444
     46440     46441     46440     46442     46440     46443     46444     46445
     46446     46450     46446     46447     46446     46448     46446     46449
     46450     46451     46452     46456     46452     46453     46452     46454
     46452     46455     46456     46457     46458     46462     46458     46459
     46458     46460     46458     46461     46462     46463     46464     46468
     46464     46465     46464     46466     46464     46467     46468     46469
     46470     46474     46470     46471     46470     46472     46470     46473
     46474     46475     46476     46480     46476     46477     46476     46478
     46476     46479     46480     46481     46482     46486     46482     46483
     46482     46484     46482     46485     46486     46487     46488     46492
     46488     46489     46488     46490     46488     46491     46492     46493
     46494     46498     46494     46495     46494     46496     46494     46497
     46498     46499     46500     46504     46500     46501     46500     46502
     46500     46503     46504     46505     46506     46510     46506     46507
     46506     46508     46506     46509     46510     46511     46512     46516
     46512     46513     46512     46514     46512     46515     46516     46517
     46518     46522     46518     46519     46518     46520     46518     46521
     46522     46523     46524     46528     46524     46525     46524     46526
     46524     46527     46528     46529     46530     46534     46530     46531
     46530     46532     46530     46533     46534     46535     46536     46540
     46536     46537     46536     46538     46536     46539     46540     46541
     46542     46546     46542     46543     46542     46544     46542     46545
     46546     46547     46548     46552     46548     46549     46548     46550
     46548     46551     46552     46553     46554     46558     46554     46555
     46554     46556     46554     46557     46558     46559     46560     46564
     46560     46561     46560     46562     46560     46563     46564     46565
     46566     46570     46566     46567     46566     46568     46566     46569
     46570     46571     46572     46576     46572     46573     46572     46574
     46572     46575     46576     46577     46578     46582     46578     46579
     46578     46580     46578     46581     46582     46583     46584     46588
     46584     46585     46584     46586     46584     46587     46588     46589
     46590     46594     46590     46591     46590     46592     46590     46593
     46594     46595     46596     46600     46596     46597     46596     46598
     46596     46599     46600     46601     46602     46606     46602     46603
     46602     46604     46602     46605     46606     46607     46608     46612
     46608     46609     46608     46610     46608     46611     46612     46613
     46614     46618     46614     46615     46614     46616     46614     46617
     46618     46619     46620     46624     46620     46621     46620     46622
     46620     46623     46624     46625     46626     46630     46626     46627
     46626     46628     46626     46629     46630     46631     46632     46636
     46632     46633     46632     46634     46632     46635     46636     46637
     46638     46642     46638     46639     46638     46640     46638     46641
     46642     46643     46644     46648     46644     46645     46644     46646
     46644     46647     46648     46649     46650     46654     46650     46651
     46650     46652     46650     46653     46654     46655     46656     46660
     46656     46657     46656     46658     46656     46659     46660     46661
     46662     46666     46662     46663     46662     46664     46662     46665
     46666     46667     46668     46672     46668     46669     46668     46670
     46668     46671     46672     46673     46674     46678     46674     46675
     46674     46676     46674     46677     46678     46679     46680     46684
     46680     46681     46680     46682     46680     46683     46684     46685
     46686     46690     46686     46687     46686     46688     46686     46689
     46690     46691     46692     46696     46692     46693     46692     46694
     46692     46695     46696     46697     46698     46702     46698     46699
     46698     46700     46698     46701     46702     46703     46704     46708
     46704     46705     46704     46706     46704     46707     46708     46709
     46710     46714     46710     46711     46710     46712     46710     46713
     46714     46715     46716     46720     46716     46717     46716     46718
     46716     46719     46720     46721     46722     46726     46722     46723
     46722     46724     46722     46725     46726     46727     46728     46732
     46728     46729     46728     46730     46728     46731     46732     46733
     46734     46738     46734     46735     46734     46736     46734     46737
     46738     46739     46740     46744     46740     46741     46740     46742
     46740     46743     46744     46745     46746     46750     46746     46747
     46746     46748     46746     46749     46750     46751     46752     46756
     46752     46753     46752     46754     46752     46755     46756     46757
     46758     46762     46758     46759     46758     46760     46758     46761
     46762     46763     46764     46768     46764     46765     46764     46766
     46764     46767     46768     46769     46770     46774     46770     46771
     46770     46772     46770     46773     46774     46775     46776     46780
     46776     46777     46776     46778     46776     46779     46780     46781
     46782     46786     46782     46783     46782     46784     46782     46785
     46786     46787     46788     46792     46788     46789     46788     46790
     46788     46791     46792     46793     46794     46798     46794     46795
     46794     46796     46794     46797     46798     46799     46800     46804
     46800     46801     46800     46802     46800     46803     46804     46805
     46806     46810     46806     46807     46806     46808     46806     46809
     46810     46811     46812     46816     46812     46813     46812     46814
     46812     46815     46816     46817     46818     46822     46818     46819
     46818     46820     46818     46821     46822     46823     46824     46828
     46824     46825     46824     46826     46824     46827     46828     46829
     46830     46834     46830     46831     46830     46832     46830     46833
     46834     46835     46836     46840     46836     46837     46836     46838
     46836     46839     46840     46841     46842     46846     46842     46843
     46842     46844     46842     46845     46846     46847     46848     46852
     46848     46849     46848     46850     46848     46851     46852     46853
     46854     46858     46854     46855     46854     46856     46854     46857
     46858     46859     46860     46864     46860     46861     46860     46862
     46860     46863     46864     46865     46866     46870     46866     46867
     46866     46868     46866     46869     46870     46871     46872     46876
     46872     46873     46872     46874     46872     46875     46876     46877
     46878     46882     46878     46879     46878     46880     46878     46881
     46882     46883     46884     46888     46884     46885     46884     46886
     46884     46887     46888     46889     46890     46894     46890     46891
     46890     46892     46890     46893     46894     46895     46896     46900
     46896     46897     46896     46898     46896     46899     46900     46901
     46902     46906     46902     46903     46902     46904     46902     46905
     46906     46907     46908     46912     46908     46909     46908     46910
     46908     46911     46912     46913     46914     46918     46914     46915
     46914     46916     46914     46917     46918     46919     46920     46924
     46920     46921     46920     46922     46920     46923     46924     46925
     46926     46930     46926     46927     46926     46928     46926     46929
     46930     46931     46932     46936     46932     46933     46932     46934
     46932     46935     46936     46937     46938     46942     46938     46939
     46938     46940     46938     46941     46942     46943     46944     46948
     46944     46945     46944     46946     46944     46947     46948     46949
     46950     46954     46950     46951     46950     46952     46950     46953
     46954     46955     46956     46960     46956     46957     46956     46958
     46956     46959     46960     46961     46962     46966     46962     46963
     46962     46964     46962     46965     46966     46967     46968     46972
     46968     46969     46968     46970     46968     46971     46972     46973
     46974     46978     46974     46975     46974     46976     46974     46977
     46978     46979     46980     46984     46980     46981     46980     46982
     46980     46983     46984     46985     46986     46990     46986     46987
     46986     46988     46986     46989     46990     46991     46992     46996
     46992     46993     46992     46994     46992     46995     46996     46997
     46998     47002     46998     46999     46998     47000     46998     47001
     47002     47003     47004     47008     47004     47005     47004     47006
     47004     47007     47008     47009     47010     47014     47010     47011
     47010     47012     47010     47013     47014     47015     47016     47020
     47016     47017     47016     47018     47016     47019     47020     47021
     47022     47026     47022     47023     47022     47024     47022     47025
     47026     47027     47028     47032     47028     47029     47028     47030
     47028     47031     47032     47033     47034     47038     47034     47035
     47034     47036     47034     47037     47038     47039     47040     47044
     47040     47041     47040     47042     47040     47043     47044     47045
     47046     47050     47046     47047     47046     47048     47046     47049
     47050     47051     47052     47056     47052     47053     47052     47054
     47052     47055     47056     47057     47058     47062     47058     47059
     47058     47060     47058     47061     47062     47063     47064     47068
     47064     47065     47064     47066     47064     47067     47068     47069
     47070     47074     47070     47071     47070     47072     47070     47073
     47074     47075     47076     47080     47076     47077     47076     47078
     47076     47079     47080     47081     47082     47086     47082     47083
     47082     47084     47082     47085     47086     47087     47088     47092
     47088     47089     47088     47090     47088     47091     47092     47093
     47094     47098     47094     47095     47094     47096     47094     47097
     47098     47099     47100     47104     47100     47101     47100     47102
     47100     47103     47104     47105     47106     47110     47106     47107
     47106     47108     47106     47109     47110     47111     47112     47116
     47112     47113     47112     47114     47112     47115     47116     47117
     47118     47122     47118     47119     47118     47120     47118     47121
     47122     47123     47124     47128     47124     47125     47124     47126
     47124     47127     47128     47129     47130     47134     47130     47131
     47130     47132     47130     47133     47134     47135     47136     47140
     47136     47137     47136     47138     47136     47139     47140     47141
     47142     47146     47142     47143     47142     47144     47142     47145
     47146     47147     47148     47152     47148     47149     47148     47150
     47148     47151     47152     47153     47154     47158     47154     47155
     47154     47156     47154     47157     47158     47159     47160     47164
     47160     47161     47160     47162     47160     47163     47164     47165
     47166     47170     47166     47167     47166     47168     47166     47169
     47170     47171     47172     47176     47172     47173     47172     47174
     47172     47175     47176     47177     47178     47182     47178     47179
     47178     47180     47178     47181     47182     47183     47184     47188
     47184     47185     47184     47186     47184     47187     47188     47189
     47190     47194     47190     47191     47190     47192     47190     47193
     47194     47195     47196     47200     47196     47197     47196     47198
     47196     47199     47200     47201     47202     47206     47202     47203
     47202     47204     47202     47205     47206     47207     47208     47212
     47208     47209     47208     47210     47208     47211     47212     47213
     47214     47218     47214     47215     47214     47216     47214     47217
     47218     47219     47220     47224     47220     47221     47220     47222
     47220     47223     47224     47225     47226     47230     47226     47227
     47226     47228     47226     47229     47230     47231     47232     47236
     47232     47233     47232     47234     47232     47235     47236     47237
     47238     47242     47238     47239     47238     47240     47238     47241
     47242     47243     47244     47248     47244     47245     47244     47246
     47244     47247     47248     47249     47250     47254     47250     47251
     47250     47252     47250     47253     47254     47255     47256     47260
     47256     47257     47256     47258     47256     47259     47260     47261
     47262     47266     47262     47263     47262     47264     47262     47265
     47266     47267     47268     47272     47268     47269     47268     47270
     47268     47271     47272     47273     47274     47278     47274     47275
     47274     47276     47274     47277     47278     47279     47280     47284
     47280     47281     47280     47282     47280     47283     47284     47285
     47286     47290     47286     47287     47286     47288     47286     47289
     47290     47291     47292     47296     47292     47293     47292     47294
     47292     47295     47296     47297     47298     47302     47298     47299
     47298     47300     47298     47301     47302     47303     47304     47308
     47304     47305     47304     47306     47304     47307     47308     47309
     47310     47314     47310     47311     47310     47312     47310     47313
     47314     47315     47316     47320     47316     47317     47316     47318
     47316     47319     47320     47321     47322     47326     47322     47323
     47322     47324     47322     47325     47326     47327     47328     47332
     47328     47329     47328     47330     47328     47331     47332     47333
     47334     47338     47334     47335     47334     47336     47334     47337
     47338     47339     47340     47344     47340     47341     47340     47342
     47340     47343     47344     47345     47346     47350     47346     47347
     47346     47348     47346     47349     47350     47351     47352     47356
     47352     47353     47352     47354     47352     47355     47356     47357
     47358     47362     47358     47359     47358     47360     47358     47361
     47362     47363     47364     47368     47364     47365     47364     47366
     47364     47367     47368     47369     47370     47374     47370     47371
     47370     47372     47370     47373     47374     47375     47376     47380
     47376     47377     47376     47378     47376     47379     47380     47381
     47382     47386     47382     47383     47382     47384     47382     47385
     47386     47387     47388     47392     47388     47389     47388     47390
     47388     47391     47392     47393     47394     47398     47394     47395
     47394     47396     47394     47397     47398     47399     47400     47404
     47400     47401     47400     47402     47400     47403     47404     47405
     47406     47410     47406     47407     47406     47408     47406     47409
     47410     47411     47412     47416     47412     47413     47412     47414
     47412     47415     47416     47417     47418     47422     47418     47419
     47418     47420     47418     47421     47422     47423     47424     47428
     47424     47425     47424     47426     47424     47427     47428     47429
     47430     47434     47430     47431     47430     47432     47430     47433
     47434     47435     47436     47440     47436     47437     47436     47438
     47436     47439     47440     47441     47442     47446     47442     47443
     47442     47444     47442     47445     47446     47447     47448     47452
     47448     47449     47448     47450     47448     47451     47452     47453
     47454     47458     47454     47455     47454     47456     47454     47457
     47458     47459     47460     47464     47460     47461     47460     47462
     47460     47463     47464     47465     47466     47470     47466     47467
     47466     47468     47466     47469     47470     47471     47472     47476
     47472     47473     47472     47474     47472     47475     47476     47477
     47478     47482     47478     47479     47478     47480     47478     47481
     47482     47483     47484     47488     47484     47485     47484     47486
     47484     47487     47488     47489     47490     47494     47490     47491
     47490     47492     47490     47493     47494     47495     47496     47500
     47496     47497     47496     47498     47496     47499     47500     47501
     47502     47506     47502     47503     47502     47504     47502     47505
     47506     47507     47508     47512     47508     47509     47508     47510
     47508     47511     47512     47513     47514     47518     47514     47515
     47514     47516     47514     47517     47518     47519     47520     47524
     47520     47521     47520     47522     47520     47523     47524     47525
     47526     47530     47526     47527     47526     47528     47526     47529
     47530     47531     47532     47536     47532     47533     47532     47534
     47532     47535     47536     47537     47538     47542     47538     47539
     47538     47540     47538     47541     47542     47543     47544     47548
     47544     47545     47544     47546     47544     47547     47548     47549
     47550     47554     47550     47551     47550     47552     47550     47553
     47554     47555     47556     47560     47556     47557     47556     47558
     47556     47559     47560     47561     47562     47566     47562     47563
     47562     47564     47562     47565     47566     47567     47568     47572
     47568     47569     47568     47570     47568     47571     47572     47573
     47574     47578     47574     47575     47574     47576     47574     47577
     47578     47579     47580     47584     47580     47581     47580     47582
     47580     47583     47584     47585     47586     47590     47586     47587
     47586     47588     47586     47589     47590     47591     47592     47596
     47592     47593     47592     47594     47592     47595     47596     47597
     47598     47602     47598     47599     47598     47600     47598     47601
     47602     47603     47604     47608     47604     47605     47604     47606
     47604     47607     47608     47609     47610     47614     47610     47611
     47610     47612     47610     47613     47614     47615     47616     47620
     47616     47617     47616     47618     47616     47619     47620     47621
     47622     47626     47622     47623     47622     47624     47622     47625
     47626     47627     47628     47632     47628     47629     47628     47630
     47628     47631     47632     47633     47634     47638     47634     47635
     47634     47636     47634     47637     47638     47639     47640     47644
     47640     47641     47640     47642     47640     47643     47644     47645
     47646     47650     47646     47647     47646     47648     47646     47649
     47650     47651     47652     47656     47652     47653     47652     47654
     47652     47655     47656     47657     47658     47662     47658     47659
     47658     47660     47658     47661     47662     47663     47664     47668
     47664     47665     47664     47666     47664     47667     47668     47669
     47670     47674     47670     47671     47670     47672     47670     47673
     47674     47675     47676     47680     47676     47677     47676     47678
     47676     47679     47680     47681     47682     47686     47682     47683
     47682     47684     47682     47685     47686     47687     47688     47692
     47688     47689     47688     47690     47688     47691     47692     47693
     47694     47698     47694     47695     47694     47696     47694     47697
     47698     47699     47700     47704     47700     47701     47700     47702
     47700     47703     47704     47705     47706     47710     47706     47707
     47706     47708     47706     47709     47710     47711     47712     47716
     47712     47713     47712     47714     47712     47715     47716     47717
     47718     47722     47718     47719     47718     47720     47718     47721
     47722     47723     47724     47728     47724     47725     47724     47726
     47724     47727     47728     47729     47730     47734     47730     47731
     47730     47732     47730     47733     47734     47735     47736     47740
     47736     47737     47736     47738     47736     47739     47740     47741
     47742     47746     47742     47743     47742     47744     47742     47745
     47746     47747     47748     47752     47748     47749     47748     47750
     47748     47751     47752     47753     47754     47758     47754     47755
     47754     47756     47754     47757     47758     47759     47760     47764
     47760     47761     47760     47762     47760     47763     47764     47765
     47766     47770     47766     47767     47766     47768     47766     47769
     47770     47771     47772     47776     47772     47773     47772     47774
     47772     47775     47776     47777     47778     47782     47778     47779
     47778     47780     47778     47781     47782     47783     47784     47788
     47784     47785     47784     47786     47784     47787     47788     47789
     47790     47794     47790     47791     47790     47792     47790     47793
     47794     47795     47796     47800     47796     47797     47796     47798
     47796     47799     47800     47801     47802     47806     47802     47803
     47802     47804     47802     47805     47806     47807     47808     47812
     47808     47809     47808     47810     47808     47811     47812     47813
     47814     47818     47814     47815     47814     47816     47814     47817
     47818     47819     47820     47824     47820     47821     47820     47822
     47820     47823     47824     47825     47826     47830     47826     47827
     47826     47828     47826     47829     47830     47831     47832     47836
     47832     47833     47832     47834     47832     47835     47836     47837
     47838     47842     47838     47839     47838     47840     47838     47841
     47842     47843     47844     47848     47844     47845     47844     47846
     47844     47847     47848     47849     47850     47854     47850     47851
     47850     47852     47850     47853     47854     47855     47856     47860
     47856     47857     47856     47858     47856     47859     47860     47861
     47862     47866     47862     47863     47862     47864     47862     47865
     47866     47867     47868     47872     47868     47869     47868     47870
     47868     47871     47872     47873     47874     47878     47874     47875
     47874     47876     47874     47877     47878     47879     47880     47884
     47880     47881     47880     47882     47880     47883     47884     47885
     47886     47890     47886     47887     47886     47888     47886     47889
     47890     47891     47892     47896     47892     47893     47892     47894
     47892     47895     47896     47897     47898     47902     47898     47899
     47898     47900     47898     47901     47902     47903     47904     47908
     47904     47905     47904     47906     47904     47907     47908     47909
     47910     47914     47910     47911     47910     47912     47910     47913
     47914     47915     47916     47920     47916     47917     47916     47918
     47916     47919     47920     47921     47922     47926     47922     47923
     47922     47924     47922     47925     47926     47927     47928     47932
     47928     47929     47928     47930     47928     47931     47932     47933
     47934     47938     47934     47935     47934     47936     47934     47937
     47938     47939     47940     47944     47940     47941     47940     47942
     47940     47943     47944     47945     47946     47950     47946     47947
     47946     47948     47946     47949     47950     47951     47952     47956
     47952     47953     47952     47954     47952     47955     47956     47957
     47958     47962     47958     47959     47958     47960     47958     47961
     47962     47963     47964     47968     47964     47965     47964     47966
     47964     47967     47968     47969     47970     47974     47970     47971
     47970     47972     47970     47973     47974     47975     47976     47980
     47976     47977     47976     47978     47976     47979     47980     47981
     47982     47986     47982     47983     47982     47984     47982     47985
     47986     47987     47988     47992     47988     47989     47988     47990
     47988     47991     47992     47993     47994     47998     47994     47995
     47994     47996     47994     47997     47998     47999     48000     48004
     48000     48001     48000     48002     48000     48003     48004     48005
     48006     48010     48006     48007     48006     48008     48006     48009
     48010     48011     48012     48016     48012     48013     48012     48014
     48012     48015     48016     48017     48018     48022     48018     48019
     48018     48020     48018     48021     48022     48023     48024     48028
     48024     48025     48024     48026     48024     48027     48028     48029
     48030     48034     48030     48031     48030     48032     48030     48033
     48034     48035     48036     48040     48036     48037     48036     48038
     48036     48039     48040     48041     48042     48046     48042     48043
     48042     48044     48042     48045     48046     48047     48048     48052
     48048     48049     48048     48050     48048     48051     48052     48053
     48054     48058     48054     48055     48054     48056     48054     48057
     48058     48059     48060     48064     48060     48061     48060     48062
     48060     48063     48064     48065     48066     48070     48066     48067
     48066     48068     48066     48069     48070     48071     48072     48076
     48072     48073     48072     48074     48072     48075     48076     48077
     48078     48082     48078     48079     48078     48080     48078     48081
     48082     48083     48084     48088     48084     48085     48084     48086
     48084     48087     48088     48089     48090     48094     48090     48091
     48090     48092     48090     48093     48094     48095     48096     48100
     48096     48097     48096     48098     48096     48099     48100     48101
     48102     48106     48102     48103     48102     48104     48102     48105
     48106     48107     48108     48112     48108     48109     48108     48110
     48108     48111     48112     48113     48114     48118     48114     48115
     48114     48116     48114     48117     48118     48119     48120     48124
     48120     48121     48120     48122     48120     48123     48124     48125
     48126     48130     48126     48127     48126     48128     48126     48129
     48130     48131     48132     48136     48132     48133     48132     48134
     48132     48135     48136     48137     48138     48142     48138     48139
     48138     48140     48138     48141     48142     48143     48144     48148
     48144     48145     48144     48146     48144     48147     48148     48149
     48150     48154     48150     48151     48150     48152     48150     48153
     48154     48155     48156     48160     48156     48157     48156     48158
     48156     48159     48160     48161     48162     48166     48162     48163
     48162     48164     48162     48165     48166     48167     48168     48172
     48168     48169     48168     48170     48168     48171     48172     48173
     48174     48178     48174     48175     48174     48176     48174     48177
     48178     48179     48180     48184     48180     48181     48180     48182
     48180     48183     48184     48185     48186     48190     48186     48187
     48186     48188     48186     48189     48190     48191     48192     48196
     48192     48193     48192     48194     48192     48195     48196     48197
     48198     48202     48198     48199     48198     48200     48198     48201
     48202     48203     48204     48208     48204     48205     48204     48206
     48204     48207     48208     48209     48210     48214     48210     48211
     48210     48212     48210     48213     48214     48215     48216     48220
     48216     48217     48216     48218     48216     48219     48220     48221
     48222     48226     48222     48223     48222     48224     48222     48225
     48226     48227     48228     48232     48228     48229     48228     48230
     48228     48231     48232     48233     48234     48238     48234     48235
     48234     48236     48234     48237     48238     48239     48240     48244
     48240     48241     48240     48242     48240     48243     48244     48245
     48246     48250     48246     48247     48246     48248     48246     48249
     48250     48251     48252     48256     48252     48253     48252     48254
     48252     48255     48256     48257     48258     48262     48258     48259
     48258     48260     48258     48261     48262     48263     48264     48268
     48264     48265     48264     48266     48264     48267     48268     48269
     48270     48274     48270     48271     48270     48272     48270     48273
     48274     48275     48276     48280     48276     48277     48276     48278
     48276     48279     48280     48281     48282     48286     48282     48283
     48282     48284     48282     48285     48286     48287     48288     48292
     48288     48289     48288     48290     48288     48291     48292     48293
     48294     48298     48294     48295     48294     48296     48294     48297
     48298     48299     48300     48304     48300     48301     48300     48302
     48300     48303     48304     48305     48306     48310     48306     48307
     48306     48308     48306     48309     48310     48311     48312     48316
     48312     48313     48312     48314     48312     48315     48316     48317
     48318     48322     48318     48319     48318     48320     48318     48321
     48322     48323     48324     48328     48324     48325     48324     48326
     48324     48327     48328     48329     48330     48334     48330     48331
     48330     48332     48330     48333     48334     48335     48336     48340
     48336     48337     48336     48338     48336     48339     48340     48341
     48342     48346     48342     48343     48342     48344     48342     48345
     48346     48347     48348     48352     48348     48349     48348     48350
     48348     48351     48352     48353     48354     48358     48354     48355
     48354     48356     48354     48357     48358     48359     48360     48364
     48360     48361     48360     48362     48360     48363     48364     48365
     48366     48370     48366     48367     48366     48368     48366     48369
     48370     48371     48372     48376     48372     48373     48372     48374
     48372     48375     48376     48377     48378     48382     48378     48379
     48378     48380     48378     48381     48382     48383     48384     48388
     48384     48385     48384     48386     48384     48387     48388     48389
     48390     48394     48390     48391     48390     48392     48390     48393
     48394     48395     48396     48400     48396     48397     48396     48398
     48396     48399     48400     48401     48402     48406     48402     48403
     48402     48404     48402     48405     48406     48407     48408     48412
     48408     48409     48408     48410     48408     48411     48412     48413
     48414     48418     48414     48415     48414     48416     48414     48417
     48418     48419     48420     48424     48420     48421     48420     48422
     48420     48423     48424     48425     48426     48430     48426     48427
     48426     48428     48426     48429     48430     48431     48432     48436
     48432     48433     48432     48434     48432     48435     48436     48437
     48438     48442     48438     48439     48438     48440     48438     48441
     48442     48443     48444     48448     48444     48445     48444     48446
     48444     48447     48448     48449     48450     48454     48450     48451
     48450     48452     48450     48453     48454     48455     48456     48460
     48456     48457     48456     48458     48456     48459     48460     48461
     48462     48466     48462     48463     48462     48464     48462     48465
     48466     48467     48468     48472     48468     48469     48468     48470
     48468     48471     48472     48473     48474     48478     48474     48475
     48474     48476     48474     48477     48478     48479     48480     48484
     48480     48481     48480     48482     48480     48483     48484     48485
     48486     48490     48486     48487     48486     48488     48486     48489
     48490     48491     48492     48496     48492     48493     48492     48494
     48492     48495     48496     48497     48498     48502     48498     48499
     48498     48500     48498     48501     48502     48503     48504     48508
     48504     48505     48504     48506     48504     48507     48508     48509
     48510     48514     48510     48511     48510     48512     48510     48513
     48514     48515     48516     48520     48516     48517     48516     48518
     48516     48519     48520     48521     48522     48526     48522     48523
     48522     48524     48522     48525     48526     48527     48528     48532
     48528     48529     48528     48530     48528     48531     48532     48533
     48534     48538     48534     48535     48534     48536     48534     48537
     48538     48539     48540     48544     48540     48541     48540     48542
     48540     48543     48544     48545     48546     48550     48546     48547
     48546     48548     48546     48549     48550     48551     48552     48556
     48552     48553     48552     48554     48552     48555     48556     48557
     48558     48562     48558     48559     48558     48560     48558     48561
     48562     48563     48564     48568     48564     48565     48564     48566
     48564     48567     48568     48569     48570     48574     48570     48571
     48570     48572     48570     48573     48574     48575     48576     48580
     48576     48577     48576     48578     48576     48579     48580     48581
     48582     48586     48582     48583     48582     48584     48582     48585
     48586     48587     48588     48592     48588     48589     48588     48590
     48588     48591     48592     48593     48594     48598     48594     48595
     48594     48596     48594     48597     48598     48599     48600     48604
     48600     48601     48600     48602     48600     48603     48604     48605
     48606     48610     48606     48607     48606     48608     48606     48609
     48610     48611     48612     48616     48612     48613     48612     48614
     48612     48615     48616     48617     48618     48622     48618     48619
     48618     48620     48618     48621     48622     48623     48624     48628
     48624     48625     48624     48626     48624     48627     48628     48629
     48630     48634     48630     48631     48630     48632     48630     48633
     48634     48635     48636     48640     48636     48637     48636     48638
     48636     48639     48640     48641     48642     48646     48642     48643
     48642     48644     48642     48645     48646     48647     48648     48652
     48648     48649     48648     48650     48648     48651     48652     48653
     48654     48658     48654     48655     48654     48656     48654     48657
     48658     48659     48660     48664     48660     48661     48660     48662
     48660     48663     48664     48665     48666     48670     48666     48667
     48666     48668     48666     48669     48670     48671     48672     48676
     48672     48673     48672     48674     48672     48675     48676     48677
     48678     48682     48678     48679     48678     48680     48678     48681
     48682     48683     48684     48688     48684     48685     48684     48686
     48684     48687     48688     48689     48690     48694     48690     48691
     48690     48692     48690     48693     48694     48695     48696     48700
     48696     48697     48696     48698     48696     48699     48700     48701
     48702     48706     48702     48703     48702     48704     48702     48705
     48706     48707     48708     48712     48708     48709     48708     48710
     48708     48711     48712     48713     48714     48718     48714     48715
     48714     48716     48714     48717     48718     48719     48720     48724
     48720     48721     48720     48722     48720     48723     48724     48725
     48726     48730     48726     48727     48726     48728     48726     48729
     48730     48731     48732     48736     48732     48733     48732     48734
     48732     48735     48736     48737     48738     48742     48738     48739
     48738     48740     48738     48741     48742     48743     48744     48748
     48744     48745     48744     48746     48744     48747     48748     48749
     48750     48754     48750     48751     48750     48752     48750     48753
     48754     48755     48756     48760     48756     48757     48756     48758
     48756     48759     48760     48761     48762     48766     48762     48763
     48762     48764     48762     48765     48766     48767     48768     48772
     48768     48769     48768     48770     48768     48771     48772     48773
     48774     48778     48774     48775     48774     48776     48774     48777
     48778     48779     48780     48784     48780     48781     48780     48782
     48780     48783     48784     48785     48786     48790     48786     48787
     48786     48788     48786     48789     48790     48791     48792     48796
     48792     48793     48792     48794     48792     48795     48796     48797
     48798     48802     48798     48799     48798     48800     48798     48801
     48802     48803     48804     48808     48804     48805     48804     48806
     48804     48807     48808     48809     48810     48814     48810     48811
     48810     48812     48810     48813     48814     48815     48816     48820
     48816     48817     48816     48818     48816     48819     48820     48821
     48822     48826     48822     48823     48822     48824     48822     48825
     48826     48827     48828     48832     48828     48829     48828     48830
     48828     48831     48832     48833     48834     48838     48834     48835
     48834     48836     48834     48837     48838     48839     48840     48844
     48840     48841     48840     48842     48840     48843     48844     48845
     48846     48850     48846     48847     48846     48848     48846     48849
     48850     48851     48852     48856     48852     48853     48852     48854
     48852     48855     48856     48857     48858     48862     48858     48859
     48858     48860     48858     48861     48862     48863     48864     48868
     48864     48865     48864     48866     48864     48867     48868     48869
     48870     48874     48870     48871     48870     48872     48870     48873
     48874     48875     48876     48880     48876     48877     48876     48878
     48876     48879     48880     48881     48882     48886     48882     48883
     48882     48884     48882     48885     48886     48887     48888     48892
     48888     48889     48888     48890     48888     48891     48892     48893
     48894     48898     48894     48895     48894     48896     48894     48897
     48898     48899     48900     48904     48900     48901     48900     48902
     48900     48903     48904     48905     48906     48910     48906     48907
     48906     48908     48906     48909     48910     48911     48912     48916
     48912     48913     48912     48914     48912     48915     48916     48917
     48918     48922     48918     48919     48918     48920     48918     48921
     48922     48923     48924     48928     48924     48925     48924     48926
     48924     48927     48928     48929     48930     48934     48930     48931
     48930     48932     48930     48933     48934     48935     48936     48940
     48936     48937     48936     48938     48936     48939     48940     48941
     48942     48946     48942     48943     48942     48944     48942     48945
     48946     48947     48948     48952     48948     48949     48948     48950
     48948     48951     48952     48953     48954     48958     48954     48955
     48954     48956     48954     48957     48958     48959     48960     48964
     48960     48961     48960     48962     48960     48963     48964     48965
     48966     48970     48966     48967     48966     48968     48966     48969
     48970     48971     48972     48976     48972     48973     48972     48974
     48972     48975     48976     48977     48978     48982     48978     48979
     48978     48980     48978     48981     48982     48983     48984     48988
     48984     48985     48984     48986     48984     48987     48988     48989
     48990     48994     48990     48991     48990     48992     48990     48993
     48994     48995     48996     49000     48996     48997     48996     48998
     48996     48999     49000     49001     49002     49006     49002     49003
     49002     49004     49002     49005     49006     49007     49008     49012
     49008     49009     49008     49010     49008     49011     49012     49013
     49014     49018     49014     49015     49014     49016     49014     49017
     49018     49019     49020     49024     49020     49021     49020     49022
     49020     49023     49024     49025     49026     49030     49026     49027
     49026     49028     49026     49029     49030     49031     49032     49036
     49032     49033     49032     49034     49032     49035     49036     49037
     49038     49042     49038     49039     49038     49040     49038     49041
     49042     49043     49044     49048     49044     49045     49044     49046
     49044     49047     49048     49049     49050     49054     49050     49051
     49050     49052     49050     49053     49054     49055     49056     49060
     49056     49057     49056     49058     49056     49059     49060     49061
     49062     49066     49062     49063     49062     49064     49062     49065
     49066     49067     49068     49072     49068     49069     49068     49070
     49068     49071     49072     49073     49074     49078     49074     49075
     49074     49076     49074     49077     49078     49079     49080     49084
     49080     49081     49080     49082     49080     49083     49084     49085
     49086     49090     49086     49087     49086     49088     49086     49089
     49090     49091     49092     49096     49092     49093     49092     49094
     49092     49095     49096     49097     49098     49102     49098     49099
     49098     49100     49098     49101     49102     49103     49104     49108
     49104     49105     49104     49106     49104     49107     49108     49109
     49110     49114     49110     49111     49110     49112     49110     49113
     49114     49115     49116     49120     49116     49117     49116     49118
     49116     49119     49120     49121     49122     49126     49122     49123
     49122     49124     49122     49125     49126     49127     49128     49132
     49128     49129     49128     49130     49128     49131     49132     49133
     49134     49138     49134     49135     49134     49136     49134     49137
     49138     49139     49140     49144     49140     49141     49140     49142
     49140     49143     49144     49145     49146     49150     49146     49147
     49146     49148     49146     49149     49150     49151     49152     49156
     49152     49153     49152     49154     49152     49155     49156     49157
     49158     49162     49158     49159     49158     49160     49158     49161
     49162     49163     49164     49168     49164     49165     49164     49166
     49164     49167     49168     49169     49170     49174     49170     49171
     49170     49172     49170     49173     49174     49175     49176     49180
     49176     49177     49176     49178     49176     49179     49180     49181
     49182     49186     49182     49183     49182     49184     49182     49185
     49186     49187     49188     49192     49188     49189     49188     49190
     49188     49191     49192     49193     49194     49198     49194     49195
     49194     49196     49194     49197     49198     49199     49200     49204
     49200     49201     49200     49202     49200     49203     49204     49205
     49206     49210     49206     49207     49206     49208     49206     49209
     49210     49211     49212     49216     49212     49213     49212     49214
     49212     49215     49216     49217     49218     49222     49218     49219
     49218     49220     49218     49221     49222     49223     49224     49228
     49224     49225     49224     49226     49224     49227     49228     49229
     49230     49234     49230     49231     49230     49232     49230     49233
     49234     49235     49236     49240     49236     49237     49236     49238
     49236     49239     49240     49241     49242     49246     49242     49243
     49242     49244     49242     49245     49246     49247     49248     49252
     49248     49249     49248     49250     49248     49251     49252     49253
     49254     49258     49254     49255     49254     49256     49254     49257
     49258     49259     49260     49264     49260     49261     49260     49262
     49260     49263     49264     49265     49266     49270     49266     49267
     49266     49268     49266     49269     49270     49271     49272     49276
     49272     49273     49272     49274     49272     49275     49276     49277
     49278     49282     49278     49279     49278     49280     49278     49281
     49282     49283     49284     49288     49284     49285     49284     49286
     49284     49287     49288     49289     49290     49294     49290     49291
     49290     49292     49290     49293     49294     49295     49296     49300
     49296     49297     49296     49298     49296     49299     49300     49301
     49302     49306     49302     49303     49302     49304     49302     49305
     49306     49307     49308     49312     49308     49309     49308     49310
     49308     49311     49312     49313     49314     49318     49314     49315
     49314     49316     49314     49317     49318     49319     49320     49324
     49320     49321     49320     49322     49320     49323     49324     49325
     49326     49330     49326     49327     49326     49328     49326     49329
     49330     49331     49332     49336     49332     49333     49332     49334
     49332     49335     49336     49337     49338     49342     49338     49339
     49338     49340     49338     49341     49342     49343     49344     49348
     49344     49345     49344     49346     49344     49347     49348     49349
     49350     49354     49350     49351     49350     49352     49350     49353
     49354     49355     49356     49360     49356     49357     49356     49358
     49356     49359     49360     49361     49362     49366     49362     49363
     49362     49364     49362     49365     49366     49367     49368     49372
     49368     49369     49368     49370     49368     49371     49372     49373
     49374     49378     49374     49375     49374     49376     49374     49377
     49378     49379     49380     49384     49380     49381     49380     49382
     49380     49383     49384     49385     49386     49390     49386     49387
     49386     49388     49386     49389     49390     49391     49392     49396
     49392     49393     49392     49394     49392     49395     49396     49397
     49398     49402     49398     49399     49398     49400     49398     49401
     49402     49403     49404     49408     49404     49405     49404     49406
     49404     49407     49408     49409     49410     49414     49410     49411
     49410     49412     49410     49413     49414     49415     49416     49420
     49416     49417     49416     49418     49416     49419     49420     49421
     49422     49426     49422     49423     49422     49424     49422     49425
     49426     49427     49428     49432     49428     49429     49428     49430
     49428     49431     49432     49433     49434     49438     49434     49435
     49434     49436     49434     49437     49438     49439     49440     49444
     49440     49441     49440     49442     49440     49443     49444     49445
     49446     49450     49446     49447     49446     49448     49446     49449
     49450     49451     49452     49456     49452     49453     49452     49454
     49452     49455     49456     49457     49458     49462     49458     49459
     49458     49460     49458     49461     49462     49463     49464     49468
     49464     49465     49464     49466     49464     49467     49468     49469
     49470     49474     49470     49471     49470     49472     49470     49473
     49474     49475     49476     49480     49476     49477     49476     49478
     49476     49479     49480     49481     49482     49486     49482     49483
     49482     49484     49482     49485     49486     49487     49488     49492
     49488     49489     49488     49490     49488     49491     49492     49493
     49494     49498     49494     49495     49494     49496     49494     49497
     49498     49499     49500     49504     49500     49501     49500     49502
     49500     49503     49504     49505     49506     49510     49506     49507
     49506     49508     49506     49509     49510     49511     49512     49516
     49512     49513     49512     49514     49512     49515     49516     49517
     49518     49522     49518     49519     49518     49520     49518     49521
     49522     49523     49524     49528     49524     49525     49524     49526
     49524     49527     49528     49529     49530     49534     49530     49531
     49530     49532     49530     49533     49534     49535     49536     49540
     49536     49537     49536     49538     49536     49539     49540     49541
     49542     49546     49542     49543     49542     49544     49542     49545
     49546     49547     49548     49552     49548     49549     49548     49550
     49548     49551     49552     49553     49554     49558     49554     49555
     49554     49556     49554     49557     49558     49559     49560     49564
     49560     49561     49560     49562     49560     49563     49564     49565
     49566     49570     49566     49567     49566     49568     49566     49569
     49570     49571     49572     49576     49572     49573     49572     49574
     49572     49575     49576     49577     49578     49582     49578     49579
     49578     49580     49578     49581     49582     49583     49584     49588
     49584     49585     49584     49586     49584     49587     49588     49589
     49590     49594     49590     49591     49590     49592     49590     49593
     49594     49595     49596     49600     49596     49597     49596     49598
     49596     49599     49600     49601     49602     49606     49602     49603
     49602     49604     49602     49605     49606     49607     49608     49612
     49608     49609     49608     49610     49608     49611     49612     49613
     49614     49618     49614     49615     49614     49616     49614     49617
     49618     49619     49620     49624     49620     49621     49620     49622
     49620     49623     49624     49625     49626     49630     49626     49627
     49626     49628     49626     49629     49630     49631     49632     49636
     49632     49633     49632     49634     49632     49635     49636     49637
     49638     49642     49638     49639     49638     49640     49638     49641
     49642     49643     49644     49648     49644     49645     49644     49646
     49644     49647     49648     49649     49650     49654     49650     49651
     49650     49652     49650     49653     49654     49655     49656     49660
     49656     49657     49656     49658     49656     49659     49660     49661
     49662     49666     49662     49663     49662     49664     49662     49665
     49666     49667     49668     49672     49668     49669     49668     49670
     49668     49671     49672     49673     49674     49678     49674     49675
     49674     49676     49674     49677     49678     49679     49680     49684
     49680     49681     49680     49682     49680     49683     49684     49685
     49686     49690     49686     49687     49686     49688     49686     49689
     49690     49691     49692     49696     49692     49693     49692     49694
     49692     49695     49696     49697     49698     49702     49698     49699
     49698     49700     49698     49701     49702     49703     49704     49708
     49704     49705     49704     49706     49704     49707     49708     49709
     49710     49714     49710     49711     49710     49712     49710     49713
     49714     49715     49716     49720     49716     49717     49716     49718
     49716     49719     49720     49721     49722     49726     49722     49723
     49722     49724     49722     49725     49726     49727     49728     49732
     49728     49729     49728     49730     49728     49731     49732     49733
     49734     49738     49734     49735     49734     49736     49734     49737
     49738     49739     49740     49744     49740     49741     49740     49742
     49740     49743     49744     49745     49746     49750     49746     49747
     49746     49748     49746     49749     49750     49751     49752     49756
     49752     49753     49752     49754     49752     49755     49756     49757
     49758     49762     49758     49759     49758     49760     49758     49761
     49762     49763     49764     49768     49764     49765     49764     49766
     49764     49767     49768     49769     49770     49774     49770     49771
     49770     49772     49770     49773     49774     49775     49776     49780
     49776     49777     49776     49778     49776     49779     49780     49781
     49782     49786     49782     49783     49782     49784     49782     49785
     49786     49787     49788     49792     49788     49789     49788     49790
     49788     49791     49792     49793     49794     49798     49794     49795
     49794     49796     49794     49797     49798     49799     49800     49804
     49800     49801     49800     49802     49800     49803     49804     49805
     49806     49810     49806     49807     49806     49808     49806     49809
     49810     49811     49812     49816     49812     49813     49812     49814
     49812     49815     49816     49817     49818     49822     49818     49819
     49818     49820     49818     49821     49822     49823     49824     49828
     49824     49825     49824     49826     49824     49827     49828     49829
     49830     49834     49830     49831     49830     49832     49830     49833
     49834     49835     49836     49840     49836     49837     49836     49838
     49836     49839     49840     49841     49842     49846     49842     49843
     49842     49844     49842     49845     49846     49847     49848     49852
     49848     49849     49848     49850     49848     49851     49852     49853
     49854     49858     49854     49855     49854     49856     49854     49857
     49858     49859     49860     49864     49860     49861     49860     49862
     49860     49863     49864     49865     49866     49870     49866     49867
     49866     49868     49866     49869     49870     49871     49872     49876
     49872     49873     49872     49874     49872     49875     49876     49877
     49878     49882     49878     49879     49878     49880     49878     49881
     49882     49883     49884     49888     49884     49885     49884     49886
     49884     49887     49888     49889     49890     49894     49890     49891
     49890     49892     49890     49893     49894     49895     49896     49900
     49896     49897     49896     49898     49896     49899     49900     49901
     49902     49906     49902     49903     49902     49904     49902     49905
     49906     49907     49908     49912     49908     49909     49908     49910
     49908     49911     49912     49913     49914     49918     49914     49915
     49914     49916     49914     49917     49918     49919     49920     49924
     49920     49921     49920     49922     49920     49923     49924     49925
     49926     49930     49926     49927     49926     49928     49926     49929
     49930     49931     49932     49936     49932     49933     49932     49934
     49932     49935     49936     49937     49938     49942     49938     49939
     49938     49940     49938     49941     49942     49943     49944     49948
     49944     49945     49944     49946     49944     49947     49948     49949
     49950     49954     49950     49951     49950     49952     49950     49953
     49954     49955     49956     49960     49956     49957     49956     49958
     49956     49959     49960     49961     49962     49966     49962     49963
     49962     49964     49962     49965     49966     49967     49968     49972
     49968     49969     49968     49970     49968     49971     49972     49973
     49974     49978     49974     49975     49974     49976     49974     49977
     49978     49979     49980     49984     49980     49981     49980     49982
     49980     49983     49984     49985     49986     49990     49986     49987
     49986     49988     49986     49989     49990     49991     49992     49996
     49992     49993     49992     49994     49992     49995     49996     49997
     49998     50002     49998     49999     49998     50000     49998     50001
     50002     50003     50004     50008     50004     50005     50004     50006
     50004     50007     50008     50009     50010     50014     50010     50011
     50010     50012     50010     50013     50014     50015     50016     50020
     50016     50017     50016     50018     50016     50019     50020     50021
     50022     50026     50022     50023     50022     50024     50022     50025
     50026     50027     50028     50032     50028     50029     50028     50030
     50028     50031     50032     50033     50034     50038     50034     50035
     50034     50036     50034     50037     50038     50039     50040     50044
     50040     50041     50040     50042     50040     50043     50044     50045
     50046     50050     50046     50047     50046     50048     50046     50049
     50050     50051     50052     50056     50052     50053     50052     50054
     50052     50055     50056     50057     50058     50062     50058     50059
     50058     50060     50058     50061     50062     50063     50064     50068
     50064     50065     50064     50066     50064     50067     50068     50069
     50070     50074     50070     50071     50070     50072     50070     50073
     50074     50075     50076     50080     50076     50077     50076     50078
     50076     50079     50080     50081     50082     50086     50082     50083
     50082     50084     50082     50085     50086     50087     50088     50092
     50088     50089     50088     50090     50088     50091     50092     50093
     50094     50098     50094     50095     50094     50096     50094     50097
     50098     50099     50100     50104     50100     50101     50100     50102
     50100     50103     50104     50105     50106     50110     50106     50107
     50106     50108     50106     50109     50110     50111     50112     50116
     50112     50113     50112     50114     50112     50115     50116     50117
     50118     50122     50118     50119     50118     50120     50118     50121
     50122     50123     50124     50128     50124     50125     50124     50126
     50124     50127     50128     50129     50130     50134     50130     50131
     50130     50132     50130     50133     50134     50135     50136     50140
     50136     50137     50136     50138     50136     50139     50140     50141
     50142     50146     50142     50143     50142     50144     50142     50145
     50146     50147     50148     50152     50148     50149     50148     50150
     50148     50151     50152     50153     50154     50158     50154     50155
     50154     50156     50154     50157     50158     50159     50160     50164
     50160     50161     50160     50162     50160     50163     50164     50165
     50166     50170     50166     50167     50166     50168     50166     50169
     50170     50171     50172     50176     50172     50173     50172     50174
     50172     50175     50176     50177     50178     50182     50178     50179
     50178     50180     50178     50181     50182     50183     50184     50188
     50184     50185     50184     50186     50184     50187     50188     50189
     50190     50194     50190     50191     50190     50192     50190     50193
     50194     50195     50196     50200     50196     50197     50196     50198
     50196     50199     50200     50201     50202     50206     50202     50203
     50202     50204     50202     50205     50206     50207     50208     50212
     50208     50209     50208     50210     50208     50211     50212     50213
     50214     50218     50214     50215     50214     50216     50214     50217
     50218     50219     50220     50224     50220     50221     50220     50222
     50220     50223     50224     50225     50226     50230     50226     50227
     50226     50228     50226     50229     50230     50231     50232     50236
     50232     50233     50232     50234     50232     50235     50236     50237
     50238     50242     50238     50239     50238     50240     50238     50241
     50242     50243     50244     50248     50244     50245     50244     50246
     50244     50247     50248     50249     50250     50254     50250     50251
     50250     50252     50250     50253     50254     50255     50256     50260
     50256     50257     50256     50258     50256     50259     50260     50261
     50262     50266     50262     50263     50262     50264     50262     50265
     50266     50267     50268     50272     50268     50269     50268     50270
     50268     50271     50272     50273     50274     50278     50274     50275
     50274     50276     50274     50277     50278     50279     50280     50284
     50280     50281     50280     50282     50280     50283     50284     50285
     50286     50290     50286     50287     50286     50288     50286     50289
     50290     50291     50292     50296     50292     50293     50292     50294
     50292     50295     50296     50297     50298     50302     50298     50299
     50298     50300     50298     50301     50302     50303     50304     50308
     50304     50305     50304     50306     50304     50307     50308     50309
     50310     50314     50310     50311     50310     50312     50310     50313
     50314     50315     50316     50320     50316     50317     50316     50318
     50316     50319     50320     50321     50322     50326     50322     50323
     50322     50324     50322     50325     50326     50327     50328     50332
     50328     50329     50328     50330     50328     50331     50332     50333
     50334     50338     50334     50335     50334     50336     50334     50337
     50338     50339     50340     50344     50340     50341     50340     50342
     50340     50343     50344     50345     50346     50350     50346     50347
     50346     50348     50346     50349     50350     50351     50352     50356
     50352     50353     50352     50354     50352     50355     50356     50357
     50358     50362     50358     50359     50358     50360     50358     50361
     50362     50363     50364     50368     50364     50365     50364     50366
     50364     50367     50368     50369     50370     50374     50370     50371
     50370     50372     50370     50373     50374     50375     50376     50380
     50376     50377     50376     50378     50376     50379     50380     50381
     50382     50386     50382     50383     50382     50384     50382     50385
     50386     50387     50388     50392     50388     50389     50388     50390
     50388     50391     50392     50393     50394     50398     50394     50395
     50394     50396     50394     50397     50398     50399     50400     50404
     50400     50401     50400     50402     50400     50403     50404     50405
     50406     50410     50406     50407     50406     50408     50406     50409
     50410     50411     50412     50416     50412     50413     50412     50414
     50412     50415     50416     50417     50418     50422     50418     50419
     50418     50420     50418     50421     50422     50423     50424     50428
     50424     50425     50424     50426     50424     50427     50428     50429
     50430     50434     50430     50431     50430     50432     50430     50433
     50434     50435     50436     50440     50436     50437     50436     50438
     50436     50439     50440     50441     50442     50446     50442     50443
     50442     50444     50442     50445     50446     50447     50448     50452
     50448     50449     50448     50450     50448     50451     50452     50453
     50454     50458     50454     50455     50454     50456     50454     50457
     50458     50459     50460     50464     50460     50461     50460     50462
     50460     50463     50464     50465     50466     50470     50466     50467
     50466     50468     50466     50469     50470     50471     50472     50476
     50472     50473     50472     50474     50472     50475     50476     50477
     50478     50482     50478     50479     50478     50480     50478     50481
     50482     50483     50484     50488     50484     50485     50484     50486
     50484     50487     50488     50489     50490     50494     50490     50491
     50490     50492     50490     50493     50494     50495     50496     50500
     50496     50497     50496     50498     50496     50499     50500     50501
     50502     50506     50502     50503     50502     50504     50502     50505
     50506     50507     50508     50512     50508     50509     50508     50510
     50508     50511     50512     50513     50514     50518     50514     50515
     50514     50516     50514     50517     50518     50519     50520     50524
     50520     50521     50520     50522     50520     50523     50524     50525
     50526     50530     50526     50527     50526     50528     50526     50529
     50530     50531     50532     50536     50532     50533     50532     50534
     50532     50535     50536     50537     50538     50542     50538     50539
     50538     50540     50538     50541     50542     50543     50544     50548
     50544     50545     50544     50546     50544     50547     50548     50549
     50550     50554     50550     50551     50550     50552     50550     50553
     50554     50555     50556     50560     50556     50557     50556     50558
     50556     50559     50560     50561     50562     50566     50562     50563
     50562     50564     50562     50565     50566     50567     50568     50572
     50568     50569     50568     50570     50568     50571     50572     50573
     50574     50578     50574     50575     50574     50576     50574     50577
     50578     50579     50580     50584     50580     50581     50580     50582
     50580     50583     50584     50585     50586     50590     50586     50587
     50586     50588     50586     50589     50590     50591     50592     50596
     50592     50593     50592     50594     50592     50595     50596     50597
     50598     50602     50598     50599     50598     50600     50598     50601
     50602     50603     50604     50608     50604     50605     50604     50606
     50604     50607     50608     50609     50610     50614     50610     50611
     50610     50612     50610     50613     50614     50615     50616     50620
     50616     50617     50616     50618     50616     50619     50620     50621
     50622     50626     50622     50623     50622     50624     50622     50625
     50626     50627     50628     50632     50628     50629     50628     50630
     50628     50631     50632     50633     50634     50638     50634     50635
     50634     50636     50634     50637     50638     50639     50640     50644
     50640     50641     50640     50642     50640     50643     50644     50645
     50646     50650     50646     50647     50646     50648     50646     50649
     50650     50651     50652     50656     50652     50653     50652     50654
     50652     50655     50656     50657     50658     50662     50658     50659
     50658     50660     50658     50661     50662     50663     50664     50668
     50664     50665     50664     50666     50664     50667     50668     50669
     50670     50674     50670     50671     50670     50672     50670     50673
     50674     50675     50676     50680     50676     50677     50676     50678
     50676     50679     50680     50681     50682     50686     50682     50683
     50682     50684     50682     50685     50686     50687     50688     50692
     50688     50689     50688     50690     50688     50691     50692     50693
     50694     50698     50694     50695     50694     50696     50694     50697
     50698     50699     50700     50704     50700     50701     50700     50702
     50700     50703     50704     50705     50706     50710     50706     50707
     50706     50708     50706     50709     50710     50711     50712     50716
     50712     50713     50712     50714     50712     50715     50716     50717
     50718     50722     50718     50719     50718     50720     50718     50721
     50722     50723     50724     50728     50724     50725     50724     50726
     50724     50727     50728     50729     50730     50734     50730     50731
     50730     50732     50730     50733     50734     50735     50736     50740
     50736     50737     50736     50738     50736     50739     50740     50741
     50742     50746     50742     50743     50742     50744     50742     50745
     50746     50747     50748     50752     50748     50749     50748     50750
     50748     50751     50752     50753     50754     50758     50754     50755
     50754     50756     50754     50757     50758     50759     50760     50764
     50760     50761     50760     50762     50760     50763     50764     50765
     50766     50770     50766     50767     50766     50768     50766     50769
     50770     50771     50772     50776     50772     50773     50772     50774
     50772     50775     50776     50777     50778     50782     50778     50779
     50778     50780     50778     50781     50782     50783     50784     50788
     50784     50785     50784     50786     50784     50787     50788     50789
     50790     50794     50790     50791     50790     50792     50790     50793
     50794     50795     50796     50800     50796     50797     50796     50798
     50796     50799     50800     50801     50802     50806     50802     50803
     50802     50804     50802     50805     50806     50807     50808     50812
     50808     50809     50808     50810     50808     50811     50812     50813
     50814     50818     50814     50815     50814     50816     50814     50817
     50818     50819     50820     50824     50820     50821     50820     50822
     50820     50823     50824     50825     50826     50830     50826     50827
     50826     50828     50826     50829     50830     50831     50832     50836
     50832     50833     50832     50834     50832     50835     50836     50837
     50838     50842     50838     50839     50838     50840     50838     50841
     50842     50843     50844     50848     50844     50845     50844     50846
     50844     50847     50848     50849     50850     50854     50850     50851
     50850     50852     50850     50853     50854     50855     50856     50860
     50856     50857     50856     50858     50856     50859     50860     50861
     50862     50866     50862     50863     50862     50864     50862     50865
     50866     50867     50868     50872     50868     50869     50868     50870
     50868     50871     50872     50873     50874     50878     50874     50875
     50874     50876     50874     50877     50878     50879     50880     50884
     50880     50881     50880     50882     50880     50883     50884     50885
     50886     50890     50886     50887     50886     50888     50886     50889
     50890     50891     50892     50896     50892     50893     50892     50894
     50892     50895     50896     50897     50898     50902     50898     50899
     50898     50900     50898     50901     50902     50903     50904     50908
     50904     50905     50904     50906     50904     50907     50908     50909
     50910     50914     50910     50911     50910     50912     50910     50913
     50914     50915     50916     50920     50916     50917     50916     50918
     50916     50919     50920     50921     50922     50926     50922     50923
     50922     50924     50922     50925     50926     50927     50928     50932
     50928     50929     50928     50930     50928     50931     50932     50933
     50934     50938     50934     50935     50934     50936     50934     50937
     50938     50939     50940     50944     50940     50941     50940     50942
     50940     50943     50944     50945     50946     50950     50946     50947
     50946     50948     50946     50949     50950     50951     50952     50956
     50952     50953     50952     50954     50952     50955     50956     50957
     50958     50962     50958     50959     50958     50960     50958     50961
     50962     50963     50964     50968     50964     50965     50964     50966
     50964     50967     50968     50969     50970     50974     50970     50971
     50970     50972     50970     50973     50974     50975     50976     50980
     50976     50977     50976     50978     50976     50979     50980     50981
     50982     50986     50982     50983     50982     50984     50982     50985
     50986     50987     50988     50992     50988     50989     50988     50990
     50988     50991     50992     50993     50994     50998     50994     50995
     50994     50996     50994     50997     50998     50999     51000     51004
     51000     51001     51000     51002     51000     51003     51004     51005
     51006     51010     51006     51007     51006     51008     51006     51009
     51010     51011     51012     51016     51012     51013     51012     51014
     51012     51015     51016     51017     51018     51022     51018     51019
     51018     51020     51018     51021     51022     51023     51024     51028
     51024     51025     51024     51026     51024     51027     51028     51029
     51030     51034     51030     51031     51030     51032     51030     51033
     51034     51035     51036     51040     51036     51037     51036     51038
     51036     51039     51040     51041     51042     51046     51042     51043
     51042     51044     51042     51045     51046     51047     51048     51052
     51048     51049     51048     51050     51048     51051     51052     51053
     51054     51058     51054     51055     51054     51056     51054     51057
     51058     51059     51060     51064     51060     51061     51060     51062
     51060     51063     51064     51065     51066     51070     51066     51067
     51066     51068     51066     51069     51070     51071     51072     51076
     51072     51073     51072     51074     51072     51075     51076     51077
     51078     51082     51078     51079     51078     51080     51078     51081
     51082     51083     51084     51088     51084     51085     51084     51086
     51084     51087     51088     51089     51090     51094     51090     51091
     51090     51092     51090     51093     51094     51095     51096     51100
     51096     51097     51096     51098     51096     51099     51100     51101
     51102     51106     51102     51103     51102     51104     51102     51105
     51106     51107     51108     51112     51108     51109     51108     51110
     51108     51111     51112     51113     51114     51118     51114     51115
     51114     51116     51114     51117     51118     51119     51120     51124
     51120     51121     51120     51122     51120     51123     51124     51125
     51126     51130     51126     51127     51126     51128     51126     51129
     51130     51131     51132     51136     51132     51133     51132     51134
     51132     51135     51136     51137     51138     51142     51138     51139
     51138     51140     51138     51141     51142     51143     51144     51148
     51144     51145     51144     51146     51144     51147     51148     51149
     51150     51154     51150     51151     51150     51152     51150     51153
     51154     51155     51156     51160     51156     51157     51156     51158
     51156     51159     51160     51161     51162     51166     51162     51163
     51162     51164     51162     51165     51166     51167     51168     51172
     51168     51169     51168     51170     51168     51171     51172     51173
     51174     51178     51174     51175     51174     51176     51174     51177
     51178     51179     51180     51184     51180     51181     51180     51182
     51180     51183     51184     51185     51186     51190     51186     51187
     51186     51188     51186     51189     51190     51191     51192     51196
     51192     51193     51192     51194     51192     51195     51196     51197
     51198     51202     51198     51199     51198     51200     51198     51201
     51202     51203     51204     51208     51204     51205     51204     51206
     51204     51207     51208     51209     51210     51214     51210     51211
     51210     51212     51210     51213     51214     51215     51216     51220
     51216     51217     51216     51218     51216     51219     51220     51221
     51222     51226     51222     51223     51222     51224     51222     51225
     51226     51227     51228     51232     51228     51229     51228     51230
     51228     51231     51232     51233     51234     51238     51234     51235
     51234     51236     51234     51237     51238     51239     51240     51244
     51240     51241     51240     51242     51240     51243     51244     51245
     51246     51250     51246     51247     51246     51248     51246     51249
     51250     51251     51252     51256     51252     51253     51252     51254
     51252     51255     51256     51257     51258     51262     51258     51259
     51258     51260     51258     51261     51262     51263     51264     51268
     51264     51265     51264     51266     51264     51267     51268     51269
     51270     51274     51270     51271     51270     51272     51270     51273
     51274     51275     51276     51280     51276     51277     51276     51278
     51276     51279     51280     51281     51282     51286     51282     51283
     51282     51284     51282     51285     51286     51287     51288     51292
     51288     51289     51288     51290     51288     51291     51292     51293
     51294     51298     51294     51295     51294     51296     51294     51297
     51298     51299     51300     51304     51300     51301     51300     51302
     51300     51303     51304     51305     51306     51310     51306     51307
     51306     51308     51306     51309     51310     51311     51312     51316
     51312     51313     51312     51314     51312     51315     51316     51317
     51318     51322     51318     51319     51318     51320     51318     51321
     51322     51323     51324     51328     51324     51325     51324     51326
     51324     51327     51328     51329     51330     51334     51330     51331
     51330     51332     51330     51333     51334     51335     51336     51340
     51336     51337     51336     51338     51336     51339     51340     51341
     51342     51346     51342     51343     51342     51344     51342     51345
     51346     51347     51348     51352     51348     51349     51348     51350
     51348     51351     51352     51353     51354     51358     51354     51355
     51354     51356     51354     51357     51358     51359     51360     51364
     51360     51361     51360     51362     51360     51363     51364     51365
     51366     51370     51366     51367     51366     51368     51366     51369
     51370     51371     51372     51376     51372     51373     51372     51374
     51372     51375     51376     51377     51378     51382     51378     51379
     51378     51380     51378     51381     51382     51383     51384     51388
     51384     51385     51384     51386     51384     51387     51388     51389
     51390     51394     51390     51391     51390     51392     51390     51393
     51394     51395     51396     51400     51396     51397     51396     51398
     51396     51399     51400     51401     51402     51406     51402     51403
     51402     51404     51402     51405     51406     51407     51408     51412
     51408     51409     51408     51410     51408     51411     51412     51413
     51414     51418     51414     51415     51414     51416     51414     51417
     51418     51419     51420     51424     51420     51421     51420     51422
     51420     51423     51424     51425     51426     51430     51426     51427
     51426     51428     51426     51429     51430     51431     51432     51436
     51432     51433     51432     51434     51432     51435     51436     51437
     51438     51442     51438     51439     51438     51440     51438     51441
     51442     51443     51444     51448     51444     51445     51444     51446
     51444     51447     51448     51449     51450     51454     51450     51451
     51450     51452     51450     51453     51454     51455     51456     51460
     51456     51457     51456     51458     51456     51459     51460     51461
     51462     51466     51462     51463     51462     51464     51462     51465
     51466     51467     51468     51472     51468     51469     51468     51470
     51468     51471     51472     51473     51474     51478     51474     51475
     51474     51476     51474     51477     51478     51479     51480     51484
     51480     51481     51480     51482     51480     51483     51484     51485
     51486     51490     51486     51487     51486     51488     51486     51489
     51490     51491     51492     51496     51492     51493     51492     51494
     51492     51495     51496     51497     51498     51502     51498     51499
     51498     51500     51498     51501     51502     51503     51504     51508
     51504     51505     51504     51506     51504     51507     51508     51509
     51510     51514     51510     51511     51510     51512     51510     51513
     51514     51515     51516     51520     51516     51517     51516     51518
     51516     51519     51520     51521     51522     51526     51522     51523
     51522     51524     51522     51525     51526     51527     51528     51532
     51528     51529     51528     51530     51528     51531     51532     51533
     51534     51538     51534     51535     51534     51536     51534     51537
     51538     51539     51540     51544     51540     51541     51540     51542
     51540     51543     51544     51545     51546     51550     51546     51547
     51546     51548     51546     51549     51550     51551     51552     51556
     51552     51553     51552     51554     51552     51555     51556     51557
     51558     51562     51558     51559     51558     51560     51558     51561
     51562     51563     51564     51568     51564     51565     51564     51566
     51564     51567     51568     51569     51570     51574     51570     51571
     51570     51572     51570     51573     51574     51575     51576     51580
     51576     51577     51576     51578     51576     51579     51580     51581
     51582     51586     51582     51583     51582     51584     51582     51585
     51586     51587     51588     51592     51588     51589     51588     51590
     51588     51591     51592     51593     51594     51598     51594     51595
     51594     51596     51594     51597     51598     51599     51600     51604
     51600     51601     51600     51602     51600     51603     51604     51605
     51606     51610     51606     51607     51606     51608     51606     51609
     51610     51611     51612     51616     51612     51613     51612     51614
     51612     51615     51616     51617     51618     51622     51618     51619
     51618     51620     51618     51621     51622     51623     51624     51628
     51624     51625     51624     51626     51624     51627     51628     51629
     51630     51634     51630     51631     51630     51632     51630     51633
     51634     51635     51636     51640     51636     51637     51636     51638
     51636     51639     51640     51641     51642     51646     51642     51643
     51642     51644     51642     51645     51646     51647     51648     51652
     51648     51649     51648     51650     51648     51651     51652     51653
     51654     51658     51654     51655     51654     51656     51654     51657
     51658     51659     51660     51664     51660     51661     51660     51662
     51660     51663     51664     51665     51666     51670     51666     51667
     51666     51668     51666     51669     51670     51671     51672     51676
     51672     51673     51672     51674     51672     51675     51676     51677
     51678     51682     51678     51679     51678     51680     51678     51681
     51682     51683     51684     51688     51684     51685     51684     51686
     51684     51687     51688     51689     51690     51694     51690     51691
     51690     51692     51690     51693     51694     51695     51696     51700
     51696     51697     51696     51698     51696     51699     51700     51701
     51702     51706     51702     51703     51702     51704     51702     51705
     51706     51707     51708     51712     51708     51709     51708     51710
     51708     51711     51712     51713     51714     51718     51714     51715
     51714     51716     51714     51717     51718     51719     51720     51724
     51720     51721     51720     51722     51720     51723     51724     51725
     51726     51730     51726     51727     51726     51728     51726     51729
     51730     51731     51732     51736     51732     51733     51732     51734
     51732     51735     51736     51737     51738     51742     51738     51739
     51738     51740     51738     51741     51742     51743     51744     51748
     51744     51745     51744     51746     51744     51747     51748     51749
     51750     51754     51750     51751     51750     51752     51750     51753
     51754     51755     51756     51760     51756     51757     51756     51758
     51756     51759     51760     51761     51762     51766     51762     51763
     51762     51764     51762     51765     51766     51767     51768     51772
     51768     51769     51768     51770     51768     51771     51772     51773
     51774     51778     51774     51775     51774     51776     51774     51777
     51778     51779     51780     51784     51780     51781     51780     51782
     51780     51783     51784     51785     51786     51790     51786     51787
     51786     51788     51786     51789     51790     51791     51792     51796
     51792     51793     51792     51794     51792     51795     51796     51797
     51798     51802     51798     51799     51798     51800     51798     51801
     51802     51803     51804     51808     51804     51805     51804     51806
     51804     51807     51808     51809     51810     51814     51810     51811
     51810     51812     51810     51813     51814     51815     51816     51820
     51816     51817     51816     51818     51816     51819     51820     51821
     51822     51826     51822     51823     51822     51824     51822     51825
     51826     51827     51828     51832     51828     51829     51828     51830
     51828     51831     51832     51833     51834     51838     51834     51835
     51834     51836     51834     51837     51838     51839     51840     51844
     51840     51841     51840     51842     51840     51843     51844     51845
     51846     51850     51846     51847     51846     51848     51846     51849
     51850     51851     51852     51856     51852     51853     51852     51854
     51852     51855     51856     51857     51858     51862     51858     51859
     51858     51860     51858     51861     51862     51863     51864     51868
     51864     51865     51864     51866     51864     51867     51868     51869
     51870     51874     51870     51871     51870     51872     51870     51873
     51874     51875     51876     51880     51876     51877     51876     51878
     51876     51879     51880     51881     51882     51886     51882     51883
     51882     51884     51882     51885     51886     51887     51888     51892
     51888     51889     51888     51890     51888     51891     51892     51893
     51894     51898     51894     51895     51894     51896     51894     51897
     51898     51899     51900     51904     51900     51901     51900     51902
     51900     51903     51904     51905     51906     51910     51906     51907
     51906     51908     51906     51909     51910     51911     51912     51916
     51912     51913     51912     51914     51912     51915     51916     51917
     51918     51922     51918     51919     51918     51920     51918     51921
     51922     51923     51924     51928     51924     51925     51924     51926
     51924     51927     51928     51929     51930     51934     51930     51931
     51930     51932     51930     51933     51934     51935     51936     51940
     51936     51937     51936     51938     51936     51939     51940     51941
     51942     51946     51942     51943     51942     51944     51942     51945
     51946     51947     51948     51952     51948     51949     51948     51950
     51948     51951     51952     51953     51954     51958     51954     51955
     51954     51956     51954     51957     51958     51959     51960     51964
     51960     51961     51960     51962     51960     51963     51964     51965
     51966     51970     51966     51967     51966     51968     51966     51969
     51970     51971     51972     51976     51972     51973     51972     51974
     51972     51975     51976     51977     51978     51982     51978     51979
     51978     51980     51978     51981     51982     51983     51984     51988
     51984     51985     51984     51986     51984     51987     51988     51989
     51990     51994     51990     51991     51990     51992     51990     51993
     51994     51995     51996     52000     51996     51997     51996     51998
     51996     51999     52000     52001     52002     52006     52002     52003
     52002     52004     52002     52005     52006     52007     52008     52012
     52008     52009     52008     52010     52008     52011     52012     52013
     52014     52018     52014     52015     52014     52016     52014     52017
     52018     52019     52020     52024     52020     52021     52020     52022
     52020     52023     52024     52025     52026     52030     52026     52027
     52026     52028     52026     52029     52030     52031     52032     52036
     52032     52033     52032     52034     52032     52035     52036     52037
     52038     52042     52038     52039     52038     52040     52038     52041
     52042     52043     52044     52048     52044     52045     52044     52046
     52044     52047     52048     52049     52050     52054     52050     52051
     52050     52052     52050     52053     52054     52055     52056     52060
     52056     52057     52056     52058     52056     52059     52060     52061
     52062     52066     52062     52063     52062     52064     52062     52065
     52066     52067     52068     52072     52068     52069     52068     52070
     52068     52071     52072     52073     52074     52078     52074     52075
     52074     52076     52074     52077     52078     52079     52080     52084
     52080     52081     52080     52082     52080     52083     52084     52085
     52086     52090     52086     52087     52086     52088     52086     52089
     52090     52091     52092     52096     52092     52093     52092     52094
     52092     52095     52096     52097     52098     52102     52098     52099
     52098     52100     52098     52101     52102     52103     52104     52108
     52104     52105     52104     52106     52104     52107     52108     52109
     52110     52114     52110     52111     52110     52112     52110     52113
     52114     52115     52116     52120     52116     52117     52116     52118
     52116     52119     52120     52121     52122     52126     52122     52123
     52122     52124     52122     52125     52126     52127     52128     52132
     52128     52129     52128     52130     52128     52131     52132     52133
     52134     52138     52134     52135     52134     52136     52134     52137
     52138     52139     52140     52144     52140     52141     52140     52142
     52140     52143     52144     52145     52146     52150     52146     52147
     52146     52148     52146     52149     52150     52151     52152     52156
     52152     52153     52152     52154     52152     52155     52156     52157
     52158     52162     52158     52159     52158     52160     52158     52161
     52162     52163     52164     52168     52164     52165     52164     52166
     52164     52167     52168     52169     52170     52174     52170     52171
     52170     52172     52170     52173     52174     52175     52176     52180
     52176     52177     52176     52178     52176     52179     52180     52181
     52182     52186     52182     52183     52182     52184     52182     52185
     52186     52187     52188     52192     52188     52189     52188     52190
     52188     52191     52192     52193     52194     52198     52194     52195
     52194     52196     52194     52197     52198     52199     52200     52204
     52200     52201     52200     52202     52200     52203     52204     52205
     52206     52210     52206     52207     52206     52208     52206     52209
     52210     52211     52212     52216     52212     52213     52212     52214
     52212     52215     52216     52217     52218     52222     52218     52219
     52218     52220     52218     52221     52222     52223     52224     52228
     52224     52225     52224     52226     52224     52227     52228     52229
     52230     52234     52230     52231     52230     52232     52230     52233
     52234     52235     52236     52240     52236     52237     52236     52238
     52236     52239     52240     52241     52242     52246     52242     52243
     52242     52244     52242     52245     52246     52247     52248     52252
     52248     52249     52248     52250     52248     52251     52252     52253
     52254     52258     52254     52255     52254     52256     52254     52257
     52258     52259     52260     52264     52260     52261     52260     52262
     52260     52263     52264     52265     52266     52270     52266     52267
     52266     52268     52266     52269     52270     52271     52272     52276
     52272     52273     52272     52274     52272     52275     52276     52277
     52278     52282     52278     52279     52278     52280     52278     52281
     52282     52283     52284     52288     52284     52285     52284     52286
     52284     52287     52288     52289     52290     52294     52290     52291
     52290     52292     52290     52293     52294     52295     52296     52300
     52296     52297     52296     52298     52296     52299     52300     52301
     52302     52306     52302     52303     52302     52304     52302     52305
     52306     52307     52308     52312     52308     52309     52308     52310
     52308     52311     52312     52313     52314     52318     52314     52315
     52314     52316     52314     52317     52318     52319     52320     52324
     52320     52321     52320     52322     52320     52323     52324     52325
     52326     52330     52326     52327     52326     52328     52326     52329
     52330     52331     52332     52336     52332     52333     52332     52334
     52332     52335     52336     52337     52338     52342     52338     52339
     52338     52340     52338     52341     52342     52343     52344     52348
     52344     52345     52344     52346     52344     52347     52348     52349
     52350     52354     52350     52351     52350     52352     52350     52353
     52354     52355     52356     52360     52356     52357     52356     52358
     52356     52359     52360     52361     52362     52366     52362     52363
     52362     52364     52362     52365     52366     52367     52368     52372
     52368     52369     52368     52370     52368     52371     52372     52373
     52374     52378     52374     52375     52374     52376     52374     52377
     52378     52379     52380     52384     52380     52381     52380     52382
     52380     52383     52384     52385     52386     52390     52386     52387
     52386     52388     52386     52389     52390     52391     52392     52396
     52392     52393     52392     52394     52392     52395     52396     52397
     52398     52402     52398     52399     52398     52400     52398     52401
     52402     52403     52404     52408     52404     52405     52404     52406
     52404     52407     52408     52409     52410     52414     52410     52411
     52410     52412     52410     52413     52414     52415     52416     52420
     52416     52417     52416     52418     52416     52419     52420     52421
     52422     52426     52422     52423     52422     52424     52422     52425
     52426     52427     52428     52432     52428     52429     52428     52430
     52428     52431     52432     52433     52434     52438     52434     52435
     52434     52436     52434     52437     52438     52439     52440     52444
     52440     52441     52440     52442     52440     52443     52444     52445
     52446     52450     52446     52447     52446     52448     52446     52449
     52450     52451     52452     52456     52452     52453     52452     52454
     52452     52455     52456     52457     52458     52462     52458     52459
     52458     52460     52458     52461     52462     52463     52464     52468
     52464     52465     52464     52466     52464     52467     52468     52469
     52470     52474     52470     52471     52470     52472     52470     52473
     52474     52475     52476     52480     52476     52477     52476     52478
     52476     52479     52480     52481     52482     52486     52482     52483
     52482     52484     52482     52485     52486     52487     52488     52492
     52488     52489     52488     52490     52488     52491     52492     52493
     52494     52498     52494     52495     52494     52496     52494     52497
     52498     52499     52500     52504     52500     52501     52500     52502
     52500     52503     52504     52505     52506     52510     52506     52507
     52506     52508     52506     52509     52510     52511     52512     52516
     52512     52513     52512     52514     52512     52515     52516     52517
     52518     52522     52518     52519     52518     52520     52518     52521
     52522     52523     52524     52528     52524     52525     52524     52526
     52524     52527     52528     52529     52530     52534     52530     52531
     52530     52532     52530     52533     52534     52535     52536     52540
     52536     52537     52536     52538     52536     52539     52540     52541
     52542     52546     52542     52543     52542     52544     52542     52545
     52546     52547     52548     52552     52548     52549     52548     52550
     52548     52551     52552     52553     52554     52558     52554     52555
     52554     52556     52554     52557     52558     52559     52560     52564
     52560     52561     52560     52562     52560     52563     52564     52565
     52566     52570     52566     52567     52566     52568     52566     52569
     52570     52571     52572     52576     52572     52573     52572     52574
     52572     52575     52576     52577     52578     52582     52578     52579
     52578     52580     52578     52581     52582     52583     52584     52588
     52584     52585     52584     52586     52584     52587     52588     52589
     52590     52594     52590     52591     52590     52592     52590     52593
     52594     52595     52596     52600     52596     52597     52596     52598
     52596     52599     52600     52601     52602     52606     52602     52603
     52602     52604     52602     52605     52606     52607     52608     52612
     52608     52609     52608     52610     52608     52611     52612     52613
     52614     52618     52614     52615     52614     52616     52614     52617
     52618     52619     52620     52624     52620     52621     52620     52622
     52620     52623     52624     52625     52626     52630     52626     52627
     52626     52628     52626     52629     52630     52631     52632     52636
     52632     52633     52632     52634     52632     52635     52636     52637
     52638     52642     52638     52639     52638     52640     52638     52641
     52642     52643     52644     52648     52644     52645     52644     52646
     52644     52647     52648     52649     52650     52654     52650     52651
     52650     52652     52650     52653     52654     52655     52656     52660
     52656     52657     52656     52658     52656     52659     52660     52661
     52662     52666     52662     52663     52662     52664     52662     52665
     52666     52667     52668     52672     52668     52669     52668     52670
     52668     52671     52672     52673     52674     52678     52674     52675
     52674     52676     52674     52677     52678     52679     52680     52684
     52680     52681     52680     52682     52680     52683     52684     52685
     52686     52690     52686     52687     52686     52688     52686     52689
     52690     52691     52692     52696     52692     52693     52692     52694
     52692     52695     52696     52697     52698     52702     52698     52699
     52698     52700     52698     52701     52702     52703     52704     52708
     52704     52705     52704     52706     52704     52707     52708     52709
     52710     52714     52710     52711     52710     52712     52710     52713
     52714     52715     52716     52720     52716     52717     52716     52718
     52716     52719     52720     52721     52722     52726     52722     52723
     52722     52724     52722     52725     52726     52727     52728     52732
     52728     52729     52728     52730     52728     52731     52732     52733
     52734     52738     52734     52735     52734     52736     52734     52737
     52738     52739     52740     52744     52740     52741     52740     52742
     52740     52743     52744     52745     52746     52750     52746     52747
     52746     52748     52746     52749     52750     52751     52752     52756
     52752     52753     52752     52754     52752     52755     52756     52757
     52758     52762     52758     52759     52758     52760     52758     52761
     52762     52763     52764     52768     52764     52765     52764     52766
     52764     52767     52768     52769     52770     52774     52770     52771
     52770     52772     52770     52773     52774     52775     52776     52780
     52776     52777     52776     52778     52776     52779     52780     52781
     52782     52786     52782     52783     52782     52784     52782     52785
     52786     52787     52788     52792     52788     52789     52788     52790
     52788     52791     52792     52793     52794     52798     52794     52795
     52794     52796     52794     52797     52798     52799     52800     52804
     52800     52801     52800     52802     52800     52803     52804     52805
     52806     52810     52806     52807     52806     52808     52806     52809
     52810     52811     52812     52816     52812     52813     52812     52814
     52812     52815     52816     52817     52818     52822     52818     52819
     52818     52820     52818     52821     52822     52823     52824     52828
     52824     52825     52824     52826     52824     52827     52828     52829
     52830     52834     52830     52831     52830     52832     52830     52833
     52834     52835     52836     52840     52836     52837     52836     52838
     52836     52839     52840     52841     52842     52846     52842     52843
     52842     52844     52842     52845     52846     52847     52848     52852
     52848     52849     52848     52850     52848     52851     52852     52853
     52854     52858     52854     52855     52854     52856     52854     52857
     52858     52859     52860     52864     52860     52861     52860     52862
     52860     52863     52864     52865     52866     52870     52866     52867
     52866     52868     52866     52869     52870     52871     52872     52876
     52872     52873     52872     52874     52872     52875     52876     52877
     52878     52882     52878     52879     52878     52880     52878     52881
     52882     52883     52884     52888     52884     52885     52884     52886
     52884     52887     52888     52889     52890     52894     52890     52891
     52890     52892     52890     52893     52894     52895     52896     52900
     52896     52897     52896     52898     52896     52899     52900     52901
     52902     52906     52902     52903     52902     52904     52902     52905
     52906     52907     52908     52912     52908     52909     52908     52910
     52908     52911     52912     52913     52914     52918     52914     52915
     52914     52916     52914     52917     52918     52919     52920     52924
     52920     52921     52920     52922     52920     52923     52924     52925
     52926     52930     52926     52927     52926     52928     52926     52929
     52930     52931     52932     52936     52932     52933     52932     52934
     52932     52935     52936     52937     52938     52942     52938     52939
     52938     52940     52938     52941     52942     52943     52944     52948
     52944     52945     52944     52946     52944     52947     52948     52949
     52950     52954     52950     52951     52950     52952     52950     52953
     52954     52955     52956     52960     52956     52957     52956     52958
     52956     52959     52960     52961     52962     52966     52962     52963
     52962     52964     52962     52965     52966     52967     52968     52972
     52968     52969     52968     52970     52968     52971     52972     52973
     52974     52978     52974     52975     52974     52976     52974     52977
     52978     52979     52980     52984     52980     52981     52980     52982
     52980     52983     52984     52985     52986     52990     52986     52987
     52986     52988     52986     52989     52990     52991     52992     52996
     52992     52993     52992     52994     52992     52995     52996     52997
     52998     53002     52998     52999     52998     53000     52998     53001
     53002     53003     53004     53008     53004     53005     53004     53006
     53004     53007     53008     53009     53010     53014     53010     53011
     53010     53012     53010     53013     53014     53015     53016     53020
     53016     53017     53016     53018     53016     53019     53020     53021
     53022     53026     53022     53023     53022     53024     53022     53025
     53026     53027     53028     53032     53028     53029     53028     53030
     53028     53031     53032     53033     53034     53038     53034     53035
     53034     53036     53034     53037     53038     53039     53040     53044
     53040     53041     53040     53042     53040     53043     53044     53045
     53046     53050     53046     53047     53046     53048     53046     53049
     53050     53051     53052     53056     53052     53053     53052     53054
     53052     53055     53056     53057     53058     53062     53058     53059
     53058     53060     53058     53061     53062     53063     53064     53068
     53064     53065     53064     53066     53064     53067     53068     53069
     53070     53074     53070     53071     53070     53072     53070     53073
     53074     53075     53076     53080     53076     53077     53076     53078
     53076     53079     53080     53081     53082     53086     53082     53083
     53082     53084     53082     53085     53086     53087     53088     53092
     53088     53089     53088     53090     53088     53091     53092     53093
     53094     53098     53094     53095     53094     53096     53094     53097
     53098     53099     53100     53104     53100     53101     53100     53102
     53100     53103     53104     53105     53106     53110     53106     53107
     53106     53108     53106     53109     53110     53111     53112     53116
     53112     53113     53112     53114     53112     53115     53116     53117
     53118     53122     53118     53119     53118     53120     53118     53121
     53122     53123     53124     53128     53124     53125     53124     53126
     53124     53127     53128     53129     53130     53134     53130     53131
     53130     53132     53130     53133     53134     53135     53136     53140
     53136     53137     53136     53138     53136     53139     53140     53141
     53142     53146     53142     53143     53142     53144     53142     53145
     53146     53147     53148     53152     53148     53149     53148     53150
     53148     53151     53152     53153     53154     53158     53154     53155
     53154     53156     53154     53157     53158     53159     53160     53164
     53160     53161     53160     53162     53160     53163     53164     53165
     53166     53170     53166     53167     53166     53168     53166     53169
     53170     53171     53172     53176     53172     53173     53172     53174
     53172     53175     53176     53177     53178     53182     53178     53179
     53178     53180     53178     53181     53182     53183     53184     53188
     53184     53185     53184     53186     53184     53187     53188     53189
     53190     53194     53190     53191     53190     53192     53190     53193
     53194     53195     53196     53200     53196     53197     53196     53198
     53196     53199     53200     53201     53202     53206     53202     53203
     53202     53204     53202     53205     53206     53207     53208     53212
     53208     53209     53208     53210     53208     53211     53212     53213
     53214     53218     53214     53215     53214     53216     53214     53217
     53218     53219     53220     53224     53220     53221     53220     53222
     53220     53223     53224     53225     53226     53230     53226     53227
     53226     53228     53226     53229     53230     53231     53232     53236
     53232     53233     53232     53234     53232     53235     53236     53237
     53238     53242     53238     53239     53238     53240     53238     53241
     53242     53243     53244     53248     53244     53245     53244     53246
     53244     53247     53248     53249     53250     53254     53250     53251
     53250     53252     53250     53253     53254     53255     53256     53260
     53256     53257     53256     53258     53256     53259     53260     53261
     53262     53266     53262     53263     53262     53264     53262     53265
     53266     53267     53268     53272     53268     53269     53268     53270
     53268     53271     53272     53273     53274     53278     53274     53275
     53274     53276     53274     53277     53278     53279     53280     53284
     53280     53281     53280     53282     53280     53283     53284     53285
     53286     53290     53286     53287     53286     53288     53286     53289
     53290     53291     53292     53296     53292     53293     53292     53294
     53292     53295     53296     53297     53298     53302     53298     53299
     53298     53300     53298     53301     53302     53303     53304     53308
     53304     53305     53304     53306     53304     53307     53308     53309
     53310     53314     53310     53311     53310     53312     53310     53313
     53314     53315     53316     53320     53316     53317     53316     53318
     53316     53319     53320     53321     53322     53326     53322     53323
     53322     53324     53322     53325     53326     53327     53328     53332
     53328     53329     53328     53330     53328     53331     53332     53333
     53334     53338     53334     53335     53334     53336     53334     53337
     53338     53339     53340     53344     53340     53341     53340     53342
     53340     53343     53344     53345     53346     53350     53346     53347
     53346     53348     53346     53349     53350     53351     53352     53356
     53352     53353     53352     53354     53352     53355     53356     53357
     53358     53362     53358     53359     53358     53360     53358     53361
     53362     53363     53364     53368     53364     53365     53364     53366
     53364     53367     53368     53369     53370     53374     53370     53371
     53370     53372     53370     53373     53374     53375     53376     53380
     53376     53377     53376     53378     53376     53379     53380     53381
     53382     53386     53382     53383     53382     53384     53382     53385
     53386     53387     53388     53392     53388     53389     53388     53390
     53388     53391     53392     53393     53394     53398     53394     53395
     53394     53396     53394     53397     53398     53399     53400     53404
     53400     53401     53400     53402     53400     53403     53404     53405
     53406     53410     53406     53407     53406     53408     53406     53409
     53410     53411     53412     53416     53412     53413     53412     53414
     53412     53415     53416     53417     53418     53422     53418     53419
     53418     53420     53418     53421     53422     53423     53424     53428
     53424     53425     53424     53426     53424     53427     53428     53429
     53430     53434     53430     53431     53430     53432     53430     53433
     53434     53435     53436     53440     53436     53437     53436     53438
     53436     53439     53440     53441     53442     53446     53442     53443
     53442     53444     53442     53445     53446     53447     53448     53452
     53448     53449     53448     53450     53448     53451     53452     53453
     53454     53458     53454     53455     53454     53456     53454     53457
     53458     53459     53460     53464     53460     53461     53460     53462
     53460     53463     53464     53465     53466     53470     53466     53467
     53466     53468     53466     53469     53470     53471     53472     53476
     53472     53473     53472     53474     53472     53475     53476     53477
     53478     53482     53478     53479     53478     53480     53478     53481
     53482     53483     53484     53488     53484     53485     53484     53486
     53484     53487     53488     53489     53490     53494     53490     53491
     53490     53492     53490     53493     53494     53495     53496     53500
     53496     53497     53496     53498     53496     53499     53500     53501
     53502     53506     53502     53503     53502     53504     53502     53505
     53506     53507     53508     53512     53508     53509     53508     53510
     53508     53511     53512     53513     53514     53518     53514     53515
     53514     53516     53514     53517     53518     53519     53520     53524
     53520     53521     53520     53522     53520     53523     53524     53525
     53526     53530     53526     53527     53526     53528     53526     53529
     53530     53531     53532     53536     53532     53533     53532     53534
     53532     53535     53536     53537     53538     53542     53538     53539
     53538     53540     53538     53541     53542     53543     53544     53548
     53544     53545     53544     53546     53544     53547     53548     53549
     53550     53554     53550     53551     53550     53552     53550     53553
     53554     53555     53556     53560     53556     53557     53556     53558
     53556     53559     53560     53561     53562     53566     53562     53563
     53562     53564     53562     53565     53566     53567     53568     53572
     53568     53569     53568     53570     53568     53571     53572     53573
     53574     53578     53574     53575     53574     53576     53574     53577
     53578     53579     53580     53584     53580     53581     53580     53582
     53580     53583     53584     53585     53586     53590     53586     53587
     53586     53588     53586     53589     53590     53591     53592     53596
     53592     53593     53592     53594     53592     53595     53596     53597
     53598     53602     53598     53599     53598     53600     53598     53601
     53602     53603     53604     53608     53604     53605     53604     53606
     53604     53607     53608     53609     53610     53614     53610     53611
     53610     53612     53610     53613     53614     53615     53616     53620
     53616     53617     53616     53618     53616     53619     53620     53621
     53622     53626     53622     53623     53622     53624     53622     53625
     53626     53627     53628     53632     53628     53629     53628     53630
     53628     53631     53632     53633     53634     53638     53634     53635
     53634     53636     53634     53637     53638     53639     53640     53644
     53640     53641     53640     53642     53640     53643     53644     53645
     53646     53650     53646     53647     53646     53648     53646     53649
     53650     53651     53652     53656     53652     53653     53652     53654
     53652     53655     53656     53657     53658     53662     53658     53659
     53658     53660     53658     53661     53662     53663     53664     53668
     53664     53665     53664     53666     53664     53667     53668     53669
     53670     53674     53670     53671     53670     53672     53670     53673
     53674     53675     53676     53680     53676     53677     53676     53678
     53676     53679     53680     53681     53682     53686     53682     53683
     53682     53684     53682     53685     53686     53687     53688     53692
     53688     53689     53688     53690     53688     53691     53692     53693
     53694     53698     53694     53695     53694     53696     53694     53697
     53698     53699     53700     53704     53700     53701     53700     53702
     53700     53703     53704     53705     53706     53710     53706     53707
     53706     53708     53706     53709     53710     53711     53712     53716
     53712     53713     53712     53714     53712     53715     53716     53717
     53718     53722     53718     53719     53718     53720     53718     53721
     53722     53723     53724     53728     53724     53725     53724     53726
     53724     53727     53728     53729     53730     53734     53730     53731
     53730     53732     53730     53733     53734     53735     53736     53740
     53736     53737     53736     53738     53736     53739     53740     53741
     53742     53746     53742     53743     53742     53744     53742     53745
     53746     53747     53748     53752     53748     53749     53748     53750
     53748     53751     53752     53753     53754     53758     53754     53755
     53754     53756     53754     53757     53758     53759     53760     53764
     53760     53761     53760     53762     53760     53763     53764     53765
     53766     53770     53766     53767     53766     53768     53766     53769
     53770     53771     53772     53776     53772     53773     53772     53774
     53772     53775     53776     53777     53778     53782     53778     53779
     53778     53780     53778     53781     53782     53783     53784     53788
     53784     53785     53784     53786     53784     53787     53788     53789
     53790     53794     53790     53791     53790     53792     53790     53793
     53794     53795     53796     53800     53796     53797     53796     53798
     53796     53799     53800     53801     53802     53806     53802     53803
     53802     53804     53802     53805     53806     53807     53808     53812
     53808     53809     53808     53810     53808     53811     53812     53813
     53814     53818     53814     53815     53814     53816     53814     53817
     53818     53819     53820     53824     53820     53821     53820     53822
     53820     53823     53824     53825     53826     53830     53826     53827
     53826     53828     53826     53829     53830     53831     53832     53836
     53832     53833     53832     53834     53832     53835     53836     53837
     53838     53842     53838     53839     53838     53840     53838     53841
     53842     53843     53844     53848     53844     53845     53844     53846
     53844     53847     53848     53849     53850     53854     53850     53851
     53850     53852     53850     53853     53854     53855     53856     53860
     53856     53857     53856     53858     53856     53859     53860     53861
     53862     53866     53862     53863     53862     53864     53862     53865
     53866     53867     53868     53872     53868     53869     53868     53870
     53868     53871     53872     53873     53874     53878     53874     53875
     53874     53876     53874     53877     53878     53879     53880     53884
     53880     53881     53880     53882     53880     53883     53884     53885
     53886     53890     53886     53887     53886     53888     53886     53889
     53890     53891     53892     53896     53892     53893     53892     53894
     53892     53895     53896     53897     53898     53902     53898     53899
     53898     53900     53898     53901     53902     53903     53904     53908
     53904     53905     53904     53906     53904     53907     53908     53909
     53910     53914     53910     53911     53910     53912     53910     53913
     53914     53915     53916     53920     53916     53917     53916     53918
     53916     53919     53920     53921     53922     53926     53922     53923
     53922     53924     53922     53925     53926     53927     53928     53932
     53928     53929     53928     53930     53928     53931     53932     53933
     53934     53938     53934     53935     53934     53936     53934     53937
     53938     53939     53940     53944     53940     53941     53940     53942
     53940     53943     53944     53945     53946     53950     53946     53947
     53946     53948     53946     53949     53950     53951     53952     53956
     53952     53953     53952     53954     53952     53955     53956     53957
     53958     53962     53958     53959     53958     53960     53958     53961
     53962     53963     53964     53968     53964     53965     53964     53966
     53964     53967     53968     53969     53970     53974     53970     53971
     53970     53972     53970     53973     53974     53975     53976     53980
     53976     53977     53976     53978     53976     53979     53980     53981
     53982     53986     53982     53983     53982     53984     53982     53985
     53986     53987     53988     53992     53988     53989     53988     53990
     53988     53991     53992     53993     53994     53998     53994     53995
     53994     53996     53994     53997     53998     53999     54000     54004
     54000     54001     54000     54002     54000     54003     54004     54005
     54006     54010     54006     54007     54006     54008     54006     54009
     54010     54011     54012     54016     54012     54013     54012     54014
     54012     54015     54016     54017     54018     54022     54018     54019
     54018     54020     54018     54021     54022     54023     54024     54028
     54024     54025     54024     54026     54024     54027     54028     54029
     54030     54034     54030     54031     54030     54032     54030     54033
     54034     54035     54036     54040     54036     54037     54036     54038
     54036     54039     54040     54041     54042     54046     54042     54043
     54042     54044     54042     54045     54046     54047     54048     54052
     54048     54049     54048     54050     54048     54051     54052     54053
     54054     54058     54054     54055     54054     54056     54054     54057
     54058     54059     54060     54064     54060     54061     54060     54062
     54060     54063     54064     54065     54066     54070     54066     54067
     54066     54068     54066     54069     54070     54071     54072     54076
     54072     54073     54072     54074     54072     54075     54076     54077
     54078     54082     54078     54079     54078     54080     54078     54081
     54082     54083     54084     54088     54084     54085     54084     54086
     54084     54087     54088     54089     54090     54094     54090     54091
     54090     54092     54090     54093     54094     54095     54096     54100
     54096     54097     54096     54098     54096     54099     54100     54101
     54102     54106     54102     54103     54102     54104     54102     54105
     54106     54107     54108     54112     54108     54109     54108     54110
     54108     54111     54112     54113     54114     54118     54114     54115
     54114     54116     54114     54117     54118     54119     54120     54124
     54120     54121     54120     54122     54120     54123     54124     54125
     54126     54130     54126     54127     54126     54128     54126     54129
     54130     54131     54132     54136     54132     54133     54132     54134
     54132     54135     54136     54137     54138     54142     54138     54139
     54138     54140     54138     54141     54142     54143     54144     54148
     54144     54145     54144     54146     54144     54147     54148     54149
     54150     54154     54150     54151     54150     54152     54150     54153
     54154     54155     54156     54160     54156     54157     54156     54158
     54156     54159     54160     54161     54162     54166     54162     54163
     54162     54164     54162     54165     54166     54167     54168     54172
     54168     54169     54168     54170     54168     54171     54172     54173
     54174     54178     54174     54175     54174     54176     54174     54177
     54178     54179     54180     54184     54180     54181     54180     54182
     54180     54183     54184     54185     54186     54190     54186     54187
     54186     54188     54186     54189     54190     54191     54192     54196
     54192     54193     54192     54194     54192     54195     54196     54197
     54198     54202     54198     54199     54198     54200     54198     54201
     54202     54203     54204     54208     54204     54205     54204     54206
     54204     54207     54208     54209     54210     54214     54210     54211
     54210     54212     54210     54213     54214     54215     54216     54220
     54216     54217     54216     54218     54216     54219     54220     54221
     54222     54226     54222     54223     54222     54224     54222     54225
     54226     54227     54228     54232     54228     54229     54228     54230
     54228     54231     54232     54233     54234     54238     54234     54235
     54234     54236     54234     54237     54238     54239     54240     54244
     54240     54241     54240     54242     54240     54243     54244     54245
     54246     54250     54246     54247     54246     54248     54246     54249
     54250     54251     54252     54256     54252     54253     54252     54254
     54252     54255     54256     54257     54258     54262     54258     54259
     54258     54260     54258     54261     54262     54263     54264     54268
     54264     54265     54264     54266     54264     54267     54268     54269
     54270     54274     54270     54271     54270     54272     54270     54273
     54274     54275     54276     54280     54276     54277     54276     54278
     54276     54279     54280     54281     54282     54286     54282     54283
     54282     54284     54282     54285     54286     54287     54288     54292
     54288     54289     54288     54290     54288     54291     54292     54293
     54294     54298     54294     54295     54294     54296     54294     54297
     54298     54299     54300     54304     54300     54301     54300     54302
     54300     54303     54304     54305     54306     54310     54306     54307
     54306     54308     54306     54309     54310     54311     54312     54316
     54312     54313     54312     54314     54312     54315     54316     54317
     54318     54322     54318     54319     54318     54320     54318     54321
     54322     54323     54324     54328     54324     54325     54324     54326
     54324     54327     54328     54329     54330     54334     54330     54331
     54330     54332     54330     54333     54334     54335     54336     54340
     54336     54337     54336     54338     54336     54339     54340     54341
     54342     54346     54342     54343     54342     54344     54342     54345
     54346     54347     54348     54352     54348     54349     54348     54350
     54348     54351     54352     54353     54354     54358     54354     54355
     54354     54356     54354     54357     54358     54359     54360     54364
     54360     54361     54360     54362     54360     54363     54364     54365
     54366     54370     54366     54367     54366     54368     54366     54369
     54370     54371     54372     54376     54372     54373     54372     54374
     54372     54375     54376     54377     54378     54382     54378     54379
     54378     54380     54378     54381     54382     54383     54384     54388
     54384     54385     54384     54386     54384     54387     54388     54389
     54390     54394     54390     54391     54390     54392     54390     54393
     54394     54395     54396     54400     54396     54397     54396     54398
     54396     54399     54400     54401     54402     54406     54402     54403
     54402     54404     54402     54405     54406     54407     54408     54412
     54408     54409     54408     54410     54408     54411     54412     54413
     54414     54418     54414     54415     54414     54416     54414     54417
     54418     54419     54420     54424     54420     54421     54420     54422
     54420     54423     54424     54425     54426     54430     54426     54427
     54426     54428     54426     54429     54430     54431     54432     54436
     54432     54433     54432     54434     54432     54435     54436     54437
     54438     54442     54438     54439     54438     54440     54438     54441
     54442     54443     54444     54448     54444     54445     54444     54446
     54444     54447     54448     54449     54450     54454     54450     54451
     54450     54452     54450     54453     54454     54455     54456     54460
     54456     54457     54456     54458     54456     54459     54460     54461
     54462     54466     54462     54463     54462     54464     54462     54465
     54466     54467     54468     54472     54468     54469     54468     54470
     54468     54471     54472     54473     54474     54478     54474     54475
     54474     54476     54474     54477     54478     54479     54480     54484
     54480     54481     54480     54482     54480     54483     54484     54485
     54486     54490     54486     54487     54486     54488     54486     54489
     54490     54491     54492     54496     54492     54493     54492     54494
     54492     54495     54496     54497     54498     54502     54498     54499
     54498     54500     54498     54501     54502     54503     54504     54508
     54504     54505     54504     54506     54504     54507     54508     54509
     54510     54514     54510     54511     54510     54512     54510     54513
     54514     54515     54516     54520     54516     54517     54516     54518
     54516     54519     54520     54521     54522     54526     54522     54523
     54522     54524     54522     54525     54526     54527     54528     54532
     54528     54529     54528     54530     54528     54531     54532     54533
     54534     54538     54534     54535     54534     54536     54534     54537
     54538     54539     54540     54544     54540     54541     54540     54542
     54540     54543     54544     54545     54546     54550     54546     54547
     54546     54548     54546     54549     54550     54551     54552     54556
     54552     54553     54552     54554     54552     54555     54556     54557
     54558     54562     54558     54559     54558     54560     54558     54561
     54562     54563     54564     54568     54564     54565     54564     54566
     54564     54567     54568     54569     54570     54574     54570     54571
     54570     54572     54570     54573     54574     54575     54576     54580
     54576     54577     54576     54578     54576     54579     54580     54581
     54582     54586     54582     54583     54582     54584     54582     54585
     54586     54587     54588     54592     54588     54589     54588     54590
     54588     54591     54592     54593     54594     54598     54594     54595
     54594     54596     54594     54597     54598     54599     54600     54604
     54600     54601     54600     54602     54600     54603     54604     54605
     54606     54610     54606     54607     54606     54608     54606     54609
     54610     54611     54612     54616     54612     54613     54612     54614
     54612     54615     54616     54617     54618     54622     54618     54619
     54618     54620     54618     54621     54622     54623     54624     54628
     54624     54625     54624     54626     54624     54627     54628     54629
     54630     54634     54630     54631     54630     54632     54630     54633
     54634     54635     54636     54640     54636     54637     54636     54638
     54636     54639     54640     54641     54642     54646     54642     54643
     54642     54644     54642     54645     54646     54647     54648     54652
     54648     54649     54648     54650     54648     54651     54652     54653
     54654     54658     54654     54655     54654     54656     54654     54657
     54658     54659     54660     54664     54660     54661     54660     54662
     54660     54663     54664     54665     54666     54670     54666     54667
     54666     54668     54666     54669     54670     54671     54672     54676
     54672     54673     54672     54674     54672     54675     54676     54677
     54678     54682     54678     54679     54678     54680     54678     54681
     54682     54683     54684     54688     54684     54685     54684     54686
     54684     54687     54688     54689     54690     54694     54690     54691
     54690     54692     54690     54693     54694     54695     54696     54700
     54696     54697     54696     54698     54696     54699     54700     54701
     54702     54706     54702     54703     54702     54704     54702     54705
     54706     54707     54708     54712     54708     54709     54708     54710
     54708     54711     54712     54713     54714     54718     54714     54715
     54714     54716     54714     54717     54718     54719     54720     54724
     54720     54721     54720     54722     54720     54723     54724     54725
     54726     54730     54726     54727     54726     54728     54726     54729
     54730     54731     54732     54736     54732     54733     54732     54734
     54732     54735     54736     54737     54738     54742     54738     54739
     54738     54740     54738     54741     54742     54743     54744     54748
     54744     54745     54744     54746     54744     54747     54748     54749
     54750     54754     54750     54751     54750     54752     54750     54753
     54754     54755     54756     54760     54756     54757     54756     54758
     54756     54759     54760     54761     54762     54766     54762     54763
     54762     54764     54762     54765     54766     54767     54768     54772
     54768     54769     54768     54770     54768     54771     54772     54773
     54774     54778     54774     54775     54774     54776     54774     54777
     54778     54779     54780     54784     54780     54781     54780     54782
     54780     54783     54784     54785     54786     54790     54786     54787
     54786     54788     54786     54789     54790     54791     54792     54796
     54792     54793     54792     54794     54792     54795     54796     54797
     54798     54802     54798     54799     54798     54800     54798     54801
     54802     54803     54804     54808     54804     54805     54804     54806
     54804     54807     54808     54809     54810     54814     54810     54811
     54810     54812     54810     54813     54814     54815     54816     54820
     54816     54817     54816     54818     54816     54819     54820     54821
     54822     54826     54822     54823     54822     54824     54822     54825
     54826     54827     54828     54832     54828     54829     54828     54830
     54828     54831     54832     54833     54834     54838     54834     54835
     54834     54836     54834     54837     54838     54839     54840     54844
     54840     54841     54840     54842     54840     54843     54844     54845
     54846     54850     54846     54847     54846     54848     54846     54849
     54850     54851     54852     54856     54852     54853     54852     54854
     54852     54855     54856     54857     54858     54862     54858     54859
     54858     54860     54858     54861     54862     54863     54864     54868
     54864     54865     54864     54866     54864     54867     54868     54869
     54870     54874     54870     54871     54870     54872     54870     54873
     54874     54875     54876     54880     54876     54877     54876     54878
     54876     54879     54880     54881     54882     54886     54882     54883
     54882     54884     54882     54885     54886     54887     54888     54892
     54888     54889     54888     54890     54888     54891     54892     54893
     54894     54898     54894     54895     54894     54896     54894     54897
     54898     54899     54900     54904     54900     54901     54900     54902
     54900     54903     54904     54905     54906     54910     54906     54907
     54906     54908     54906     54909     54910     54911     54912     54916
     54912     54913     54912     54914     54912     54915     54916     54917
     54918     54922     54918     54919     54918     54920     54918     54921
     54922     54923     54924     54928     54924     54925     54924     54926
     54924     54927     54928     54929     54930     54934     54930     54931
     54930     54932     54930     54933     54934     54935     54936     54940
     54936     54937     54936     54938     54936     54939     54940     54941
     54942     54946     54942     54943     54942     54944     54942     54945
     54946     54947     54948     54952     54948     54949     54948     54950
     54948     54951     54952     54953     54954     54958     54954     54955
     54954     54956     54954     54957     54958     54959     54960     54964
     54960     54961     54960     54962     54960     54963     54964     54965
     54966     54970     54966     54967     54966     54968     54966     54969
     54970     54971     54972     54976     54972     54973     54972     54974
     54972     54975     54976     54977     54978     54982     54978     54979
     54978     54980     54978     54981     54982     54983     54984     54988
     54984     54985     54984     54986     54984     54987     54988     54989
     54990     54994     54990     54991     54990     54992     54990     54993
     54994     54995     54996     55000     54996     54997     54996     54998
     54996     54999     55000     55001     55002     55006     55002     55003
     55002     55004     55002     55005     55006     55007     55008     55012
     55008     55009     55008     55010     55008     55011     55012     55013
     55014     55018     55014     55015     55014     55016     55014     55017
     55018     55019     55020     55024     55020     55021     55020     55022
     55020     55023     55024     55025     55026     55030     55026     55027
     55026     55028     55026     55029     55030     55031     55032     55036
     55032     55033     55032     55034     55032     55035     55036     55037
     55038     55042     55038     55039     55038     55040     55038     55041
     55042     55043     55044     55048     55044     55045     55044     55046
     55044     55047     55048     55049     55050     55054     55050     55051
     55050     55052     55050     55053     55054     55055     55056     55060
     55056     55057     55056     55058     55056     55059     55060     55061
     55062     55066     55062     55063     55062     55064     55062     55065
     55066     55067     55068     55072     55068     55069     55068     55070
     55068     55071     55072     55073     55074     55078     55074     55075
     55074     55076     55074     55077     55078     55079     55080     55084
     55080     55081     55080     55082     55080     55083     55084     55085
     55086     55090     55086     55087     55086     55088     55086     55089
     55090     55091     55092     55096     55092     55093     55092     55094
     55092     55095     55096     55097     55098     55102     55098     55099
     55098     55100     55098     55101     55102     55103     55104     55108
     55104     55105     55104     55106     55104     55107     55108     55109
     55110     55114     55110     55111     55110     55112     55110     55113
     55114     55115     55116     55120     55116     55117     55116     55118
     55116     55119     55120     55121     55122     55126     55122     55123
     55122     55124     55122     55125     55126     55127     55128     55132
     55128     55129     55128     55130     55128     55131     55132     55133
     55134     55138     55134     55135     55134     55136     55134     55137
     55138     55139     55140     55144     55140     55141     55140     55142
     55140     55143     55144     55145     55146     55150     55146     55147
     55146     55148     55146     55149     55150     55151     55152     55156
     55152     55153     55152     55154     55152     55155     55156     55157
     55158     55162     55158     55159     55158     55160     55158     55161
     55162     55163     55164     55168     55164     55165     55164     55166
     55164     55167     55168     55169     55170     55174     55170     55171
     55170     55172     55170     55173     55174     55175     55176     55180
     55176     55177     55176     55178     55176     55179     55180     55181
     55182     55186     55182     55183     55182     55184     55182     55185
     55186     55187     55188     55192     55188     55189     55188     55190
     55188     55191     55192     55193     55194     55198     55194     55195
     55194     55196     55194     55197     55198     55199     55200     55204
     55200     55201     55200     55202     55200     55203     55204     55205
     55206     55210     55206     55207     55206     55208     55206     55209
     55210     55211     55212     55216     55212     55213     55212     55214
     55212     55215     55216     55217     55218     55222     55218     55219
     55218     55220     55218     55221     55222     55223     55224     55228
     55224     55225     55224     55226     55224     55227     55228     55229
     55230     55234     55230     55231     55230     55232     55230     55233
     55234     55235     55236     55240     55236     55237     55236     55238
     55236     55239     55240     55241     55242     55246     55242     55243
     55242     55244     55242     55245     55246     55247     55248     55252
     55248     55249     55248     55250     55248     55251     55252     55253
     55254     55258     55254     55255     55254     55256     55254     55257
     55258     55259     55260     55264     55260     55261     55260     55262
     55260     55263     55264     55265     55266     55270     55266     55267
     55266     55268     55266     55269     55270     55271     55272     55276
     55272     55273     55272     55274     55272     55275     55276     55277
     55278     55282     55278     55279     55278     55280     55278     55281
     55282     55283     55284     55288     55284     55285     55284     55286
     55284     55287     55288     55289     55290     55294     55290     55291
     55290     55292     55290     55293     55294     55295     55296     55300
     55296     55297     55296     55298     55296     55299     55300     55301
     55302     55306     55302     55303     55302     55304     55302     55305
     55306     55307     55308     55312     55308     55309     55308     55310
     55308     55311     55312     55313     55314     55318     55314     55315
     55314     55316     55314     55317     55318     55319     55320     55324
     55320     55321     55320     55322     55320     55323     55324     55325
     55326     55330     55326     55327     55326     55328     55326     55329
     55330     55331     55332     55336     55332     55333     55332     55334
     55332     55335     55336     55337     55338     55342     55338     55339
     55338     55340     55338     55341     55342     55343     55344     55348
     55344     55345     55344     55346     55344     55347     55348     55349
     55350     55354     55350     55351     55350     55352     55350     55353
     55354     55355     55356     55360     55356     55357     55356     55358
     55356     55359     55360     55361     55362     55366     55362     55363
     55362     55364     55362     55365     55366     55367     55368     55372
     55368     55369     55368     55370     55368     55371     55372     55373
     55374     55378     55374     55375     55374     55376     55374     55377
     55378     55379     55380     55384     55380     55381     55380     55382
     55380     55383     55384     55385     55386     55390     55386     55387
     55386     55388     55386     55389     55390     55391     55392     55396
     55392     55393     55392     55394     55392     55395     55396     55397
     55398     55402     55398     55399     55398     55400     55398     55401
     55402     55403     55404     55408     55404     55405     55404     55406
     55404     55407     55408     55409     55410     55414     55410     55411
     55410     55412     55410     55413     55414     55415     55416     55420
     55416     55417     55416     55418     55416     55419     55420     55421
     55422     55426     55422     55423     55422     55424     55422     55425
     55426     55427     55428     55432     55428     55429     55428     55430
     55428     55431     55432     55433     55434     55438     55434     55435
     55434     55436     55434     55437     55438     55439     55440     55444
     55440     55441     55440     55442     55440     55443     55444     55445
     55446     55450     55446     55447     55446     55448     55446     55449
     55450     55451     55452     55456     55452     55453     55452     55454
     55452     55455     55456     55457     55458     55462     55458     55459
     55458     55460     55458     55461     55462     55463     55464     55468
     55464     55465     55464     55466     55464     55467     55468     55469
     55470     55474     55470     55471     55470     55472     55470     55473
     55474     55475     55476     55480     55476     55477     55476     55478
     55476     55479     55480     55481     55482     55486     55482     55483
     55482     55484     55482     55485     55486     55487     55488     55492
     55488     55489     55488     55490     55488     55491     55492     55493
     55494     55498     55494     55495     55494     55496     55494     55497
     55498     55499     55500     55504     55500     55501     55500     55502
     55500     55503     55504     55505     55506     55510     55506     55507
     55506     55508     55506     55509     55510     55511     55512     55516
     55512     55513     55512     55514     55512     55515     55516     55517
     55518     55522     55518     55519     55518     55520     55518     55521
     55522     55523     55524     55528     55524     55525     55524     55526
     55524     55527     55528     55529     55530     55534     55530     55531
     55530     55532     55530     55533     55534     55535     55536     55540
     55536     55537     55536     55538     55536     55539     55540     55541
     55542     55546     55542     55543     55542     55544     55542     55545
     55546     55547     55548     55552     55548     55549     55548     55550
     55548     55551     55552     55553     55554     55558     55554     55555
     55554     55556     55554     55557     55558     55559     55560     55564
     55560     55561     55560     55562     55560     55563     55564     55565
     55566     55570     55566     55567     55566     55568     55566     55569
     55570     55571     55572     55576     55572     55573     55572     55574
     55572     55575     55576     55577     55578     55582     55578     55579
     55578     55580     55578     55581     55582     55583     55584     55588
     55584     55585     55584     55586     55584     55587     55588     55589
     55590     55594     55590     55591     55590     55592     55590     55593
     55594     55595     55596     55600     55596     55597     55596     55598
     55596     55599     55600     55601     55602     55606     55602     55603
     55602     55604     55602     55605     55606     55607     55608     55612
     55608     55609     55608     55610     55608     55611     55612     55613
     55614     55618     55614     55615     55614     55616     55614     55617
     55618     55619     55620     55624     55620     55621     55620     55622
     55620     55623     55624     55625     55626     55630     55626     55627
     55626     55628     55626     55629     55630     55631     55632     55636
     55632     55633     55632     55634     55632     55635     55636     55637
     55638     55642     55638     55639     55638     55640     55638     55641
     55642     55643     55644     55648     55644     55645     55644     55646
     55644     55647     55648     55649     55650     55654     55650     55651
     55650     55652     55650     55653     55654     55655     55656     55660
     55656     55657     55656     55658     55656     55659     55660     55661
     55662     55666     55662     55663     55662     55664     55662     55665
     55666     55667     55668     55672     55668     55669     55668     55670
     55668     55671     55672     55673     55674     55678     55674     55675
     55674     55676     55674     55677     55678     55679     55680     55684
     55680     55681     55680     55682     55680     55683     55684     55685
     55686     55690     55686     55687     55686     55688     55686     55689
     55690     55691     55692     55696     55692     55693     55692     55694
     55692     55695     55696     55697     55698     55702     55698     55699
     55698     55700     55698     55701     55702     55703     55704     55708
     55704     55705     55704     55706     55704     55707     55708     55709
     55710     55714     55710     55711     55710     55712     55710     55713
     55714     55715     55716     55720     55716     55717     55716     55718
     55716     55719     55720     55721     55722     55726     55722     55723
     55722     55724     55722     55725     55726     55727     55728     55732
     55728     55729     55728     55730     55728     55731     55732     55733
     55734     55738     55734     55735     55734     55736     55734     55737
     55738     55739     55740     55744     55740     55741     55740     55742
     55740     55743     55744     55745     55746     55750     55746     55747
     55746     55748     55746     55749     55750     55751     55752     55756
     55752     55753     55752     55754     55752     55755     55756     55757
     55758     55762     55758     55759     55758     55760     55758     55761
     55762     55763     55764     55768     55764     55765     55764     55766
     55764     55767     55768     55769     55770     55774     55770     55771
     55770     55772     55770     55773     55774     55775     55776     55780
     55776     55777     55776     55778     55776     55779     55780     55781
     55782     55786     55782     55783     55782     55784     55782     55785
     55786     55787     55788     55792     55788     55789     55788     55790
     55788     55791     55792     55793     55794     55798     55794     55795
     55794     55796     55794     55797     55798     55799     55800     55804
     55800     55801     55800     55802     55800     55803     55804     55805
     55806     55810     55806     55807     55806     55808     55806     55809
     55810     55811     55812     55816     55812     55813     55812     55814
     55812     55815     55816     55817     55818     55822     55818     55819
     55818     55820     55818     55821     55822     55823     55824     55828
     55824     55825     55824     55826     55824     55827     55828     55829
     55830     55834     55830     55831     55830     55832     55830     55833
     55834     55835     55836     55840     55836     55837     55836     55838
     55836     55839     55840     55841     55842     55846     55842     55843
     55842     55844     55842     55845     55846     55847     55848     55852
     55848     55849     55848     55850     55848     55851     55852     55853
     55854     55858     55854     55855     55854     55856     55854     55857
     55858     55859     55860     55864     55860     55861     55860     55862
     55860     55863     55864     55865     55866     55870     55866     55867
     55866     55868     55866     55869     55870     55871     55872     55876
     55872     55873     55872     55874     55872     55875     55876     55877
     55878     55882     55878     55879     55878     55880     55878     55881
     55882     55883     55884     55888     55884     55885     55884     55886
     55884     55887     55888     55889     55890     55894     55890     55891
     55890     55892     55890     55893     55894     55895     55896     55900
     55896     55897     55896     55898     55896     55899     55900     55901
     55902     55906     55902     55903     55902     55904     55902     55905
     55906     55907     55908     55912     55908     55909     55908     55910
     55908     55911     55912     55913     55914     55918     55914     55915
     55914     55916     55914     55917     55918     55919     55920     55924
     55920     55921     55920     55922     55920     55923     55924     55925
     55926     55930     55926     55927     55926     55928     55926     55929
     55930     55931     55932     55936     55932     55933     55932     55934
     55932     55935     55936     55937     55938     55942     55938     55939
     55938     55940     55938     55941     55942     55943     55944     55948
     55944     55945     55944     55946     55944     55947     55948     55949
     55950     55954     55950     55951     55950     55952     55950     55953
     55954     55955     55956     55960     55956     55957     55956     55958
     55956     55959     55960     55961     55962     55966     55962     55963
     55962     55964     55962     55965     55966     55967     55968     55972
     55968     55969     55968     55970     55968     55971     55972     55973
     55974     55978     55974     55975     55974     55976     55974     55977
     55978     55979     55980     55984     55980     55981     55980     55982
     55980     55983     55984     55985     55986     55990     55986     55987
     55986     55988     55986     55989     55990     55991     55992     55996
     55992     55993     55992     55994     55992     55995     55996     55997
     55998     56002     55998     55999     55998     56000     55998     56001
     56002     56003     56004     56008     56004     56005     56004     56006
     56004     56007     56008     56009     56010     56014     56010     56011
     56010     56012     56010     56013     56014     56015     56016     56020
     56016     56017     56016     56018     56016     56019     56020     56021
     56022     56026     56022     56023     56022     56024     56022     56025
     56026     56027     56028     56032     56028     56029     56028     56030
     56028     56031     56032     56033     56034     56038     56034     56035
     56034     56036     56034     56037     56038     56039     56040     56044
     56040     56041     56040     56042     56040     56043     56044     56045
     56046     56050     56046     56047     56046     56048     56046     56049
     56050     56051     56052     56056     56052     56053     56052     56054
     56052     56055     56056     56057     56058     56062     56058     56059
     56058     56060     56058     56061     56062     56063     56064     56068
     56064     56065     56064     56066     56064     56067     56068     56069
     56070     56074     56070     56071     56070     56072     56070     56073
     56074     56075     56076     56080     56076     56077     56076     56078
     56076     56079     56080     56081     56082     56086     56082     56083
     56082     56084     56082     56085     56086     56087     56088     56092
     56088     56089     56088     56090     56088     56091     56092     56093
     56094     56098     56094     56095     56094     56096     56094     56097
     56098     56099     56100     56104     56100     56101     56100     56102
     56100     56103     56104     56105     56106     56110     56106     56107
     56106     56108     56106     56109     56110     56111     56112     56116
     56112     56113     56112     56114     56112     56115     56116     56117
     56118     56122     56118     56119     56118     56120     56118     56121
     56122     56123     56124     56128     56124     56125     56124     56126
     56124     56127     56128     56129     56130     56134     56130     56131
     56130     56132     56130     56133     56134     56135     56136     56140
     56136     56137     56136     56138     56136     56139     56140     56141
     56142     56146     56142     56143     56142     56144     56142     56145
     56146     56147     56148     56152     56148     56149     56148     56150
     56148     56151     56152     56153     56154     56158     56154     56155
     56154     56156     56154     56157     56158     56159     56160     56164
     56160     56161     56160     56162     56160     56163     56164     56165
     56166     56170     56166     56167     56166     56168     56166     56169
     56170     56171     56172     56176     56172     56173     56172     56174
     56172     56175     56176     56177     56178     56182     56178     56179
     56178     56180     56178     56181     56182     56183     56184     56188
     56184     56185     56184     56186     56184     56187     56188     56189
     56190     56194     56190     56191     56190     56192     56190     56193
     56194     56195     56196     56200     56196     56197     56196     56198
     56196     56199     56200     56201     56202     56206     56202     56203
     56202     56204     56202     56205     56206     56207     56208     56212
     56208     56209     56208     56210     56208     56211     56212     56213
     56214     56218     56214     56215     56214     56216     56214     56217
     56218     56219     56220     56224     56220     56221     56220     56222
     56220     56223     56224     56225     56226     56230     56226     56227
     56226     56228     56226     56229     56230     56231     56232     56236
     56232     56233     56232     56234     56232     56235     56236     56237
     56238     56242     56238     56239     56238     56240     56238     56241
     56242     56243     56244     56248     56244     56245     56244     56246
     56244     56247     56248     56249     56250     56254     56250     56251
     56250     56252     56250     56253     56254     56255     56256     56260
     56256     56257     56256     56258     56256     56259     56260     56261
     56262     56266     56262     56263     56262     56264     56262     56265
     56266     56267     56268     56272     56268     56269     56268     56270
     56268     56271     56272     56273     56274     56278     56274     56275
     56274     56276     56274     56277     56278     56279     56280     56284
     56280     56281     56280     56282     56280     56283     56284     56285
     56286     56290     56286     56287     56286     56288     56286     56289
     56290     56291     56292     56296     56292     56293     56292     56294
     56292     56295     56296     56297     56298     56302     56298     56299
     56298     56300     56298     56301     56302     56303     56304     56308
     56304     56305     56304     56306     56304     56307     56308     56309
     56310     56314     56310     56311     56310     56312     56310     56313
     56314     56315     56316     56320     56316     56317     56316     56318
     56316     56319     56320     56321     56322     56326     56322     56323
     56322     56324     56322     56325     56326     56327     56328     56332
     56328     56329     56328     56330     56328     56331     56332     56333
     56334     56338     56334     56335     56334     56336     56334     56337
     56338     56339     56340     56344     56340     56341     56340     56342
     56340     56343     56344     56345     56346     56350     56346     56347
     56346     56348     56346     56349     56350     56351     56352     56356
     56352     56353     56352     56354     56352     56355     56356     56357
     56358     56362     56358     56359     56358     56360     56358     56361
     56362     56363     56364     56368     56364     56365     56364     56366
     56364     56367     56368     56369     56370     56374     56370     56371
     56370     56372     56370     56373     56374     56375     56376     56380
     56376     56377     56376     56378     56376     56379     56380     56381
     56382     56386     56382     56383     56382     56384     56382     56385
     56386     56387     56388     56392     56388     56389     56388     56390
     56388     56391     56392     56393     56394     56398     56394     56395
     56394     56396     56394     56397     56398     56399     56400     56404
     56400     56401     56400     56402     56400     56403     56404     56405
     56406     56410     56406     56407     56406     56408     56406     56409
     56410     56411     56412     56416     56412     56413     56412     56414
     56412     56415     56416     56417     56418     56422     56418     56419
     56418     56420     56418     56421     56422     56423     56424     56428
     56424     56425     56424     56426     56424     56427     56428     56429
     56430     56434     56430     56431     56430     56432     56430     56433
     56434     56435     56436     56440     56436     56437     56436     56438
     56436     56439     56440     56441     56442     56446     56442     56443
     56442     56444     56442     56445     56446     56447     56448     56452
     56448     56449     56448     56450     56448     56451     56452     56453
     56454     56458     56454     56455     56454     56456     56454     56457
     56458     56459     56460     56464     56460     56461     56460     56462
     56460     56463     56464     56465     56466     56470     56466     56467
     56466     56468     56466     56469     56470     56471     56472     56476
     56472     56473     56472     56474     56472     56475     56476     56477
     56478     56482     56478     56479     56478     56480     56478     56481
     56482     56483     56484     56488     56484     56485     56484     56486
     56484     56487     56488     56489     56490     56494     56490     56491
     56490     56492     56490     56493     56494     56495     56496     56500
     56496     56497     56496     56498     56496     56499     56500     56501
     56502     56506     56502     56503     56502     56504     56502     56505
     56506     56507     56508     56512     56508     56509     56508     56510
     56508     56511     56512     56513     56514     56518     56514     56515
     56514     56516     56514     56517     56518     56519     56520     56524
     56520     56521     56520     56522     56520     56523     56524     56525
     56526     56530     56526     56527     56526     56528     56526     56529
     56530     56531     56532     56536     56532     56533     56532     56534
     56532     56535     56536     56537     56538     56542     56538     56539
     56538     56540     56538     56541     56542     56543     56544     56548
     56544     56545     56544     56546     56544     56547     56548     56549
     56550     56554     56550     56551     56550     56552     56550     56553
     56554     56555     56556     56560     56556     56557     56556     56558
     56556     56559     56560     56561     56562     56566     56562     56563
     56562     56564     56562     56565     56566     56567     56568     56572
     56568     56569     56568     56570     56568     56571     56572     56573
     56574     56578     56574     56575     56574     56576     56574     56577
     56578     56579     56580     56584     56580     56581     56580     56582
     56580     56583     56584     56585     56586     56590     56586     56587
     56586     56588     56586     56589     56590     56591     56592     56596
     56592     56593     56592     56594     56592     56595     56596     56597
     56598     56602     56598     56599     56598     56600     56598     56601
     56602     56603     56604     56608     56604     56605     56604     56606
     56604     56607     56608     56609     56610     56614     56610     56611
     56610     56612     56610     56613     56614     56615     56616     56620
     56616     56617     56616     56618     56616     56619     56620     56621
     56622     56626     56622     56623     56622     56624     56622     56625
     56626     56627     56628     56632     56628     56629     56628     56630
     56628     56631     56632     56633     56634     56638     56634     56635
     56634     56636     56634     56637     56638     56639     56640     56644
     56640     56641     56640     56642     56640     56643     56644     56645
     56646     56650     56646     56647     56646     56648     56646     56649
     56650     56651     56652     56656     56652     56653     56652     56654
     56652     56655     56656     56657     56658     56662     56658     56659
     56658     56660     56658     56661     56662     56663     56664     56668
     56664     56665     56664     56666     56664     56667     56668     56669
     56670     56674     56670     56671     56670     56672     56670     56673
     56674     56675     56676     56680     56676     56677     56676     56678
     56676     56679     56680     56681     56682     56686     56682     56683
     56682     56684     56682     56685     56686     56687     56688     56692
     56688     56689     56688     56690     56688     56691     56692     56693
     56694     56698     56694     56695     56694     56696     56694     56697
     56698     56699     56700     56704     56700     56701     56700     56702
     56700     56703     56704     56705     56706     56710     56706     56707
     56706     56708     56706     56709     56710     56711     56712     56716
     56712     56713     56712     56714     56712     56715     56716     56717
     56718     56722     56718     56719     56718     56720     56718     56721
     56722     56723     56724     56728     56724     56725     56724     56726
     56724     56727     56728     56729     56730     56734     56730     56731
     56730     56732     56730     56733     56734     56735     56736     56740
     56736     56737     56736     56738     56736     56739     56740     56741
     56742     56746     56742     56743     56742     56744     56742     56745
     56746     56747     56748     56752     56748     56749     56748     56750
     56748     56751     56752     56753     56754     56758     56754     56755
     56754     56756     56754     56757     56758     56759     56760     56764
     56760     56761     56760     56762     56760     56763     56764     56765
     56766     56770     56766     56767     56766     56768     56766     56769
     56770     56771     56772     56776     56772     56773     56772     56774
     56772     56775     56776     56777     56778     56782     56778     56779
     56778     56780     56778     56781     56782     56783     56784     56788
     56784     56785     56784     56786     56784     56787     56788     56789
     56790     56794     56790     56791     56790     56792     56790     56793
     56794     56795     56796     56800     56796     56797     56796     56798
     56796     56799     56800     56801     56802     56806     56802     56803
     56802     56804     56802     56805     56806     56807     56808     56812
     56808     56809     56808     56810     56808     56811     56812     56813
     56814     56818     56814     56815     56814     56816     56814     56817
     56818     56819     56820     56824     56820     56821     56820     56822
     56820     56823     56824     56825     56826     56830     56826     56827
     56826     56828     56826     56829     56830     56831     56832     56836
     56832     56833     56832     56834     56832     56835     56836     56837
     56838     56842     56838     56839     56838     56840     56838     56841
     56842     56843     56844     56848     56844     56845     56844     56846
     56844     56847     56848     56849     56850     56854     56850     56851
     56850     56852     56850     56853     56854     56855     56856     56860
     56856     56857     56856     56858     56856     56859     56860     56861
     56862     56866     56862     56863     56862     56864     56862     56865
     56866     56867     56868     56872     56868     56869     56868     56870
     56868     56871     56872     56873     56874     56878     56874     56875
     56874     56876     56874     56877     56878     56879     56880     56884
     56880     56881     56880     56882     56880     56883     56884     56885
     56886     56890     56886     56887     56886     56888     56886     56889
     56890     56891     56892     56896     56892     56893     56892     56894
     56892     56895     56896     56897     56898     56902     56898     56899
     56898     56900     56898     56901     56902     56903     56904     56908
     56904     56905     56904     56906     56904     56907     56908     56909
     56910     56914     56910     56911     56910     56912     56910     56913
     56914     56915     56916     56920     56916     56917     56916     56918
     56916     56919     56920     56921     56922     56926     56922     56923
     56922     56924     56922     56925     56926     56927     56928     56932
     56928     56929     56928     56930     56928     56931     56932     56933
     56934     56938     56934     56935     56934     56936     56934     56937
     56938     56939     56940     56944     56940     56941     56940     56942
     56940     56943     56944     56945     56946     56950     56946     56947
     56946     56948     56946     56949     56950     56951     56952     56956
     56952     56953     56952     56954     56952     56955     56956     56957
     56958     56962     56958     56959     56958     56960     56958     56961
     56962     56963     56964     56968     56964     56965     56964     56966
     56964     56967     56968     56969     56970     56974     56970     56971
     56970     56972     56970     56973     56974     56975     56976     56980
     56976     56977     56976     56978     56976     56979     56980     56981
     56982     56986     56982     56983     56982     56984     56982     56985
     56986     56987     56988     56992     56988     56989     56988     56990
     56988     56991     56992     56993     56994     56998     56994     56995
     56994     56996     56994     56997     56998     56999     57000     57004
     57000     57001     57000     57002     57000     57003     57004     57005
     57006     57010     57006     57007     57006     57008     57006     57009
     57010     57011     57012     57016     57012     57013     57012     57014
     57012     57015     57016     57017     57018     57022     57018     57019
     57018     57020     57018     57021     57022     57023     57024     57028
     57024     57025     57024     57026     57024     57027     57028     57029
     57030     57034     57030     57031     57030     57032     57030     57033
     57034     57035     57036     57040     57036     57037     57036     57038
     57036     57039     57040     57041     57042     57046     57042     57043
     57042     57044     57042     57045     57046     57047     57048     57052
     57048     57049     57048     57050     57048     57051     57052     57053
     57054     57058     57054     57055     57054     57056     57054     57057
     57058     57059     57060     57064     57060     57061     57060     57062
     57060     57063     57064     57065     57066     57070     57066     57067
     57066     57068     57066     57069     57070     57071     57072     57076
     57072     57073     57072     57074     57072     57075     57076     57077
     57078     57082     57078     57079     57078     57080     57078     57081
     57082     57083     57084     57088     57084     57085     57084     57086
     57084     57087     57088     57089     57090     57094     57090     57091
     57090     57092     57090     57093     57094     57095     57096     57100
     57096     57097     57096     57098     57096     57099     57100     57101
     57102     57106     57102     57103     57102     57104     57102     57105
     57106     57107     57108     57112     57108     57109     57108     57110
     57108     57111     57112     57113     57114     57118     57114     57115
     57114     57116     57114     57117     57118     57119     57120     57124
     57120     57121     57120     57122     57120     57123     57124     57125
     57126     57130     57126     57127     57126     57128     57126     57129
     57130     57131     57132     57136     57132     57133     57132     57134
     57132     57135     57136     57137     57138     57142     57138     57139
     57138     57140     57138     57141     57142     57143     57144     57148
     57144     57145     57144     57146     57144     57147     57148     57149
     57150     57154     57150     57151     57150     57152     57150     57153
     57154     57155     57156     57160     57156     57157     57156     57158
     57156     57159     57160     57161     57162     57166     57162     57163
     57162     57164     57162     57165     57166     57167     57168     57172
     57168     57169     57168     57170     57168     57171     57172     57173
     57174     57178     57174     57175     57174     57176     57174     57177
     57178     57179     57180     57184     57180     57181     57180     57182
     57180     57183     57184     57185     57186     57190     57186     57187
     57186     57188     57186     57189     57190     57191     57192     57196
     57192     57193     57192     57194     57192     57195     57196     57197
     57198     57202     57198     57199     57198     57200     57198     57201
     57202     57203     57204     57208     57204     57205     57204     57206
     57204     57207     57208     57209     57210     57214     57210     57211
     57210     57212     57210     57213     57214     57215     57216     57220
     57216     57217     57216     57218     57216     57219     57220     57221
     57222     57226     57222     57223     57222     57224     57222     57225
     57226     57227     57228     57232     57228     57229     57228     57230
     57228     57231     57232     57233     57234     57238     57234     57235
     57234     57236     57234     57237     57238     57239     57240     57244
     57240     57241     57240     57242     57240     57243     57244     57245
     57246     57250     57246     57247     57246     57248     57246     57249
     57250     57251     57252     57256     57252     57253     57252     57254
     57252     57255     57256     57257     57258     57262     57258     57259
     57258     57260     57258     57261     57262     57263     57264     57268
     57264     57265     57264     57266     57264     57267     57268     57269
     57270     57274     57270     57271     57270     57272     57270     57273
     57274     57275     57276     57280     57276     57277     57276     57278
     57276     57279     57280     57281     57282     57286     57282     57283
     57282     57284     57282     57285     57286     57287     57288     57292
     57288     57289     57288     57290     57288     57291     57292     57293
     57294     57298     57294     57295     57294     57296     57294     57297
     57298     57299     57300     57304     57300     57301     57300     57302
     57300     57303     57304     57305     57306     57310     57306     57307
     57306     57308     57306     57309     57310     57311     57312     57316
     57312     57313     57312     57314     57312     57315     57316     57317
     57318     57322     57318     57319     57318     57320     57318     57321
     57322     57323     57324     57328     57324     57325     57324     57326
     57324     57327     57328     57329     57330     57334     57330     57331
     57330     57332     57330     57333     57334     57335     57336     57340
     57336     57337     57336     57338     57336     57339     57340     57341
     57342     57346     57342     57343     57342     57344     57342     57345
     57346     57347     57348     57352     57348     57349     57348     57350
     57348     57351     57352     57353     57354     57358     57354     57355
     57354     57356     57354     57357     57358     57359     57360     57364
     57360     57361     57360     57362     57360     57363     57364     57365
     57366     57370     57366     57367     57366     57368     57366     57369
     57370     57371     57372     57376     57372     57373     57372     57374
     57372     57375     57376     57377     57378     57382     57378     57379
     57378     57380     57378     57381     57382     57383     57384     57388
     57384     57385     57384     57386     57384     57387     57388     57389
     57390     57394     57390     57391     57390     57392     57390     57393
     57394     57395     57396     57400     57396     57397     57396     57398
     57396     57399     57400     57401     57402     57406     57402     57403
     57402     57404     57402     57405     57406     57407     57408     57412
     57408     57409     57408     57410     57408     57411     57412     57413
     57414     57418     57414     57415     57414     57416     57414     57417
     57418     57419     57420     57424     57420     57421     57420     57422
     57420     57423     57424     57425     57426     57430     57426     57427
     57426     57428     57426     57429     57430     57431     57432     57436
     57432     57433     57432     57434     57432     57435     57436     57437
     57438     57442     57438     57439     57438     57440     57438     57441
     57442     57443     57444     57448     57444     57445     57444     57446
     57444     57447     57448     57449     57450     57454     57450     57451
     57450     57452     57450     57453     57454     57455     57456     57460
     57456     57457     57456     57458     57456     57459     57460     57461
     57462     57466     57462     57463     57462     57464     57462     57465
     57466     57467     57468     57472     57468     57469     57468     57470
     57468     57471     57472     57473     57474     57478     57474     57475
     57474     57476     57474     57477     57478     57479     57480     57484
     57480     57481     57480     57482     57480     57483     57484     57485
     57486     57490     57486     57487     57486     57488     57486     57489
     57490     57491     57492     57496     57492     57493     57492     57494
     57492     57495     57496     57497     57498     57502     57498     57499
     57498     57500     57498     57501     57502     57503     57504     57508
     57504     57505     57504     57506     57504     57507     57508     57509
     57510     57514     57510     57511     57510     57512     57510     57513
     57514     57515     57516     57520     57516     57517     57516     57518
     57516     57519     57520     57521     57522     57526     57522     57523
     57522     57524     57522     57525     57526     57527     57528     57532
     57528     57529     57528     57530     57528     57531     57532     57533
     57534     57538     57534     57535     57534     57536     57534     57537
     57538     57539     57540     57544     57540     57541     57540     57542
     57540     57543     57544     57545     57546     57550     57546     57547
     57546     57548     57546     57549     57550     57551     57552     57556
     57552     57553     57552     57554     57552     57555     57556     57557
     57558     57562     57558     57559     57558     57560     57558     57561
     57562     57563     57564     57568     57564     57565     57564     57566
     57564     57567     57568     57569     57570     57574     57570     57571
     57570     57572     57570     57573     57574     57575     57576     57580
     57576     57577     57576     57578     57576     57579     57580     57581
     57582     57586     57582     57583     57582     57584     57582     57585
     57586     57587     57588     57592     57588     57589     57588     57590
     57588     57591     57592     57593     57594     57598     57594     57595
     57594     57596     57594     57597     57598     57599     57600     57604
     57600     57601     57600     57602     57600     57603     57604     57605
     57606     57610     57606     57607     57606     57608     57606     57609
     57610     57611     57612     57616     57612     57613     57612     57614
     57612     57615     57616     57617     57618     57622     57618     57619
     57618     57620     57618     57621     57622     57623     57624     57628
     57624     57625     57624     57626     57624     57627     57628     57629
     57630     57634     57630     57631     57630     57632     57630     57633
     57634     57635     57636     57640     57636     57637     57636     57638
     57636     57639     57640     57641     57642     57646     57642     57643
     57642     57644     57642     57645     57646     57647     57648     57652
     57648     57649     57648     57650     57648     57651     57652     57653
     57654     57658     57654     57655     57654     57656     57654     57657
     57658     57659     57660     57664     57660     57661     57660     57662
     57660     57663     57664     57665     57666     57670     57666     57667
     57666     57668     57666     57669     57670     57671     57672     57676
     57672     57673     57672     57674     57672     57675     57676     57677
     57678     57682     57678     57679     57678     57680     57678     57681
     57682     57683     57684     57688     57684     57685     57684     57686
     57684     57687     57688     57689     57690     57694     57690     57691
     57690     57692     57690     57693     57694     57695     57696     57700
     57696     57697     57696     57698     57696     57699     57700     57701
     57702     57706     57702     57703     57702     57704     57702     57705
     57706     57707     57708     57712     57708     57709     57708     57710
     57708     57711     57712     57713     57714     57718     57714     57715
     57714     57716     57714     57717     57718     57719     57720     57724
     57720     57721     57720     57722     57720     57723     57724     57725
     57726     57730     57726     57727     57726     57728     57726     57729
     57730     57731     57732     57736     57732     57733     57732     57734
     57732     57735     57736     57737     57738     57742     57738     57739
     57738     57740     57738     57741     57742     57743     57744     57748
     57744     57745     57744     57746     57744     57747     57748     57749
     57750     57754     57750     57751     57750     57752     57750     57753
     57754     57755     57756     57760     57756     57757     57756     57758
     57756     57759     57760     57761     57762     57766     57762     57763
     57762     57764     57762     57765     57766     57767     57768     57772
     57768     57769     57768     57770     57768     57771     57772     57773
     57774     57778     57774     57775     57774     57776     57774     57777
     57778     57779     57780     57784     57780     57781     57780     57782
     57780     57783     57784     57785     57786     57790     57786     57787
     57786     57788     57786     57789     57790     57791     57792     57796
     57792     57793     57792     57794     57792     57795     57796     57797
     57798     57802     57798     57799     57798     57800     57798     57801
     57802     57803     57804     57808     57804     57805     57804     57806
     57804     57807     57808     57809     57810     57814     57810     57811
     57810     57812     57810     57813     57814     57815     57816     57820
     57816     57817     57816     57818     57816     57819     57820     57821
     57822     57826     57822     57823     57822     57824     57822     57825
     57826     57827     57828     57832     57828     57829     57828     57830
     57828     57831     57832     57833     57834     57838     57834     57835
     57834     57836     57834     57837     57838     57839     57840     57844
     57840     57841     57840     57842     57840     57843     57844     57845
     57846     57850     57846     57847     57846     57848     57846     57849
     57850     57851     57852     57856     57852     57853     57852     57854
     57852     57855     57856     57857     57858     57862     57858     57859
     57858     57860     57858     57861     57862     57863     57864     57868
     57864     57865     57864     57866     57864     57867     57868     57869
     57870     57874     57870     57871     57870     57872     57870     57873
     57874     57875     57876     57880     57876     57877     57876     57878
     57876     57879     57880     57881     57882     57886     57882     57883
     57882     57884     57882     57885     57886     57887     57888     57892
     57888     57889     57888     57890     57888     57891     57892     57893
     57894     57898     57894     57895     57894     57896     57894     57897
     57898     57899     57900     57904     57900     57901     57900     57902
     57900     57903     57904     57905     57906     57910     57906     57907
     57906     57908     57906     57909     57910     57911     57912     57916
     57912     57913     57912     57914     57912     57915     57916     57917
     57918     57922     57918     57919     57918     57920     57918     57921
     57922     57923     57924     57928     57924     57925     57924     57926
     57924     57927     57928     57929     57930     57934     57930     57931
     57930     57932     57930     57933     57934     57935     57936     57940
     57936     57937     57936     57938     57936     57939     57940     57941
     57942     57946     57942     57943     57942     57944     57942     57945
     57946     57947     57948     57952     57948     57949     57948     57950
     57948     57951     57952     57953     57954     57958     57954     57955
     57954     57956     57954     57957     57958     57959     57960     57964
     57960     57961     57960     57962     57960     57963     57964     57965
     57966     57970     57966     57967     57966     57968     57966     57969
     57970     57971     57972     57976     57972     57973     57972     57974
     57972     57975     57976     57977     57978     57982     57978     57979
     57978     57980     57978     57981     57982     57983     57984     57988
     57984     57985     57984     57986     57984     57987     57988     57989
     57990     57994     57990     57991     57990     57992     57990     57993
     57994     57995     57996     58000     57996     57997     57996     57998
     57996     57999     58000     58001     58002     58006     58002     58003
     58002     58004     58002     58005     58006     58007     58008     58012
     58008     58009     58008     58010     58008     58011     58012     58013
     58014     58018     58014     58015     58014     58016     58014     58017
     58018     58019     58020     58024     58020     58021     58020     58022
     58020     58023     58024     58025     58026     58030     58026     58027
     58026     58028     58026     58029     58030     58031     58032     58036
     58032     58033     58032     58034     58032     58035     58036     58037
     58038     58042     58038     58039     58038     58040     58038     58041
     58042     58043     58044     58048     58044     58045     58044     58046
     58044     58047     58048     58049     58050     58054     58050     58051
     58050     58052     58050     58053     58054     58055     58056     58060
     58056     58057     58056     58058     58056     58059     58060     58061
     58062     58066     58062     58063     58062     58064     58062     58065
     58066     58067     58068     58072     58068     58069     58068     58070
     58068     58071     58072     58073     58074     58078     58074     58075
     58074     58076     58074     58077     58078     58079     58080     58084
     58080     58081     58080     58082     58080     58083     58084     58085
     58086     58090     58086     58087     58086     58088     58086     58089
     58090     58091     58092     58096     58092     58093     58092     58094
     58092     58095     58096     58097     58098     58102     58098     58099
     58098     58100     58098     58101     58102     58103     58104     58108
     58104     58105     58104     58106     58104     58107     58108     58109
     58110     58114     58110     58111     58110     58112     58110     58113
     58114     58115     58116     58120     58116     58117     58116     58118
     58116     58119     58120     58121     58122     58126     58122     58123
     58122     58124     58122     58125     58126     58127     58128     58132
     58128     58129     58128     58130     58128     58131     58132     58133
     58134     58138     58134     58135     58134     58136     58134     58137
     58138     58139     58140     58144     58140     58141     58140     58142
     58140     58143     58144     58145     58146     58150     58146     58147
     58146     58148     58146     58149     58150     58151     58152     58156
     58152     58153     58152     58154     58152     58155     58156     58157
     58158     58162     58158     58159     58158     58160     58158     58161
     58162     58163     58164     58168     58164     58165     58164     58166
     58164     58167     58168     58169     58170     58174     58170     58171
     58170     58172     58170     58173     58174     58175     58176     58180
     58176     58177     58176     58178     58176     58179     58180     58181
     58182     58186     58182     58183     58182     58184     58182     58185
     58186     58187     58188     58192     58188     58189     58188     58190
     58188     58191     58192     58193     58194     58198     58194     58195
     58194     58196     58194     58197     58198     58199     58200     58204
     58200     58201     58200     58202     58200     58203     58204     58205
     58206     58210     58206     58207     58206     58208     58206     58209
     58210     58211     58212     58216     58212     58213     58212     58214
     58212     58215     58216     58217     58218     58222     58218     58219
     58218     58220     58218     58221     58222     58223     58224     58228
     58224     58225     58224     58226     58224     58227     58228     58229
     58230     58234     58230     58231     58230     58232     58230     58233
     58234     58235     58236     58240     58236     58237     58236     58238
     58236     58239     58240     58241     58242     58246     58242     58243
     58242     58244     58242     58245     58246     58247     58248     58252
     58248     58249     58248     58250     58248     58251     58252     58253
     58254     58258     58254     58255     58254     58256     58254     58257
     58258     58259     58260     58264     58260     58261     58260     58262
     58260     58263     58264     58265     58266     58270     58266     58267
     58266     58268     58266     58269     58270     58271     58272     58276
     58272     58273     58272     58274     58272     58275     58276     58277
     58278     58282     58278     58279     58278     58280     58278     58281
     58282     58283     58284     58288     58284     58285     58284     58286
     58284     58287     58288     58289     58290     58294     58290     58291
     58290     58292     58290     58293     58294     58295     58296     58300
     58296     58297     58296     58298     58296     58299     58300     58301
     58302     58306     58302     58303     58302     58304     58302     58305
     58306     58307     58308     58312     58308     58309     58308     58310
     58308     58311     58312     58313     58314     58318     58314     58315
     58314     58316     58314     58317     58318     58319     58320     58324
     58320     58321     58320     58322     58320     58323     58324     58325
     58326     58330     58326     58327     58326     58328     58326     58329
     58330     58331     58332     58336     58332     58333     58332     58334
     58332     58335     58336     58337     58338     58342     58338     58339
     58338     58340     58338     58341     58342     58343     58344     58348
     58344     58345     58344     58346     58344     58347     58348     58349
     58350     58354     58350     58351     58350     58352     58350     58353
     58354     58355     58356     58360     58356     58357     58356     58358
     58356     58359     58360     58361     58362     58366     58362     58363
     58362     58364     58362     58365     58366     58367     58368     58372
     58368     58369     58368     58370     58368     58371     58372     58373
     58374     58378     58374     58375     58374     58376     58374     58377
     58378     58379     58380     58384     58380     58381     58380     58382
     58380     58383     58384     58385     58386     58390     58386     58387
     58386     58388     58386     58389     58390     58391     58392     58396
     58392     58393     58392     58394     58392     58395     58396     58397
     58398     58402     58398     58399     58398     58400     58398     58401
     58402     58403     58404     58408     58404     58405     58404     58406
     58404     58407     58408     58409     58410     58414     58410     58411
     58410     58412     58410     58413     58414     58415     58416     58420
     58416     58417     58416     58418     58416     58419     58420     58421
     58422     58426     58422     58423     58422     58424     58422     58425
     58426     58427     58428     58432     58428     58429     58428     58430
     58428     58431     58432     58433     58434     58438     58434     58435
     58434     58436     58434     58437     58438     58439     58440     58444
     58440     58441     58440     58442     58440     58443     58444     58445
     58446     58450     58446     58447     58446     58448     58446     58449
     58450     58451     58452     58456     58452     58453     58452     58454
     58452     58455     58456     58457     58458     58462     58458     58459
     58458     58460     58458     58461     58462     58463     58464     58468
     58464     58465     58464     58466     58464     58467     58468     58469
     58470     58474     58470     58471     58470     58472     58470     58473
     58474     58475     58476     58480     58476     58477     58476     58478
     58476     58479     58480     58481     58482     58486     58482     58483
     58482     58484     58482     58485     58486     58487     58488     58492
     58488     58489     58488     58490     58488     58491     58492     58493
     58494     58498     58494     58495     58494     58496     58494     58497
     58498     58499     58500     58504     58500     58501     58500     58502
     58500     58503     58504     58505     58506     58510     58506     58507
     58506     58508     58506     58509     58510     58511     58512     58516
     58512     58513     58512     58514     58512     58515     58516     58517
     58518     58522     58518     58519     58518     58520     58518     58521
     58522     58523     58524     58528     58524     58525     58524     58526
     58524     58527     58528     58529     58530     58534     58530     58531
     58530     58532     58530     58533     58534     58535     58536     58540
     58536     58537     58536     58538     58536     58539     58540     58541
     58542     58546     58542     58543     58542     58544     58542     58545
     58546     58547     58548     58552     58548     58549     58548     58550
     58548     58551     58552     58553     58554     58558     58554     58555
     58554     58556     58554     58557     58558     58559     58560     58564
     58560     58561     58560     58562     58560     58563     58564     58565
     58566     58570     58566     58567     58566     58568     58566     58569
     58570     58571     58572     58576     58572     58573     58572     58574
     58572     58575     58576     58577     58578     58582     58578     58579
     58578     58580     58578     58581     58582     58583     58584     58588
     58584     58585     58584     58586     58584     58587     58588     58589
     58590     58594     58590     58591     58590     58592     58590     58593
     58594     58595     58596     58600     58596     58597     58596     58598
     58596     58599     58600     58601     58602     58606     58602     58603
     58602     58604     58602     58605     58606     58607     58608     58612
     58608     58609     58608     58610     58608     58611     58612     58613
     58614     58618     58614     58615     58614     58616     58614     58617
     58618     58619     58620     58624     58620     58621     58620     58622
     58620     58623     58624     58625     58626     58630     58626     58627
     58626     58628     58626     58629     58630     58631     58632     58636
     58632     58633     58632     58634     58632     58635     58636     58637
     58638     58642     58638     58639     58638     58640     58638     58641
     58642     58643     58644     58648     58644     58645     58644     58646
     58644     58647     58648     58649     58650     58654     58650     58651
     58650     58652     58650     58653     58654     58655     58656     58660
     58656     58657     58656     58658     58656     58659     58660     58661
     58662     58666     58662     58663     58662     58664     58662     58665
     58666     58667     58668     58672     58668     58669     58668     58670
     58668     58671     58672     58673     58674     58678     58674     58675
     58674     58676     58674     58677     58678     58679     58680     58684
     58680     58681     58680     58682     58680     58683     58684     58685
     58686     58690     58686     58687     58686     58688     58686     58689
     58690     58691     58692     58696     58692     58693     58692     58694
     58692     58695     58696     58697     58698     58702     58698     58699
     58698     58700     58698     58701     58702     58703     58704     58708
     58704     58705     58704     58706     58704     58707     58708     58709
     58710     58714     58710     58711     58710     58712     58710     58713
     58714     58715     58716     58720     58716     58717     58716     58718
     58716     58719     58720     58721     58722     58726     58722     58723
     58722     58724     58722     58725     58726     58727     58728     58732
     58728     58729     58728     58730     58728     58731     58732     58733
     58734     58738     58734     58735     58734     58736     58734     58737
     58738     58739     58740     58744     58740     58741     58740     58742
     58740     58743     58744     58745     58746     58750     58746     58747
     58746     58748     58746     58749     58750     58751     58752     58756
     58752     58753     58752     58754     58752     58755     58756     58757
     58758     58762     58758     58759     58758     58760     58758     58761
     58762     58763     58764     58768     58764     58765     58764     58766
     58764     58767     58768     58769     58770     58774     58770     58771
     58770     58772     58770     58773     58774     58775     58776     58780
     58776     58777     58776     58778     58776     58779     58780     58781
     58782     58786     58782     58783     58782     58784     58782     58785
     58786     58787     58788     58792     58788     58789     58788     58790
     58788     58791     58792     58793     58794     58798     58794     58795
     58794     58796     58794     58797     58798     58799     58800     58804
     58800     58801     58800     58802     58800     58803     58804     58805
     58806     58810     58806     58807     58806     58808     58806     58809
     58810     58811     58812     58816     58812     58813     58812     58814
     58812     58815     58816     58817     58818     58822     58818     58819
     58818     58820     58818     58821     58822     58823     58824     58828
     58824     58825     58824     58826     58824     58827     58828     58829
     58830     58834     58830     58831     58830     58832     58830     58833
     58834     58835     58836     58840     58836     58837     58836     58838
     58836     58839     58840     58841     58842     58846     58842     58843
     58842     58844     58842     58845     58846     58847     58848     58852
     58848     58849     58848     58850     58848     58851     58852     58853
     58854     58858     58854     58855     58854     58856     58854     58857
     58858     58859     58860     58864     58860     58861     58860     58862
     58860     58863     58864     58865     58866     58870     58866     58867
     58866     58868     58866     58869     58870     58871     58872     58876
     58872     58873     58872     58874     58872     58875     58876     58877
     58878     58882     58878     58879     58878     58880     58878     58881
     58882     58883     58884     58888     58884     58885     58884     58886
     58884     58887     58888     58889     58890     58894     58890     58891
     58890     58892     58890     58893     58894     58895     58896     58900
     58896     58897     58896     58898     58896     58899     58900     58901
     58902     58906     58902     58903     58902     58904     58902     58905
     58906     58907     58908     58912     58908     58909     58908     58910
     58908     58911     58912     58913     58914     58918     58914     58915
     58914     58916     58914     58917     58918     58919     58920     58924
     58920     58921     58920     58922     58920     58923     58924     58925
     58926     58930     58926     58927     58926     58928     58926     58929
     58930     58931     58932     58936     58932     58933     58932     58934
     58932     58935     58936     58937     58938     58942     58938     58939
     58938     58940     58938     58941     58942     58943     58944     58948
     58944     58945     58944     58946     58944     58947     58948     58949
     58950     58954     58950     58951     58950     58952     58950     58953
     58954     58955     58956     58960     58956     58957     58956     58958
     58956     58959     58960     58961     58962     58966     58962     58963
     58962     58964     58962     58965     58966     58967     58968     58972
     58968     58969     58968     58970     58968     58971     58972     58973
     58974     58978     58974     58975     58974     58976     58974     58977
     58978     58979     58980     58984     58980     58981     58980     58982
     58980     58983     58984     58985     58986     58990     58986     58987
     58986     58988     58986     58989     58990     58991     58992     58996
     58992     58993     58992     58994     58992     58995     58996     58997
     58998     59002     58998     58999     58998     59000     58998     59001
     59002     59003     59004     59008     59004     59005     59004     59006
     59004     59007     59008     59009     59010     59014     59010     59011
     59010     59012     59010     59013     59014     59015     59016     59020
     59016     59017     59016     59018     59016     59019     59020     59021
     59022     59026     59022     59023     59022     59024     59022     59025
     59026     59027     59028     59032     59028     59029     59028     59030
     59028     59031     59032     59033     59034     59038     59034     59035
     59034     59036     59034     59037     59038     59039     59040     59044
     59040     59041     59040     59042     59040     59043     59044     59045
     59046     59050     59046     59047     59046     59048     59046     59049
     59050     59051     59052     59056     59052     59053     59052     59054
     59052     59055     59056     59057     59058     59062     59058     59059
     59058     59060     59058     59061     59062     59063     59064     59068
     59064     59065     59064     59066     59064     59067     59068     59069
     59070     59074     59070     59071     59070     59072     59070     59073
     59074     59075     59076     59080     59076     59077     59076     59078
     59076     59079     59080     59081     59082     59086     59082     59083
     59082     59084     59082     59085     59086     59087     59088     59092
     59088     59089     59088     59090     59088     59091     59092     59093
     59094     59098     59094     59095     59094     59096     59094     59097
     59098     59099     59100     59104     59100     59101     59100     59102
     59100     59103     59104     59105     59106     59110     59106     59107
     59106     59108     59106     59109     59110     59111     59112     59116
     59112     59113     59112     59114     59112     59115     59116     59117
     59118     59122     59118     59119     59118     59120     59118     59121
     59122     59123     59124     59128     59124     59125     59124     59126
     59124     59127     59128     59129     59130     59134     59130     59131
     59130     59132     59130     59133     59134     59135     59136     59140
     59136     59137     59136     59138     59136     59139     59140     59141
     59142     59146     59142     59143     59142     59144     59142     59145
     59146     59147     59148     59152     59148     59149     59148     59150
     59148     59151     59152     59153     59154     59158     59154     59155
     59154     59156     59154     59157     59158     59159     59160     59164
     59160     59161     59160     59162     59160     59163     59164     59165
     59166     59170     59166     59167     59166     59168     59166     59169
     59170     59171     59172     59176     59172     59173     59172     59174
     59172     59175     59176     59177     59178     59182     59178     59179
     59178     59180     59178     59181     59182     59183     59184     59188
     59184     59185     59184     59186     59184     59187     59188     59189
     59190     59194     59190     59191     59190     59192     59190     59193
     59194     59195     59196     59200     59196     59197     59196     59198
     59196     59199     59200     59201     59202     59206     59202     59203
     59202     59204     59202     59205     59206     59207     59208     59212
     59208     59209     59208     59210     59208     59211     59212     59213
     59214     59218     59214     59215     59214     59216     59214     59217
     59218     59219     59220     59224     59220     59221     59220     59222
     59220     59223     59224     59225     59226     59230     59226     59227
     59226     59228     59226     59229     59230     59231     59232     59236
     59232     59233     59232     59234     59232     59235     59236     59237
     59238     59242     59238     59239     59238     59240     59238     59241
     59242     59243     59244     59248     59244     59245     59244     59246
     59244     59247     59248     59249     59250     59254     59250     59251
     59250     59252     59250     59253     59254     59255     59256     59260
     59256     59257     59256     59258     59256     59259     59260     59261
     59262     59266     59262     59263     59262     59264     59262     59265
     59266     59267     59268     59272     59268     59269     59268     59270
     59268     59271     59272     59273     59274     59278     59274     59275
     59274     59276     59274     59277     59278     59279     59280     59284
     59280     59281     59280     59282     59280     59283     59284     59285
     59286     59290     59286     59287     59286     59288     59286     59289
     59290     59291     59292     59296     59292     59293     59292     59294
     59292     59295     59296     59297     59298     59302     59298     59299
     59298     59300     59298     59301     59302     59303     59304     59308
     59304     59305     59304     59306     59304     59307     59308     59309
     59310     59314     59310     59311     59310     59312     59310     59313
     59314     59315     59316     59320     59316     59317     59316     59318
     59316     59319     59320     59321     59322     59326     59322     59323
     59322     59324     59322     59325     59326     59327     59328     59332
     59328     59329     59328     59330     59328     59331     59332     59333
     59334     59338     59334     59335     59334     59336     59334     59337
     59338     59339     59340     59344     59340     59341     59340     59342
     59340     59343     59344     59345     59346     59350     59346     59347
     59346     59348     59346     59349     59350     59351     59352     59356
     59352     59353     59352     59354     59352     59355     59356     59357
     59358     59362     59358     59359     59358     59360     59358     59361
     59362     59363     59364     59368     59364     59365     59364     59366
     59364     59367     59368     59369     59370     59374     59370     59371
     59370     59372     59370     59373     59374     59375     59376     59380
     59376     59377     59376     59378     59376     59379     59380     59381
     59382     59386     59382     59383     59382     59384     59382     59385
     59386     59387     59388     59392     59388     59389     59388     59390
     59388     59391     59392     59393     59394     59398     59394     59395
     59394     59396     59394     59397     59398     59399     59400     59404
     59400     59401     59400     59402     59400     59403     59404     59405
     59406     59410     59406     59407     59406     59408     59406     59409
     59410     59411     59412     59416     59412     59413     59412     59414
     59412     59415     59416     59417     59418     59422     59418     59419
     59418     59420     59418     59421     59422     59423     59424     59428
     59424     59425     59424     59426     59424     59427     59428     59429
     59430     59434     59430     59431     59430     59432     59430     59433
     59434     59435     59436     59440     59436     59437     59436     59438
     59436     59439     59440     59441     59442     59446     59442     59443
     59442     59444     59442     59445     59446     59447     59448     59452
     59448     59449     59448     59450     59448     59451     59452     59453
     59454     59458     59454     59455     59454     59456     59454     59457
     59458     59459     59460     59464     59460     59461     59460     59462
     59460     59463     59464     59465     59466     59470     59466     59467
     59466     59468     59466     59469     59470     59471     59472     59476
     59472     59473     59472     59474     59472     59475     59476     59477
     59478     59482     59478     59479     59478     59480     59478     59481
     59482     59483     59484     59488     59484     59485     59484     59486
     59484     59487     59488     59489     59490     59494     59490     59491
     59490     59492     59490     59493     59494     59495     59496     59500
     59496     59497     59496     59498     59496     59499     59500     59501
     59502     59506     59502     59503     59502     59504     59502     59505
     59506     59507     59508     59512     59508     59509     59508     59510
     59508     59511     59512     59513     59514     59518     59514     59515
     59514     59516     59514     59517     59518     59519     59520     59524
     59520     59521     59520     59522     59520     59523     59524     59525
     59526     59530     59526     59527     59526     59528     59526     59529
     59530     59531     59532     59536     59532     59533     59532     59534
     59532     59535     59536     59537     59538     59542     59538     59539
     59538     59540     59538     59541     59542     59543     59544     59548
     59544     59545     59544     59546     59544     59547     59548     59549
     59550     59554     59550     59551     59550     59552     59550     59553
     59554     59555     59556     59560     59556     59557     59556     59558
     59556     59559     59560     59561     59562     59566     59562     59563
     59562     59564     59562     59565     59566     59567     59568     59572
     59568     59569     59568     59570     59568     59571     59572     59573
     59574     59578     59574     59575     59574     59576     59574     59577
     59578     59579     59580     59584     59580     59581     59580     59582
     59580     59583     59584     59585     59586     59590     59586     59587
     59586     59588     59586     59589     59590     59591     59592     59596
     59592     59593     59592     59594     59592     59595     59596     59597
     59598     59602     59598     59599     59598     59600     59598     59601
     59602     59603     59604     59608     59604     59605     59604     59606
     59604     59607     59608     59609     59610     59614     59610     59611
     59610     59612     59610     59613     59614     59615     59616     59620
     59616     59617     59616     59618     59616     59619     59620     59621
     59622     59626     59622     59623     59622     59624     59622     59625
     59626     59627     59628     59632     59628     59629     59628     59630
     59628     59631     59632     59633     59634     59638     59634     59635
     59634     59636     59634     59637     59638     59639     59640     59644
     59640     59641     59640     59642     59640     59643     59644     59645
     59646     59650     59646     59647     59646     59648     59646     59649
     59650     59651     59652     59656     59652     59653     59652     59654
     59652     59655     59656     59657     59658     59662     59658     59659
     59658     59660     59658     59661     59662     59663     59664     59668
     59664     59665     59664     59666     59664     59667     59668     59669
     59670     59674     59670     59671     59670     59672     59670     59673
     59674     59675     59676     59680     59676     59677     59676     59678
     59676     59679     59680     59681     59682     59686     59682     59683
     59682     59684     59682     59685     59686     59687     59688     59692
     59688     59689     59688     59690     59688     59691     59692     59693
     59694     59698     59694     59695     59694     59696     59694     59697
     59698     59699     59700     59704     59700     59701     59700     59702
     59700     59703     59704     59705     59706     59710     59706     59707
     59706     59708     59706     59709     59710     59711     59712     59716
     59712     59713     59712     59714     59712     59715     59716     59717
     59718     59722     59718     59719     59718     59720     59718     59721
     59722     59723     59724     59728     59724     59725     59724     59726
     59724     59727     59728     59729     59730     59734     59730     59731
     59730     59732     59730     59733     59734     59735     59736     59740
     59736     59737     59736     59738     59736     59739     59740     59741
     59742     59746     59742     59743     59742     59744     59742     59745
     59746     59747     59748     59752     59748     59749     59748     59750
     59748     59751     59752     59753     59754     59758     59754     59755
     59754     59756     59754     59757     59758     59759     59760     59764
     59760     59761     59760     59762     59760     59763     59764     59765
     59766     59770     59766     59767     59766     59768     59766     59769
     59770     59771     59772     59776     59772     59773     59772     59774
     59772     59775     59776     59777     59778     59782     59778     59779
     59778     59780     59778     59781     59782     59783     59784     59788
     59784     59785     59784     59786     59784     59787     59788     59789
     59790     59794     59790     59791     59790     59792     59790     59793
     59794     59795     59796     59800     59796     59797     59796     59798
     59796     59799     59800     59801     59802     59806     59802     59803
     59802     59804     59802     59805     59806     59807     59808     59812
     59808     59809     59808     59810     59808     59811     59812     59813
     59814     59818     59814     59815     59814     59816     59814     59817
     59818     59819     59820     59824     59820     59821     59820     59822
     59820     59823     59824     59825     59826     59830     59826     59827
     59826     59828     59826     59829     59830     59831     59832     59836
     59832     59833     59832     59834     59832     59835     59836     59837
     59838     59842     59838     59839     59838     59840     59838     59841
     59842     59843     59844     59848     59844     59845     59844     59846
     59844     59847     59848     59849     59850     59854     59850     59851
     59850     59852     59850     59853     59854     59855     59856     59860
     59856     59857     59856     59858     59856     59859     59860     59861
     59862     59866     59862     59863     59862     59864     59862     59865
     59866     59867     59868     59872     59868     59869     59868     59870
     59868     59871     59872     59873     59874     59878     59874     59875
     59874     59876     59874     59877     59878     59879     59880     59884
     59880     59881     59880     59882     59880     59883     59884     59885
     59886     59890     59886     59887     59886     59888     59886     59889
     59890     59891     59892     59896     59892     59893     59892     59894
     59892     59895     59896     59897     59898     59902     59898     59899
     59898     59900     59898     59901     59902     59903     59904     59908
     59904     59905     59904     59906     59904     59907     59908     59909
     59910     59914     59910     59911     59910     59912     59910     59913
     59914     59915     59916     59920     59916     59917     59916     59918
     59916     59919     59920     59921     59922     59926     59922     59923
     59922     59924     59922     59925     59926     59927     59928     59932
     59928     59929     59928     59930     59928     59931     59932     59933
     59934     59938     59934     59935     59934     59936     59934     59937
     59938     59939     59940     59944     59940     59941     59940     59942
     59940     59943     59944     59945     59946     59950     59946     59947
     59946     59948     59946     59949     59950     59951     59952     59956
     59952     59953     59952     59954     59952     59955     59956     59957
     59958     59962     59958     59959     59958     59960     59958     59961
     59962     59963     59964     59968     59964     59965     59964     59966
     59964     59967     59968     59969     59970     59974     59970     59971
     59970     59972     59970     59973     59974     59975     59976     59980
     59976     59977     59976     59978     59976     59979     59980     59981
     59982     59986     59982     59983     59982     59984     59982     59985
     59986     59987     59988     59992     59988     59989     59988     59990
     59988     59991     59992     59993     59994     59998     59994     59995
     59994     59996     59994     59997     59998     59999     60000     60004
     60000     60001     60000     60002     60000     60003     60004     60005
     60006     60010     60006     60007     60006     60008     60006     60009
     60010     60011     60012     60016     60012     60013     60012     60014
     60012     60015     60016     60017     60018     60022     60018     60019
     60018     60020     60018     60021     60022     60023     60024     60028
     60024     60025     60024     60026     60024     60027     60028     60029
     60030     60034     60030     60031     60030     60032     60030     60033
     60034     60035     60036     60040     60036     60037     60036     60038
     60036     60039     60040     60041     60042     60046     60042     60043
     60042     60044     60042     60045     60046     60047     60048     60052
     60048     60049     60048     60050     60048     60051     60052     60053
     60054     60058     60054     60055     60054     60056     60054     60057
     60058     60059     60060     60064     60060     60061     60060     60062
     60060     60063     60064     60065     60066     60070     60066     60067
     60066     60068     60066     60069     60070     60071     60072     60076
     60072     60073     60072     60074     60072     60075     60076     60077
     60078     60082     60078     60079     60078     60080     60078     60081
     60082     60083     60084     60088     60084     60085     60084     60086
     60084     60087     60088     60089     60090     60094     60090     60091
     60090     60092     60090     60093     60094     60095     60096     60100
     60096     60097     60096     60098     60096     60099     60100     60101
     60102     60106     60102     60103     60102     60104     60102     60105
     60106     60107     60108     60112     60108     60109     60108     60110
     60108     60111     60112     60113     60114     60118     60114     60115
     60114     60116     60114     60117     60118     60119     60120     60124
     60120     60121     60120     60122     60120     60123     60124     60125
     60126     60130     60126     60127     60126     60128     60126     60129
     60130     60131     60132     60136     60132     60133     60132     60134
     60132     60135     60136     60137     60138     60142     60138     60139
     60138     60140     60138     60141     60142     60143     60144     60148
     60144     60145     60144     60146     60144     60147     60148     60149
     60150     60154     60150     60151     60150     60152     60150     60153
     60154     60155     60156     60160     60156     60157     60156     60158
     60156     60159     60160     60161     60162     60166     60162     60163
     60162     60164     60162     60165     60166     60167     60168     60172
     60168     60169     60168     60170     60168     60171     60172     60173
     60174     60178     60174     60175     60174     60176     60174     60177
     60178     60179     60180     60184     60180     60181     60180     60182
     60180     60183     60184     60185     60186     60190     60186     60187
     60186     60188     60186     60189     60190     60191     60192     60196
     60192     60193     60192     60194     60192     60195     60196     60197
     60198     60202     60198     60199     60198     60200     60198     60201
     60202     60203     60204     60208     60204     60205     60204     60206
     60204     60207     60208     60209     60210     60214     60210     60211
     60210     60212     60210     60213     60214     60215     60216     60220
     60216     60217     60216     60218     60216     60219     60220     60221
     60222     60226     60222     60223     60222     60224     60222     60225
     60226     60227     60228     60232     60228     60229     60228     60230
     60228     60231     60232     60233     60234     60238     60234     60235
     60234     60236     60234     60237     60238     60239     60240     60244
     60240     60241     60240     60242     60240     60243     60244     60245
     60246     60250     60246     60247     60246     60248     60246     60249
     60250     60251     60252     60256     60252     60253     60252     60254
     60252     60255     60256     60257     60258     60262     60258     60259
     60258     60260     60258     60261     60262     60263     60264     60268
     60264     60265     60264     60266     60264     60267     60268     60269
     60270     60274     60270     60271     60270     60272     60270     60273
     60274     60275     60276     60280     60276     60277     60276     60278
     60276     60279     60280     60281     60282     60286     60282     60283
     60282     60284     60282     60285     60286     60287     60288     60292
     60288     60289     60288     60290     60288     60291     60292     60293
     60294     60298     60294     60295     60294     60296     60294     60297
     60298     60299     60300     60304     60300     60301     60300     60302
     60300     60303     60304     60305     60306     60310     60306     60307
     60306     60308     60306     60309     60310     60311     60312     60316
     60312     60313     60312     60314     60312     60315     60316     60317
     60318     60322     60318     60319     60318     60320     60318     60321
     60322     60323     60324     60328     60324     60325     60324     60326
     60324     60327     60328     60329     60330     60334     60330     60331
     60330     60332     60330     60333     60334     60335     60336     60340
     60336     60337     60336     60338     60336     60339     60340     60341
     60342     60346     60342     60343     60342     60344     60342     60345
     60346     60347     60348     60352     60348     60349     60348     60350
     60348     60351     60352     60353     60354     60358     60354     60355
     60354     60356     60354     60357     60358     60359     60360     60364
     60360     60361     60360     60362     60360     60363     60364     60365
     60366     60370     60366     60367     60366     60368     60366     60369
     60370     60371     60372     60376     60372     60373     60372     60374
     60372     60375     60376     60377     60378     60382     60378     60379
     60378     60380     60378     60381     60382     60383     60384     60388
     60384     60385     60384     60386     60384     60387     60388     60389
     60390     60394     60390     60391     60390     60392     60390     60393
     60394     60395     60396     60400     60396     60397     60396     60398
     60396     60399     60400     60401     60402     60406     60402     60403
     60402     60404     60402     60405     60406     60407     60408     60412
     60408     60409     60408     60410     60408     60411     60412     60413
     60414     60418     60414     60415     60414     60416     60414     60417
     60418     60419     60420     60424     60420     60421     60420     60422
     60420     60423     60424     60425     60426     60430     60426     60427
     60426     60428     60426     60429     60430     60431     60432     60436
     60432     60433     60432     60434     60432     60435     60436     60437
     60438     60442     60438     60439     60438     60440     60438     60441
     60442     60443     60444     60448     60444     60445     60444     60446
     60444     60447     60448     60449     60450     60454     60450     60451
     60450     60452     60450     60453     60454     60455     60456     60460
     60456     60457     60456     60458     60456     60459     60460     60461
     60462     60466     60462     60463     60462     60464     60462     60465
     60466     60467     60468     60472     60468     60469     60468     60470
     60468     60471     60472     60473     60474     60478     60474     60475
     60474     60476     60474     60477     60478     60479     60480     60484
     60480     60481     60480     60482     60480     60483     60484     60485
     60486     60490     60486     60487     60486     60488     60486     60489
     60490     60491     60492     60496     60492     60493     60492     60494
     60492     60495     60496     60497     60498     60502     60498     60499
     60498     60500     60498     60501     60502     60503     60504     60508
     60504     60505     60504     60506     60504     60507     60508     60509
     60510     60514     60510     60511     60510     60512     60510     60513
     60514     60515     60516     60520     60516     60517     60516     60518
     60516     60519     60520     60521     60522     60526     60522     60523
     60522     60524     60522     60525     60526     60527     60528     60532
     60528     60529     60528     60530     60528     60531     60532     60533
     60534     60538     60534     60535     60534     60536     60534     60537
     60538     60539     60540     60544     60540     60541     60540     60542
     60540     60543     60544     60545     60546     60550     60546     60547
     60546     60548     60546     60549     60550     60551     60552     60556
     60552     60553     60552     60554     60552     60555     60556     60557
     60558     60562     60558     60559     60558     60560     60558     60561
     60562     60563     60564     60568     60564     60565     60564     60566
     60564     60567     60568     60569     60570     60574     60570     60571
     60570     60572     60570     60573     60574     60575     60576     60580
     60576     60577     60576     60578     60576     60579     60580     60581
     60582     60586     60582     60583     60582     60584     60582     60585
     60586     60587     60588     60592     60588     60589     60588     60590
     60588     60591     60592     60593     60594     60598     60594     60595
     60594     60596     60594     60597     60598     60599     60600     60604
     60600     60601     60600     60602     60600     60603     60604     60605
     60606     60610     60606     60607     60606     60608     60606     60609
     60610     60611     60612     60616     60612     60613     60612     60614
     60612     60615     60616     60617     60618     60622     60618     60619
     60618     60620     60618     60621     60622     60623     60624     60628
     60624     60625     60624     60626     60624     60627     60628     60629
     60630     60634     60630     60631     60630     60632     60630     60633
     60634     60635     60636     60640     60636     60637     60636     60638
     60636     60639     60640     60641     60642     60646     60642     60643
     60642     60644     60642     60645     60646     60647     60648     60652
     60648     60649     60648     60650     60648     60651     60652     60653
     60654     60658     60654     60655     60654     60656     60654     60657
     60658     60659     60660     60664     60660     60661     60660     60662
     60660     60663     60664     60665     60666     60670     60666     60667
     60666     60668     60666     60669     60670     60671     60672     60676
     60672     60673     60672     60674     60672     60675     60676     60677
     60678     60682     60678     60679     60678     60680     60678     60681
     60682     60683     60684     60688     60684     60685     60684     60686
     60684     60687     60688     60689     60690     60694     60690     60691
     60690     60692     60690     60693     60694     60695     60696     60700
     60696     60697     60696     60698     60696     60699     60700     60701
     60702     60706     60702     60703     60702     60704     60702     60705
     60706     60707     60708     60712     60708     60709     60708     60710
     60708     60711     60712     60713     60714     60718     60714     60715
     60714     60716     60714     60717     60718     60719     60720     60724
     60720     60721     60720     60722     60720     60723     60724     60725
     60726     60730     60726     60727     60726     60728     60726     60729
     60730     60731     60732     60736     60732     60733     60732     60734
     60732     60735     60736     60737     60738     60742     60738     60739
     60738     60740     60738     60741     60742     60743     60744     60748
     60744     60745     60744     60746     60744     60747     60748     60749
     60750     60754     60750     60751     60750     60752     60750     60753
     60754     60755     60756     60760     60756     60757     60756     60758
     60756     60759     60760     60761     60762     60766     60762     60763
     60762     60764     60762     60765     60766     60767     60768     60772
     60768     60769     60768     60770     60768     60771     60772     60773
     60774     60778     60774     60775     60774     60776     60774     60777
     60778     60779     60780     60784     60780     60781     60780     60782
     60780     60783     60784     60785     60786     60790     60786     60787
     60786     60788     60786     60789     60790     60791     60792     60796
     60792     60793     60792     60794     60792     60795     60796     60797
     60798     60802     60798     60799     60798     60800     60798     60801
     60802     60803     60804     60808     60804     60805     60804     60806
     60804     60807     60808     60809     60810     60814     60810     60811
     60810     60812     60810     60813     60814     60815     60816     60820
     60816     60817     60816     60818     60816     60819     60820     60821
     60822     60826     60822     60823     60822     60824     60822     60825
     60826     60827     60828     60832     60828     60829     60828     60830
     60828     60831     60832     60833     60834     60838     60834     60835
     60834     60836     60834     60837     60838     60839     60840     60844
     60840     60841     60840     60842     60840     60843     60844     60845
     60846     60850     60846     60847     60846     60848     60846     60849
     60850     60851     60852     60856     60852     60853     60852     60854
     60852     60855     60856     60857     60858     60862     60858     60859
     60858     60860     60858     60861     60862     60863     60864     60868
     60864     60865     60864     60866     60864     60867     60868     60869
     60870     60874     60870     60871     60870     60872     60870     60873
     60874     60875     60876     60880     60876     60877     60876     60878
     60876     60879     60880     60881     60882     60886     60882     60883
     60882     60884     60882     60885     60886     60887     60888     60892
     60888     60889     60888     60890     60888     60891     60892     60893
     60894     60898     60894     60895     60894     60896     60894     60897
     60898     60899     60900     60904     60900     60901     60900     60902
     60900     60903     60904     60905     60906     60910     60906     60907
     60906     60908     60906     60909     60910     60911     60912     60916
     60912     60913     60912     60914     60912     60915     60916     60917
     60918     60922     60918     60919     60918     60920     60918     60921
     60922     60923     60924     60928     60924     60925     60924     60926
     60924     60927     60928     60929     60930     60934     60930     60931
     60930     60932     60930     60933     60934     60935     60936     60940
     60936     60937     60936     60938     60936     60939     60940     60941
     60942     60946     60942     60943     60942     60944     60942     60945
     60946     60947     60948     60952     60948     60949     60948     60950
     60948     60951     60952     60953     60954     60958     60954     60955
     60954     60956     60954     60957     60958     60959     60960     60964
     60960     60961     60960     60962     60960     60963     60964     60965
     60966     60970     60966     60967     60966     60968     60966     60969
     60970     60971     60972     60976     60972     60973     60972     60974
     60972     60975     60976     60977     60978     60982     60978     60979
     60978     60980     60978     60981     60982     60983     60984     60988
     60984     60985     60984     60986     60984     60987     60988     60989
     60990     60994     60990     60991     60990     60992     60990     60993
     60994     60995     60996     61000     60996     60997     60996     60998
     60996     60999     61000     61001     61002     61006     61002     61003
     61002     61004     61002     61005     61006     61007     61008     61012
     61008     61009     61008     61010     61008     61011     61012     61013
     61014     61018     61014     61015     61014     61016     61014     61017
     61018     61019     61020     61024     61020     61021     61020     61022
     61020     61023     61024     61025     61026     61030     61026     61027
     61026     61028     61026     61029     61030     61031     61032     61036
     61032     61033     61032     61034     61032     61035     61036     61037
     61038     61042     61038     61039     61038     61040     61038     61041
     61042     61043     61044     61048     61044     61045     61044     61046
     61044     61047     61048     61049     61050     61054     61050     61051
     61050     61052     61050     61053     61054     61055     61056     61060
     61056     61057     61056     61058     61056     61059     61060     61061
     61062     61066     61062     61063     61062     61064     61062     61065
     61066     61067     61068     61072     61068     61069     61068     61070
     61068     61071     61072     61073     61074     61078     61074     61075
     61074     61076     61074     61077     61078     61079     61080     61084
     61080     61081     61080     61082     61080     61083     61084     61085
     61086     61090     61086     61087     61086     61088     61086     61089
     61090     61091     61092     61096     61092     61093     61092     61094
     61092     61095     61096     61097     61098     61102     61098     61099
     61098     61100     61098     61101     61102     61103     61104     61108
     61104     61105     61104     61106     61104     61107     61108     61109
     61110     61114     61110     61111     61110     61112     61110     61113
     61114     61115     61116     61120     61116     61117     61116     61118
     61116     61119     61120     61121     61122     61126     61122     61123
     61122     61124     61122     61125     61126     61127     61128     61132
     61128     61129     61128     61130     61128     61131     61132     61133
     61134     61138     61134     61135     61134     61136     61134     61137
     61138     61139     61140     61144     61140     61141     61140     61142
     61140     61143     61144     61145     61146     61150     61146     61147
     61146     61148     61146     61149     61150     61151     61152     61156
     61152     61153     61152     61154     61152     61155     61156     61157
     61158     61162     61158     61159     61158     61160     61158     61161
     61162     61163     61164     61168     61164     61165     61164     61166
     61164     61167     61168     61169     61170     61174     61170     61171
     61170     61172     61170     61173     61174     61175     61176     61180
     61176     61177     61176     61178     61176     61179     61180     61181
     61182     61186     61182     61183     61182     61184     61182     61185
     61186     61187     61188     61192     61188     61189     61188     61190
     61188     61191     61192     61193     61194     61198     61194     61195
     61194     61196     61194     61197     61198     61199     61200     61204
     61200     61201     61200     61202     61200     61203     61204     61205
     61206     61210     61206     61207     61206     61208     61206     61209
     61210     61211     61212     61216     61212     61213     61212     61214
     61212     61215     61216     61217     61218     61222     61218     61219
     61218     61220     61218     61221     61222     61223     61224     61228
     61224     61225     61224     61226     61224     61227     61228     61229
     61230     61234     61230     61231     61230     61232     61230     61233
     61234     61235     61236     61240     61236     61237     61236     61238
     61236     61239     61240     61241     61242     61246     61242     61243
     61242     61244     61242     61245     61246     61247     61248     61252
     61248     61249     61248     61250     61248     61251     61252     61253
     61254     61258     61254     61255     61254     61256     61254     61257
     61258     61259     61260     61264     61260     61261     61260     61262
     61260     61263     61264     61265     61266     61270     61266     61267
     61266     61268     61266     61269     61270     61271     61272     61276
     61272     61273     61272     61274     61272     61275     61276     61277
     61278     61282     61278     61279     61278     61280     61278     61281
     61282     61283     61284     61288     61284     61285     61284     61286
     61284     61287     61288     61289     61290     61294     61290     61291
     61290     61292     61290     61293     61294     61295     61296     61300
     61296     61297     61296     61298     61296     61299     61300     61301
     61302     61306     61302     61303     61302     61304     61302     61305
     61306     61307     61308     61312     61308     61309     61308     61310
     61308     61311     61312     61313     61314     61318     61314     61315
     61314     61316     61314     61317     61318     61319     61320     61324
     61320     61321     61320     61322     61320     61323     61324     61325
     61326     61330     61326     61327     61326     61328     61326     61329
     61330     61331     61332     61336     61332     61333     61332     61334
     61332     61335     61336     61337     61338     61342     61338     61339
     61338     61340     61338     61341     61342     61343     61344     61348
     61344     61345     61344     61346     61344     61347     61348     61349
     61350     61354     61350     61351     61350     61352     61350     61353
     61354     61355     61356     61360     61356     61357     61356     61358
     61356     61359     61360     61361     61362     61366     61362     61363
     61362     61364     61362     61365     61366     61367     61368     61372
     61368     61369     61368     61370     61368     61371     61372     61373
     61374     61378     61374     61375     61374     61376     61374     61377
     61378     61379     61380     61384     61380     61381     61380     61382
     61380     61383     61384     61385     61386     61390     61386     61387
     61386     61388     61386     61389     61390     61391     61392     61396
     61392     61393     61392     61394     61392     61395     61396     61397
     61398     61402     61398     61399     61398     61400     61398     61401
     61402     61403     61404     61408     61404     61405     61404     61406
     61404     61407     61408     61409     61410     61414     61410     61411
     61410     61412     61410     61413     61414     61415     61416     61420
     61416     61417     61416     61418     61416     61419     61420     61421
     61422     61426     61422     61423     61422     61424     61422     61425
     61426     61427     61428     61432     61428     61429     61428     61430
     61428     61431     61432     61433     61434     61438     61434     61435
     61434     61436     61434     61437     61438     61439     61440     61444
     61440     61441     61440     61442     61440     61443     61444     61445
     61446     61450     61446     61447     61446     61448     61446     61449
     61450     61451     61452     61456     61452     61453     61452     61454
     61452     61455     61456     61457     61458     61462     61458     61459
     61458     61460     61458     61461     61462     61463     61464     61468
     61464     61465     61464     61466     61464     61467     61468     61469
     61470     61474     61470     61471     61470     61472     61470     61473
     61474     61475     61476     61480     61476     61477     61476     61478
     61476     61479     61480     61481     61482     61486     61482     61483
     61482     61484     61482     61485     61486     61487     61488     61492
     61488     61489     61488     61490     61488     61491     61492     61493
     61494     61498     61494     61495     61494     61496     61494     61497
     61498     61499     61500     61504     61500     61501     61500     61502
     61500     61503     61504     61505     61506     61510     61506     61507
     61506     61508     61506     61509     61510     61511     61512     61516
     61512     61513     61512     61514     61512     61515     61516     61517
     61518     61522     61518     61519     61518     61520     61518     61521
     61522     61523     61524     61528     61524     61525     61524     61526
     61524     61527     61528     61529     61530     61534     61530     61531
     61530     61532     61530     61533     61534     61535     61536     61540
     61536     61537     61536     61538     61536     61539     61540     61541
     61542     61546     61542     61543     61542     61544     61542     61545
     61546     61547     61548     61552     61548     61549     61548     61550
     61548     61551     61552     61553     61554     61558     61554     61555
     61554     61556     61554     61557     61558     61559     61560     61564
     61560     61561     61560     61562     61560     61563     61564     61565
     61566     61570     61566     61567     61566     61568     61566     61569
     61570     61571     61572     61576     61572     61573     61572     61574
     61572     61575     61576     61577     61578     61582     61578     61579
     61578     61580     61578     61581     61582     61583     61584     61588
     61584     61585     61584     61586     61584     61587     61588     61589
     61590     61594     61590     61591     61590     61592     61590     61593
     61594     61595     61596     61600     61596     61597     61596     61598
     61596     61599     61600     61601     61602     61606     61602     61603
     61602     61604     61602     61605     61606     61607     61608     61612
     61608     61609     61608     61610     61608     61611     61612     61613
     61614     61618     61614     61615     61614     61616     61614     61617
     61618     61619     61620     61624     61620     61621     61620     61622
     61620     61623     61624     61625     61626     61630     61626     61627
     61626     61628     61626     61629     61630     61631     61632     61636
     61632     61633     61632     61634     61632     61635     61636     61637
     61638     61642     61638     61639     61638     61640     61638     61641
     61642     61643     61644     61648     61644     61645     61644     61646
     61644     61647     61648     61649     61650     61654     61650     61651
     61650     61652     61650     61653     61654     61655     61656     61660
     61656     61657     61656     61658     61656     61659     61660     61661
     61662     61666     61662     61663     61662     61664     61662     61665
     61666     61667     61668     61672     61668     61669     61668     61670
     61668     61671     61672     61673     61674     61678     61674     61675
     61674     61676     61674     61677     61678     61679     61680     61684
     61680     61681     61680     61682     61680     61683     61684     61685
     61686     61690     61686     61687     61686     61688     61686     61689
     61690     61691     61692     61696     61692     61693     61692     61694
     61692     61695     61696     61697     61698     61702     61698     61699
     61698     61700     61698     61701     61702     61703     61704     61708
     61704     61705     61704     61706     61704     61707     61708     61709
     61710     61714     61710     61711     61710     61712     61710     61713
     61714     61715     61716     61720     61716     61717     61716     61718
     61716     61719     61720     61721     61722     61726     61722     61723
     61722     61724     61722     61725     61726     61727     61728     61732
     61728     61729     61728     61730     61728     61731     61732     61733
     61734     61738     61734     61735     61734     61736     61734     61737
     61738     61739     61740     61744     61740     61741     61740     61742
     61740     61743     61744     61745     61746     61750     61746     61747
     61746     61748     61746     61749     61750     61751     61752     61756
     61752     61753     61752     61754     61752     61755     61756     61757
     61758     61762     61758     61759     61758     61760     61758     61761
     61762     61763     61764     61768     61764     61765     61764     61766
     61764     61767     61768     61769     61770     61774     61770     61771
     61770     61772     61770     61773     61774     61775     61776     61780
     61776     61777     61776     61778     61776     61779     61780     61781
     61782     61786     61782     61783     61782     61784     61782     61785
     61786     61787     61788     61792     61788     61789     61788     61790
     61788     61791     61792     61793     61794     61798     61794     61795
     61794     61796     61794     61797     61798     61799     61800     61804
     61800     61801     61800     61802     61800     61803     61804     61805
     61806     61810     61806     61807     61806     61808     61806     61809
     61810     61811     61812     61816     61812     61813     61812     61814
     61812     61815     61816     61817     61818     61822     61818     61819
     61818     61820     61818     61821     61822     61823     61824     61828
     61824     61825     61824     61826     61824     61827     61828     61829
     61830     61834     61830     61831     61830     61832     61830     61833
     61834     61835     61836     61840     61836     61837     61836     61838
     61836     61839     61840     61841     61842     61846     61842     61843
     61842     61844     61842     61845     61846     61847     61848     61852
     61848     61849     61848     61850     61848     61851     61852     61853
     61854     61858     61854     61855     61854     61856     61854     61857
     61858     61859     61860     61864     61860     61861     61860     61862
     61860     61863     61864     61865     61866     61870     61866     61867
     61866     61868     61866     61869     61870     61871     61872     61876
     61872     61873     61872     61874     61872     61875     61876     61877
     61878     61882     61878     61879     61878     61880     61878     61881
     61882     61883     61884     61888     61884     61885     61884     61886
     61884     61887     61888     61889     61890     61894     61890     61891
     61890     61892     61890     61893     61894     61895     61896     61900
     61896     61897     61896     61898     61896     61899     61900     61901
     61902     61906     61902     61903     61902     61904     61902     61905
     61906     61907     61908     61912     61908     61909     61908     61910
     61908     61911     61912     61913     61914     61918     61914     61915
     61914     61916     61914     61917     61918     61919     61920     61924
     61920     61921     61920     61922     61920     61923     61924     61925
     61926     61930     61926     61927     61926     61928     61926     61929
     61930     61931     61932     61936     61932     61933     61932     61934
     61932     61935     61936     61937     61938     61942     61938     61939
     61938     61940     61938     61941     61942     61943     61944     61948
     61944     61945     61944     61946     61944     61947     61948     61949
     61950     61954     61950     61951     61950     61952     61950     61953
     61954     61955     61956     61960     61956     61957     61956     61958
     61956     61959     61960     61961     61962     61966     61962     61963
     61962     61964     61962     61965     61966     61967     61968     61972
     61968     61969     61968     61970     61968     61971     61972     61973
     61974     61978     61974     61975     61974     61976     61974     61977
     61978     61979     61980     61984     61980     61981     61980     61982
     61980     61983     61984     61985     61986     61990     61986     61987
     61986     61988     61986     61989     61990     61991     61992     61996
     61992     61993     61992     61994     61992     61995     61996     61997
     61998     62002     61998     61999     61998     62000     61998     62001
     62002     62003     62004     62008     62004     62005     62004     62006
     62004     62007     62008     62009     62010     62014     62010     62011
     62010     62012     62010     62013     62014     62015     62016     62020
     62016     62017     62016     62018     62016     62019     62020     62021
     62022     62026     62022     62023     62022     62024     62022     62025
     62026     62027     62028     62032     62028     62029     62028     62030
     62028     62031     62032     62033     62034     62038     62034     62035
     62034     62036     62034     62037     62038     62039     62040     62044
     62040     62041     62040     62042     62040     62043     62044     62045
     62046     62050     62046     62047     62046     62048     62046     62049
     62050     62051     62052     62056     62052     62053     62052     62054
     62052     62055     62056     62057     62058     62062     62058     62059
     62058     62060     62058     62061     62062     62063     62064     62068
     62064     62065     62064     62066     62064     62067     62068     62069
     62070     62074     62070     62071     62070     62072     62070     62073
     62074     62075     62076     62080     62076     62077     62076     62078
     62076     62079     62080     62081     62082     62086     62082     62083
     62082     62084     62082     62085     62086     62087     62088     62092
     62088     62089     62088     62090     62088     62091     62092     62093
     62094     62098     62094     62095     62094     62096     62094     62097
     62098     62099     62100     62104     62100     62101     62100     62102
     62100     62103     62104     62105     62106     62110     62106     62107
     62106     62108     62106     62109     62110     62111     62112     62116
     62112     62113     62112     62114     62112     62115     62116     62117
     62118     62122     62118     62119     62118     62120     62118     62121
     62122     62123     62124     62128     62124     62125     62124     62126
     62124     62127     62128     62129     62130     62134     62130     62131
     62130     62132     62130     62133     62134     62135     62136     62140
     62136     62137     62136     62138     62136     62139     62140     62141
     62142     62146     62142     62143     62142     62144     62142     62145
     62146     62147     62148     62152     62148     62149     62148     62150
     62148     62151     62152     62153     62154     62158     62154     62155
     62154     62156     62154     62157     62158     62159     62160     62164
     62160     62161     62160     62162     62160     62163     62164     62165
     62166     62170     62166     62167     62166     62168     62166     62169
     62170     62171     62172     62176     62172     62173     62172     62174
     62172     62175     62176     62177     62178     62182     62178     62179
     62178     62180     62178     62181     62182     62183     62184     62188
     62184     62185     62184     62186     62184     62187     62188     62189
     62190     62194     62190     62191     62190     62192     62190     62193
     62194     62195     62196     62200     62196     62197     62196     62198
     62196     62199     62200     62201     62202     62206     62202     62203
     62202     62204     62202     62205     62206     62207     62208     62212
     62208     62209     62208     62210     62208     62211     62212     62213
     62214     62218     62214     62215     62214     62216     62214     62217
     62218     62219     62220     62224     62220     62221     62220     62222
     62220     62223     62224     62225     62226     62230     62226     62227
     62226     62228     62226     62229     62230     62231     62232     62236
     62232     62233     62232     62234     62232     62235     62236     62237
     62238     62242     62238     62239     62238     62240     62238     62241
     62242     62243     62244     62248     62244     62245     62244     62246
     62244     62247     62248     62249     62250     62254     62250     62251
     62250     62252     62250     62253     62254     62255     62256     62260
     62256     62257     62256     62258     62256     62259     62260     62261
     62262     62266     62262     62263     62262     62264     62262     62265
     62266     62267     62268     62272     62268     62269     62268     62270
     62268     62271     62272     62273     62274     62278     62274     62275
     62274     62276     62274     62277     62278     62279     62280     62284
     62280     62281     62280     62282     62280     62283     62284     62285
     62286     62290     62286     62287     62286     62288     62286     62289
     62290     62291     62292     62296     62292     62293     62292     62294
     62292     62295     62296     62297     62298     62302     62298     62299
     62298     62300     62298     62301     62302     62303     62304     62308
     62304     62305     62304     62306     62304     62307     62308     62309
     62310     62314     62310     62311     62310     62312     62310     62313
     62314     62315     62316     62320     62316     62317     62316     62318
     62316     62319     62320     62321     62322     62326     62322     62323
     62322     62324     62322     62325     62326     62327     62328     62332
     62328     62329     62328     62330     62328     62331     62332     62333
     62334     62338     62334     62335     62334     62336     62334     62337
     62338     62339     62340     62344     62340     62341     62340     62342
     62340     62343     62344     62345     62346     62350     62346     62347
     62346     62348     62346     62349     62350     62351     62352     62356
     62352     62353     62352     62354     62352     62355     62356     62357
     62358     62362     62358     62359     62358     62360     62358     62361
     62362     62363     62364     62368     62364     62365     62364     62366
     62364     62367     62368     62369     62370     62374     62370     62371
     62370     62372     62370     62373     62374     62375     62376     62380
     62376     62377     62376     62378     62376     62379     62380     62381
     62382     62386     62382     62383     62382     62384     62382     62385
     62386     62387     62388     62392     62388     62389     62388     62390
     62388     62391     62392     62393     62394     62398     62394     62395
     62394     62396     62394     62397     62398     62399     62400     62404
     62400     62401     62400     62402     62400     62403     62404     62405
     62406     62410     62406     62407     62406     62408     62406     62409
     62410     62411     62412     62416     62412     62413     62412     62414
     62412     62415     62416     62417     62418     62422     62418     62419
     62418     62420     62418     62421     62422     62423     62424     62428
     62424     62425     62424     62426     62424     62427     62428     62429
     62430     62434     62430     62431     62430     62432     62430     62433
     62434     62435     62436     62440     62436     62437     62436     62438
     62436     62439     62440     62441     62442     62446     62442     62443
     62442     62444     62442     62445     62446     62447     62448     62452
     62448     62449     62448     62450     62448     62451     62452     62453
     62454     62458     62454     62455     62454     62456     62454     62457
     62458     62459     62460     62464     62460     62461     62460     62462
     62460     62463     62464     62465     62466     62470     62466     62467
     62466     62468     62466     62469     62470     62471     62472     62476
     62472     62473     62472     62474     62472     62475     62476     62477
     62478     62482     62478     62479     62478     62480     62478     62481
     62482     62483     62484     62488     62484     62485     62484     62486
     62484     62487     62488     62489     62490     62494     62490     62491
     62490     62492     62490     62493     62494     62495     62496     62500
     62496     62497     62496     62498     62496     62499     62500     62501
     62502     62506     62502     62503     62502     62504     62502     62505
     62506     62507     62508     62512     62508     62509     62508     62510
     62508     62511     62512     62513     62514     62518     62514     62515
     62514     62516     62514     62517     62518     62519     62520     62524
     62520     62521     62520     62522     62520     62523     62524     62525
     62526     62530     62526     62527     62526     62528     62526     62529
     62530     62531     62532     62536     62532     62533     62532     62534
     62532     62535     62536     62537     62538     62542     62538     62539
     62538     62540     62538     62541     62542     62543     62544     62548
     62544     62545     62544     62546     62544     62547     62548     62549
     62550     62554     62550     62551     62550     62552     62550     62553
     62554     62555     62556     62560     62556     62557     62556     62558
     62556     62559     62560     62561     62562     62566     62562     62563
     62562     62564     62562     62565     62566     62567     62568     62572
     62568     62569     62568     62570     62568     62571     62572     62573
     62574     62578     62574     62575     62574     62576     62574     62577
     62578     62579     62580     62584     62580     62581     62580     62582
     62580     62583     62584     62585     62586     62590     62586     62587
     62586     62588     62586     62589     62590     62591     62592     62596
     62592     62593     62592     62594     62592     62595     62596     62597
     62598     62602     62598     62599     62598     62600     62598     62601
     62602     62603     62604     62608     62604     62605     62604     62606
     62604     62607     62608     62609     62610     62614     62610     62611
     62610     62612     62610     62613     62614     62615     62616     62620
     62616     62617     62616     62618     62616     62619     62620     62621
     62622     62626     62622     62623     62622     62624     62622     62625
     62626     62627     62628     62632     62628     62629     62628     62630
     62628     62631     62632     62633     62634     62638     62634     62635
     62634     62636     62634     62637     62638     62639     62640     62644
     62640     62641     62640     62642     62640     62643     62644     62645
     62646     62650     62646     62647     62646     62648     62646     62649
     62650     62651     62652     62656     62652     62653     62652     62654
     62652     62655     62656     62657     62658     62662     62658     62659
     62658     62660     62658     62661     62662     62663     62664     62668
     62664     62665     62664     62666     62664     62667     62668     62669
     62670     62674     62670     62671     62670     62672     62670     62673
     62674     62675     62676     62680     62676     62677     62676     62678
     62676     62679     62680     62681     62682     62686     62682     62683
     62682     62684     62682     62685     62686     62687     62688     62692
     62688     62689     62688     62690     62688     62691     62692     62693
     62694     62698     62694     62695     62694     62696     62694     62697
     62698     62699     62700     62704     62700     62701     62700     62702
     62700     62703     62704     62705     62706     62710     62706     62707
     62706     62708     62706     62709     62710     62711     62712     62716
     62712     62713     62712     62714     62712     62715     62716     62717
     62718     62722     62718     62719     62718     62720     62718     62721
     62722     62723     62724     62728     62724     62725     62724     62726
     62724     62727     62728     62729     62730     62734     62730     62731
     62730     62732     62730     62733     62734     62735     62736     62740
     62736     62737     62736     62738     62736     62739     62740     62741
     62742     62746     62742     62743     62742     62744     62742     62745
     62746     62747     62748     62752     62748     62749     62748     62750
     62748     62751     62752     62753     62754     62758     62754     62755
     62754     62756     62754     62757     62758     62759     62760     62764
     62760     62761     62760     62762     62760     62763     62764     62765
     62766     62770     62766     62767     62766     62768     62766     62769
     62770     62771     62772     62776     62772     62773     62772     62774
     62772     62775     62776     62777     62778     62782     62778     62779
     62778     62780     62778     62781     62782     62783     62784     62788
     62784     62785     62784     62786     62784     62787     62788     62789
     62790     62794     62790     62791     62790     62792     62790     62793
     62794     62795     62796     62800     62796     62797     62796     62798
     62796     62799     62800     62801     62802     62806     62802     62803
     62802     62804     62802     62805     62806     62807     62808     62812
     62808     62809     62808     62810     62808     62811     62812     62813
     62814     62818     62814     62815     62814     62816     62814     62817
     62818     62819     62820     62824     62820     62821     62820     62822
     62820     62823     62824     62825     62826     62830     62826     62827
     62826     62828     62826     62829     62830     62831     62832     62836
     62832     62833     62832     62834     62832     62835     62836     62837
     62838     62842     62838     62839     62838     62840     62838     62841
     62842     62843     62844     62848     62844     62845     62844     62846
     62844     62847     62848     62849     62850     62854     62850     62851
     62850     62852     62850     62853     62854     62855     62856     62860
     62856     62857     62856     62858     62856     62859     62860     62861
     62862     62866     62862     62863     62862     62864     62862     62865
     62866     62867     62868     62872     62868     62869     62868     62870
     62868     62871     62872     62873     62874     62878     62874     62875
     62874     62876     62874     62877     62878     62879     62880     62884
     62880     62881     62880     62882     62880     62883     62884     62885
     62886     62890     62886     62887     62886     62888     62886     62889
     62890     62891     62892     62896     62892     62893     62892     62894
     62892     62895     62896     62897     62898     62902     62898     62899
     62898     62900     62898     62901     62902     62903     62904     62908
     62904     62905     62904     62906     62904     62907     62908     62909
     62910     62914     62910     62911     62910     62912     62910     62913
     62914     62915     62916     62920     62916     62917     62916     62918
     62916     62919     62920     62921     62922     62926     62922     62923
     62922     62924     62922     62925     62926     62927     62928     62932
     62928     62929     62928     62930     62928     62931     62932     62933
     62934     62938     62934     62935     62934     62936     62934     62937
     62938     62939     62940     62944     62940     62941     62940     62942
     62940     62943     62944     62945     62946     62950     62946     62947
     62946     62948     62946     62949     62950     62951     62952     62956
     62952     62953     62952     62954     62952     62955     62956     62957
     62958     62962     62958     62959     62958     62960     62958     62961
     62962     62963     62964     62968     62964     62965     62964     62966
     62964     62967     62968     62969     62970     62974     62970     62971
     62970     62972     62970     62973     62974     62975     62976     62980
     62976     62977     62976     62978     62976     62979     62980     62981
     62982     62986     62982     62983     62982     62984     62982     62985
     62986     62987     62988     62992     62988     62989     62988     62990
     62988     62991     62992     62993     62994     62998     62994     62995
     62994     62996     62994     62997     62998     62999     63000     63004
     63000     63001     63000     63002     63000     63003     63004     63005
     63006     63010     63006     63007     63006     63008     63006     63009
     63010     63011     63012     63016     63012     63013     63012     63014
     63012     63015     63016     63017     63018     63022     63018     63019
     63018     63020     63018     63021     63022     63023     63024     63028
     63024     63025     63024     63026     63024     63027     63028     63029
     63030     63034     63030     63031     63030     63032     63030     63033
     63034     63035     63036     63040     63036     63037     63036     63038
     63036     63039     63040     63041     63042     63046     63042     63043
     63042     63044     63042     63045     63046     63047     63048     63052
     63048     63049     63048     63050     63048     63051     63052     63053
     63054     63058     63054     63055     63054     63056     63054     63057
     63058     63059     63060     63064     63060     63061     63060     63062
     63060     63063     63064     63065     63066     63070     63066     63067
     63066     63068     63066     63069     63070     63071     63072     63076
     63072     63073     63072     63074     63072     63075     63076     63077
     63078     63082     63078     63079     63078     63080     63078     63081
     63082     63083     63084     63088     63084     63085     63084     63086
     63084     63087     63088     63089     63090     63094     63090     63091
     63090     63092     63090     63093     63094     63095     63096     63100
     63096     63097     63096     63098     63096     63099     63100     63101
     63102     63106     63102     63103     63102     63104     63102     63105
     63106     63107     63108     63112     63108     63109     63108     63110
     63108     63111     63112     63113     63114     63118     63114     63115
     63114     63116     63114     63117     63118     63119     63120     63124
     63120     63121     63120     63122     63120     63123     63124     63125
     63126     63130     63126     63127     63126     63128     63126     63129
     63130     63131     63132     63136     63132     63133     63132     63134
     63132     63135     63136     63137     63138     63142     63138     63139
     63138     63140     63138     63141     63142     63143     63144     63148
     63144     63145     63144     63146     63144     63147     63148     63149
     63150     63154     63150     63151     63150     63152     63150     63153
     63154     63155     63156     63160     63156     63157     63156     63158
     63156     63159     63160     63161     63162     63166     63162     63163
     63162     63164     63162     63165     63166     63167     63168     63172
     63168     63169     63168     63170     63168     63171     63172     63173
     63174     63178     63174     63175     63174     63176     63174     63177
     63178     63179     63180     63184     63180     63181     63180     63182
     63180     63183     63184     63185     63186     63190     63186     63187
     63186     63188     63186     63189     63190     63191     63192     63196
     63192     63193     63192     63194     63192     63195     63196     63197
     63198     63202     63198     63199     63198     63200     63198     63201
     63202     63203     63204     63208     63204     63205     63204     63206
     63204     63207     63208     63209     63210     63214     63210     63211
     63210     63212     63210     63213     63214     63215     63216     63220
     63216     63217     63216     63218     63216     63219     63220     63221
     63222     63226     63222     63223     63222     63224     63222     63225
     63226     63227     63228     63232     63228     63229     63228     63230
     63228     63231     63232     63233     63234     63238     63234     63235
     63234     63236     63234     63237     63238     63239     63240     63244
     63240     63241     63240     63242     63240     63243     63244     63245
     63246     63250     63246     63247     63246     63248     63246     63249
     63250     63251     63252     63256     63252     63253     63252     63254
     63252     63255     63256     63257     63258     63262     63258     63259
     63258     63260     63258     63261     63262     63263     63264     63268
     63264     63265     63264     63266     63264     63267     63268     63269
     63270     63274     63270     63271     63270     63272     63270     63273
     63274     63275     63276     63280     63276     63277     63276     63278
     63276     63279     63280     63281     63282     63286     63282     63283
     63282     63284     63282     63285     63286     63287     63288     63292
     63288     63289     63288     63290     63288     63291     63292     63293
     63294     63298     63294     63295     63294     63296     63294     63297
     63298     63299     63300     63304     63300     63301     63300     63302
     63300     63303     63304     63305     63306     63310     63306     63307
     63306     63308     63306     63309     63310     63311     63312     63316
     63312     63313     63312     63314     63312     63315     63316     63317
     63318     63322     63318     63319     63318     63320     63318     63321
     63322     63323     63324     63328     63324     63325     63324     63326
     63324     63327     63328     63329     63330     63334     63330     63331
     63330     63332     63330     63333     63334     63335     63336     63340
     63336     63337     63336     63338     63336     63339     63340     63341
     63342     63346     63342     63343     63342     63344     63342     63345
     63346     63347     63348     63352     63348     63349     63348     63350
     63348     63351     63352     63353     63354     63358     63354     63355
     63354     63356     63354     63357     63358     63359     63360     63364
     63360     63361     63360     63362     63360     63363     63364     63365
     63366     63370     63366     63367     63366     63368     63366     63369
     63370     63371     63372     63376     63372     63373     63372     63374
     63372     63375     63376     63377     63378     63382     63378     63379
     63378     63380     63378     63381     63382     63383     63384     63388
     63384     63385     63384     63386     63384     63387     63388     63389
     63390     63394     63390     63391     63390     63392     63390     63393
     63394     63395     63396     63400     63396     63397     63396     63398
     63396     63399     63400     63401     63402     63406     63402     63403
     63402     63404     63402     63405     63406     63407     63408     63412
     63408     63409     63408     63410     63408     63411     63412     63413
     63414     63418     63414     63415     63414     63416     63414     63417
     63418     63419     63420     63424     63420     63421     63420     63422
     63420     63423     63424     63425     63426     63430     63426     63427
     63426     63428     63426     63429     63430     63431     63432     63436
     63432     63433     63432     63434     63432     63435     63436     63437
     63438     63442     63438     63439     63438     63440     63438     63441
     63442     63443     63444     63448     63444     63445     63444     63446
     63444     63447     63448     63449     63450     63454     63450     63451
     63450     63452     63450     63453     63454     63455     63456     63460
     63456     63457     63456     63458     63456     63459     63460     63461
     63462     63466     63462     63463     63462     63464     63462     63465
     63466     63467     63468     63472     63468     63469     63468     63470
     63468     63471     63472     63473     63474     63478     63474     63475
     63474     63476     63474     63477     63478     63479     63480     63484
     63480     63481     63480     63482     63480     63483     63484     63485
     63486     63490     63486     63487     63486     63488     63486     63489
     63490     63491     63492     63496     63492     63493     63492     63494
     63492     63495     63496     63497     63498     63502     63498     63499
     63498     63500     63498     63501     63502     63503     63504     63508
     63504     63505     63504     63506     63504     63507     63508     63509
     63510     63514     63510     63511     63510     63512     63510     63513
     63514     63515     63516     63520     63516     63517     63516     63518
     63516     63519     63520     63521     63522     63526     63522     63523
     63522     63524     63522     63525     63526     63527     63528     63532
     63528     63529     63528     63530     63528     63531     63532     63533
     63534     63538     63534     63535     63534     63536     63534     63537
     63538     63539     63540     63544     63540     63541     63540     63542
     63540     63543     63544     63545     63546     63550     63546     63547
     63546     63548     63546     63549     63550     63551     63552     63556
     63552     63553     63552     63554     63552     63555     63556     63557
     63558     63562     63558     63559     63558     63560     63558     63561
     63562     63563     63564     63568     63564     63565     63564     63566
     63564     63567     63568     63569     63570     63574     63570     63571
     63570     63572     63570     63573     63574     63575     63576     63580
     63576     63577     63576     63578     63576     63579     63580     63581
     63582     63586     63582     63583     63582     63584     63582     63585
     63586     63587     63588     63592     63588     63589     63588     63590
     63588     63591     63592     63593     63594     63598     63594     63595
     63594     63596     63594     63597     63598     63599     63600     63604
     63600     63601     63600     63602     63600     63603     63604     63605
     63606     63610     63606     63607     63606     63608     63606     63609
     63610     63611     63612     63616     63612     63613     63612     63614
     63612     63615     63616     63617     63618     63622     63618     63619
     63618     63620     63618     63621     63622     63623     63624     63628
     63624     63625     63624     63626     63624     63627     63628     63629
     63630     63634     63630     63631     63630     63632     63630     63633
     63634     63635     63636     63640     63636     63637     63636     63638
     63636     63639     63640     63641     63642     63646     63642     63643
     63642     63644     63642     63645     63646     63647     63648     63652
     63648     63649     63648     63650     63648     63651     63652     63653
     63654     63658     63654     63655     63654     63656     63654     63657
     63658     63659     63660     63664     63660     63661     63660     63662
     63660     63663     63664     63665     63666     63670     63666     63667
     63666     63668     63666     63669     63670     63671     63672     63676
     63672     63673     63672     63674     63672     63675     63676     63677
     63678     63682     63678     63679     63678     63680     63678     63681
     63682     63683     63684     63688     63684     63685     63684     63686
     63684     63687     63688     63689     63690     63694     63690     63691
     63690     63692     63690     63693     63694     63695     63696     63700
     63696     63697     63696     63698     63696     63699     63700     63701
     63702     63706     63702     63703     63702     63704     63702     63705
     63706     63707     63708     63712     63708     63709     63708     63710
     63708     63711     63712     63713     63714     63718     63714     63715
     63714     63716     63714     63717     63718     63719     63720     63724
     63720     63721     63720     63722     63720     63723     63724     63725
     63726     63730     63726     63727     63726     63728     63726     63729
     63730     63731     63732     63736     63732     63733     63732     63734
     63732     63735     63736     63737     63738     63742     63738     63739
     63738     63740     63738     63741     63742     63743     63744     63748
     63744     63745     63744     63746     63744     63747     63748     63749
     63750     63754     63750     63751     63750     63752     63750     63753
     63754     63755     63756     63760     63756     63757     63756     63758
     63756     63759     63760     63761     63762     63766     63762     63763
     63762     63764     63762     63765     63766     63767     63768     63772
     63768     63769     63768     63770     63768     63771     63772     63773
     63774     63778     63774     63775     63774     63776     63774     63777
     63778     63779     63780     63784     63780     63781     63780     63782
     63780     63783     63784     63785     63786     63790     63786     63787
     63786     63788     63786     63789     63790     63791     63792     63796
     63792     63793     63792     63794     63792     63795     63796     63797
     63798     63802     63798     63799     63798     63800     63798     63801
     63802     63803     63804     63808     63804     63805     63804     63806
     63804     63807     63808     63809     63810     63814     63810     63811
     63810     63812     63810     63813     63814     63815     63816     63820
     63816     63817     63816     63818     63816     63819     63820     63821
     63822     63826     63822     63823     63822     63824     63822     63825
     63826     63827     63828     63832     63828     63829     63828     63830
     63828     63831     63832     63833     63834     63838     63834     63835
     63834     63836     63834     63837     63838     63839     63840     63844
     63840     63841     63840     63842     63840     63843     63844     63845
     63846     63850     63846     63847     63846     63848     63846     63849
     63850     63851     63852     63856     63852     63853     63852     63854
     63852     63855     63856     63857     63858     63862     63858     63859
     63858     63860     63858     63861     63862     63863     63864     63868
     63864     63865     63864     63866     63864     63867     63868     63869
     63870     63874     63870     63871     63870     63872     63870     63873
     63874     63875     63876     63880     63876     63877     63876     63878
     63876     63879     63880     63881     63882     63886     63882     63883
     63882     63884     63882     63885     63886     63887     63888     63892
     63888     63889     63888     63890     63888     63891     63892     63893
     63894     63898     63894     63895     63894     63896     63894     63897
     63898     63899     63900     63904     63900     63901     63900     63902
     63900     63903     63904     63905     63906     63910     63906     63907
     63906     63908     63906     63909     63910     63911     63912     63916
     63912     63913     63912     63914     63912     63915     63916     63917
     63918     63922     63918     63919     63918     63920     63918     63921
     63922     63923     63924     63928     63924     63925     63924     63926
     63924     63927     63928     63929     63930     63934     63930     63931
     63930     63932     63930     63933     63934     63935     63936     63940
     63936     63937     63936     63938     63936     63939     63940     63941
     63942     63946     63942     63943     63942     63944     63942     63945
     63946     63947     63948     63952     63948     63949     63948     63950
     63948     63951     63952     63953     63954     63958     63954     63955
     63954     63956     63954     63957     63958     63959     63960     63964
     63960     63961     63960     63962     63960     63963     63964     63965
     63966     63970     63966     63967     63966     63968     63966     63969
     63970     63971     63972     63976     63972     63973     63972     63974
     63972     63975     63976     63977     63978     63982     63978     63979
     63978     63980     63978     63981     63982     63983     63984     63988
     63984     63985     63984     63986     63984     63987     63988     63989
     63990     63994     63990     63991     63990     63992     63990     63993
     63994     63995     63996     64000     63996     63997     63996     63998
     63996     63999     64000     64001     64002     64006     64002     64003
     64002     64004     64002     64005     64006     64007     64008     64012
     64008     64009     64008     64010     64008     64011     64012     64013
     64014     64018     64014     64015     64014     64016     64014     64017
     64018     64019     64020     64024     64020     64021     64020     64022
     64020     64023     64024     64025     64026     64030     64026     64027
     64026     64028     64026     64029     64030     64031     64032     64036
     64032     64033     64032     64034     64032     64035     64036     64037
     64038     64042     64038     64039     64038     64040     64038     64041
     64042     64043     64044     64048     64044     64045     64044     64046
     64044     64047     64048     64049     64050     64054     64050     64051
     64050     64052     64050     64053     64054     64055     64056     64060
     64056     64057     64056     64058     64056     64059     64060     64061
     64062     64066     64062     64063     64062     64064     64062     64065
     64066     64067     64068     64072     64068     64069     64068     64070
     64068     64071     64072     64073     64074     64078     64074     64075
     64074     64076     64074     64077     64078     64079     64080     64084
     64080     64081     64080     64082     64080     64083     64084     64085
     64086     64090     64086     64087     64086     64088     64086     64089
     64090     64091     64092     64096     64092     64093     64092     64094
     64092     64095     64096     64097     64098     64102     64098     64099
     64098     64100     64098     64101     64102     64103     64104     64108
     64104     64105     64104     64106     64104     64107     64108     64109
     64110     64114     64110     64111     64110     64112     64110     64113
     64114     64115     64116     64120     64116     64117     64116     64118
     64116     64119     64120     64121     64122     64126     64122     64123
     64122     64124     64122     64125     64126     64127     64128     64132
     64128     64129     64128     64130     64128     64131     64132     64133
     64134     64138     64134     64135     64134     64136     64134     64137
     64138     64139     64140     64144     64140     64141     64140     64142
     64140     64143     64144     64145     64146     64150     64146     64147
     64146     64148     64146     64149     64150     64151     64152     64156
     64152     64153     64152     64154     64152     64155     64156     64157
     64158     64162     64158     64159     64158     64160     64158     64161
     64162     64163     64164     64168     64164     64165     64164     64166
     64164     64167     64168     64169     64170     64174     64170     64171
     64170     64172     64170     64173     64174     64175     64176     64180
     64176     64177     64176     64178     64176     64179     64180     64181
     64182     64186     64182     64183     64182     64184     64182     64185
     64186     64187     64188     64192     64188     64189     64188     64190
     64188     64191     64192     64193     64194     64198     64194     64195
     64194     64196     64194     64197     64198     64199     64200     64204
     64200     64201     64200     64202     64200     64203     64204     64205
     64206     64210     64206     64207     64206     64208     64206     64209
     64210     64211     64212     64216     64212     64213     64212     64214
     64212     64215     64216     64217     64218     64222     64218     64219
     64218     64220     64218     64221     64222     64223     64224     64228
     64224     64225     64224     64226     64224     64227     64228     64229
     64230     64234     64230     64231     64230     64232     64230     64233
     64234     64235     64236     64240     64236     64237     64236     64238
     64236     64239     64240     64241     64242     64246     64242     64243
     64242     64244     64242     64245     64246     64247     64248     64252
     64248     64249     64248     64250     64248     64251     64252     64253
     64254     64258     64254     64255     64254     64256     64254     64257
     64258     64259     64260     64264     64260     64261     64260     64262
     64260     64263     64264     64265     64266     64270     64266     64267
     64266     64268     64266     64269     64270     64271     64272     64276
     64272     64273     64272     64274     64272     64275     64276     64277
     64278     64282     64278     64279     64278     64280     64278     64281
     64282     64283     64284     64288     64284     64285     64284     64286
     64284     64287     64288     64289     64290     64294     64290     64291
     64290     64292     64290     64293     64294     64295     64296     64300
     64296     64297     64296     64298     64296     64299     64300     64301
     64302     64306     64302     64303     64302     64304     64302     64305
     64306     64307     64308     64312     64308     64309     64308     64310
     64308     64311     64312     64313     64314     64318     64314     64315
     64314     64316     64314     64317     64318     64319     64320     64324
     64320     64321     64320     64322     64320     64323     64324     64325
     64326     64330     64326     64327     64326     64328     64326     64329
     64330     64331     64332     64336     64332     64333     64332     64334
     64332     64335     64336     64337     64338     64342     64338     64339
     64338     64340     64338     64341     64342     64343     64344     64348
     64344     64345     64344     64346     64344     64347     64348     64349
     64350     64354     64350     64351     64350     64352     64350     64353
     64354     64355     64356     64360     64356     64357     64356     64358
     64356     64359     64360     64361     64362     64366     64362     64363
     64362     64364     64362     64365     64366     64367     64368     64372
     64368     64369     64368     64370     64368     64371     64372     64373
     64374     64378     64374     64375     64374     64376     64374     64377
     64378     64379     64380     64384     64380     64381     64380     64382
     64380     64383     64384     64385     64386     64390     64386     64387
     64386     64388     64386     64389     64390     64391     64392     64396
     64392     64393     64392     64394     64392     64395     64396     64397
     64398     64402     64398     64399     64398     64400     64398     64401
     64402     64403     64404     64408     64404     64405     64404     64406
     64404     64407     64408     64409     64410     64414     64410     64411
     64410     64412     64410     64413     64414     64415     64416     64420
     64416     64417     64416     64418     64416     64419     64420     64421
     64422     64426     64422     64423     64422     64424     64422     64425
     64426     64427     64428     64432     64428     64429     64428     64430
     64428     64431     64432     64433     64434     64438     64434     64435
     64434     64436     64434     64437     64438     64439     64440     64444
     64440     64441     64440     64442     64440     64443     64444     64445
     64446     64450     64446     64447     64446     64448     64446     64449
     64450     64451     64452     64456     64452     64453     64452     64454
     64452     64455     64456     64457     64458     64462     64458     64459
     64458     64460     64458     64461     64462     64463     64464     64468
     64464     64465     64464     64466     64464     64467     64468     64469
     64470     64474     64470     64471     64470     64472     64470     64473
     64474     64475     64476     64480     64476     64477     64476     64478
     64476     64479     64480     64481     64482     64486     64482     64483
     64482     64484     64482     64485     64486     64487     64488     64492
     64488     64489     64488     64490     64488     64491     64492     64493
     64494     64498     64494     64495     64494     64496     64494     64497
     64498     64499     64500     64504     64500     64501     64500     64502
     64500     64503     64504     64505     64506     64510     64506     64507
     64506     64508     64506     64509     64510     64511     64512     64516
     64512     64513     64512     64514     64512     64515     64516     64517
     64518     64522     64518     64519     64518     64520     64518     64521
     64522     64523     64524     64528     64524     64525     64524     64526
     64524     64527     64528     64529     64530     64534     64530     64531
     64530     64532     64530     64533     64534     64535     64536     64540
     64536     64537     64536     64538     64536     64539     64540     64541
     64542     64546     64542     64543     64542     64544     64542     64545
     64546     64547     64548     64552     64548     64549     64548     64550
     64548     64551     64552     64553     64554     64558     64554     64555
     64554     64556     64554     64557     64558     64559     64560     64564
     64560     64561     64560     64562     64560     64563     64564     64565
     64566     64570     64566     64567     64566     64568     64566     64569
     64570     64571     64572     64576     64572     64573     64572     64574
     64572     64575     64576     64577     64578     64582     64578     64579
     64578     64580     64578     64581     64582     64583     64584     64588
     64584     64585     64584     64586     64584     64587     64588     64589
     64590     64594     64590     64591     64590     64592     64590     64593
     64594     64595     64596     64600     64596     64597     64596     64598
     64596     64599     64600     64601     64602     64606     64602     64603
     64602     64604     64602     64605     64606     64607     64608     64612
     64608     64609     64608     64610     64608     64611     64612     64613
     64614     64618     64614     64615     64614     64616     64614     64617
     64618     64619     64620     64624     64620     64621     64620     64622
     64620     64623     64624     64625     64626     64630     64626     64627
     64626     64628     64626     64629     64630     64631     64632     64636
     64632     64633     64632     64634     64632     64635     64636     64637
     64638     64642     64638     64639     64638     64640     64638     64641
     64642     64643     64644     64648     64644     64645     64644     64646
     64644     64647     64648     64649     64650     64654     64650     64651
     64650     64652     64650     64653     64654     64655     64656     64660
     64656     64657     64656     64658     64656     64659     64660     64661
     64662     64666     64662     64663     64662     64664     64662     64665
     64666     64667     64668     64672     64668     64669     64668     64670
     64668     64671     64672     64673     64674     64678     64674     64675
     64674     64676     64674     64677     64678     64679     64680     64684
     64680     64681     64680     64682     64680     64683     64684     64685
     64686     64690     64686     64687     64686     64688     64686     64689
     64690     64691     64692     64696     64692     64693     64692     64694
     64692     64695     64696     64697     64698     64702     64698     64699
     64698     64700     64698     64701     64702     64703     64704     64708
     64704     64705     64704     64706     64704     64707     64708     64709
     64710     64714     64710     64711     64710     64712     64710     64713
     64714     64715     64716     64720     64716     64717     64716     64718
     64716     64719     64720     64721     64722     64726     64722     64723
     64722     64724     64722     64725     64726     64727     64728     64732
     64728     64729     64728     64730     64728     64731     64732     64733
     64734     64738     64734     64735     64734     64736     64734     64737
     64738     64739     64740     64744     64740     64741     64740     64742
     64740     64743     64744     64745     64746     64750     64746     64747
     64746     64748     64746     64749     64750     64751     64752     64756
     64752     64753     64752     64754     64752     64755     64756     64757
     64758     64762     64758     64759     64758     64760     64758     64761
     64762     64763     64764     64768     64764     64765     64764     64766
     64764     64767     64768     64769     64770     64774     64770     64771
     64770     64772     64770     64773     64774     64775     64776     64780
     64776     64777     64776     64778     64776     64779     64780     64781
     64782     64786     64782     64783     64782     64784     64782     64785
     64786     64787     64788     64792     64788     64789     64788     64790
     64788     64791     64792     64793     64794     64798     64794     64795
     64794     64796     64794     64797     64798     64799     64800     64804
     64800     64801     64800     64802     64800     64803     64804     64805
     64806     64810     64806     64807     64806     64808     64806     64809
     64810     64811     64812     64816     64812     64813     64812     64814
     64812     64815     64816     64817     64818     64822     64818     64819
     64818     64820     64818     64821     64822     64823     64824     64828
     64824     64825     64824     64826     64824     64827     64828     64829
     64830     64834     64830     64831     64830     64832     64830     64833
     64834     64835     64836     64840     64836     64837     64836     64838
     64836     64839     64840     64841     64842     64846     64842     64843
     64842     64844     64842     64845     64846     64847     64848     64852
     64848     64849     64848     64850     64848     64851     64852     64853
     64854     64858     64854     64855     64854     64856     64854     64857
     64858     64859     64860     64864     64860     64861     64860     64862
     64860     64863     64864     64865     64866     64870     64866     64867
     64866     64868     64866     64869     64870     64871     64872     64876
     64872     64873     64872     64874     64872     64875     64876     64877
     64878     64882     64878     64879     64878     64880     64878     64881
     64882     64883     64884     64888     64884     64885     64884     64886
     64884     64887     64888     64889     64890     64894     64890     64891
     64890     64892     64890     64893     64894     64895     64896     64900
     64896     64897     64896     64898     64896     64899     64900     64901
     64902     64906     64902     64903     64902     64904     64902     64905
     64906     64907     64908     64912     64908     64909     64908     64910
     64908     64911     64912     64913     64914     64918     64914     64915
     64914     64916     64914     64917     64918     64919     64920     64924
     64920     64921     64920     64922     64920     64923     64924     64925
     64926     64930     64926     64927     64926     64928     64926     64929
     64930     64931     64932     64936     64932     64933     64932     64934
     64932     64935     64936     64937     64938     64942     64938     64939
     64938     64940     64938     64941     64942     64943     64944     64948
     64944     64945     64944     64946     64944     64947     64948     64949
     64950     64954     64950     64951     64950     64952     64950     64953
     64954     64955     64956     64960     64956     64957     64956     64958
     64956     64959     64960     64961     64962     64966     64962     64963
     64962     64964     64962     64965     64966     64967     64968     64972
     64968     64969     64968     64970     64968     64971     64972     64973
     64974     64978     64974     64975     64974     64976     64974     64977
     64978     64979     64980     64984     64980     64981     64980     64982
     64980     64983     64984     64985     64986     64990     64986     64987
     64986     64988     64986     64989     64990     64991     64992     64996
     64992     64993     64992     64994     64992     64995     64996     64997
     64998     65002     64998     64999     64998     65000     64998     65001
     65002     65003     65004     65008     65004     65005     65004     65006
     65004     65007     65008     65009     65010     65014     65010     65011
     65010     65012     65010     65013     65014     65015     65016     65020
     65016     65017     65016     65018     65016     65019     65020     65021
     65022     65026     65022     65023     65022     65024     65022     65025
     65026     65027     65028     65032     65028     65029     65028     65030
     65028     65031     65032     65033     65034     65038     65034     65035
     65034     65036     65034     65037     65038     65039     65040     65044
     65040     65041     65040     65042     65040     65043     65044     65045
     65046     65050     65046     65047     65046     65048     65046     65049
     65050     65051     65052     65056     65052     65053     65052     65054
     65052     65055     65056     65057     65058     65062     65058     65059
     65058     65060     65058     65061     65062     65063     65064     65068
     65064     65065     65064     65066     65064     65067     65068     65069
     65070     65074     65070     65071     65070     65072     65070     65073
     65074     65075     65076     65080     65076     65077     65076     65078
     65076     65079     65080     65081     65082     65086     65082     65083
     65082     65084     65082     65085     65086     65087     65088     65092
     65088     65089     65088     65090     65088     65091     65092     65093
     65094     65098     65094     65095     65094     65096     65094     65097
     65098     65099     65100     65104     65100     65101     65100     65102
     65100     65103     65104     65105     65106     65110     65106     65107
     65106     65108     65106     65109     65110     65111     65112     65116
     65112     65113     65112     65114     65112     65115     65116     65117
     65118     65122     65118     65119     65118     65120     65118     65121
     65122     65123     65124     65128     65124     65125     65124     65126
     65124     65127     65128     65129     65130     65134     65130     65131
     65130     65132     65130     65133     65134     65135     65136     65140
     65136     65137     65136     65138     65136     65139     65140     65141
     65142     65146     65142     65143     65142     65144     65142     65145
     65146     65147     65148     65152     65148     65149     65148     65150
     65148     65151     65152     65153     65154     65158     65154     65155
     65154     65156     65154     65157     65158     65159     65160     65164
     65160     65161     65160     65162     65160     65163     65164     65165
     65166     65170     65166     65167     65166     65168     65166     65169
     65170     65171     65172     65176     65172     65173     65172     65174
     65172     65175     65176     65177     65178     65182     65178     65179
     65178     65180     65178     65181     65182     65183     65184     65188
     65184     65185     65184     65186     65184     65187     65188     65189
     65190     65194     65190     65191     65190     65192     65190     65193
     65194     65195     65196     65200     65196     65197     65196     65198
     65196     65199     65200     65201     65202     65206     65202     65203
     65202     65204     65202     65205     65206     65207     65208     65212
     65208     65209     65208     65210     65208     65211     65212     65213
     65214     65218     65214     65215     65214     65216     65214     65217
     65218     65219     65220     65224     65220     65221     65220     65222
     65220     65223     65224     65225     65226     65230     65226     65227
     65226     65228     65226     65229     65230     65231     65232     65236
     65232     65233     65232     65234     65232     65235     65236     65237
     65238     65242     65238     65239     65238     65240     65238     65241
     65242     65243     65244     65248     65244     65245     65244     65246
     65244     65247     65248     65249     65250     65254     65250     65251
     65250     65252     65250     65253     65254     65255     65256     65260
     65256     65257     65256     65258     65256     65259     65260     65261
     65262     65266     65262     65263     65262     65264     65262     65265
     65266     65267     65268     65272     65268     65269     65268     65270
     65268     65271     65272     65273     65274     65278     65274     65275
     65274     65276     65274     65277     65278     65279     65280     65284
     65280     65281     65280     65282     65280     65283     65284     65285
     65286     65290     65286     65287     65286     65288     65286     65289
     65290     65291     65292     65296     65292     65293     65292     65294
     65292     65295     65296     65297     65298     65302     65298     65299
     65298     65300     65298     65301     65302     65303     65304     65308
     65304     65305     65304     65306     65304     65307     65308     65309
     65310     65314     65310     65311     65310     65312     65310     65313
     65314     65315     65316     65320     65316     65317     65316     65318
     65316     65319     65320     65321     65322     65326     65322     65323
     65322     65324     65322     65325     65326     65327     65328     65332
     65328     65329     65328     65330     65328     65331     65332     65333
     65334     65338     65334     65335     65334     65336     65334     65337
     65338     65339     65340     65344     65340     65341     65340     65342
     65340     65343     65344     65345     65346     65350     65346     65347
     65346     65348     65346     65349     65350     65351     65352     65356
     65352     65353     65352     65354     65352     65355     65356     65357
     65358     65362     65358     65359     65358     65360     65358     65361
     65362     65363     65364     65368     65364     65365     65364     65366
     65364     65367     65368     65369     65370     65374     65370     65371
     65370     65372     65370     65373     65374     65375     65376     65380
     65376     65377     65376     65378     65376     65379     65380     65381
     65382     65386     65382     65383     65382     65384     65382     65385
     65386     65387     65388     65392     65388     65389     65388     65390
     65388     65391     65392     65393     65394     65398     65394     65395
     65394     65396     65394     65397     65398     65399     65400     65404
     65400     65401     65400     65402     65400     65403     65404     65405
     65406     65410     65406     65407     65406     65408     65406     65409
     65410     65411     65412     65416     65412     65413     65412     65414
     65412     65415     65416     65417     65418     65422     65418     65419
     65418     65420     65418     65421     65422     65423     65424     65428
     65424     65425     65424     65426     65424     65427     65428     65429
     65430     65434     65430     65431     65430     65432     65430     65433
     65434     65435     65436     65440     65436     65437     65436     65438
     65436     65439     65440     65441     65442     65446     65442     65443
     65442     65444     65442     65445     65446     65447     65448     65452
     65448     65449     65448     65450     65448     65451     65452     65453
     65454     65458     65454     65455     65454     65456     65454     65457
     65458     65459     65460     65464     65460     65461     65460     65462
     65460     65463     65464     65465     65466     65470     65466     65467
     65466     65468     65466     65469     65470     65471     65472     65476
     65472     65473     65472     65474     65472     65475     65476     65477
     65478     65482     65478     65479     65478     65480     65478     65481
     65482     65483     65484     65488     65484     65485     65484     65486
     65484     65487     65488     65489     65490     65494     65490     65491
     65490     65492     65490     65493     65494     65495     65496     65500
     65496     65497     65496     65498     65496     65499     65500     65501
     65502     65506     65502     65503     65502     65504     65502     65505
     65506     65507     65508     65512     65508     65509     65508     65510
     65508     65511     65512     65513     65514     65518     65514     65515
     65514     65516     65514     65517     65518     65519     65520     65524
     65520     65521     65520     65522     65520     65523     65524     65525
     65526     65530     65526     65527     65526     65528     65526     65529
     65530     65531     65532     65536     65532     65533     65532     65534
     65532     65535     65536     65537     65538     65542     65538     65539
     65538     65540     65538     65541     65542     65543     65544     65548
     65544     65545     65544     65546     65544     65547     65548     65549
     65550     65554     65550     65551     65550     65552     65550     65553
     65554     65555     65556     65560     65556     65557     65556     65558
     65556     65559     65560     65561     65562     65566     65562     65563
     65562     65564     65562     65565     65566     65567     65568     65572
     65568     65569     65568     65570     65568     65571     65572     65573
     65574     65578     65574     65575     65574     65576     65574     65577
     65578     65579     65580     65584     65580     65581     65580     65582
     65580     65583     65584     65585     65586     65590     65586     65587
     65586     65588     65586     65589     65590     65591     65592     65596
     65592     65593     65592     65594     65592     65595     65596     65597
     65598     65602     65598     65599     65598     65600     65598     65601
     65602     65603     65604     65608     65604     65605     65604     65606
     65604     65607     65608     65609     65610     65614     65610     65611
     65610     65612     65610     65613     65614     65615     65616     65620
     65616     65617     65616     65618     65616     65619     65620     65621
     65622     65626     65622     65623     65622     65624     65622     65625
     65626     65627     65628     65632     65628     65629     65628     65630
     65628     65631     65632     65633     65634     65638     65634     65635
     65634     65636     65634     65637     65638     65639     65640     65644
     65640     65641     65640     65642     65640     65643     65644     65645
     65646     65650     65646     65647     65646     65648     65646     65649
     65650     65651     65652     65656     65652     65653     65652     65654
     65652     65655     65656     65657     65658     65662     65658     65659
     65658     65660     65658     65661     65662     65663     65664     65668
     65664     65665     65664     65666     65664     65667     65668     65669
     65670     65674     65670     65671     65670     65672     65670     65673
     65674     65675     65676     65680     65676     65677     65676     65678
     65676     65679     65680     65681     65682     65686     65682     65683
     65682     65684     65682     65685     65686     65687     65688     65692
     65688     65689     65688     65690     65688     65691     65692     65693
     65694     65698     65694     65695     65694     65696     65694     65697
     65698     65699     65700     65704     65700     65701     65700     65702
     65700     65703     65704     65705     65706     65710     65706     65707
     65706     65708     65706     65709     65710     65711     65712     65716
     65712     65713     65712     65714     65712     65715     65716     65717
     65718     65722     65718     65719     65718     65720     65718     65721
     65722     65723     65724     65728     65724     65725     65724     65726
     65724     65727     65728     65729     65730     65734     65730     65731
     65730     65732     65730     65733     65734     65735     65736     65740
     65736     65737     65736     65738     65736     65739     65740     65741
     65742     65746     65742     65743     65742     65744     65742     65745
     65746     65747     65748     65752     65748     65749     65748     65750
     65748     65751     65752     65753     65754     65758     65754     65755
     65754     65756     65754     65757     65758     65759     65760     65764
     65760     65761     65760     65762     65760     65763     65764     65765
     65766     65770     65766     65767     65766     65768     65766     65769
     65770     65771     65772     65776     65772     65773     65772     65774
     65772     65775     65776     65777     65778     65782     65778     65779
     65778     65780     65778     65781     65782     65783     65784     65788
     65784     65785     65784     65786     65784     65787     65788     65789
     65790     65794     65790     65791     65790     65792     65790     65793
     65794     65795     65796     65800     65796     65797     65796     65798
     65796     65799     65800     65801     65802     65806     65802     65803
     65802     65804     65802     65805     65806     65807     65808     65812
     65808     65809     65808     65810     65808     65811     65812     65813
     65814     65818     65814     65815     65814     65816     65814     65817
     65818     65819     65820     65824     65820     65821     65820     65822
     65820     65823     65824     65825     65826     65830     65826     65827
     65826     65828     65826     65829     65830     65831     65832     65836
     65832     65833     65832     65834     65832     65835     65836     65837
     65838     65842     65838     65839     65838     65840     65838     65841
     65842     65843     65844     65848     65844     65845     65844     65846
     65844     65847     65848     65849     65850     65854     65850     65851
     65850     65852     65850     65853     65854     65855     65856     65860
     65856     65857     65856     65858     65856     65859     65860     65861
     65862     65866     65862     65863     65862     65864     65862     65865
     65866     65867     65868     65872     65868     65869     65868     65870
     65868     65871     65872     65873     65874     65878     65874     65875
     65874     65876     65874     65877     65878     65879     65880     65884
     65880     65881     65880     65882     65880     65883     65884     65885
     65886     65890     65886     65887     65886     65888     65886     65889
     65890     65891     65892     65896     65892     65893     65892     65894
     65892     65895     65896     65897     65898     65902     65898     65899
     65898     65900     65898     65901     65902     65903     65904     65908
     65904     65905     65904     65906     65904     65907     65908     65909
     65910     65914     65910     65911     65910     65912     65910     65913
     65914     65915     65916     65920     65916     65917     65916     65918
     65916     65919     65920     65921     65922     65926     65922     65923
     65922     65924     65922     65925     65926     65927     65928     65932
     65928     65929     65928     65930     65928     65931     65932     65933
     65934     65938     65934     65935     65934     65936     65934     65937
     65938     65939     65940     65944     65940     65941     65940     65942
     65940     65943     65944     65945     65946     65950     65946     65947
     65946     65948     65946     65949     65950     65951     65952     65956
     65952     65953     65952     65954     65952     65955     65956     65957
     65958     65962     65958     65959     65958     65960     65958     65961
     65962     65963     65964     65968     65964     65965     65964     65966
     65964     65967     65968     65969     65970     65974     65970     65971
     65970     65972     65970     65973     65974     65975     65976     65980
     65976     65977     65976     65978     65976     65979     65980     65981
     65982     65986     65982     65983     65982     65984     65982     65985
     65986     65987     65988     65992     65988     65989     65988     65990
     65988     65991     65992     65993     65994     65998     65994     65995
     65994     65996     65994     65997     65998     65999     66000     66004
     66000     66001     66000     66002     66000     66003     66004     66005
     66006     66010     66006     66007     66006     66008     66006     66009
     66010     66011     66012     66016     66012     66013     66012     66014
     66012     66015     66016     66017     66018     66022     66018     66019
     66018     66020     66018     66021     66022     66023     66024     66028
     66024     66025     66024     66026     66024     66027     66028     66029
     66030     66034     66030     66031     66030     66032     66030     66033
     66034     66035     66036     66040     66036     66037     66036     66038
     66036     66039     66040     66041     66042     66046     66042     66043
     66042     66044     66042     66045     66046     66047     66048     66052
     66048     66049     66048     66050     66048     66051     66052     66053
     66054     66058     66054     66055     66054     66056     66054     66057
     66058     66059     66060     66064     66060     66061     66060     66062
     66060     66063     66064     66065     66066     66070     66066     66067
     66066     66068     66066     66069     66070     66071     66072     66076
     66072     66073     66072     66074     66072     66075     66076     66077
     66078     66082     66078     66079     66078     66080     66078     66081
     66082     66083     66084     66088     66084     66085     66084     66086
     66084     66087     66088     66089     66090     66094     66090     66091
     66090     66092     66090     66093     66094     66095     66096     66100
     66096     66097     66096     66098     66096     66099     66100     66101
     66102     66106     66102     66103     66102     66104     66102     66105
     66106     66107     66108     66112     66108     66109     66108     66110
     66108     66111     66112     66113     66114     66118     66114     66115
     66114     66116     66114     66117     66118     66119     66120     66124
     66120     66121     66120     66122     66120     66123     66124     66125
     66126     66130     66126     66127     66126     66128     66126     66129
     66130     66131     66132     66136     66132     66133     66132     66134
     66132     66135     66136     66137     66138     66142     66138     66139
     66138     66140     66138     66141     66142     66143     66144     66148
     66144     66145     66144     66146     66144     66147     66148     66149
     66150     66154     66150     66151     66150     66152     66150     66153
     66154     66155     66156     66160     66156     66157     66156     66158
     66156     66159     66160     66161     66162     66166     66162     66163
     66162     66164     66162     66165     66166     66167     66168     66172
     66168     66169     66168     66170     66168     66171     66172     66173
     66174     66178     66174     66175     66174     66176     66174     66177
     66178     66179     66180     66184     66180     66181     66180     66182
     66180     66183     66184     66185     66186     66190     66186     66187
     66186     66188     66186     66189     66190     66191     66192     66196
     66192     66193     66192     66194     66192     66195     66196     66197
     66198     66202     66198     66199     66198     66200     66198     66201
     66202     66203     66204     66208     66204     66205     66204     66206
     66204     66207     66208     66209     66210     66214     66210     66211
     66210     66212     66210     66213     66214     66215     66216     66220
     66216     66217     66216     66218     66216     66219     66220     66221
     66222     66226     66222     66223     66222     66224     66222     66225
     66226     66227     66228     66232     66228     66229     66228     66230
     66228     66231     66232     66233     66234     66238     66234     66235
     66234     66236     66234     66237     66238     66239     66240     66244
     66240     66241     66240     66242     66240     66243     66244     66245
     66246     66250     66246     66247     66246     66248     66246     66249
     66250     66251     66252     66256     66252     66253     66252     66254
     66252     66255     66256     66257     66258     66262     66258     66259
     66258     66260     66258     66261     66262     66263     66264     66268
     66264     66265     66264     66266     66264     66267     66268     66269
     66270     66274     66270     66271     66270     66272     66270     66273
     66274     66275     66276     66280     66276     66277     66276     66278
     66276     66279     66280     66281     66282     66286     66282     66283
     66282     66284     66282     66285     66286     66287     66288     66292
     66288     66289     66288     66290     66288     66291     66292     66293
     66294     66298     66294     66295     66294     66296     66294     66297
     66298     66299     66300     66304     66300     66301     66300     66302
     66300     66303     66304     66305     66306     66310     66306     66307
     66306     66308     66306     66309     66310     66311     66312     66316
     66312     66313     66312     66314     66312     66315     66316     66317
     66318     66322     66318     66319     66318     66320     66318     66321
     66322     66323     66324     66328     66324     66325     66324     66326
     66324     66327     66328     66329     66330     66334     66330     66331
     66330     66332     66330     66333     66334     66335     66336     66340
     66336     66337     66336     66338     66336     66339     66340     66341
     66342     66346     66342     66343     66342     66344     66342     66345
     66346     66347     66348     66352     66348     66349     66348     66350
     66348     66351     66352     66353     66354     66358     66354     66355
     66354     66356     66354     66357     66358     66359     66360     66364
     66360     66361     66360     66362     66360     66363     66364     66365
     66366     66370     66366     66367     66366     66368     66366     66369
     66370     66371     66372     66376     66372     66373     66372     66374
     66372     66375     66376     66377     66378     66382     66378     66379
     66378     66380     66378     66381     66382     66383     66384     66388
     66384     66385     66384     66386     66384     66387     66388     66389
     66390     66394     66390     66391     66390     66392     66390     66393
     66394     66395     66396     66400     66396     66397     66396     66398
     66396     66399     66400     66401     66402     66406     66402     66403
     66402     66404     66402     66405     66406     66407     66408     66412
     66408     66409     66408     66410     66408     66411     66412     66413
     66414     66418     66414     66415     66414     66416     66414     66417
     66418     66419     66420     66424     66420     66421     66420     66422
     66420     66423     66424     66425     66426     66430     66426     66427
     66426     66428     66426     66429     66430     66431     66432     66436
     66432     66433     66432     66434     66432     66435     66436     66437
     66438     66442     66438     66439     66438     66440     66438     66441
     66442     66443     66444     66448     66444     66445     66444     66446
     66444     66447     66448     66449     66450     66454     66450     66451
     66450     66452     66450     66453     66454     66455     66456     66460
     66456     66457     66456     66458     66456     66459     66460     66461
     66462     66466     66462     66463     66462     66464     66462     66465
     66466     66467     66468     66472     66468     66469     66468     66470
     66468     66471     66472     66473     66474     66478     66474     66475
     66474     66476     66474     66477     66478     66479     66480     66484
     66480     66481     66480     66482     66480     66483     66484     66485
     66486     66490     66486     66487     66486     66488     66486     66489
     66490     66491     66492     66496     66492     66493     66492     66494
     66492     66495     66496     66497     66498     66502     66498     66499
     66498     66500     66498     66501     66502     66503     66504     66508
     66504     66505     66504     66506     66504     66507     66508     66509
     66510     66514     66510     66511     66510     66512     66510     66513
     66514     66515     66516     66520     66516     66517     66516     66518
     66516     66519     66520     66521     66522     66526     66522     66523
     66522     66524     66522     66525     66526     66527     66528     66532
     66528     66529     66528     66530     66528     66531     66532     66533
     66534     66538     66534     66535     66534     66536     66534     66537
     66538     66539     66540     66544     66540     66541     66540     66542
     66540     66543     66544     66545     66546     66550     66546     66547
     66546     66548     66546     66549     66550     66551     66552     66556
     66552     66553     66552     66554     66552     66555     66556     66557
     66558     66562     66558     66559     66558     66560     66558     66561
     66562     66563     66564     66568     66564     66565     66564     66566
     66564     66567     66568     66569     66570     66574     66570     66571
     66570     66572     66570     66573     66574     66575     66576     66580
     66576     66577     66576     66578     66576     66579     66580     66581
     66582     66586     66582     66583     66582     66584     66582     66585
     66586     66587     66588     66592     66588     66589     66588     66590
     66588     66591     66592     66593     66594     66598     66594     66595
     66594     66596     66594     66597     66598     66599     66600     66604
     66600     66601     66600     66602     66600     66603     66604     66605
     66606     66610     66606     66607     66606     66608     66606     66609
     66610     66611     66612     66616     66612     66613     66612     66614
     66612     66615     66616     66617     66618     66622     66618     66619
     66618     66620     66618     66621     66622     66623     66624     66628
     66624     66625     66624     66626     66624     66627     66628     66629
     66630     66634     66630     66631     66630     66632     66630     66633
     66634     66635     66636     66640     66636     66637     66636     66638
     66636     66639     66640     66641     66642     66646     66642     66643
     66642     66644     66642     66645     66646     66647     66648     66652
     66648     66649     66648     66650     66648     66651     66652     66653
     66654     66658     66654     66655     66654     66656     66654     66657
     66658     66659     66660     66664     66660     66661     66660     66662
     66660     66663     66664     66665     66666     66670     66666     66667
     66666     66668     66666     66669     66670     66671     66672     66676
     66672     66673     66672     66674     66672     66675     66676     66677
     66678     66682     66678     66679     66678     66680     66678     66681
     66682     66683     66684     66688     66684     66685     66684     66686
     66684     66687     66688     66689     66690     66694     66690     66691
     66690     66692     66690     66693     66694     66695     66696     66700
     66696     66697     66696     66698     66696     66699     66700     66701
     66702     66706     66702     66703     66702     66704     66702     66705
     66706     66707     66708     66712     66708     66709     66708     66710
     66708     66711     66712     66713     66714     66718     66714     66715
     66714     66716     66714     66717     66718     66719     66720     66724
     66720     66721     66720     66722     66720     66723     66724     66725
     66726     66730     66726     66727     66726     66728     66726     66729
     66730     66731     66732     66736     66732     66733     66732     66734
     66732     66735     66736     66737     66738     66742     66738     66739
     66738     66740     66738     66741     66742     66743     66744     66748
     66744     66745     66744     66746     66744     66747     66748     66749
     66750     66754     66750     66751     66750     66752     66750     66753
     66754     66755     66756     66760     66756     66757     66756     66758
     66756     66759     66760     66761     66762     66766     66762     66763
     66762     66764     66762     66765     66766     66767     66768     66772
     66768     66769     66768     66770     66768     66771     66772     66773
     66774     66778     66774     66775     66774     66776     66774     66777
     66778     66779     66780     66784     66780     66781     66780     66782
     66780     66783     66784     66785     66786     66790     66786     66787
     66786     66788     66786     66789     66790     66791     66792     66796
     66792     66793     66792     66794     66792     66795     66796     66797
     66798     66802     66798     66799     66798     66800     66798     66801
     66802     66803     66804     66808     66804     66805     66804     66806
     66804     66807     66808     66809     66810     66814     66810     66811
     66810     66812     66810     66813     66814     66815     66816     66820
     66816     66817     66816     66818     66816     66819     66820     66821
     66822     66826     66822     66823     66822     66824     66822     66825
     66826     66827     66828     66832     66828     66829     66828     66830
     66828     66831     66832     66833     66834     66838     66834     66835
     66834     66836     66834     66837     66838     66839     66840     66844
     66840     66841     66840     66842     66840     66843     66844     66845
     66846     66850     66846     66847     66846     66848     66846     66849
     66850     66851     66852     66856     66852     66853     66852     66854
     66852     66855     66856     66857     66858     66862     66858     66859
     66858     66860     66858     66861     66862     66863     66864     66868
     66864     66865     66864     66866     66864     66867     66868     66869
     66870     66874     66870     66871     66870     66872     66870     66873
     66874     66875     66876     66880     66876     66877     66876     66878
     66876     66879     66880     66881     66882     66886     66882     66883
     66882     66884     66882     66885     66886     66887     66888     66892
     66888     66889     66888     66890     66888     66891     66892     66893
     66894     66898     66894     66895     66894     66896     66894     66897
     66898     66899     66900     66904     66900     66901     66900     66902
     66900     66903     66904     66905     66906     66910     66906     66907
     66906     66908     66906     66909     66910     66911     66912     66916
     66912     66913     66912     66914     66912     66915     66916     66917
     66918     66922     66918     66919     66918     66920     66918     66921
     66922     66923     66924     66928     66924     66925     66924     66926
     66924     66927     66928     66929     66930     66934     66930     66931
     66930     66932     66930     66933     66934     66935     66936     66940
     66936     66937     66936     66938     66936     66939     66940     66941
     66942     66946     66942     66943     66942     66944     66942     66945
     66946     66947     66948     66952     66948     66949     66948     66950
     66948     66951     66952     66953     66954     66958     66954     66955
     66954     66956     66954     66957     66958     66959     66960     66964
     66960     66961     66960     66962     66960     66963     66964     66965
     66966     66970     66966     66967     66966     66968     66966     66969
     66970     66971     66972     66976     66972     66973     66972     66974
     66972     66975     66976     66977     66978     66982     66978     66979
     66978     66980     66978     66981     66982     66983     66984     66988
     66984     66985     66984     66986     66984     66987     66988     66989
     66990     66994     66990     66991     66990     66992     66990     66993
     66994     66995     66996     67000     66996     66997     66996     66998
     66996     66999     67000     67001     67002     67006     67002     67003
     67002     67004     67002     67005     67006     67007     67008     67012
     67008     67009     67008     67010     67008     67011     67012     67013
     67014     67018     67014     67015     67014     67016     67014     67017
     67018     67019     67020     67024     67020     67021     67020     67022
     67020     67023     67024     67025     67026     67030     67026     67027
     67026     67028     67026     67029     67030     67031     67032     67036
     67032     67033     67032     67034     67032     67035     67036     67037
     67038     67042     67038     67039     67038     67040     67038     67041
     67042     67043     67044     67048     67044     67045     67044     67046
     67044     67047     67048     67049     67050     67054     67050     67051
     67050     67052     67050     67053     67054     67055     67056     67060
     67056     67057     67056     67058     67056     67059     67060     67061
     67062     67066     67062     67063     67062     67064     67062     67065
     67066     67067     67068     67072     67068     67069     67068     67070
     67068     67071     67072     67073     67074     67078     67074     67075
     67074     67076     67074     67077     67078     67079     67080     67084
     67080     67081     67080     67082     67080     67083     67084     67085
     67086     67090     67086     67087     67086     67088     67086     67089
     67090     67091     67092     67096     67092     67093     67092     67094
     67092     67095     67096     67097     67098     67102     67098     67099
     67098     67100     67098     67101     67102     67103     67104     67108
     67104     67105     67104     67106     67104     67107     67108     67109
     67110     67114     67110     67111     67110     67112     67110     67113
     67114     67115     67116     67120     67116     67117     67116     67118
     67116     67119     67120     67121     67122     67126     67122     67123
     67122     67124     67122     67125     67126     67127     67128     67132
     67128     67129     67128     67130     67128     67131     67132     67133
     67134     67138     67134     67135     67134     67136     67134     67137
     67138     67139     67140     67144     67140     67141     67140     67142
     67140     67143     67144     67145     67146     67150     67146     67147
     67146     67148     67146     67149     67150     67151     67152     67156
     67152     67153     67152     67154     67152     67155     67156     67157
     67158     67162     67158     67159     67158     67160     67158     67161
     67162     67163     67164     67168     67164     67165     67164     67166
     67164     67167     67168     67169     67170     67174     67170     67171
     67170     67172     67170     67173     67174     67175     67176     67180
     67176     67177     67176     67178     67176     67179     67180     67181
     67182     67186     67182     67183     67182     67184     67182     67185
     67186     67187     67188     67192     67188     67189     67188     67190
     67188     67191     67192     67193     67194     67198     67194     67195
     67194     67196     67194     67197     67198     67199     67200     67204
     67200     67201     67200     67202     67200     67203     67204     67205
     67206     67210     67206     67207     67206     67208     67206     67209
     67210     67211     67212     67216     67212     67213     67212     67214
     67212     67215     67216     67217     67218     67222     67218     67219
     67218     67220     67218     67221     67222     67223     67224     67228
     67224     67225     67224     67226     67224     67227     67228     67229
     67230     67234     67230     67231     67230     67232     67230     67233
     67234     67235     67236     67240     67236     67237     67236     67238
     67236     67239     67240     67241     67242     67246     67242     67243
     67242     67244     67242     67245     67246     67247     67248     67252
     67248     67249     67248     67250     67248     67251     67252     67253
     67254     67258     67254     67255     67254     67256     67254     67257
     67258     67259     67260     67264     67260     67261     67260     67262
     67260     67263     67264     67265     67266     67270     67266     67267
     67266     67268     67266     67269     67270     67271     67272     67276
     67272     67273     67272     67274     67272     67275     67276     67277
     67278     67282     67278     67279     67278     67280     67278     67281
     67282     67283     67284     67288     67284     67285     67284     67286
     67284     67287     67288     67289     67290     67294     67290     67291
     67290     67292     67290     67293     67294     67295     67296     67300
     67296     67297     67296     67298     67296     67299     67300     67301
     67302     67306     67302     67303     67302     67304     67302     67305
     67306     67307     67308     67312     67308     67309     67308     67310
     67308     67311     67312     67313     67314     67318     67314     67315
     67314     67316     67314     67317     67318     67319     67320     67324
     67320     67321     67320     67322     67320     67323     67324     67325
     67326     67330     67326     67327     67326     67328     67326     67329
     67330     67331     67332     67336     67332     67333     67332     67334
     67332     67335     67336     67337     67338     67342     67338     67339
     67338     67340     67338     67341     67342     67343     67344     67348
     67344     67345     67344     67346     67344     67347     67348     67349
     67350     67354     67350     67351     67350     67352     67350     67353
     67354     67355     67356     67360     67356     67357     67356     67358
     67356     67359     67360     67361     67362     67366     67362     67363
     67362     67364     67362     67365     67366     67367     67368     67372
     67368     67369     67368     67370     67368     67371     67372     67373
     67374     67378     67374     67375     67374     67376     67374     67377
     67378     67379     67380     67384     67380     67381     67380     67382
     67380     67383     67384     67385     67386     67390     67386     67387
     67386     67388     67386     67389     67390     67391     67392     67396
     67392     67393     67392     67394     67392     67395     67396     67397
     67398     67402     67398     67399     67398     67400     67398     67401
     67402     67403     67404     67408     67404     67405     67404     67406
     67404     67407     67408     67409     67410     67414     67410     67411
     67410     67412     67410     67413     67414     67415     67416     67420
     67416     67417     67416     67418     67416     67419     67420     67421
     67422     67426     67422     67423     67422     67424     67422     67425
     67426     67427     67428     67432     67428     67429     67428     67430
     67428     67431     67432     67433     67434     67438     67434     67435
     67434     67436     67434     67437     67438     67439     67440     67444
     67440     67441     67440     67442     67440     67443     67444     67445
     67446     67450     67446     67447     67446     67448     67446     67449
     67450     67451     67452     67456     67452     67453     67452     67454
     67452     67455     67456     67457     67458     67462     67458     67459
     67458     67460     67458     67461     67462     67463     67464     67468
     67464     67465     67464     67466     67464     67467     67468     67469
     67470     67474     67470     67471     67470     67472     67470     67473
     67474     67475     67476     67480     67476     67477     67476     67478
     67476     67479     67480     67481     67482     67486     67482     67483
     67482     67484     67482     67485     67486     67487     67488     67492
     67488     67489     67488     67490     67488     67491     67492     67493
     67494     67498     67494     67495     67494     67496     67494     67497
     67498     67499     67500     67504     67500     67501     67500     67502
     67500     67503     67504     67505     67506     67510     67506     67507
     67506     67508     67506     67509     67510     67511     67512     67516
     67512     67513     67512     67514     67512     67515     67516     67517
     67518     67522     67518     67519     67518     67520     67518     67521
     67522     67523     67524     67528     67524     67525     67524     67526
     67524     67527     67528     67529     67530     67534     67530     67531
     67530     67532     67530     67533     67534     67535     67536     67540
     67536     67537     67536     67538     67536     67539     67540     67541
     67542     67546     67542     67543     67542     67544     67542     67545
     67546     67547     67548     67552     67548     67549     67548     67550
     67548     67551     67552     67553     67554     67558     67554     67555
     67554     67556     67554     67557     67558     67559     67560     67564
     67560     67561     67560     67562     67560     67563     67564     67565
     67566     67570     67566     67567     67566     67568     67566     67569
     67570     67571     67572     67576     67572     67573     67572     67574
     67572     67575     67576     67577     67578     67582     67578     67579
     67578     67580     67578     67581     67582     67583     67584     67588
     67584     67585     67584     67586     67584     67587     67588     67589
     67590     67594     67590     67591     67590     67592     67590     67593
     67594     67595     67596     67600     67596     67597     67596     67598
     67596     67599     67600     67601     67602     67606     67602     67603
     67602     67604     67602     67605     67606     67607     67608     67612
     67608     67609     67608     67610     67608     67611     67612     67613
     67614     67618     67614     67615     67614     67616     67614     67617
     67618     67619     67620     67624     67620     67621     67620     67622
     67620     67623     67624     67625     67626     67630     67626     67627
     67626     67628     67626     67629     67630     67631     67632     67636
     67632     67633     67632     67634     67632     67635     67636     67637
     67638     67642     67638     67639     67638     67640     67638     67641
     67642     67643     67644     67648     67644     67645     67644     67646
     67644     67647     67648     67649     67650     67654     67650     67651
     67650     67652     67650     67653     67654     67655     67656     67660
     67656     67657     67656     67658     67656     67659     67660     67661
     67662     67666     67662     67663     67662     67664     67662     67665
     67666     67667     67668     67672     67668     67669     67668     67670
     67668     67671     67672     67673     67674     67678     67674     67675
     67674     67676     67674     67677     67678     67679     67680     67684
     67680     67681     67680     67682     67680     67683     67684     67685
     67686     67690     67686     67687     67686     67688     67686     67689
     67690     67691     67692     67696     67692     67693     67692     67694
     67692     67695     67696     67697     67698     67702     67698     67699
     67698     67700     67698     67701     67702     67703     67704     67708
     67704     67705     67704     67706     67704     67707     67708     67709
     67710     67714     67710     67711     67710     67712     67710     67713
     67714     67715     67716     67720     67716     67717     67716     67718
     67716     67719     67720     67721     67722     67726     67722     67723
     67722     67724     67722     67725     67726     67727     67728     67732
     67728     67729     67728     67730     67728     67731     67732     67733
     67734     67738     67734     67735     67734     67736     67734     67737
     67738     67739     67740     67744     67740     67741     67740     67742
     67740     67743     67744     67745     67746     67750     67746     67747
     67746     67748     67746     67749     67750     67751     67752     67756
     67752     67753     67752     67754     67752     67755     67756     67757
     67758     67762     67758     67759     67758     67760     67758     67761
     67762     67763     67764     67768     67764     67765     67764     67766
     67764     67767     67768     67769     67770     67774     67770     67771
     67770     67772     67770     67773     67774     67775     67776     67780
     67776     67777     67776     67778     67776     67779     67780     67781
     67782     67786     67782     67783     67782     67784     67782     67785
     67786     67787     67788     67792     67788     67789     67788     67790
     67788     67791     67792     67793     67794     67798     67794     67795
     67794     67796     67794     67797     67798     67799     67800     67804
     67800     67801     67800     67802     67800     67803     67804     67805
     67806     67810     67806     67807     67806     67808     67806     67809
     67810     67811     67812     67816     67812     67813     67812     67814
     67812     67815     67816     67817     67818     67822     67818     67819
     67818     67820     67818     67821     67822     67823     67824     67828
     67824     67825     67824     67826     67824     67827     67828     67829
     67830     67834     67830     67831     67830     67832     67830     67833
     67834     67835     67836     67840     67836     67837     67836     67838
     67836     67839     67840     67841     67842     67846     67842     67843
     67842     67844     67842     67845     67846     67847     67848     67852
     67848     67849     67848     67850     67848     67851     67852     67853
     67854     67858     67854     67855     67854     67856     67854     67857
     67858     67859     67860     67864     67860     67861     67860     67862
     67860     67863     67864     67865     67866     67870     67866     67867
     67866     67868     67866     67869     67870     67871     67872     67876
     67872     67873     67872     67874     67872     67875     67876     67877
     67878     67882     67878     67879     67878     67880     67878     67881
     67882     67883     67884     67888     67884     67885     67884     67886
     67884     67887     67888     67889     67890     67894     67890     67891
     67890     67892     67890     67893     67894     67895     67896     67900
     67896     67897     67896     67898     67896     67899     67900     67901
     67902     67906     67902     67903     67902     67904     67902     67905
     67906     67907     67908     67912     67908     67909     67908     67910
     67908     67911     67912     67913     67914     67918     67914     67915
     67914     67916     67914     67917     67918     67919     67920     67924
     67920     67921     67920     67922     67920     67923     67924     67925
     67926     67930     67926     67927     67926     67928     67926     67929
     67930     67931     67932     67936     67932     67933     67932     67934
     67932     67935     67936     67937     67938     67942     67938     67939
     67938     67940     67938     67941     67942     67943     67944     67948
     67944     67945     67944     67946     67944     67947     67948     67949
     67950     67954     67950     67951     67950     67952     67950     67953
     67954     67955     67956     67960     67956     67957     67956     67958
     67956     67959     67960     67961     67962     67966     67962     67963
     67962     67964     67962     67965     67966     67967     67968     67972
     67968     67969     67968     67970     67968     67971     67972     67973
     67974     67978     67974     67975     67974     67976     67974     67977
     67978     67979     67980     67984     67980     67981     67980     67982
     67980     67983     67984     67985     67986     67990     67986     67987
     67986     67988     67986     67989     67990     67991     67992     67996
     67992     67993     67992     67994     67992     67995     67996     67997
     67998     68002     67998     67999     67998     68000     67998     68001
     68002     68003     68004     68008     68004     68005     68004     68006
     68004     68007     68008     68009     68010     68014     68010     68011
     68010     68012     68010     68013     68014     68015     68016     68020
     68016     68017     68016     68018     68016     68019     68020     68021
     68022     68026     68022     68023     68022     68024     68022     68025
     68026     68027     68028     68032     68028     68029     68028     68030
     68028     68031     68032     68033     68034     68038     68034     68035
     68034     68036     68034     68037     68038     68039     68040     68044
     68040     68041     68040     68042     68040     68043     68044     68045
     68046     68050     68046     68047     68046     68048     68046     68049
     68050     68051     68052     68056     68052     68053     68052     68054
     68052     68055     68056     68057     68058     68062     68058     68059
     68058     68060     68058     68061     68062     68063     68064     68068
     68064     68065     68064     68066     68064     68067     68068     68069
     68070     68074     68070     68071     68070     68072     68070     68073
     68074     68075     68076     68080     68076     68077     68076     68078
     68076     68079     68080     68081     68082     68086     68082     68083
     68082     68084     68082     68085     68086     68087     68088     68092
     68088     68089     68088     68090     68088     68091     68092     68093
     68094     68098     68094     68095     68094     68096     68094     68097
     68098     68099     68100     68104     68100     68101     68100     68102
     68100     68103     68104     68105     68106     68110     68106     68107
     68106     68108     68106     68109     68110     68111     68112     68116
     68112     68113     68112     68114     68112     68115     68116     68117
     68118     68122     68118     68119     68118     68120     68118     68121
     68122     68123     68124     68128     68124     68125     68124     68126
     68124     68127     68128     68129     68130     68134     68130     68131
     68130     68132     68130     68133     68134     68135     68136     68140
     68136     68137     68136     68138     68136     68139     68140     68141
     68142     68146     68142     68143     68142     68144     68142     68145
     68146     68147     68148     68152     68148     68149     68148     68150
     68148     68151     68152     68153     68154     68158     68154     68155
     68154     68156     68154     68157     68158     68159     68160     68164
     68160     68161     68160     68162     68160     68163     68164     68165
     68166     68170     68166     68167     68166     68168     68166     68169
     68170     68171     68172     68176     68172     68173     68172     68174
     68172     68175     68176     68177     68178     68182     68178     68179
     68178     68180     68178     68181     68182     68183     68184     68188
     68184     68185     68184     68186     68184     68187     68188     68189
     68190     68194     68190     68191     68190     68192     68190     68193
     68194     68195     68196     68200     68196     68197     68196     68198
     68196     68199     68200     68201     68202     68206     68202     68203
     68202     68204     68202     68205     68206     68207     68208     68212
     68208     68209     68208     68210     68208     68211     68212     68213
     68214     68218     68214     68215     68214     68216     68214     68217
     68218     68219     68220     68224     68220     68221     68220     68222
     68220     68223     68224     68225     68226     68230     68226     68227
     68226     68228     68226     68229     68230     68231     68232     68236
     68232     68233     68232     68234     68232     68235     68236     68237
     68238     68242     68238     68239     68238     68240     68238     68241
     68242     68243     68244     68248     68244     68245     68244     68246
     68244     68247     68248     68249     68250     68254     68250     68251
     68250     68252     68250     68253     68254     68255     68256     68260
     68256     68257     68256     68258     68256     68259     68260     68261
     68262     68266     68262     68263     68262     68264     68262     68265
     68266     68267     68268     68272     68268     68269     68268     68270
     68268     68271     68272     68273     68274     68278     68274     68275
     68274     68276     68274     68277     68278     68279     68280     68284
     68280     68281     68280     68282     68280     68283     68284     68285
     68286     68290     68286     68287     68286     68288     68286     68289
     68290     68291     68292     68296     68292     68293     68292     68294
     68292     68295     68296     68297     68298     68302     68298     68299
     68298     68300     68298     68301     68302     68303     68304     68308
     68304     68305     68304     68306     68304     68307     68308     68309
     68310     68314     68310     68311     68310     68312     68310     68313
     68314     68315     68316     68320     68316     68317     68316     68318
     68316     68319     68320     68321     68322     68326     68322     68323
     68322     68324     68322     68325     68326     68327     68328     68332
     68328     68329     68328     68330     68328     68331     68332     68333
     68334     68338     68334     68335     68334     68336     68334     68337
     68338     68339     68340     68344     68340     68341     68340     68342
     68340     68343     68344     68345     68346     68350     68346     68347
     68346     68348     68346     68349     68350     68351     68352     68356
     68352     68353     68352     68354     68352     68355     68356     68357
     68358     68362     68358     68359     68358     68360     68358     68361
     68362     68363     68364     68368     68364     68365     68364     68366
     68364     68367     68368     68369     68370     68374     68370     68371
     68370     68372     68370     68373     68374     68375     68376     68380
     68376     68377     68376     68378     68376     68379     68380     68381
     68382     68386     68382     68383     68382     68384     68382     68385
     68386     68387     68388     68392     68388     68389     68388     68390
     68388     68391     68392     68393     68394     68398     68394     68395
     68394     68396     68394     68397     68398     68399     68400     68404
     68400     68401     68400     68402     68400     68403     68404     68405
     68406     68410     68406     68407     68406     68408     68406     68409
     68410     68411     68412     68416     68412     68413     68412     68414
     68412     68415     68416     68417     68418     68422     68418     68419
     68418     68420     68418     68421     68422     68423     68424     68428
     68424     68425     68424     68426     68424     68427     68428     68429
     68430     68434     68430     68431     68430     68432     68430     68433
     68434     68435     68436     68440     68436     68437     68436     68438
     68436     68439     68440     68441     68442     68446     68442     68443
     68442     68444     68442     68445     68446     68447     68448     68452
     68448     68449     68448     68450     68448     68451     68452     68453
     68454     68458     68454     68455     68454     68456     68454     68457
     68458     68459     68460     68464     68460     68461     68460     68462
     68460     68463     68464     68465     68466     68470     68466     68467
     68466     68468     68466     68469     68470     68471     68472     68476
     68472     68473     68472     68474     68472     68475     68476     68477
     68478     68482     68478     68479     68478     68480     68478     68481
     68482     68483     68484     68488     68484     68485     68484     68486
     68484     68487     68488     68489     68490     68494     68490     68491
     68490     68492     68490     68493     68494     68495     68496     68500
     68496     68497     68496     68498     68496     68499     68500     68501
     68502     68506     68502     68503     68502     68504     68502     68505
     68506     68507     68508     68512     68508     68509     68508     68510
     68508     68511     68512     68513     68514     68518     68514     68515
     68514     68516     68514     68517     68518     68519     68520     68524
     68520     68521     68520     68522     68520     68523     68524     68525
     68526     68530     68526     68527     68526     68528     68526     68529
     68530     68531     68532     68536     68532     68533     68532     68534
     68532     68535     68536     68537     68538     68542     68538     68539
     68538     68540     68538     68541     68542     68543     68544     68548
     68544     68545     68544     68546     68544     68547     68548     68549
     68550     68554     68550     68551     68550     68552     68550     68553
     68554     68555     68556     68560     68556     68557     68556     68558
     68556     68559     68560     68561     68562     68566     68562     68563
     68562     68564     68562     68565     68566     68567     68568     68572
     68568     68569     68568     68570     68568     68571     68572     68573
     68574     68578     68574     68575     68574     68576     68574     68577
     68578     68579     68580     68584     68580     68581     68580     68582
     68580     68583     68584     68585     68586     68590     68586     68587
     68586     68588     68586     68589     68590     68591     68592     68596
     68592     68593     68592     68594     68592     68595     68596     68597
     68598     68602     68598     68599     68598     68600     68598     68601
     68602     68603     68604     68608     68604     68605     68604     68606
     68604     68607     68608     68609     68610     68614     68610     68611
     68610     68612     68610     68613     68614     68615     68616     68620
     68616     68617     68616     68618     68616     68619     68620     68621
     68622     68626     68622     68623     68622     68624     68622     68625
     68626     68627     68628     68632     68628     68629     68628     68630
     68628     68631     68632     68633     68634     68638     68634     68635
     68634     68636     68634     68637     68638     68639     68640     68644
     68640     68641     68640     68642     68640     68643     68644     68645
     68646     68650     68646     68647     68646     68648     68646     68649
     68650     68651     68652     68656     68652     68653     68652     68654
     68652     68655     68656     68657     68658     68662     68658     68659
     68658     68660     68658     68661     68662     68663     68664     68668
     68664     68665     68664     68666     68664     68667     68668     68669
     68670     68674     68670     68671     68670     68672     68670     68673
     68674     68675     68676     68680     68676     68677     68676     68678
     68676     68679     68680     68681     68682     68686     68682     68683
     68682     68684     68682     68685     68686     68687     68688     68692
     68688     68689     68688     68690     68688     68691     68692     68693
     68694     68698     68694     68695     68694     68696     68694     68697
     68698     68699     68700     68704     68700     68701     68700     68702
     68700     68703     68704     68705     68706     68710     68706     68707
     68706     68708     68706     68709     68710     68711     68712     68716
     68712     68713     68712     68714     68712     68715     68716     68717
     68718     68722     68718     68719     68718     68720     68718     68721
     68722     68723     68724     68728     68724     68725     68724     68726
     68724     68727     68728     68729     68730     68734     68730     68731
     68730     68732     68730     68733     68734     68735     68736     68740
     68736     68737     68736     68738     68736     68739     68740     68741
     68742     68746     68742     68743     68742     68744     68742     68745
     68746     68747     68748     68752     68748     68749     68748     68750
     68748     68751     68752     68753     68754     68758     68754     68755
     68754     68756     68754     68757     68758     68759     68760     68764
     68760     68761     68760     68762     68760     68763     68764     68765
     68766     68770     68766     68767     68766     68768     68766     68769
     68770     68771     68772     68776     68772     68773     68772     68774
     68772     68775     68776     68777     68778     68782     68778     68779
     68778     68780     68778     68781     68782     68783     68784     68788
     68784     68785     68784     68786     68784     68787     68788     68789
     68790     68794     68790     68791     68790     68792     68790     68793
     68794     68795     68796     68800     68796     68797     68796     68798
     68796     68799     68800     68801     68802     68806     68802     68803
     68802     68804     68802     68805     68806     68807     68808     68812
     68808     68809     68808     68810     68808     68811     68812     68813
     68814     68818     68814     68815     68814     68816     68814     68817
     68818     68819     68820     68824     68820     68821     68820     68822
     68820     68823     68824     68825     68826     68830     68826     68827
     68826     68828     68826     68829     68830     68831     68832     68836
     68832     68833     68832     68834     68832     68835     68836     68837
     68838     68842     68838     68839     68838     68840     68838     68841
     68842     68843     68844     68848     68844     68845     68844     68846
     68844     68847     68848     68849     68850     68854     68850     68851
     68850     68852     68850     68853     68854     68855     68856     68860
     68856     68857     68856     68858     68856     68859     68860     68861
     68862     68866     68862     68863     68862     68864     68862     68865
     68866     68867     68868     68872     68868     68869     68868     68870
     68868     68871     68872     68873     68874     68878     68874     68875
     68874     68876     68874     68877     68878     68879     68880     68884
     68880     68881     68880     68882     68880     68883     68884     68885
     68886     68890     68886     68887     68886     68888     68886     68889
     68890     68891     68892     68896     68892     68893     68892     68894
     68892     68895     68896     68897     68898     68902     68898     68899
     68898     68900     68898     68901     68902     68903     68904     68908
     68904     68905     68904     68906     68904     68907     68908     68909
     68910     68914     68910     68911     68910     68912     68910     68913
     68914     68915     68916     68920     68916     68917     68916     68918
     68916     68919     68920     68921     68922     68926     68922     68923
     68922     68924     68922     68925     68926     68927     68928     68932
     68928     68929     68928     68930     68928     68931     68932     68933
     68934     68938     68934     68935     68934     68936     68934     68937
     68938     68939     68940     68944     68940     68941     68940     68942
     68940     68943     68944     68945     68946     68950     68946     68947
     68946     68948     68946     68949     68950     68951     68952     68956
     68952     68953     68952     68954     68952     68955     68956     68957
     68958     68962     68958     68959     68958     68960     68958     68961
     68962     68963     68964     68968     68964     68965     68964     68966
     68964     68967     68968     68969     68970     68974     68970     68971
     68970     68972     68970     68973     68974     68975     68976     68980
     68976     68977     68976     68978     68976     68979     68980     68981
     68982     68986     68982     68983     68982     68984     68982     68985
     68986     68987     68988     68992     68988     68989     68988     68990
     68988     68991     68992     68993     68994     68998     68994     68995
     68994     68996     68994     68997     68998     68999     69000     69004
     69000     69001     69000     69002     69000     69003     69004     69005
     69006     69010     69006     69007     69006     69008     69006     69009
     69010     69011     69012     69016     69012     69013     69012     69014
     69012     69015     69016     69017     69018     69022     69018     69019
     69018     69020     69018     69021     69022     69023     69024     69028
     69024     69025     69024     69026     69024     69027     69028     69029
     69030     69034     69030     69031     69030     69032     69030     69033
     69034     69035     69036     69040     69036     69037     69036     69038
     69036     69039     69040     69041     69042     69046     69042     69043
     69042     69044     69042     69045     69046     69047     69048     69052
     69048     69049     69048     69050     69048     69051     69052     69053
     69054     69058     69054     69055     69054     69056     69054     69057
     69058     69059     69060     69064     69060     69061     69060     69062
     69060     69063     69064     69065     69066     69070     69066     69067
     69066     69068     69066     69069     69070     69071     69072     69076
     69072     69073     69072     69074     69072     69075     69076     69077
     69078     69082     69078     69079     69078     69080     69078     69081
     69082     69083     69084     69088     69084     69085     69084     69086
     69084     69087     69088     69089     69090     69094     69090     69091
     69090     69092     69090     69093     69094     69095     69096     69100
     69096     69097     69096     69098     69096     69099     69100     69101
     69102     69106     69102     69103     69102     69104     69102     69105
     69106     69107     69108     69112     69108     69109     69108     69110
     69108     69111     69112     69113     69114     69118     69114     69115
     69114     69116     69114     69117     69118     69119     69120     69124
     69120     69121     69120     69122     69120     69123     69124     69125
     69126     69130     69126     69127     69126     69128     69126     69129
     69130     69131     69132     69136     69132     69133     69132     69134
     69132     69135     69136     69137     69138     69142     69138     69139
     69138     69140     69138     69141     69142     69143     69144     69148
     69144     69145     69144     69146     69144     69147     69148     69149
     69150     69154     69150     69151     69150     69152     69150     69153
     69154     69155     69156     69160     69156     69157     69156     69158
     69156     69159     69160     69161     69162     69166     69162     69163
     69162     69164     69162     69165     69166     69167     69168     69172
     69168     69169     69168     69170     69168     69171     69172     69173
     69174     69178     69174     69175     69174     69176     69174     69177
     69178     69179     69180     69184     69180     69181     69180     69182
     69180     69183     69184     69185     69186     69190     69186     69187
     69186     69188     69186     69189     69190     69191     69192     69196
     69192     69193     69192     69194     69192     69195     69196     69197
     69198     69202     69198     69199     69198     69200     69198     69201
     69202     69203     69204     69208     69204     69205     69204     69206
     69204     69207     69208     69209     69210     69214     69210     69211
     69210     69212     69210     69213     69214     69215     69216     69220
     69216     69217     69216     69218     69216     69219     69220     69221
     69222     69226     69222     69223     69222     69224     69222     69225
     69226     69227     69228     69232     69228     69229     69228     69230
     69228     69231     69232     69233     69234     69238     69234     69235
     69234     69236     69234     69237     69238     69239     69240     69244
     69240     69241     69240     69242     69240     69243     69244     69245
     69246     69250     69246     69247     69246     69248     69246     69249
     69250     69251     69252     69256     69252     69253     69252     69254
     69252     69255     69256     69257     69258     69262     69258     69259
     69258     69260     69258     69261     69262     69263     69264     69268
     69264     69265     69264     69266     69264     69267     69268     69269
     69270     69274     69270     69271     69270     69272     69270     69273
     69274     69275     69276     69280     69276     69277     69276     69278
     69276     69279     69280     69281     69282     69286     69282     69283
     69282     69284     69282     69285     69286     69287     69288     69292
     69288     69289     69288     69290     69288     69291     69292     69293
     69294     69298     69294     69295     69294     69296     69294     69297
     69298     69299     69300     69304     69300     69301     69300     69302
     69300     69303     69304     69305     69306     69310     69306     69307
     69306     69308     69306     69309     69310     69311     69312     69316
     69312     69313     69312     69314     69312     69315     69316     69317
     69318     69322     69318     69319     69318     69320     69318     69321
     69322     69323     69324     69328     69324     69325     69324     69326
     69324     69327     69328     69329     69330     69334     69330     69331
     69330     69332     69330     69333     69334     69335     69336     69340
     69336     69337     69336     69338     69336     69339     69340     69341
     69342     69346     69342     69343     69342     69344     69342     69345
     69346     69347     69348     69352     69348     69349     69348     69350
     69348     69351     69352     69353     69354     69358     69354     69355
     69354     69356     69354     69357     69358     69359     69360     69364
     69360     69361     69360     69362     69360     69363     69364     69365
     69366     69370     69366     69367     69366     69368     69366     69369
     69370     69371     69372     69376     69372     69373     69372     69374
     69372     69375     69376     69377     69378     69382     69378     69379
     69378     69380     69378     69381     69382     69383     69384     69388
     69384     69385     69384     69386     69384     69387     69388     69389
     69390     69394     69390     69391     69390     69392     69390     69393
     69394     69395     69396     69400     69396     69397     69396     69398
     69396     69399     69400     69401     69402     69406     69402     69403
     69402     69404     69402     69405     69406     69407     69408     69412
     69408     69409     69408     69410     69408     69411     69412     69413
     69414     69418     69414     69415     69414     69416     69414     69417
     69418     69419     69420     69424     69420     69421     69420     69422
     69420     69423     69424     69425     69426     69430     69426     69427
     69426     69428     69426     69429     69430     69431     69432     69436
     69432     69433     69432     69434     69432     69435     69436     69437
     69438     69442     69438     69439     69438     69440     69438     69441
     69442     69443     69444     69448     69444     69445     69444     69446
     69444     69447     69448     69449     69450     69454     69450     69451
     69450     69452     69450     69453     69454     69455     69456     69460
     69456     69457     69456     69458     69456     69459     69460     69461
     69462     69466     69462     69463     69462     69464     69462     69465
     69466     69467     69468     69472     69468     69469     69468     69470
     69468     69471     69472     69473     69474     69478     69474     69475
     69474     69476     69474     69477     69478     69479     69480     69484
     69480     69481     69480     69482     69480     69483     69484     69485
     69486     69490     69486     69487     69486     69488     69486     69489
     69490     69491     69492     69496     69492     69493     69492     69494
     69492     69495     69496     69497     69498     69502     69498     69499
     69498     69500     69498     69501     69502     69503     69504     69508
     69504     69505     69504     69506     69504     69507     69508     69509
     69510     69514     69510     69511     69510     69512     69510     69513
     69514     69515     69516     69520     69516     69517     69516     69518
     69516     69519     69520     69521     69522     69526     69522     69523
     69522     69524     69522     69525     69526     69527     69528     69532
     69528     69529     69528     69530     69528     69531     69532     69533
     69534     69538     69534     69535     69534     69536     69534     69537
     69538     69539     69540     69544     69540     69541     69540     69542
     69540     69543     69544     69545     69546     69550     69546     69547
     69546     69548     69546     69549     69550     69551     69552     69556
     69552     69553     69552     69554     69552     69555     69556     69557
     69558     69562     69558     69559     69558     69560     69558     69561
     69562     69563     69564     69568     69564     69565     69564     69566
     69564     69567     69568     69569     69570     69574     69570     69571
     69570     69572     69570     69573     69574     69575     69576     69580
     69576     69577     69576     69578     69576     69579     69580     69581
     69582     69586     69582     69583     69582     69584     69582     69585
     69586     69587     69588     69592     69588     69589     69588     69590
     69588     69591     69592     69593     69594     69598     69594     69595
     69594     69596     69594     69597     69598     69599     69600     69604
     69600     69601     69600     69602     69600     69603     69604     69605
     69606     69610     69606     69607     69606     69608     69606     69609
     69610     69611     69612     69616     69612     69613     69612     69614
     69612     69615     69616     69617     69618     69622     69618     69619
     69618     69620     69618     69621     69622     69623     69624     69628
     69624     69625     69624     69626     69624     69627     69628     69629
     69630     69634     69630     69631     69630     69632     69630     69633
     69634     69635     69636     69640     69636     69637     69636     69638
     69636     69639     69640     69641     69642     69646     69642     69643
     69642     69644     69642     69645     69646     69647     69648     69652
     69648     69649     69648     69650     69648     69651     69652     69653
     69654     69658     69654     69655     69654     69656     69654     69657
     69658     69659     69660     69664     69660     69661     69660     69662
     69660     69663     69664     69665     69666     69670     69666     69667
     69666     69668     69666     69669     69670     69671     69672     69676
     69672     69673     69672     69674     69672     69675     69676     69677
     69678     69682     69678     69679     69678     69680     69678     69681
     69682     69683     69684     69688     69684     69685     69684     69686
     69684     69687     69688     69689     69690     69694     69690     69691
     69690     69692     69690     69693     69694     69695     69696     69700
     69696     69697     69696     69698     69696     69699     69700     69701
     69702     69706     69702     69703     69702     69704     69702     69705
     69706     69707     69708     69712     69708     69709     69708     69710
     69708     69711     69712     69713     69714     69718     69714     69715
     69714     69716     69714     69717     69718     69719     69720     69724
     69720     69721     69720     69722     69720     69723     69724     69725
     69726     69730     69726     69727     69726     69728     69726     69729
     69730     69731     69732     69736     69732     69733     69732     69734
     69732     69735     69736     69737     69738     69742     69738     69739
     69738     69740     69738     69741     69742     69743     69744     69748
     69744     69745     69744     69746     69744     69747     69748     69749
     69750     69754     69750     69751     69750     69752     69750     69753
     69754     69755     69756     69760     69756     69757     69756     69758
     69756     69759     69760     69761     69762     69766     69762     69763
     69762     69764     69762     69765     69766     69767     69768     69772
     69768     69769     69768     69770     69768     69771     69772     69773
     69774     69778     69774     69775     69774     69776     69774     69777
     69778     69779     69780     69784     69780     69781     69780     69782
     69780     69783     69784     69785     69786     69790     69786     69787
     69786     69788     69786     69789     69790     69791     69792     69796
     69792     69793     69792     69794     69792     69795     69796     69797
     69798     69802     69798     69799     69798     69800     69798     69801
     69802     69803     69804     69808     69804     69805     69804     69806
     69804     69807     69808     69809     69810     69814     69810     69811
     69810     69812     69810     69813     69814     69815     69816     69820
     69816     69817     69816     69818     69816     69819     69820     69821
     69822     69826     69822     69823     69822     69824     69822     69825
     69826     69827     69828     69832     69828     69829     69828     69830
     69828     69831     69832     69833     69834     69838     69834     69835
     69834     69836     69834     69837     69838     69839     69840     69844
     69840     69841     69840     69842     69840     69843     69844     69845
     69846     69850     69846     69847     69846     69848     69846     69849
     69850     69851     69852     69856     69852     69853     69852     69854
     69852     69855     69856     69857     69858     69862     69858     69859
     69858     69860     69858     69861     69862     69863     69864     69868
     69864     69865     69864     69866     69864     69867     69868     69869
     69870     69874     69870     69871     69870     69872     69870     69873
     69874     69875     69876     69880     69876     69877     69876     69878
     69876     69879     69880     69881     69882     69886     69882     69883
     69882     69884     69882     69885     69886     69887     69888     69892
     69888     69889     69888     69890     69888     69891     69892     69893
     69894     69898     69894     69895     69894     69896     69894     69897
     69898     69899     69900     69904     69900     69901     69900     69902
     69900     69903     69904     69905     69906     69910     69906     69907
     69906     69908     69906     69909     69910     69911     69912     69916
     69912     69913     69912     69914     69912     69915     69916     69917
     69918     69922     69918     69919     69918     69920     69918     69921
     69922     69923     69924     69928     69924     69925     69924     69926
     69924     69927     69928     69929     69930     69934     69930     69931
     69930     69932     69930     69933     69934     69935     69936     69940
     69936     69937     69936     69938     69936     69939     69940     69941
     69942     69946     69942     69943     69942     69944     69942     69945
     69946     69947     69948     69952     69948     69949     69948     69950
     69948     69951     69952     69953     69954     69958     69954     69955
     69954     69956     69954     69957     69958     69959     69960     69964
     69960     69961     69960     69962     69960     69963     69964     69965
     69966     69970     69966     69967     69966     69968     69966     69969
     69970     69971     69972     69976     69972     69973     69972     69974
     69972     69975     69976     69977     69978     69982     69978     69979
     69978     69980     69978     69981     69982     69983     69984     69988
     69984     69985     69984     69986     69984     69987     69988     69989
     69990     69994     69990     69991     69990     69992     69990     69993
     69994     69995     69996     70000     69996     69997     69996     69998
     69996     69999     70000     70001     70002     70006     70002     70003
     70002     70004     70002     70005     70006     70007     70008     70012
     70008     70009     70008     70010     70008     70011     70012     70013
     70014     70018     70014     70015     70014     70016     70014     70017
     70018     70019     70020     70024     70020     70021     70020     70022
     70020     70023     70024     70025     70026     70030     70026     70027
     70026     70028     70026     70029     70030     70031     70032     70036
     70032     70033     70032     70034     70032     70035     70036     70037
     70038     70042     70038     70039     70038     70040     70038     70041
     70042     70043     70044     70048     70044     70045     70044     70046
     70044     70047     70048     70049     70050     70054     70050     70051
     70050     70052     70050     70053     70054     70055     70056     70060
     70056     70057     70056     70058     70056     70059     70060     70061
     70062     70066     70062     70063     70062     70064     70062     70065
     70066     70067     70068     70072     70068     70069     70068     70070
     70068     70071     70072     70073     70074     70078     70074     70075
     70074     70076     70074     70077     70078     70079     70080     70084
     70080     70081     70080     70082     70080     70083     70084     70085
     70086     70090     70086     70087     70086     70088     70086     70089
     70090     70091     70092     70096     70092     70093     70092     70094
     70092     70095     70096     70097     70098     70102     70098     70099
     70098     70100     70098     70101     70102     70103     70104     70108
     70104     70105     70104     70106     70104     70107     70108     70109
     70110     70114     70110     70111     70110     70112     70110     70113
     70114     70115     70116     70120     70116     70117     70116     70118
     70116     70119     70120     70121     70122     70126     70122     70123
     70122     70124     70122     70125     70126     70127     70128     70132
     70128     70129     70128     70130     70128     70131     70132     70133
     70134     70138     70134     70135     70134     70136     70134     70137
     70138     70139     70140     70144     70140     70141     70140     70142
     70140     70143     70144     70145     70146     70150     70146     70147
     70146     70148     70146     70149     70150     70151     70152     70156
     70152     70153     70152     70154     70152     70155     70156     70157
     70158     70162     70158     70159     70158     70160     70158     70161
     70162     70163     70164     70168     70164     70165     70164     70166
     70164     70167     70168     70169     70170     70174     70170     70171
     70170     70172     70170     70173     70174     70175     70176     70180
     70176     70177     70176     70178     70176     70179     70180     70181
     70182     70186     70182     70183     70182     70184     70182     70185
     70186     70187     70188     70192     70188     70189     70188     70190
     70188     70191     70192     70193     70194     70198     70194     70195
     70194     70196     70194     70197     70198     70199     70200     70204
     70200     70201     70200     70202     70200     70203     70204     70205
     70206     70210     70206     70207     70206     70208     70206     70209
     70210     70211     70212     70216     70212     70213     70212     70214
     70212     70215     70216     70217     70218     70222     70218     70219
     70218     70220     70218     70221     70222     70223     70224     70228
     70224     70225     70224     70226     70224     70227     70228     70229
     70230     70234     70230     70231     70230     70232     70230     70233
     70234     70235     70236     70240     70236     70237     70236     70238
     70236     70239     70240     70241     70242     70246     70242     70243
     70242     70244     70242     70245     70246     70247     70248     70252
     70248     70249     70248     70250     70248     70251     70252     70253
     70254     70258     70254     70255     70254     70256     70254     70257
     70258     70259     70260     70264     70260     70261     70260     70262
     70260     70263     70264     70265     70266     70270     70266     70267
     70266     70268     70266     70269     70270     70271     70272     70276
     70272     70273     70272     70274     70272     70275     70276     70277
     70278     70282     70278     70279     70278     70280     70278     70281
     70282     70283     70284     70288     70284     70285     70284     70286
     70284     70287     70288     70289     70290     70294     70290     70291
     70290     70292     70290     70293     70294     70295     70296     70300
     70296     70297     70296     70298     70296     70299     70300     70301
     70302     70306     70302     70303     70302     70304     70302     70305
     70306     70307     70308     70312     70308     70309     70308     70310
     70308     70311     70312     70313     70314     70318     70314     70315
     70314     70316     70314     70317     70318     70319     70320     70324
     70320     70321     70320     70322     70320     70323     70324     70325
     70326     70330     70326     70327     70326     70328     70326     70329
     70330     70331     70332     70336     70332     70333     70332     70334
     70332     70335     70336     70337     70338     70342     70338     70339
     70338     70340     70338     70341     70342     70343     70344     70348
     70344     70345     70344     70346     70344     70347     70348     70349
     70350     70354     70350     70351     70350     70352     70350     70353
     70354     70355     70356     70360     70356     70357     70356     70358
     70356     70359     70360     70361     70362     70366     70362     70363
     70362     70364     70362     70365     70366     70367     70368     70372
     70368     70369     70368     70370     70368     70371     70372     70373
     70374     70378     70374     70375     70374     70376     70374     70377
     70378     70379     70380     70384     70380     70381     70380     70382
     70380     70383     70384     70385     70386     70390     70386     70387
     70386     70388     70386     70389     70390     70391     70392     70396
     70392     70393     70392     70394     70392     70395     70396     70397
     70398     70402     70398     70399     70398     70400     70398     70401
     70402     70403     70404     70408     70404     70405     70404     70406
     70404     70407     70408     70409     70410     70414     70410     70411
     70410     70412     70410     70413     70414     70415     70416     70420
     70416     70417     70416     70418     70416     70419     70420     70421
     70422     70426     70422     70423     70422     70424     70422     70425
     70426     70427     70428     70432     70428     70429     70428     70430
     70428     70431     70432     70433     70434     70438     70434     70435
     70434     70436     70434     70437     70438     70439     70440     70444
     70440     70441     70440     70442     70440     70443     70444     70445
     70446     70450     70446     70447     70446     70448     70446     70449
     70450     70451     70452     70456     70452     70453     70452     70454
     70452     70455     70456     70457     70458     70462     70458     70459
     70458     70460     70458     70461     70462     70463     70464     70468
     70464     70465     70464     70466     70464     70467     70468     70469
     70470     70474     70470     70471     70470     70472     70470     70473
     70474     70475     70476     70480     70476     70477     70476     70478
     70476     70479     70480     70481     70482     70486     70482     70483
     70482     70484     70482     70485     70486     70487     70488     70492
     70488     70489     70488     70490     70488     70491     70492     70493
     70494     70498     70494     70495     70494     70496     70494     70497
     70498     70499     70500     70504     70500     70501     70500     70502
     70500     70503     70504     70505     70506     70510     70506     70507
     70506     70508     70506     70509     70510     70511     70512     70516
     70512     70513     70512     70514     70512     70515     70516     70517
     70518     70522     70518     70519     70518     70520     70518     70521
     70522     70523     70524     70528     70524     70525     70524     70526
     70524     70527     70528     70529     70530     70534     70530     70531
     70530     70532     70530     70533     70534     70535     70536     70540
     70536     70537     70536     70538     70536     70539     70540     70541
     70542     70546     70542     70543     70542     70544     70542     70545
     70546     70547     70548     70552     70548     70549     70548     70550
     70548     70551     70552     70553     70554     70558     70554     70555
     70554     70556     70554     70557     70558     70559     70560     70564
     70560     70561     70560     70562     70560     70563     70564     70565
     70566     70570     70566     70567     70566     70568     70566     70569
     70570     70571     70572     70576     70572     70573     70572     70574
     70572     70575     70576     70577     70578     70582     70578     70579
     70578     70580     70578     70581     70582     70583     70584     70588
     70584     70585     70584     70586     70584     70587     70588     70589
     70590     70594     70590     70591     70590     70592     70590     70593
     70594     70595     70596     70600     70596     70597     70596     70598
     70596     70599     70600     70601     70602     70606     70602     70603
     70602     70604     70602     70605     70606     70607     70608     70612
     70608     70609     70608     70610     70608     70611     70612     70613
     70614     70618     70614     70615     70614     70616     70614     70617
     70618     70619     70620     70624     70620     70621     70620     70622
     70620     70623     70624     70625     70626     70630     70626     70627
     70626     70628     70626     70629     70630     70631     70632     70636
     70632     70633     70632     70634     70632     70635     70636     70637
     70638     70642     70638     70639     70638     70640     70638     70641
     70642     70643     70644     70648     70644     70645     70644     70646
     70644     70647     70648     70649     70650     70654     70650     70651
     70650     70652     70650     70653     70654     70655     70656     70660
     70656     70657     70656     70658     70656     70659     70660     70661
     70662     70666     70662     70663     70662     70664     70662     70665
     70666     70667     70668     70672     70668     70669     70668     70670
     70668     70671     70672     70673     70674     70678     70674     70675
     70674     70676     70674     70677     70678     70679     70680     70684
     70680     70681     70680     70682     70680     70683     70684     70685
     70686     70690     70686     70687     70686     70688     70686     70689
     70690     70691     70692     70696     70692     70693     70692     70694
     70692     70695     70696     70697     70698     70702     70698     70699
     70698     70700     70698     70701     70702     70703     70704     70708
     70704     70705     70704     70706     70704     70707     70708     70709
     70710     70714     70710     70711     70710     70712     70710     70713
     70714     70715     70716     70720     70716     70717     70716     70718
     70716     70719     70720     70721     70722     70726     70722     70723
     70722     70724     70722     70725     70726     70727     70728     70732
     70728     70729     70728     70730     70728     70731     70732     70733
     70734     70738     70734     70735     70734     70736     70734     70737
     70738     70739     70740     70744     70740     70741     70740     70742
     70740     70743     70744     70745     70746     70750     70746     70747
     70746     70748     70746     70749     70750     70751     70752     70756
     70752     70753     70752     70754     70752     70755     70756     70757
     70758     70762     70758     70759     70758     70760     70758     70761
     70762     70763     70764     70768     70764     70765     70764     70766
     70764     70767     70768     70769     70770     70774     70770     70771
     70770     70772     70770     70773     70774     70775     70776     70780
     70776     70777     70776     70778     70776     70779     70780     70781
     70782     70786     70782     70783     70782     70784     70782     70785
     70786     70787     70788     70792     70788     70789     70788     70790
     70788     70791     70792     70793     70794     70798     70794     70795
     70794     70796     70794     70797     70798     70799     70800     70804
     70800     70801     70800     70802     70800     70803     70804     70805
     70806     70810     70806     70807     70806     70808     70806     70809
     70810     70811     70812     70816     70812     70813     70812     70814
     70812     70815     70816     70817     70818     70822     70818     70819
     70818     70820     70818     70821     70822     70823     70824     70828
     70824     70825     70824     70826     70824     70827     70828     70829
     70830     70834     70830     70831     70830     70832     70830     70833
     70834     70835     70836     70840     70836     70837     70836     70838
     70836     70839     70840     70841     70842     70846     70842     70843
     70842     70844     70842     70845     70846     70847     70848     70852
     70848     70849     70848     70850     70848     70851     70852     70853
     70854     70858     70854     70855     70854     70856     70854     70857
     70858     70859     70860     70864     70860     70861     70860     70862
     70860     70863     70864     70865     70866     70870     70866     70867
     70866     70868     70866     70869     70870     70871     70872     70876
     70872     70873     70872     70874     70872     70875     70876     70877
     70878     70882     70878     70879     70878     70880     70878     70881
     70882     70883     70884     70888     70884     70885     70884     70886
     70884     70887     70888     70889     70890     70894     70890     70891
     70890     70892     70890     70893     70894     70895     70896     70900
     70896     70897     70896     70898     70896     70899     70900     70901
     70902     70906     70902     70903     70902     70904     70902     70905
     70906     70907     70908     70912     70908     70909     70908     70910
     70908     70911     70912     70913     70914     70918     70914     70915
     70914     70916     70914     70917     70918     70919     70920     70924
     70920     70921     70920     70922     70920     70923     70924     70925
     70926     70930     70926     70927     70926     70928     70926     70929
     70930     70931     70932     70936     70932     70933     70932     70934
     70932     70935     70936     70937     70938     70942     70938     70939
     70938     70940     70938     70941     70942     70943     70944     70948
     70944     70945     70944     70946     70944     70947     70948     70949
     70950     70954     70950     70951     70950     70952     70950     70953
     70954     70955     70956     70960     70956     70957     70956     70958
     70956     70959     70960     70961     70962     70966     70962     70963
     70962     70964     70962     70965     70966     70967     70968     70972
     70968     70969     70968     70970     70968     70971     70972     70973
     70974     70978     70974     70975     70974     70976     70974     70977
     70978     70979     70980     70984     70980     70981     70980     70982
     70980     70983     70984     70985     70986     70990     70986     70987
     70986     70988     70986     70989     70990     70991     70992     70996
     70992     70993     70992     70994     70992     70995     70996     70997
     70998     71002     70998     70999     70998     71000     70998     71001
     71002     71003     71004     71008     71004     71005     71004     71006
     71004     71007     71008     71009     71010     71014     71010     71011
     71010     71012     71010     71013     71014     71015     71016     71020
     71016     71017     71016     71018     71016     71019     71020     71021
     71022     71026     71022     71023     71022     71024     71022     71025
     71026     71027     71028     71032     71028     71029     71028     71030
     71028     71031     71032     71033     71034     71038     71034     71035
     71034     71036     71034     71037     71038     71039     71040     71044
     71040     71041     71040     71042     71040     71043     71044     71045
     71046     71050     71046     71047     71046     71048     71046     71049
     71050     71051     71052     71056     71052     71053     71052     71054
     71052     71055     71056     71057     71058     71062     71058     71059
     71058     71060     71058     71061     71062     71063     71064     71068
     71064     71065     71064     71066     71064     71067     71068     71069
     71070     71074     71070     71071     71070     71072     71070     71073
     71074     71075     71076     71080     71076     71077     71076     71078
     71076     71079     71080     71081     71082     71086     71082     71083
     71082     71084     71082     71085     71086     71087     71088     71092
     71088     71089     71088     71090     71088     71091     71092     71093
     71094     71098     71094     71095     71094     71096     71094     71097
     71098     71099     71100     71104     71100     71101     71100     71102
     71100     71103     71104     71105     71106     71110     71106     71107
     71106     71108     71106     71109     71110     71111     71112     71116
     71112     71113     71112     71114     71112     71115     71116     71117
     71118     71122     71118     71119     71118     71120     71118     71121
     71122     71123     71124     71128     71124     71125     71124     71126
     71124     71127     71128     71129     71130     71134     71130     71131
     71130     71132     71130     71133     71134     71135     71136     71140
     71136     71137     71136     71138     71136     71139     71140     71141
     71142     71146     71142     71143     71142     71144     71142     71145
     71146     71147     71148     71152     71148     71149     71148     71150
     71148     71151     71152     71153     71154     71158     71154     71155
     71154     71156     71154     71157     71158     71159     71160     71164
     71160     71161     71160     71162     71160     71163     71164     71165
     71166     71170     71166     71167     71166     71168     71166     71169
     71170     71171     71172     71176     71172     71173     71172     71174
     71172     71175     71176     71177     71178     71182     71178     71179
     71178     71180     71178     71181     71182     71183     71184     71188
     71184     71185     71184     71186     71184     71187     71188     71189
     71190     71194     71190     71191     71190     71192     71190     71193
     71194     71195     71196     71200     71196     71197     71196     71198
     71196     71199     71200     71201     71202     71206     71202     71203
     71202     71204     71202     71205     71206     71207     71208     71212
     71208     71209     71208     71210     71208     71211     71212     71213
     71214     71218     71214     71215     71214     71216     71214     71217
     71218     71219     71220     71224     71220     71221     71220     71222
     71220     71223     71224     71225     71226     71230     71226     71227
     71226     71228     71226     71229     71230     71231     71232     71236
     71232     71233     71232     71234     71232     71235     71236     71237
     71238     71242     71238     71239     71238     71240     71238     71241
     71242     71243     71244     71248     71244     71245     71244     71246
     71244     71247     71248     71249     71250     71254     71250     71251
     71250     71252     71250     71253     71254     71255     71256     71260
     71256     71257     71256     71258     71256     71259     71260     71261
     71262     71266     71262     71263     71262     71264     71262     71265
     71266     71267     71268     71272     71268     71269     71268     71270
     71268     71271     71272     71273     71274     71278     71274     71275
     71274     71276     71274     71277     71278     71279     71280     71284
     71280     71281     71280     71282     71280     71283     71284     71285
     71286     71290     71286     71287     71286     71288     71286     71289
     71290     71291     71292     71296     71292     71293     71292     71294
     71292     71295     71296     71297     71298     71302     71298     71299
     71298     71300     71298     71301     71302     71303     71304     71308
     71304     71305     71304     71306     71304     71307     71308     71309
     71310     71314     71310     71311     71310     71312     71310     71313
     71314     71315     71316     71320     71316     71317     71316     71318
     71316     71319     71320     71321     71322     71326     71322     71323
     71322     71324     71322     71325     71326     71327     71328     71332
     71328     71329     71328     71330     71328     71331     71332     71333
     71334     71338     71334     71335     71334     71336     71334     71337
     71338     71339     71340     71344     71340     71341     71340     71342
     71340     71343     71344     71345     71346     71350     71346     71347
     71346     71348     71346     71349     71350     71351     71352     71356
     71352     71353     71352     71354     71352     71355     71356     71357
     71358     71362     71358     71359     71358     71360     71358     71361
     71362     71363     71364     71368     71364     71365     71364     71366
     71364     71367     71368     71369     71370     71374     71370     71371
     71370     71372     71370     71373     71374     71375     71376     71380
     71376     71377     71376     71378     71376     71379     71380     71381
     71382     71386     71382     71383     71382     71384     71382     71385
     71386     71387     71388     71392     71388     71389     71388     71390
     71388     71391     71392     71393     71394     71398     71394     71395
     71394     71396     71394     71397     71398     71399     71400     71404
     71400     71401     71400     71402     71400     71403     71404     71405
     71406     71410     71406     71407     71406     71408     71406     71409
     71410     71411     71412     71416     71412     71413     71412     71414
     71412     71415     71416     71417     71418     71422     71418     71419
     71418     71420     71418     71421     71422     71423     71424     71428
     71424     71425     71424     71426     71424     71427     71428     71429
     71430     71434     71430     71431     71430     71432     71430     71433
     71434     71435     71436     71440     71436     71437     71436     71438
     71436     71439     71440     71441     71442     71446     71442     71443
     71442     71444     71442     71445     71446     71447     71448     71452
     71448     71449     71448     71450     71448     71451     71452     71453
     71454     71458     71454     71455     71454     71456     71454     71457
     71458     71459     71460     71464     71460     71461     71460     71462
     71460     71463     71464     71465     71466     71470     71466     71467
     71466     71468     71466     71469     71470     71471     71472     71476
     71472     71473     71472     71474     71472     71475     71476     71477
     71478     71482     71478     71479     71478     71480     71478     71481
     71482     71483     71484     71488     71484     71485     71484     71486
     71484     71487     71488     71489     71490     71494     71490     71491
     71490     71492     71490     71493     71494     71495     71496     71500
     71496     71497     71496     71498     71496     71499     71500     71501
     71502     71506     71502     71503     71502     71504     71502     71505
     71506     71507     71508     71512     71508     71509     71508     71510
     71508     71511     71512     71513     71514     71518     71514     71515
     71514     71516     71514     71517     71518     71519     71520     71524
     71520     71521     71520     71522     71520     71523     71524     71525
     71526     71530     71526     71527     71526     71528     71526     71529
     71530     71531     71532     71536     71532     71533     71532     71534
     71532     71535     71536     71537     71538     71542     71538     71539
     71538     71540     71538     71541     71542     71543     71544     71548
     71544     71545     71544     71546     71544     71547     71548     71549
     71550     71554     71550     71551     71550     71552     71550     71553
     71554     71555     71556     71560     71556     71557     71556     71558
     71556     71559     71560     71561     71562     71566     71562     71563
     71562     71564     71562     71565     71566     71567     71568     71572
     71568     71569     71568     71570     71568     71571     71572     71573
     71574     71578     71574     71575     71574     71576     71574     71577
     71578     71579     71580     71584     71580     71581     71580     71582
     71580     71583     71584     71585     71586     71590     71586     71587
     71586     71588     71586     71589     71590     71591     71592     71596
     71592     71593     71592     71594     71592     71595     71596     71597
     71598     71602     71598     71599     71598     71600     71598     71601
     71602     71603     71604     71608     71604     71605     71604     71606
     71604     71607     71608     71609     71610     71614     71610     71611
     71610     71612     71610     71613     71614     71615     71616     71620
     71616     71617     71616     71618     71616     71619     71620     71621
     71622     71626     71622     71623     71622     71624     71622     71625
     71626     71627     71628     71632     71628     71629     71628     71630
     71628     71631     71632     71633     71634     71638     71634     71635
     71634     71636     71634     71637     71638     71639     71640     71644
     71640     71641     71640     71642     71640     71643     71644     71645
     71646     71650     71646     71647     71646     71648     71646     71649
     71650     71651     71652     71656     71652     71653     71652     71654
     71652     71655     71656     71657     71658     71662     71658     71659
     71658     71660     71658     71661     71662     71663     71664     71668
     71664     71665     71664     71666     71664     71667     71668     71669
     71670     71674     71670     71671     71670     71672     71670     71673
     71674     71675     71676     71680     71676     71677     71676     71678
     71676     71679     71680     71681     71682     71686     71682     71683
     71682     71684     71682     71685     71686     71687     71688     71692
     71688     71689     71688     71690     71688     71691     71692     71693
     71694     71698     71694     71695     71694     71696     71694     71697
     71698     71699     71700     71704     71700     71701     71700     71702
     71700     71703     71704     71705     71706     71710     71706     71707
     71706     71708     71706     71709     71710     71711     71712     71716
     71712     71713     71712     71714     71712     71715     71716     71717
     71718     71722     71718     71719     71718     71720     71718     71721
     71722     71723     71724     71728     71724     71725     71724     71726
     71724     71727     71728     71729     71730     71734     71730     71731
     71730     71732     71730     71733     71734     71735     71736     71740
     71736     71737     71736     71738     71736     71739     71740     71741
     71742     71746     71742     71743     71742     71744     71742     71745
     71746     71747     71748     71752     71748     71749     71748     71750
     71748     71751     71752     71753     71754     71758     71754     71755
     71754     71756     71754     71757     71758     71759     71760     71764
     71760     71761     71760     71762     71760     71763     71764     71765
     71766     71770     71766     71767     71766     71768     71766     71769
     71770     71771     71772     71776     71772     71773     71772     71774
     71772     71775     71776     71777     71778     71782     71778     71779
     71778     71780     71778     71781     71782     71783     71784     71788
     71784     71785     71784     71786     71784     71787     71788     71789
     71790     71794     71790     71791     71790     71792     71790     71793
     71794     71795     71796     71800     71796     71797     71796     71798
     71796     71799     71800     71801     71802     71806     71802     71803
     71802     71804     71802     71805     71806     71807     71808     71812
     71808     71809     71808     71810     71808     71811     71812     71813
     71814     71818     71814     71815     71814     71816     71814     71817
     71818     71819     71820     71824     71820     71821     71820     71822
     71820     71823     71824     71825     71826     71830     71826     71827
     71826     71828     71826     71829     71830     71831     71832     71836
     71832     71833     71832     71834     71832     71835     71836     71837
     71838     71842     71838     71839     71838     71840     71838     71841
     71842     71843     71844     71848     71844     71845     71844     71846
     71844     71847     71848     71849     71850     71854     71850     71851
     71850     71852     71850     71853     71854     71855     71856     71860
     71856     71857     71856     71858     71856     71859     71860     71861
     71862     71866     71862     71863     71862     71864     71862     71865
     71866     71867     71868     71872     71868     71869     71868     71870
     71868     71871     71872     71873     71874     71878     71874     71875
     71874     71876     71874     71877     71878     71879     71880     71884
     71880     71881     71880     71882     71880     71883     71884     71885
     71886     71890     71886     71887     71886     71888     71886     71889
     71890     71891     71892     71896     71892     71893     71892     71894
     71892     71895     71896     71897     71898     71902     71898     71899
     71898     71900     71898     71901     71902     71903     71904     71908
     71904     71905     71904     71906     71904     71907     71908     71909
     71910     71914     71910     71911     71910     71912     71910     71913
     71914     71915     71916     71920     71916     71917     71916     71918
     71916     71919     71920     71921     71922     71926     71922     71923
     71922     71924     71922     71925     71926     71927     71928     71932
     71928     71929     71928     71930     71928     71931     71932     71933
     71934     71938     71934     71935     71934     71936     71934     71937
     71938     71939     71940     71944     71940     71941     71940     71942
     71940     71943     71944     71945     71946     71950     71946     71947
     71946     71948     71946     71949     71950     71951     71952     71956
     71952     71953     71952     71954     71952     71955     71956     71957
     71958     71962     71958     71959     71958     71960     71958     71961
     71962     71963     71964     71968     71964     71965     71964     71966
     71964     71967     71968     71969     71970     71974     71970     71971
     71970     71972     71970     71973     71974     71975     71976     71980
     71976     71977     71976     71978     71976     71979     71980     71981
     71982     71986     71982     71983     71982     71984     71982     71985
     71986     71987     71988     71992     71988     71989     71988     71990
     71988     71991     71992     71993     71994     71998     71994     71995
     71994     71996     71994     71997     71998     71999     72000     72004
     72000     72001     72000     72002     72000     72003     72004     72005
     72006     72010     72006     72007     72006     72008     72006     72009
     72010     72011     72012     72016     72012     72013     72012     72014
     72012     72015     72016     72017     72018     72022     72018     72019
     72018     72020     72018     72021     72022     72023     72024     72028
     72024     72025     72024     72026     72024     72027     72028     72029
     72030     72034     72030     72031     72030     72032     72030     72033
     72034     72035     72036     72040     72036     72037     72036     72038
     72036     72039     72040     72041     72042     72046     72042     72043
     72042     72044     72042     72045     72046     72047     72048     72052
     72048     72049     72048     72050     72048     72051     72052     72053
     72054     72058     72054     72055     72054     72056     72054     72057
     72058     72059     72060     72064     72060     72061     72060     72062
     72060     72063     72064     72065     72066     72070     72066     72067
     72066     72068     72066     72069     72070     72071     72072     72076
     72072     72073     72072     72074     72072     72075     72076     72077
     72078     72082     72078     72079     72078     72080     72078     72081
     72082     72083     72084     72088     72084     72085     72084     72086
     72084     72087     72088     72089     72090     72094     72090     72091
     72090     72092     72090     72093     72094     72095     72096     72100
     72096     72097     72096     72098     72096     72099     72100     72101
     72102     72106     72102     72103     72102     72104     72102     72105
     72106     72107     72108     72112     72108     72109     72108     72110
     72108     72111     72112     72113     72114     72118     72114     72115
     72114     72116     72114     72117     72118     72119     72120     72124
     72120     72121     72120     72122     72120     72123     72124     72125
     72126     72130     72126     72127     72126     72128     72126     72129
     72130     72131     72132     72136     72132     72133     72132     72134
     72132     72135     72136     72137     72138     72142     72138     72139
     72138     72140     72138     72141     72142     72143     72144     72148
     72144     72145     72144     72146     72144     72147     72148     72149
     72150     72154     72150     72151     72150     72152     72150     72153
     72154     72155     72156     72160     72156     72157     72156     72158
     72156     72159     72160     72161     72162     72166     72162     72163
     72162     72164     72162     72165     72166     72167     72168     72172
     72168     72169     72168     72170     72168     72171     72172     72173
     72174     72178     72174     72175     72174     72176     72174     72177
     72178     72179     72180     72184     72180     72181     72180     72182
     72180     72183     72184     72185     72186     72190     72186     72187
     72186     72188     72186     72189     72190     72191     72192     72196
     72192     72193     72192     72194     72192     72195     72196     72197
     72198     72202     72198     72199     72198     72200     72198     72201
     72202     72203     72204     72208     72204     72205     72204     72206
     72204     72207     72208     72209     72210     72214     72210     72211
     72210     72212     72210     72213     72214     72215     72216     72220
     72216     72217     72216     72218     72216     72219     72220     72221
     72222     72226     72222     72223     72222     72224     72222     72225
     72226     72227     72228     72232     72228     72229     72228     72230
     72228     72231     72232     72233     72234     72238     72234     72235
     72234     72236     72234     72237     72238     72239     72240     72244
     72240     72241     72240     72242     72240     72243     72244     72245
     72246     72250     72246     72247     72246     72248     72246     72249
     72250     72251     72252     72256     72252     72253     72252     72254
     72252     72255     72256     72257     72258     72262     72258     72259
     72258     72260     72258     72261     72262     72263     72264     72268
     72264     72265     72264     72266     72264     72267     72268     72269
     72270     72274     72270     72271     72270     72272     72270     72273
     72274     72275     72276     72280     72276     72277     72276     72278
     72276     72279     72280     72281     72282     72286     72282     72283
     72282     72284     72282     72285     72286     72287     72288     72292
     72288     72289     72288     72290     72288     72291     72292     72293
     72294     72298     72294     72295     72294     72296     72294     72297
     72298     72299     72300     72304     72300     72301     72300     72302
     72300     72303     72304     72305     72306     72310     72306     72307
     72306     72308     72306     72309     72310     72311     72312     72316
     72312     72313     72312     72314     72312     72315     72316     72317
     72318     72322     72318     72319     72318     72320     72318     72321
     72322     72323     72324     72328     72324     72325     72324     72326
     72324     72327     72328     72329     72330     72334     72330     72331
     72330     72332     72330     72333     72334     72335     72336     72340
     72336     72337     72336     72338     72336     72339     72340     72341
     72342     72346     72342     72343     72342     72344     72342     72345
     72346     72347     72348     72352     72348     72349     72348     72350
     72348     72351     72352     72353     72354     72358     72354     72355
     72354     72356     72354     72357     72358     72359     72360     72364
     72360     72361     72360     72362     72360     72363     72364     72365
     72366     72370     72366     72367     72366     72368     72366     72369
     72370     72371     72372     72376     72372     72373     72372     72374
     72372     72375     72376     72377     72378     72382     72378     72379
     72378     72380     72378     72381     72382     72383     72384     72388
     72384     72385     72384     72386     72384     72387     72388     72389
     72390     72394     72390     72391     72390     72392     72390     72393
     72394     72395     72396     72400     72396     72397     72396     72398
     72396     72399     72400     72401     72402     72406     72402     72403
     72402     72404     72402     72405     72406     72407     72408     72412
     72408     72409     72408     72410     72408     72411     72412     72413
     72414     72418     72414     72415     72414     72416     72414     72417
     72418     72419     72420     72424     72420     72421     72420     72422
     72420     72423     72424     72425     72426     72430     72426     72427
     72426     72428     72426     72429     72430     72431     72432     72436
     72432     72433     72432     72434     72432     72435     72436     72437
     72438     72442     72438     72439     72438     72440     72438     72441
     72442     72443     72444     72448     72444     72445     72444     72446
     72444     72447     72448     72449     72450     72454     72450     72451
     72450     72452     72450     72453     72454     72455     72456     72460
     72456     72457     72456     72458     72456     72459     72460     72461
     72462     72466     72462     72463     72462     72464     72462     72465
     72466     72467     72468     72472     72468     72469     72468     72470
     72468     72471     72472     72473     72474     72478     72474     72475
     72474     72476     72474     72477     72478     72479     72480     72484
     72480     72481     72480     72482     72480     72483     72484     72485
     72486     72490     72486     72487     72486     72488     72486     72489
     72490     72491     72492     72496     72492     72493     72492     72494
     72492     72495     72496     72497     72498     72502     72498     72499
     72498     72500     72498     72501     72502     72503     72504     72508
     72504     72505     72504     72506     72504     72507     72508     72509
     72510     72514     72510     72511     72510     72512     72510     72513
     72514     72515     72516     72520     72516     72517     72516     72518
     72516     72519     72520     72521     72522     72526     72522     72523
     72522     72524     72522     72525     72526     72527     72528     72532
     72528     72529     72528     72530     72528     72531     72532     72533
     72534     72538     72534     72535     72534     72536     72534     72537
     72538     72539     72540     72544     72540     72541     72540     72542
     72540     72543     72544     72545     72546     72550     72546     72547
     72546     72548     72546     72549     72550     72551     72552     72556
     72552     72553     72552     72554     72552     72555     72556     72557
     72558     72562     72558     72559     72558     72560     72558     72561
     72562     72563     72564     72568     72564     72565     72564     72566
     72564     72567     72568     72569     72570     72574     72570     72571
     72570     72572     72570     72573     72574     72575     72576     72580
     72576     72577     72576     72578     72576     72579     72580     72581
     72582     72586     72582     72583     72582     72584     72582     72585
     72586     72587     72588     72592     72588     72589     72588     72590
     72588     72591     72592     72593     72594     72598     72594     72595
     72594     72596     72594     72597     72598     72599     72600     72604
     72600     72601     72600     72602     72600     72603     72604     72605
     72606     72610     72606     72607     72606     72608     72606     72609
     72610     72611     72612     72616     72612     72613     72612     72614
     72612     72615     72616     72617     72618     72622     72618     72619
     72618     72620     72618     72621     72622     72623     72624     72628
     72624     72625     72624     72626     72624     72627     72628     72629
     72630     72634     72630     72631     72630     72632     72630     72633
     72634     72635     72636     72640     72636     72637     72636     72638
     72636     72639     72640     72641     72642     72646     72642     72643
     72642     72644     72642     72645     72646     72647     72648     72652
     72648     72649     72648     72650     72648     72651     72652     72653
     72654     72658     72654     72655     72654     72656     72654     72657
     72658     72659     72660     72664     72660     72661     72660     72662
     72660     72663     72664     72665     72666     72670     72666     72667
     72666     72668     72666     72669     72670     72671     72672     72676
     72672     72673     72672     72674     72672     72675     72676     72677
     72678     72682     72678     72679     72678     72680     72678     72681
     72682     72683     72684     72688     72684     72685     72684     72686
     72684     72687     72688     72689     72690     72694     72690     72691
     72690     72692     72690     72693     72694     72695     72696     72700
     72696     72697     72696     72698     72696     72699     72700     72701
     72702     72706     72702     72703     72702     72704     72702     72705
     72706     72707     72708     72712     72708     72709     72708     72710
     72708     72711     72712     72713     72714     72718     72714     72715
     72714     72716     72714     72717     72718     72719     72720     72724
     72720     72721     72720     72722     72720     72723     72724     72725
     72726     72730     72726     72727     72726     72728     72726     72729
     72730     72731     72732     72736     72732     72733     72732     72734
     72732     72735     72736     72737     72738     72742     72738     72739
     72738     72740     72738     72741     72742     72743     72744     72748
     72744     72745     72744     72746     72744     72747     72748     72749
     72750     72754     72750     72751     72750     72752     72750     72753
     72754     72755     72756     72760     72756     72757     72756     72758
     72756     72759     72760     72761     72762     72766     72762     72763
     72762     72764     72762     72765     72766     72767     72768     72772
     72768     72769     72768     72770     72768     72771     72772     72773
     72774     72778     72774     72775     72774     72776     72774     72777
     72778     72779     72780     72784     72780     72781     72780     72782
     72780     72783     72784     72785     72786     72790     72786     72787
     72786     72788     72786     72789     72790     72791     72792     72796
     72792     72793     72792     72794     72792     72795     72796     72797
     72798     72802     72798     72799     72798     72800     72798     72801
     72802     72803     72804     72808     72804     72805     72804     72806
     72804     72807     72808     72809     72810     72814     72810     72811
     72810     72812     72810     72813     72814     72815     72816     72820
     72816     72817     72816     72818     72816     72819     72820     72821
     72822     72826     72822     72823     72822     72824     72822     72825
     72826     72827     72828     72832     72828     72829     72828     72830
     72828     72831     72832     72833     72834     72838     72834     72835
     72834     72836     72834     72837     72838     72839     72840     72844
     72840     72841     72840     72842     72840     72843     72844     72845
     72846     72850     72846     72847     72846     72848     72846     72849
     72850     72851     72852     72856     72852     72853     72852     72854
     72852     72855     72856     72857     72858     72862     72858     72859
     72858     72860     72858     72861     72862     72863     72864     72868
     72864     72865     72864     72866     72864     72867     72868     72869
     72870     72874     72870     72871     72870     72872     72870     72873
     72874     72875     72876     72880     72876     72877     72876     72878
     72876     72879     72880     72881     72882     72886     72882     72883
     72882     72884     72882     72885     72886     72887     72888     72892
     72888     72889     72888     72890     72888     72891     72892     72893
     72894     72898     72894     72895     72894     72896     72894     72897
     72898     72899     72900     72904     72900     72901     72900     72902
     72900     72903     72904     72905     72906     72910     72906     72907
     72906     72908     72906     72909     72910     72911     72912     72916
     72912     72913     72912     72914     72912     72915     72916     72917
     72918     72922     72918     72919     72918     72920     72918     72921
     72922     72923     72924     72928     72924     72925     72924     72926
     72924     72927     72928     72929     72930     72934     72930     72931
     72930     72932     72930     72933     72934     72935     72936     72940
     72936     72937     72936     72938     72936     72939     72940     72941
     72942     72946     72942     72943     72942     72944     72942     72945
     72946     72947     72948     72952     72948     72949     72948     72950
     72948     72951     72952     72953     72954     72958     72954     72955
     72954     72956     72954     72957     72958     72959     72960     72964
     72960     72961     72960     72962     72960     72963     72964     72965
     72966     72970     72966     72967     72966     72968     72966     72969
     72970     72971     72972     72976     72972     72973     72972     72974
     72972     72975     72976     72977     72978     72982     72978     72979
     72978     72980     72978     72981     72982     72983     72984     72988
     72984     72985     72984     72986     72984     72987     72988     72989
     72990     72994     72990     72991     72990     72992     72990     72993
     72994     72995     72996     73000     72996     72997     72996     72998
     72996     72999     73000     73001     73002     73006     73002     73003
     73002     73004     73002     73005     73006     73007     73008     73012
     73008     73009     73008     73010     73008     73011     73012     73013
     73014     73018     73014     73015     73014     73016     73014     73017
     73018     73019     73020     73024     73020     73021     73020     73022
     73020     73023     73024     73025     73026     73030     73026     73027
     73026     73028     73026     73029     73030     73031     73032     73036
     73032     73033     73032     73034     73032     73035     73036     73037
     73038     73042     73038     73039     73038     73040     73038     73041
     73042     73043     73044     73048     73044     73045     73044     73046
     73044     73047     73048     73049     73050     73054     73050     73051
     73050     73052     73050     73053     73054     73055     73056     73060
     73056     73057     73056     73058     73056     73059     73060     73061
     73062     73066     73062     73063     73062     73064     73062     73065
     73066     73067     73068     73072     73068     73069     73068     73070
     73068     73071     73072     73073     73074     73078     73074     73075
     73074     73076     73074     73077     73078     73079     73080     73084
     73080     73081     73080     73082     73080     73083     73084     73085
     73086     73090     73086     73087     73086     73088     73086     73089
     73090     73091     73092     73096     73092     73093     73092     73094
     73092     73095     73096     73097     73098     73102     73098     73099
     73098     73100     73098     73101     73102     73103     73104     73108
     73104     73105     73104     73106     73104     73107     73108     73109
     73110     73114     73110     73111     73110     73112     73110     73113
     73114     73115     73116     73120     73116     73117     73116     73118
     73116     73119     73120     73121     73122     73126     73122     73123
     73122     73124     73122     73125     73126     73127     73128     73132
     73128     73129     73128     73130     73128     73131     73132     73133
     73134     73138     73134     73135     73134     73136     73134     73137
     73138     73139     73140     73144     73140     73141     73140     73142
     73140     73143     73144     73145     73146     73150     73146     73147
     73146     73148     73146     73149     73150     73151     73152     73156
     73152     73153     73152     73154     73152     73155     73156     73157
     73158     73162     73158     73159     73158     73160     73158     73161
     73162     73163     73164     73168     73164     73165     73164     73166
     73164     73167     73168     73169     73170     73174     73170     73171
     73170     73172     73170     73173     73174     73175     73176     73180
     73176     73177     73176     73178     73176     73179     73180     73181
     73182     73186     73182     73183     73182     73184     73182     73185
     73186     73187     73188     73192     73188     73189     73188     73190
     73188     73191     73192     73193     73194     73198     73194     73195
     73194     73196     73194     73197     73198     73199     73200     73204
     73200     73201     73200     73202     73200     73203     73204     73205
     73206     73210     73206     73207     73206     73208     73206     73209
     73210     73211     73212     73216     73212     73213     73212     73214
     73212     73215     73216     73217     73218     73222     73218     73219
     73218     73220     73218     73221     73222     73223     73224     73228
     73224     73225     73224     73226     73224     73227     73228     73229
     73230     73234     73230     73231     73230     73232     73230     73233
     73234     73235     73236     73240     73236     73237     73236     73238
     73236     73239     73240     73241     73242     73246     73242     73243
     73242     73244     73242     73245     73246     73247     73248     73252
     73248     73249     73248     73250     73248     73251     73252     73253
     73254     73258     73254     73255     73254     73256     73254     73257
     73258     73259     73260     73264     73260     73261     73260     73262
     73260     73263     73264     73265     73266     73270     73266     73267
     73266     73268     73266     73269     73270     73271     73272     73276
     73272     73273     73272     73274     73272     73275     73276     73277
     73278     73282     73278     73279     73278     73280     73278     73281
     73282     73283     73284     73288     73284     73285     73284     73286
     73284     73287     73288     73289     73290     73294     73290     73291
     73290     73292     73290     73293     73294     73295     73296     73300
     73296     73297     73296     73298     73296     73299     73300     73301
     73302     73306     73302     73303     73302     73304     73302     73305
     73306     73307     73308     73312     73308     73309     73308     73310
     73308     73311     73312     73313     73314     73318     73314     73315
     73314     73316     73314     73317     73318     73319     73320     73324
     73320     73321     73320     73322     73320     73323     73324     73325
     73326     73330     73326     73327     73326     73328     73326     73329
     73330     73331     73332     73336     73332     73333     73332     73334
     73332     73335     73336     73337     73338     73342     73338     73339
     73338     73340     73338     73341     73342     73343     73344     73348
     73344     73345     73344     73346     73344     73347     73348     73349
     73350     73354     73350     73351     73350     73352     73350     73353
     73354     73355     73356     73360     73356     73357     73356     73358
     73356     73359     73360     73361     73362     73366     73362     73363
     73362     73364     73362     73365     73366     73367     73368     73372
     73368     73369     73368     73370     73368     73371     73372     73373
     73374     73378     73374     73375     73374     73376     73374     73377
     73378     73379     73380     73384     73380     73381     73380     73382
     73380     73383     73384     73385     73386     73390     73386     73387
     73386     73388     73386     73389     73390     73391     73392     73396
     73392     73393     73392     73394     73392     73395     73396     73397
     73398     73402     73398     73399     73398     73400     73398     73401
     73402     73403     73404     73408     73404     73405     73404     73406
     73404     73407     73408     73409     73410     73414     73410     73411
     73410     73412     73410     73413     73414     73415     73416     73420
     73416     73417     73416     73418     73416     73419     73420     73421
     73422     73426     73422     73423     73422     73424     73422     73425
     73426     73427     73428     73432     73428     73429     73428     73430
     73428     73431     73432     73433     73434     73438     73434     73435
     73434     73436     73434     73437     73438     73439     73440     73444
     73440     73441     73440     73442     73440     73443     73444     73445
     73446     73450     73446     73447     73446     73448     73446     73449
     73450     73451     73452     73456     73452     73453     73452     73454
     73452     73455     73456     73457     73458     73462     73458     73459
     73458     73460     73458     73461     73462     73463     73464     73468
     73464     73465     73464     73466     73464     73467     73468     73469
     73470     73474     73470     73471     73470     73472     73470     73473
     73474     73475     73476     73480     73476     73477     73476     73478
     73476     73479     73480     73481     73482     73486     73482     73483
     73482     73484     73482     73485     73486     73487     73488     73492
     73488     73489     73488     73490     73488     73491     73492     73493
     73494     73498     73494     73495     73494     73496     73494     73497
     73498     73499     73500     73504     73500     73501     73500     73502
     73500     73503     73504     73505     73506     73510     73506     73507
     73506     73508     73506     73509     73510     73511     73512     73516
     73512     73513     73512     73514     73512     73515     73516     73517
     73518     73522     73518     73519     73518     73520     73518     73521
     73522     73523     73524     73528     73524     73525     73524     73526
     73524     73527     73528     73529     73530     73534     73530     73531
     73530     73532     73530     73533     73534     73535     73536     73540
     73536     73537     73536     73538     73536     73539     73540     73541
     73542     73546     73542     73543     73542     73544     73542     73545
     73546     73547     73548     73552     73548     73549     73548     73550
     73548     73551     73552     73553     73554     73558     73554     73555
     73554     73556     73554     73557     73558     73559     73560     73564
     73560     73561     73560     73562     73560     73563     73564     73565
     73566     73570     73566     73567     73566     73568     73566     73569
     73570     73571     73572     73576     73572     73573     73572     73574
     73572     73575     73576     73577     73578     73582     73578     73579
     73578     73580     73578     73581     73582     73583     73584     73588
     73584     73585     73584     73586     73584     73587     73588     73589
     73590     73594     73590     73591     73590     73592     73590     73593
     73594     73595     73596     73600     73596     73597     73596     73598
     73596     73599     73600     73601     73602     73606     73602     73603
     73602     73604     73602     73605     73606     73607     73608     73612
     73608     73609     73608     73610     73608     73611     73612     73613
     73614     73618     73614     73615     73614     73616     73614     73617
     73618     73619     73620     73624     73620     73621     73620     73622
     73620     73623     73624     73625     73626     73630     73626     73627
     73626     73628     73626     73629     73630     73631     73632     73636
     73632     73633     73632     73634     73632     73635     73636     73637
     73638     73642     73638     73639     73638     73640     73638     73641
     73642     73643     73644     73648     73644     73645     73644     73646
     73644     73647     73648     73649     73650     73654     73650     73651
     73650     73652     73650     73653     73654     73655     73656     73660
     73656     73657     73656     73658     73656     73659     73660     73661
     73662     73666     73662     73663     73662     73664     73662     73665
     73666     73667     73668     73672     73668     73669     73668     73670
     73668     73671     73672     73673     73674     73678     73674     73675
     73674     73676     73674     73677     73678     73679     73680     73684
     73680     73681     73680     73682     73680     73683     73684     73685
     73686     73690     73686     73687     73686     73688     73686     73689
     73690     73691     73692     73696     73692     73693     73692     73694
     73692     73695     73696     73697     73698     73702     73698     73699
     73698     73700     73698     73701     73702     73703     73704     73708
     73704     73705     73704     73706     73704     73707     73708     73709
     73710     73714     73710     73711     73710     73712     73710     73713
     73714     73715     73716     73720     73716     73717     73716     73718
     73716     73719     73720     73721     73722     73726     73722     73723
     73722     73724     73722     73725     73726     73727     73728     73732
     73728     73729     73728     73730     73728     73731     73732     73733
     73734     73738     73734     73735     73734     73736     73734     73737
     73738     73739     73740     73744     73740     73741     73740     73742
     73740     73743     73744     73745     73746     73750     73746     73747
     73746     73748     73746     73749     73750     73751     73752     73756
     73752     73753     73752     73754     73752     73755     73756     73757
     73758     73762     73758     73759     73758     73760     73758     73761
     73762     73763     73764     73768     73764     73765     73764     73766
     73764     73767     73768     73769     73770     73774     73770     73771
     73770     73772     73770     73773     73774     73775     73776     73780
     73776     73777     73776     73778     73776     73779     73780     73781
     73782     73786     73782     73783     73782     73784     73782     73785
     73786     73787     73788     73792     73788     73789     73788     73790
     73788     73791     73792     73793     73794     73798     73794     73795
     73794     73796     73794     73797     73798     73799     73800     73804
     73800     73801     73800     73802     73800     73803     73804     73805
     73806     73810     73806     73807     73806     73808     73806     73809
     73810     73811     73812     73816     73812     73813     73812     73814
     73812     73815     73816     73817     73818     73822     73818     73819
     73818     73820     73818     73821     73822     73823     73824     73828
     73824     73825     73824     73826     73824     73827     73828     73829
     73830     73834     73830     73831     73830     73832     73830     73833
     73834     73835     73836     73840     73836     73837     73836     73838
     73836     73839     73840     73841     73842     73846     73842     73843
     73842     73844     73842     73845     73846     73847     73848     73852
     73848     73849     73848     73850     73848     73851     73852     73853
     73854     73858     73854     73855     73854     73856     73854     73857
     73858     73859     73860     73864     73860     73861     73860     73862
     73860     73863     73864     73865     73866     73870     73866     73867
     73866     73868     73866     73869     73870     73871     73872     73876
     73872     73873     73872     73874     73872     73875     73876     73877
     73878     73882     73878     73879     73878     73880     73878     73881
     73882     73883     73884     73888     73884     73885     73884     73886
     73884     73887     73888     73889     73890     73894     73890     73891
     73890     73892     73890     73893     73894     73895     73896     73900
     73896     73897     73896     73898     73896     73899     73900     73901
     73902     73906     73902     73903     73902     73904     73902     73905
     73906     73907     73908     73912     73908     73909     73908     73910
     73908     73911     73912     73913     73914     73918     73914     73915
     73914     73916     73914     73917     73918     73919     73920     73924
     73920     73921     73920     73922     73920     73923     73924     73925
     73926     73930     73926     73927     73926     73928     73926     73929
     73930     73931     73932     73936     73932     73933     73932     73934
     73932     73935     73936     73937     73938     73942     73938     73939
     73938     73940     73938     73941     73942     73943     73944     73948
     73944     73945     73944     73946     73944     73947     73948     73949
     73950     73954     73950     73951     73950     73952     73950     73953
     73954     73955     73956     73960     73956     73957     73956     73958
     73956     73959     73960     73961     73962     73966     73962     73963
     73962     73964     73962     73965     73966     73967     73968     73972
     73968     73969     73968     73970     73968     73971     73972     73973
     73974     73978     73974     73975     73974     73976     73974     73977
     73978     73979     73980     73984     73980     73981     73980     73982
     73980     73983     73984     73985     73986     73990     73986     73987
     73986     73988     73986     73989     73990     73991     73992     73996
     73992     73993     73992     73994     73992     73995     73996     73997
     73998     74002     73998     73999     73998     74000     73998     74001
     74002     74003     74004     74008     74004     74005     74004     74006
     74004     74007     74008     74009     74010     74014     74010     74011
     74010     74012     74010     74013     74014     74015     74016     74020
     74016     74017     74016     74018     74016     74019     74020     74021
     74022     74026     74022     74023     74022     74024     74022     74025
     74026     74027     74028     74032     74028     74029     74028     74030
     74028     74031     74032     74033     74034     74038     74034     74035
     74034     74036     74034     74037     74038     74039     74040     74044
     74040     74041     74040     74042     74040     74043     74044     74045
     74046     74050     74046     74047     74046     74048     74046     74049
     74050     74051     74052     74056     74052     74053     74052     74054
     74052     74055     74056     74057     74058     74062     74058     74059
     74058     74060     74058     74061     74062     74063     74064     74068
     74064     74065     74064     74066     74064     74067     74068     74069
     74070     74074     74070     74071     74070     74072     74070     74073
     74074     74075     74076     74080     74076     74077     74076     74078
     74076     74079     74080     74081     74082     74086     74082     74083
     74082     74084     74082     74085     74086     74087     74088     74092
     74088     74089     74088     74090     74088     74091     74092     74093
     74094     74098     74094     74095     74094     74096     74094     74097
     74098     74099     74100     74104     74100     74101     74100     74102
     74100     74103     74104     74105     74106     74110     74106     74107
     74106     74108     74106     74109     74110     74111     74112     74116
     74112     74113     74112     74114     74112     74115     74116     74117
     74118     74122     74118     74119     74118     74120     74118     74121
     74122     74123     74124     74128     74124     74125     74124     74126
     74124     74127     74128     74129     74130     74134     74130     74131
     74130     74132     74130     74133     74134     74135     74136     74140
     74136     74137     74136     74138     74136     74139     74140     74141
     74142     74146     74142     74143     74142     74144     74142     74145
     74146     74147     74148     74152     74148     74149     74148     74150
     74148     74151     74152     74153     74154     74158     74154     74155
     74154     74156     74154     74157     74158     74159     74160     74164
     74160     74161     74160     74162     74160     74163     74164     74165
     74166     74170     74166     74167     74166     74168     74166     74169
     74170     74171     74172     74176     74172     74173     74172     74174
     74172     74175     74176     74177     74178     74182     74178     74179
     74178     74180     74178     74181     74182     74183     74184     74188
     74184     74185     74184     74186     74184     74187     74188     74189
     74190     74194     74190     74191     74190     74192     74190     74193
     74194     74195     74196     74200     74196     74197     74196     74198
     74196     74199     74200     74201     74202     74206     74202     74203
     74202     74204     74202     74205     74206     74207     74208     74212
     74208     74209     74208     74210     74208     74211     74212     74213
     74214     74218     74214     74215     74214     74216     74214     74217
     74218     74219     74220     74224     74220     74221     74220     74222
     74220     74223     74224     74225     74226     74230     74226     74227
     74226     74228     74226     74229     74230     74231     74232     74236
     74232     74233     74232     74234     74232     74235     74236     74237
     74238     74242     74238     74239     74238     74240     74238     74241
     74242     74243     74244     74248     74244     74245     74244     74246
     74244     74247     74248     74249     74250     74254     74250     74251
     74250     74252     74250     74253     74254     74255     74256     74260
     74256     74257     74256     74258     74256     74259     74260     74261
     74262     74266     74262     74263     74262     74264     74262     74265
     74266     74267     74268     74272     74268     74269     74268     74270
     74268     74271     74272     74273     74274     74278     74274     74275
     74274     74276     74274     74277     74278     74279     74280     74284
     74280     74281     74280     74282     74280     74283     74284     74285
     74286     74290     74286     74287     74286     74288     74286     74289
     74290     74291     74292     74296     74292     74293     74292     74294
     74292     74295     74296     74297     74298     74302     74298     74299
     74298     74300     74298     74301     74302     74303     74304     74308
     74304     74305     74304     74306     74304     74307     74308     74309
     74310     74314     74310     74311     74310     74312     74310     74313
     74314     74315     74316     74320     74316     74317     74316     74318
     74316     74319     74320     74321     74322     74326     74322     74323
     74322     74324     74322     74325     74326     74327     74328     74332
     74328     74329     74328     74330     74328     74331     74332     74333
     74334     74338     74334     74335     74334     74336     74334     74337
     74338     74339     74340     74344     74340     74341     74340     74342
     74340     74343     74344     74345     74346     74350     74346     74347
     74346     74348     74346     74349     74350     74351     74352     74356
     74352     74353     74352     74354     74352     74355     74356     74357
     74358     74362     74358     74359     74358     74360     74358     74361
     74362     74363     74364     74368     74364     74365     74364     74366
     74364     74367     74368     74369     74370     74374     74370     74371
     74370     74372     74370     74373     74374     74375     74376     74380
     74376     74377     74376     74378     74376     74379     74380     74381
     74382     74386     74382     74383     74382     74384     74382     74385
     74386     74387     74388     74392     74388     74389     74388     74390
     74388     74391     74392     74393     74394     74398     74394     74395
     74394     74396     74394     74397     74398     74399     74400     74404
     74400     74401     74400     74402     74400     74403     74404     74405
     74406     74410     74406     74407     74406     74408     74406     74409
     74410     74411     74412     74416     74412     74413     74412     74414
     74412     74415     74416     74417     74418     74422     74418     74419
     74418     74420     74418     74421     74422     74423     74424     74428
     74424     74425     74424     74426     74424     74427     74428     74429
     74430     74434     74430     74431     74430     74432     74430     74433
     74434     74435     74436     74440     74436     74437     74436     74438
     74436     74439     74440     74441     74442     74446     74442     74443
     74442     74444     74442     74445     74446     74447     74448     74452
     74448     74449     74448     74450     74448     74451     74452     74453
     74454     74458     74454     74455     74454     74456     74454     74457
     74458     74459     74460     74464     74460     74461     74460     74462
     74460     74463     74464     74465     74466     74470     74466     74467
     74466     74468     74466     74469     74470     74471     74472     74476
     74472     74473     74472     74474     74472     74475     74476     74477
     74478     74482     74478     74479     74478     74480     74478     74481
     74482     74483     74484     74488     74484     74485     74484     74486
     74484     74487     74488     74489     74490     74494     74490     74491
     74490     74492     74490     74493     74494     74495     74496     74500
     74496     74497     74496     74498     74496     74499     74500     74501
     74502     74506     74502     74503     74502     74504     74502     74505
     74506     74507     74508     74512     74508     74509     74508     74510
     74508     74511     74512     74513     74514     74518     74514     74515
     74514     74516     74514     74517     74518     74519     74520     74524
     74520     74521     74520     74522     74520     74523     74524     74525
     74526     74530     74526     74527     74526     74528     74526     74529
     74530     74531     74532     74536     74532     74533     74532     74534
     74532     74535     74536     74537     74538     74542     74538     74539
     74538     74540     74538     74541     74542     74543     74544     74548
     74544     74545     74544     74546     74544     74547     74548     74549
     74550     74554     74550     74551     74550     74552     74550     74553
     74554     74555     74556     74560     74556     74557     74556     74558
     74556     74559     74560     74561     74562     74566     74562     74563
     74562     74564     74562     74565     74566     74567     74568     74572
     74568     74569     74568     74570     74568     74571     74572     74573
     74574     74578     74574     74575     74574     74576     74574     74577
     74578     74579     74580     74584     74580     74581     74580     74582
     74580     74583     74584     74585     74586     74590     74586     74587
     74586     74588     74586     74589     74590     74591     74592     74596
     74592     74593     74592     74594     74592     74595     74596     74597
     74598     74602     74598     74599     74598     74600     74598     74601
     74602     74603     74604     74608     74604     74605     74604     74606
     74604     74607     74608     74609     74610     74614     74610     74611
     74610     74612     74610     74613     74614     74615     74616     74620
     74616     74617     74616     74618     74616     74619     74620     74621
     74622     74626     74622     74623     74622     74624     74622     74625
     74626     74627     74628     74632     74628     74629     74628     74630
     74628     74631     74632     74633     74634     74638     74634     74635
     74634     74636     74634     74637     74638     74639     74640     74644
     74640     74641     74640     74642     74640     74643     74644     74645
     74646     74650     74646     74647     74646     74648     74646     74649
     74650     74651     74652     74656     74652     74653     74652     74654
     74652     74655     74656     74657     74658     74662     74658     74659
     74658     74660     74658     74661     74662     74663     74664     74668
     74664     74665     74664     74666     74664     74667     74668     74669
     74670     74674     74670     74671     74670     74672     74670     74673
     74674     74675     74676     74680     74676     74677     74676     74678
     74676     74679     74680     74681     74682     74686     74682     74683
     74682     74684     74682     74685     74686     74687     74688     74692
     74688     74689     74688     74690     74688     74691     74692     74693
     74694     74698     74694     74695     74694     74696     74694     74697
     74698     74699     74700     74704     74700     74701     74700     74702
     74700     74703     74704     74705     74706     74710     74706     74707
     74706     74708     74706     74709     74710     74711     74712     74716
     74712     74713     74712     74714     74712     74715     74716     74717
     74718     74722     74718     74719     74718     74720     74718     74721
     74722     74723     74724     74728     74724     74725     74724     74726
     74724     74727     74728     74729     74730     74734     74730     74731
     74730     74732     74730     74733     74734     74735     74736     74740
     74736     74737     74736     74738     74736     74739     74740     74741
     74742     74746     74742     74743     74742     74744     74742     74745
     74746     74747     74748     74752     74748     74749     74748     74750
     74748     74751     74752     74753     74754     74758     74754     74755
     74754     74756     74754     74757     74758     74759     74760     74764
     74760     74761     74760     74762     74760     74763     74764     74765
     74766     74770     74766     74767     74766     74768     74766     74769
     74770     74771     74772     74776     74772     74773     74772     74774
     74772     74775     74776     74777     74778     74782     74778     74779
     74778     74780     74778     74781     74782     74783     74784     74788
     74784     74785     74784     74786     74784     74787     74788     74789
     74790     74794     74790     74791     74790     74792     74790     74793
     74794     74795     74796     74800     74796     74797     74796     74798
     74796     74799     74800     74801     74802     74806     74802     74803
     74802     74804     74802     74805     74806     74807     74808     74812
     74808     74809     74808     74810     74808     74811     74812     74813
     74814     74818     74814     74815     74814     74816     74814     74817
     74818     74819     74820     74824     74820     74821     74820     74822
     74820     74823     74824     74825     74826     74830     74826     74827
     74826     74828     74826     74829     74830     74831     74832     74836
     74832     74833     74832     74834     74832     74835     74836     74837
     74838     74842     74838     74839     74838     74840     74838     74841
     74842     74843     74844     74848     74844     74845     74844     74846
     74844     74847     74848     74849     74850     74854     74850     74851
     74850     74852     74850     74853     74854     74855     74856     74860
     74856     74857     74856     74858     74856     74859     74860     74861
     74862     74866     74862     74863     74862     74864     74862     74865
     74866     74867     74868     74872     74868     74869     74868     74870
     74868     74871     74872     74873     74874     74878     74874     74875
     74874     74876     74874     74877     74878     74879     74880     74884
     74880     74881     74880     74882     74880     74883     74884     74885
     74886     74890     74886     74887     74886     74888     74886     74889
     74890     74891     74892     74896     74892     74893     74892     74894
     74892     74895     74896     74897     74898     74902     74898     74899
     74898     74900     74898     74901     74902     74903     74904     74908
     74904     74905     74904     74906     74904     74907     74908     74909
     74910     74914     74910     74911     74910     74912     74910     74913
     74914     74915     74916     74920     74916     74917     74916     74918
     74916     74919     74920     74921     74922     74926     74922     74923
     74922     74924     74922     74925     74926     74927     74928     74932
     74928     74929     74928     74930     74928     74931     74932     74933
     74934     74938     74934     74935     74934     74936     74934     74937
     74938     74939     74940     74944     74940     74941     74940     74942
     74940     74943     74944     74945     74946     74950     74946     74947
     74946     74948     74946     74949     74950     74951     74952     74956
     74952     74953     74952     74954     74952     74955     74956     74957
     74958     74962     74958     74959     74958     74960     74958     74961
     74962     74963     74964     74968     74964     74965     74964     74966
     74964     74967     74968     74969     74970     74974     74970     74971
     74970     74972     74970     74973     74974     74975     74976     74980
     74976     74977     74976     74978     74976     74979     74980     74981
     74982     74986     74982     74983     74982     74984     74982     74985
     74986     74987     74988     74992     74988     74989     74988     74990
     74988     74991     74992     74993     74994     74998     74994     74995
     74994     74996     74994     74997     74998     74999     75000     75004
     75000     75001     75000     75002     75000     75003     75004     75005
     75006     75010     75006     75007     75006     75008     75006     75009
     75010     75011     75012     75016     75012     75013     75012     75014
     75012     75015     75016     75017     75018     75022     75018     75019
     75018     75020     75018     75021     75022     75023     75024     75028
     75024     75025     75024     75026     75024     75027     75028     75029
     75030     75034     75030     75031     75030     75032     75030     75033
     75034     75035     75036     75040     75036     75037     75036     75038
     75036     75039     75040     75041     75042     75046     75042     75043
     75042     75044     75042     75045     75046     75047     75048     75052
     75048     75049     75048     75050     75048     75051     75052     75053
     75054     75058     75054     75055     75054     75056     75054     75057
     75058     75059     75060     75064     75060     75061     75060     75062
     75060     75063     75064     75065     75066     75070     75066     75067
     75066     75068     75066     75069     75070     75071     75072     75076
     75072     75073     75072     75074     75072     75075     75076     75077
     75078     75082     75078     75079     75078     75080     75078     75081
     75082     75083     75084     75088     75084     75085     75084     75086
     75084     75087     75088     75089     75090     75094     75090     75091
     75090     75092     75090     75093     75094     75095     75096     75100
     75096     75097     75096     75098     75096     75099     75100     75101
     75102     75106     75102     75103     75102     75104     75102     75105
     75106     75107     75108     75112     75108     75109     75108     75110
     75108     75111     75112     75113     75114     75118     75114     75115
     75114     75116     75114     75117     75118     75119     75120     75124
     75120     75121     75120     75122     75120     75123     75124     75125
     75126     75130     75126     75127     75126     75128     75126     75129
     75130     75131     75132     75136     75132     75133     75132     75134
     75132     75135     75136     75137     75138     75142     75138     75139
     75138     75140     75138     75141     75142     75143     75144     75148
     75144     75145     75144     75146     75144     75147     75148     75149
     75150     75154     75150     75151     75150     75152     75150     75153
     75154     75155     75156     75160     75156     75157     75156     75158
     75156     75159     75160     75161     75162     75166     75162     75163
     75162     75164     75162     75165     75166     75167     75168     75172
     75168     75169     75168     75170     75168     75171     75172     75173
     75174     75178     75174     75175     75174     75176     75174     75177
     75178     75179     75180     75184     75180     75181     75180     75182
     75180     75183     75184     75185     75186     75190     75186     75187
     75186     75188     75186     75189     75190     75191     75192     75196
     75192     75193     75192     75194     75192     75195     75196     75197
     75198     75202     75198     75199     75198     75200     75198     75201
     75202     75203     75204     75208     75204     75205     75204     75206
     75204     75207     75208     75209     75210     75214     75210     75211
     75210     75212     75210     75213     75214     75215     75216     75220
     75216     75217     75216     75218     75216     75219     75220     75221
     75222     75226     75222     75223     75222     75224     75222     75225
     75226     75227     75228     75232     75228     75229     75228     75230
     75228     75231     75232     75233     75234     75238     75234     75235
     75234     75236     75234     75237     75238     75239     75240     75244
     75240     75241     75240     75242     75240     75243     75244     75245
     75246     75250     75246     75247     75246     75248     75246     75249
     75250     75251     75252     75256     75252     75253     75252     75254
     75252     75255     75256     75257     75258     75262     75258     75259
     75258     75260     75258     75261     75262     75263     75264     75268
     75264     75265     75264     75266     75264     75267     75268     75269
     75270     75274     75270     75271     75270     75272     75270     75273
     75274     75275     75276     75280     75276     75277     75276     75278
     75276     75279     75280     75281     75282     75286     75282     75283
     75282     75284     75282     75285     75286     75287     75288     75292
     75288     75289     75288     75290     75288     75291     75292     75293
     75294     75298     75294     75295     75294     75296     75294     75297
     75298     75299     75300     75304     75300     75301     75300     75302
     75300     75303     75304     75305     75306     75310     75306     75307
     75306     75308     75306     75309     75310     75311     75312     75316
     75312     75313     75312     75314     75312     75315     75316     75317
     75318     75322     75318     75319     75318     75320     75318     75321
     75322     75323     75324     75328     75324     75325     75324     75326
     75324     75327     75328     75329     75330     75334     75330     75331
     75330     75332     75330     75333     75334     75335     75336     75340
     75336     75337     75336     75338     75336     75339     75340     75341
     75342     75346     75342     75343     75342     75344     75342     75345
     75346     75347     75348     75352     75348     75349     75348     75350
     75348     75351     75352     75353     75354     75358     75354     75355
     75354     75356     75354     75357     75358     75359     75360     75364
     75360     75361     75360     75362     75360     75363     75364     75365
     75366     75370     75366     75367     75366     75368     75366     75369
     75370     75371     75372     75376     75372     75373     75372     75374
     75372     75375     75376     75377     75378     75382     75378     75379
     75378     75380     75378     75381     75382     75383     75384     75388
     75384     75385     75384     75386     75384     75387     75388     75389
     75390     75394     75390     75391     75390     75392     75390     75393
     75394     75395     75396     75400     75396     75397     75396     75398
     75396     75399     75400     75401     75402     75406     75402     75403
     75402     75404     75402     75405     75406     75407     75408     75412
     75408     75409     75408     75410     75408     75411     75412     75413
     75414     75418     75414     75415     75414     75416     75414     75417
     75418     75419     75420     75424     75420     75421     75420     75422
     75420     75423     75424     75425     75426     75430     75426     75427
     75426     75428     75426     75429     75430     75431     75432     75436
     75432     75433     75432     75434     75432     75435     75436     75437
     75438     75442     75438     75439     75438     75440     75438     75441
     75442     75443     75444     75448     75444     75445     75444     75446
     75444     75447     75448     75449     75450     75454     75450     75451
     75450     75452     75450     75453     75454     75455     75456     75460
     75456     75457     75456     75458     75456     75459     75460     75461
     75462     75466     75462     75463     75462     75464     75462     75465
     75466     75467     75468     75472     75468     75469     75468     75470
     75468     75471     75472     75473     75474     75478     75474     75475
     75474     75476     75474     75477     75478     75479     75480     75484
     75480     75481     75480     75482     75480     75483     75484     75485
     75486     75490     75486     75487     75486     75488     75486     75489
     75490     75491     75492     75496     75492     75493     75492     75494
     75492     75495     75496     75497     75498     75502     75498     75499
     75498     75500     75498     75501     75502     75503     75504     75508
     75504     75505     75504     75506     75504     75507     75508     75509
     75510     75514     75510     75511     75510     75512     75510     75513
     75514     75515     75516     75520     75516     75517     75516     75518
     75516     75519     75520     75521     75522     75526     75522     75523
     75522     75524     75522     75525     75526     75527     75528     75532
     75528     75529     75528     75530     75528     75531     75532     75533
     75534     75538     75534     75535     75534     75536     75534     75537
     75538     75539     75540     75544     75540     75541     75540     75542
     75540     75543     75544     75545     75546     75550     75546     75547
     75546     75548     75546     75549     75550     75551     75552     75556
     75552     75553     75552     75554     75552     75555     75556     75557
     75558     75562     75558     75559     75558     75560     75558     75561
     75562     75563     75564     75568     75564     75565     75564     75566
     75564     75567     75568     75569     75570     75574     75570     75571
     75570     75572     75570     75573     75574     75575     75576     75580
     75576     75577     75576     75578     75576     75579     75580     75581
     75582     75586     75582     75583     75582     75584     75582     75585
     75586     75587     75588     75592     75588     75589     75588     75590
     75588     75591     75592     75593     75594     75598     75594     75595
     75594     75596     75594     75597     75598     75599     75600     75604
     75600     75601     75600     75602     75600     75603     75604     75605
     75606     75610     75606     75607     75606     75608     75606     75609
     75610     75611     75612     75616     75612     75613     75612     75614
     75612     75615     75616     75617     75618     75622     75618     75619
     75618     75620     75618     75621     75622     75623     75624     75628
     75624     75625     75624     75626     75624     75627     75628     75629
     75630     75634     75630     75631     75630     75632     75630     75633
     75634     75635     75636     75640     75636     75637     75636     75638
     75636     75639     75640     75641     75642     75646     75642     75643
     75642     75644     75642     75645     75646     75647     75648     75652
     75648     75649     75648     75650     75648     75651     75652     75653
     75654     75658     75654     75655     75654     75656     75654     75657
     75658     75659     75660     75664     75660     75661     75660     75662
     75660     75663     75664     75665     75666     75670     75666     75667
     75666     75668     75666     75669     75670     75671     75672     75676
     75672     75673     75672     75674     75672     75675     75676     75677
     75678     75682     75678     75679     75678     75680     75678     75681
     75682     75683     75684     75688     75684     75685     75684     75686
     75684     75687     75688     75689     75690     75694     75690     75691
     75690     75692     75690     75693     75694     75695     75696     75700
     75696     75697     75696     75698     75696     75699     75700     75701
     75702     75706     75702     75703     75702     75704     75702     75705
     75706     75707     75708     75712     75708     75709     75708     75710
     75708     75711     75712     75713     75714     75718     75714     75715
     75714     75716     75714     75717     75718     75719     75720     75724
     75720     75721     75720     75722     75720     75723     75724     75725
     75726     75730     75726     75727     75726     75728     75726     75729
     75730     75731     75732     75736     75732     75733     75732     75734
     75732     75735     75736     75737     75738     75742     75738     75739
     75738     75740     75738     75741     75742     75743     75744     75748
     75744     75745     75744     75746     75744     75747     75748     75749
     75750     75754     75750     75751     75750     75752     75750     75753
     75754     75755     75756     75760     75756     75757     75756     75758
     75756     75759     75760     75761     75762     75766     75762     75763
     75762     75764     75762     75765     75766     75767     75768     75772
     75768     75769     75768     75770     75768     75771     75772     75773
     75774     75778     75774     75775     75774     75776     75774     75777
     75778     75779     75780     75784     75780     75781     75780     75782
     75780     75783     75784     75785     75786     75790     75786     75787
     75786     75788     75786     75789     75790     75791     75792     75796
     75792     75793     75792     75794     75792     75795     75796     75797
     75798     75802     75798     75799     75798     75800     75798     75801
     75802     75803     75804     75808     75804     75805     75804     75806
     75804     75807     75808     75809     75810     75814     75810     75811
     75810     75812     75810     75813     75814     75815     75816     75820
     75816     75817     75816     75818     75816     75819     75820     75821
     75822     75826     75822     75823     75822     75824     75822     75825
     75826     75827     75828     75832     75828     75829     75828     75830
     75828     75831     75832     75833     75834     75838     75834     75835
     75834     75836     75834     75837     75838     75839     75840     75844
     75840     75841     75840     75842     75840     75843     75844     75845
     75846     75850     75846     75847     75846     75848     75846     75849
     75850     75851     75852     75856     75852     75853     75852     75854
     75852     75855     75856     75857     75858     75862     75858     75859
     75858     75860     75858     75861     75862     75863     75864     75868
     75864     75865     75864     75866     75864     75867     75868     75869
     75870     75874     75870     75871     75870     75872     75870     75873
     75874     75875     75876     75880     75876     75877     75876     75878
     75876     75879     75880     75881     75882     75886     75882     75883
     75882     75884     75882     75885     75886     75887     75888     75892
     75888     75889     75888     75890     75888     75891     75892     75893
     75894     75898     75894     75895     75894     75896     75894     75897
     75898     75899     75900     75904     75900     75901     75900     75902
     75900     75903     75904     75905     75906     75910     75906     75907
     75906     75908     75906     75909     75910     75911     75912     75916
     75912     75913     75912     75914     75912     75915     75916     75917
     75918     75922     75918     75919     75918     75920     75918     75921
     75922     75923     75924     75928     75924     75925     75924     75926
     75924     75927     75928     75929     75930     75934     75930     75931
     75930     75932     75930     75933     75934     75935     75936     75940
     75936     75937     75936     75938     75936     75939     75940     75941
     75942     75946     75942     75943     75942     75944     75942     75945
     75946     75947     75948     75952     75948     75949     75948     75950
     75948     75951     75952     75953     75954     75958     75954     75955
     75954     75956     75954     75957     75958     75959     75960     75964
     75960     75961     75960     75962     75960     75963     75964     75965
     75966     75970     75966     75967     75966     75968     75966     75969
     75970     75971     75972     75976     75972     75973     75972     75974
     75972     75975     75976     75977     75978     75982     75978     75979
     75978     75980     75978     75981     75982     75983     75984     75988
     75984     75985     75984     75986     75984     75987     75988     75989
     75990     75994     75990     75991     75990     75992     75990     75993
     75994     75995     75996     76000     75996     75997     75996     75998
     75996     75999     76000     76001     76002     76006     76002     76003
     76002     76004     76002     76005     76006     76007     76008     76012
     76008     76009     76008     76010     76008     76011     76012     76013
     76014     76018     76014     76015     76014     76016     76014     76017
     76018     76019     76020     76024     76020     76021     76020     76022
     76020     76023     76024     76025     76026     76030     76026     76027
     76026     76028     76026     76029     76030     76031     76032     76036
     76032     76033     76032     76034     76032     76035     76036     76037
     76038     76042     76038     76039     76038     76040     76038     76041
     76042     76043     76044     76048     76044     76045     76044     76046
     76044     76047     76048     76049     76050     76054     76050     76051
     76050     76052     76050     76053     76054     76055     76056     76060
     76056     76057     76056     76058     76056     76059     76060     76061
     76062     76066     76062     76063     76062     76064     76062     76065
     76066     76067     76068     76072     76068     76069     76068     76070
     76068     76071     76072     76073     76074     76078     76074     76075
     76074     76076     76074     76077     76078     76079     76080     76084
     76080     76081     76080     76082     76080     76083     76084     76085
     76086     76090     76086     76087     76086     76088     76086     76089
     76090     76091     76092     76096     76092     76093     76092     76094
     76092     76095     76096     76097     76098     76102     76098     76099
     76098     76100     76098     76101     76102     76103     76104     76108
     76104     76105     76104     76106     76104     76107     76108     76109
     76110     76114     76110     76111     76110     76112     76110     76113
     76114     76115     76116     76120     76116     76117     76116     76118
     76116     76119     76120     76121     76122     76126     76122     76123
     76122     76124     76122     76125     76126     76127     76128     76132
     76128     76129     76128     76130     76128     76131     76132     76133
     76134     76138     76134     76135     76134     76136     76134     76137
     76138     76139     76140     76144     76140     76141     76140     76142
     76140     76143     76144     76145     76146     76150     76146     76147
     76146     76148     76146     76149     76150     76151     76152     76156
     76152     76153     76152     76154     76152     76155     76156     76157
     76158     76162     76158     76159     76158     76160     76158     76161
     76162     76163     76164     76168     76164     76165     76164     76166
     76164     76167     76168     76169     76170     76174     76170     76171
     76170     76172     76170     76173     76174     76175     76176     76180
     76176     76177     76176     76178     76176     76179     76180     76181
     76182     76186     76182     76183     76182     76184     76182     76185
     76186     76187     76188     76192     76188     76189     76188     76190
     76188     76191     76192     76193     76194     76198     76194     76195
     76194     76196     76194     76197     76198     76199     76200     76204
     76200     76201     76200     76202     76200     76203     76204     76205
     76206     76210     76206     76207     76206     76208     76206     76209
     76210     76211     76212     76216     76212     76213     76212     76214
     76212     76215     76216     76217     76218     76222     76218     76219
     76218     76220     76218     76221     76222     76223     76224     76228
     76224     76225     76224     76226     76224     76227     76228     76229
     76230     76234     76230     76231     76230     76232     76230     76233
     76234     76235     76236     76240     76236     76237     76236     76238
     76236     76239     76240     76241     76242     76246     76242     76243
     76242     76244     76242     76245     76246     76247     76248     76252
     76248     76249     76248     76250     76248     76251     76252     76253
     76254     76258     76254     76255     76254     76256     76254     76257
     76258     76259     76260     76264     76260     76261     76260     76262
     76260     76263     76264     76265     76266     76270     76266     76267
     76266     76268     76266     76269     76270     76271     76272     76276
     76272     76273     76272     76274     76272     76275     76276     76277
     76278     76282     76278     76279     76278     76280     76278     76281
     76282     76283     76284     76288     76284     76285     76284     76286
     76284     76287     76288     76289     76290     76294     76290     76291
     76290     76292     76290     76293     76294     76295     76296     76300
     76296     76297     76296     76298     76296     76299     76300     76301
     76302     76306     76302     76303     76302     76304     76302     76305
     76306     76307     76308     76312     76308     76309     76308     76310
     76308     76311     76312     76313     76314     76318     76314     76315
     76314     76316     76314     76317     76318     76319     76320     76324
     76320     76321     76320     76322     76320     76323     76324     76325
     76326     76330     76326     76327     76326     76328     76326     76329
     76330     76331     76332     76336     76332     76333     76332     76334
     76332     76335     76336     76337     76338     76342     76338     76339
     76338     76340     76338     76341     76342     76343     76344     76348
     76344     76345     76344     76346     76344     76347     76348     76349
     76350     76354     76350     76351     76350     76352     76350     76353
     76354     76355     76356     76360     76356     76357     76356     76358
     76356     76359     76360     76361     76362     76366     76362     76363
     76362     76364     76362     76365     76366     76367     76368     76372
     76368     76369     76368     76370     76368     76371     76372     76373
     76374     76378     76374     76375     76374     76376     76374     76377
     76378     76379     76380     76384     76380     76381     76380     76382
     76380     76383     76384     76385     76386     76390     76386     76387
     76386     76388     76386     76389     76390     76391     76392     76396
     76392     76393     76392     76394     76392     76395     76396     76397
     76398     76402     76398     76399     76398     76400     76398     76401
     76402     76403     76404     76408     76404     76405     76404     76406
     76404     76407     76408     76409     76410     76414     76410     76411
     76410     76412     76410     76413     76414     76415     76416     76420
     76416     76417     76416     76418     76416     76419     76420     76421
     76422     76426     76422     76423     76422     76424     76422     76425
     76426     76427     76428     76432     76428     76429     76428     76430
     76428     76431     76432     76433     76434     76438     76434     76435
     76434     76436     76434     76437     76438     76439     76440     76444
     76440     76441     76440     76442     76440     76443     76444     76445
     76446     76450     76446     76447     76446     76448     76446     76449
     76450     76451     76452     76456     76452     76453     76452     76454
     76452     76455     76456     76457     76458     76462     76458     76459
     76458     76460     76458     76461     76462     76463     76464     76468
     76464     76465     76464     76466     76464     76467     76468     76469
     76470     76474     76470     76471     76470     76472     76470     76473
     76474     76475     76476     76480     76476     76477     76476     76478
     76476     76479     76480     76481     76482     76486     76482     76483
     76482     76484     76482     76485     76486     76487     76488     76492
     76488     76489     76488     76490     76488     76491     76492     76493
     76494     76498     76494     76495     76494     76496     76494     76497
     76498     76499     76500     76504     76500     76501     76500     76502
     76500     76503     76504     76505     76506     76510     76506     76507
     76506     76508     76506     76509     76510     76511     76512     76516
     76512     76513     76512     76514     76512     76515     76516     76517
     76518     76522     76518     76519     76518     76520     76518     76521
     76522     76523     76524     76528     76524     76525     76524     76526
     76524     76527     76528     76529     76530     76534     76530     76531
     76530     76532     76530     76533     76534     76535     76536     76540
     76536     76537     76536     76538     76536     76539     76540     76541
     76542     76546     76542     76543     76542     76544     76542     76545
     76546     76547     76548     76552     76548     76549     76548     76550
     76548     76551     76552     76553     76554     76558     76554     76555
     76554     76556     76554     76557     76558     76559     76560     76564
     76560     76561     76560     76562     76560     76563     76564     76565
     76566     76570     76566     76567     76566     76568     76566     76569
     76570     76571     76572     76576     76572     76573     76572     76574
     76572     76575     76576     76577     76578     76582     76578     76579
     76578     76580     76578     76581     76582     76583     76584     76588
     76584     76585     76584     76586     76584     76587     76588     76589
     76590     76594     76590     76591     76590     76592     76590     76593
     76594     76595     76596     76600     76596     76597     76596     76598
     76596     76599     76600     76601     76602     76606     76602     76603
     76602     76604     76602     76605     76606     76607     76608     76612
     76608     76609     76608     76610     76608     76611     76612     76613
     76614     76618     76614     76615     76614     76616     76614     76617
     76618     76619     76620     76624     76620     76621     76620     76622
     76620     76623     76624     76625     76626     76630     76626     76627
     76626     76628     76626     76629     76630     76631     76632     76636
     76632     76633     76632     76634     76632     76635     76636     76637
     76638     76642     76638     76639     76638     76640     76638     76641
     76642     76643     76644     76648     76644     76645     76644     76646
     76644     76647     76648     76649     76650     76654     76650     76651
     76650     76652     76650     76653     76654     76655     76656     76660
     76656     76657     76656     76658     76656     76659     76660     76661
     76662     76666     76662     76663     76662     76664     76662     76665
     76666     76667     76668     76672     76668     76669     76668     76670
     76668     76671     76672     76673     76674     76678     76674     76675
     76674     76676     76674     76677     76678     76679     76680     76684
     76680     76681     76680     76682     76680     76683     76684     76685
     76686     76690     76686     76687     76686     76688     76686     76689
     76690     76691     76692     76696     76692     76693     76692     76694
     76692     76695     76696     76697     76698     76702     76698     76699
     76698     76700     76698     76701     76702     76703     76704     76708
     76704     76705     76704     76706     76704     76707     76708     76709
     76710     76714     76710     76711     76710     76712     76710     76713
     76714     76715     76716     76720     76716     76717     76716     76718
     76716     76719     76720     76721     76722     76726     76722     76723
     76722     76724     76722     76725     76726     76727     76728     76732
     76728     76729     76728     76730     76728     76731     76732     76733
     76734     76738     76734     76735     76734     76736     76734     76737
     76738     76739     76740     76744     76740     76741     76740     76742
     76740     76743     76744     76745     76746     76750     76746     76747
     76746     76748     76746     76749     76750     76751     76752     76756
     76752     76753     76752     76754     76752     76755     76756     76757
     76758     76762     76758     76759     76758     76760     76758     76761
     76762     76763     76764     76768     76764     76765     76764     76766
     76764     76767     76768     76769     76770     76774     76770     76771
     76770     76772     76770     76773     76774     76775     76776     76780
     76776     76777     76776     76778     76776     76779     76780     76781
     76782     76786     76782     76783     76782     76784     76782     76785
     76786     76787     76788     76792     76788     76789     76788     76790
     76788     76791     76792     76793     76794     76798     76794     76795
     76794     76796     76794     76797     76798     76799     76800     76804
     76800     76801     76800     76802     76800     76803     76804     76805
     76806     76810     76806     76807     76806     76808     76806     76809
     76810     76811     76812     76816     76812     76813     76812     76814
     76812     76815     76816     76817     76818     76822     76818     76819
     76818     76820     76818     76821     76822     76823     76824     76828
     76824     76825     76824     76826     76824     76827     76828     76829
     76830     76834     76830     76831     76830     76832     76830     76833
     76834     76835     76836     76840     76836     76837     76836     76838
     76836     76839     76840     76841     76842     76846     76842     76843
     76842     76844     76842     76845     76846     76847     76848     76852
     76848     76849     76848     76850     76848     76851     76852     76853
     76854     76858     76854     76855     76854     76856     76854     76857
     76858     76859     76860     76864     76860     76861     76860     76862
     76860     76863     76864     76865     76866     76870     76866     76867
     76866     76868     76866     76869     76870     76871     76872     76876
     76872     76873     76872     76874     76872     76875     76876     76877
     76878     76882     76878     76879     76878     76880     76878     76881
     76882     76883     76884     76888     76884     76885     76884     76886
     76884     76887     76888     76889     76890     76894     76890     76891
     76890     76892     76890     76893     76894     76895     76896     76900
     76896     76897     76896     76898     76896     76899     76900     76901
     76902     76906     76902     76903     76902     76904     76902     76905
     76906     76907     76908     76912     76908     76909     76908     76910
     76908     76911     76912     76913     76914     76918     76914     76915
     76914     76916     76914     76917     76918     76919     76920     76924
     76920     76921     76920     76922     76920     76923     76924     76925
     76926     76930     76926     76927     76926     76928     76926     76929
     76930     76931     76932     76936     76932     76933     76932     76934
     76932     76935     76936     76937     76938     76942     76938     76939
     76938     76940     76938     76941     76942     76943     76944     76948
     76944     76945     76944     76946     76944     76947     76948     76949
     76950     76954     76950     76951     76950     76952     76950     76953
     76954     76955     76956     76960     76956     76957     76956     76958
     76956     76959     76960     76961     76962     76966     76962     76963
     76962     76964     76962     76965     76966     76967     76968     76972
     76968     76969     76968     76970     76968     76971     76972     76973
     76974     76978     76974     76975     76974     76976     76974     76977
     76978     76979     76980     76984     76980     76981     76980     76982
     76980     76983     76984     76985     76986     76990     76986     76987
     76986     76988     76986     76989     76990     76991     76992     76996
     76992     76993     76992     76994     76992     76995     76996     76997
     76998     77002     76998     76999     76998     77000     76998     77001
     77002     77003     77004     77008     77004     77005     77004     77006
     77004     77007     77008     77009     77010     77014     77010     77011
     77010     77012     77010     77013     77014     77015     77016     77020
     77016     77017     77016     77018     77016     77019     77020     77021
     77022     77026     77022     77023     77022     77024     77022     77025
     77026     77027     77028     77032     77028     77029     77028     77030
     77028     77031     77032     77033     77034     77038     77034     77035
     77034     77036     77034     77037     77038     77039     77040     77044
     77040     77041     77040     77042     77040     77043     77044     77045
     77046     77050     77046     77047     77046     77048     77046     77049
     77050     77051     77052     77056     77052     77053     77052     77054
     77052     77055     77056     77057     77058     77062     77058     77059
     77058     77060     77058     77061     77062     77063     77064     77068
     77064     77065     77064     77066     77064     77067     77068     77069
     77070     77074     77070     77071     77070     77072     77070     77073
     77074     77075     77076     77080     77076     77077     77076     77078
     77076     77079     77080     77081     77082     77086     77082     77083
     77082     77084     77082     77085     77086     77087     77088     77092
     77088     77089     77088     77090     77088     77091     77092     77093
     77094     77098     77094     77095     77094     77096     77094     77097
     77098     77099     77100     77104     77100     77101     77100     77102
     77100     77103     77104     77105     77106     77110     77106     77107
     77106     77108     77106     77109     77110     77111     77112     77116
     77112     77113     77112     77114     77112     77115     77116     77117
     77118     77122     77118     77119     77118     77120     77118     77121
     77122     77123     77124     77128     77124     77125     77124     77126
     77124     77127     77128     77129     77130     77134     77130     77131
     77130     77132     77130     77133     77134     77135     77136     77140
     77136     77137     77136     77138     77136     77139     77140     77141
     77142     77146     77142     77143     77142     77144     77142     77145
     77146     77147     77148     77152     77148     77149     77148     77150
     77148     77151     77152     77153     77154     77158     77154     77155
     77154     77156     77154     77157     77158     77159     77160     77164
     77160     77161     77160     77162     77160     77163     77164     77165
     77166     77170     77166     77167     77166     77168     77166     77169
     77170     77171     77172     77176     77172     77173     77172     77174
     77172     77175     77176     77177     77178     77182     77178     77179
     77178     77180     77178     77181     77182     77183     77184     77188
     77184     77185     77184     77186     77184     77187     77188     77189
     77190     77194     77190     77191     77190     77192     77190     77193
     77194     77195     77196     77200     77196     77197     77196     77198
     77196     77199     77200     77201     77202     77206     77202     77203
     77202     77204     77202     77205     77206     77207     77208     77212
     77208     77209     77208     77210     77208     77211     77212     77213
     77214     77218     77214     77215     77214     77216     77214     77217
     77218     77219     77220     77224     77220     77221     77220     77222
     77220     77223     77224     77225     77226     77230     77226     77227
     77226     77228     77226     77229     77230     77231     77232     77236
     77232     77233     77232     77234     77232     77235     77236     77237
     77238     77242     77238     77239     77238     77240     77238     77241
     77242     77243     77244     77248     77244     77245     77244     77246
     77244     77247     77248     77249     77250     77254     77250     77251
     77250     77252     77250     77253     77254     77255     77256     77260
     77256     77257     77256     77258     77256     77259     77260     77261
     77262     77266     77262     77263     77262     77264     77262     77265
     77266     77267     77268     77272     77268     77269     77268     77270
     77268     77271     77272     77273     77274     77278     77274     77275
     77274     77276     77274     77277     77278     77279     77280     77284
     77280     77281     77280     77282     77280     77283     77284     77285
     77286     77290     77286     77287     77286     77288     77286     77289
     77290     77291     77292     77296     77292     77293     77292     77294
     77292     77295     77296     77297     77298     77302     77298     77299
     77298     77300     77298     77301     77302     77303     77304     77308
     77304     77305     77304     77306     77304     77307     77308     77309
     77310     77314     77310     77311     77310     77312     77310     77313
     77314     77315     77316     77320     77316     77317     77316     77318
     77316     77319     77320     77321     77322     77326     77322     77323
     77322     77324     77322     77325     77326     77327     77328     77332
     77328     77329     77328     77330     77328     77331     77332     77333
     77334     77338     77334     77335     77334     77336     77334     77337
     77338     77339     77340     77344     77340     77341     77340     77342
     77340     77343     77344     77345     77346     77350     77346     77347
     77346     77348     77346     77349     77350     77351     77352     77356
     77352     77353     77352     77354     77352     77355     77356     77357
     77358     77362     77358     77359     77358     77360     77358     77361
     77362     77363     77364     77368     77364     77365     77364     77366
     77364     77367     77368     77369     77370     77374     77370     77371
     77370     77372     77370     77373     77374     77375     77376     77380
     77376     77377     77376     77378     77376     77379     77380     77381
     77382     77386     77382     77383     77382     77384     77382     77385
     77386     77387     77388     77392     77388     77389     77388     77390
     77388     77391     77392     77393     77394     77398     77394     77395
     77394     77396     77394     77397     77398     77399     77400     77404
     77400     77401     77400     77402     77400     77403     77404     77405
     77406     77410     77406     77407     77406     77408     77406     77409
     77410     77411     77412     77416     77412     77413     77412     77414
     77412     77415     77416     77417     77418     77422     77418     77419
     77418     77420     77418     77421     77422     77423     77424     77428
     77424     77425     77424     77426     77424     77427     77428     77429
     77430     77434     77430     77431     77430     77432     77430     77433
     77434     77435     77436     77440     77436     77437     77436     77438
     77436     77439     77440     77441     77442     77446     77442     77443
     77442     77444     77442     77445     77446     77447     77448     77452
     77448     77449     77448     77450     77448     77451     77452     77453
     77454     77458     77454     77455     77454     77456     77454     77457
     77458     77459     77460     77464     77460     77461     77460     77462
     77460     77463     77464     77465     77466     77470     77466     77467
     77466     77468     77466     77469     77470     77471     77472     77476
     77472     77473     77472     77474     77472     77475     77476     77477
     77478     77482     77478     77479     77478     77480     77478     77481
     77482     77483     77484     77488     77484     77485     77484     77486
     77484     77487     77488     77489     77490     77494     77490     77491
     77490     77492     77490     77493     77494     77495     77496     77500
     77496     77497     77496     77498     77496     77499     77500     77501
     77502     77506     77502     77503     77502     77504     77502     77505
     77506     77507     77508     77512     77508     77509     77508     77510
     77508     77511     77512     77513     77514     77518     77514     77515
     77514     77516     77514     77517     77518     77519     77520     77524
     77520     77521     77520     77522     77520     77523     77524     77525
     77526     77530     77526     77527     77526     77528     77526     77529
     77530     77531     77532     77536     77532     77533     77532     77534
     77532     77535     77536     77537     77538     77542     77538     77539
     77538     77540     77538     77541     77542     77543     77544     77548
     77544     77545     77544     77546     77544     77547     77548     77549
     77550     77554     77550     77551     77550     77552     77550     77553
     77554     77555     77556     77560     77556     77557     77556     77558
     77556     77559     77560     77561     77562     77566     77562     77563
     77562     77564     77562     77565     77566     77567     77568     77572
     77568     77569     77568     77570     77568     77571     77572     77573
     77574     77578     77574     77575     77574     77576     77574     77577
     77578     77579     77580     77584     77580     77581     77580     77582
     77580     77583     77584     77585     77586     77590     77586     77587
     77586     77588     77586     77589     77590     77591     77592     77596
     77592     77593     77592     77594     77592     77595     77596     77597
     77598     77602     77598     77599     77598     77600     77598     77601
     77602     77603     77604     77608     77604     77605     77604     77606
     77604     77607     77608     77609     77610     77614     77610     77611
     77610     77612     77610     77613     77614     77615     77616     77620
     77616     77617     77616     77618     77616     77619     77620     77621
     77622     77626     77622     77623     77622     77624     77622     77625
     77626     77627     77628     77632     77628     77629     77628     77630
     77628     77631     77632     77633     77634     77638     77634     77635
     77634     77636     77634     77637     77638     77639     77640     77644
     77640     77641     77640     77642     77640     77643     77644     77645
     77646     77650     77646     77647     77646     77648     77646     77649
     77650     77651     77652     77656     77652     77653     77652     77654
     77652     77655     77656     77657     77658     77662     77658     77659
     77658     77660     77658     77661     77662     77663     77664     77668
     77664     77665     77664     77666     77664     77667     77668     77669
     77670     77674     77670     77671     77670     77672     77670     77673
     77674     77675     77676     77680     77676     77677     77676     77678
     77676     77679     77680     77681     77682     77686     77682     77683
     77682     77684     77682     77685     77686     77687     77688     77692
     77688     77689     77688     77690     77688     77691     77692     77693
     77694     77698     77694     77695     77694     77696     77694     77697
     77698     77699     77700     77704     77700     77701     77700     77702
     77700     77703     77704     77705     77706     77710     77706     77707
     77706     77708     77706     77709     77710     77711     77712     77716
     77712     77713     77712     77714     77712     77715     77716     77717
     77718     77722     77718     77719     77718     77720     77718     77721
     77722     77723     77724     77728     77724     77725     77724     77726
     77724     77727     77728     77729     77730     77734     77730     77731
     77730     77732     77730     77733     77734     77735     77736     77740
     77736     77737     77736     77738     77736     77739     77740     77741
     77742     77746     77742     77743     77742     77744     77742     77745
     77746     77747     77748     77752     77748     77749     77748     77750
     77748     77751     77752     77753     77754     77758     77754     77755
     77754     77756     77754     77757     77758     77759     77760     77764
     77760     77761     77760     77762     77760     77763     77764     77765
     77766     77770     77766     77767     77766     77768     77766     77769
     77770     77771     77772     77776     77772     77773     77772     77774
     77772     77775     77776     77777     77778     77782     77778     77779
     77778     77780     77778     77781     77782     77783     77784     77788
     77784     77785     77784     77786     77784     77787     77788     77789
     77790     77794     77790     77791     77790     77792     77790     77793
     77794     77795     77796     77800     77796     77797     77796     77798
     77796     77799     77800     77801     77802     77806     77802     77803
     77802     77804     77802     77805     77806     77807     77808     77812
     77808     77809     77808     77810     77808     77811     77812     77813
     77814     77818     77814     77815     77814     77816     77814     77817
     77818     77819     77820     77824     77820     77821     77820     77822
     77820     77823     77824     77825     77826     77830     77826     77827
     77826     77828     77826     77829     77830     77831     77832     77836
     77832     77833     77832     77834     77832     77835     77836     77837
     77838     77842     77838     77839     77838     77840     77838     77841
     77842     77843     77844     77848     77844     77845     77844     77846
     77844     77847     77848     77849     77850     77854     77850     77851
     77850     77852     77850     77853     77854     77855     77856     77860
     77856     77857     77856     77858     77856     77859     77860     77861
     77862     77866     77862     77863     77862     77864     77862     77865
     77866     77867     77868     77872     77868     77869     77868     77870
     77868     77871     77872     77873     77874     77878     77874     77875
     77874     77876     77874     77877     77878     77879     77880     77884
     77880     77881     77880     77882     77880     77883     77884     77885
     77886     77890     77886     77887     77886     77888     77886     77889
     77890     77891     77892     77896     77892     77893     77892     77894
     77892     77895     77896     77897     77898     77902     77898     77899
     77898     77900     77898     77901     77902     77903     77904     77908
     77904     77905     77904     77906     77904     77907     77908     77909
     77910     77914     77910     77911     77910     77912     77910     77913
     77914     77915     77916     77920     77916     77917     77916     77918
     77916     77919     77920     77921     77922     77926     77922     77923
     77922     77924     77922     77925     77926     77927     77928     77932
     77928     77929     77928     77930     77928     77931     77932     77933
     77934     77938     77934     77935     77934     77936     77934     77937
     77938     77939     77940     77944     77940     77941     77940     77942
     77940     77943     77944     77945     77946     77950     77946     77947
     77946     77948     77946     77949     77950     77951     77952     77956
     77952     77953     77952     77954     77952     77955     77956     77957
     77958     77962     77958     77959     77958     77960     77958     77961
     77962     77963     77964     77968     77964     77965     77964     77966
     77964     77967     77968     77969     77970     77974     77970     77971
     77970     77972     77970     77973     77974     77975     77976     77980
     77976     77977     77976     77978     77976     77979     77980     77981
     77982     77986     77982     77983     77982     77984     77982     77985
     77986     77987     77988     77992     77988     77989     77988     77990
     77988     77991     77992     77993     77994     77998     77994     77995
     77994     77996     77994     77997     77998     77999     78000     78004
     78000     78001     78000     78002     78000     78003     78004     78005
     78006     78010     78006     78007     78006     78008     78006     78009
     78010     78011     78012     78016     78012     78013     78012     78014
     78012     78015     78016     78017     78018     78022     78018     78019
     78018     78020     78018     78021     78022     78023     78024     78028
     78024     78025     78024     78026     78024     78027     78028     78029
     78030     78034     78030     78031     78030     78032     78030     78033
     78034     78035     78036     78040     78036     78037     78036     78038
     78036     78039     78040     78041     78042     78046     78042     78043
     78042     78044     78042     78045     78046     78047     78048     78052
     78048     78049     78048     78050     78048     78051     78052     78053
     78054     78058     78054     78055     78054     78056     78054     78057
     78058     78059     78060     78064     78060     78061     78060     78062
     78060     78063     78064     78065     78066     78070     78066     78067
     78066     78068     78066     78069     78070     78071     78072     78076
     78072     78073     78072     78074     78072     78075     78076     78077
     78078     78082     78078     78079     78078     78080     78078     78081
     78082     78083     78084     78088     78084     78085     78084     78086
     78084     78087     78088     78089     78090     78094     78090     78091
     78090     78092     78090     78093     78094     78095     78096     78100
     78096     78097     78096     78098     78096     78099     78100     78101
     78102     78106     78102     78103     78102     78104     78102     78105
     78106     78107     78108     78112     78108     78109     78108     78110
     78108     78111     78112     78113     78114     78118     78114     78115
     78114     78116     78114     78117     78118     78119     78120     78124
     78120     78121     78120     78122     78120     78123     78124     78125
     78126     78130     78126     78127     78126     78128     78126     78129
     78130     78131     78132     78136     78132     78133     78132     78134
     78132     78135     78136     78137     78138     78142     78138     78139
     78138     78140     78138     78141     78142     78143     78144     78148
     78144     78145     78144     78146     78144     78147     78148     78149
     78150     78154     78150     78151     78150     78152     78150     78153
     78154     78155     78156     78160     78156     78157     78156     78158
     78156     78159     78160     78161     78162     78166     78162     78163
     78162     78164     78162     78165     78166     78167     78168     78172
     78168     78169     78168     78170     78168     78171     78172     78173
     78174     78178     78174     78175     78174     78176     78174     78177
     78178     78179     78180     78184     78180     78181     78180     78182
     78180     78183     78184     78185     78186     78190     78186     78187
     78186     78188     78186     78189     78190     78191     78192     78196
     78192     78193     78192     78194     78192     78195     78196     78197
     78198     78202     78198     78199     78198     78200     78198     78201
     78202     78203     78204     78208     78204     78205     78204     78206
     78204     78207     78208     78209     78210     78214     78210     78211
     78210     78212     78210     78213     78214     78215     78216     78220
     78216     78217     78216     78218     78216     78219     78220     78221
     78222     78226     78222     78223     78222     78224     78222     78225
     78226     78227     78228     78232     78228     78229     78228     78230
     78228     78231     78232     78233     78234     78238     78234     78235
     78234     78236     78234     78237     78238     78239     78240     78244
     78240     78241     78240     78242     78240     78243     78244     78245
     78246     78250     78246     78247     78246     78248     78246     78249
     78250     78251     78252     78256     78252     78253     78252     78254
     78252     78255     78256     78257     78258     78262     78258     78259
     78258     78260     78258     78261     78262     78263     78264     78268
     78264     78265     78264     78266     78264     78267     78268     78269
     78270     78274     78270     78271     78270     78272     78270     78273
     78274     78275     78276     78280     78276     78277     78276     78278
     78276     78279     78280     78281     78282     78286     78282     78283
     78282     78284     78282     78285     78286     78287     78288     78292
     78288     78289     78288     78290     78288     78291     78292     78293
     78294     78298     78294     78295     78294     78296     78294     78297
     78298     78299     78300     78304     78300     78301     78300     78302
     78300     78303     78304     78305     78306     78310     78306     78307
     78306     78308     78306     78309     78310     78311     78312     78316
     78312     78313     78312     78314     78312     78315     78316     78317
     78318     78322     78318     78319     78318     78320     78318     78321
     78322     78323     78324     78328     78324     78325     78324     78326
     78324     78327     78328     78329     78330     78334     78330     78331
     78330     78332     78330     78333     78334     78335     78336     78340
     78336     78337     78336     78338     78336     78339     78340     78341
     78342     78346     78342     78343     78342     78344     78342     78345
     78346     78347     78348     78352     78348     78349     78348     78350
     78348     78351     78352     78353     78354     78358     78354     78355
     78354     78356     78354     78357     78358     78359     78360     78364
     78360     78361     78360     78362     78360     78363     78364     78365
     78366     78370     78366     78367     78366     78368     78366     78369
     78370     78371     78372     78376     78372     78373     78372     78374
     78372     78375     78376     78377     78378     78382     78378     78379
     78378     78380     78378     78381     78382     78383     78384     78388
     78384     78385     78384     78386     78384     78387     78388     78389
     78390     78394     78390     78391     78390     78392     78390     78393
     78394     78395     78396     78400     78396     78397     78396     78398
     78396     78399     78400     78401     78402     78406     78402     78403
     78402     78404     78402     78405     78406     78407     78408     78412
     78408     78409     78408     78410     78408     78411     78412     78413
     78414     78418     78414     78415     78414     78416     78414     78417
     78418     78419     78420     78424     78420     78421     78420     78422
     78420     78423     78424     78425     78426     78430     78426     78427
     78426     78428     78426     78429     78430     78431     78432     78436
     78432     78433     78432     78434     78432     78435     78436     78437
     78438     78442     78438     78439     78438     78440     78438     78441
     78442     78443     78444     78448     78444     78445     78444     78446
     78444     78447     78448     78449     78450     78454     78450     78451
     78450     78452     78450     78453     78454     78455     78456     78460
     78456     78457     78456     78458     78456     78459     78460     78461
     78462     78466     78462     78463     78462     78464     78462     78465
     78466     78467     78468     78472     78468     78469     78468     78470
     78468     78471     78472     78473     78474     78478     78474     78475
     78474     78476     78474     78477     78478     78479     78480     78484
     78480     78481     78480     78482     78480     78483     78484     78485
     78486     78490     78486     78487     78486     78488     78486     78489
     78490     78491     78492     78496     78492     78493     78492     78494
     78492     78495     78496     78497     78498     78502     78498     78499
     78498     78500     78498     78501     78502     78503     78504     78508
     78504     78505     78504     78506     78504     78507     78508     78509
     78510     78514     78510     78511     78510     78512     78510     78513
     78514     78515     78516     78520     78516     78517     78516     78518
     78516     78519     78520     78521     78522     78526     78522     78523
     78522     78524     78522     78525     78526     78527     78528     78532
     78528     78529     78528     78530     78528     78531     78532     78533
     78534     78538     78534     78535     78534     78536     78534     78537
     78538     78539     78540     78544     78540     78541     78540     78542
     78540     78543     78544     78545     78546     78550     78546     78547
     78546     78548     78546     78549     78550     78551     78552     78556
     78552     78553     78552     78554     78552     78555     78556     78557
     78558     78562     78558     78559     78558     78560     78558     78561
     78562     78563     78564     78568     78564     78565     78564     78566
     78564     78567     78568     78569     78570     78574     78570     78571
     78570     78572     78570     78573     78574     78575     78576     78580
     78576     78577     78576     78578     78576     78579     78580     78581
     78582     78586     78582     78583     78582     78584     78582     78585
     78586     78587     78588     78592     78588     78589     78588     78590
     78588     78591     78592     78593     78594     78598     78594     78595
     78594     78596     78594     78597     78598     78599     78600     78604
     78600     78601     78600     78602     78600     78603     78604     78605
     78606     78610     78606     78607     78606     78608     78606     78609
     78610     78611     78612     78616     78612     78613     78612     78614
     78612     78615     78616     78617     78618     78622     78618     78619
     78618     78620     78618     78621     78622     78623     78624     78628
     78624     78625     78624     78626     78624     78627     78628     78629
     78630     78634     78630     78631     78630     78632     78630     78633
     78634     78635     78636     78640     78636     78637     78636     78638
     78636     78639     78640     78641     78642     78646     78642     78643
     78642     78644     78642     78645     78646     78647     78648     78652
     78648     78649     78648     78650     78648     78651     78652     78653
     78654     78658     78654     78655     78654     78656     78654     78657
     78658     78659     78660     78664     78660     78661     78660     78662
     78660     78663     78664     78665     78666     78670     78666     78667
     78666     78668     78666     78669     78670     78671     78672     78676
     78672     78673     78672     78674     78672     78675     78676     78677
     78678     78682     78678     78679     78678     78680     78678     78681
     78682     78683     78684     78688     78684     78685     78684     78686
     78684     78687     78688     78689     78690     78694     78690     78691
     78690     78692     78690     78693     78694     78695     78696     78700
     78696     78697     78696     78698     78696     78699     78700     78701
     78702     78706     78702     78703     78702     78704     78702     78705
     78706     78707     78708     78712     78708     78709     78708     78710
     78708     78711     78712     78713     78714     78718     78714     78715
     78714     78716     78714     78717     78718     78719     78720     78724
     78720     78721     78720     78722     78720     78723     78724     78725
     78726     78730     78726     78727     78726     78728     78726     78729
     78730     78731     78732     78736     78732     78733     78732     78734
     78732     78735     78736     78737     78738     78742     78738     78739
     78738     78740     78738     78741     78742     78743     78744     78748
     78744     78745     78744     78746     78744     78747     78748     78749
     78750     78754     78750     78751     78750     78752     78750     78753
     78754     78755     78756     78760     78756     78757     78756     78758
     78756     78759     78760     78761     78762     78766     78762     78763
     78762     78764     78762     78765     78766     78767     78768     78772
     78768     78769     78768     78770     78768     78771     78772     78773
     78774     78778     78774     78775     78774     78776     78774     78777
     78778     78779     78780     78784     78780     78781     78780     78782
     78780     78783     78784     78785     78786     78790     78786     78787
     78786     78788     78786     78789     78790     78791     78792     78796
     78792     78793     78792     78794     78792     78795     78796     78797
     78798     78802     78798     78799     78798     78800     78798     78801
     78802     78803     78804     78808     78804     78805     78804     78806
     78804     78807     78808     78809     78810     78814     78810     78811
     78810     78812     78810     78813     78814     78815     78816     78820
     78816     78817     78816     78818     78816     78819     78820     78821
     78822     78826     78822     78823     78822     78824     78822     78825
     78826     78827     78828     78832     78828     78829     78828     78830
     78828     78831     78832     78833     78834     78838     78834     78835
     78834     78836     78834     78837     78838     78839     78840     78844
     78840     78841     78840     78842     78840     78843     78844     78845
     78846     78850     78846     78847     78846     78848     78846     78849
     78850     78851     78852     78856     78852     78853     78852     78854
     78852     78855     78856     78857     78858     78862     78858     78859
     78858     78860     78858     78861     78862     78863     78864     78868
     78864     78865     78864     78866     78864     78867     78868     78869
     78870     78874     78870     78871     78870     78872     78870     78873
     78874     78875     78876     78880     78876     78877     78876     78878
     78876     78879     78880     78881     78882     78886     78882     78883
     78882     78884     78882     78885     78886     78887     78888     78892
     78888     78889     78888     78890     78888     78891     78892     78893
     78894     78898     78894     78895     78894     78896     78894     78897
     78898     78899     78900     78904     78900     78901     78900     78902
     78900     78903     78904     78905     78906     78910     78906     78907
     78906     78908     78906     78909     78910     78911     78912     78916
     78912     78913     78912     78914     78912     78915     78916     78917
     78918     78922     78918     78919     78918     78920     78918     78921
     78922     78923     78924     78928     78924     78925     78924     78926
     78924     78927     78928     78929     78930     78934     78930     78931
     78930     78932     78930     78933     78934     78935     78936     78940
     78936     78937     78936     78938     78936     78939     78940     78941
     78942     78946     78942     78943     78942     78944     78942     78945
     78946     78947     78948     78952     78948     78949     78948     78950
     78948     78951     78952     78953     78954     78958     78954     78955
     78954     78956     78954     78957     78958     78959     78960     78964
     78960     78961     78960     78962     78960     78963     78964     78965
     78966     78970     78966     78967     78966     78968     78966     78969
     78970     78971     78972     78976     78972     78973     78972     78974
     78972     78975     78976     78977     78978     78982     78978     78979
     78978     78980     78978     78981     78982     78983     78984     78988
     78984     78985     78984     78986     78984     78987     78988     78989
     78990     78994     78990     78991     78990     78992     78990     78993
     78994     78995     78996     79000     78996     78997     78996     78998
     78996     78999     79000     79001     79002     79006     79002     79003
     79002     79004     79002     79005     79006     79007     79008     79012
     79008     79009     79008     79010     79008     79011     79012     79013
     79014     79018     79014     79015     79014     79016     79014     79017
     79018     79019     79020     79024     79020     79021     79020     79022
     79020     79023     79024     79025     79026     79030     79026     79027
     79026     79028     79026     79029     79030     79031     79032     79036
     79032     79033     79032     79034     79032     79035     79036     79037
     79038     79042     79038     79039     79038     79040     79038     79041
     79042     79043     79044     79048     79044     79045     79044     79046
     79044     79047     79048     79049     79050     79054     79050     79051
     79050     79052     79050     79053     79054     79055     79056     79060
     79056     79057     79056     79058     79056     79059     79060     79061
     79062     79066     79062     79063     79062     79064     79062     79065
     79066     79067     79068     79072     79068     79069     79068     79070
     79068     79071     79072     79073     79074     79078     79074     79075
     79074     79076     79074     79077     79078     79079     79080     79084
     79080     79081     79080     79082     79080     79083     79084     79085
     79086     79090     79086     79087     79086     79088     79086     79089
     79090     79091     79092     79096     79092     79093     79092     79094
     79092     79095     79096     79097     79098     79102     79098     79099
     79098     79100     79098     79101     79102     79103     79104     79108
     79104     79105     79104     79106     79104     79107     79108     79109
     79110     79114     79110     79111     79110     79112     79110     79113
     79114     79115     79116     79120     79116     79117     79116     79118
     79116     79119     79120     79121     79122     79126     79122     79123
     79122     79124     79122     79125     79126     79127     79128     79132
     79128     79129     79128     79130     79128     79131     79132     79133
     79134     79138     79134     79135     79134     79136     79134     79137
     79138     79139     79140     79144     79140     79141     79140     79142
     79140     79143     79144     79145     79146     79150     79146     79147
     79146     79148     79146     79149     79150     79151     79152     79156
     79152     79153     79152     79154     79152     79155     79156     79157
     79158     79162     79158     79159     79158     79160     79158     79161
     79162     79163     79164     79168     79164     79165     79164     79166
     79164     79167     79168     79169     79170     79174     79170     79171
     79170     79172     79170     79173     79174     79175     79176     79180
     79176     79177     79176     79178     79176     79179     79180     79181
     79182     79186     79182     79183     79182     79184     79182     79185
     79186     79187     79188     79192     79188     79189     79188     79190
     79188     79191     79192     79193     79194     79198     79194     79195
     79194     79196     79194     79197     79198     79199     79200     79204
     79200     79201     79200     79202     79200     79203     79204     79205
     79206     79210     79206     79207     79206     79208     79206     79209
     79210     79211     79212     79216     79212     79213     79212     79214
     79212     79215     79216     79217     79218     79222     79218     79219
     79218     79220     79218     79221     79222     79223     79224     79228
     79224     79225     79224     79226     79224     79227     79228     79229
     79230     79234     79230     79231     79230     79232     79230     79233
     79234     79235     79236     79240     79236     79237     79236     79238
     79236     79239     79240     79241     79242     79246     79242     79243
     79242     79244     79242     79245     79246     79247     79248     79252
     79248     79249     79248     79250     79248     79251     79252     79253
     79254     79258     79254     79255     79254     79256     79254     79257
     79258     79259     79260     79264     79260     79261     79260     79262
     79260     79263     79264     79265     79266     79270     79266     79267
     79266     79268     79266     79269     79270     79271     79272     79276
     79272     79273     79272     79274     79272     79275     79276     79277
     79278     79282     79278     79279     79278     79280     79278     79281
     79282     79283     79284     79288     79284     79285     79284     79286
     79284     79287     79288     79289     79290     79294     79290     79291
     79290     79292     79290     79293     79294     79295     79296     79300
     79296     79297     79296     79298     79296     79299     79300     79301
     79302     79306     79302     79303     79302     79304     79302     79305
     79306     79307     79308     79312     79308     79309     79308     79310
     79308     79311     79312     79313     79314     79318     79314     79315
     79314     79316     79314     79317     79318     79319     79320     79324
     79320     79321     79320     79322     79320     79323     79324     79325
     79326     79330     79326     79327     79326     79328     79326     79329
     79330     79331     79332     79336     79332     79333     79332     79334
     79332     79335     79336     79337     79338     79342     79338     79339
     79338     79340     79338     79341     79342     79343     79344     79348
     79344     79345     79344     79346     79344     79347     79348     79349
     79350     79354     79350     79351     79350     79352     79350     79353
     79354     79355     79356     79360     79356     79357     79356     79358
     79356     79359     79360     79361     79362     79366     79362     79363
     79362     79364     79362     79365     79366     79367     79368     79372
     79368     79369     79368     79370     79368     79371     79372     79373
     79374     79378     79374     79375     79374     79376     79374     79377
     79378     79379     79380     79384     79380     79381     79380     79382
     79380     79383     79384     79385     79386     79390     79386     79387
     79386     79388     79386     79389     79390     79391     79392     79396
     79392     79393     79392     79394     79392     79395     79396     79397
     79398     79402     79398     79399     79398     79400     79398     79401
     79402     79403     79404     79408     79404     79405     79404     79406
     79404     79407     79408     79409     79410     79414     79410     79411
     79410     79412     79410     79413     79414     79415     79416     79420
     79416     79417     79416     79418     79416     79419     79420     79421
     79422     79426     79422     79423     79422     79424     79422     79425
     79426     79427     79428     79432     79428     79429     79428     79430
     79428     79431     79432     79433     79434     79438     79434     79435
     79434     79436     79434     79437     79438     79439     79440     79444
     79440     79441     79440     79442     79440     79443     79444     79445
     79446     79450     79446     79447     79446     79448     79446     79449
     79450     79451     79452     79456     79452     79453     79452     79454
     79452     79455     79456     79457     79458     79462     79458     79459
     79458     79460     79458     79461     79462     79463     79464     79468
     79464     79465     79464     79466     79464     79467     79468     79469
     79470     79474     79470     79471     79470     79472     79470     79473
     79474     79475     79476     79480     79476     79477     79476     79478
     79476     79479     79480     79481     79482     79486     79482     79483
     79482     79484     79482     79485     79486     79487     79488     79492
     79488     79489     79488     79490     79488     79491     79492     79493
     79494     79498     79494     79495     79494     79496     79494     79497
     79498     79499     79500     79504     79500     79501     79500     79502
     79500     79503     79504     79505     79506     79510     79506     79507
     79506     79508     79506     79509     79510     79511     79512     79516
     79512     79513     79512     79514     79512     79515     79516     79517
     79518     79522     79518     79519     79518     79520     79518     79521
     79522     79523     79524     79528     79524     79525     79524     79526
     79524     79527     79528     79529     79530     79534     79530     79531
     79530     79532     79530     79533     79534     79535     79536     79540
     79536     79537     79536     79538     79536     79539     79540     79541
     79542     79546     79542     79543     79542     79544     79542     79545
     79546     79547     79548     79552     79548     79549     79548     79550
     79548     79551     79552     79553     79554     79558     79554     79555
     79554     79556     79554     79557     79558     79559     79560     79564
     79560     79561     79560     79562     79560     79563     79564     79565
     79566     79570     79566     79567     79566     79568     79566     79569
     79570     79571     79572     79576     79572     79573     79572     79574
     79572     79575     79576     79577     79578     79582     79578     79579
     79578     79580     79578     79581     79582     79583     79584     79588
     79584     79585     79584     79586     79584     79587     79588     79589
     79590     79594     79590     79591     79590     79592     79590     79593
     79594     79595     79596     79600     79596     79597     79596     79598
     79596     79599     79600     79601     79602     79606     79602     79603
     79602     79604     79602     79605     79606     79607     79608     79612
     79608     79609     79608     79610     79608     79611     79612     79613
     79614     79618     79614     79615     79614     79616     79614     79617
     79618     79619     79620     79624     79620     79621     79620     79622
     79620     79623     79624     79625     79626     79630     79626     79627
     79626     79628     79626     79629     79630     79631     79632     79636
     79632     79633     79632     79634     79632     79635     79636     79637
     79638     79642     79638     79639     79638     79640     79638     79641
     79642     79643     79644     79648     79644     79645     79644     79646
     79644     79647     79648     79649     79650     79654     79650     79651
     79650     79652     79650     79653     79654     79655     79656     79660
     79656     79657     79656     79658     79656     79659     79660     79661
     79662     79666     79662     79663     79662     79664     79662     79665
     79666     79667     79668     79672     79668     79669     79668     79670
     79668     79671     79672     79673     79674     79678     79674     79675
     79674     79676     79674     79677     79678     79679     79680     79684
     79680     79681     79680     79682     79680     79683     79684     79685
     79686     79690     79686     79687     79686     79688     79686     79689
     79690     79691     79692     79696     79692     79693     79692     79694
     79692     79695     79696     79697     79698     79702     79698     79699
     79698     79700     79698     79701     79702     79703     79704     79708
     79704     79705     79704     79706     79704     79707     79708     79709
     79710     79714     79710     79711     79710     79712     79710     79713
     79714     79715     79716     79720     79716     79717     79716     79718
     79716     79719     79720     79721     79722     79726     79722     79723
     79722     79724     79722     79725     79726     79727     79728     79732
     79728     79729     79728     79730     79728     79731     79732     79733
     79734     79738     79734     79735     79734     79736     79734     79737
     79738     79739     79740     79744     79740     79741     79740     79742
     79740     79743     79744     79745     79746     79750     79746     79747
     79746     79748     79746     79749     79750     79751     79752     79756
     79752     79753     79752     79754     79752     79755     79756     79757
     79758     79762     79758     79759     79758     79760     79758     79761
     79762     79763     79764     79768     79764     79765     79764     79766
     79764     79767     79768     79769     79770     79774     79770     79771
     79770     79772     79770     79773     79774     79775     79776     79780
     79776     79777     79776     79778     79776     79779     79780     79781
     79782     79786     79782     79783     79782     79784     79782     79785
     79786     79787     79788     79792     79788     79789     79788     79790
     79788     79791     79792     79793     79794     79798     79794     79795
     79794     79796     79794     79797     79798     79799     79800     79804
     79800     79801     79800     79802     79800     79803     79804     79805
     79806     79810     79806     79807     79806     79808     79806     79809
     79810     79811     79812     79816     79812     79813     79812     79814
     79812     79815     79816     79817     79818     79822     79818     79819
     79818     79820     79818     79821     79822     79823     79824     79828
     79824     79825     79824     79826     79824     79827     79828     79829
     79830     79834     79830     79831     79830     79832     79830     79833
     79834     79835     79836     79840     79836     79837     79836     79838
     79836     79839     79840     79841     79842     79846     79842     79843
     79842     79844     79842     79845     79846     79847     79848     79852
     79848     79849     79848     79850     79848     79851     79852     79853
     79854     79858     79854     79855     79854     79856     79854     79857
     79858     79859     79860     79864     79860     79861     79860     79862
     79860     79863     79864     79865     79866     79870     79866     79867
     79866     79868     79866     79869     79870     79871     79872     79876
     79872     79873     79872     79874     79872     79875     79876     79877
     79878     79882     79878     79879     79878     79880     79878     79881
     79882     79883     79884     79888     79884     79885     79884     79886
     79884     79887     79888     79889     79890     79894     79890     79891
     79890     79892     79890     79893     79894     79895     79896     79900
     79896     79897     79896     79898     79896     79899     79900     79901
     79902     79906     79902     79903     79902     79904     79902     79905
     79906     79907     79908     79912     79908     79909     79908     79910
     79908     79911     79912     79913     79914     79918     79914     79915
     79914     79916     79914     79917     79918     79919     79920     79924
     79920     79921     79920     79922     79920     79923     79924     79925
     79926     79930     79926     79927     79926     79928     79926     79929
     79930     79931     79932     79936     79932     79933     79932     79934
     79932     79935     79936     79937     79938     79942     79938     79939
     79938     79940     79938     79941     79942     79943     79944     79948
     79944     79945     79944     79946     79944     79947     79948     79949
     79950     79954     79950     79951     79950     79952     79950     79953
     79954     79955     79956     79960     79956     79957     79956     79958
     79956     79959     79960     79961     79962     79966     79962     79963
     79962     79964     79962     79965     79966     79967     79968     79972
     79968     79969     79968     79970     79968     79971     79972     79973
     79974     79978     79974     79975     79974     79976     79974     79977
     79978     79979     79980     79984     79980     79981     79980     79982
     79980     79983     79984     79985     79986     79990     79986     79987
     79986     79988     79986     79989     79990     79991     79992     79996
     79992     79993     79992     79994     79992     79995     79996     79997
     79998     80002     79998     79999     79998     80000     79998     80001
     80002     80003     80004     80008     80004     80005     80004     80006
     80004     80007     80008     80009     80010     80014     80010     80011
     80010     80012     80010     80013     80014     80015     80016     80020
     80016     80017     80016     80018     80016     80019     80020     80021
     80022     80026     80022     80023     80022     80024     80022     80025
     80026     80027     80028     80032     80028     80029     80028     80030
     80028     80031     80032     80033     80034     80038     80034     80035
     80034     80036     80034     80037     80038     80039     80040     80044
     80040     80041     80040     80042     80040     80043     80044     80045
     80046     80050     80046     80047     80046     80048     80046     80049
     80050     80051     80052     80056     80052     80053     80052     80054
     80052     80055     80056     80057     80058     80062     80058     80059
     80058     80060     80058     80061     80062     80063     80064     80068
     80064     80065     80064     80066     80064     80067     80068     80069
     80070     80074     80070     80071     80070     80072     80070     80073
     80074     80075     80076     80080     80076     80077     80076     80078
     80076     80079     80080     80081     80082     80086     80082     80083
     80082     80084     80082     80085     80086     80087     80088     80092
     80088     80089     80088     80090     80088     80091     80092     80093
     80094     80098     80094     80095     80094     80096     80094     80097
     80098     80099     80100     80104     80100     80101     80100     80102
     80100     80103     80104     80105     80106     80110     80106     80107
     80106     80108     80106     80109     80110     80111     80112     80116
     80112     80113     80112     80114     80112     80115     80116     80117
     80118     80122     80118     80119     80118     80120     80118     80121
     80122     80123     80124     80128     80124     80125     80124     80126
     80124     80127     80128     80129     80130     80134     80130     80131
     80130     80132     80130     80133     80134     80135     80136     80140
     80136     80137     80136     80138     80136     80139     80140     80141
     80142     80146     80142     80143     80142     80144     80142     80145
     80146     80147     80148     80152     80148     80149     80148     80150
     80148     80151     80152     80153     80154     80158     80154     80155
     80154     80156     80154     80157     80158     80159     80160     80164
     80160     80161     80160     80162     80160     80163     80164     80165
     80166     80170     80166     80167     80166     80168     80166     80169
     80170     80171     80172     80176     80172     80173     80172     80174
     80172     80175     80176     80177     80178     80182     80178     80179
     80178     80180     80178     80181     80182     80183     80184     80188
     80184     80185     80184     80186     80184     80187     80188     80189
     80190     80194     80190     80191     80190     80192     80190     80193
     80194     80195     80196     80200     80196     80197     80196     80198
     80196     80199     80200     80201     80202     80206     80202     80203
     80202     80204     80202     80205     80206     80207     80208     80212
     80208     80209     80208     80210     80208     80211     80212     80213
     80214     80218     80214     80215     80214     80216     80214     80217
     80218     80219     80220     80224     80220     80221     80220     80222
     80220     80223     80224     80225     80226     80230     80226     80227
     80226     80228     80226     80229     80230     80231     80232     80236
     80232     80233     80232     80234     80232     80235     80236     80237
     80238     80242     80238     80239     80238     80240     80238     80241
     80242     80243     80244     80248     80244     80245     80244     80246
     80244     80247     80248     80249     80250     80254     80250     80251
     80250     80252     80250     80253     80254     80255     80256     80260
     80256     80257     80256     80258     80256     80259     80260     80261
     80262     80266     80262     80263     80262     80264     80262     80265
     80266     80267     80268     80272     80268     80269     80268     80270
     80268     80271     80272     80273     80274     80278     80274     80275
     80274     80276     80274     80277     80278     80279     80280     80284
     80280     80281     80280     80282     80280     80283     80284     80285
     80286     80290     80286     80287     80286     80288     80286     80289
     80290     80291     80292     80296     80292     80293     80292     80294
     80292     80295     80296     80297     80298     80302     80298     80299
     80298     80300     80298     80301     80302     80303     80304     80308
     80304     80305     80304     80306     80304     80307     80308     80309
     80310     80314     80310     80311     80310     80312     80310     80313
     80314     80315     80316     80320     80316     80317     80316     80318
     80316     80319     80320     80321     80322     80326     80322     80323
     80322     80324     80322     80325     80326     80327     80328     80332
     80328     80329     80328     80330     80328     80331     80332     80333
     80334     80338     80334     80335     80334     80336     80334     80337
     80338     80339     80340     80344     80340     80341     80340     80342
     80340     80343     80344     80345     80346     80350     80346     80347
     80346     80348     80346     80349     80350     80351     80352     80356
     80352     80353     80352     80354     80352     80355     80356     80357
     80358     80362     80358     80359     80358     80360     80358     80361
     80362     80363     80364     80368     80364     80365     80364     80366
     80364     80367     80368     80369     80370     80374     80370     80371
     80370     80372     80370     80373     80374     80375     80376     80380
     80376     80377     80376     80378     80376     80379     80380     80381
     80382     80386     80382     80383     80382     80384     80382     80385
     80386     80387     80388     80392     80388     80389     80388     80390
     80388     80391     80392     80393     80394     80398     80394     80395
     80394     80396     80394     80397     80398     80399     80400     80404
     80400     80401     80400     80402     80400     80403     80404     80405
     80406     80410     80406     80407     80406     80408     80406     80409
     80410     80411     80412     80416     80412     80413     80412     80414
     80412     80415     80416     80417     80418     80422     80418     80419
     80418     80420     80418     80421     80422     80423     80424     80428
     80424     80425     80424     80426     80424     80427     80428     80429
     80430     80434     80430     80431     80430     80432     80430     80433
     80434     80435     80436     80440     80436     80437     80436     80438
     80436     80439     80440     80441     80442     80446     80442     80443
     80442     80444     80442     80445     80446     80447     80448     80452
     80448     80449     80448     80450     80448     80451     80452     80453
     80454     80458     80454     80455     80454     80456     80454     80457
     80458     80459     80460     80464     80460     80461     80460     80462
     80460     80463     80464     80465     80466     80470     80466     80467
     80466     80468     80466     80469     80470     80471     80472     80476
     80472     80473     80472     80474     80472     80475     80476     80477
     80478     80482     80478     80479     80478     80480     80478     80481
     80482     80483     80484     80488     80484     80485     80484     80486
     80484     80487     80488     80489     80490     80494     80490     80491
     80490     80492     80490     80493     80494     80495     80496     80500
     80496     80497     80496     80498     80496     80499     80500     80501
     80502     80506     80502     80503     80502     80504     80502     80505
     80506     80507     80508     80512     80508     80509     80508     80510
     80508     80511     80512     80513     80514     80518     80514     80515
     80514     80516     80514     80517     80518     80519     80520     80524
     80520     80521     80520     80522     80520     80523     80524     80525
     80526     80530     80526     80527     80526     80528     80526     80529
     80530     80531     80532     80536     80532     80533     80532     80534
     80532     80535     80536     80537     80538     80542     80538     80539
     80538     80540     80538     80541     80542     80543     80544     80548
     80544     80545     80544     80546     80544     80547     80548     80549
     80550     80554     80550     80551     80550     80552     80550     80553
     80554     80555     80556     80560     80556     80557     80556     80558
     80556     80559     80560     80561     80562     80566     80562     80563
     80562     80564     80562     80565     80566     80567     80568     80572
     80568     80569     80568     80570     80568     80571     80572     80573
     80574     80578     80574     80575     80574     80576     80574     80577
     80578     80579     80580     80584     80580     80581     80580     80582
     80580     80583     80584     80585     80586     80590     80586     80587
     80586     80588     80586     80589     80590     80591     80592     80596
     80592     80593     80592     80594     80592     80595     80596     80597
     80598     80602     80598     80599     80598     80600     80598     80601
     80602     80603     80604     80608     80604     80605     80604     80606
     80604     80607     80608     80609     80610     80614     80610     80611
     80610     80612     80610     80613     80614     80615     80616     80620
     80616     80617     80616     80618     80616     80619     80620     80621
     80622     80626     80622     80623     80622     80624     80622     80625
     80626     80627     80628     80632     80628     80629     80628     80630
     80628     80631     80632     80633     80634     80638     80634     80635
     80634     80636     80634     80637     80638     80639     80640     80644
     80640     80641     80640     80642     80640     80643     80644     80645
     80646     80650     80646     80647     80646     80648     80646     80649
     80650     80651     80652     80656     80652     80653     80652     80654
     80652     80655     80656     80657     80658     80662     80658     80659
     80658     80660     80658     80661     80662     80663     80664     80668
     80664     80665     80664     80666     80664     80667     80668     80669
     80670     80674     80670     80671     80670     80672     80670     80673
     80674     80675     80676     80680     80676     80677     80676     80678
     80676     80679     80680     80681     80682     80686     80682     80683
     80682     80684     80682     80685     80686     80687     80688     80692
     80688     80689     80688     80690     80688     80691     80692     80693
     80694     80698     80694     80695     80694     80696     80694     80697
     80698     80699     80700     80704     80700     80701     80700     80702
     80700     80703     80704     80705     80706     80710     80706     80707
     80706     80708     80706     80709     80710     80711     80712     80716
     80712     80713     80712     80714     80712     80715     80716     80717
     80718     80722     80718     80719     80718     80720     80718     80721
     80722     80723     80724     80728     80724     80725     80724     80726
     80724     80727     80728     80729     80730     80734     80730     80731
     80730     80732     80730     80733     80734     80735     80736     80740
     80736     80737     80736     80738     80736     80739     80740     80741
     80742     80746     80742     80743     80742     80744     80742     80745
     80746     80747     80748     80752     80748     80749     80748     80750
     80748     80751     80752     80753     80754     80758     80754     80755
     80754     80756     80754     80757     80758     80759     80760     80764
     80760     80761     80760     80762     80760     80763     80764     80765
     80766     80770     80766     80767     80766     80768     80766     80769
     80770     80771     80772     80776     80772     80773     80772     80774
     80772     80775     80776     80777     80778     80782     80778     80779
     80778     80780     80778     80781     80782     80783     80784     80788
     80784     80785     80784     80786     80784     80787     80788     80789
     80790     80794     80790     80791     80790     80792     80790     80793
     80794     80795     80796     80800     80796     80797     80796     80798
     80796     80799     80800     80801     80802     80806     80802     80803
     80802     80804     80802     80805     80806     80807     80808     80812
     80808     80809     80808     80810     80808     80811     80812     80813
     80814     80818     80814     80815     80814     80816     80814     80817
     80818     80819     80820     80824     80820     80821     80820     80822
     80820     80823     80824     80825     80826     80830     80826     80827
     80826     80828     80826     80829     80830     80831     80832     80836
     80832     80833     80832     80834     80832     80835     80836     80837
     80838     80842     80838     80839     80838     80840     80838     80841
     80842     80843     80844     80848     80844     80845     80844     80846
     80844     80847     80848     80849     80850     80854     80850     80851
     80850     80852     80850     80853     80854     80855     80856     80860
     80856     80857     80856     80858     80856     80859     80860     80861
     80862     80866     80862     80863     80862     80864     80862     80865
     80866     80867     80868     80872     80868     80869     80868     80870
     80868     80871     80872     80873     80874     80878     80874     80875
     80874     80876     80874     80877     80878     80879     80880     80884
     80880     80881     80880     80882     80880     80883     80884     80885
     80886     80890     80886     80887     80886     80888     80886     80889
     80890     80891     80892     80896     80892     80893     80892     80894
     80892     80895     80896     80897     80898     80902     80898     80899
     80898     80900     80898     80901     80902     80903     80904     80908
     80904     80905     80904     80906     80904     80907     80908     80909
     80910     80914     80910     80911     80910     80912     80910     80913
     80914     80915     80916     80920     80916     80917     80916     80918
     80916     80919     80920     80921     80922     80926     80922     80923
     80922     80924     80922     80925     80926     80927     80928     80932
     80928     80929     80928     80930     80928     80931     80932     80933
     80934     80938     80934     80935     80934     80936     80934     80937
     80938     80939     80940     80944     80940     80941     80940     80942
     80940     80943     80944     80945     80946     80950     80946     80947
     80946     80948     80946     80949     80950     80951     80952     80956
     80952     80953     80952     80954     80952     80955     80956     80957
     80958     80962     80958     80959     80958     80960     80958     80961
     80962     80963     80964     80968     80964     80965     80964     80966
     80964     80967     80968     80969     80970     80974     80970     80971
     80970     80972     80970     80973     80974     80975     80976     80980
     80976     80977     80976     80978     80976     80979     80980     80981
     80982     80986     80982     80983     80982     80984     80982     80985
     80986     80987     80988     80992     80988     80989     80988     80990
     80988     80991     80992     80993     80994     80998     80994     80995
     80994     80996     80994     80997     80998     80999     81000     81004
     81000     81001     81000     81002     81000     81003     81004     81005
     81006     81010     81006     81007     81006     81008     81006     81009
     81010     81011     81012     81016     81012     81013     81012     81014
     81012     81015     81016     81017     81018     81022     81018     81019
     81018     81020     81018     81021     81022     81023     81024     81028
     81024     81025     81024     81026     81024     81027     81028     81029
     81030     81034     81030     81031     81030     81032     81030     81033
     81034     81035     81036     81040     81036     81037     81036     81038
     81036     81039     81040     81041     81042     81046     81042     81043
     81042     81044     81042     81045     81046     81047     81048     81052
     81048     81049     81048     81050     81048     81051     81052     81053
     81054     81058     81054     81055     81054     81056     81054     81057
     81058     81059     81060     81064     81060     81061     81060     81062
     81060     81063     81064     81065     81066     81070     81066     81067
     81066     81068     81066     81069     81070     81071     81072     81076
     81072     81073     81072     81074     81072     81075     81076     81077
     81078     81082     81078     81079     81078     81080     81078     81081
     81082     81083     81084     81088     81084     81085     81084     81086
     81084     81087     81088     81089     81090     81094     81090     81091
     81090     81092     81090     81093     81094     81095     81096     81100
     81096     81097     81096     81098     81096     81099     81100     81101
     81102     81106     81102     81103     81102     81104     81102     81105
     81106     81107     81108     81112     81108     81109     81108     81110
     81108     81111     81112     81113     81114     81118     81114     81115
     81114     81116     81114     81117     81118     81119     81120     81124
     81120     81121     81120     81122     81120     81123     81124     81125
     81126     81130     81126     81127     81126     81128     81126     81129
     81130     81131     81132     81136     81132     81133     81132     81134
     81132     81135     81136     81137     81138     81142     81138     81139
     81138     81140     81138     81141     81142     81143     81144     81148
     81144     81145     81144     81146     81144     81147     81148     81149
     81150     81154     81150     81151     81150     81152     81150     81153
     81154     81155     81156     81160     81156     81157     81156     81158
     81156     81159     81160     81161     81162     81166     81162     81163
     81162     81164     81162     81165     81166     81167     81168     81172
     81168     81169     81168     81170     81168     81171     81172     81173
     81174     81178     81174     81175     81174     81176     81174     81177
     81178     81179     81180     81184     81180     81181     81180     81182
     81180     81183     81184     81185     81186     81190     81186     81187
     81186     81188     81186     81189     81190     81191     81192     81196
     81192     81193     81192     81194     81192     81195     81196     81197
     81198     81202     81198     81199     81198     81200     81198     81201
     81202     81203     81204     81208     81204     81205     81204     81206
     81204     81207     81208     81209     81210     81214     81210     81211
     81210     81212     81210     81213     81214     81215     81216     81220
     81216     81217     81216     81218     81216     81219     81220     81221
     81222     81226     81222     81223     81222     81224     81222     81225
     81226     81227     81228     81232     81228     81229     81228     81230
     81228     81231     81232     81233     81234     81238     81234     81235
     81234     81236     81234     81237     81238     81239     81240     81244
     81240     81241     81240     81242     81240     81243     81244     81245
     81246     81250     81246     81247     81246     81248     81246     81249
     81250     81251     81252     81256     81252     81253     81252     81254
     81252     81255     81256     81257     81258     81262     81258     81259
     81258     81260     81258     81261     81262     81263     81264     81268
     81264     81265     81264     81266     81264     81267     81268     81269
     81270     81274     81270     81271     81270     81272     81270     81273
     81274     81275     81276     81280     81276     81277     81276     81278
     81276     81279     81280     81281     81282     81286     81282     81283
     81282     81284     81282     81285     81286     81287     81288     81292
     81288     81289     81288     81290     81288     81291     81292     81293
     81294     81298     81294     81295     81294     81296     81294     81297
     81298     81299     81300     81304     81300     81301     81300     81302
     81300     81303     81304     81305     81306     81310     81306     81307
     81306     81308     81306     81309     81310     81311     81312     81316
     81312     81313     81312     81314     81312     81315     81316     81317
     81318     81322     81318     81319     81318     81320     81318     81321
     81322     81323     81324     81328     81324     81325     81324     81326
     81324     81327     81328     81329     81330     81334     81330     81331
     81330     81332     81330     81333     81334     81335     81336     81340
     81336     81337     81336     81338     81336     81339     81340     81341
     81342     81346     81342     81343     81342     81344     81342     81345
     81346     81347     81348     81352     81348     81349     81348     81350
     81348     81351     81352     81353     81354     81358     81354     81355
     81354     81356     81354     81357     81358     81359     81360     81364
     81360     81361     81360     81362     81360     81363     81364     81365
     81366     81370     81366     81367     81366     81368     81366     81369
     81370     81371     81372     81376     81372     81373     81372     81374
     81372     81375     81376     81377     81378     81382     81378     81379
     81378     81380     81378     81381     81382     81383     81384     81388
     81384     81385     81384     81386     81384     81387     81388     81389
     81390     81394     81390     81391     81390     81392     81390     81393
     81394     81395     81396     81400     81396     81397     81396     81398
     81396     81399     81400     81401     81402     81406     81402     81403
     81402     81404     81402     81405     81406     81407     81408     81412
     81408     81409     81408     81410     81408     81411     81412     81413
     81414     81418     81414     81415     81414     81416     81414     81417
     81418     81419     81420     81424     81420     81421     81420     81422
     81420     81423     81424     81425     81426     81430     81426     81427
     81426     81428     81426     81429     81430     81431     81432     81436
     81432     81433     81432     81434     81432     81435     81436     81437
     81438     81442     81438     81439     81438     81440     81438     81441
     81442     81443     81444     81448     81444     81445     81444     81446
     81444     81447     81448     81449     81450     81454     81450     81451
     81450     81452     81450     81453     81454     81455     81456     81460
     81456     81457     81456     81458     81456     81459     81460     81461
     81462     81466     81462     81463     81462     81464     81462     81465
     81466     81467     81468     81472     81468     81469     81468     81470
     81468     81471     81472     81473     81474     81478     81474     81475
     81474     81476     81474     81477     81478     81479     81480     81484
     81480     81481     81480     81482     81480     81483     81484     81485
     81486     81490     81486     81487     81486     81488     81486     81489
     81490     81491     81492     81496     81492     81493     81492     81494
     81492     81495     81496     81497     81498     81502     81498     81499
     81498     81500     81498     81501     81502     81503     81504     81508
     81504     81505     81504     81506     81504     81507     81508     81509
     81510     81514     81510     81511     81510     81512     81510     81513
     81514     81515     81516     81520     81516     81517     81516     81518
     81516     81519     81520     81521     81522     81526     81522     81523
     81522     81524     81522     81525     81526     81527     81528     81532
     81528     81529     81528     81530     81528     81531     81532     81533
     81534     81538     81534     81535     81534     81536     81534     81537
     81538     81539     81540     81544     81540     81541     81540     81542
     81540     81543     81544     81545     81546     81550     81546     81547
     81546     81548     81546     81549     81550     81551     81552     81556
     81552     81553     81552     81554     81552     81555     81556     81557
     81558     81562     81558     81559     81558     81560     81558     81561
     81562     81563     81564     81568     81564     81565     81564     81566
     81564     81567     81568     81569     81570     81574     81570     81571
     81570     81572     81570     81573     81574     81575     81576     81580
     81576     81577     81576     81578     81576     81579     81580     81581
     81582     81586     81582     81583     81582     81584     81582     81585
     81586     81587     81588     81592     81588     81589     81588     81590
     81588     81591     81592     81593     81594     81598     81594     81595
     81594     81596     81594     81597     81598     81599     81600     81604
     81600     81601     81600     81602     81600     81603     81604     81605
     81606     81610     81606     81607     81606     81608     81606     81609
     81610     81611     81612     81616     81612     81613     81612     81614
     81612     81615     81616     81617     81618     81622     81618     81619
     81618     81620     81618     81621     81622     81623     81624     81628
     81624     81625     81624     81626     81624     81627     81628     81629
     81630     81634     81630     81631     81630     81632     81630     81633
     81634     81635     81636     81640     81636     81637     81636     81638
     81636     81639     81640     81641     81642     81646     81642     81643
     81642     81644     81642     81645     81646     81647     81648     81652
     81648     81649     81648     81650     81648     81651     81652     81653
     81654     81658     81654     81655     81654     81656     81654     81657
     81658     81659     81660     81664     81660     81661     81660     81662
     81660     81663     81664     81665     81666     81670     81666     81667
     81666     81668     81666     81669     81670     81671     81672     81676
     81672     81673     81672     81674     81672     81675     81676     81677
     81678     81682     81678     81679     81678     81680     81678     81681
     81682     81683     81684     81688     81684     81685     81684     81686
     81684     81687     81688     81689     81690     81694     81690     81691
     81690     81692     81690     81693     81694     81695     81696     81700
     81696     81697     81696     81698     81696     81699     81700     81701
     81702     81706     81702     81703     81702     81704     81702     81705
     81706     81707     81708     81712     81708     81709     81708     81710
     81708     81711     81712     81713     81714     81718     81714     81715
     81714     81716     81714     81717     81718     81719     81720     81724
     81720     81721     81720     81722     81720     81723     81724     81725
     81726     81730     81726     81727     81726     81728     81726     81729
     81730     81731     81732     81736     81732     81733     81732     81734
     81732     81735     81736     81737     81738     81742     81738     81739
     81738     81740     81738     81741     81742     81743     81744     81748
     81744     81745     81744     81746     81744     81747     81748     81749
     81750     81754     81750     81751     81750     81752     81750     81753
     81754     81755     81756     81760     81756     81757     81756     81758
     81756     81759     81760     81761     81762     81766     81762     81763
     81762     81764     81762     81765     81766     81767     81768     81772
     81768     81769     81768     81770     81768     81771     81772     81773
     81774     81778     81774     81775     81774     81776     81774     81777
     81778     81779     81780     81784     81780     81781     81780     81782
     81780     81783     81784     81785     81786     81790     81786     81787
     81786     81788     81786     81789     81790     81791     81792     81796
     81792     81793     81792     81794     81792     81795     81796     81797
     81798     81802     81798     81799     81798     81800     81798     81801
     81802     81803     81804     81808     81804     81805     81804     81806
     81804     81807     81808     81809     81810     81814     81810     81811
     81810     81812     81810     81813     81814     81815     81816     81820
     81816     81817     81816     81818     81816     81819     81820     81821
     81822     81826     81822     81823     81822     81824     81822     81825
     81826     81827     81828     81832     81828     81829     81828     81830
     81828     81831     81832     81833     81834     81838     81834     81835
     81834     81836     81834     81837     81838     81839     81840     81844
     81840     81841     81840     81842     81840     81843     81844     81845
     81846     81850     81846     81847     81846     81848     81846     81849
     81850     81851     81852     81856     81852     81853     81852     81854
     81852     81855     81856     81857     81858     81862     81858     81859
     81858     81860     81858     81861     81862     81863     81864     81868
     81864     81865     81864     81866     81864     81867     81868     81869
     81870     81874     81870     81871     81870     81872     81870     81873
     81874     81875     81876     81880     81876     81877     81876     81878
     81876     81879     81880     81881     81882     81886     81882     81883
     81882     81884     81882     81885     81886     81887     81888     81892
     81888     81889     81888     81890     81888     81891     81892     81893
     81894     81898     81894     81895     81894     81896     81894     81897
     81898     81899     81900     81904     81900     81901     81900     81902
     81900     81903     81904     81905     81906     81910     81906     81907
     81906     81908     81906     81909     81910     81911     81912     81916
     81912     81913     81912     81914     81912     81915     81916     81917
     81918     81922     81918     81919     81918     81920     81918     81921
     81922     81923     81924     81928     81924     81925     81924     81926
     81924     81927     81928     81929     81930     81934     81930     81931
     81930     81932     81930     81933     81934     81935     81936     81940
     81936     81937     81936     81938     81936     81939     81940     81941
     81942     81946     81942     81943     81942     81944     81942     81945
     81946     81947     81948     81952     81948     81949     81948     81950
     81948     81951     81952     81953     81954     81958     81954     81955
     81954     81956     81954     81957     81958     81959     81960     81964
     81960     81961     81960     81962     81960     81963     81964     81965
     81966     81970     81966     81967     81966     81968     81966     81969
     81970     81971     81972     81976     81972     81973     81972     81974
     81972     81975     81976     81977     81978     81982     81978     81979
     81978     81980     81978     81981     81982     81983     81984     81988
     81984     81985     81984     81986     81984     81987     81988     81989
     81990     81994     81990     81991     81990     81992     81990     81993
     81994     81995     81996     82000     81996     81997     81996     81998
     81996     81999     82000     82001     82002     82006     82002     82003
     82002     82004     82002     82005     82006     82007     82008     82012
     82008     82009     82008     82010     82008     82011     82012     82013
     82014     82018     82014     82015     82014     82016     82014     82017
     82018     82019     82020     82024     82020     82021     82020     82022
     82020     82023     82024     82025     82026     82030     82026     82027
     82026     82028     82026     82029     82030     82031     82032     82036
     82032     82033     82032     82034     82032     82035     82036     82037
     82038     82042     82038     82039     82038     82040     82038     82041
     82042     82043     82044     82048     82044     82045     82044     82046
     82044     82047     82048     82049     82050     82054     82050     82051
     82050     82052     82050     82053     82054     82055     82056     82060
     82056     82057     82056     82058     82056     82059     82060     82061
     82062     82066     82062     82063     82062     82064     82062     82065
     82066     82067     82068     82072     82068     82069     82068     82070
     82068     82071     82072     82073     82074     82078     82074     82075
     82074     82076     82074     82077     82078     82079     82080     82084
     82080     82081     82080     82082     82080     82083     82084     82085
     82086     82090     82086     82087     82086     82088     82086     82089
     82090     82091     82092     82096     82092     82093     82092     82094
     82092     82095     82096     82097     82098     82102     82098     82099
     82098     82100     82098     82101     82102     82103     82104     82108
     82104     82105     82104     82106     82104     82107     82108     82109
     82110     82114     82110     82111     82110     82112     82110     82113
     82114     82115     82116     82120     82116     82117     82116     82118
     82116     82119     82120     82121     82122     82126     82122     82123
     82122     82124     82122     82125     82126     82127     82128     82132
     82128     82129     82128     82130     82128     82131     82132     82133
     82134     82138     82134     82135     82134     82136     82134     82137
     82138     82139     82140     82144     82140     82141     82140     82142
     82140     82143     82144     82145     82146     82150     82146     82147
     82146     82148     82146     82149     82150     82151     82152     82156
     82152     82153     82152     82154     82152     82155     82156     82157
     82158     82162     82158     82159     82158     82160     82158     82161
     82162     82163     82164     82168     82164     82165     82164     82166
     82164     82167     82168     82169     82170     82174     82170     82171
     82170     82172     82170     82173     82174     82175     82176     82180
     82176     82177     82176     82178     82176     82179     82180     82181
     82182     82186     82182     82183     82182     82184     82182     82185
     82186     82187     82188     82192     82188     82189     82188     82190
     82188     82191     82192     82193     82194     82198     82194     82195
     82194     82196     82194     82197     82198     82199     82200     82204
     82200     82201     82200     82202     82200     82203     82204     82205
     82206     82210     82206     82207     82206     82208     82206     82209
     82210     82211     82212     82216     82212     82213     82212     82214
     82212     82215     82216     82217     82218     82222     82218     82219
     82218     82220     82218     82221     82222     82223     82224     82228
     82224     82225     82224     82226     82224     82227     82228     82229
     82230     82234     82230     82231     82230     82232     82230     82233
     82234     82235     82236     82240     82236     82237     82236     82238
     82236     82239     82240     82241     82242     82246     82242     82243
     82242     82244     82242     82245     82246     82247     82248     82252
     82248     82249     82248     82250     82248     82251     82252     82253
     82254     82258     82254     82255     82254     82256     82254     82257
     82258     82259     82260     82264     82260     82261     82260     82262
     82260     82263     82264     82265     82266     82270     82266     82267
     82266     82268     82266     82269     82270     82271     82272     82276
     82272     82273     82272     82274     82272     82275     82276     82277
     82278     82282     82278     82279     82278     82280     82278     82281
     82282     82283     82284     82288     82284     82285     82284     82286
     82284     82287     82288     82289     82290     82294     82290     82291
     82290     82292     82290     82293     82294     82295     82296     82300
     82296     82297     82296     82298     82296     82299     82300     82301
     82302     82306     82302     82303     82302     82304     82302     82305
     82306     82307     82308     82312     82308     82309     82308     82310
     82308     82311     82312     82313     82314     82318     82314     82315
     82314     82316     82314     82317     82318     82319     82320     82324
     82320     82321     82320     82322     82320     82323     82324     82325
     82326     82330     82326     82327     82326     82328     82326     82329
     82330     82331     82332     82336     82332     82333     82332     82334
     82332     82335     82336     82337     82338     82342     82338     82339
     82338     82340     82338     82341     82342     82343     82344     82348
     82344     82345     82344     82346     82344     82347     82348     82349
     82350     82354     82350     82351     82350     82352     82350     82353
     82354     82355     82356     82360     82356     82357     82356     82358
     82356     82359     82360     82361     82362     82366     82362     82363
     82362     82364     82362     82365     82366     82367     82368     82372
     82368     82369     82368     82370     82368     82371     82372     82373
     82374     82378     82374     82375     82374     82376     82374     82377
     82378     82379     82380     82384     82380     82381     82380     82382
     82380     82383     82384     82385     82386     82390     82386     82387
     82386     82388     82386     82389     82390     82391     82392     82396
     82392     82393     82392     82394     82392     82395     82396     82397
     82398     82402     82398     82399     82398     82400     82398     82401
     82402     82403     82404     82408     82404     82405     82404     82406
     82404     82407     82408     82409     82410     82414     82410     82411
     82410     82412     82410     82413     82414     82415     82416     82420
     82416     82417     82416     82418     82416     82419     82420     82421
     82422     82426     82422     82423     82422     82424     82422     82425
     82426     82427     82428     82432     82428     82429     82428     82430
     82428     82431     82432     82433     82434     82438     82434     82435
     82434     82436     82434     82437     82438     82439     82440     82444
     82440     82441     82440     82442     82440     82443     82444     82445
     82446     82450     82446     82447     82446     82448     82446     82449
     82450     82451     82452     82456     82452     82453     82452     82454
     82452     82455     82456     82457     82458     82462     82458     82459
     82458     82460     82458     82461     82462     82463     82464     82468
     82464     82465     82464     82466     82464     82467     82468     82469
     82470     82474     82470     82471     82470     82472     82470     82473
     82474     82475     82476     82480     82476     82477     82476     82478
     82476     82479     82480     82481     82482     82486     82482     82483
     82482     82484     82482     82485     82486     82487     82488     82492
     82488     82489     82488     82490     82488     82491     82492     82493
     82494     82498     82494     82495     82494     82496     82494     82497
     82498     82499     82500     82504     82500     82501     82500     82502
     82500     82503     82504     82505     82506     82510     82506     82507
     82506     82508     82506     82509     82510     82511     82512     82516
     82512     82513     82512     82514     82512     82515     82516     82517
     82518     82522     82518     82519     82518     82520     82518     82521
     82522     82523     82524     82528     82524     82525     82524     82526
     82524     82527     82528     82529     82530     82534     82530     82531
     82530     82532     82530     82533     82534     82535     82536     82540
     82536     82537     82536     82538     82536     82539     82540     82541
     82542     82546     82542     82543     82542     82544     82542     82545
     82546     82547     82548     82552     82548     82549     82548     82550
     82548     82551     82552     82553     82554     82558     82554     82555
     82554     82556     82554     82557     82558     82559     82560     82564
     82560     82561     82560     82562     82560     82563     82564     82565
     82566     82570     82566     82567     82566     82568     82566     82569
     82570     82571     82572     82576     82572     82573     82572     82574
     82572     82575     82576     82577     82578     82582     82578     82579
     82578     82580     82578     82581     82582     82583     82584     82588
     82584     82585     82584     82586     82584     82587     82588     82589
     82590     82594     82590     82591     82590     82592     82590     82593
     82594     82595     82596     82600     82596     82597     82596     82598
     82596     82599     82600     82601     82602     82606     82602     82603
     82602     82604     82602     82605     82606     82607     82608     82612
     82608     82609     82608     82610     82608     82611     82612     82613
     82614     82618     82614     82615     82614     82616     82614     82617
     82618     82619     82620     82624     82620     82621     82620     82622
     82620     82623     82624     82625     82626     82630     82626     82627
     82626     82628     82626     82629     82630     82631     82632     82636
     82632     82633     82632     82634     82632     82635     82636     82637
     82638     82642     82638     82639     82638     82640     82638     82641
     82642     82643     82644     82648     82644     82645     82644     82646
     82644     82647     82648     82649     82650     82654     82650     82651
     82650     82652     82650     82653     82654     82655     82656     82660
     82656     82657     82656     82658     82656     82659     82660     82661
     82662     82666     82662     82663     82662     82664     82662     82665
     82666     82667     82668     82672     82668     82669     82668     82670
     82668     82671     82672     82673     82674     82678     82674     82675
     82674     82676     82674     82677     82678     82679     82680     82684
     82680     82681     82680     82682     82680     82683     82684     82685
     82686     82690     82686     82687     82686     82688     82686     82689
     82690     82691     82692     82696     82692     82693     82692     82694
     82692     82695     82696     82697     82698     82702     82698     82699
     82698     82700     82698     82701     82702     82703     82704     82708
     82704     82705     82704     82706     82704     82707     82708     82709
     82710     82714     82710     82711     82710     82712     82710     82713
     82714     82715     82716     82720     82716     82717     82716     82718
     82716     82719     82720     82721     82722     82726     82722     82723
     82722     82724     82722     82725     82726     82727     82728     82732
     82728     82729     82728     82730     82728     82731     82732     82733
     82734     82738     82734     82735     82734     82736     82734     82737
     82738     82739     82740     82744     82740     82741     82740     82742
     82740     82743     82744     82745     82746     82750     82746     82747
     82746     82748     82746     82749     82750     82751     82752     82756
     82752     82753     82752     82754     82752     82755     82756     82757
     82758     82762     82758     82759     82758     82760     82758     82761
     82762     82763     82764     82768     82764     82765     82764     82766
     82764     82767     82768     82769     82770     82774     82770     82771
     82770     82772     82770     82773     82774     82775     82776     82780
     82776     82777     82776     82778     82776     82779     82780     82781
     82782     82786     82782     82783     82782     82784     82782     82785
     82786     82787     82788     82792     82788     82789     82788     82790
     82788     82791     82792     82793     82794     82798     82794     82795
     82794     82796     82794     82797     82798     82799     82800     82804
     82800     82801     82800     82802     82800     82803     82804     82805
     82806     82810     82806     82807     82806     82808     82806     82809
     82810     82811     82812     82816     82812     82813     82812     82814
     82812     82815     82816     82817     82818     82822     82818     82819
     82818     82820     82818     82821     82822     82823     82824     82828
     82824     82825     82824     82826     82824     82827     82828     82829
     82830     82834     82830     82831     82830     82832     82830     82833
     82834     82835     82836     82840     82836     82837     82836     82838
     82836     82839     82840     82841     82842     82846     82842     82843
     82842     82844     82842     82845     82846     82847     82848     82852
     82848     82849     82848     82850     82848     82851     82852     82853
     82854     82858     82854     82855     82854     82856     82854     82857
     82858     82859     82860     82864     82860     82861     82860     82862
     82860     82863     82864     82865     82866     82870     82866     82867
     82866     82868     82866     82869     82870     82871     82872     82876
     82872     82873     82872     82874     82872     82875     82876     82877
     82878     82882     82878     82879     82878     82880     82878     82881
     82882     82883     82884     82888     82884     82885     82884     82886
     82884     82887     82888     82889     82890     82894     82890     82891
     82890     82892     82890     82893     82894     82895     82896     82900
     82896     82897     82896     82898     82896     82899     82900     82901
     82902     82906     82902     82903     82902     82904     82902     82905
     82906     82907     82908     82912     82908     82909     82908     82910
     82908     82911     82912     82913     82914     82918     82914     82915
     82914     82916     82914     82917     82918     82919     82920     82924
     82920     82921     82920     82922     82920     82923     82924     82925
     82926     82930     82926     82927     82926     82928     82926     82929
     82930     82931     82932     82936     82932     82933     82932     82934
     82932     82935     82936     82937     82938     82942     82938     82939
     82938     82940     82938     82941     82942     82943     82944     82948
     82944     82945     82944     82946     82944     82947     82948     82949
     82950     82954     82950     82951     82950     82952     82950     82953
     82954     82955     82956     82960     82956     82957     82956     82958
     82956     82959     82960     82961     82962     82966     82962     82963
     82962     82964     82962     82965     82966     82967     82968     82972
     82968     82969     82968     82970     82968     82971     82972     82973
     82974     82978     82974     82975     82974     82976     82974     82977
     82978     82979     82980     82984     82980     82981     82980     82982
     82980     82983     82984     82985     82986     82990     82986     82987
     82986     82988     82986     82989     82990     82991     82992     82996
     82992     82993     82992     82994     82992     82995     82996     82997
     82998     83002     82998     82999     82998     83000     82998     83001
     83002     83003     83004     83008     83004     83005     83004     83006
     83004     83007     83008     83009     83010     83014     83010     83011
     83010     83012     83010     83013     83014     83015     83016     83020
     83016     83017     83016     83018     83016     83019     83020     83021
     83022     83026     83022     83023     83022     83024     83022     83025
     83026     83027     83028     83032     83028     83029     83028     83030
     83028     83031     83032     83033     83034     83038     83034     83035
     83034     83036     83034     83037     83038     83039     83040     83044
     83040     83041     83040     83042     83040     83043     83044     83045
     83046     83050     83046     83047     83046     83048     83046     83049
     83050     83051     83052     83056     83052     83053     83052     83054
     83052     83055     83056     83057     83058     83062     83058     83059
     83058     83060     83058     83061     83062     83063     83064     83068
     83064     83065     83064     83066     83064     83067     83068     83069
     83070     83074     83070     83071     83070     83072     83070     83073
     83074     83075     83076     83080     83076     83077     83076     83078
     83076     83079     83080     83081     83082     83086     83082     83083
     83082     83084     83082     83085     83086     83087     83088     83092
     83088     83089     83088     83090     83088     83091     83092     83093
     83094     83098     83094     83095     83094     83096     83094     83097
     83098     83099     83100     83104     83100     83101     83100     83102
     83100     83103     83104     83105     83106     83110     83106     83107
     83106     83108     83106     83109     83110     83111     83112     83116
     83112     83113     83112     83114     83112     83115     83116     83117
     83118     83122     83118     83119     83118     83120     83118     83121
     83122     83123     83124     83128     83124     83125     83124     83126
     83124     83127     83128     83129     83130     83134     83130     83131
     83130     83132     83130     83133     83134     83135     83136     83140
     83136     83137     83136     83138     83136     83139     83140     83141
     83142     83146     83142     83143     83142     83144     83142     83145
     83146     83147     83148     83152     83148     83149     83148     83150
     83148     83151     83152     83153     83154     83158     83154     83155
     83154     83156     83154     83157     83158     83159     83160     83164
     83160     83161     83160     83162     83160     83163     83164     83165
     83166     83170     83166     83167     83166     83168     83166     83169
     83170     83171     83172     83176     83172     83173     83172     83174
     83172     83175     83176     83177     83178     83182     83178     83179
     83178     83180     83178     83181     83182     83183     83184     83188
     83184     83185     83184     83186     83184     83187     83188     83189
     83190     83194     83190     83191     83190     83192     83190     83193
     83194     83195     83196     83200     83196     83197     83196     83198
     83196     83199     83200     83201     83202     83206     83202     83203
     83202     83204     83202     83205     83206     83207     83208     83212
     83208     83209     83208     83210     83208     83211     83212     83213
     83214     83218     83214     83215     83214     83216     83214     83217
     83218     83219     83220     83224     83220     83221     83220     83222
     83220     83223     83224     83225     83226     83230     83226     83227
     83226     83228     83226     83229     83230     83231     83232     83236
     83232     83233     83232     83234     83232     83235     83236     83237
     83238     83242     83238     83239     83238     83240     83238     83241
     83242     83243     83244     83248     83244     83245     83244     83246
     83244     83247     83248     83249     83250     83254     83250     83251
     83250     83252     83250     83253     83254     83255     83256     83260
     83256     83257     83256     83258     83256     83259     83260     83261
     83262     83266     83262     83263     83262     83264     83262     83265
     83266     83267     83268     83272     83268     83269     83268     83270
     83268     83271     83272     83273     83274     83278     83274     83275
     83274     83276     83274     83277     83278     83279     83280     83284
     83280     83281     83280     83282     83280     83283     83284     83285
     83286     83290     83286     83287     83286     83288     83286     83289
     83290     83291     83292     83296     83292     83293     83292     83294
     83292     83295     83296     83297     83298     83302     83298     83299
     83298     83300     83298     83301     83302     83303     83304     83308
     83304     83305     83304     83306     83304     83307     83308     83309
     83310     83314     83310     83311     83310     83312     83310     83313
     83314     83315     83316     83320     83316     83317     83316     83318
     83316     83319     83320     83321     83322     83326     83322     83323
     83322     83324     83322     83325     83326     83327     83328     83332
     83328     83329     83328     83330     83328     83331     83332     83333
     83334     83338     83334     83335     83334     83336     83334     83337
     83338     83339     83340     83344     83340     83341     83340     83342
     83340     83343     83344     83345     83346     83350     83346     83347
     83346     83348     83346     83349     83350     83351     83352     83356
     83352     83353     83352     83354     83352     83355     83356     83357
     83358     83362     83358     83359     83358     83360     83358     83361
     83362     83363     83364     83368     83364     83365     83364     83366
     83364     83367     83368     83369     83370     83374     83370     83371
     83370     83372     83370     83373     83374     83375     83376     83380
     83376     83377     83376     83378     83376     83379     83380     83381
     83382     83386     83382     83383     83382     83384     83382     83385
     83386     83387     83388     83392     83388     83389     83388     83390
     83388     83391     83392     83393     83394     83398     83394     83395
     83394     83396     83394     83397     83398     83399     83400     83404
     83400     83401     83400     83402     83400     83403     83404     83405
     83406     83410     83406     83407     83406     83408     83406     83409
     83410     83411     83412     83416     83412     83413     83412     83414
     83412     83415     83416     83417     83418     83422     83418     83419
     83418     83420     83418     83421     83422     83423     83424     83428
     83424     83425     83424     83426     83424     83427     83428     83429
     83430     83434     83430     83431     83430     83432     83430     83433
     83434     83435     83436     83440     83436     83437     83436     83438
     83436     83439     83440     83441     83442     83446     83442     83443
     83442     83444     83442     83445     83446     83447     83448     83452
     83448     83449     83448     83450     83448     83451     83452     83453
     83454     83458     83454     83455     83454     83456     83454     83457
     83458     83459     83460     83464     83460     83461     83460     83462
     83460     83463     83464     83465     83466     83470     83466     83467
     83466     83468     83466     83469     83470     83471

  105270 !NTHETA: angles
         1         2         3         1         6         5         1         6         7
         2         1         6         2         3         4         3         4         7
         3         4       181         4         7         6         4         7         8
         4       181       182         4       181       186         5         6         7
         5        10         9         5        10        11         6         5        10
         6         7         8         7         4       181         7         8        11
         7         8       185         8        11        10         8        11        12
         8       185       186         8       185       190         9        10        11
         9        14        13         9        14        15        10         9        14
        10        11        12        11         8       185        11        12        15
        11        12       189        12        15        14        12        15        16
        12       189       194        12       189       190        13        14        15
        13        18        17        13        18        19        14        13        18
        14        15        16        15        12       189        15        16        19
        15        16       193        16        19        18        16        19        20
        16       193       198        16       193       194        17        18        19
        17        22        21        17        22        23        18        17        22
        18        19        20        19        16       193        19        20        23
        19        20       197        20        23        22        20        23        24
        20       197       202        20       197       198        21        22        23
        21        26        25        21        26        27        22        21        26
        22        23        24        23        20       197        23        24        27
        23        24       201        24        27        26        24        27        28
        24       201       202        24       201       206        25        26        27
        25        30        29        25        30        31        26        25        30
        26        27        28        27        24       201        27        28        31
        27        28       205        28        31        30        28        31        32
        28       205       206        28       205       210        29        30        31
        29        34        33        29        34        35        30        29        34
        30        31        32        31        28       205        31        32        35
        31        32       209        32        35        34        32        35        36
        32       209       214        32       209       210        33        34        35
        33        38        37        33        38        39        34        33        38
        34        35        36        35        32       209        35        36        39
        35        36       213        36        39        38        36        39        40
        36       213       218        36       213       214        37        38        39
        37        42        41        37        42        43        38        37        42
        38        39        40        39        36       213        39        40        43
        39        40       217        40        43        42        40        43        44
        40       217       222        40       217       218        41        42        43
        41        46        45        41        46        47        42        41        46
        42        43        44        43        40       217        43        44        47
        43        44       221        44        47        46        44        47        48
        44       221       222        44       221       226        45        46        47
        45        50        49        45        50        51        46        45        50
        46        47        48        47        44       221        47        48        51
        47        48       225        48        51        50        48        51        52
        48       225       226        48       225       230        49        50        51
        49        54        53        49        54        55        50        49        54
        50        51        52        51        48       225        51        52        55
        51        52       229        52        55        54        52        55        56
        52       229       234        52       229       230        53        54        55
        53        58        57        53        58        59        54        53        58
        54        55        56        55        52       229        55        56        59
        55        56       233        56        59        58        56        59        60
        56       233       238        56       233       234        57        58        59
        57        62        61        57        62        63        58        57        62
        58        59        60        59        56       233        59        60        63
        59        60       237        60        63        62        60        63        64
        60       237       242        60       237       238        61        62        63
        61        66        65        61        66        67        62        61        66
        62        63        64        63        60       237        63        64        67
        63        64       241        64        67        66        64        67        68
        64       241       242        64       241       246        65        66        67
        65        70        69        65        70        71        66        65        70
        66        67        68        67        64       241        67        68        71
        67        68       245        68        71        70        68        71        72
        68       245       246        68       245       250        69        70        71
        69        74        73        69        74        75        70        69        74
        70        71        72        71        68       245        71        72        75
        71        72       249        72        75        74        72        75        76
        72       249       254        72       249       250        73        74        75
        73        78        77        73        78        79        74        73        78
        74        75        76        75        72       249        75        76        79
        75        76       253        76        79        78        76        79        80
        76       253       258        76       253       254        77        78        79
        77        82        81        77        82        83        78        77        82
        78        79        80        79        76       253        79        80        83
        79        80       257        80        83        82        80        83        84
        80       257       262        80       257       258        81        82        83
        81        86        85        81        86        87        82        81        86
        82        83        84        83        80       257        83        84        87
        83        84       261        84        87        86        84        87        88
        84       261       262        84       261       266        85        86        87
        85        90        89        85        90        91        86        85        90
        86        87        88        87        84       261        87        88        91
        87        88       265        88        91        90        88        91        92
        88       265       266        88       265       270        89        90        91
        89        94        93        89        94        95        90        89        94
        90        91        92        91        88       265        91        92        95
        91        92       269        92        95        94        92        95        96
        92       269       274        92       269       270        93        94        95
        93        98        97        93        98        99        94        93        98
        94        95        96        95        92       269        95        96        99
        95        96       273        96        99        98        96        99       100
        96       273       278        96       273       274        97        98        99
        97       102       101        97       102       103        98        97       102
        98        99       100        99        96       273        99       100       103
        99       100       277       100       103       102       100       103       104
       100       277       282       100       277       278       101       102       103
       101       106       105       101       106       107       102       101       106
       102       103       104       103       100       277       103       104       107
       103       104       281       104       107       106       104       107       108
       104       281       282       104       281       286       105       106       107
       105       110       109       105       110       111       106       105       110
       106       107       108       107       104       281       107       108       111
       107       108       285       108       111       110       108       111       112
       108       285       286       108       285       290       109       110       111
       109       114       113       109       114       115       110       109       114
       110       111       112       111       108       285       111       112       115
       111       112       289       112       115       114       112       115       116
       112       289       294       112       289       290       113       114       115
       113       118       117       113       118       119       114       113       118
       114       115       116       115       112       289       115       116       119
       115       116       293       116       119       118       116       119       120
       116       293       298       116       293       294       117       118       119
       117       122       121       117       122       123       118       117       122
       118       119       120       119       116       293       119       120       123
       119       120       297       120       123       122       120       123       124
       120       297       302       120       297       298       121       122       123
       121       126       125       121       126       127       122       121       126
       122       123       124       123       120       297       123       124       127
       123       124       301       124       127       126       124       127       128
       124       301       302       124       301       306       125       126       127
       125       130       129       125       130       131       126       125       130
       126       127       128       127       124       301       127       128       131
       127       128       305       128       131       130       128       131       132
       128       305       306       128       305       310       129       130       131
       129       134       133       129       134       135       130       129       134
       130       131       132       131       128       305       131       132       135
       131       132       309       132       135       134       132       135       136
       132       309       314       132       309       310       133       134       135
       133       138       137       133       138       139       134       133       138
       134       135       136       135       132       309       135       136       139
       135       136       313       136       139       138       136       139       140
       136       313       318       136       313       314       137       138       139
       137       142       141       137       142       143       138       137       142
       138       139       140       139       136       313       139       140       143
       139       140       317       140       143       142       140       143       144
       140       317       322       140       317       318       141       142       143
       141       146       145       141       146       147       142       141       146
       142       143       144       143       140       317       143       144       147
       143       144       321       144       147       146       144       147       148
       144       321       322       144       321       326       145       146       147
       145       150       149       145       150       151       146       145       150
       146       147       148       147       144       321       147       148       151
       147       148       325       148       151       150       148       151       152
       148       325       326       148       325       330       149       150       151
       149       154       153       149       154       155       150       149       154
       150       151       152       151       148       325       151       152       155
       151       152       329       152       155       154       152       155       156
       152       329       334       152       329       330       153       154       155
       153       158       157       153       158       159       154       153       158
       154       155       156       155       152       329       155       156       159
       155       156       333       156       159       158       156       159       160
       156       333       338       156       333       334       157       158       159
       157       162       161       157       162       163       158       157       162
       158       159       160       159       156       333       159       160       163
       159       160       337       160       163       162       160       163       164
       160       337       342       160       337       338       161       162       163
       161       166       165       161       166       167       162       161       166
       162       163       164       163       160       337       163       164       167
       163       164       341       164       167       166       164       167       168
       164       341       342       164       341       346       165       166       167
       165       170       169       165       170       171       166       165       170
       166       167       168       167       164       341       167       168       171
       167       168       345       168       171       170       168       171       172
       168       345       346       168       345       350       169       170       171
       169       174       173       169       174       175       170       169       174
       170       171       172       171       168       345       171       172       175
       171       172       349       172       175       174       172       175       176
       172       349       354       172       349       350       173       174       175
       173       178       177       173       178       179       174       173       178
       174       175       176       175       172       349       175       176       179
       175       176       353       176       179       178       176       179       180
       176       353       354       176       353       358       177       178       179
       178       179       180       179       176       353       179       180       357
       180       357       358       181       182       183       181       186       185
       181       186       187       182       181       186       182       183       184
       183       184       187       183       184       361       184       187       186
       184       187       188       184       361       362       184       361       366
       185       186       187       185       190       189       185       190       191
       186       185       190       186       187       188       187       184       361
       187       188       191       187       188       365       188       191       190
       188       191       192       188       365       366       188       365       370
       189       190       191       189       194       193       189       194       195
       190       189       194       190       191       192       191       188       365
       191       192       195       191       192       369       192       195       194
       192       195       196       192       369       374       192       369       370
       193       194       195       193       198       197       193       198       199
       194       193       198       194       195       196       195       192       369
       195       196       199       195       196       373       196       199       198
       196       199       200       196       373       374       196       373       378
       197       198       199       197       202       201       197       202       203
       198       197       202       198       199       200       199       196       373
       199       200       203       199       200       377       200       203       202
       200       203       204       200       377       382       200       377       378
       201       202       203       201       206       205       201       206       207
       202       201       206       202       203       204       203       200       377
       203       204       207       203       204       381       204       207       206
       204       207       208       204       381       382       204       381       386
       205       206       207       205       210       209       205       210       211
       206       205       210       206       207       208       207       204       381
       207       208       211       207       208       385       208       211       210
       208       211       212       208       385       386       208       385       390
       209       210       211       209       214       213       209       214       215
       210       209       214       210       211       212       211       208       385
       211       212       215       211       212       389       212       215       214
       212       215       216       212       389       394       212       389       390
       213       214       215       213       218       217       213       218       219
       214       213       218       214       215       216       215       212       389
       215       216       219       215       216       393       216       219       218
       216       219       220       216       393       398       216       393       394
       217       218       219       217       222       221       217       222       223
       218       217       222       218       219       220       219       216       393
       219       220       223       219       220       397       220       223       222
       220       223       224       220       397       402       220       397       398
       221       222       223       221       226       225       221       226       227
       222       221       226       222       223       224       223       220       397
       223       224       227       223       224       401       224       227       226
       224       227       228       224       401       402       224       401       406
       225       226       227       225       230       229       225       230       231
       226       225       230       226       227       228       227       224       401
       227       228       231       227       228       405       228       231       230
       228       231       232       228       405       406       228       405       410
       229       230       231       229       234       233       229       234       235
       230       229       234       230       231       232       231       228       405
       231       232       235       231       232       409       232       235       234
       232       235       236       232       409       414       232       409       410
       233       234       235       233       238       237       233       238       239
       234       233       238       234       235       236       235       232       409
       235       236       239       235       236       413       236       239       238
       236       239       240       236       413       418       236       413       414
       237       238       239       237       242       241       237       242       243
       238       237       242       238       239       240       239       236       413
       239       240       243       239       240       417       240       243       242
       240       243       244       240       417       422       240       417       418
       241       242       243       241       246       245       241       246       247
       242       241       246       242       243       244       243       240       417
       243       244       247       243       244       421       244       247       246
       244       247       248       244       421       422       244       421       426
       245       246       247       245       250       249       245       250       251
       246       245       250       246       247       248       247       244       421
       247       248       251       247       248       425       248       251       250
       248       251       252       248       425       426       248       425       430
       249       250       251       249       254       253       249       254       255
       250       249       254       250       251       252       251       248       425
       251       252       255       251       252       429       252       255       254
       252       255       256       252       429       434       252       429       430
       253       254       255       253       258       257       253       258       259
       254       253       258       254       255       256       255       252       429
       255       256       259       255       256       433       256       259       258
       256       259       260       256       433       438       256       433       434
       257       258       259       257       262       261       257       262       263
       258       257       262       258       259       260       259       256       433
       259       260       263       259       260       437       260       263       262
       260       263       264       260       437       442       260       437       438
       261       262       263       261       266       265       261       266       267
       262       261       266       262       263       264       263       260       437
       263       264       267       263       264       441       264       267       266
       264       267       268       264       441       442       264       441       446
       265       266       267       265       270       269       265       270       271
       266       265       270       266       267       268       267       264       441
       267       268       271       267       268       445       268       271       270
       268       271       272       268       445       446       268       445       450
       269       270       271       269       274       273       269       274       275
       270       269       274       270       271       272       271       268       445
       271       272       275       271       272       449       272       275       274
       272       275       276       272       449       454       272       449       450
       273       274       275       273       278       277       273       278       279
       274       273       278       274       275       276       275       272       449
       275       276       279       275       276       453       276       279       278
       276       279       280       276       453       458       276       453       454
       277       278       279       277       282       281       277       282       283
       278       277       282       278       279       280       279       276       453
       279       280       283       279       280       457       280       283       282
       280       283       284       280       457       462       280       457       458
       281       282       283       281       286       285       281       286       287
       282       281       286       282       283       284       283       280       457
       283       284       287       283       284       461       284       287       286
       284       287       288       284       461       462       284       461       466
       285       286       287       285       290       289       285       290       291
       286       285       290       286       287       288       287       284       461
       287       288       291       287       288       465       288       291       290
       288       291       292       288       465       466       288       465       470
       289       290       291       289       294       293       289       294       295
       290       289       294       290       291       292       291       288       465
       291       292       295       291       292       469       292       295       294
       292       295       296       292       469       474       292       469       470
       293       294       295       293       298       297       293       298       299
       294       293       298       294       295       296       295       292       469
       295       296       299       295       296       473       296       299       298
       296       299       300       296       473       478       296       473       474
       297       298       299       297       302       301       297       302       303
       298       297       302       298       299       300       299       296       473
       299       300       303       299       300       477       300       303       302
       300       303       304       300       477       482       300       477       478
       301       302       303       301       306       305       301       306       307
       302       301       306       302       303       304       303       300       477
       303       304       307       303       304       481       304       307       306
       304       307       308       304       481       482       304       481       486
       305       306       307       305       310       309       305       310       311
       306       305       310       306       307       308       307       304       481
       307       308       311       307       308       485       308       311       310
       308       311       312       308       485       486       308       485       490
       309       310       311       309       314       313       309       314       315
       310       309       314       310       311       312       311       308       485
       311       312       315       311       312       489       312       315       314
       312       315       316       312       489       494       312       489       490
       313       314       315       313       318       317       313       318       319
       314       313       318       314       315       316       315       312       489
       315       316       319       315       316       493       316       319       318
       316       319       320       316       493       498       316       493       494
       317       318       319       317       322       321       317       322       323
       318       317       322       318       319       320       319       316       493
       319       320       323       319       320       497       320       323       322
       320       323       324       320       497       502       320       497       498
       321       322       323       321       326       325       321       326       327
       322       321       326       322       323       324       323       320       497
       323       324       327       323       324       501       324       327       326
       324       327       328       324       501       502       324       501       506
       325       326       327       325       330       329       325       330       331
       326       325       330       326       327       328       327       324       501
       327       328       331       327       328       505       328       331       330
       328       331       332       328       505       506       328       505       510
       329       330       331       329       334       333       329       334       335
       330       329       334       330       331       332       331       328       505
       331       332       335       331       332       509       332       335       334
       332       335       336       332       509       514       332       509       510
       333       334       335       333       338       337       333       338       339
       334       333       338       334       335       336       335       332       509
       335       336       339       335       336       513       336       339       338
       336       339       340       336       513       518       336       513       514
       337       338       339       337       342       341       337       342       343
       338       337       342       338       339       340       339       336       513
       339       340       343       339       340       517       340       343       342
       340       343       344       340       517       522       340       517       518
       341       342       343       341       346       345       341       346       347
       342       341       346       342       343       344       343       340       517
       343       344       347       343       344       521       344       347       346
       344       347       348       344       521       522       344       521       526
       345       346       347       345       350       349       345       350       351
       346       345       350       346       347       348       347       344       521
       347       348       351       347       348       525       348       351       350
       348       351       352       348       525       526       348       525       530
       349       350       351       349       354       353       349       354       355
       350       349       354       350       351       352       351       348       525
       351       352       355       351       352       529       352       355       354
       352       355       356       352       529       534       352       529       530
       353       354       355       353       358       357       353       358       359
       354       353       358       354       355       356       355       352       529
       355       356       359       355       356       533       356       359       358
       356       359       360       356       533       538       356       533       534
       357       358       359       358       359       360       359       356       533
       359       360       537       360       537       538       361       362       363
       361       366       365       361       366       367       362       361       366
       362       363       364       363       364       367       363       364       541
       364       367       366       364       367       368       364       541       542
       364       541       546       365       366       367       365       370       369
       365       370       371       366       365       370       366       367       368
       367       364       541       367       368       371       367       368       545
       368       371       370       368       371       372       368       545       546
       368       545       550       369       370       371       369       374       373
       369       374       375       370       369       374       370       371       372
       371       368       545       371       372       375       371       372       549
       372       375       374       372       375       376       372       549       554
       372       549       550       373       374       375       373       378       377
       373       378       379       374       373       378       374       375       376
       375       372       549       375       376       379       375       376       553
       376       379       378       376       379       380       376       553       558
       376       553       554       377       378       379       377       382       381
       377       382       383       378       377       382       378       379       380
       379       376       553       379       380       383       379       380       557
       380       383       382       380       383       384       380       557       562
       380       557       558       381       382       383       381       386       385
       381       386       387       382       381       386       382       383       384
       383       380       557       383       384       387       383       384       561
       384       387       386       384       387       388       384       561       562
       384       561       566       385       386       387       385       390       389
       385       390       391       386       385       390       386       387       388
       387       384       561       387       388       391       387       388       565
       388       391       390       388       391       392       388       565       566
       388       565       570       389       390       391       389       394       393
       389       394       395       390       389       394       390       391       392
       391       388       565       391       392       395       391       392       569
       392       395       394       392       395       396       392       569       574
       392       569       570       393       394       395       393       398       397
       393       398       399       394       393       398       394       395       396
       395       392       569       395       396       399       395       396       573
       396       399       398       396       399       400       396       573       578
       396       573       574       397       398       399       397       402       401
       397       402       403       398       397       402       398       399       400
       399       396       573       399       400       403       399       400       577
       400       403       402       400       403       404       400       577       582
       400       577       578       401       402       403       401       406       405
       401       406       407       402       401       406       402       403       404
       403       400       577       403       404       407       403       404       581
       404       407       406       404       407       408       404       581       582
       404       581       586       405       406       407       405       410       409
       405       410       411       406       405       410       406       407       408
       407       404       581       407       408       411       407       408       585
       408       411       410       408       411       412       408       585       586
       408       585       590       409       410       411       409       414       413
       409       414       415       410       409       414       410       411       412
       411       408       585       411       412       415       411       412       589
       412       415       414       412       415       416       412       589       594
       412       589       590       413       414       415       413       418       417
       413       418       419       414       413       418       414       415       416
       415       412       589       415       416       419       415       416       593
       416       419       418       416       419       420       416       593       594
       416       593       598       417       418       419       417       422       421
       417       422       423       418       417       422       418       419       420
       419       416       593       419       420       423       419       420       597
       420       423       422       420       423       424       420       597       602
       420       597       598       421       422       423       421       426       425
       421       426       427       422       421       426       422       423       424
       423       420       597       423       424       427       423       424       601
       424       427       426       424       427       428       424       601       602
       424       601       606       425       426       427       425       430       429
       425       430       431       426       425       430       426       427       428
       427       424       601       427       428       431       427       428       605
       428       431       430       428       431       432       428       605       606
       428       605       610       429       430       431       429       434       433
       429       434       435       430       429       434       430       431       432
       431       428       605       431       432       435       431       432       609
       432       435       434       432       435       436       432       609       614
       432       609       610       433       434       435       433       438       437
       433       438       439       434       433       438       434       435       436
       435       432       609       435       436       439       435       436       613
       436       439       438       436       439       440       436       613       618
       436       613       614       437       438       439       437       442       441
       437       442       443       438       437       442       438       439       440
       439       436       613       439       440       443       439       440       617
       440       443       442       440       443       444       440       617       622
       440       617       618       441       442       443       441       446       445
       441       446       447       442       441       446       442       443       444
       443       440       617       443       444       447       443       444       621
       444       447       446       444       447       448       444       621       622
       444       621       626       445       446       447       445       450       449
       445       450       451       446       445       450       446       447       448
       447       444       621       447       448       451       447       448       625
       448       451       450       448       451       452       448       625       626
       448       625       630       449       450       451       449       454       453
       449       454       455       450       449       454       450       451       452
       451       448       625       451       452       455       451       452       629
       452       455       454       452       455       456       452       629       634
       452       629       630       453       454       455       453       458       457
       453       458       459       454       453       458       454       455       456
       455       452       629       455       456       459       455       456       633
       456       459       458       456       459       460       456       633       638
       456       633       634       457       458       459       457       462       461
       457       462       463       458       457       462       458       459       460
       459       456       633       459       460       463       459       460       637
       460       463       462       460       463       464       460       637       642
       460       637       638       461       462       463       461       466       465
       461       466       467       462       461       466       462       463       464
       463       460       637       463       464       467       463       464       641
       464       467       466       464       467       468       464       641       642
       464       641       646       465       466       467       465       470       469
       465       470       471       466       465       470       466       467       468
       467       464       641       467       468       471       467       468       645
       468       471       470       468       471       472       468       645       646
       468       645       650       469       470       471       469       474       473
       469       474       475       470       469       474       470       471       472
       471       468       645       471       472       475       471       472       649
       472       475       474       472       475       476       472       649       654
       472       649       650       473       474       475       473       478       477
       473       478       479       474       473       478       474       475       476
       475       472       649       475       476       479       475       476       653
       476       479       478       476       479       480       476       653       658
       476       653       654       477       478       479       477       482       481
       477       482       483       478       477       482       478       479       480
       479       476       653       479       480       483       479       480       657
       480       483       482       480       483       484       480       657       662
       480       657       658       481       482       483       481       486       485
       481       486       487       482       481       486       482       483       484
       483       480       657       483       484       487       483       484       661
       484       487       486       484       487       488       484       661       662
       484       661       666       485       486       487       485       490       489
       485       490       491       486       485       490       486       487       488
       487       484       661       487       488       491       487       488       665
       488       491       490       488       491       492       488       665       666
       488       665       670       489       490       491       489       494       493
       489       494       495       490       489       494       490       491       492
       491       488       665       491       492       495       491       492       669
       492       495       494       492       495       496       492       669       674
       492       669       670       493       494       495       493       498       497
       493       498       499       494       493       498       494       495       496
       495       492       669       495       496       499       495       496       673
       496       499       498       496       499       500       496       673       678
       496       673       674       497       498       499       497       502       501
       497       502       503       498       497       502       498       499       500
       499       496       673       499       500       503       499       500       677
       500       503       502       500       503       504       500       677       682
       500       677       678       501       502       503       501       506       505
       501       506       507       502       501       506       502       503       504
       503       500       677       503       504       507       503       504       681
       504       507       506       504       507       508       504       681       682
       504       681       686       505       506       507       505       510       509
       505       510       511       506       505       510       506       507       508
       507       504       681       507       508       511       507       508       685
       508       511       510       508       511       512       508       685       686
       508       685       690       509       510       511       509       514       513
       509       514       515       510       509       514       510       511       512
       511       508       685       511       512       515       511       512       689
       512       515       514       512       515       516       512       689       694
       512       689       690       513       514       515       513       518       517
       513       518       519       514       513       518       514       515       516
       515       512       689       515       516       519       515       516       693
       516       519       518       516       519       520       516       693       698
       516       693       694       517       518       519       517       522       521
       517       522       523       518       517       522       518       519       520
       519       516       693       519       520       523       519       520       697
       520       523       522       520       523       524       520       697       702
       520       697       698       521       522       523       521       526       525
       521       526       527       522       521       526       522       523       524
       523       520       697       523       524       527       523       524       701
       524       527       526       524       527       528       524       701       702
       524       701       706       525       526       527       525       530       529
       525       530       531       526       525       530       526       527       528
       527       524       701       527       528       531       527       528       705
       528       531       530       528       531       532       528       705       706
       528       705       710       529       530       531       529       534       533
       529       534       535       530       529       534       530       531       532
       531       528       705       531       532       535       531       532       709
       532       535       534       532       535       536       532       709       714
       532       709       710       533       534       535       533       538       537
       533       538       539       534       533       538       534       535       536
       535       532       709       535       536       539       535       536       713
       536       539       538       536       539       540       536       713       718
       536       713       714       537       538       539       538       539       540
       539       536       713       539       540       717       540       717       718
       541       542       543       541       546       545       541       546       547
       542       541       546       542       543       544       543       544       547
       543       544       721       544       547       546       544       547       548
       544       721       722       544       721       726       545       546       547
       545       550       549       545       550       551       546       545       550
       546       547       548       547       544       721       547       548       551
       547       548       725       548       551       550       548       551       552
       548       725       726       548       725       730       549       550       551
       549       554       553       549       554       555       550       549       554
       550       551       552       551       548       725       551       552       555
       551       552       729       552       555       554       552       555       556
       552       729       734       552       729       730       553       554       555
       553       558       557       553       558       559       554       553       558
       554       555       556       555       552       729       555       556       559
       555       556       733       556       559       558       556       559       560
       556       733       738       556       733       734       557       558       559
       557       562       561       557       562       563       558       557       562
       558       559       560       559       556       733       559       560       563
       559       560       737       560       563       562       560       563       564
       560       737       742       560       737       738       561       562       563
       561       566       565       561       566       567       562       561       566
       562       563       564       563       560       737       563       564       567
       563       564       741       564       567       566       564       567       568
       564       741       742       564       741       746       565       566       567
       565       570       569       565       570       571       566       565       570
       566       567       568       567       564       741       567       568       571
       567       568       745       568       571       570       568       571       572
       568       745       746       568       745       750       569       570       571
       569       574       573       569       574       575       570       569       574
       570       571       572       571       568       745       571       572       575
       571       572       749       572       575       574       572       575       576
       572       749       754       572       749       750       573       574       575
       573       578       577       573       578       579       574       573       578
       574       575       576       575       572       749       575       576       579
       575       576       753       576       579       578       576       579       580
       576       753       758       576       753       754       577       578       579
       577       582       581       577       582       583       578       577       582
       578       579       580       579       576       753       579       580       583
       579       580       757       580       583       582       580       583       584
       580       757       762       580       757       758       581       582       583
       581       586       585       581       586       587       582       581       586
       582       583       584       583       580       757       583       584       587
       583       584       761       584       587       586       584       587       588
       584       761       762       584       761       766       585       586       587
       585       590       589       585       590       591       586       585       590
       586       587       588       587       584       761       587       588       591
       587       588       765       588       591       590       588       591       592
       588       765       766       588       765       770       589       590       591
       589       594       593       589       594       595       590       589       594
       590       591       592       591       588       765       591       592       595
       591       592       769       592       595       594       592       595       596
       592       769       774       592       769       770       593       594       595
       593       598       597       593       598       599       594       593       598
       594       595       596       595       592       769       595       596       599
       595       596       773       596       599       598       596       599       600
       596       773       778       596       773       774       597       598       599
       597       602       601       597       602       603       598       597       602
       598       599       600       599       596       773       599       600       603
       599       600       777       600       603       602       600       603       604
       600       777       782       600       777       778       601       602       603
       601       606       605       601       606       607       602       601       606
       602       603       604       603       600       777       603       604       607
       603       604       781       604       607       606       604       607       608
       604       781       782       604       781       786       605       606       607
       605       610       609       605       610       611       606       605       610
       606       607       608       607       604       781       607       608       611
       607       608       785       608       611       610       608       611       612
       608       785       786       608       785       790       609       610       611
       609       614       613       609       614       615       610       609       614
       610       611       612       611       608       785       611       612       615
       611       612       789       612       615       614       612       615       616
       612       789       794       612       789       790       613       614       615
       613       618       617       613       618       619       614       613       618
       614       615       616       615       612       789       615       616       619
       615       616       793       616       619       618       616       619       620
       616       793       798       616       793       794       617       618       619
       617       622       621       617       622       623       618       617       622
       618       619       620       619       616       793       619       620       623
       619       620       797       620       623       622       620       623       624
       620       797       802       620       797       798       621       622       623
       621       626       625       621       626       627       622       621       626
       622       623       624       623       620       797       623       624       627
       623       624       801       624       627       626       624       627       628
       624       801       802       624       801       806       625       626       627
       625       630       629       625       630       631       626       625       630
       626       627       628       627       624       801       627       628       631
       627       628       805       628       631       630       628       631       632
       628       805       806       628       805       810       629       630       631
       629       634       633       629       634       635       630       629       634
       630       631       632       631       628       805       631       632       635
       631       632       809       632       635       634       632       635       636
       632       809       814       632       809       810       633       634       635
       633       638       637       633       638       639       634       633       638
       634       635       636       635       632       809       635       636       639
       635       636       813       636       639       638       636       639       640
       636       813       814       636       813       818       637       638       639
       637       642       641       637       642       643       638       637       642
       638       639       640       639       636       813       639       640       643
       639       640       817       640       643       642       640       643       644
       640       817       822       640       817       818       641       642       643
       641       646       645       641       646       647       642       641       646
       642       643       644       643       640       817       643       644       647
       643       644       821       644       647       646       644       647       648
       644       821       822       644       821       826       645       646       647
       645       650       649       645       650       651       646       645       650
       646       647       648       647       644       821       647       648       651
       647       648       825       648       651       650       648       651       652
       648       825       826       648       825       830       649       650       651
       649       654       653       649       654       655       650       649       654
       650       651       652       651       648       825       651       652       655
       651       652       829       652       655       654       652       655       656
       652       829       834       652       829       830       653       654       655
       653       658       657       653       658       659       654       653       658
       654       655       656       655       652       829       655       656       659
       655       656       833       656       659       658       656       659       660
       656       833       838       656       833       834       657       658       659
       657       662       661       657       662       663       658       657       662
       658       659       660       659       656       833       659       660       663
       659       660       837       660       663       662       660       663       664
       660       837       842       660       837       838       661       662       663
       661       666       665       661       666       667       662       661       666
       662       663       664       663       660       837       663       664       667
       663       664       841       664       667       666       664       667       668
       664       841       842       664       841       846       665       666       667
       665       670       669       665       670       671       666       665       670
       666       667       668       667       664       841       667       668       671
       667       668       845       668       671       670       668       671       672
       668       845       846       668       845       850       669       670       671
       669       674       673       669       674       675       670       669       674
       670       671       672       671       668       845       671       672       675
       671       672       849       672       675       674       672       675       676
       672       849       854       672       849       850       673       674       675
       673       678       677       673       678       679       674       673       678
       674       675       676       675       672       849       675       676       679
       675       676       853       676       679       678       676       679       680
       676       853       858       676       853       854       677       678       679
       677       682       681       677       682       683       678       677       682
       678       679       680       679       676       853       679       680       683
       679       680       857       680       683       682       680       683       684
       680       857       862       680       857       858       681       682       683
       681       686       685       681       686       687       682       681       686
       682       683       684       683       680       857       683       684       687
       683       684       861       684       687       686       684       687       688
       684       861       862       684       861       866       685       686       687
       685       690       689       685       690       691       686       685       690
       686       687       688       687       684       861       687       688       691
       687       688       865       688       691       690       688       691       692
       688       865       866       688       865       870       689       690       691
       689       694       693       689       694       695       690       689       694
       690       691       692       691       688       865       691       692       695
       691       692       869       692       695       694       692       695       696
       692       869       874       692       869       870       693       694       695
       693       698       697       693       698       699       694       693       698
       694       695       696       695       692       869       695       696       699
       695       696       873       696       699       698       696       699       700
       696       873       878       696       873       874       697       698       699
       697       702       701       697       702       703       698       697       702
       698       699       700       699       696       873       699       700       703
       699       700       877       700       703       702       700       703       704
       700       877       882       700       877       878       701       702       703
       701       706       705       701       706       707       702       701       706
       702       703       704       703       700       877       703       704       707
       703       704       881       704       707       706       704       707       708
       704       881       882       704       881       886       705       706       707
       705       710       709       705       710       711       706       705       710
       706       707       708       707       704       881       707       708       711
       707       708       885       708       711       710       708       711       712
       708       885       886       708       885       890       709       710       711
       709       714       713       709       714       715       710       709       714
       710       711       712       711       708       885       711       712       715
       711       712       889       712       715       714       712       715       716
       712       889       894       712       889       890       713       714       715
       713       718       717       713       718       719       714       713       718
       714       715       716       715       712       889       715       716       719
       715       716       893       716       719       718       716       719       720
       716       893       898       716       893       894       717       718       719
       718       719       720       719       716       893       719       720       897
       720       897       898       721       722       723       721       726       725
       721       726       727       722       721       726       722       723       724
       723       724       727       723       724       901       724       727       726
       724       727       728       724       901       902       724       901       906
       725       726       727       725       730       729       725       730       731
       726       725       730       726       727       728       727       724       901
       727       728       731       727       728       905       728       731       730
       728       731       732       728       905       906       728       905       910
       729       730       731       729       734       733       729       734       735
       730       729       734       730       731       732       731       728       905
       731       732       735       731       732       909       732       735       734
       732       735       736       732       909       914       732       909       910
       733       734       735       733       738       737       733       738       739
       734       733       738       734       735       736       735       732       909
       735       736       739       735       736       913       736       739       738
       736       739       740       736       913       918       736       913       914
       737       738       739       737       742       741       737       742       743
       738       737       742       738       739       740       739       736       913
       739       740       743       739       740       917       740       743       742
       740       743       744       740       917       922       740       917       918
       741       742       743       741       746       745       741       746       747
       742       741       746       742       743       744       743       740       917
       743       744       747       743       744       921       744       747       746
       744       747       748       744       921       922       744       921       926
       745       746       747       745       750       749       745       750       751
       746       745       750       746       747       748       747       744       921
       747       748       751       747       748       925       748       751       750
       748       751       752       748       925       926       748       925       930
       749       750       751       749       754       753       749       754       755
       750       749       754       750       751       752       751       748       925
       751       752       755       751       752       929       752       755       754
       752       755       756       752       929       934       752       929       930
       753       754       755       753       758       757       753       758       759
       754       753       758       754       755       756       755       752       929
       755       756       759       755       756       933       756       759       758
       756       759       760       756       933       938       756       933       934
       757       758       759       757       762       761       757       762       763
       758       757       762       758       759       760       759       756       933
       759       760       763       759       760       937       760       763       762
       760       763       764       760       937       942       760       937       938
       761       762       763       761       766       765       761       766       767
       762       761       766       762       763       764       763       760       937
       763       764       767       763       764       941       764       767       766
       764       767       768       764       941       942       764       941       946
       765       766       767       765       770       769       765       770       771
       766       765       770       766       767       768       767       764       941
       767       768       771       767       768       945       768       771       770
       768       771       772       768       945       946       768       945       950
       769       770       771       769       774       773       769       774       775
       770       769       774       770       771       772       771       768       945
       771       772       775       771       772       949       772       775       774
       772       775       776       772       949       954       772       949       950
       773       774       775       773       778       777       773       778       779
       774       773       778       774       775       776       775       772       949
       775       776       779       775       776       953       776       779       778
       776       779       780       776       953       958       776       953       954
       777       778       779       777       782       781       777       782       783
       778       777       782       778       779       780       779       776       953
       779       780       783       779       780       957       780       783       782
       780       783       784       780       957       962       780       957       958
       781       782       783       781       786       785       781       786       787
       782       781       786       782       783       784       783       780       957
       783       784       787       783       784       961       784       787       786
       784       787       788       784       961       962       784       961       966
       785       786       787       785       790       789       785       790       791
       786       785       790       786       787       788       787       784       961
       787       788       791       787       788       965       788       791       790
       788       791       792       788       965       966       788       965       970
       789       790       791       789       794       793       789       794       795
       790       789       794       790       791       792       791       788       965
       791       792       795       791       792       969       792       795       794
       792       795       796       792       969       974       792       969       970
       793       794       795       793       798       797       793       798       799
       794       793       798       794       795       796       795       792       969
       795       796       799       795       796       973       796       799       798
       796       799       800       796       973       978       796       973       974
       797       798       799       797       802       801       797       802       803
       798       797       802       798       799       800       799       796       973
       799       800       803       799       800       977       800       803       802
       800       803       804       800       977       982       800       977       978
       801       802       803       801       806       805       801       806       807
       802       801       806       802       803       804       803       800       977
       803       804       807       803       804       981       804       807       806
       804       807       808       804       981       982       804       981       986
       805       806       807       805       810       809       805       810       811
       806       805       810       806       807       808       807       804       981
       807       808       811       807       808       985       808       811       810
       808       811       812       808       985       986       808       985       990
       809       810       811       809       814       813       809       814       815
       810       809       814       810       811       812       811       808       985
       811       812       815       811       812       989       812       815       814
       812       815       816       812       989       994       812       989       990
       813       814       815       813       818       817       813       818       819
       814       813       818       814       815       816       815       812       989
       815       816       819       815       816       993       816       819       818
       816       819       820       816       993       998       816       993       994
       817       818       819       817       822       821       817       822       823
       818       817       822       818       819       820       819       816       993
       819       820       823       819       820       997       820       823       822
       820       823       824       820       997      1002       820       997       998
       821       822       823       821       826       825       821       826       827
       822       821       826       822       823       824       823       820       997
       823       824       827       823       824      1001       824       827       826
       824       827       828       824      1001      1002       824      1001      1006
       825       826       827       825       830       829       825       830       831
       826       825       830       826       827       828       827       824      1001
       827       828       831       827       828      1005       828       831       830
       828       831       832       828      1005      1006       828      1005      1010
       829       830       831       829       834       833       829       834       835
       830       829       834       830       831       832       831       828      1005
       831       832       835       831       832      1009       832       835       834
       832       835       836       832      1009      1014       832      1009      1010
       833       834       835       833       838       837       833       838       839
       834       833       838       834       835       836       835       832      1009
       835       836       839       835       836      1013       836       839       838
       836       839       840       836      1013      1018       836      1013      1014
       837       838       839       837       842       841       837       842       843
       838       837       842       838       839       840       839       836      1013
       839       840       843       839       840      1017       840       843       842
       840       843       844       840      1017      1022       840      1017      1018
       841       842       843       841       846       845       841       846       847
       842       841       846       842       843       844       843       840      1017
       843       844       847       843       844      1021       844       847       846
       844       847       848       844      1021      1022       844      1021      1026
       845       846       847       845       850       849       845       850       851
       846       845       850       846       847       848       847       844      1021
       847       848       851       847       848      1025       848       851       850
       848       851       852       848      1025      1026       848      1025      1030
       849       850       851       849       854       853       849       854       855
       850       849       854       850       851       852       851       848      1025
       851       852       855       851       852      1029       852       855       854
       852       855       856       852      1029      1034       852      1029      1030
       853       854       855       853       858       857       853       858       859
       854       853       858       854       855       856       855       852      1029
       855       856       859       855       856      1033       856       859       858
       856       859       860       856      1033      1034       856      1033      1038
       857       858       859       857       862       861       857       862       863
       858       857       862       858       859       860       859       856      1033
       859       860       863       859       860      1037       860       863       862
       860       863       864       860      1037      1042       860      1037      1038
       861       862       863       861       866       865       861       866       867
       862       861       866       862       863       864       863       860      1037
       863       864       867       863       864      1041       864       867       866
       864       867       868       864      1041      1042       864      1041      1046
       865       866       867       865       870       869       865       870       871
       866       865       870       866       867       868       867       864      1041
       867       868       871       867       868      1045       868       871       870
       868       871       872       868      1045      1046       868      1045      1050
       869       870       871       869       874       873       869       874       875
       870       869       874       870       871       872       871       868      1045
       871       872       875       871       872      1049       872       875       874
       872       875       876       872      1049      1054       872      1049      1050
       873       874       875       873       878       877       873       878       879
       874       873       878       874       875       876       875       872      1049
       875       876       879       875       876      1053       876       879       878
       876       879       880       876      1053      1058       876      1053      1054
       877       878       879       877       882       881       877       882       883
       878       877       882       878       879       880       879       876      1053
       879       880       883       879       880      1057       880       883       882
       880       883       884       880      1057      1062       880      1057      1058
       881       882       883       881       886       885       881       886       887
       882       881       886       882       883       884       883       880      1057
       883       884       887       883       884      1061       884       887       886
       884       887       888       884      1061      1062       884      1061      1066
       885       886       887       885       890       889       885       890       891
       886       885       890       886       887       888       887       884      1061
       887       888       891       887       888      1065       888       891       890
       888       891       892       888      1065      1066       888      1065      1070
       889       890       891       889       894       893       889       894       895
       890       889       894       890       891       892       891       888      1065
       891       892       895       891       892      1069       892       895       894
       892       895       896       892      1069      1074       892      1069      1070
       893       894       895       893       898       897       893       898       899
       894       893       898       894       895       896       895       892      1069
       895       896       899       895       896      1073       896       899       898
       896       899       900       896      1073      1078       896      1073      1074
       897       898       899       898       899       900       899       896      1073
       899       900      1077       900      1077      1078       901       902       903
       901       906       905       901       906       907       902       901       906
       902       903       904       903       904       907       903       904      1081
       904       907       906       904       907       908       904      1081      1082
       904      1081      1086       905       906       907       905       910       909
       905       910       911       906       905       910       906       907       908
       907       904      1081       907       908       911       907       908      1085
       908       911       910       908       911       912       908      1085      1086
       908      1085      1090       909       910       911       909       914       913
       909       914       915       910       909       914       910       911       912
       911       908      1085       911       912       915       911       912      1089
       912       915       914       912       915       916       912      1089      1094
       912      1089      1090       913       914       915       913       918       917
       913       918       919       914       913       918       914       915       916
       915       912      1089       915       916       919       915       916      1093
       916       919       918       916       919       920       916      1093      1098
       916      1093      1094       917       918       919       917       922       921
       917       922       923       918       917       922       918       919       920
       919       916      1093       919       920       923       919       920      1097
       920       923       922       920       923       924       920      1097      1102
       920      1097      1098       921       922       923       921       926       925
       921       926       927       922       921       926       922       923       924
       923       920      1097       923       924       927       923       924      1101
       924       927       926       924       927       928       924      1101      1102
       924      1101      1106       925       926       927       925       930       929
       925       930       931       926       925       930       926       927       928
       927       924      1101       927       928       931       927       928      1105
       928       931       930       928       931       932       928      1105      1106
       928      1105      1110       929       930       931       929       934       933
       929       934       935       930       929       934       930       931       932
       931       928      1105       931       932       935       931       932      1109
       932       935       934       932       935       936       932      1109      1114
       932      1109      1110       933       934       935       933       938       937
       933       938       939       934       933       938       934       935       936
       935       932      1109       935       936       939       935       936      1113
       936       939       938       936       939       940       936      1113      1118
       936      1113      1114       937       938       939       937       942       941
       937       942       943       938       937       942       938       939       940
       939       936      1113       939       940       943       939       940      1117
       940       943       942       940       943       944       940      1117      1122
       940      1117      1118       941       942       943       941       946       945
       941       946       947       942       941       946       942       943       944
       943       940      1117       943       944       947       943       944      1121
       944       947       946       944       947       948       944      1121      1122
       944      1121      1126       945       946       947       945       950       949
       945       950       951       946       945       950       946       947       948
       947       944      1121       947       948       951       947       948      1125
       948       951       950       948       951       952       948      1125      1126
       948      1125      1130       949       950       951       949       954       953
       949       954       955       950       949       954       950       951       952
       951       948      1125       951       952       955       951       952      1129
       952       955       954       952       955       956       952      1129      1134
       952      1129      1130       953       954       955       953       958       957
       953       958       959       954       953       958       954       955       956
       955       952      1129       955       956       959       955       956      1133
       956       959       958       956       959       960       956      1133      1138
       956      1133      1134       957       958       959       957       962       961
       957       962       963       958       957       962       958       959       960
       959       956      1133       959       960       963       959       960      1137
       960       963       962       960       963       964       960      1137      1142
       960      1137      1138       961       962       963       961       966       965
       961       966       967       962       961       966       962       963       964
       963       960      1137       963       964       967       963       964      1141
       964       967       966       964       967       968       964      1141      1142
       964      1141      1146       965       966       967       965       970       969
       965       970       971       966       965       970       966       967       968
       967       964      1141       967       968       971       967       968      1145
       968       971       970       968       971       972       968      1145      1146
       968      1145      1150       969       970       971       969       974       973
       969       974       975       970       969       974       970       971       972
       971       968      1145       971       972       975       971       972      1149
       972       975       974       972       975       976       972      1149      1154
       972      1149      1150       973       974       975       973       978       977
       973       978       979       974       973       978       974       975       976
       975       972      1149       975       976       979       975       976      1153
       976       979       978       976       979       980       976      1153      1158
       976      1153      1154       977       978       979       977       982       981
       977       982       983       978       977       982       978       979       980
       979       976      1153       979       980       983       979       980      1157
       980       983       982       980       983       984       980      1157      1162
       980      1157      1158       981       982       983       981       986       985
       981       986       987       982       981       986       982       983       984
       983       980      1157       983       984       987       983       984      1161
       984       987       986       984       987       988       984      1161      1162
       984      1161      1166       985       986       987       985       990       989
       985       990       991       986       985       990       986       987       988
       987       984      1161       987       988       991       987       988      1165
       988       991       990       988       991       992       988      1165      1166
       988      1165      1170       989       990       991       989       994       993
       989       994       995       990       989       994       990       991       992
       991       988      1165       991       992       995       991       992      1169
       992       995       994       992       995       996       992      1169      1174
       992      1169      1170       993       994       995       993       998       997
       993       998       999       994       993       998       994       995       996
       995       992      1169       995       996       999       995       996      1173
       996       999       998       996       999      1000       996      1173      1178
       996      1173      1174       997       998       999       997      1002      1001
       997      1002      1003       998       997      1002       998       999      1000
       999       996      1173       999      1000      1003       999      1000      1177
      1000      1003      1002      1000      1003      1004      1000      1177      1182
      1000      1177      1178      1001      1002      1003      1001      1006      1005
      1001      1006      1007      1002      1001      1006      1002      1003      1004
      1003      1000      1177      1003      1004      1007      1003      1004      1181
      1004      1007      1006      1004      1007      1008      1004      1181      1182
      1004      1181      1186      1005      1006      1007      1005      1010      1009
      1005      1010      1011      1006      1005      1010      1006      1007      1008
      1007      1004      1181      1007      1008      1011      1007      1008      1185
      1008      1011      1010      1008      1011      1012      1008      1185      1186
      1008      1185      1190      1009      1010      1011      1009      1014      1013
      1009      1014      1015      1010      1009      1014      1010      1011      1012
      1011      1008      1185      1011      1012      1015      1011      1012      1189
      1012      1015      1014      1012      1015      1016      1012      1189      1194
      1012      1189      1190      1013      1014      1015      1013      1018      1017
      1013      1018      1019      1014      1013      1018      1014      1015      1016
      1015      1012      1189      1015      1016      1019      1015      1016      1193
      1016      1019      1018      1016      1019      1020      1016      1193      1198
      1016      1193      1194      1017      1018      1019      1017      1022      1021
      1017      1022      1023      1018      1017      1022      1018      1019      1020
      1019      1016      1193      1019      1020      1023      1019      1020      1197
      1020      1023      1022      1020      1023      1024      1020      1197      1202
      1020      1197      1198      1021      1022      1023      1021      1026      1025
      1021      1026      1027      1022      1021      1026      1022      1023      1024
      1023      1020      1197      1023      1024      1027      1023      1024      1201
      1024      1027      1026      1024      1027      1028      1024      1201      1202
      1024      1201      1206      1025      1026      1027      1025      1030      1029
      1025      1030      1031      1026      1025      1030      1026      1027      1028
      1027      1024      1201      1027      1028      1031      1027      1028      1205
      1028      1031      1030      1028      1031      1032      1028      1205      1206
      1028      1205      1210      1029      1030      1031      1029      1034      1033
      1029      1034      1035      1030      1029      1034      1030      1031      1032
      1031      1028      1205      1031      1032      1035      1031      1032      1209
      1032      1035      1034      1032      1035      1036      1032      1209      1214
      1032      1209      1210      1033      1034      1035      1033      1038      1037
      1033      1038      1039      1034      1033      1038      1034      1035      1036
      1035      1032      1209      1035      1036      1039      1035      1036      1213
      1036      1039      1038      1036      1039      1040      1036      1213      1218
      1036      1213      1214      1037      1038      1039      1037      1042      1041
      1037      1042      1043      1038      1037      1042      1038      1039      1040
      1039      1036      1213      1039      1040      1043      1039      1040      1217
      1040      1043      1042      1040      1043      1044      1040      1217      1222
      1040      1217      1218      1041      1042      1043      1041      1046      1045
      1041      1046      1047      1042      1041      1046      1042      1043      1044
      1043      1040      1217      1043      1044      1047      1043      1044      1221
      1044      1047      1046      1044      1047      1048      1044      1221      1222
      1044      1221      1226      1045      1046      1047      1045      1050      1049
      1045      1050      1051      1046      1045      1050      1046      1047      1048
      1047      1044      1221      1047      1048      1051      1047      1048      1225
      1048      1051      1050      1048      1051      1052      1048      1225      1226
      1048      1225      1230      1049      1050      1051      1049      1054      1053
      1049      1054      1055      1050      1049      1054      1050      1051      1052
      1051      1048      1225      1051      1052      1055      1051      1052      1229
      1052      1055      1054      1052      1055      1056      1052      1229      1234
      1052      1229      1230      1053      1054      1055      1053      1058      1057
      1053      1058      1059      1054      1053      1058      1054      1055      1056
      1055      1052      1229      1055      1056      1059      1055      1056      1233
      1056      1059      1058      1056      1059      1060      1056      1233      1238
      1056      1233      1234      1057      1058      1059      1057      1062      1061
      1057      1062      1063      1058      1057      1062      1058      1059      1060
      1059      1056      1233      1059      1060      1063      1059      1060      1237
      1060      1063      1062      1060      1063      1064      1060      1237      1242
      1060      1237      1238      1061      1062      1063      1061      1066      1065
      1061      1066      1067      1062      1061      1066      1062      1063      1064
      1063      1060      1237      1063      1064      1067      1063      1064      1241
      1064      1067      1066      1064      1067      1068      1064      1241      1242
      1064      1241      1246      1065      1066      1067      1065      1070      1069
      1065      1070      1071      1066      1065      1070      1066      1067      1068
      1067      1064      1241      1067      1068      1071      1067      1068      1245
      1068      1071      1070      1068      1071      1072      1068      1245      1246
      1068      1245      1250      1069      1070      1071      1069      1074      1073
      1069      1074      1075      1070      1069      1074      1070      1071      1072
      1071      1068      1245      1071      1072      1075      1071      1072      1249
      1072      1075      1074      1072      1075      1076      1072      1249      1254
      1072      1249      1250      1073      1074      1075      1073      1078      1077
      1073      1078      1079      1074      1073      1078      1074      1075      1076
      1075      1072      1249      1075      1076      1079      1075      1076      1253
      1076      1079      1078      1076      1079      1080      1076      1253      1254
      1076      1253      1258      1077      1078      1079      1078      1079      1080
      1079      1076      1253      1079      1080      1257      1080      1257      1258
      1081      1082      1083      1081      1086      1085      1081      1086      1087
      1082      1081      1086      1082      1083      1084      1083      1084      1087
      1083      1084      1261      1084      1087      1086      1084      1087      1088
      1084      1261      1262      1084      1261      1266      1085      1086      1087
      1085      1090      1089      1085      1090      1091      1086      1085      1090
      1086      1087      1088      1087      1084      1261      1087      1088      1091
      1087      1088      1265      1088      1091      1090      1088      1091      1092
      1088      1265      1266      1088      1265      1270      1089      1090      1091
      1089      1094      1093      1089      1094      1095      1090      1089      1094
      1090      1091      1092      1091      1088      1265      1091      1092      1095
      1091      1092      1269      1092      1095      1094      1092      1095      1096
      1092      1269      1274      1092      1269      1270      1093      1094      1095
      1093      1098      1097      1093      1098      1099      1094      1093      1098
      1094      1095      1096      1095      1092      1269      1095      1096      1099
      1095      1096      1273      1096      1099      1098      1096      1099      1100
      1096      1273      1274      1096      1273      1278      1097      1098      1099
      1097      1102      1101      1097      1102      1103      1098      1097      1102
      1098      1099      1100      1099      1096      1273      1099      1100      1103
      1099      1100      1277      1100      1103      1102      1100      1103      1104
      1100      1277      1282      1100      1277      1278      1101      1102      1103
      1101      1106      1105      1101      1106      1107      1102      1101      1106
      1102      1103      1104      1103      1100      1277      1103      1104      1107
      1103      1104      1281      1104      1107      1106      1104      1107      1108
      1104      1281      1282      1104      1281      1286      1105      1106      1107
      1105      1110      1109      1105      1110      1111      1106      1105      1110
      1106      1107      1108      1107      1104      1281      1107      1108      1111
      1107      1108      1285      1108      1111      1110      1108      1111      1112
      1108      1285      1286      1108      1285      1290      1109      1110      1111
      1109      1114      1113      1109      1114      1115      1110      1109      1114
      1110      1111      1112      1111      1108      1285      1111      1112      1115
      1111      1112      1289      1112      1115      1114      1112      1115      1116
      1112      1289      1294      1112      1289      1290      1113      1114      1115
      1113      1118      1117      1113      1118      1119      1114      1113      1118
      1114      1115      1116      1115      1112      1289      1115      1116      1119
      1115      1116      1293      1116      1119      1118      1116      1119      1120
      1116      1293      1298      1116      1293      1294      1117      1118      1119
      1117      1122      1121      1117      1122      1123      1118      1117      1122
      1118      1119      1120      1119      1116      1293      1119      1120      1123
      1119      1120      1297      1120      1123      1122      1120      1123      1124
      1120      1297      1302      1120      1297      1298      1121      1122      1123
      1121      1126      1125      1121      1126      1127      1122      1121      1126
      1122      1123      1124      1123      1120      1297      1123      1124      1127
      1123      1124      1301      1124      1127      1126      1124      1127      1128
      1124      1301      1302      1124      1301      1306      1125      1126      1127
      1125      1130      1129      1125      1130      1131      1126      1125      1130
      1126      1127      1128      1127      1124      1301      1127      1128      1131
      1127      1128      1305      1128      1131      1130      1128      1131      1132
      1128      1305      1306      1128      1305      1310      1129      1130      1131
      1129      1134      1133      1129      1134      1135      1130      1129      1134
      1130      1131      1132      1131      1128      1305      1131      1132      1135
      1131      1132      1309      1132      1135      1134      1132      1135      1136
      1132      1309      1314      1132      1309      1310      1133      1134      1135
      1133      1138      1137      1133      1138      1139      1134      1133      1138
      1134      1135      1136      1135      1132      1309      1135      1136      1139
      1135      1136      1313      1136      1139      1138      1136      1139      1140
      1136      1313      1318      1136      1313      1314      1137      1138      1139
      1137      1142      1141      1137      1142      1143      1138      1137      1142
      1138      1139      1140      1139      1136      1313      1139      1140      1143
      1139      1140      1317      1140      1143      1142      1140      1143      1144
      1140      1317      1322      1140      1317      1318      1141      1142      1143
      1141      1146      1145      1141      1146      1147      1142      1141      1146
      1142      1143      1144      1143      1140      1317      1143      1144      1147
      1143      1144      1321      1144      1147      1146      1144      1147      1148
      1144      1321      1322      1144      1321      1326      1145      1146      1147
      1145      1150      1149      1145      1150      1151      1146      1145      1150
      1146      1147      1148      1147      1144      1321      1147      1148      1151
      1147      1148      1325      1148      1151      1150      1148      1151      1152
      1148      1325      1326      1148      1325      1330      1149      1150      1151
      1149      1154      1153      1149      1154      1155      1150      1149      1154
      1150      1151      1152      1151      1148      1325      1151      1152      1155
      1151      1152      1329      1152      1155      1154      1152      1155      1156
      1152      1329      1334      1152      1329      1330      1153      1154      1155
      1153      1158      1157      1153      1158      1159      1154      1153      1158
      1154      1155      1156      1155      1152      1329      1155      1156      1159
      1155      1156      1333      1156      1159      1158      1156      1159      1160
      1156      1333      1338      1156      1333      1334      1157      1158      1159
      1157      1162      1161      1157      1162      1163      1158      1157      1162
      1158      1159      1160      1159      1156      1333      1159      1160      1163
      1159      1160      1337      1160      1163      1162      1160      1163      1164
      1160      1337      1342      1160      1337      1338      1161      1162      1163
      1161      1166      1165      1161      1166      1167      1162      1161      1166
      1162      1163      1164      1163      1160      1337      1163      1164      1167
      1163      1164      1341      1164      1167      1166      1164      1167      1168
      1164      1341      1342      1164      1341      1346      1165      1166      1167
      1165      1170      1169      1165      1170      1171      1166      1165      1170
      1166      1167      1168      1167      1164      1341      1167      1168      1171
      1167      1168      1345      1168      1171      1170      1168      1171      1172
      1168      1345      1346      1168      1345      1350      1169      1170      1171
      1169      1174      1173      1169      1174      1175      1170      1169      1174
      1170      1171      1172      1171      1168      1345      1171      1172      1175
      1171      1172      1349      1172      1175      1174      1172      1175      1176
      1172      1349      1354      1172      1349      1350      1173      1174      1175
      1173      1178      1177      1173      1178      1179      1174      1173      1178
      1174      1175      1176      1175      1172      1349      1175      1176      1179
      1175      1176      1353      1176      1179      1178      1176      1179      1180
      1176      1353      1358      1176      1353      1354      1177      1178      1179
      1177      1182      1181      1177      1182      1183      1178      1177      1182
      1178      1179      1180      1179      1176      1353      1179      1180      1183
      1179      1180      1357      1180      1183      1182      1180      1183      1184
      1180      1357      1362      1180      1357      1358      1181      1182      1183
      1181      1186      1185      1181      1186      1187      1182      1181      1186
      1182      1183      1184      1183      1180      1357      1183      1184      1187
      1183      1184      1361      1184      1187      1186      1184      1187      1188
      1184      1361      1362      1184      1361      1366      1185      1186      1187
      1185      1190      1189      1185      1190      1191      1186      1185      1190
      1186      1187      1188      1187      1184      1361      1187      1188      1191
      1187      1188      1365      1188      1191      1190      1188      1191      1192
      1188      1365      1366      1188      1365      1370      1189      1190      1191
      1189      1194      1193      1189      1194      1195      1190      1189      1194
      1190      1191      1192      1191      1188      1365      1191      1192      1195
      1191      1192      1369      1192      1195      1194      1192      1195      1196
      1192      1369      1374      1192      1369      1370      1193      1194      1195
      1193      1198      1197      1193      1198      1199      1194      1193      1198
      1194      1195      1196      1195      1192      1369      1195      1196      1199
      1195      1196      1373      1196      1199      1198      1196      1199      1200
      1196      1373      1378      1196      1373      1374      1197      1198      1199
      1197      1202      1201      1197      1202      1203      1198      1197      1202
      1198      1199      1200      1199      1196      1373      1199      1200      1203
      1199      1200      1377      1200      1203      1202      1200      1203      1204
      1200      1377      1382      1200      1377      1378      1201      1202      1203
      1201      1206      1205      1201      1206      1207      1202      1201      1206
      1202      1203      1204      1203      1200      1377      1203      1204      1207
      1203      1204      1381      1204      1207      1206      1204      1207      1208
      1204      1381      1382      1204      1381      1386      1205      1206      1207
      1205      1210      1209      1205      1210      1211      1206      1205      1210
      1206      1207      1208      1207      1204      1381      1207      1208      1211
      1207      1208      1385      1208      1211      1210      1208      1211      1212
      1208      1385      1386      1208      1385      1390      1209      1210      1211
      1209      1214      1213      1209      1214      1215      1210      1209      1214
      1210      1211      1212      1211      1208      1385      1211      1212      1215
      1211      1212      1389      1212      1215      1214      1212      1215      1216
      1212      1389      1394      1212      1389      1390      1213      1214      1215
      1213      1218      1217      1213      1218      1219      1214      1213      1218
      1214      1215      1216      1215      1212      1389      1215      1216      1219
      1215      1216      1393      1216      1219      1218      1216      1219      1220
      1216      1393      1398      1216      1393      1394      1217      1218      1219
      1217      1222      1221      1217      1222      1223      1218      1217      1222
      1218      1219      1220      1219      1216      1393      1219      1220      1223
      1219      1220      1397      1220      1223      1222      1220      1223      1224
      1220      1397      1402      1220      1397      1398      1221      1222      1223
      1221      1226      1225      1221      1226      1227      1222      1221      1226
      1222      1223      1224      1223      1220      1397      1223      1224      1227
      1223      1224      1401      1224      1227      1226      1224      1227      1228
      1224      1401      1402      1224      1401      1406      1225      1226      1227
      1225      1230      1229      1225      1230      1231      1226      1225      1230
      1226      1227      1228      1227      1224      1401      1227      1228      1231
      1227      1228      1405      1228      1231      1230      1228      1231      1232
      1228      1405      1406      1228      1405      1410      1229      1230      1231
      1229      1234      1233      1229      1234      1235      1230      1229      1234
      1230      1231      1232      1231      1228      1405      1231      1232      1235
      1231      1232      1409      1232      1235      1234      1232      1235      1236
      1232      1409      1414      1232      1409      1410      1233      1234      1235
      1233      1238      1237      1233      1238      1239      1234      1233      1238
      1234      1235      1236      1235      1232      1409      1235      1236      1239
      1235      1236      1413      1236      1239      1238      1236      1239      1240
      1236      1413      1418      1236      1413      1414      1237      1238      1239
      1237      1242      1241      1237      1242      1243      1238      1237      1242
      1238      1239      1240      1239      1236      1413      1239      1240      1243
      1239      1240      1417      1240      1243      1242      1240      1243      1244
      1240      1417      1422      1240      1417      1418      1241      1242      1243
      1241      1246      1245      1241      1246      1247      1242      1241      1246
      1242      1243      1244      1243      1240      1417      1243      1244      1247
      1243      1244      1421      1244      1247      1246      1244      1247      1248
      1244      1421      1422      1244      1421      1426      1245      1246      1247
      1245      1250      1249      1245      1250      1251      1246      1245      1250
      1246      1247      1248      1247      1244      1421      1247      1248      1251
      1247      1248      1425      1248      1251      1250      1248      1251      1252
      1248      1425      1426      1248      1425      1430      1249      1250      1251
      1249      1254      1253      1249      1254      1255      1250      1249      1254
      1250      1251      1252      1251      1248      1425      1251      1252      1255
      1251      1252      1429      1252      1255      1254      1252      1255      1256
      1252      1429      1434      1252      1429      1430      1253      1254      1255
      1253      1258      1257      1253      1258      1259      1254      1253      1258
      1254      1255      1256      1255      1252      1429      1255      1256      1259
      1255      1256      1433      1256      1259      1258      1256      1259      1260
      1256      1433      1438      1256      1433      1434      1257      1258      1259
      1258      1259      1260      1259      1256      1433      1259      1260      1437
      1260      1437      1438      1261      1262      1263      1261      1266      1265
      1261      1266      1267      1262      1261      1266      1262      1263      1264
      1263      1264      1267      1263      1264      1441      1264      1267      1266
      1264      1267      1268      1264      1441      1442      1264      1441      1446
      1265      1266      1267      1265      1270      1269      1265      1270      1271
      1266      1265      1270      1266      1267      1268      1267      1264      1441
      1267      1268      1271      1267      1268      1445      1268      1271      1270
      1268      1271      1272      1268      1445      1446      1268      1445      1450
      1269      1270      1271      1269      1274      1273      1269      1274      1275
      1270      1269      1274      1270      1271      1272      1271      1268      1445
      1271      1272      1275      1271      1272      1449      1272      1275      1274
      1272      1275      1276      1272      1449      1454      1272      1449      1450
      1273      1274      1275      1273      1278      1277      1273      1278      1279
      1274      1273      1278      1274      1275      1276      1275      1272      1449
      1275      1276      1279      1275      1276      1453      1276      1279      1278
      1276      1279      1280      1276      1453      1458      1276      1453      1454
      1277      1278      1279      1277      1282      1281      1277      1282      1283
      1278      1277      1282      1278      1279      1280      1279      1276      1453
      1279      1280      1283      1279      1280      1457      1280      1283      1282
      1280      1283      1284      1280      1457      1462      1280      1457      1458
      1281      1282      1283      1281      1286      1285      1281      1286      1287
      1282      1281      1286      1282      1283      1284      1283      1280      1457
      1283      1284      1287      1283      1284      1461      1284      1287      1286
      1284      1287      1288      1284      1461      1462      1284      1461      1466
      1285      1286      1287      1285      1290      1289      1285      1290      1291
      1286      1285      1290      1286      1287      1288      1287      1284      1461
      1287      1288      1291      1287      1288      1465      1288      1291      1290
      1288      1291      1292      1288      1465      1466      1288      1465      1470
      1289      1290      1291      1289      1294      1293      1289      1294      1295
      1290      1289      1294      1290      1291      1292      1291      1288      1465
      1291      1292      1295      1291      1292      1469      1292      1295      1294
      1292      1295      1296      1292      1469      1474      1292      1469      1470
      1293      1294      1295      1293      1298      1297      1293      1298      1299
      1294      1293      1298      1294      1295      1296      1295      1292      1469
      1295      1296      1299      1295      1296      1473      1296      1299      1298
      1296      1299      1300      1296      1473      1478      1296      1473      1474
      1297      1298      1299      1297      1302      1301      1297      1302      1303
      1298      1297      1302      1298      1299      1300      1299      1296      1473
      1299      1300      1303      1299      1300      1477      1300      1303      1302
      1300      1303      1304      1300      1477      1482      1300      1477      1478
      1301      1302      1303      1301      1306      1305      1301      1306      1307
      1302      1301      1306      1302      1303      1304      1303      1300      1477
      1303      1304      1307      1303      1304      1481      1304      1307      1306
      1304      1307      1308      1304      1481      1482      1304      1481      1486
      1305      1306      1307      1305      1310      1309      1305      1310      1311
      1306      1305      1310      1306      1307      1308      1307      1304      1481
      1307      1308      1311      1307      1308      1485      1308      1311      1310
      1308      1311      1312      1308      1485      1486      1308      1485      1490
      1309      1310      1311      1309      1314      1313      1309      1314      1315
      1310      1309      1314      1310      1311      1312      1311      1308      1485
      1311      1312      1315      1311      1312      1489      1312      1315      1314
      1312      1315      1316      1312      1489      1494      1312      1489      1490
      1313      1314      1315      1313      1318      1317      1313      1318      1319
      1314      1313      1318      1314      1315      1316      1315      1312      1489
      1315      1316      1319      1315      1316      1493      1316      1319      1318
      1316      1319      1320      1316      1493      1494      1316      1493      1498
      1317      1318      1319      1317      1322      1321      1317      1322      1323
      1318      1317      1322      1318      1319      1320      1319      1316      1493
      1319      1320      1323      1319      1320      1497      1320      1323      1322
      1320      1323      1324      1320      1497      1498      1320      1497      1502
      1321      1322      1323      1321      1326      1325      1321      1326      1327
      1322      1321      1326      1322      1323      1324      1323      1320      1497
      1323      1324      1327      1323      1324      1501      1324      1327      1326
      1324      1327      1328      1324      1501      1502      1324      1501      1506
      1325      1326      1327      1325      1330      1329      1325      1330      1331
      1326      1325      1330      1326      1327      1328      1327      1324      1501
      1327      1328      1331      1327      1328      1505      1328      1331      1330
      1328      1331      1332      1328      1505      1506      1328      1505      1510
      1329      1330      1331      1329      1334      1333      1329      1334      1335
      1330      1329      1334      1330      1331      1332      1331      1328      1505
      1331      1332      1335      1331      1332      1509      1332      1335      1334
      1332      1335      1336      1332      1509      1510      1332      1509      1514
      1333      1334      1335      1333      1338      1337      1333      1338      1339
      1334      1333      1338      1334      1335      1336      1335      1332      1509
      1335      1336      1339      1335      1336      1513      1336      1339      1338
      1336      1339      1340      1336      1513      1514      1336      1513      1518
      1337      1338      1339      1337      1342      1341      1337      1342      1343
      1338      1337      1342      1338      1339      1340      1339      1336      1513
      1339      1340      1343      1339      1340      1517      1340      1343      1342
      1340      1343      1344      1340      1517      1522      1340      1517      1518
      1341      1342      1343      1341      1346      1345      1341      1346      1347
      1342      1341      1346      1342      1343      1344      1343      1340      1517
      1343      1344      1347      1343      1344      1521      1344      1347      1346
      1344      1347      1348      1344      1521      1522      1344      1521      1526
      1345      1346      1347      1345      1350      1349      1345      1350      1351
      1346      1345      1350      1346      1347      1348      1347      1344      1521
      1347      1348      1351      1347      1348      1525      1348      1351      1350
      1348      1351      1352      1348      1525      1526      1348      1525      1530
      1349      1350      1351      1349      1354      1353      1349      1354      1355
      1350      1349      1354      1350      1351      1352      1351      1348      1525
      1351      1352      1355      1351      1352      1529      1352      1355      1354
      1352      1355      1356      1352      1529      1534      1352      1529      1530
      1353      1354      1355      1353      1358      1357      1353      1358      1359
      1354      1353      1358      1354      1355      1356      1355      1352      1529
      1355      1356      1359      1355      1356      1533      1356      1359      1358
      1356      1359      1360      1356      1533      1538      1356      1533      1534
      1357      1358      1359      1357      1362      1361      1357      1362      1363
      1358      1357      1362      1358      1359      1360      1359      1356      1533
      1359      1360      1363      1359      1360      1537      1360      1363      1362
      1360      1363      1364      1360      1537      1542      1360      1537      1538
      1361      1362      1363      1361      1366      1365      1361      1366      1367
      1362      1361      1366      1362      1363      1364      1363      1360      1537
      1363      1364      1367      1363      1364      1541      1364      1367      1366
      1364      1367      1368      1364      1541      1542      1364      1541      1546
      1365      1366      1367      1365      1370      1369      1365      1370      1371
      1366      1365      1370      1366      1367      1368      1367      1364      1541
      1367      1368      1371      1367      1368      1545      1368      1371      1370
      1368      1371      1372      1368      1545      1546      1368      1545      1550
      1369      1370      1371      1369      1374      1373      1369      1374      1375
      1370      1369      1374      1370      1371      1372      1371      1368      1545
      1371      1372      1375      1371      1372      1549      1372      1375      1374
      1372      1375      1376      1372      1549      1554      1372      1549      1550
      1373      1374      1375      1373      1378      1377      1373      1378      1379
      1374      1373      1378      1374      1375      1376      1375      1372      1549
      1375      1376      1379      1375      1376      1553      1376      1379      1378
      1376      1379      1380      1376      1553      1558      1376      1553      1554
      1377      1378      1379      1377      1382      1381      1377      1382      1383
      1378      1377      1382      1378      1379      1380      1379      1376      1553
      1379      1380      1383      1379      1380      1557      1380      1383      1382
      1380      1383      1384      1380      1557      1562      1380      1557      1558
      1381      1382      1383      1381      1386      1385      1381      1386      1387
      1382      1381      1386      1382      1383      1384      1383      1380      1557
      1383      1384      1387      1383      1384      1561      1384      1387      1386
      1384      1387      1388      1384      1561      1562      1384      1561      1566
      1385      1386      1387      1385      1390      1389      1385      1390      1391
      1386      1385      1390      1386      1387      1388      1387      1384      1561
      1387      1388      1391      1387      1388      1565      1388      1391      1390
      1388      1391      1392      1388      1565      1566      1388      1565      1570
      1389      1390      1391      1389      1394      1393      1389      1394      1395
      1390      1389      1394      1390      1391      1392      1391      1388      1565
      1391      1392      1395      1391      1392      1569      1392      1395      1394
      1392      1395      1396      1392      1569      1570      1392      1569      1574
      1393      1394      1395      1393      1398      1397      1393      1398      1399
      1394      1393      1398      1394      1395      1396      1395      1392      1569
      1395      1396      1399      1395      1396      1573      1396      1399      1398
      1396      1399      1400      1396      1573      1574      1396      1573      1578
      1397      1398      1399      1397      1402      1401      1397      1402      1403
      1398      1397      1402      1398      1399      1400      1399      1396      1573
      1399      1400      1403      1399      1400      1577      1400      1403      1402
      1400      1403      1404      1400      1577      1578      1400      1577      1582
      1401      1402      1403      1401      1406      1405      1401      1406      1407
      1402      1401      1406      1402      1403      1404      1403      1400      1577
      1403      1404      1407      1403      1404      1581      1404      1407      1406
      1404      1407      1408      1404      1581      1582      1404      1581      1586
      1405      1406      1407      1405      1410      1409      1405      1410      1411
      1406      1405      1410      1406      1407      1408      1407      1404      1581
      1407      1408      1411      1407      1408      1585      1408      1411      1410
      1408      1411      1412      1408      1585      1586      1408      1585      1590
      1409      1410      1411      1409      1414      1413      1409      1414      1415
      1410      1409      1414      1410      1411      1412      1411      1408      1585
      1411      1412      1415      1411      1412      1589      1412      1415      1414
      1412      1415      1416      1412      1589      1594      1412      1589      1590
      1413      1414      1415      1413      1418      1417      1413      1418      1419
      1414      1413      1418      1414      1415      1416      1415      1412      1589
      1415      1416      1419      1415      1416      1593      1416      1419      1418
      1416      1419      1420      1416      1593      1598      1416      1593      1594
      1417      1418      1419      1417      1422      1421      1417      1422      1423
      1418      1417      1422      1418      1419      1420      1419      1416      1593
      1419      1420      1423      1419      1420      1597      1420      1423      1422
      1420      1423      1424      1420      1597      1602      1420      1597      1598
      1421      1422      1423      1421      1426      1425      1421      1426      1427
      1422      1421      1426      1422      1423      1424      1423      1420      1597
      1423      1424      1427      1423      1424      1601      1424      1427      1426
      1424      1427      1428      1424      1601      1602      1424      1601      1606
      1425      1426      1427      1425      1430      1429      1425      1430      1431
      1426      1425      1430      1426      1427      1428      1427      1424      1601
      1427      1428      1431      1427      1428      1605      1428      1431      1430
      1428      1431      1432      1428      1605      1606      1428      1605      1610
      1429      1430      1431      1429      1434      1433      1429      1434      1435
      1430      1429      1434      1430      1431      1432      1431      1428      1605
      1431      1432      1435      1431      1432      1609      1432      1435      1434
      1432      1435      1436      1432      1609      1614      1432      1609      1610
      1433      1434      1435      1433      1438      1437      1433      1438      1439
      1434      1433      1438      1434      1435      1436      1435      1432      1609
      1435      1436      1439      1435      1436      1613      1436      1439      1438
      1436      1439      1440      1436      1613      1618      1436      1613      1614
      1437      1438      1439      1438      1439      1440      1439      1436      1613
      1439      1440      1617      1440      1617      1618      1441      1442      1443
      1441      1446      1445      1441      1446      1447      1442      1441      1446
      1442      1443      1444      1443      1444      1621      1443      1444      1447
      1444      1447      1446      1444      1447      1448      1444      1621      1622
      1444      1621      1626      1445      1446      1447      1445      1450      1449
      1445      1450      1451      1446      1445      1450      1446      1447      1448
      1447      1444      1621      1447      1448      1625      1447      1448      1451
      1448      1451      1450      1448      1451      1452      1448      1625      1626
      1448      1625      1630      1449      1450      1451      1449      1454      1453
      1449      1454      1455      1450      1449      1454      1450      1451      1452
      1451      1448      1625      1451      1452      1629      1451      1452      1455
      1452      1455      1454      1452      1455      1456      1452      1629      1634
      1452      1629      1630      1453      1454      1455      1453      1458      1457
      1453      1458      1459      1454      1453      1458      1454      1455      1456
      1455      1452      1629      1455      1456      1633      1455      1456      1459
      1456      1459      1458      1456      1459      1460      1456      1633      1638
      1456      1633      1634      1457      1458      1459      1457      1462      1461
      1457      1462      1463      1458      1457      1462      1458      1459      1460
      1459      1456      1633      1459      1460      1637      1459      1460      1463
      1460      1463      1462      1460      1463      1464      1460      1637      1642
      1460      1637      1638      1461      1462      1463      1461      1466      1465
      1461      1466      1467      1462      1461      1466      1462      1463      1464
      1463      1460      1637      1463      1464      1641      1463      1464      1467
      1464      1467      1466      1464      1467      1468      1464      1641      1642
      1464      1641      1646      1465      1466      1467      1465      1470      1469
      1465      1470      1471      1466      1465      1470      1466      1467      1468
      1467      1464      1641      1467      1468      1645      1467      1468      1471
      1468      1471      1470      1468      1471      1472      1468      1645      1646
      1468      1645      1650      1469      1470      1471      1469      1474      1473
      1469      1474      1475      1470      1469      1474      1470      1471      1472
      1471      1468      1645      1471      1472      1475      1471      1472      1649
      1472      1475      1474      1472      1475      1476      1472      1649      1650
      1472      1649      1654      1473      1474      1475      1473      1478      1477
      1473      1478      1479      1474      1473      1478      1474      1475      1476
      1475      1472      1649      1475      1476      1479      1475      1476      1653
      1476      1479      1478      1476      1479      1480      1476      1653      1654
      1476      1653      1658      1477      1478      1479      1477      1482      1481
      1477      1482      1483      1478      1477      1482      1478      1479      1480
      1479      1476      1653      1479      1480      1657      1479      1480      1483
      1480      1483      1482      1480      1483      1484      1480      1657      1658
      1480      1657      1662      1481      1482      1483      1481      1486      1485
      1481      1486      1487      1482      1481      1486      1482      1483      1484
      1483      1480      1657      1483      1484      1661      1483      1484      1487
      1484      1487      1486      1484      1487      1488      1484      1661      1662
      1484      1661      1666      1485      1486      1487      1485      1490      1489
      1485      1490      1491      1486      1485      1490      1486      1487      1488
      1487      1484      1661      1487      1488      1665      1487      1488      1491
      1488      1491      1490      1488      1491      1492      1488      1665      1666
      1488      1665      1670      1489      1490      1491      1489      1494      1493
      1489      1494      1495      1490      1489      1494      1490      1491      1492
      1491      1488      1665      1491      1492      1495      1491      1492      1669
      1492      1495      1494      1492      1495      1496      1492      1669      1674
      1492      1669      1670      1493      1494      1495      1493      1498      1497
      1493      1498      1499      1494      1493      1498      1494      1495      1496
      1495      1492      1669      1495      1496      1499      1495      1496      1673
      1496      1499      1498      1496      1499      1500      1496      1673      1678
      1496      1673      1674      1497      1498      1499      1497      1502      1501
      1497      1502      1503      1498      1497      1502      1498      1499      1500
      1499      1496      1673      1499      1500      1677      1499      1500      1503
      1500      1503      1502      1500      1503      1504      1500      1677      1682
      1500      1677      1678      1501      1502      1503      1501      1506      1505
      1501      1506      1507      1502      1501      1506      1502      1503      1504
      1503      1500      1677      1503      1504      1681      1503      1504      1507
      1504      1507      1506      1504      1507      1508      1504      1681      1682
      1504      1681      1686      1505      1506      1507      1505      1510      1509
      1505      1510      1511      1506      1505      1510      1506      1507      1508
      1507      1504      1681      1507      1508      1685      1507      1508      1511
      1508      1511      1510      1508      1511      1512      1508      1685      1686
      1508      1685      1690      1509      1510      1511      1509      1514      1513
      1509      1514      1515      1510      1509      1514      1510      1511      1512
      1511      1508      1685      1511      1512      1515      1511      1512      1689
      1512      1515      1514      1512      1515      1516      1512      1689      1694
      1512      1689      1690      1513      1514      1515      1513      1518      1517
      1513      1518      1519      1514      1513      1518      1514      1515      1516
      1515      1512      1689      1515      1516      1693      1515      1516      1519
      1516      1519      1518      1516      1519      1520      1516      1693      1698
      1516      1693      1694      1517      1518      1519      1517      1522      1521
      1517      1522      1523      1518      1517      1522      1518      1519      1520
      1519      1516      1693      1519      1520      1697      1519      1520      1523
      1520      1523      1522      1520      1523      1524      1520      1697      1702
      1520      1697      1698      1521      1522      1523      1521      1526      1525
      1521      1526      1527      1522      1521      1526      1522      1523      1524
      1523      1520      1697      1523      1524      1701      1523      1524      1527
      1524      1527      1526      1524      1527      1528      1524      1701      1702
      1524      1701      1706      1525      1526      1527      1525      1530      1529
      1525      1530      1531      1526      1525      1530      1526      1527      1528
      1527      1524      1701      1527      1528      1705      1527      1528      1531
      1528      1531      1530      1528      1531      1532      1528      1705      1706
      1528      1705      1710      1529      1530      1531      1529      1534      1533
      1529      1534      1535      1530      1529      1534      1530      1531      1532
      1531      1528      1705      1531      1532      1709      1531      1532      1535
      1532      1535      1534      1532      1535      1536      1532      1709      1714
      1532      1709      1710      1533      1534      1535      1533      1538      1537
      1533      1538      1539      1534      1533      1538      1534      1535      1536
      1535      1532      1709      1535      1536      1539      1535      1536      1713
      1536      1539      1538      1536      1539      1540      1536      1713      1714
      1536      1713      1718      1537      1538      1539      1537      1542      1541
      1537      1542      1543      1538      1537      1542      1538      1539      1540
      1539      1536      1713      1539      1540      1717      1539      1540      1543
      1540      1543      1542      1540      1543      1544      1540      1717      1718
      1540      1717      1722      1541      1542      1543      1541      1546      1545
      1541      1546      1547      1542      1541      1546      1542      1543      1544
      1543      1540      1717      1543      1544      1721      1543      1544      1547
      1544      1547      1546      1544      1547      1548      1544      1721      1722
      1544      1721      1726      1545      1546      1547      1545      1550      1549
      1545      1550      1551      1546      1545      1550      1546      1547      1548
      1547      1544      1721      1547      1548      1725      1547      1548      1551
      1548      1551      1550      1548      1551      1552      1548      1725      1726
      1548      1725      1730      1549      1550      1551      1549      1554      1553
      1549      1554      1555      1550      1549      1554      1550      1551      1552
      1551      1548      1725      1551      1552      1555      1551      1552      1729
      1552      1555      1554      1552      1555      1556      1552      1729      1730
      1552      1729      1734      1553      1554      1555      1553      1558      1557
      1553      1558      1559      1554      1553      1558      1554      1555      1556
      1555      1552      1729      1555      1556      1559      1555      1556      1733
      1556      1559      1558      1556      1559      1560      1556      1733      1734
      1556      1733      1738      1557      1558      1559      1557      1562      1561
      1557      1562      1563      1558      1557      1562      1558      1559      1560
      1559      1556      1733      1559      1560      1737      1559      1560      1563
      1560      1563      1562      1560      1563      1564      1560      1737      1742
      1560      1737      1738      1561      1562      1563      1561      1566      1565
      1561      1566      1567      1562      1561      1566      1562      1563      1564
      1563      1560      1737      1563      1564      1741      1563      1564      1567
      1564      1567      1566      1564      1567      1568      1564      1741      1742
      1564      1741      1746      1565      1566      1567      1565      1570      1569
      1565      1570      1571      1566      1565      1570      1566      1567      1568
      1567      1564      1741      1567      1568      1745      1567      1568      1571
      1568      1571      1570      1568      1571      1572      1568      1745      1746
      1568      1745      1750      1569      1570      1571      1569      1574      1573
      1569      1574      1575      1570      1569      1574      1570      1571      1572
      1571      1568      1745      1571      1572      1575      1571      1572      1749
      1572      1575      1574      1572      1575      1576      1572      1749      1754
      1572      1749      1750      1573      1574      1575      1573      1578      1577
      1573      1578      1579      1574      1573      1578      1574      1575      1576
      1575      1572      1749      1575      1576      1579      1575      1576      1753
      1576      1579      1578      1576      1579      1580      1576      1753      1758
      1576      1753      1754      1577      1578      1579      1577      1582      1581
      1577      1582      1583      1578      1577      1582      1578      1579      1580
      1579      1576      1753      1579      1580      1757      1579      1580      1583
      1580      1583      1582      1580      1583      1584      1580      1757      1762
      1580      1757      1758      1581      1582      1583      1581      1586      1585
      1581      1586      1587      1582      1581      1586      1582      1583      1584
      1583      1580      1757      1583      1584      1761      1583      1584      1587
      1584      1587      1586      1584      1587      1588      1584      1761      1762
      1584      1761      1766      1585      1586      1587      1585      1590      1589
      1585      1590      1591      1586      1585      1590      1586      1587      1588
      1587      1584      1761      1587      1588      1765      1587      1588      1591
      1588      1591      1590      1588      1591      1592      1588      1765      1766
      1588      1765      1770      1589      1590      1591      1589      1594      1593
      1589      1594      1595      1590      1589      1594      1590      1591      1592
      1591      1588      1765      1591      1592      1769      1591      1592      1595
      1592      1595      1594      1592      1595      1596      1592      1769      1774
      1592      1769      1770      1593      1594      1595      1593      1598      1597
      1593      1598      1599      1594      1593      1598      1594      1595      1596
      1595      1592      1769      1595      1596      1773      1595      1596      1599
      1596      1599      1598      1596      1599      1600      1596      1773      1778
      1596      1773      1774      1597      1598      1599      1597      1602      1601
      1597      1602      1603      1598      1597      1602      1598      1599      1600
      1599      1596      1773      1599      1600      1777      1599      1600      1603
      1600      1603      1602      1600      1603      1604      1600      1777      1782
      1600      1777      1778      1601      1602      1603      1601      1606      1605
      1601      1606      1607      1602      1601      1606      1602      1603      1604
      1603      1600      1777      1603      1604      1781      1603      1604      1607
      1604      1607      1606      1604      1607      1608      1604      1781      1782
      1604      1781      1786      1605      1606      1607      1605      1610      1609
      1605      1610      1611      1606      1605      1610      1606      1607      1608
      1607      1604      1781      1607      1608      1785      1607      1608      1611
      1608      1611      1610      1608      1611      1612      1608      1785      1786
      1608      1785      1790      1609      1610      1611      1609      1614      1613
      1609      1614      1615      1610      1609      1614      1610      1611      1612
      1611      1608      1785      1611      1612      1615      1611      1612      1789
      1612      1615      1614      1612      1615      1616      1612      1789      1790
      1612      1789      1794      1613      1614      1615      1613      1618      1617
      1613      1618      1619      1614      1613      1618      1614      1615      1616
      1615      1612      1789      1615      1616      1619      1615      1616      1793
      1616      1619      1618      1616      1619      1620      1616      1793      1794
      1616      1793      1798      1617      1618      1619      1618      1619      1620
      1619      1616      1793      1619      1620      1797      1620      1797      1798
      1621      1622      1623      1621      1626      1625      1621      1626      1627
      1622      1621      1626      1622      1623      1624      1623      1624      1801
      1623      1624      1627      1624      1627      1626      1624      1627      1628
      1624      1801      1802      1624      1801      1806      1625      1626      1627
      1625      1630      1629      1625      1630      1631      1626      1625      1630
      1626      1627      1628      1627      1624      1801      1627      1628      1805
      1627      1628      1631      1628      1631      1630      1628      1631      1632
      1628      1805      1806      1628      1805      1810      1629      1630      1631
      1629      1634      1633      1629      1634      1635      1630      1629      1634
      1630      1631      1632      1631      1628      1805      1631      1632      1635
      1631      1632      1809      1632      1635      1634      1632      1635      1636
      1632      1809      1810      1632      1809      1814      1633      1634      1635
      1633      1638      1637      1633      1638      1639      1634      1633      1638
      1634      1635      1636      1635      1632      1809      1635      1636      1639
      1635      1636      1813      1636      1639      1638      1636      1639      1640
      1636      1813      1814      1636      1813      1818      1637      1638      1639
      1637      1642      1641      1637      1642      1643      1638      1637      1642
      1638      1639      1640      1639      1636      1813      1639      1640      1817
      1639      1640      1643      1640      1643      1642      1640      1643      1644
      1640      1817      1818      1640      1817      1822      1641      1642      1643
      1641      1646      1645      1641      1646      1647      1642      1641      1646
      1642      1643      1644      1643      1640      1817      1643      1644      1821
      1643      1644      1647      1644      1647      1646      1644      1647      1648
      1644      1821      1822      1644      1821      1826      1645      1646      1647
      1645      1650      1649      1645      1650      1651      1646      1645      1650
      1646      1647      1648      1647      1644      1821      1647      1648      1825
      1647      1648      1651      1648      1651      1650      1648      1651      1652
      1648      1825      1826      1648      1825      1830      1649      1650      1651
      1649      1654      1653      1649      1654      1655      1650      1649      1654
      1650      1651      1652      1651      1648      1825      1651      1652      1655
      1651      1652      1829      1652      1655      1654      1652      1655      1656
      1652      1829      1834      1652      1829      1830      1653      1654      1655
      1653      1658      1657      1653      1658      1659      1654      1653      1658
      1654      1655      1656      1655      1652      1829      1655      1656      1659
      1655      1656      1833      1656      1659      1658      1656      1659      1660
      1656      1833      1838      1656      1833      1834      1657      1658      1659
      1657      1662      1661      1657      1662      1663      1658      1657      1662
      1658      1659      1660      1659      1656      1833      1659      1660      1837
      1659      1660      1663      1660      1663      1662      1660      1663      1664
      1660      1837      1842      1660      1837      1838      1661      1662      1663
      1661      1666      1665      1661      1666      1667      1662      1661      1666
      1662      1663      1664      1663      1660      1837      1663      1664      1841
      1663      1664      1667      1664      1667      1666      1664      1667      1668
      1664      1841      1842      1664      1841      1846      1665      1666      1667
      1665      1670      1669      1665      1670      1671      1666      1665      1670
      1666      1667      1668      1667      1664      1841      1667      1668      1845
      1667      1668      1671      1668      1671      1670      1668      1671      1672
      1668      1845      1846      1668      1845      1850      1669      1670      1671
      1669      1674      1673      1669      1674      1675      1670      1669      1674
      1670      1671      1672      1671      1668      1845      1671      1672      1849
      1671      1672      1675      1672      1675      1674      1672      1675      1676
      1672      1849      1854      1672      1849      1850      1673      1674      1675
      1673      1678      1677      1673      1678      1679      1674      1673      1678
      1674      1675      1676      1675      1672      1849      1675      1676      1853
      1675      1676      1679      1676      1679      1678      1676      1679      1680
      1676      1853      1858      1676      1853      1854      1677      1678      1679
      1677      1682      1681      1677      1682      1683      1678      1677      1682
      1678      1679      1680      1679      1676      1853      1679      1680      1857
      1679      1680      1683      1680      1683      1682      1680      1683      1684
      1680      1857      1862      1680      1857      1858      1681      1682      1683
      1681      1686      1685      1681      1686      1687      1682      1681      1686
      1682      1683      1684      1683      1680      1857      1683      1684      1861
      1683      1684      1687      1684      1687      1686      1684      1687      1688
      1684      1861      1862      1684      1861      1866      1685      1686      1687
      1685      1690      1689      1685      1690      1691      1686      1685      1690
      1686      1687      1688      1687      1684      1861      1687      1688      1865
      1687      1688      1691      1688      1691      1690      1688      1691      1692
      1688      1865      1866      1688      1865      1870      1689      1690      1691
      1689      1694      1693      1689      1694      1695      1690      1689      1694
      1690      1691      1692      1691      1688      1865      1691      1692      1695
      1691      1692      1869      1692      1695      1694      1692      1695      1696
      1692      1869      1870      1692      1869      1874      1693      1694      1695
      1693      1698      1697      1693      1698      1699      1694      1693      1698
      1694      1695      1696      1695      1692      1869      1695      1696      1699
      1695      1696      1873      1696      1699      1698      1696      1699      1700
      1696      1873      1874      1696      1873      1878      1697      1698      1699
      1697      1702      1701      1697      1702      1703      1698      1697      1702
      1698      1699      1700      1699      1696      1873      1699      1700      1877
      1699      1700      1703      1700      1703      1702      1700      1703      1704
      1700      1877      1878      1700      1877      1882      1701      1702      1703
      1701      1706      1705      1701      1706      1707      1702      1701      1706
      1702      1703      1704      1703      1700      1877      1703      1704      1881
      1703      1704      1707      1704      1707      1706      1704      1707      1708
      1704      1881      1882      1704      1881      1886      1705      1706      1707
      1705      1710      1709      1705      1710      1711      1706      1705      1710
      1706      1707      1708      1707      1704      1881      1707      1708      1885
      1707      1708      1711      1708      1711      1710      1708      1711      1712
      1708      1885      1886      1708      1885      1890      1709      1710      1711
      1709      1714      1713      1709      1714      1715      1710      1709      1714
      1710      1711      1712      1711      1708      1885      1711      1712      1715
      1711      1712      1889      1712      1715      1714      1712      1715      1716
      1712      1889      1894      1712      1889      1890      1713      1714      1715
      1713      1718      1717      1713      1718      1719      1714      1713      1718
      1714      1715      1716      1715      1712      1889      1715      1716      1719
      1715      1716      1893      1716      1719      1718      1716      1719      1720
      1716      1893      1898      1716      1893      1894      1717      1718      1719
      1717      1722      1721      1717      1722      1723      1718      1717      1722
      1718      1719      1720      1719      1716      1893      1719      1720      1897
      1719      1720      1723      1720      1723      1722      1720      1723      1724
      1720      1897      1902      1720      1897      1898      1721      1722      1723
      1721      1726      1725      1721      1726      1727      1722      1721      1726
      1722      1723      1724      1723      1720      1897      1723      1724      1901
      1723      1724      1727      1724      1727      1726      1724      1727      1728
      1724      1901      1902      1724      1901      1906      1725      1726      1727
      1725      1730      1729      1725      1730      1731      1726      1725      1730
      1726      1727      1728      1727      1724      1901      1727      1728      1905
      1727      1728      1731      1728      1731      1730      1728      1731      1732
      1728      1905      1906      1728      1905      1910      1729      1730      1731
      1729      1734      1733      1729      1734      1735      1730      1729      1734
      1730      1731      1732      1731      1728      1905      1731      1732      1735
      1731      1732      1909      1732      1735      1734      1732      1735      1736
      1732      1909      1914      1732      1909      1910      1733      1734      1735
      1733      1738      1737      1733      1738      1739      1734      1733      1738
      1734      1735      1736      1735      1732      1909      1735      1736      1913
      1735      1736      1739      1736      1739      1738      1736      1739      1740
      1736      1913      1918      1736      1913      1914      1737      1738      1739
      1737      1742      1741      1737      1742      1743      1738      1737      1742
      1738      1739      1740      1739      1736      1913      1739      1740      1917
      1739      1740      1743      1740      1743      1742      1740      1743      1744
      1740      1917      1922      1740      1917      1918      1741      1742      1743
      1741      1746      1745      1741      1746      1747      1742      1741      1746
      1742      1743      1744      1743      1740      1917      1743      1744      1921
      1743      1744      1747      1744      1747      1746      1744      1747      1748
      1744      1921      1922      1744      1921      1926      1745      1746      1747
      1745      1750      1749      1745      1750      1751      1746      1745      1750
      1746      1747      1748      1747      1744      1921      1747      1748      1925
      1747      1748      1751      1748      1751      1750      1748      1751      1752
      1748      1925      1926      1748      1925      1930      1749      1750      1751
      1749      1754      1753      1749      1754      1755      1750      1749      1754
      1750      1751      1752      1751      1748      1925      1751      1752      1929
      1751      1752      1755      1752      1755      1754      1752      1755      1756
      1752      1929      1934      1752      1929      1930      1753      1754      1755
      1753      1758      1757      1753      1758      1759      1754      1753      1758
      1754      1755      1756      1755      1752      1929      1755      1756      1759
      1755      1756      1933      1756      1759      1758      1756      1759      1760
      1756      1933      1934      1756      1933      1938      1757      1758      1759
      1757      1762      1761      1757      1762      1763      1758      1757      1762
      1758      1759      1760      1759      1756      1933      1759      1760      1937
      1759      1760      1763      1760      1763      1762      1760      1763      1764
      1760      1937      1938      1760      1937      1942      1761      1762      1763
      1761      1766      1765      1761      1766      1767      1762      1761      1766
      1762      1763      1764      1763      1760      1937      1763      1764      1941
      1763      1764      1767      1764      1767      1766      1764      1767      1768
      1764      1941      1942      1764      1941      1946      1765      1766      1767
      1765      1770      1769      1765      1770      1771      1766      1765      1770
      1766      1767      1768      1767      1764      1941      1767      1768      1945
      1767      1768      1771      1768      1771      1770      1768      1771      1772
      1768      1945      1946      1768      1945      1950      1769      1770      1771
      1769      1774      1773      1769      1774      1775      1770      1769      1774
      1770      1771      1772      1771      1768      1945      1771      1772      1775
      1771      1772      1949      1772      1775      1774      1772      1775      1776
      1772      1949      1950      1772      1949      1954      1773      1774      1775
      1773      1778      1777      1773      1778      1779      1774      1773      1778
      1774      1775      1776      1775      1772      1949      1775      1776      1779
      1775      1776      1953      1776      1779      1778      1776      1779      1780
      1776      1953      1954      1776      1953      1958      1777      1778      1779
      1777      1782      1781      1777      1782      1783      1778      1777      1782
      1778      1779      1780      1779      1776      1953      1779      1780      1957
      1779      1780      1783      1780      1783      1782      1780      1783      1784
      1780      1957      1962      1780      1957      1958      1781      1782      1783
      1781      1786      1785      1781      1786      1787      1782      1781      1786
      1782      1783      1784      1783      1780      1957      1783      1784      1961
      1783      1784      1787      1784      1787      1786      1784      1787      1788
      1784      1961      1962      1784      1961      1966      1785      1786      1787
      1785      1790      1789      1785      1790      1791      1786      1785      1790
      1786      1787      1788      1787      1784      1961      1787      1788      1965
      1787      1788      1791      1788      1791      1790      1788      1791      1792
      1788      1965      1966      1788      1965      1970      1789      1790      1791
      1789      1794      1793      1789      1794      1795      1790      1789      1794
      1790      1791      1792      1791      1788      1965      1791      1792      1795
      1791      1792      1969      1792      1795      1794      1792      1795      1796
      1792      1969      1974      1792      1969      1970      1793      1794      1795
      1793      1798      1797      1793      1798      1799      1794      1793      1798
      1794      1795      1796      1795      1792      1969      1795      1796      1799
      1795      1796      1973      1796      1799      1798      1796      1799      1800
      1796      1973      1978      1796      1973      1974      1797      1798      1799
      1798      1799      1800      1799      1796      1973      1799      1800      1977
      1800      1977      1978      1801      1802      1803      1801      1806      1805
      1801      1806      1807      1802      1801      1806      1802      1803      1804
      1803      1804      1981      1803      1804      1807      1804      1807      1806
      1804      1807      1808      1804      1981      1982      1804      1981      1986
      1805      1806      1807      1805      1810      1809      1805      1810      1811
      1806      1805      1810      1806      1807      1808      1807      1804      1981
      1807      1808      1985      1807      1808      1811      1808      1811      1810
      1808      1811      1812      1808      1985      1986      1808      1985      1990
      1809      1810      1811      1809      1814      1813      1809      1814      1815
      1810      1809      1814      1810      1811      1812      1811      1808      1985
      1811      1812      1815      1811      1812      1989      1812      1815      1814
      1812      1815      1816      1812      1989      1994      1812      1989      1990
      1813      1814      1815      1813      1818      1817      1813      1818      1819
      1814      1813      1818      1814      1815      1816      1815      1812      1989
      1815      1816      1819      1815      1816      1993      1816      1819      1818
      1816      1819      1820      1816      1993      1998      1816      1993      1994
      1817      1818      1819      1817      1822      1821      1817      1822      1823
      1818      1817      1822      1818      1819      1820      1819      1816      1993
      1819      1820      1997      1819      1820      1823      1820      1823      1822
      1820      1823      1824      1820      1997      2002      1820      1997      1998
      1821      1822      1823      1821      1826      1825      1821      1826      1827
      1822      1821      1826      1822      1823      1824      1823      1820      1997
      1823      1824      2001      1823      1824      1827      1824      1827      1826
      1824      1827      1828      1824      2001      2002      1824      2001      2006
      1825      1826      1827      1825      1830      1829      1825      1830      1831
      1826      1825      1830      1826      1827      1828      1827      1824      2001
      1827      1828      2005      1827      1828      1831      1828      1831      1830
      1828      1831      1832      1828      2005      2006      1828      2005      2010
      1829      1830      1831      1829      1834      1833      1829      1834      1835
      1830      1829      1834      1830      1831      1832      1831      1828      2005
      1831      1832      2009      1831      1832      1835      1832      1835      1834
      1832      1835      1836      1832      2009      2014      1832      2009      2010
      1833      1834      1835      1833      1838      1837      1833      1838      1839
      1834      1833      1838      1834      1835      1836      1835      1832      2009
      1835      1836      2013      1835      1836      1839      1836      1839      1838
      1836      1839      1840      1836      2013      2018      1836      2013      2014
      1837      1838      1839      1837      1842      1841      1837      1842      1843
      1838      1837      1842      1838      1839      1840      1839      1836      2013
      1839      1840      2017      1839      1840      1843      1840      1843      1842
      1840      1843      1844      1840      2017      2022      1840      2017      2018
      1841      1842      1843      1841      1846      1845      1841      1846      1847
      1842      1841      1846      1842      1843      1844      1843      1840      2017
      1843      1844      2021      1843      1844      1847      1844      1847      1846
      1844      1847      1848      1844      2021      2022      1844      2021      2026
      1845      1846      1847      1845      1850      1849      1845      1850      1851
      1846      1845      1850      1846      1847      1848      1847      1844      2021
      1847      1848      2025      1847      1848      1851      1848      1851      1850
      1848      1851      1852      1848      2025      2026      1848      2025      2030
      1849      1850      1851      1849      1854      1853      1849      1854      1855
      1850      1849      1854      1850      1851      1852      1851      1848      2025
      1851      1852      1855      1851      1852      2029      1852      1855      1854
      1852      1855      1856      1852      2029      2030      1852      2029      2034
      1853      1854      1855      1853      1858      1857      1853      1858      1859
      1854      1853      1858      1854      1855      1856      1855      1852      2029
      1855      1856      1859      1855      1856      2033      1856      1859      1858
      1856      1859      1860      1856      2033      2034      1856      2033      2038
      1857      1858      1859      1857      1862      1861      1857      1862      1863
      1858      1857      1862      1858      1859      1860      1859      1856      2033
      1859      1860      2037      1859      1860      1863      1860      1863      1862
      1860      1863      1864      1860      2037      2038      1860      2037      2042
      1861      1862      1863      1861      1866      1865      1861      1866      1867
      1862      1861      1866      1862      1863      1864      1863      1860      2037
      1863      1864      2041      1863      1864      1867      1864      1867      1866
      1864      1867      1868      1864      2041      2042      1864      2041      2046
      1865      1866      1867      1865      1870      1869      1865      1870      1871
      1866      1865      1870      1866      1867      1868      1867      1864      2041
      1867      1868      2045      1867      1868      1871      1868      1871      1870
      1868      1871      1872      1868      2045      2046      1868      2045      2050
      1869      1870      1871      1869      1874      1873      1869      1874      1875
      1870      1869      1874      1870      1871      1872      1871      1868      2045
      1871      1872      1875      1871      1872      2049      1872      1875      1874
      1872      1875      1876      1872      2049      2054      1872      2049      2050
      1873      1874      1875      1873      1878      1877      1873      1878      1879
      1874      1873      1878      1874      1875      1876      1875      1872      2049
      1875      1876      1879      1875      1876      2053      1876      1879      1878
      1876      1879      1880      1876      2053      2058      1876      2053      2054
      1877      1878      1879      1877      1882      1881      1877      1882      1883
      1878      1877      1882      1878      1879      1880      1879      1876      2053
      1879      1880      2057      1879      1880      1883      1880      1883      1882
      1880      1883      1884      1880      2057      2062      1880      2057      2058
      1881      1882      1883      1881      1886      1885      1881      1886      1887
      1882      1881      1886      1882      1883      1884      1883      1880      2057
      1883      1884      2061      1883      1884      1887      1884      1887      1886
      1884      1887      1888      1884      2061      2062      1884      2061      2066
      1885      1886      1887      1885      1890      1889      1885      1890      1891
      1886      1885      1890      1886      1887      1888      1887      1884      2061
      1887      1888      2065      1887      1888      1891      1888      1891      1890
      1888      1891      1892      1888      2065      2066      1888      2065      2070
      1889      1890      1891      1889      1894      1893      1889      1894      1895
      1890      1889      1894      1890      1891      1892      1891      1888      2065
      1891      1892      2069      1891      1892      1895      1892      1895      1894
      1892      1895      1896      1892      2069      2074      1892      2069      2070
      1893      1894      1895      1893      1898      1897      1893      1898      1899
      1894      1893      1898      1894      1895      1896      1895      1892      2069
      1895      1896      2073      1895      1896      1899      1896      1899      1898
      1896      1899      1900      1896      2073      2078      1896      2073      2074
      1897      1898      1899      1897      1902      1901      1897      1902      1903
      1898      1897      1902      1898      1899      1900      1899      1896      2073
      1899      1900      2077      1899      1900      1903      1900      1903      1902
      1900      1903      1904      1900      2077      2082      1900      2077      2078
      1901      1902      1903      1901      1906      1905      1901      1906      1907
      1902      1901      1906      1902      1903      1904      1903      1900      2077
      1903      1904      2081      1903      1904      1907      1904      1907      1906
      1904      1907      1908      1904      2081      2082      1904      2081      2086
      1905      1906      1907      1905      1910      1909      1905      1910      1911
      1906      1905      1910      1906      1907      1908      1907      1904      2081
      1907      1908      2085      1907      1908      1911      1908      1911      1910
      1908      1911      1912      1908      2085      2086      1908      2085      2090
      1909      1910      1911      1909      1914      1913      1909      1914      1915
      1910      1909      1914      1910      1911      1912      1911      1908      2085
      1911      1912      1915      1911      1912      2089      1912      1915      1914
      1912      1915      1916      1912      2089      2090      1912      2089      2094
      1913      1914      1915      1913      1918      1917      1913      1918      1919
      1914      1913      1918      1914      1915      1916      1915      1912      2089
      1915      1916      1919      1915      1916      2093      1916      1919      1918
      1916      1919      1920      1916      2093      2094      1916      2093      2098
      1917      1918      1919      1917      1922      1921      1917      1922      1923
      1918      1917      1922      1918      1919      1920      1919      1916      2093
      1919      1920      2097      1919      1920      1923      1920      1923      1922
      1920      1923      1924      1920      2097      2098      1920      2097      2102
      1921      1922      1923      1921      1926      1925      1921      1926      1927
      1922      1921      1926      1922      1923      1924      1923      1920      2097
      1923      1924      2101      1923      1924      1927      1924      1927      1926
      1924      1927      1928      1924      2101      2102      1924      2101      2106
      1925      1926      1927      1925      1930      1929      1925      1930      1931
      1926      1925      1930      1926      1927      1928      1927      1924      2101
      1927      1928      2105      1927      1928      1931      1928      1931      1930
      1928      1931      1932      1928      2105      2106      1928      2105      2110
      1929      1930      1931      1929      1934      1933      1929      1934      1935
      1930      1929      1934      1930      1931      1932      1931      1928      2105
      1931      1932      1935      1931      1932      2109      1932      1935      1934
      1932      1935      1936      1932      2109      2114      1932      2109      2110
      1933      1934      1935      1933      1938      1937      1933      1938      1939
      1934      1933      1938      1934      1935      1936      1935      1932      2109
      1935      1936      1939      1935      1936      2113      1936      1939      1938
      1936      1939      1940      1936      2113      2118      1936      2113      2114
      1937      1938      1939      1937      1942      1941      1937      1942      1943
      1938      1937      1942      1938      1939      1940      1939      1936      2113
      1939      1940      2117      1939      1940      1943      1940      1943      1942
      1940      1943      1944      1940      2117      2122      1940      2117      2118
      1941      1942      1943      1941      1946      1945      1941      1946      1947
      1942      1941      1946      1942      1943      1944      1943      1940      2117
      1943      1944      2121      1943      1944      1947      1944      1947      1946
      1944      1947      1948      1944      2121      2122      1944      2121      2126
      1945      1946      1947      1945      1950      1949      1945      1950      1951
      1946      1945      1950      1946      1947      1948      1947      1944      2121
      1947      1948      2125      1947      1948      1951      1948      1951      1950
      1948      1951      1952      1948      2125      2126      1948      2125      2130
      1949      1950      1951      1949      1954      1953      1949      1954      1955
      1950      1949      1954      1950      1951      1952      1951      1948      2125
      1951      1952      1955      1951      1952      2129      1952      1955      1954
      1952      1955      1956      1952      2129      2134      1952      2129      2130
      1953      1954      1955      1953      1958      1957      1953      1958      1959
      1954      1953      1958      1954      1955      1956      1955      1952      2129
      1955      1956      2133      1955      1956      1959      1956      1959      1958
      1956      1959      1960      1956      2133      2138      1956      2133      2134
      1957      1958      1959      1957      1962      1961      1957      1962      1963
      1958      1957      1962      1958      1959      1960      1959      1956      2133
      1959      1960      2137      1959      1960      1963      1960      1963      1962
      1960      1963      1964      1960      2137      2142      1960      2137      2138
      1961      1962      1963      1961      1966      1965      1961      1966      1967
      1962      1961      1966      1962      1963      1964      1963      1960      2137
      1963      1964      2141      1963      1964      1967      1964      1967      1966
      1964      1967      1968      1964      2141      2142      1964      2141      2146
      1965      1966      1967      1965      1970      1969      1965      1970      1971
      1966      1965      1970      1966      1967      1968      1967      1964      2141
      1967      1968      2145      1967      1968      1971      1968      1971      1970
      1968      1971      1972      1968      2145      2146      1968      2145      2150
      1969      1970      1971      1969      1974      1973      1969      1974      1975
      1970      1969      1974      1970      1971      1972      1971      1968      2145
      1971      1972      2149      1971      1972      1975      1972      1975      1974
      1972      1975      1976      1972      2149      2154      1972      2149      2150
      1973      1974      1975      1973      1978      1977      1973      1978      1979
      1974      1973      1978      1974      1975      1976      1975      1972      2149
      1975      1976      1979      1975      1976      2153      1976      1979      1978
      1976      1979      1980      1976      2153      2154      1976      2153      2158
      1977      1978      1979      1978      1979      1980      1979      1976      2153
      1979      1980      2157      1980      2157      2158      1981      1982      1983
      1981      1986      1985      1981      1986      1987      1982      1981      1986
      1982      1983      1984      1983      1984      2161      1983      1984      1987
      1984      1987      1986      1984      1987      1988      1984      2161      2162
      1984      2161      2166      1985      1986      1987      1985      1990      1989
      1985      1990      1991      1986      1985      1990      1986      1987      1988
      1987      1984      2161      1987      1988      2165      1987      1988      1991
      1988      1991      1990      1988      1991      1992      1988      2165      2166
      1988      2165      2170      1989      1990      1991      1989      1994      1993
      1989      1994      1995      1990      1989      1994      1990      1991      1992
      1991      1988      2165      1991      1992      2169      1991      1992      1995
      1992      1995      1994      1992      1995      1996      1992      2169      2174
      1992      2169      2170      1993      1994      1995      1993      1998      1997
      1993      1998      1999      1994      1993      1998      1994      1995      1996
      1995      1992      2169      1995      1996      1999      1995      1996      2173
      1996      1999      1998      1996      1999      2000      1996      2173      2178
      1996      2173      2174      1997      1998      1999      1997      2002      2001
      1997      2002      2003      1998      1997      2002      1998      1999      2000
      1999      1996      2173      1999      2000      2177      1999      2000      2003
      2000      2003      2002      2000      2003      2004      2000      2177      2182
      2000      2177      2178      2001      2002      2003      2001      2006      2005
      2001      2006      2007      2002      2001      2006      2002      2003      2004
      2003      2000      2177      2003      2004      2181      2003      2004      2007
      2004      2007      2006      2004      2007      2008      2004      2181      2182
      2004      2181      2186      2005      2006      2007      2005      2010      2009
      2005      2010      2011      2006      2005      2010      2006      2007      2008
      2007      2004      2181      2007      2008      2185      2007      2008      2011
      2008      2011      2010      2008      2011      2012      2008      2185      2186
      2008      2185      2190      2009      2010      2011      2009      2014      2013
      2009      2014      2015      2010      2009      2014      2010      2011      2012
      2011      2008      2185      2011      2012      2015      2011      2012      2189
      2012      2015      2014      2012      2015      2016      2012      2189      2194
      2012      2189      2190      2013      2014      2015      2013      2018      2017
      2013      2018      2019      2014      2013      2018      2014      2015      2016
      2015      2012      2189      2015      2016      2019      2015      2016      2193
      2016      2019      2018      2016      2019      2020      2016      2193      2194
      2016      2193      2198      2017      2018      2019      2017      2022      2021
      2017      2022      2023      2018      2017      2022      2018      2019      2020
      2019      2016      2193      2019      2020      2197      2019      2020      2023
      2020      2023      2022      2020      2023      2024      2020      2197      2202
      2020      2197      2198      2021      2022      2023      2021      2026      2025
      2021      2026      2027      2022      2021      2026      2022      2023      2024
      2023      2020      2197      2023      2024      2201      2023      2024      2027
      2024      2027      2026      2024      2027      2028      2024      2201      2202
      2024      2201      2206      2025      2026      2027      2025      2030      2029
      2025      2030      2031      2026      2025      2030      2026      2027      2028
      2027      2024      2201      2027      2028      2205      2027      2028      2031
      2028      2031      2030      2028      2031      2032      2028      2205      2206
      2028      2205      2210      2029      2030      2031      2029      2034      2033
      2029      2034      2035      2030      2029      2034      2030      2031      2032
      2031      2028      2205      2031      2032      2035      2031      2032      2209
      2032      2035      2034      2032      2035      2036      2032      2209      2214
      2032      2209      2210      2033      2034      2035      2033      2038      2037
      2033      2038      2039      2034      2033      2038      2034      2035      2036
      2035      2032      2209      2035      2036      2039      2035      2036      2213
      2036      2039      2038      2036      2039      2040      2036      2213      2218
      2036      2213      2214      2037      2038      2039      2037      2042      2041
      2037      2042      2043      2038      2037      2042      2038      2039      2040
      2039      2036      2213      2039      2040      2217      2039      2040      2043
      2040      2043      2042      2040      2043      2044      2040      2217      2222
      2040      2217      2218      2041      2042      2043      2041      2046      2045
      2041      2046      2047      2042      2041      2046      2042      2043      2044
      2043      2040      2217      2043      2044      2221      2043      2044      2047
      2044      2047      2046      2044      2047      2048      2044      2221      2222
      2044      2221      2226      2045      2046      2047      2045      2050      2049
      2045      2050      2051      2046      2045      2050      2046      2047      2048
      2047      2044      2221      2047      2048      2225      2047      2048      2051
      2048      2051      2050      2048      2051      2052      2048      2225      2226
      2048      2225      2230      2049      2050      2051      2049      2054      2053
      2049      2054      2055      2050      2049      2054      2050      2051      2052
      2051      2048      2225      2051      2052      2229      2051      2052      2055
      2052      2055      2054      2052      2055      2056      2052      2229      2234
      2052      2229      2230      2053      2054      2055      2053      2058      2057
      2053      2058      2059      2054      2053      2058      2054      2055      2056
      2055      2052      2229      2055      2056      2233      2055      2056      2059
      2056      2059      2058      2056      2059      2060      2056      2233      2238
      2056      2233      2234      2057      2058      2059      2057      2062      2061
      2057      2062      2063      2058      2057      2062      2058      2059      2060
      2059      2056      2233      2059      2060      2237      2059      2060      2063
      2060      2063      2062      2060      2063      2064      2060      2237      2242
      2060      2237      2238      2061      2062      2063      2061      2066      2065
      2061      2066      2067      2062      2061      2066      2062      2063      2064
      2063      2060      2237      2063      2064      2241      2063      2064      2067
      2064      2067      2066      2064      2067      2068      2064      2241      2242
      2064      2241      2246      2065      2066      2067      2065      2070      2069
      2065      2070      2071      2066      2065      2070      2066      2067      2068
      2067      2064      2241      2067      2068      2245      2067      2068      2071
      2068      2071      2070      2068      2071      2072      2068      2245      2246
      2068      2245      2250      2069      2070      2071      2069      2074      2073
      2069      2074      2075      2070      2069      2074      2070      2071      2072
      2071      2068      2245      2071      2072      2075      2071      2072      2249
      2072      2075      2074      2072      2075      2076      2072      2249      2254
      2072      2249      2250      2073      2074      2075      2073      2078      2077
      2073      2078      2079      2074      2073      2078      2074      2075      2076
      2075      2072      2249      2075      2076      2079      2075      2076      2253
      2076      2079      2078      2076      2079      2080      2076      2253      2258
      2076      2253      2254      2077      2078      2079      2077      2082      2081
      2077      2082      2083      2078      2077      2082      2078      2079      2080
      2079      2076      2253      2079      2080      2257      2079      2080      2083
      2080      2083      2082      2080      2083      2084      2080      2257      2262
      2080      2257      2258      2081      2082      2083      2081      2086      2085
      2081      2086      2087      2082      2081      2086      2082      2083      2084
      2083      2080      2257      2083      2084      2261      2083      2084      2087
      2084      2087      2086      2084      2087      2088      2084      2261      2262
      2084      2261      2266      2085      2086      2087      2085      2090      2089
      2085      2090      2091      2086      2085      2090      2086      2087      2088
      2087      2084      2261      2087      2088      2265      2087      2088      2091
      2088      2091      2090      2088      2091      2092      2088      2265      2266
      2088      2265      2270      2089      2090      2091      2089      2094      2093
      2089      2094      2095      2090      2089      2094      2090      2091      2092
      2091      2088      2265      2091      2092      2095      2091      2092      2269
      2092      2095      2094      2092      2095      2096      2092      2269      2274
      2092      2269      2270      2093      2094      2095      2093      2098      2097
      2093      2098      2099      2094      2093      2098      2094      2095      2096
      2095      2092      2269      2095      2096      2099      2095      2096      2273
      2096      2099      2098      2096      2099      2100      2096      2273      2278
      2096      2273      2274      2097      2098      2099      2097      2102      2101
      2097      2102      2103      2098      2097      2102      2098      2099      2100
      2099      2096      2273      2099      2100      2277      2099      2100      2103
      2100      2103      2102      2100      2103      2104      2100      2277      2282
      2100      2277      2278      2101      2102      2103      2101      2106      2105
      2101      2106      2107      2102      2101      2106      2102      2103      2104
      2103      2100      2277      2103      2104      2281      2103      2104      2107
      2104      2107      2106      2104      2107      2108      2104      2281      2282
      2104      2281      2286      2105      2106      2107      2105      2110      2109
      2105      2110      2111      2106      2105      2110      2106      2107      2108
      2107      2104      2281      2107      2108      2285      2107      2108      2111
      2108      2111      2110      2108      2111      2112      2108      2285      2286
      2108      2285      2290      2109      2110      2111      2109      2114      2113
      2109      2114      2115      2110      2109      2114      2110      2111      2112
      2111      2108      2285      2111      2112      2289      2111      2112      2115
      2112      2115      2114      2112      2115      2116      2112      2289      2294
      2112      2289      2290      2113      2114      2115      2113      2118      2117
      2113      2118      2119      2114      2113      2118      2114      2115      2116
      2115      2112      2289      2115      2116      2293      2115      2116      2119
      2116      2119      2118      2116      2119      2120      2116      2293      2298
      2116      2293      2294      2117      2118      2119      2117      2122      2121
      2117      2122      2123      2118      2117      2122      2118      2119      2120
      2119      2116      2293      2119      2120      2297      2119      2120      2123
      2120      2123      2122      2120      2123      2124      2120      2297      2302
      2120      2297      2298      2121      2122      2123      2121      2126      2125
      2121      2126      2127      2122      2121      2126      2122      2123      2124
      2123      2120      2297      2123      2124      2301      2123      2124      2127
      2124      2127      2126      2124      2127      2128      2124      2301      2302
      2124      2301      2306      2125      2126      2127      2125      2130      2129
      2125      2130      2131      2126      2125      2130      2126      2127      2128
      2127      2124      2301      2127      2128      2305      2127      2128      2131
      2128      2131      2130      2128      2131      2132      2128      2305      2306
      2128      2305      2310      2129      2130      2131      2129      2134      2133
      2129      2134      2135      2130      2129      2134      2130      2131      2132
      2131      2128      2305      2131      2132      2135      2131      2132      2309
      2132      2135      2134      2132      2135      2136      2132      2309      2314
      2132      2309      2310      2133      2134      2135      2133      2138      2137
      2133      2138      2139      2134      2133      2138      2134      2135      2136
      2135      2132      2309      2135      2136      2139      2135      2136      2313
      2136      2139      2138      2136      2139      2140      2136      2313      2318
      2136      2313      2314      2137      2138      2139      2137      2142      2141
      2137      2142      2143      2138      2137      2142      2138      2139      2140
      2139      2136      2313      2139      2140      2317      2139      2140      2143
      2140      2143      2142      2140      2143      2144      2140      2317      2322
      2140      2317      2318      2141      2142      2143      2141      2146      2145
      2141      2146      2147      2142      2141      2146      2142      2143      2144
      2143      2140      2317      2143      2144      2321      2143      2144      2147
      2144      2147      2146      2144      2147      2148      2144      2321      2322
      2144      2321      2326      2145      2146      2147      2145      2150      2149
      2145      2150      2151      2146      2145      2150      2146      2147      2148
      2147      2144      2321      2147      2148      2325      2147      2148      2151
      2148      2151      2150      2148      2151      2152      2148      2325      2326
      2148      2325      2330      2149      2150      2151      2149      2154      2153
      2149      2154      2155      2150      2149      2154      2150      2151      2152
      2151      2148      2325      2151      2152      2155      2151      2152      2329
      2152      2155      2154      2152      2155      2156      2152      2329      2334
      2152      2329      2330      2153      2154      2155      2153      2158      2157
      2153      2158      2159      2154      2153      2158      2154      2155      2156
      2155      2152      2329      2155      2156      2159      2155      2156      2333
      2156      2159      2158      2156      2159      2160      2156      2333      2338
      2156      2333      2334      2157      2158      2159      2158      2159      2160
      2159      2156      2333      2159      2160      2337      2160      2337      2338
      2161      2162      2163      2161      2166      2165      2161      2166      2167
      2162      2161      2166      2162      2163      2164      2163      2164      2167
      2163      2164      2341      2164      2167      2166      2164      2167      2168
      2164      2341      2342      2164      2341      2346      2165      2166      2167
      2165      2170      2169      2165      2170      2171      2166      2165      2170
      2166      2167      2168      2167      2164      2341      2167      2168      2171
      2167      2168      2345      2168      2171      2170      2168      2171      2172
      2168      2345      2346      2168      2345      2350      2169      2170      2171
      2169      2174      2173      2169      2174      2175      2170      2169      2174
      2170      2171      2172      2171      2168      2345      2171      2172      2175
      2171      2172      2349      2172      2175      2174      2172      2175      2176
      2172      2349      2354      2172      2349      2350      2173      2174      2175
      2173      2178      2177      2173      2178      2179      2174      2173      2178
      2174      2175      2176      2175      2172      2349      2175      2176      2179
      2175      2176      2353      2176      2179      2178      2176      2179      2180
      2176      2353      2358      2176      2353      2354      2177      2178      2179
      2177      2182      2181      2177      2182      2183      2178      2177      2182
      2178      2179      2180      2179      2176      2353      2179      2180      2183
      2179      2180      2357      2180      2183      2182      2180      2183      2184
      2180      2357      2362      2180      2357      2358      2181      2182      2183
      2181      2186      2185      2181      2186      2187      2182      2181      2186
      2182      2183      2184      2183      2180      2357      2183      2184      2187
      2183      2184      2361      2184      2187      2186      2184      2187      2188
      2184      2361      2362      2184      2361      2366      2185      2186      2187
      2185      2190      2189      2185      2190      2191      2186      2185      2190
      2186      2187      2188      2187      2184      2361      2187      2188      2191
      2187      2188      2365      2188      2191      2190      2188      2191      2192
      2188      2365      2366      2188      2365      2370      2189      2190      2191
      2189      2194      2193      2189      2194      2195      2190      2189      2194
      2190      2191      2192      2191      2188      2365      2191      2192      2195
      2191      2192      2369      2192      2195      2194      2192      2195      2196
      2192      2369      2374      2192      2369      2370      2193      2194      2195
      2193      2198      2197      2193      2198      2199      2194      2193      2198
      2194      2195      2196      2195      2192      2369      2195      2196      2199
      2195      2196      2373      2196      2199      2198      2196      2199      2200
      2196      2373      2378      2196      2373      2374      2197      2198      2199
      2197      2202      2201      2197      2202      2203      2198      2197      2202
      2198      2199      2200      2199      2196      2373      2199      2200      2203
      2199      2200      2377      2200      2203      2202      2200      2203      2204
      2200      2377      2382      2200      2377      2378      2201      2202      2203
      2201      2206      2205      2201      2206      2207      2202      2201      2206
      2202      2203      2204      2203      2200      2377      2203      2204      2207
      2203      2204      2381      2204      2207      2206      2204      2207      2208
      2204      2381      2382      2204      2381      2386      2205      2206      2207
      2205      2210      2209      2205      2210      2211      2206      2205      2210
      2206      2207      2208      2207      2204      2381      2207      2208      2211
      2207      2208      2385      2208      2211      2210      2208      2211      2212
      2208      2385      2386      2208      2385      2390      2209      2210      2211
      2209      2214      2213      2209      2214      2215      2210      2209      2214
      2210      2211      2212      2211      2208      2385      2211      2212      2215
      2211      2212      2389      2212      2215      2214      2212      2215      2216
      2212      2389      2394      2212      2389      2390      2213      2214      2215
      2213      2218      2217      2213      2218      2219      2214      2213      2218
      2214      2215      2216      2215      2212      2389      2215      2216      2219
      2215      2216      2393      2216      2219      2218      2216      2219      2220
      2216      2393      2398      2216      2393      2394      2217      2218      2219
      2217      2222      2221      2217      2222      2223      2218      2217      2222
      2218      2219      2220      2219      2216      2393      2219      2220      2223
      2219      2220      2397      2220      2223      2222      2220      2223      2224
      2220      2397      2402      2220      2397      2398      2221      2222      2223
      2221      2226      2225      2221      2226      2227      2222      2221      2226
      2222      2223      2224      2223      2220      2397      2223      2224      2227
      2223      2224      2401      2224      2227      2226      2224      2227      2228
      2224      2401      2402      2224      2401      2406      2225      2226      2227
      2225      2230      2229      2225      2230      2231      2226      2225      2230
      2226      2227      2228      2227      2224      2401      2227      2228      2231
      2227      2228      2405      2228      2231      2230      2228      2231      2232
      2228      2405      2406      2228      2405      2410      2229      2230      2231
      2229      2234      2233      2229      2234      2235      2230      2229      2234
      2230      2231      2232      2231      2228      2405      2231      2232      2235
      2231      2232      2409      2232      2235      2234      2232      2235      2236
      2232      2409      2414      2232      2409      2410      2233      2234      2235
      2233      2238      2237      2233      2238      2239      2234      2233      2238
      2234      2235      2236      2235      2232      2409      2235      2236      2239
      2235      2236      2413      2236      2239      2238      2236      2239      2240
      2236      2413      2414      2236      2413      2418      2237      2238      2239
      2237      2242      2241      2237      2242      2243      2238      2237      2242
      2238      2239      2240      2239      2236      2413      2239      2240      2243
      2239      2240      2417      2240      2243      2242      2240      2243      2244
      2240      2417      2422      2240      2417      2418      2241      2242      2243
      2241      2246      2245      2241      2246      2247      2242      2241      2246
      2242      2243      2244      2243      2240      2417      2243      2244      2247
      2243      2244      2421      2244      2247      2246      2244      2247      2248
      2244      2421      2422      2244      2421      2426      2245      2246      2247
      2245      2250      2249      2245      2250      2251      2246      2245      2250
      2246      2247      2248      2247      2244      2421      2247      2248      2251
      2247      2248      2425      2248      2251      2250      2248      2251      2252
      2248      2425      2426      2248      2425      2430      2249      2250      2251
      2249      2254      2253      2249      2254      2255      2250      2249      2254
      2250      2251      2252      2251      2248      2425      2251      2252      2255
      2251      2252      2429      2252      2255      2254      2252      2255      2256
      2252      2429      2434      2252      2429      2430      2253      2254      2255
      2253      2258      2257      2253      2258      2259      2254      2253      2258
      2254      2255      2256      2255      2252      2429      2255      2256      2259
      2255      2256      2433      2256      2259      2258      2256      2259      2260
      2256      2433      2438      2256      2433      2434      2257      2258      2259
      2257      2262      2261      2257      2262      2263      2258      2257      2262
      2258      2259      2260      2259      2256      2433      2259      2260      2263
      2259      2260      2437      2260      2263      2262      2260      2263      2264
      2260      2437      2442      2260      2437      2438      2261      2262      2263
      2261      2266      2265      2261      2266      2267      2262      2261      2266
      2262      2263      2264      2263      2260      2437      2263      2264      2267
      2263      2264      2441      2264      2267      2266      2264      2267      2268
      2264      2441      2442      2264      2441      2446      2265      2266      2267
      2265      2270      2269      2265      2270      2271      2266      2265      2270
      2266      2267      2268      2267      2264      2441      2267      2268      2271
      2267      2268      2445      2268      2271      2270      2268      2271      2272
      2268      2445      2446      2268      2445      2450      2269      2270      2271
      2269      2274      2273      2269      2274      2275      2270      2269      2274
      2270      2271      2272      2271      2268      2445      2271      2272      2275
      2271      2272      2449      2272      2275      2274      2272      2275      2276
      2272      2449      2454      2272      2449      2450      2273      2274      2275
      2273      2278      2277      2273      2278      2279      2274      2273      2278
      2274      2275      2276      2275      2272      2449      2275      2276      2279
      2275      2276      2453      2276      2279      2278      2276      2279      2280
      2276      2453      2458      2276      2453      2454      2277      2278      2279
      2277      2282      2281      2277      2282      2283      2278      2277      2282
      2278      2279      2280      2279      2276      2453      2279      2280      2283
      2279      2280      2457      2280      2283      2282      2280      2283      2284
      2280      2457      2462      2280      2457      2458      2281      2282      2283
      2281      2286      2285      2281      2286      2287      2282      2281      2286
      2282      2283      2284      2283      2280      2457      2283      2284      2287
      2283      2284      2461      2284      2287      2286      2284      2287      2288
      2284      2461      2462      2284      2461      2466      2285      2286      2287
      2285      2290      2289      2285      2290      2291      2286      2285      2290
      2286      2287      2288      2287      2284      2461      2287      2288      2291
      2287      2288      2465      2288      2291      2290      2288      2291      2292
      2288      2465      2466      2288      2465      2470      2289      2290      2291
      2289      2294      2293      2289      2294      2295      2290      2289      2294
      2290      2291      2292      2291      2288      2465      2291      2292      2295
      2291      2292      2469      2292      2295      2294      2292      2295      2296
      2292      2469      2474      2292      2469      2470      2293      2294      2295
      2293      2298      2297      2293      2298      2299      2294      2293      2298
      2294      2295      2296      2295      2292      2469      2295      2296      2299
      2295      2296      2473      2296      2299      2298      2296      2299      2300
      2296      2473      2478      2296      2473      2474      2297      2298      2299
      2297      2302      2301      2297      2302      2303      2298      2297      2302
      2298      2299      2300      2299      2296      2473      2299      2300      2303
      2299      2300      2477      2300      2303      2302      2300      2303      2304
      2300      2477      2482      2300      2477      2478      2301      2302      2303
      2301      2306      2305      2301      2306      2307      2302      2301      2306
      2302      2303      2304      2303      2300      2477      2303      2304      2307
      2303      2304      2481      2304      2307      2306      2304      2307      2308
      2304      2481      2482      2304      2481      2486      2305      2306      2307
      2305      2310      2309      2305      2310      2311      2306      2305      2310
      2306      2307      2308      2307      2304      2481      2307      2308      2311
      2307      2308      2485      2308      2311      2310      2308      2311      2312
      2308      2485      2486      2308      2485      2490      2309      2310      2311
      2309      2314      2313      2309      2314      2315      2310      2309      2314
      2310      2311      2312      2311      2308      2485      2311      2312      2315
      2311      2312      2489      2312      2315      2314      2312      2315      2316
      2312      2489      2494      2312      2489      2490      2313      2314      2315
      2313      2318      2317      2313      2318      2319      2314      2313      2318
      2314      2315      2316      2315      2312      2489      2315      2316      2319
      2315      2316      2493      2316      2319      2318      2316      2319      2320
      2316      2493      2498      2316      2493      2494      2317      2318      2319
      2317      2322      2321      2317      2322      2323      2318      2317      2322
      2318      2319      2320      2319      2316      2493      2319      2320      2323
      2319      2320      2497      2320      2323      2322      2320      2323      2324
      2320      2497      2502      2320      2497      2498      2321      2322      2323
      2321      2326      2325      2321      2326      2327      2322      2321      2326
      2322      2323      2324      2323      2320      2497      2323      2324      2327
      2323      2324      2501      2324      2327      2326      2324      2327      2328
      2324      2501      2502      2324      2501      2506      2325      2326      2327
      2325      2330      2329      2325      2330      2331      2326      2325      2330
      2326      2327      2328      2327      2324      2501      2327      2328      2331
      2327      2328      2505      2328      2331      2330      2328      2331      2332
      2328      2505      2506      2328      2505      2510      2329      2330      2331
      2329      2334      2333      2329      2334      2335      2330      2329      2334
      2330      2331      2332      2331      2328      2505      2331      2332      2335
      2331      2332      2509      2332      2335      2334      2332      2335      2336
      2332      2509      2514      2332      2509      2510      2333      2334      2335
      2333      2338      2337      2333      2338      2339      2334      2333      2338
      2334      2335      2336      2335      2332      2509      2335      2336      2339
      2335      2336      2513      2336      2339      2338      2336      2339      2340
      2336      2513      2518      2336      2513      2514      2337      2338      2339
      2338      2339      2340      2339      2336      2513      2339      2340      2517
      2340      2517      2518      2341      2342      2343      2341      2346      2345
      2341      2346      2347      2342      2341      2346      2342      2343      2344
      2343      2344      2347      2343      2344      2521      2344      2347      2346
      2344      2347      2348      2344      2521      2522      2344      2521      2526
      2345      2346      2347      2345      2350      2349      2345      2350      2351
      2346      2345      2350      2346      2347      2348      2347      2344      2521
      2347      2348      2351      2347      2348      2525      2348      2351      2350
      2348      2351      2352      2348      2525      2526      2348      2525      2530
      2349      2350      2351      2349      2354      2353      2349      2354      2355
      2350      2349      2354      2350      2351      2352      2351      2348      2525
      2351      2352      2355      2351      2352      2529      2352      2355      2354
      2352      2355      2356      2352      2529      2534      2352      2529      2530
      2353      2354      2355      2353      2358      2357      2353      2358      2359
      2354      2353      2358      2354      2355      2356      2355      2352      2529
      2355      2356      2359      2355      2356      2533      2356      2359      2358
      2356      2359      2360      2356      2533      2538      2356      2533      2534
      2357      2358      2359      2357      2362      2361      2357      2362      2363
      2358      2357      2362      2358      2359      2360      2359      2356      2533
      2359      2360      2363      2359      2360      2537      2360      2363      2362
      2360      2363      2364      2360      2537      2542      2360      2537      2538
      2361      2362      2363      2361      2366      2365      2361      2366      2367
      2362      2361      2366      2362      2363      2364      2363      2360      2537
      2363      2364      2367      2363      2364      2541      2364      2367      2366
      2364      2367      2368      2364      2541      2542      2364      2541      2546
      2365      2366      2367      2365      2370      2369      2365      2370      2371
      2366      2365      2370      2366      2367      2368      2367      2364      2541
      2367      2368      2371      2367      2368      2545      2368      2371      2370
      2368      2371      2372      2368      2545      2546      2368      2545      2550
      2369      2370      2371      2369      2374      2373      2369      2374      2375
      2370      2369      2374      2370      2371      2372      2371      2368      2545
      2371      2372      2375      2371      2372      2549      2372      2375      2374
      2372      2375      2376      2372      2549      2554      2372      2549      2550
      2373      2374      2375      2373      2378      2377      2373      2378      2379
      2374      2373      2378      2374      2375      2376      2375      2372      2549
      2375      2376      2379      2375      2376      2553      2376      2379      2378
      2376      2379      2380      2376      2553      2558      2376      2553      2554
      2377      2378      2379      2377      2382      2381      2377      2382      2383
      2378      2377      2382      2378      2379      2380      2379      2376      2553
      2379      2380      2383      2379      2380      2557      2380      2383      2382
      2380      2383      2384      2380      2557      2562      2380      2557      2558
      2381      2382      2383      2381      2386      2385      2381      2386      2387
      2382      2381      2386      2382      2383      2384      2383      2380      2557
      2383      2384      2387      2383      2384      2561      2384      2387      2386
      2384      2387      2388      2384      2561      2562      2384      2561      2566
      2385      2386      2387      2385      2390      2389      2385      2390      2391
      2386      2385      2390      2386      2387      2388      2387      2384      2561
      2387      2388      2391      2387      2388      2565      2388      2391      2390
      2388      2391      2392      2388      2565      2566      2388      2565      2570
      2389      2390      2391      2389      2394      2393      2389      2394      2395
      2390      2389      2394      2390      2391      2392      2391      2388      2565
      2391      2392      2395      2391      2392      2569      2392      2395      2394
      2392      2395      2396      2392      2569      2574      2392      2569      2570
      2393      2394      2395      2393      2398      2397      2393      2398      2399
      2394      2393      2398      2394      2395      2396      2395      2392      2569
      2395      2396      2399      2395      2396      2573      2396      2399      2398
      2396      2399      2400      2396      2573      2578      2396      2573      2574
      2397      2398      2399      2397      2402      2401      2397      2402      2403
      2398      2397      2402      2398      2399      2400      2399      2396      2573
      2399      2400      2403      2399      2400      2577      2400      2403      2402
      2400      2403      2404      2400      2577      2582      2400      2577      2578
      2401      2402      2403      2401      2406      2405      2401      2406      2407
      2402      2401      2406      2402      2403      2404      2403      2400      2577
      2403      2404      2407      2403      2404      2581      2404      2407      2406
      2404      2407      2408      2404      2581      2582      2404      2581      2586
      2405      2406      2407      2405      2410      2409      2405      2410      2411
      2406      2405      2410      2406      2407      2408      2407      2404      2581
      2407      2408      2411      2407      2408      2585      2408      2411      2410
      2408      2411      2412      2408      2585      2586      2408      2585      2590
      2409      2410      2411      2409      2414      2413      2409      2414      2415
      2410      2409      2414      2410      2411      2412      2411      2408      2585
      2411      2412      2415      2411      2412      2589      2412      2415      2414
      2412      2415      2416      2412      2589      2594      2412      2589      2590
      2413      2414      2415      2413      2418      2417      2413      2418      2419
      2414      2413      2418      2414      2415      2416      2415      2412      2589
      2415      2416      2419      2415      2416      2593      2416      2419      2418
      2416      2419      2420      2416      2593      2598      2416      2593      2594
      2417      2418      2419      2417      2422      2421      2417      2422      2423
      2418      2417      2422      2418      2419      2420      2419      2416      2593
      2419      2420      2423      2419      2420      2597      2420      2423      2422
      2420      2423      2424      2420      2597      2602      2420      2597      2598
      2421      2422      2423      2421      2426      2425      2421      2426      2427
      2422      2421      2426      2422      2423      2424      2423      2420      2597
      2423      2424      2427      2423      2424      2601      2424      2427      2426
      2424      2427      2428      2424      2601      2602      2424      2601      2606
      2425      2426      2427      2425      2430      2429      2425      2430      2431
      2426      2425      2430      2426      2427      2428      2427      2424      2601
      2427      2428      2431      2427      2428      2605      2428      2431      2430
      2428      2431      2432      2428      2605      2606      2428      2605      2610
      2429      2430      2431      2429      2434      2433      2429      2434      2435
      2430      2429      2434      2430      2431      2432      2431      2428      2605
      2431      2432      2435      2431      2432      2609      2432      2435      2434
      2432      2435      2436      2432      2609      2614      2432      2609      2610
      2433      2434      2435      2433      2438      2437      2433      2438      2439
      2434      2433      2438      2434      2435      2436      2435      2432      2609
      2435      2436      2439      2435      2436      2613      2436      2439      2438
      2436      2439      2440      2436      2613      2618      2436      2613      2614
      2437      2438      2439      2437      2442      2441      2437      2442      2443
      2438      2437      2442      2438      2439      2440      2439      2436      2613
      2439      2440      2443      2439      2440      2617      2440      2443      2442
      2440      2443      2444      2440      2617      2622      2440      2617      2618
      2441      2442      2443      2441      2446      2445      2441      2446      2447
      2442      2441      2446      2442      2443      2444      2443      2440      2617
      2443      2444      2447      2443      2444      2621      2444      2447      2446
      2444      2447      2448      2444      2621      2622      2444      2621      2626
      2445      2446      2447      2445      2450      2449      2445      2450      2451
      2446      2445      2450      2446      2447      2448      2447      2444      2621
      2447      2448      2451      2447      2448      2625      2448      2451      2450
      2448      2451      2452      2448      2625      2626      2448      2625      2630
      2449      2450      2451      2449      2454      2453      2449      2454      2455
      2450      2449      2454      2450      2451      2452      2451      2448      2625
      2451      2452      2455      2451      2452      2629      2452      2455      2454
      2452      2455      2456      2452      2629      2634      2452      2629      2630
      2453      2454      2455      2453      2458      2457      2453      2458      2459
      2454      2453      2458      2454      2455      2456      2455      2452      2629
      2455      2456      2459      2455      2456      2633      2456      2459      2458
      2456      2459      2460      2456      2633      2634      2456      2633      2638
      2457      2458      2459      2457      2462      2461      2457      2462      2463
      2458      2457      2462      2458      2459      2460      2459      2456      2633
      2459      2460      2463      2459      2460      2637      2460      2463      2462
      2460      2463      2464      2460      2637      2642      2460      2637      2638
      2461      2462      2463      2461      2466      2465      2461      2466      2467
      2462      2461      2466      2462      2463      2464      2463      2460      2637
      2463      2464      2467      2463      2464      2641      2464      2467      2466
      2464      2467      2468      2464      2641      2642      2464      2641      2646
      2465      2466      2467      2465      2470      2469      2465      2470      2471
      2466      2465      2470      2466      2467      2468      2467      2464      2641
      2467      2468      2471      2467      2468      2645      2468      2471      2470
      2468      2471      2472      2468      2645      2646      2468      2645      2650
      2469      2470      2471      2469      2474      2473      2469      2474      2475
      2470      2469      2474      2470      2471      2472      2471      2468      2645
      2471      2472      2475      2471      2472      2649      2472      2475      2474
      2472      2475      2476      2472      2649      2654      2472      2649      2650
      2473      2474      2475      2473      2478      2477      2473      2478      2479
      2474      2473      2478      2474      2475      2476      2475      2472      2649
      2475      2476      2479      2475      2476      2653      2476      2479      2478
      2476      2479      2480      2476      2653      2658      2476      2653      2654
      2477      2478      2479      2477      2482      2481      2477      2482      2483
      2478      2477      2482      2478      2479      2480      2479      2476      2653
      2479      2480      2483      2479      2480      2657      2480      2483      2482
      2480      2483      2484      2480      2657      2662      2480      2657      2658
      2481      2482      2483      2481      2486      2485      2481      2486      2487
      2482      2481      2486      2482      2483      2484      2483      2480      2657
      2483      2484      2487      2483      2484      2661      2484      2487      2486
      2484      2487      2488      2484      2661      2662      2484      2661      2666
      2485      2486      2487      2485      2490      2489      2485      2490      2491
      2486      2485      2490      2486      2487      2488      2487      2484      2661
      2487      2488      2491      2487      2488      2665      2488      2491      2490
      2488      2491      2492      2488      2665      2666      2488      2665      2670
      2489      2490      2491      2489      2494      2493      2489      2494      2495
      2490      2489      2494      2490      2491      2492      2491      2488      2665
      2491      2492      2495      2491      2492      2669      2492      2495      2494
      2492      2495      2496      2492      2669      2674      2492      2669      2670
      2493      2494      2495      2493      2498      2497      2493      2498      2499
      2494      2493      2498      2494      2495      2496      2495      2492      2669
      2495      2496      2499      2495      2496      2673      2496      2499      2498
      2496      2499      2500      2496      2673      2678      2496      2673      2674
      2497      2498      2499      2497      2502      2501      2497      2502      2503
      2498      2497      2502      2498      2499      2500      2499      2496      2673
      2499      2500      2503      2499      2500      2677      2500      2503      2502
      2500      2503      2504      2500      2677      2682      2500      2677      2678
      2501      2502      2503      2501      2506      2505      2501      2506      2507
      2502      2501      2506      2502      2503      2504      2503      2500      2677
      2503      2504      2507      2503      2504      2681      2504      2507      2506
      2504      2507      2508      2504      2681      2682      2504      2681      2686
      2505      2506      2507      2505      2510      2509      2505      2510      2511
      2506      2505      2510      2506      2507      2508      2507      2504      2681
      2507      2508      2511      2507      2508      2685      2508      2511      2510
      2508      2511      2512      2508      2685      2686      2508      2685      2690
      2509      2510      2511      2509      2514      2513      2509      2514      2515
      2510      2509      2514      2510      2511      2512      2511      2508      2685
      2511      2512      2515      2511      2512      2689      2512      2515      2514
      2512      2515      2516      2512      2689      2694      2512      2689      2690
      2513      2514      2515      2513      2518      2517      2513      2518      2519
      2514      2513      2518      2514      2515      2516      2515      2512      2689
      2515      2516      2519      2515      2516      2693      2516      2519      2518
      2516      2519      2520      2516      2693      2698      2516      2693      2694
      2517      2518      2519      2518      2519      2520      2519      2516      2693
      2519      2520      2697      2520      2697      2698      2521      2522      2523
      2521      2526      2525      2521      2526      2527      2522      2521      2526
      2522      2523      2524      2523      2524      2527      2523      2524      2701
      2524      2527      2526      2524      2527      2528      2524      2701      2702
      2524      2701      2706      2525      2526      2527      2525      2530      2529
      2525      2530      2531      2526      2525      2530      2526      2527      2528
      2527      2524      2701      2527      2528      2531      2527      2528      2705
      2528      2531      2530      2528      2531      2532      2528      2705      2706
      2528      2705      2710      2529      2530      2531      2529      2534      2533
      2529      2534      2535      2530      2529      2534      2530      2531      2532
      2531      2528      2705      2531      2532      2535      2531      2532      2709
      2532      2535      2534      2532      2535      2536      2532      2709      2714
      2532      2709      2710      2533      2534      2535      2533      2538      2537
      2533      2538      2539      2534      2533      2538      2534      2535      2536
      2535      2532      2709      2535      2536      2539      2535      2536      2713
      2536      2539      2538      2536      2539      2540      2536      2713      2718
      2536      2713      2714      2537      2538      2539      2537      2542      2541
      2537      2542      2543      2538      2537      2542      2538      2539      2540
      2539      2536      2713      2539      2540      2543      2539      2540      2717
      2540      2543      2542      2540      2543      2544      2540      2717      2722
      2540      2717      2718      2541      2542      2543      2541      2546      2545
      2541      2546      2547      2542      2541      2546      2542      2543      2544
      2543      2540      2717      2543      2544      2547      2543      2544      2721
      2544      2547      2546      2544      2547      2548      2544      2721      2722
      2544      2721      2726      2545      2546      2547      2545      2550      2549
      2545      2550      2551      2546      2545      2550      2546      2547      2548
      2547      2544      2721      2547      2548      2551      2547      2548      2725
      2548      2551      2550      2548      2551      2552      2548      2725      2726
      2548      2725      2730      2549      2550      2551      2549      2554      2553
      2549      2554      2555      2550      2549      2554      2550      2551      2552
      2551      2548      2725      2551      2552      2555      2551      2552      2729
      2552      2555      2554      2552      2555      2556      2552      2729      2734
      2552      2729      2730      2553      2554      2555      2553      2558      2557
      2553      2558      2559      2554      2553      2558      2554      2555      2556
      2555      2552      2729      2555      2556      2559      2555      2556      2733
      2556      2559      2558      2556      2559      2560      2556      2733      2738
      2556      2733      2734      2557      2558      2559      2557      2562      2561
      2557      2562      2563      2558      2557      2562      2558      2559      2560
      2559      2556      2733      2559      2560      2563      2559      2560      2737
      2560      2563      2562      2560      2563      2564      2560      2737      2742
      2560      2737      2738      2561      2562      2563      2561      2566      2565
      2561      2566      2567      2562      2561      2566      2562      2563      2564
      2563      2560      2737      2563      2564      2567      2563      2564      2741
      2564      2567      2566      2564      2567      2568      2564      2741      2742
      2564      2741      2746      2565      2566      2567      2565      2570      2569
      2565      2570      2571      2566      2565      2570      2566      2567      2568
      2567      2564      2741      2567      2568      2571      2567      2568      2745
      2568      2571      2570      2568      2571      2572      2568      2745      2746
      2568      2745      2750      2569      2570      2571      2569      2574      2573
      2569      2574      2575      2570      2569      2574      2570      2571      2572
      2571      2568      2745      2571      2572      2575      2571      2572      2749
      2572      2575      2574      2572      2575      2576      2572      2749      2754
      2572      2749      2750      2573      2574      2575      2573      2578      2577
      2573      2578      2579      2574      2573      2578      2574      2575      2576
      2575      2572      2749      2575      2576      2579      2575      2576      2753
      2576      2579      2578      2576      2579      2580      2576      2753      2758
      2576      2753      2754      2577      2578      2579      2577      2582      2581
      2577      2582      2583      2578      2577      2582      2578      2579      2580
      2579      2576      2753      2579      2580      2583      2579      2580      2757
      2580      2583      2582      2580      2583      2584      2580      2757      2762
      2580      2757      2758      2581      2582      2583      2581      2586      2585
      2581      2586      2587      2582      2581      2586      2582      2583      2584
      2583      2580      2757      2583      2584      2587      2583      2584      2761
      2584      2587      2586      2584      2587      2588      2584      2761      2762
      2584      2761      2766      2585      2586      2587      2585      2590      2589
      2585      2590      2591      2586      2585      2590      2586      2587      2588
      2587      2584      2761      2587      2588      2591      2587      2588      2765
      2588      2591      2590      2588      2591      2592      2588      2765      2766
      2588      2765      2770      2589      2590      2591      2589      2594      2593
      2589      2594      2595      2590      2589      2594      2590      2591      2592
      2591      2588      2765      2591      2592      2595      2591      2592      2769
      2592      2595      2594      2592      2595      2596      2592      2769      2774
      2592      2769      2770      2593      2594      2595      2593      2598      2597
      2593      2598      2599      2594      2593      2598      2594      2595      2596
      2595      2592      2769      2595      2596      2599      2595      2596      2773
      2596      2599      2598      2596      2599      2600      2596      2773      2778
      2596      2773      2774      2597      2598      2599      2597      2602      2601
      2597      2602      2603      2598      2597      2602      2598      2599      2600
      2599      2596      2773      2599      2600      2603      2599      2600      2777
      2600      2603      2602      2600      2603      2604      2600      2777      2782
      2600      2777      2778      2601      2602      2603      2601      2606      2605
      2601      2606      2607      2602      2601      2606      2602      2603      2604
      2603      2600      2777      2603      2604      2607      2603      2604      2781
      2604      2607      2606      2604      2607      2608      2604      2781      2782
      2604      2781      2786      2605      2606      2607      2605      2610      2609
      2605      2610      2611      2606      2605      2610      2606      2607      2608
      2607      2604      2781      2607      2608      2611      2607      2608      2785
      2608      2611      2610      2608      2611      2612      2608      2785      2786
      2608      2785      2790      2609      2610      2611      2609      2614      2613
      2609      2614      2615      2610      2609      2614      2610      2611      2612
      2611      2608      2785      2611      2612      2615      2611      2612      2789
      2612      2615      2614      2612      2615      2616      2612      2789      2794
      2612      2789      2790      2613      2614      2615      2613      2618      2617
      2613      2618      2619      2614      2613      2618      2614      2615      2616
      2615      2612      2789      2615      2616      2619      2615      2616      2793
      2616      2619      2618      2616      2619      2620      2616      2793      2798
      2616      2793      2794      2617      2618      2619      2617      2622      2621
      2617      2622      2623      2618      2617      2622      2618      2619      2620
      2619      2616      2793      2619      2620      2623      2619      2620      2797
      2620      2623      2622      2620      2623      2624      2620      2797      2802
      2620      2797      2798      2621      2622      2623      2621      2626      2625
      2621      2626      2627      2622      2621      2626      2622      2623      2624
      2623      2620      2797      2623      2624      2627      2623      2624      2801
      2624      2627      2626      2624      2627      2628      2624      2801      2802
      2624      2801      2806      2625      2626      2627      2625      2630      2629
      2625      2630      2631      2626      2625      2630      2626      2627      2628
      2627      2624      2801      2627      2628      2631      2627      2628      2805
      2628      2631      2630      2628      2631      2632      2628      2805      2806
      2628      2805      2810      2629      2630      2631      2629      2634      2633
      2629      2634      2635      2630      2629      2634      2630      2631      2632
      2631      2628      2805      2631      2632      2635      2631      2632      2809
      2632      2635      2634      2632      2635      2636      2632      2809      2814
      2632      2809      2810      2633      2634      2635      2633      2638      2637
      2633      2638      2639      2634      2633      2638      2634      2635      2636
      2635      2632      2809      2635      2636      2639      2635      2636      2813
      2636      2639      2638      2636      2639      2640      2636      2813      2818
      2636      2813      2814      2637      2638      2639      2637      2642      2641
      2637      2642      2643      2638      2637      2642      2638      2639      2640
      2639      2636      2813      2639      2640      2643      2639      2640      2817
      2640      2643      2642      2640      2643      2644      2640      2817      2822
      2640      2817      2818      2641      2642      2643      2641      2646      2645
      2641      2646      2647      2642      2641      2646      2642      2643      2644
      2643      2640      2817      2643      2644      2647      2643      2644      2821
      2644      2647      2646      2644      2647      2648      2644      2821      2822
      2644      2821      2826      2645      2646      2647      2645      2650      2649
      2645      2650      2651      2646      2645      2650      2646      2647      2648
      2647      2644      2821      2647      2648      2651      2647      2648      2825
      2648      2651      2650      2648      2651      2652      2648      2825      2826
      2648      2825      2830      2649      2650      2651      2649      2654      2653
      2649      2654      2655      2650      2649      2654      2650      2651      2652
      2651      2648      2825      2651      2652      2655      2651      2652      2829
      2652      2655      2654      2652      2655      2656      2652      2829      2834
      2652      2829      2830      2653      2654      2655      2653      2658      2657
      2653      2658      2659      2654      2653      2658      2654      2655      2656
      2655      2652      2829      2655      2656      2659      2655      2656      2833
      2656      2659      2658      2656      2659      2660      2656      2833      2838
      2656      2833      2834      2657      2658      2659      2657      2662      2661
      2657      2662      2663      2658      2657      2662      2658      2659      2660
      2659      2656      2833      2659      2660      2663      2659      2660      2837
      2660      2663      2662      2660      2663      2664      2660      2837      2842
      2660      2837      2838      2661      2662      2663      2661      2666      2665
      2661      2666      2667      2662      2661      2666      2662      2663      2664
      2663      2660      2837      2663      2664      2667      2663      2664      2841
      2664      2667      2666      2664      2667      2668      2664      2841      2842
      2664      2841      2846      2665      2666      2667      2665      2670      2669
      2665      2670      2671      2666      2665      2670      2666      2667      2668
      2667      2664      2841      2667      2668      2671      2667      2668      2845
      2668      2671      2670      2668      2671      2672      2668      2845      2846
      2668      2845      2850      2669      2670      2671      2669      2674      2673
      2669      2674      2675      2670      2669      2674      2670      2671      2672
      2671      2668      2845      2671      2672      2675      2671      2672      2849
      2672      2675      2674      2672      2675      2676      2672      2849      2854
      2672      2849      2850      2673      2674      2675      2673      2678      2677
      2673      2678      2679      2674      2673      2678      2674      2675      2676
      2675      2672      2849      2675      2676      2679      2675      2676      2853
      2676      2679      2678      2676      2679      2680      2676      2853      2854
      2676      2853      2858      2677      2678      2679      2677      2682      2681
      2677      2682      2683      2678      2677      2682      2678      2679      2680
      2679      2676      2853      2679      2680      2683      2679      2680      2857
      2680      2683      2682      2680      2683      2684      2680      2857      2862
      2680      2857      2858      2681      2682      2683      2681      2686      2685
      2681      2686      2687      2682      2681      2686      2682      2683      2684
      2683      2680      2857      2683      2684      2687      2683      2684      2861
      2684      2687      2686      2684      2687      2688      2684      2861      2862
      2684      2861      2866      2685      2686      2687      2685      2690      2689
      2685      2690      2691      2686      2685      2690      2686      2687      2688
      2687      2684      2861      2687      2688      2691      2687      2688      2865
      2688      2691      2690      2688      2691      2692      2688      2865      2866
      2688      2865      2870      2689      2690      2691      2689      2694      2693
      2689      2694      2695      2690      2689      2694      2690      2691      2692
      2691      2688      2865      2691      2692      2695      2691      2692      2869
      2692      2695      2694      2692      2695      2696      2692      2869      2874
      2692      2869      2870      2693      2694      2695      2693      2698      2697
      2693      2698      2699      2694      2693      2698      2694      2695      2696
      2695      2692      2869      2695      2696      2699      2695      2696      2873
      2696      2699      2698      2696      2699      2700      2696      2873      2878
      2696      2873      2874      2697      2698      2699      2698      2699      2700
      2699      2696      2873      2699      2700      2877      2700      2877      2878
      2701      2702      2703      2701      2706      2705      2701      2706      2707
      2702      2701      2706      2702      2703      2704      2703      2704      2707
      2703      2704      2881      2704      2707      2706      2704      2707      2708
      2704      2881      2882      2704      2881      2886      2705      2706      2707
      2705      2710      2709      2705      2710      2711      2706      2705      2710
      2706      2707      2708      2707      2704      2881      2707      2708      2711
      2707      2708      2885      2708      2711      2710      2708      2711      2712
      2708      2885      2886      2708      2885      2890      2709      2710      2711
      2709      2714      2713      2709      2714      2715      2710      2709      2714
      2710      2711      2712      2711      2708      2885      2711      2712      2715
      2711      2712      2889      2712      2715      2714      2712      2715      2716
      2712      2889      2894      2712      2889      2890      2713      2714      2715
      2713      2718      2717      2713      2718      2719      2714      2713      2718
      2714      2715      2716      2715      2712      2889      2715      2716      2719
      2715      2716      2893      2716      2719      2718      2716      2719      2720
      2716      2893      2898      2716      2893      2894      2717      2718      2719
      2717      2722      2721      2717      2722      2723      2718      2717      2722
      2718      2719      2720      2719      2716      2893      2719      2720      2723
      2719      2720      2897      2720      2723      2722      2720      2723      2724
      2720      2897      2902      2720      2897      2898      2721      2722      2723
      2721      2726      2725      2721      2726      2727      2722      2721      2726
      2722      2723      2724      2723      2720      2897      2723      2724      2727
      2723      2724      2901      2724      2727      2726      2724      2727      2728
      2724      2901      2902      2724      2901      2906      2725      2726      2727
      2725      2730      2729      2725      2730      2731      2726      2725      2730
      2726      2727      2728      2727      2724      2901      2727      2728      2731
      2727      2728      2905      2728      2731      2730      2728      2731      2732
      2728      2905      2906      2728      2905      2910      2729      2730      2731
      2729      2734      2733      2729      2734      2735      2730      2729      2734
      2730      2731      2732      2731      2728      2905      2731      2732      2735
      2731      2732      2909      2732      2735      2734      2732      2735      2736
      2732      2909      2914      2732      2909      2910      2733      2734      2735
      2733      2738      2737      2733      2738      2739      2734      2733      2738
      2734      2735      2736      2735      2732      2909      2735      2736      2739
      2735      2736      2913      2736      2739      2738      2736      2739      2740
      2736      2913      2918      2736      2913      2914      2737      2738      2739
      2737      2742      2741      2737      2742      2743      2738      2737      2742
      2738      2739      2740      2739      2736      2913      2739      2740      2743
      2739      2740      2917      2740      2743      2742      2740      2743      2744
      2740      2917      2922      2740      2917      2918      2741      2742      2743
      2741      2746      2745      2741      2746      2747      2742      2741      2746
      2742      2743      2744      2743      2740      2917      2743      2744      2747
      2743      2744      2921      2744      2747      2746      2744      2747      2748
      2744      2921      2922      2744      2921      2926      2745      2746      2747
      2745      2750      2749      2745      2750      2751      2746      2745      2750
      2746      2747      2748      2747      2744      2921      2747      2748      2751
      2747      2748      2925      2748      2751      2750      2748      2751      2752
      2748      2925      2926      2748      2925      2930      2749      2750      2751
      2749      2754      2753      2749      2754      2755      2750      2749      2754
      2750      2751      2752      2751      2748      2925      2751      2752      2755
      2751      2752      2929      2752      2755      2754      2752      2755      2756
      2752      2929      2934      2752      2929      2930      2753      2754      2755
      2753      2758      2757      2753      2758      2759      2754      2753      2758
      2754      2755      2756      2755      2752      2929      2755      2756      2759
      2755      2756      2933      2756      2759      2758      2756      2759      2760
      2756      2933      2938      2756      2933      2934      2757      2758      2759
      2757      2762      2761      2757      2762      2763      2758      2757      2762
      2758      2759      2760      2759      2756      2933      2759      2760      2763
      2759      2760      2937      2760      2763      2762      2760      2763      2764
      2760      2937      2942      2760      2937      2938      2761      2762      2763
      2761      2766      2765      2761      2766      2767      2762      2761      2766
      2762      2763      2764      2763      2760      2937      2763      2764      2767
      2763      2764      2941      2764      2767      2766      2764      2767      2768
      2764      2941      2942      2764      2941      2946      2765      2766      2767
      2765      2770      2769      2765      2770      2771      2766      2765      2770
      2766      2767      2768      2767      2764      2941      2767      2768      2771
      2767      2768      2945      2768      2771      2770      2768      2771      2772
      2768      2945      2946      2768      2945      2950      2769      2770      2771
      2769      2774      2773      2769      2774      2775      2770      2769      2774
      2770      2771      2772      2771      2768      2945      2771      2772      2775
      2771      2772      2949      2772      2775      2774      2772      2775      2776
      2772      2949      2954      2772      2949      2950      2773      2774      2775
      2773      2778      2777      2773      2778      2779      2774      2773      2778
      2774      2775      2776      2775      2772      2949      2775      2776      2779
      2775      2776      2953      2776      2779      2778      2776      2779      2780
      2776      2953      2958      2776      2953      2954      2777      2778      2779
      2777      2782      2781      2777      2782      2783      2778      2777      2782
      2778      2779      2780      2779      2776      2953      2779      2780      2783
      2779      2780      2957      2780      2783      2782      2780      2783      2784
      2780      2957      2962      2780      2957      2958      2781      2782      2783
      2781      2786      2785      2781      2786      2787      2782      2781      2786
      2782      2783      2784      2783      2780      2957      2783      2784      2787
      2783      2784      2961      2784      2787      2786      2784      2787      2788
      2784      2961      2962      2784      2961      2966      2785      2786      2787
      2785      2790      2789      2785      2790      2791      2786      2785      2790
      2786      2787      2788      2787      2784      2961      2787      2788      2791
      2787      2788      2965      2788      2791      2790      2788      2791      2792
      2788      2965      2966      2788      2965      2970      2789      2790      2791
      2789      2794      2793      2789      2794      2795      2790      2789      2794
      2790      2791      2792      2791      2788      2965      2791      2792      2795
      2791      2792      2969      2792      2795      2794      2792      2795      2796
      2792      2969      2974      2792      2969      2970      2793      2794      2795
      2793      2798      2797      2793      2798      2799      2794      2793      2798
      2794      2795      2796      2795      2792      2969      2795      2796      2799
      2795      2796      2973      2796      2799      2798      2796      2799      2800
      2796      2973      2978      2796      2973      2974      2797      2798      2799
      2797      2802      2801      2797      2802      2803      2798      2797      2802
      2798      2799      2800      2799      2796      2973      2799      2800      2803
      2799      2800      2977      2800      2803      2802      2800      2803      2804
      2800      2977      2982      2800      2977      2978      2801      2802      2803
      2801      2806      2805      2801      2806      2807      2802      2801      2806
      2802      2803      2804      2803      2800      2977      2803      2804      2807
      2803      2804      2981      2804      2807      2806      2804      2807      2808
      2804      2981      2982      2804      2981      2986      2805      2806      2807
      2805      2810      2809      2805      2810      2811      2806      2805      2810
      2806      2807      2808      2807      2804      2981      2807      2808      2811
      2807      2808      2985      2808      2811      2810      2808      2811      2812
      2808      2985      2986      2808      2985      2990      2809      2810      2811
      2809      2814      2813      2809      2814      2815      2810      2809      2814
      2810      2811      2812      2811      2808      2985      2811      2812      2815
      2811      2812      2989      2812      2815      2814      2812      2815      2816
      2812      2989      2994      2812      2989      2990      2813      2814      2815
      2813      2818      2817      2813      2818      2819      2814      2813      2818
      2814      2815      2816      2815      2812      2989      2815      2816      2819
      2815      2816      2993      2816      2819      2818      2816      2819      2820
      2816      2993      2998      2816      2993      2994      2817      2818      2819
      2817      2822      2821      2817      2822      2823      2818      2817      2822
      2818      2819      2820      2819      2816      2993      2819      2820      2823
      2819      2820      2997      2820      2823      2822      2820      2823      2824
      2820      2997      3002      2820      2997      2998      2821      2822      2823
      2821      2826      2825      2821      2826      2827      2822      2821      2826
      2822      2823      2824      2823      2820      2997      2823      2824      2827
      2823      2824      3001      2824      2827      2826      2824      2827      2828
      2824      3001      3002      2824      3001      3006      2825      2826      2827
      2825      2830      2829      2825      2830      2831      2826      2825      2830
      2826      2827      2828      2827      2824      3001      2827      2828      2831
      2827      2828      3005      2828      2831      2830      2828      2831      2832
      2828      3005      3006      2828      3005      3010      2829      2830      2831
      2829      2834      2833      2829      2834      2835      2830      2829      2834
      2830      2831      2832      2831      2828      3005      2831      2832      2835
      2831      2832      3009      2832      2835      2834      2832      2835      2836
      2832      3009      3014      2832      3009      3010      2833      2834      2835
      2833      2838      2837      2833      2838      2839      2834      2833      2838
      2834      2835      2836      2835      2832      3009      2835      2836      2839
      2835      2836      3013      2836      2839      2838      2836      2839      2840
      2836      3013      3018      2836      3013      3014      2837      2838      2839
      2837      2842      2841      2837      2842      2843      2838      2837      2842
      2838      2839      2840      2839      2836      3013      2839      2840      2843
      2839      2840      3017      2840      2843      2842      2840      2843      2844
      2840      3017      3022      2840      3017      3018      2841      2842      2843
      2841      2846      2845      2841      2846      2847      2842      2841      2846
      2842      2843      2844      2843      2840      3017      2843      2844      2847
      2843      2844      3021      2844      2847      2846      2844      2847      2848
      2844      3021      3022      2844      3021      3026      2845      2846      2847
      2845      2850      2849      2845      2850      2851      2846      2845      2850
      2846      2847      2848      2847      2844      3021      2847      2848      2851
      2847      2848      3025      2848      2851      2850      2848      2851      2852
      2848      3025      3026      2848      3025      3030      2849      2850      2851
      2849      2854      2853      2849      2854      2855      2850      2849      2854
      2850      2851      2852      2851      2848      3025      2851      2852      2855
      2851      2852      3029      2852      2855      2854      2852      2855      2856
      2852      3029      3034      2852      3029      3030      2853      2854      2855
      2853      2858      2857      2853      2858      2859      2854      2853      2858
      2854      2855      2856      2855      2852      3029      2855      2856      2859
      2855      2856      3033      2856      2859      2858      2856      2859      2860
      2856      3033      3038      2856      3033      3034      2857      2858      2859
      2857      2862      2861      2857      2862      2863      2858      2857      2862
      2858      2859      2860      2859      2856      3033      2859      2860      2863
      2859      2860      3037      2860      2863      2862      2860      2863      2864
      2860      3037      3042      2860      3037      3038      2861      2862      2863
      2861      2866      2865      2861      2866      2867      2862      2861      2866
      2862      2863      2864      2863      2860      3037      2863      2864      2867
      2863      2864      3041      2864      2867      2866      2864      2867      2868
      2864      3041      3042      2864      3041      3046      2865      2866      2867
      2865      2870      2869      2865      2870      2871      2866      2865      2870
      2866      2867      2868      2867      2864      3041      2867      2868      2871
      2867      2868      3045      2868      2871      2870      2868      2871      2872
      2868      3045      3046      2868      3045      3050      2869      2870      2871
      2869      2874      2873      2869      2874      2875      2870      2869      2874
      2870      2871      2872      2871      2868      3045      2871      2872      2875
      2871      2872      3049      2872      2875      2874      2872      2875      2876
      2872      3049      3054      2872      3049      3050      2873      2874      2875
      2873      2878      2877      2873      2878      2879      2874      2873      2878
      2874      2875      2876      2875      2872      3049      2875      2876      2879
      2875      2876      3053      2876      2879      2878      2876      2879      2880
      2876      3053      3058      2876      3053      3054      2877      2878      2879
      2878      2879      2880      2879      2876      3053      2879      2880      3057
      2880      3057      3058      2881      2882      2883      2881      2886      2885
      2881      2886      2887      2882      2881      2886      2882      2883      2884
      2883      2884      2887      2883      2884      3061      2884      2887      2886
      2884      2887      2888      2884      3061      3062      2884      3061      3066
      2885      2886      2887      2885      2890      2889      2885      2890      2891
      2886      2885      2890      2886      2887      2888      2887      2884      3061
      2887      2888      2891      2887      2888      3065      2888      2891      2890
      2888      2891      2892      2888      3065      3066      2888      3065      3070
      2889      2890      2891      2889      2894      2893      2889      2894      2895
      2890      2889      2894      2890      2891      2892      2891      2888      3065
      2891      2892      2895      2891      2892      3069      2892      2895      2894
      2892      2895      2896      2892      3069      3074      2892      3069      3070
      2893      2894      2895      2893      2898      2897      2893      2898      2899
      2894      2893      2898      2894      2895      2896      2895      2892      3069
      2895      2896      2899      2895      2896      3073      2896      2899      2898
      2896      2899      2900      2896      3073      3078      2896      3073      3074
      2897      2898      2899      2897      2902      2901      2897      2902      2903
      2898      2897      2902      2898      2899      2900      2899      2896      3073
      2899      2900      2903      2899      2900      3077      2900      2903      2902
      2900      2903      2904      2900      3077      3082      2900      3077      3078
      2901      2902      2903      2901      2906      2905      2901      2906      2907
      2902      2901      2906      2902      2903      2904      2903      2900      3077
      2903      2904      2907      2903      2904      3081      2904      2907      2906
      2904      2907      2908      2904      3081      3082      2904      3081      3086
      2905      2906      2907      2905      2910      2909      2905      2910      2911
      2906      2905      2910      2906      2907      2908      2907      2904      3081
      2907      2908      2911      2907      2908      3085      2908      2911      2910
      2908      2911      2912      2908      3085      3086      2908      3085      3090
      2909      2910      2911      2909      2914      2913      2909      2914      2915
      2910      2909      2914      2910      2911      2912      2911      2908      3085
      2911      2912      2915      2911      2912      3089      2912      2915      2914
      2912      2915      2916      2912      3089      3094      2912      3089      3090
      2913      2914      2915      2913      2918      2917      2913      2918      2919
      2914      2913      2918      2914      2915      2916      2915      2912      3089
      2915      2916      2919      2915      2916      3093      2916      2919      2918
      2916      2919      2920      2916      3093      3094      2916      3093      3098
      2917      2918      2919      2917      2922      2921      2917      2922      2923
      2918      2917      2922      2918      2919      2920      2919      2916      3093
      2919      2920      2923      2919      2920      3097      2920      2923      2922
      2920      2923      2924      2920      3097      3102      2920      3097      3098
      2921      2922      2923      2921      2926      2925      2921      2926      2927
      2922      2921      2926      2922      2923      2924      2923      2920      3097
      2923      2924      2927      2923      2924      3101      2924      2927      2926
      2924      2927      2928      2924      3101      3102      2924      3101      3106
      2925      2926      2927      2925      2930      2929      2925      2930      2931
      2926      2925      2930      2926      2927      2928      2927      2924      3101
      2927      2928      2931      2927      2928      3105      2928      2931      2930
      2928      2931      2932      2928      3105      3106      2928      3105      3110
      2929      2930      2931      2929      2934      2933      2929      2934      2935
      2930      2929      2934      2930      2931      2932      2931      2928      3105
      2931      2932      2935      2931      2932      3109      2932      2935      2934
      2932      2935      2936      2932      3109      3114      2932      3109      3110
      2933      2934      2935      2933      2938      2937      2933      2938      2939
      2934      2933      2938      2934      2935      2936      2935      2932      3109
      2935      2936      2939      2935      2936      3113      2936      2939      2938
      2936      2939      2940      2936      3113      3118      2936      3113      3114
      2937      2938      2939      2937      2942      2941      2937      2942      2943
      2938      2937      2942      2938      2939      2940      2939      2936      3113
      2939      2940      2943      2939      2940      3117      2940      2943      2942
      2940      2943      2944      2940      3117      3122      2940      3117      3118
      2941      2942      2943      2941      2946      2945      2941      2946      2947
      2942      2941      2946      2942      2943      2944      2943      2940      3117
      2943      2944      2947      2943      2944      3121      2944      2947      2946
      2944      2947      2948      2944      3121      3122      2944      3121      3126
      2945      2946      2947      2945      2950      2949      2945      2950      2951
      2946      2945      2950      2946      2947      2948      2947      2944      3121
      2947      2948      2951      2947      2948      3125      2948      2951      2950
      2948      2951      2952      2948      3125      3126      2948      3125      3130
      2949      2950      2951      2949      2954      2953      2949      2954      2955
      2950      2949      2954      2950      2951      2952      2951      2948      3125
      2951      2952      2955      2951      2952      3129      2952      2955      2954
      2952      2955      2956      2952      3129      3134      2952      3129      3130
      2953      2954      2955      2953      2958      2957      2953      2958      2959
      2954      2953      2958      2954      2955      2956      2955      2952      3129
      2955      2956      2959      2955      2956      3133      2956      2959      2958
      2956      2959      2960      2956      3133      3138      2956      3133      3134
      2957      2958      2959      2957      2962      2961      2957      2962      2963
      2958      2957      2962      2958      2959      2960      2959      2956      3133
      2959      2960      2963      2959      2960      3137      2960      2963      2962
      2960      2963      2964      2960      3137      3142      2960      3137      3138
      2961      2962      2963      2961      2966      2965      2961      2966      2967
      2962      2961      2966      2962      2963      2964      2963      2960      3137
      2963      2964      2967      2963      2964      3141      2964      2967      2966
      2964      2967      2968      2964      3141      3142      2964      3141      3146
      2965      2966      2967      2965      2970      2969      2965      2970      2971
      2966      2965      2970      2966      2967      2968      2967      2964      3141
      2967      2968      2971      2967      2968      3145      2968      2971      2970
      2968      2971      2972      2968      3145      3146      2968      3145      3150
      2969      2970      2971      2969      2974      2973      2969      2974      2975
      2970      2969      2974      2970      2971      2972      2971      2968      3145
      2971      2972      2975      2971      2972      3149      2972      2975      2974
      2972      2975      2976      2972      3149      3154      2972      3149      3150
      2973      2974      2975      2973      2978      2977      2973      2978      2979
      2974      2973      2978      2974      2975      2976      2975      2972      3149
      2975      2976      2979      2975      2976      3153      2976      2979      2978
      2976      2979      2980      2976      3153      3158      2976      3153      3154
      2977      2978      2979      2977      2982      2981      2977      2982      2983
      2978      2977      2982      2978      2979      2980      2979      2976      3153
      2979      2980      2983      2979      2980      3157      2980      2983      2982
      2980      2983      2984      2980      3157      3162      2980      3157      3158
      2981      2982      2983      2981      2986      2985      2981      2986      2987
      2982      2981      2986      2982      2983      2984      2983      2980      3157
      2983      2984      2987      2983      2984      3161      2984      2987      2986
      2984      2987      2988      2984      3161      3162      2984      3161      3166
      2985      2986      2987      2985      2990      2989      2985      2990      2991
      2986      2985      2990      2986      2987      2988      2987      2984      3161
      2987      2988      2991      2987      2988      3165      2988      2991      2990
      2988      2991      2992      2988      3165      3166      2988      3165      3170
      2989      2990      2991      2989      2994      2993      2989      2994      2995
      2990      2989      2994      2990      2991      2992      2991      2988      3165
      2991      2992      2995      2991      2992      3169      2992      2995      2994
      2992      2995      2996      2992      3169      3174      2992      3169      3170
      2993      2994      2995      2993      2998      2997      2993      2998      2999
      2994      2993      2998      2994      2995      2996      2995      2992      3169
      2995      2996      2999      2995      2996      3173      2996      2999      2998
      2996      2999      3000      2996      3173      3178      2996      3173      3174
      2997      2998      2999      2997      3002      3001      2997      3002      3003
      2998      2997      3002      2998      2999      3000      2999      2996      3173
      2999      3000      3003      2999      3000      3177      3000      3003      3002
      3000      3003      3004      3000      3177      3182      3000      3177      3178
      3001      3002      3003      3001      3006      3005      3001      3006      3007
      3002      3001      3006      3002      3003      3004      3003      3000      3177
      3003      3004      3007      3003      3004      3181      3004      3007      3006
      3004      3007      3008      3004      3181      3182      3004      3181      3186
      3005      3006      3007      3005      3010      3009      3005      3010      3011
      3006      3005      3010      3006      3007      3008      3007      3004      3181
      3007      3008      3011      3007      3008      3185      3008      3011      3010
      3008      3011      3012      3008      3185      3186      3008      3185      3190
      3009      3010      3011      3009      3014      3013      3009      3014      3015
      3010      3009      3014      3010      3011      3012      3011      3008      3185
      3011      3012      3015      3011      3012      3189      3012      3015      3014
      3012      3015      3016      3012      3189      3194      3012      3189      3190
      3013      3014      3015      3013      3018      3017      3013      3018      3019
      3014      3013      3018      3014      3015      3016      3015      3012      3189
      3015      3016      3019      3015      3016      3193      3016      3019      3018
      3016      3019      3020      3016      3193      3198      3016      3193      3194
      3017      3018      3019      3017      3022      3021      3017      3022      3023
      3018      3017      3022      3018      3019      3020      3019      3016      3193
      3019      3020      3023      3019      3020      3197      3020      3023      3022
      3020      3023      3024      3020      3197      3202      3020      3197      3198
      3021      3022      3023      3021      3026      3025      3021      3026      3027
      3022      3021      3026      3022      3023      3024      3023      3020      3197
      3023      3024      3027      3023      3024      3201      3024      3027      3026
      3024      3027      3028      3024      3201      3202      3024      3201      3206
      3025      3026      3027      3025      3030      3029      3025      3030      3031
      3026      3025      3030      3026      3027      3028      3027      3024      3201
      3027      3028      3031      3027      3028      3205      3028      3031      3030
      3028      3031      3032      3028      3205      3206      3028      3205      3210
      3029      3030      3031      3029      3034      3033      3029      3034      3035
      3030      3029      3034      3030      3031      3032      3031      3028      3205
      3031      3032      3035      3031      3032      3209      3032      3035      3034
      3032      3035      3036      3032      3209      3214      3032      3209      3210
      3033      3034      3035      3033      3038      3037      3033      3038      3039
      3034      3033      3038      3034      3035      3036      3035      3032      3209
      3035      3036      3039      3035      3036      3213      3036      3039      3038
      3036      3039      3040      3036      3213      3218      3036      3213      3214
      3037      3038      3039      3037      3042      3041      3037      3042      3043
      3038      3037      3042      3038      3039      3040      3039      3036      3213
      3039      3040      3043      3039      3040      3217      3040      3043      3042
      3040      3043      3044      3040      3217      3222      3040      3217      3218
      3041      3042      3043      3041      3046      3045      3041      3046      3047
      3042      3041      3046      3042      3043      3044      3043      3040      3217
      3043      3044      3047      3043      3044      3221      3044      3047      3046
      3044      3047      3048      3044      3221      3222      3044      3221      3226
      3045      3046      3047      3045      3050      3049      3045      3050      3051
      3046      3045      3050      3046      3047      3048      3047      3044      3221
      3047      3048      3051      3047      3048      3225      3048      3051      3050
      3048      3051      3052      3048      3225      3226      3048      3225      3230
      3049      3050      3051      3049      3054      3053      3049      3054      3055
      3050      3049      3054      3050      3051      3052      3051      3048      3225
      3051      3052      3055      3051      3052      3229      3052      3055      3054
      3052      3055      3056      3052      3229      3234      3052      3229      3230
      3053      3054      3055      3053      3058      3057      3053      3058      3059
      3054      3053      3058      3054      3055      3056      3055      3052      3229
      3055      3056      3059      3055      3056      3233      3056      3059      3058
      3056      3059      3060      3056      3233      3238      3056      3233      3234
      3057      3058      3059      3058      3059      3060      3059      3056      3233
      3059      3060      3237      3060      3237      3238      3061      3062      3063
      3061      3066      3065      3061      3066      3067      3062      3061      3066
      3062      3063      3064      3063      3064      3067      3063      3064      3241
      3064      3067      3066      3064      3067      3068      3064      3241      3242
      3064      3241      3246      3065      3066      3067      3065      3070      3069
      3065      3070      3071      3066      3065      3070      3066      3067      3068
      3067      3064      3241      3067      3068      3071      3067      3068      3245
      3068      3071      3070      3068      3071      3072      3068      3245      3246
      3068      3245      3250      3069      3070      3071      3069      3074      3073
      3069      3074      3075      3070      3069      3074      3070      3071      3072
      3071      3068      3245      3071      3072      3075      3071      3072      3249
      3072      3075      3074      3072      3075      3076      3072      3249      3254
      3072      3249      3250      3073      3074      3075      3073      3078      3077
      3073      3078      3079      3074      3073      3078      3074      3075      3076
      3075      3072      3249      3075      3076      3079      3075      3076      3253
      3076      3079      3078      3076      3079      3080      3076      3253      3258
      3076      3253      3254      3077      3078      3079      3077      3082      3081
      3077      3082      3083      3078      3077      3082      3078      3079      3080
      3079      3076      3253      3079      3080      3083      3079      3080      3257
      3080      3083      3082      3080      3083      3084      3080      3257      3262
      3080      3257      3258      3081      3082      3083      3081      3086      3085
      3081      3086      3087      3082      3081      3086      3082      3083      3084
      3083      3080      3257      3083      3084      3087      3083      3084      3261
      3084      3087      3086      3084      3087      3088      3084      3261      3262
      3084      3261      3266      3085      3086      3087      3085      3090      3089
      3085      3090      3091      3086      3085      3090      3086      3087      3088
      3087      3084      3261      3087      3088      3091      3087      3088      3265
      3088      3091      3090      3088      3091      3092      3088      3265      3266
      3088      3265      3270      3089      3090      3091      3089      3094      3093
      3089      3094      3095      3090      3089      3094      3090      3091      3092
      3091      3088      3265      3091      3092      3095      3091      3092      3269
      3092      3095      3094      3092      3095      3096      3092      3269      3274
      3092      3269      3270      3093      3094      3095      3093      3098      3097
      3093      3098      3099      3094      3093      3098      3094      3095      3096
      3095      3092      3269      3095      3096      3099      3095      3096      3273
      3096      3099      3098      3096      3099      3100      3096      3273      3278
      3096      3273      3274      3097      3098      3099      3097      3102      3101
      3097      3102      3103      3098      3097      3102      3098      3099      3100
      3099      3096      3273      3099      3100      3103      3099      3100      3277
      3100      3103      3102      3100      3103      3104      3100      3277      3282
      3100      3277      3278      3101      3102      3103      3101      3106      3105
      3101      3106      3107      3102      3101      3106      3102      3103      3104
      3103      3100      3277      3103      3104      3107      3103      3104      3281
      3104      3107      3106      3104      3107      3108      3104      3281      3282
      3104      3281      3286      3105      3106      3107      3105      3110      3109
      3105      3110      3111      3106      3105      3110      3106      3107      3108
      3107      3104      3281      3107      3108      3111      3107      3108      3285
      3108      3111      3110      3108      3111      3112      3108      3285      3286
      3108      3285      3290      3109      3110      3111      3109      3114      3113
      3109      3114      3115      3110      3109      3114      3110      3111      3112
      3111      3108      3285      3111      3112      3115      3111      3112      3289
      3112      3115      3114      3112      3115      3116      3112      3289      3294
      3112      3289      3290      3113      3114      3115      3113      3118      3117
      3113      3118      3119      3114      3113      3118      3114      3115      3116
      3115      3112      3289      3115      3116      3119      3115      3116      3293
      3116      3119      3118      3116      3119      3120      3116      3293      3298
      3116      3293      3294      3117      3118      3119      3117      3122      3121
      3117      3122      3123      3118      3117      3122      3118      3119      3120
      3119      3116      3293      3119      3120      3123      3119      3120      3297
      3120      3123      3122      3120      3123      3124      3120      3297      3302
      3120      3297      3298      3121      3122      3123      3121      3126      3125
      3121      3126      3127      3122      3121      3126      3122      3123      3124
      3123      3120      3297      3123      3124      3127      3123      3124      3301
      3124      3127      3126      3124      3127      3128      3124      3301      3302
      3124      3301      3306      3125      3126      3127      3125      3130      3129
      3125      3130      3131      3126      3125      3130      3126      3127      3128
      3127      3124      3301      3127      3128      3131      3127      3128      3305
      3128      3131      3130      3128      3131      3132      3128      3305      3306
      3128      3305      3310      3129      3130      3131      3129      3134      3133
      3129      3134      3135      3130      3129      3134      3130      3131      3132
      3131      3128      3305      3131      3132      3135      3131      3132      3309
      3132      3135      3134      3132      3135      3136      3132      3309      3314
      3132      3309      3310      3133      3134      3135      3133      3138      3137
      3133      3138      3139      3134      3133      3138      3134      3135      3136
      3135      3132      3309      3135      3136      3139      3135      3136      3313
      3136      3139      3138      3136      3139      3140      3136      3313      3314
      3136      3313      3318      3137      3138      3139      3137      3142      3141
      3137      3142      3143      3138      3137      3142      3138      3139      3140
      3139      3136      3313      3139      3140      3143      3139      3140      3317
      3140      3143      3142      3140      3143      3144      3140      3317      3322
      3140      3317      3318      3141      3142      3143      3141      3146      3145
      3141      3146      3147      3142      3141      3146      3142      3143      3144
      3143      3140      3317      3143      3144      3147      3143      3144      3321
      3144      3147      3146      3144      3147      3148      3144      3321      3322
      3144      3321      3326      3145      3146      3147      3145      3150      3149
      3145      3150      3151      3146      3145      3150      3146      3147      3148
      3147      3144      3321      3147      3148      3151      3147      3148      3325
      3148      3151      3150      3148      3151      3152      3148      3325      3326
      3148      3325      3330      3149      3150      3151      3149      3154      3153
      3149      3154      3155      3150      3149      3154      3150      3151      3152
      3151      3148      3325      3151      3152      3155      3151      3152      3329
      3152      3155      3154      3152      3155      3156      3152      3329      3334
      3152      3329      3330      3153      3154      3155      3153      3158      3157
      3153      3158      3159      3154      3153      3158      3154      3155      3156
      3155      3152      3329      3155      3156      3159      3155      3156      3333
      3156      3159      3158      3156      3159      3160      3156      3333      3338
      3156      3333      3334      3157      3158      3159      3157      3162      3161
      3157      3162      3163      3158      3157      3162      3158      3159      3160
      3159      3156      3333      3159      3160      3163      3159      3160      3337
      3160      3163      3162      3160      3163      3164      3160      3337      3342
      3160      3337      3338      3161      3162      3163      3161      3166      3165
      3161      3166      3167      3162      3161      3166      3162      3163      3164
      3163      3160      3337      3163      3164      3167      3163      3164      3341
      3164      3167      3166      3164      3167      3168      3164      3341      3342
      3164      3341      3346      3165      3166      3167      3165      3170      3169
      3165      3170      3171      3166      3165      3170      3166      3167      3168
      3167      3164      3341      3167      3168      3171      3167      3168      3345
      3168      3171      3170      3168      3171      3172      3168      3345      3346
      3168      3345      3350      3169      3170      3171      3169      3174      3173
      3169      3174      3175      3170      3169      3174      3170      3171      3172
      3171      3168      3345      3171      3172      3175      3171      3172      3349
      3172      3175      3174      3172      3175      3176      3172      3349      3354
      3172      3349      3350      3173      3174      3175      3173      3178      3177
      3173      3178      3179      3174      3173      3178      3174      3175      3176
      3175      3172      3349      3175      3176      3179      3175      3176      3353
      3176      3179      3178      3176      3179      3180      3176      3353      3358
      3176      3353      3354      3177      3178      3179      3177      3182      3181
      3177      3182      3183      3178      3177      3182      3178      3179      3180
      3179      3176      3353      3179      3180      3183      3179      3180      3357
      3180      3183      3182      3180      3183      3184      3180      3357      3362
      3180      3357      3358      3181      3182      3183      3181      3186      3185
      3181      3186      3187      3182      3181      3186      3182      3183      3184
      3183      3180      3357      3183      3184      3187      3183      3184      3361
      3184      3187      3186      3184      3187      3188      3184      3361      3362
      3184      3361      3366      3185      3186      3187      3185      3190      3189
      3185      3190      3191      3186      3185      3190      3186      3187      3188
      3187      3184      3361      3187      3188      3191      3187      3188      3365
      3188      3191      3190      3188      3191      3192      3188      3365      3366
      3188      3365      3370      3189      3190      3191      3189      3194      3193
      3189      3194      3195      3190      3189      3194      3190      3191      3192
      3191      3188      3365      3191      3192      3195      3191      3192      3369
      3192      3195      3194      3192      3195      3196      3192      3369      3374
      3192      3369      3370      3193      3194      3195      3193      3198      3197
      3193      3198      3199      3194      3193      3198      3194      3195      3196
      3195      3192      3369      3195      3196      3199      3195      3196      3373
      3196      3199      3198      3196      3199      3200      3196      3373      3378
      3196      3373      3374      3197      3198      3199      3197      3202      3201
      3197      3202      3203      3198      3197      3202      3198      3199      3200
      3199      3196      3373      3199      3200      3203      3199      3200      3377
      3200      3203      3202      3200      3203      3204      3200      3377      3382
      3200      3377      3378      3201      3202      3203      3201      3206      3205
      3201      3206      3207      3202      3201      3206      3202      3203      3204
      3203      3200      3377      3203      3204      3207      3203      3204      3381
      3204      3207      3206      3204      3207      3208      3204      3381      3382
      3204      3381      3386      3205      3206      3207      3205      3210      3209
      3205      3210      3211      3206      3205      3210      3206      3207      3208
      3207      3204      3381      3207      3208      3211      3207      3208      3385
      3208      3211      3210      3208      3211      3212      3208      3385      3386
      3208      3385      3390      3209      3210      3211      3209      3214      3213
      3209      3214      3215      3210      3209      3214      3210      3211      3212
      3211      3208      3385      3211      3212      3215      3211      3212      3389
      3212      3215      3214      3212      3215      3216      3212      3389      3394
      3212      3389      3390      3213      3214      3215      3213      3218      3217
      3213      3218      3219      3214      3213      3218      3214      3215      3216
      3215      3212      3389      3215      3216      3219      3215      3216      3393
      3216      3219      3218      3216      3219      3220      3216      3393      3398
      3216      3393      3394      3217      3218      3219      3217      3222      3221
      3217      3222      3223      3218      3217      3222      3218      3219      3220
      3219      3216      3393      3219      3220      3223      3219      3220      3397
      3220      3223      3222      3220      3223      3224      3220      3397      3402
      3220      3397      3398      3221      3222      3223      3221      3226      3225
      3221      3226      3227      3222      3221      3226      3222      3223      3224
      3223      3220      3397      3223      3224      3227      3223      3224      3401
      3224      3227      3226      3224      3227      3228      3224      3401      3402
      3224      3401      3406      3225      3226      3227      3225      3230      3229
      3225      3230      3231      3226      3225      3230      3226      3227      3228
      3227      3224      3401      3227      3228      3231      3227      3228      3405
      3228      3231      3230      3228      3231      3232      3228      3405      3406
      3228      3405      3410      3229      3230      3231      3229      3234      3233
      3229      3234      3235      3230      3229      3234      3230      3231      3232
      3231      3228      3405      3231      3232      3235      3231      3232      3409
      3232      3235      3234      3232      3235      3236      3232      3409      3414
      3232      3409      3410      3233      3234      3235      3233      3238      3237
      3233      3238      3239      3234      3233      3238      3234      3235      3236
      3235      3232      3409      3235      3236      3239      3235      3236      3413
      3236      3239      3238      3236      3239      3240      3236      3413      3418
      3236      3413      3414      3237      3238      3239      3238      3239      3240
      3239      3236      3413      3239      3240      3417      3240      3417      3418
      3241      3242      3243      3241      3246      3245      3241      3246      3247
      3242      3241      3246      3242      3243      3244      3243      3244      3247
      3243      3244      3421      3244      3247      3246      3244      3247      3248
      3244      3421      3422      3244      3421      3426      3245      3246      3247
      3245      3250      3249      3245      3250      3251      3246      3245      3250
      3246      3247      3248      3247      3244      3421      3247      3248      3251
      3247      3248      3425      3248      3251      3250      3248      3251      3252
      3248      3425      3426      3248      3425      3430      3249      3250      3251
      3249      3254      3253      3249      3254      3255      3250      3249      3254
      3250      3251      3252      3251      3248      3425      3251      3252      3255
      3251      3252      3429      3252      3255      3254      3252      3255      3256
      3252      3429      3434      3252      3429      3430      3253      3254      3255
      3253      3258      3257      3253      3258      3259      3254      3253      3258
      3254      3255      3256      3255      3252      3429      3255      3256      3259
      3255      3256      3433      3256      3259      3258      3256      3259      3260
      3256      3433      3438      3256      3433      3434      3257      3258      3259
      3257      3262      3261      3257      3262      3263      3258      3257      3262
      3258      3259      3260      3259      3256      3433      3259      3260      3263
      3259      3260      3437      3260      3263      3262      3260      3263      3264
      3260      3437      3442      3260      3437      3438      3261      3262      3263
      3261      3266      3265      3261      3266      3267      3262      3261      3266
      3262      3263      3264      3263      3260      3437      3263      3264      3267
      3263      3264      3441      3264      3267      3266      3264      3267      3268
      3264      3441      3442      3264      3441      3446      3265      3266      3267
      3265      3270      3269      3265      3270      3271      3266      3265      3270
      3266      3267      3268      3267      3264      3441      3267      3268      3271
      3267      3268      3445      3268      3271      3270      3268      3271      3272
      3268      3445      3446      3268      3445      3450      3269      3270      3271
      3269      3274      3273      3269      3274      3275      3270      3269      3274
      3270      3271      3272      3271      3268      3445      3271      3272      3275
      3271      3272      3449      3272      3275      3274      3272      3275      3276
      3272      3449      3454      3272      3449      3450      3273      3274      3275
      3273      3278      3277      3273      3278      3279      3274      3273      3278
      3274      3275      3276      3275      3272      3449      3275      3276      3279
      3275      3276      3453      3276      3279      3278      3276      3279      3280
      3276      3453      3458      3276      3453      3454      3277      3278      3279
      3277      3282      3281      3277      3282      3283      3278      3277      3282
      3278      3279      3280      3279      3276      3453      3279      3280      3283
      3279      3280      3457      3280      3283      3282      3280      3283      3284
      3280      3457      3462      3280      3457      3458      3281      3282      3283
      3281      3286      3285      3281      3286      3287      3282      3281      3286
      3282      3283      3284      3283      3280      3457      3283      3284      3287
      3283      3284      3461      3284      3287      3286      3284      3287      3288
      3284      3461      3462      3284      3461      3466      3285      3286      3287
      3285      3290      3289      3285      3290      3291      3286      3285      3290
      3286      3287      3288      3287      3284      3461      3287      3288      3291
      3287      3288      3465      3288      3291      3290      3288      3291      3292
      3288      3465      3466      3288      3465      3470      3289      3290      3291
      3289      3294      3293      3289      3294      3295      3290      3289      3294
      3290      3291      3292      3291      3288      3465      3291      3292      3295
      3291      3292      3469      3292      3295      3294      3292      3295      3296
      3292      3469      3474      3292      3469      3470      3293      3294      3295
      3293      3298      3297      3293      3298      3299      3294      3293      3298
      3294      3295      3296      3295      3292      3469      3295      3296      3299
      3295      3296      3473      3296      3299      3298      3296      3299      3300
      3296      3473      3478      3296      3473      3474      3297      3298      3299
      3297      3302      3301      3297      3302      3303      3298      3297      3302
      3298      3299      3300      3299      3296      3473      3299      3300      3303
      3299      3300      3477      3300      3303      3302      3300      3303      3304
      3300      3477      3482      3300      3477      3478      3301      3302      3303
      3301      3306      3305      3301      3306      3307      3302      3301      3306
      3302      3303      3304      3303      3300      3477      3303      3304      3307
      3303      3304      3481      3304      3307      3306      3304      3307      3308
      3304      3481      3482      3304      3481      3486      3305      3306      3307
      3305      3310      3309      3305      3310      3311      3306      3305      3310
      3306      3307      3308      3307      3304      3481      3307      3308      3311
      3307      3308      3485      3308      3311      3310      3308      3311      3312
      3308      3485      3486      3308      3485      3490      3309      3310      3311
      3309      3314      3313      3309      3314      3315      3310      3309      3314
      3310      3311      3312      3311      3308      3485      3311      3312      3315
      3311      3312      3489      3312      3315      3314      3312      3315      3316
      3312      3489      3494      3312      3489      3490      3313      3314      3315
      3313      3318      3317      3313      3318      3319      3314      3313      3318
      3314      3315      3316      3315      3312      3489      3315      3316      3319
      3315      3316      3493      3316      3319      3318      3316      3319      3320
      3316      3493      3498      3316      3493      3494      3317      3318      3319
      3317      3322      3321      3317      3322      3323      3318      3317      3322
      3318      3319      3320      3319      3316      3493      3319      3320      3323
      3319      3320      3497      3320      3323      3322      3320      3323      3324
      3320      3497      3502      3320      3497      3498      3321      3322      3323
      3321      3326      3325      3321      3326      3327      3322      3321      3326
      3322      3323      3324      3323      3320      3497      3323      3324      3327
      3323      3324      3501      3324      3327      3326      3324      3327      3328
      3324      3501      3502      3324      3501      3506      3325      3326      3327
      3325      3330      3329      3325      3330      3331      3326      3325      3330
      3326      3327      3328      3327      3324      3501      3327      3328      3331
      3327      3328      3505      3328      3331      3330      3328      3331      3332
      3328      3505      3506      3328      3505      3510      3329      3330      3331
      3329      3334      3333      3329      3334      3335      3330      3329      3334
      3330      3331      3332      3331      3328      3505      3331      3332      3335
      3331      3332      3509      3332      3335      3334      3332      3335      3336
      3332      3509      3514      3332      3509      3510      3333      3334      3335
      3333      3338      3337      3333      3338      3339      3334      3333      3338
      3334      3335      3336      3335      3332      3509      3335      3336      3339
      3335      3336      3513      3336      3339      3338      3336      3339      3340
      3336      3513      3518      3336      3513      3514      3337      3338      3339
      3337      3342      3341      3337      3342      3343      3338      3337      3342
      3338      3339      3340      3339      3336      3513      3339      3340      3343
      3339      3340      3517      3340      3343      3342      3340      3343      3344
      3340      3517      3522      3340      3517      3518      3341      3342      3343
      3341      3346      3345      3341      3346      3347      3342      3341      3346
      3342      3343      3344      3343      3340      3517      3343      3344      3347
      3343      3344      3521      3344      3347      3346      3344      3347      3348
      3344      3521      3522      3344      3521      3526      3345      3346      3347
      3345      3350      3349      3345      3350      3351      3346      3345      3350
      3346      3347      3348      3347      3344      3521      3347      3348      3351
      3347      3348      3525      3348      3351      3350      3348      3351      3352
      3348      3525      3526      3348      3525      3530      3349      3350      3351
      3349      3354      3353      3349      3354      3355      3350      3349      3354
      3350      3351      3352      3351      3348      3525      3351      3352      3355
      3351      3352      3529      3352      3355      3354      3352      3355      3356
      3352      3529      3534      3352      3529      3530      3353      3354      3355
      3353      3358      3357      3353      3358      3359      3354      3353      3358
      3354      3355      3356      3355      3352      3529      3355      3356      3359
      3355      3356      3533      3356      3359      3358      3356      3359      3360
      3356      3533      3534      3356      3533      3538      3357      3358      3359
      3357      3362      3361      3357      3362      3363      3358      3357      3362
      3358      3359      3360      3359      3356      3533      3359      3360      3363
      3359      3360      3537      3360      3363      3362      3360      3363      3364
      3360      3537      3542      3360      3537      3538      3361      3362      3363
      3361      3366      3365      3361      3366      3367      3362      3361      3366
      3362      3363      3364      3363      3360      3537      3363      3364      3367
      3363      3364      3541      3364      3367      3366      3364      3367      3368
      3364      3541      3542      3364      3541      3546      3365      3366      3367
      3365      3370      3369      3365      3370      3371      3366      3365      3370
      3366      3367      3368      3367      3364      3541      3367      3368      3371
      3367      3368      3545      3368      3371      3370      3368      3371      3372
      3368      3545      3546      3368      3545      3550      3369      3370      3371
      3369      3374      3373      3369      3374      3375      3370      3369      3374
      3370      3371      3372      3371      3368      3545      3371      3372      3375
      3371      3372      3549      3372      3375      3374      3372      3375      3376
      3372      3549      3554      3372      3549      3550      3373      3374      3375
      3373      3378      3377      3373      3378      3379      3374      3373      3378
      3374      3375      3376      3375      3372      3549      3375      3376      3379
      3375      3376      3553      3376      3379      3378      3376      3379      3380
      3376      3553      3558      3376      3553      3554      3377      3378      3379
      3377      3382      3381      3377      3382      3383      3378      3377      3382
      3378      3379      3380      3379      3376      3553      3379      3380      3383
      3379      3380      3557      3380      3383      3382      3380      3383      3384
      3380      3557      3562      3380      3557      3558      3381      3382      3383
      3381      3386      3385      3381      3386      3387      3382      3381      3386
      3382      3383      3384      3383      3380      3557      3383      3384      3387
      3383      3384      3561      3384      3387      3386      3384      3387      3388
      3384      3561      3562      3384      3561      3566      3385      3386      3387
      3385      3390      3389      3385      3390      3391      3386      3385      3390
      3386      3387      3388      3387      3384      3561      3387      3388      3391
      3387      3388      3565      3388      3391      3390      3388      3391      3392
      3388      3565      3566      3388      3565      3570      3389      3390      3391
      3389      3394      3393      3389      3394      3395      3390      3389      3394
      3390      3391      3392      3391      3388      3565      3391      3392      3395
      3391      3392      3569      3392      3395      3394      3392      3395      3396
      3392      3569      3574      3392      3569      3570      3393      3394      3395
      3393      3398      3397      3393      3398      3399      3394      3393      3398
      3394      3395      3396      3395      3392      3569      3395      3396      3399
      3395      3396      3573      3396      3399      3398      3396      3399      3400
      3396      3573      3578      3396      3573      3574      3397      3398      3399
      3397      3402      3401      3397      3402      3403      3398      3397      3402
      3398      3399      3400      3399      3396      3573      3399      3400      3403
      3399      3400      3577      3400      3403      3402      3400      3403      3404
      3400      3577      3582      3400      3577      3578      3401      3402      3403
      3401      3406      3405      3401      3406      3407      3402      3401      3406
      3402      3403      3404      3403      3400      3577      3403      3404      3407
      3403      3404      3581      3404      3407      3406      3404      3407      3408
      3404      3581      3582      3404      3581      3586      3405      3406      3407
      3405      3410      3409      3405      3410      3411      3406      3405      3410
      3406      3407      3408      3407      3404      3581      3407      3408      3411
      3407      3408      3585      3408      3411      3410      3408      3411      3412
      3408      3585      3586      3408      3585      3590      3409      3410      3411
      3409      3414      3413      3409      3414      3415      3410      3409      3414
      3410      3411      3412      3411      3408      3585      3411      3412      3415
      3411      3412      3589      3412      3415      3414      3412      3415      3416
      3412      3589      3594      3412      3589      3590      3413      3414      3415
      3413      3418      3417      3413      3418      3419      3414      3413      3418
      3414      3415      3416      3415      3412      3589      3415      3416      3419
      3415      3416      3593      3416      3419      3418      3416      3419      3420
      3416      3593      3598      3416      3593      3594      3417      3418      3419
      3418      3419      3420      3419      3416      3593      3419      3420      3597
      3420      3597      3598      3421      3422      3423      3421      3426      3425
      3421      3426      3427      3422      3421      3426      3422      3423      3424
      3423      3424      3427      3423      3424      3601      3424      3427      3426
      3424      3427      3428      3424      3601      3602      3424      3601      3606
      3425      3426      3427      3425      3430      3429      3425      3430      3431
      3426      3425      3430      3426      3427      3428      3427      3424      3601
      3427      3428      3431      3427      3428      3605      3428      3431      3430
      3428      3431      3432      3428      3605      3606      3428      3605      3610
      3429      3430      3431      3429      3434      3433      3429      3434      3435
      3430      3429      3434      3430      3431      3432      3431      3428      3605
      3431      3432      3435      3431      3432      3609      3432      3435      3434
      3432      3435      3436      3432      3609      3614      3432      3609      3610
      3433      3434      3435      3433      3438      3437      3433      3438      3439
      3434      3433      3438      3434      3435      3436      3435      3432      3609
      3435      3436      3439      3435      3436      3613      3436      3439      3438
      3436      3439      3440      3436      3613      3618      3436      3613      3614
      3437      3438      3439      3437      3442      3441      3437      3442      3443
      3438      3437      3442      3438      3439      3440      3439      3436      3613
      3439      3440      3443      3439      3440      3617      3440      3443      3442
      3440      3443      3444      3440      3617      3622      3440      3617      3618
      3441      3442      3443      3441      3446      3445      3441      3446      3447
      3442      3441      3446      3442      3443      3444      3443      3440      3617
      3443      3444      3447      3443      3444      3621      3444      3447      3446
      3444      3447      3448      3444      3621      3622      3444      3621      3626
      3445      3446      3447      3445      3450      3449      3445      3450      3451
      3446      3445      3450      3446      3447      3448      3447      3444      3621
      3447      3448      3451      3447      3448      3625      3448      3451      3450
      3448      3451      3452      3448      3625      3626      3448      3625      3630
      3449      3450      3451      3449      3454      3453      3449      3454      3455
      3450      3449      3454      3450      3451      3452      3451      3448      3625
      3451      3452      3455      3451      3452      3629      3452      3455      3454
      3452      3455      3456      3452      3629      3630      3452      3629      3634
      3453      3454      3455      3453      3458      3457      3453      3458      3459
      3454      3453      3458      3454      3455      3456      3455      3452      3629
      3455      3456      3459      3455      3456      3633      3456      3459      3458
      3456      3459      3460      3456      3633      3634      3456      3633      3638
      3457      3458      3459      3457      3462      3461      3457      3462      3463
      3458      3457      3462      3458      3459      3460      3459      3456      3633
      3459      3460      3463      3459      3460      3637      3460      3463      3462
      3460      3463      3464      3460      3637      3638      3460      3637      3642
      3461      3462      3463      3461      3466      3465      3461      3466      3467
      3462      3461      3466      3462      3463      3464      3463      3460      3637
      3463      3464      3467      3463      3464      3641      3464      3467      3466
      3464      3467      3468      3464      3641      3642      3464      3641      3646
      3465      3466      3467      3465      3470      3469      3465      3470      3471
      3466      3465      3470      3466      3467      3468      3467      3464      3641
      3467      3468      3471      3467      3468      3645      3468      3471      3470
      3468      3471      3472      3468      3645      3646      3468      3645      3650
      3469      3470      3471      3469      3474      3473      3469      3474      3475
      3470      3469      3474      3470      3471      3472      3471      3468      3645
      3471      3472      3475      3471      3472      3649      3472      3475      3474
      3472      3475      3476      3472      3649      3654      3472      3649      3650
      3473      3474      3475      3473      3478      3477      3473      3478      3479
      3474      3473      3478      3474      3475      3476      3475      3472      3649
      3475      3476      3479      3475      3476      3653      3476      3479      3478
      3476      3479      3480      3476      3653      3658      3476      3653      3654
      3477      3478      3479      3477      3482      3481      3477      3482      3483
      3478      3477      3482      3478      3479      3480      3479      3476      3653
      3479      3480      3483      3479      3480      3657      3480      3483      3482
      3480      3483      3484      3480      3657      3662      3480      3657      3658
      3481      3482      3483      3481      3486      3485      3481      3486      3487
      3482      3481      3486      3482      3483      3484      3483      3480      3657
      3483      3484      3487      3483      3484      3661      3484      3487      3486
      3484      3487      3488      3484      3661      3662      3484      3661      3666
      3485      3486      3487      3485      3490      3489      3485      3490      3491
      3486      3485      3490      3486      3487      3488      3487      3484      3661
      3487      3488      3491      3487      3488      3665      3488      3491      3490
      3488      3491      3492      3488      3665      3666      3488      3665      3670
      3489      3490      3491      3489      3494      3493      3489      3494      3495
      3490      3489      3494      3490      3491      3492      3491      3488      3665
      3491      3492      3495      3491      3492      3669      3492      3495      3494
      3492      3495      3496      3492      3669      3674      3492      3669      3670
      3493      3494      3495      3493      3498      3497      3493      3498      3499
      3494      3493      3498      3494      3495      3496      3495      3492      3669
      3495      3496      3499      3495      3496      3673      3496      3499      3498
      3496      3499      3500      3496      3673      3678      3496      3673      3674
      3497      3498      3499      3497      3502      3501      3497      3502      3503
      3498      3497      3502      3498      3499      3500      3499      3496      3673
      3499      3500      3503      3499      3500      3677      3500      3503      3502
      3500      3503      3504      3500      3677      3682      3500      3677      3678
      3501      3502      3503      3501      3506      3505      3501      3506      3507
      3502      3501      3506      3502      3503      3504      3503      3500      3677
      3503      3504      3507      3503      3504      3681      3504      3507      3506
      3504      3507      3508      3504      3681      3682      3504      3681      3686
      3505      3506      3507      3505      3510      3509      3505      3510      3511
      3506      3505      3510      3506      3507      3508      3507      3504      3681
      3507      3508      3511      3507      3508      3685      3508      3511      3510
      3508      3511      3512      3508      3685      3686      3508      3685      3690
      3509      3510      3511      3509      3514      3513      3509      3514      3515
      3510      3509      3514      3510      3511      3512      3511      3508      3685
      3511      3512      3515      3511      3512      3689      3512      3515      3514
      3512      3515      3516      3512      3689      3690      3512      3689      3694
      3513      3514      3515      3513      3518      3517      3513      3518      3519
      3514      3513      3518      3514      3515      3516      3515      3512      3689
      3515      3516      3519      3515      3516      3693      3516      3519      3518
      3516      3519      3520      3516      3693      3694      3516      3693      3698
      3517      3518      3519      3517      3522      3521      3517      3522      3523
      3518      3517      3522      3518      3519      3520      3519      3516      3693
      3519      3520      3523      3519      3520      3697      3520      3523      3522
      3520      3523      3524      3520      3697      3698      3520      3697      3702
      3521      3522      3523      3521      3526      3525      3521      3526      3527
      3522      3521      3526      3522      3523      3524      3523      3520      3697
      3523      3524      3527      3523      3524      3701      3524      3527      3526
      3524      3527      3528      3524      3701      3702      3524      3701      3706
      3525      3526      3527      3525      3530      3529      3525      3530      3531
      3526      3525      3530      3526      3527      3528      3527      3524      3701
      3527      3528      3531      3527      3528      3705      3528      3531      3530
      3528      3531      3532      3528      3705      3706      3528      3705      3710
      3529      3530      3531      3529      3534      3533      3529      3534      3535
      3530      3529      3534      3530      3531      3532      3531      3528      3705
      3531      3532      3535      3531      3532      3709      3532      3535      3534
      3532      3535      3536      3532      3709      3714      3532      3709      3710
      3533      3534      3535      3533      3538      3537      3533      3538      3539
      3534      3533      3538      3534      3535      3536      3535      3532      3709
      3535      3536      3539      3535      3536      3713      3536      3539      3538
      3536      3539      3540      3536      3713      3718      3536      3713      3714
      3537      3538      3539      3537      3542      3541      3537      3542      3543
      3538      3537      3542      3538      3539      3540      3539      3536      3713
      3539      3540      3543      3539      3540      3717      3540      3543      3542
      3540      3543      3544      3540      3717      3722      3540      3717      3718
      3541      3542      3543      3541      3546      3545      3541      3546      3547
      3542      3541      3546      3542      3543      3544      3543      3540      3717
      3543      3544      3547      3543      3544      3721      3544      3547      3546
      3544      3547      3548      3544      3721      3722      3544      3721      3726
      3545      3546      3547      3545      3550      3549      3545      3550      3551
      3546      3545      3550      3546      3547      3548      3547      3544      3721
      3547      3548      3551      3547      3548      3725      3548      3551      3550
      3548      3551      3552      3548      3725      3726      3548      3725      3730
      3549      3550      3551      3549      3554      3553      3549      3554      3555
      3550      3549      3554      3550      3551      3552      3551      3548      3725
      3551      3552      3555      3551      3552      3729      3552      3555      3554
      3552      3555      3556      3552      3729      3734      3552      3729      3730
      3553      3554      3555      3553      3558      3557      3553      3558      3559
      3554      3553      3558      3554      3555      3556      3555      3552      3729
      3555      3556      3559      3555      3556      3733      3556      3559      3558
      3556      3559      3560      3556      3733      3738      3556      3733      3734
      3557      3558      3559      3557      3562      3561      3557      3562      3563
      3558      3557      3562      3558      3559      3560      3559      3556      3733
      3559      3560      3563      3559      3560      3737      3560      3563      3562
      3560      3563      3564      3560      3737      3742      3560      3737      3738
      3561      3562      3563      3561      3566      3565      3561      3566      3567
      3562      3561      3566      3562      3563      3564      3563      3560      3737
      3563      3564      3567      3563      3564      3741      3564      3567      3566
      3564      3567      3568      3564      3741      3742      3564      3741      3746
      3565      3566      3567      3565      3570      3569      3565      3570      3571
      3566      3565      3570      3566      3567      3568      3567      3564      3741
      3567      3568      3571      3567      3568      3745      3568      3571      3570
      3568      3571      3572      3568      3745      3746      3568      3745      3750
      3569      3570      3571      3569      3574      3573      3569      3574      3575
      3570      3569      3574      3570      3571      3572      3571      3568      3745
      3571      3572      3575      3571      3572      3749      3572      3575      3574
      3572      3575      3576      3572      3749      3754      3572      3749      3750
      3573      3574      3575      3573      3578      3577      3573      3578      3579
      3574      3573      3578      3574      3575      3576      3575      3572      3749
      3575      3576      3579      3575      3576      3753      3576      3579      3578
      3576      3579      3580      3576      3753      3754      3576      3753      3758
      3577      3578      3579      3577      3582      3581      3577      3582      3583
      3578      3577      3582      3578      3579      3580      3579      3576      3753
      3579      3580      3583      3579      3580      3757      3580      3583      3582
      3580      3583      3584      3580      3757      3758      3580      3757      3762
      3581      3582      3583      3581      3586      3585      3581      3586      3587
      3582      3581      3586      3582      3583      3584      3583      3580      3757
      3583      3584      3587      3583      3584      3761      3584      3587      3586
      3584      3587      3588      3584      3761      3762      3584      3761      3766
      3585      3586      3587      3585      3590      3589      3585      3590      3591
      3586      3585      3590      3586      3587      3588      3587      3584      3761
      3587      3588      3591      3587      3588      3765      3588      3591      3590
      3588      3591      3592      3588      3765      3766      3588      3765      3770
      3589      3590      3591      3589      3594      3593      3589      3594      3595
      3590      3589      3594      3590      3591      3592      3591      3588      3765
      3591      3592      3595      3591      3592      3769      3592      3595      3594
      3592      3595      3596      3592      3769      3770      3592      3769      3774
      3593      3594      3595      3593      3598      3597      3593      3598      3599
      3594      3593      3598      3594      3595      3596      3595      3592      3769
      3595      3596      3599      3595      3596      3773      3596      3599      3598
      3596      3599      3600      3596      3773      3774      3596      3773      3778
      3597      3598      3599      3598      3599      3600      3599      3596      3773
      3599      3600      3777      3600      3777      3778      3601      3602      3603
      3601      3606      3605      3601      3606      3607      3602      3601      3606
      3602      3603      3604      3603      3604      3781      3603      3604      3607
      3604      3607      3606      3604      3607      3608      3604      3781      3782
      3604      3781      3786      3605      3606      3607      3605      3610      3609
      3605      3610      3611      3606      3605      3610      3606      3607      3608
      3607      3604      3781      3607      3608      3785      3607      3608      3611
      3608      3611      3610      3608      3611      3612      3608      3785      3786
      3608      3785      3790      3609      3610      3611      3609      3614      3613
      3609      3614      3615      3610      3609      3614      3610      3611      3612
      3611      3608      3785      3611      3612      3615      3611      3612      3789
      3612      3615      3614      3612      3615      3616      3612      3789      3790
      3612      3789      3794      3613      3614      3615      3613      3618      3617
      3613      3618      3619      3614      3613      3618      3614      3615      3616
      3615      3612      3789      3615      3616      3619      3615      3616      3793
      3616      3619      3618      3616      3619      3620      3616      3793      3794
      3616      3793      3798      3617      3618      3619      3617      3622      3621
      3617      3622      3623      3618      3617      3622      3618      3619      3620
      3619      3616      3793      3619      3620      3797      3619      3620      3623
      3620      3623      3622      3620      3623      3624      3620      3797      3802
      3620      3797      3798      3621      3622      3623      3621      3626      3625
      3621      3626      3627      3622      3621      3626      3622      3623      3624
      3623      3620      3797      3623      3624      3801      3623      3624      3627
      3624      3627      3626      3624      3627      3628      3624      3801      3802
      3624      3801      3806      3625      3626      3627      3625      3630      3629
      3625      3630      3631      3626      3625      3630      3626      3627      3628
      3627      3624      3801      3627      3628      3805      3627      3628      3631
      3628      3631      3630      3628      3631      3632      3628      3805      3806
      3628      3805      3810      3629      3630      3631      3629      3634      3633
      3629      3634      3635      3630      3629      3634      3630      3631      3632
      3631      3628      3805      3631      3632      3635      3631      3632      3809
      3632      3635      3634      3632      3635      3636      3632      3809      3814
      3632      3809      3810      3633      3634      3635      3633      3638      3637
      3633      3638      3639      3634      3633      3638      3634      3635      3636
      3635      3632      3809      3635      3636      3639      3635      3636      3813
      3636      3639      3638      3636      3639      3640      3636      3813      3818
      3636      3813      3814      3637      3638      3639      3637      3642      3641
      3637      3642      3643      3638      3637      3642      3638      3639      3640
      3639      3636      3813      3639      3640      3817      3639      3640      3643
      3640      3643      3642      3640      3643      3644      3640      3817      3822
      3640      3817      3818      3641      3642      3643      3641      3646      3645
      3641      3646      3647      3642      3641      3646      3642      3643      3644
      3643      3640      3817      3643      3644      3821      3643      3644      3647
      3644      3647      3646      3644      3647      3648      3644      3821      3822
      3644      3821      3826      3645      3646      3647      3645      3650      3649
      3645      3650      3651      3646      3645      3650      3646      3647      3648
      3647      3644      3821      3647      3648      3825      3647      3648      3651
      3648      3651      3650      3648      3651      3652      3648      3825      3826
      3648      3825      3830      3649      3650      3651      3649      3654      3653
      3649      3654      3655      3650      3649      3654      3650      3651      3652
      3651      3648      3825      3651      3652      3829      3651      3652      3655
      3652      3655      3654      3652      3655      3656      3652      3829      3834
      3652      3829      3830      3653      3654      3655      3653      3658      3657
      3653      3658      3659      3654      3653      3658      3654      3655      3656
      3655      3652      3829      3655      3656      3833      3655      3656      3659
      3656      3659      3658      3656      3659      3660      3656      3833      3838
      3656      3833      3834      3657      3658      3659      3657      3662      3661
      3657      3662      3663      3658      3657      3662      3658      3659      3660
      3659      3656      3833      3659      3660      3837      3659      3660      3663
      3660      3663      3662      3660      3663      3664      3660      3837      3842
      3660      3837      3838      3661      3662      3663      3661      3666      3665
      3661      3666      3667      3662      3661      3666      3662      3663      3664
      3663      3660      3837      3663      3664      3841      3663      3664      3667
      3664      3667      3666      3664      3667      3668      3664      3841      3842
      3664      3841      3846      3665      3666      3667      3665      3670      3669
      3665      3670      3671      3666      3665      3670      3666      3667      3668
      3667      3664      3841      3667      3668      3845      3667      3668      3671
      3668      3671      3670      3668      3671      3672      3668      3845      3846
      3668      3845      3850      3669      3670      3671      3669      3674      3673
      3669      3674      3675      3670      3669      3674      3670      3671      3672
      3671      3668      3845      3671      3672      3675      3671      3672      3849
      3672      3675      3674      3672      3675      3676      3672      3849      3850
      3672      3849      3854      3673      3674      3675      3673      3678      3677
      3673      3678      3679      3674      3673      3678      3674      3675      3676
      3675      3672      3849      3675      3676      3679      3675      3676      3853
      3676      3679      3678      3676      3679      3680      3676      3853      3854
      3676      3853      3858      3677      3678      3679      3677      3682      3681
      3677      3682      3683      3678      3677      3682      3678      3679      3680
      3679      3676      3853      3679      3680      3857      3679      3680      3683
      3680      3683      3682      3680      3683      3684      3680      3857      3858
      3680      3857      3862      3681      3682      3683      3681      3686      3685
      3681      3686      3687      3682      3681      3686      3682      3683      3684
      3683      3680      3857      3683      3684      3861      3683      3684      3687
      3684      3687      3686      3684      3687      3688      3684      3861      3862
      3684      3861      3866      3685      3686      3687      3685      3690      3689
      3685      3690      3691      3686      3685      3690      3686      3687      3688
      3687      3684      3861      3687      3688      3865      3687      3688      3691
      3688      3691      3690      3688      3691      3692      3688      3865      3866
      3688      3865      3870      3689      3690      3691      3689      3694      3693
      3689      3694      3695      3690      3689      3694      3690      3691      3692
      3691      3688      3865      3691      3692      3695      3691      3692      3869
      3692      3695      3694      3692      3695      3696      3692      3869      3874
      3692      3869      3870      3693      3694      3695      3693      3698      3697
      3693      3698      3699      3694      3693      3698      3694      3695      3696
      3695      3692      3869      3695      3696      3699      3695      3696      3873
      3696      3699      3698      3696      3699      3700      3696      3873      3878
      3696      3873      3874      3697      3698      3699      3697      3702      3701
      3697      3702      3703      3698      3697      3702      3698      3699      3700
      3699      3696      3873      3699      3700      3877      3699      3700      3703
      3700      3703      3702      3700      3703      3704      3700      3877      3882
      3700      3877      3878      3701      3702      3703      3701      3706      3705
      3701      3706      3707      3702      3701      3706      3702      3703      3704
      3703      3700      3877      3703      3704      3881      3703      3704      3707
      3704      3707      3706      3704      3707      3708      3704      3881      3882
      3704      3881      3886      3705      3706      3707      3705      3710      3709
      3705      3710      3711      3706      3705      3710      3706      3707      3708
      3707      3704      3881      3707      3708      3885      3707      3708      3711
      3708      3711      3710      3708      3711      3712      3708      3885      3886
      3708      3885      3890      3709      3710      3711      3709      3714      3713
      3709      3714      3715      3710      3709      3714      3710      3711      3712
      3711      3708      3885      3711      3712      3889      3711      3712      3715
      3712      3715      3714      3712      3715      3716      3712      3889      3894
      3712      3889      3890      3713      3714      3715      3713      3718      3717
      3713      3718      3719      3714      3713      3718      3714      3715      3716
      3715      3712      3889      3715      3716      3893      3715      3716      3719
      3716      3719      3718      3716      3719      3720      3716      3893      3898
      3716      3893      3894      3717      3718      3719      3717      3722      3721
      3717      3722      3723      3718      3717      3722      3718      3719      3720
      3719      3716      3893      3719      3720      3897      3719      3720      3723
      3720      3723      3722      3720      3723      3724      3720      3897      3902
      3720      3897      3898      3721      3722      3723      3721      3726      3725
      3721      3726      3727      3722      3721      3726      3722      3723      3724
      3723      3720      3897      3723      3724      3901      3723      3724      3727
      3724      3727      3726      3724      3727      3728      3724      3901      3902
      3724      3901      3906      3725      3726      3727      3725      3730      3729
      3725      3730      3731      3726      3725      3730      3726      3727      3728
      3727      3724      3901      3727      3728      3905      3727      3728      3731
      3728      3731      3730      3728      3731      3732      3728      3905      3906
      3728      3905      3910      3729      3730      3731      3729      3734      3733
      3729      3734      3735      3730      3729      3734      3730      3731      3732
      3731      3728      3905      3731      3732      3735      3731      3732      3909
      3732      3735      3734      3732      3735      3736      3732      3909      3910
      3732      3909      3914      3733      3734      3735      3733      3738      3737
      3733      3738      3739      3734      3733      3738      3734      3735      3736
      3735      3732      3909      3735      3736      3739      3735      3736      3913
      3736      3739      3738      3736      3739      3740      3736      3913      3914
      3736      3913      3918      3737      3738      3739      3737      3742      3741
      3737      3742      3743      3738      3737      3742      3738      3739      3740
      3739      3736      3913      3739      3740      3917      3739      3740      3743
      3740      3743      3742      3740      3743      3744      3740      3917      3918
      3740      3917      3922      3741      3742      3743      3741      3746      3745
      3741      3746      3747      3742      3741      3746      3742      3743      3744
      3743      3740      3917      3743      3744      3921      3743      3744      3747
      3744      3747      3746      3744      3747      3748      3744      3921      3922
      3744      3921      3926      3745      3746      3747      3745      3750      3749
      3745      3750      3751      3746      3745      3750      3746      3747      3748
      3747      3744      3921      3747      3748      3925      3747      3748      3751
      3748      3751      3750      3748      3751      3752      3748      3925      3926
      3748      3925      3930      3749      3750      3751      3749      3754      3753
      3749      3754      3755      3750      3749      3754      3750      3751      3752
      3751      3748      3925      3751      3752      3755      3751      3752      3929
      3752      3755      3754      3752      3755      3756      3752      3929      3934
      3752      3929      3930      3753      3754      3755      3753      3758      3757
      3753      3758      3759      3754      3753      3758      3754      3755      3756
      3755      3752      3929      3755      3756      3759      3755      3756      3933
      3756      3759      3758      3756      3759      3760      3756      3933      3938
      3756      3933      3934      3757      3758      3759      3757      3762      3761
      3757      3762      3763      3758      3757      3762      3758      3759      3760
      3759      3756      3933      3759      3760      3937      3759      3760      3763
      3760      3763      3762      3760      3763      3764      3760      3937      3942
      3760      3937      3938      3761      3762      3763      3761      3766      3765
      3761      3766      3767      3762      3761      3766      3762      3763      3764
      3763      3760      3937      3763      3764      3941      3763      3764      3767
      3764      3767      3766      3764      3767      3768      3764      3941      3942
      3764      3941      3946      3765      3766      3767      3765      3770      3769
      3765      3770      3771      3766      3765      3770      3766      3767      3768
      3767      3764      3941      3767      3768      3945      3767      3768      3771
      3768      3771      3770      3768      3771      3772      3768      3945      3946
      3768      3945      3950      3769      3770      3771      3769      3774      3773
      3769      3774      3775      3770      3769      3774      3770      3771      3772
      3771      3768      3945      3771      3772      3775      3771      3772      3949
      3772      3775      3774      3772      3775      3776      3772      3949      3954
      3772      3949      3950      3773      3774      3775      3773      3778      3777
      3773      3778      3779      3774      3773      3778      3774      3775      3776
      3775      3772      3949      3775      3776      3953      3775      3776      3779
      3776      3779      3778      3776      3779      3780      3776      3953      3958
      3776      3953      3954      3777      3778      3779      3778      3779      3780
      3779      3776      3953      3779      3780      3957      3780      3957      3958
      3781      3782      3783      3781      3786      3785      3781      3786      3787
      3782      3781      3786      3782      3783      3784      3783      3784      3961
      3783      3784      3787      3784      3787      3786      3784      3787      3788
      3784      3961      3962      3784      3961      3966      3785      3786      3787
      3785      3790      3789      3785      3790      3791      3786      3785      3790
      3786      3787      3788      3787      3784      3961      3787      3788      3965
      3787      3788      3791      3788      3791      3790      3788      3791      3792
      3788      3965      3966      3788      3965      3970      3789      3790      3791
      3789      3794      3793      3789      3794      3795      3790      3789      3794
      3790      3791      3792      3791      3788      3965      3791      3792      3795
      3791      3792      3969      3792      3795      3794      3792      3795      3796
      3792      3969      3974      3792      3969      3970      3793      3794      3795
      3793      3798      3797      3793      3798      3799      3794      3793      3798
      3794      3795      3796      3795      3792      3969      3795      3796      3973
      3795      3796      3799      3796      3799      3798      3796      3799      3800
      3796      3973      3978      3796      3973      3974      3797      3798      3799
      3797      3802      3801      3797      3802      3803      3798      3797      3802
      3798      3799      3800      3799      3796      3973      3799      3800      3977
      3799      3800      3803      3800      3803      3802      3800      3803      3804
      3800      3977      3982      3800      3977      3978      3801      3802      3803
      3801      3806      3805      3801      3806      3807      3802      3801      3806
      3802      3803      3804      3803      3800      3977      3803      3804      3981
      3803      3804      3807      3804      3807      3806      3804      3807      3808
      3804      3981      3982      3804      3981      3986      3805      3806      3807
      3805      3810      3809      3805      3810      3811      3806      3805      3810
      3806      3807      3808      3807      3804      3981      3807      3808      3985
      3807      3808      3811      3808      3811      3810      3808      3811      3812
      3808      3985      3986      3808      3985      3990      3809      3810      3811
      3809      3814      3813      3809      3814      3815      3810      3809      3814
      3810      3811      3812      3811      3808      3985      3811      3812      3989
      3811      3812      3815      3812      3815      3814      3812      3815      3816
      3812      3989      3994      3812      3989      3990      3813      3814      3815
      3813      3818      3817      3813      3818      3819      3814      3813      3818
      3814      3815      3816      3815      3812      3989      3815      3816      3819
      3815      3816      3993      3816      3819      3818      3816      3819      3820
      3816      3993      3994      3816      3993      3998      3817      3818      3819
      3817      3822      3821      3817      3822      3823      3818      3817      3822
      3818      3819      3820      3819      3816      3993      3819      3820      3997
      3819      3820      3823      3820      3823      3822      3820      3823      3824
      3820      3997      3998      3820      3997      4002      3821      3822      3823
      3821      3826      3825      3821      3826      3827      3822      3821      3826
      3822      3823      3824      3823      3820      3997      3823      3824      4001
      3823      3824      3827      3824      3827      3826      3824      3827      3828
      3824      4001      4002      3824      4001      4006      3825      3826      3827
      3825      3830      3829      3825      3830      3831      3826      3825      3830
      3826      3827      3828      3827      3824      4001      3827      3828      4005
      3827      3828      3831      3828      3831      3830      3828      3831      3832
      3828      4005      4006      3828      4005      4010      3829      3830      3831
      3829      3834      3833      3829      3834      3835      3830      3829      3834
      3830      3831      3832      3831      3828      4005      3831      3832      3835
      3831      3832      4009      3832      3835      3834      3832      3835      3836
      3832      4009      4010      3832      4009      4014      3833      3834      3835
      3833      3838      3837      3833      3838      3839      3834      3833      3838
      3834      3835      3836      3835      3832      4009      3835      3836      3839
      3835      3836      4013      3836      3839      3838      3836      3839      3840
      3836      4013      4014      3836      4013      4018      3837      3838      3839
      3837      3842      3841      3837      3842      3843      3838      3837      3842
      3838      3839      3840      3839      3836      4013      3839      3840      4017
      3839      3840      3843      3840      3843      3842      3840      3843      3844
      3840      4017      4022      3840      4017      4018      3841      3842      3843
      3841      3846      3845      3841      3846      3847      3842      3841      3846
      3842      3843      3844      3843      3840      4017      3843      3844      4021
      3843      3844      3847      3844      3847      3846      3844      3847      3848
      3844      4021      4022      3844      4021      4026      3845      3846      3847
      3845      3850      3849      3845      3850      3851      3846      3845      3850
      3846      3847      3848      3847      3844      4021      3847      3848      4025
      3847      3848      3851      3848      3851      3850      3848      3851      3852
      3848      4025      4026      3848      4025      4030      3849      3850      3851
      3849      3854      3853      3849      3854      3855      3850      3849      3854
      3850      3851      3852      3851      3848      4025      3851      3852      3855
      3851      3852      4029      3852      3855      3854      3852      3855      3856
      3852      4029      4034      3852      4029      4030      3853      3854      3855
      3853      3858      3857      3853      3858      3859      3854      3853      3858
      3854      3855      3856      3855      3852      4029      3855      3856      3859
      3855      3856      4033      3856      3859      3858      3856      3859      3860
      3856      4033      4038      3856      4033      4034      3857      3858      3859
      3857      3862      3861      3857      3862      3863      3858      3857      3862
      3858      3859      3860      3859      3856      4033      3859      3860      4037
      3859      3860      3863      3860      3863      3862      3860      3863      3864
      3860      4037      4042      3860      4037      4038      3861      3862      3863
      3861      3866      3865      3861      3866      3867      3862      3861      3866
      3862      3863      3864      3863      3860      4037      3863      3864      4041
      3863      3864      3867      3864      3867      3866      3864      3867      3868
      3864      4041      4042      3864      4041      4046      3865      3866      3867
      3865      3870      3869      3865      3870      3871      3866      3865      3870
      3866      3867      3868      3867      3864      4041      3867      3868      4045
      3867      3868      3871      3868      3871      3870      3868      3871      3872
      3868      4045      4046      3868      4045      4050      3869      3870      3871
      3869      3874      3873      3869      3874      3875      3870      3869      3874
      3870      3871      3872      3871      3868      4045      3871      3872      4049
      3871      3872      3875      3872      3875      3874      3872      3875      3876
      3872      4049      4054      3872      4049      4050      3873      3874      3875
      3873      3878      3877      3873      3878      3879      3874      3873      3878
      3874      3875      3876      3875      3872      4049      3875      3876      4053
      3875      3876      3879      3876      3879      3878      3876      3879      3880
      3876      4053      4058      3876      4053      4054      3877      3878      3879
      3877      3882      3881      3877      3882      3883      3878      3877      3882
      3878      3879      3880      3879      3876      4053      3879      3880      4057
      3879      3880      3883      3880      3883      3882      3880      3883      3884
      3880      4057      4062      3880      4057      4058      3881      3882      3883
      3881      3886      3885      3881      3886      3887      3882      3881      3886
      3882      3883      3884      3883      3880      4057      3883      3884      4061
      3883      3884      3887      3884      3887      3886      3884      3887      3888
      3884      4061      4062      3884      4061      4066      3885      3886      3887
      3885      3890      3889      3885      3890      3891      3886      3885      3890
      3886      3887      3888      3887      3884      4061      3887      3888      4065
      3887      3888      3891      3888      3891      3890      3888      3891      3892
      3888      4065      4066      3888      4065      4070      3889      3890      3891
      3889      3894      3893      3889      3894      3895      3890      3889      3894
      3890      3891      3892      3891      3888      4065      3891      3892      3895
      3891      3892      4069      3892      3895      3894      3892      3895      3896
      3892      4069      4070      3892      4069      4074      3893      3894      3895
      3893      3898      3897      3893      3898      3899      3894      3893      3898
      3894      3895      3896      3895      3892      4069      3895      3896      3899
      3895      3896      4073      3896      3899      3898      3896      3899      3900
      3896      4073      4074      3896      4073      4078      3897      3898      3899
      3897      3902      3901      3897      3902      3903      3898      3897      3902
      3898      3899      3900      3899      3896      4073      3899      3900      4077
      3899      3900      3903      3900      3903      3902      3900      3903      3904
      3900      4077      4078      3900      4077      4082      3901      3902      3903
      3901      3906      3905      3901      3906      3907      3902      3901      3906
      3902      3903      3904      3903      3900      4077      3903      3904      4081
      3903      3904      3907      3904      3907      3906      3904      3907      3908
      3904      4081      4082      3904      4081      4086      3905      3906      3907
      3905      3910      3909      3905      3910      3911      3906      3905      3910
      3906      3907      3908      3907      3904      4081      3907      3908      4085
      3907      3908      3911      3908      3911      3910      3908      3911      3912
      3908      4085      4086      3908      4085      4090      3909      3910      3911
      3909      3914      3913      3909      3914      3915      3910      3909      3914
      3910      3911      3912      3911      3908      4085      3911      3912      3915
      3911      3912      4089      3912      3915      3914      3912      3915      3916
      3912      4089      4094      3912      4089      4090      3913      3914      3915
      3913      3918      3917      3913      3918      3919      3914      3913      3918
      3914      3915      3916      3915      3912      4089      3915      3916      3919
      3915      3916      4093      3916      3919      3918      3916      3919      3920
      3916      4093      4098      3916      4093      4094      3917      3918      3919
      3917      3922      3921      3917      3922      3923      3918      3917      3922
      3918      3919      3920      3919      3916      4093      3919      3920      4097
      3919      3920      3923      3920      3923      3922      3920      3923      3924
      3920      4097      4102      3920      4097      4098      3921      3922      3923
      3921      3926      3925      3921      3926      3927      3922      3921      3926
      3922      3923      3924      3923      3920      4097      3923      3924      4101
      3923      3924      3927      3924      3927      3926      3924      3927      3928
      3924      4101      4102      3924      4101      4106      3925      3926      3927
      3925      3930      3929      3925      3930      3931      3926      3925      3930
      3926      3927      3928      3927      3924      4101      3927      3928      4105
      3927      3928      3931      3928      3931      3930      3928      3931      3932
      3928      4105      4106      3928      4105      4110      3929      3930      3931
      3929      3934      3933      3929      3934      3935      3930      3929      3934
      3930      3931      3932      3931      3928      4105      3931      3932      4109
      3931      3932      3935      3932      3935      3934      3932      3935      3936
      3932      4109      4114      3932      4109      4110      3933      3934      3935
      3933      3938      3937      3933      3938      3939      3934      3933      3938
      3934      3935      3936      3935      3932      4109      3935      3936      4113
      3935      3936      3939      3936      3939      3938      3936      3939      3940
      3936      4113      4118      3936      4113      4114      3937      3938      3939
      3937      3942      3941      3937      3942      3943      3938      3937      3942
      3938      3939      3940      3939      3936      4113      3939      3940      4117
      3939      3940      3943      3940      3943      3942      3940      3943      3944
      3940      4117      4122      3940      4117      4118      3941      3942      3943
      3941      3946      3945      3941      3946      3947      3942      3941      3946
      3942      3943      3944      3943      3940      4117      3943      3944      4121
      3943      3944      3947      3944      3947      3946      3944      3947      3948
      3944      4121      4122      3944      4121      4126      3945      3946      3947
      3945      3950      3949      3945      3950      3951      3946      3945      3950
      3946      3947      3948      3947      3944      4121      3947      3948      4125
      3947      3948      3951      3948      3951      3950      3948      3951      3952
      3948      4125      4126      3948      4125      4130      3949      3950      3951
      3949      3954      3953      3949      3954      3955      3950      3949      3954
      3950      3951      3952      3951      3948      4125      3951      3952      3955
      3951      3952      4129      3952      3955      3954      3952      3955      3956
      3952      4129      4130      3952      4129      4134      3953      3954      3955
      3953      3958      3957      3953      3958      3959      3954      3953      3958
      3954      3955      3956      3955      3952      4129      3955      3956      3959
      3955      3956      4133      3956      3959      3958      3956      3959      3960
      3956      4133      4134      3956      4133      4138      3957      3958      3959
      3958      3959      3960      3959      3956      4133      3959      3960      4137
      3960      4137      4138      3961      3962      3963      3961      3966      3965
      3961      3966      3967      3962      3961      3966      3962      3963      3964
      3963      3964      4141      3963      3964      3967      3964      3967      3966
      3964      3967      3968      3964      4141      4142      3964      4141      4146
      3965      3966      3967      3965      3970      3969      3965      3970      3971
      3966      3965      3970      3966      3967      3968      3967      3964      4141
      3967      3968      4145      3967      3968      3971      3968      3971      3970
      3968      3971      3972      3968      4145      4146      3968      4145      4150
      3969      3970      3971      3969      3974      3973      3969      3974      3975
      3970      3969      3974      3970      3971      3972      3971      3968      4145
      3971      3972      3975      3971      3972      4149      3972      3975      3974
      3972      3975      3976      3972      4149      4150      3972      4149      4154
      3973      3974      3975      3973      3978      3977      3973      3978      3979
      3974      3973      3978      3974      3975      3976      3975      3972      4149
      3975      3976      3979      3975      3976      4153      3976      3979      3978
      3976      3979      3980      3976      4153      4154      3976      4153      4158
      3977      3978      3979      3977      3982      3981      3977      3982      3983
      3978      3977      3982      3978      3979      3980      3979      3976      4153
      3979      3980      4157      3979      3980      3983      3980      3983      3982
      3980      3983      3984      3980      4157      4158      3980      4157      4162
      3981      3982      3983      3981      3986      3985      3981      3986      3987
      3982      3981      3986      3982      3983      3984      3983      3980      4157
      3983      3984      4161      3983      3984      3987      3984      3987      3986
      3984      3987      3988      3984      4161      4162      3984      4161      4166
      3985      3986      3987      3985      3990      3989      3985      3990      3991
      3986      3985      3990      3986      3987      3988      3987      3984      4161
      3987      3988      4165      3987      3988      3991      3988      3991      3990
      3988      3991      3992      3988      4165      4166      3988      4165      4170
      3989      3990      3991      3989      3994      3993      3989      3994      3995
      3990      3989      3994      3990      3991      3992      3991      3988      4165
      3991      3992      3995      3991      3992      4169      3992      3995      3994
      3992      3995      3996      3992      4169      4174      3992      4169      4170
      3993      3994      3995      3993      3998      3997      3993      3998      3999
      3994      3993      3998      3994      3995      3996      3995      3992      4169
      3995      3996      3999      3995      3996      4173      3996      3999      3998
      3996      3999      4000      3996      4173      4178      3996      4173      4174
      3997      3998      3999      3997      4002      4001      3997      4002      4003
      3998      3997      4002      3998      3999      4000      3999      3996      4173
      3999      4000      4177      3999      4000      4003      4000      4003      4002
      4000      4003      4004      4000      4177      4182      4000      4177      4178
      4001      4002      4003      4001      4006      4005      4001      4006      4007
      4002      4001      4006      4002      4003      4004      4003      4000      4177
      4003      4004      4181      4003      4004      4007      4004      4007      4006
      4004      4007      4008      4004      4181      4182      4004      4181      4186
      4005      4006      4007      4005      4010      4009      4005      4010      4011
      4006      4005      4010      4006      4007      4008      4007      4004      4181
      4007      4008      4185      4007      4008      4011      4008      4011      4010
      4008      4011      4012      4008      4185      4186      4008      4185      4190
      4009      4010      4011      4009      4014      4013      4009      4014      4015
      4010      4009      4014      4010      4011      4012      4011      4008      4185
      4011      4012      4015      4011      4012      4189      4012      4015      4014
      4012      4015      4016      4012      4189      4194      4012      4189      4190
      4013      4014      4015      4013      4018      4017      4013      4018      4019
      4014      4013      4018      4014      4015      4016      4015      4012      4189
      4015      4016      4193      4015      4016      4019      4016      4019      4018
      4016      4019      4020      4016      4193      4198      4016      4193      4194
      4017      4018      4019      4017      4022      4021      4017      4022      4023
      4018      4017      4022      4018      4019      4020      4019      4016      4193
      4019      4020      4197      4019      4020      4023      4020      4023      4022
      4020      4023      4024      4020      4197      4202      4020      4197      4198
      4021      4022      4023      4021      4026      4025      4021      4026      4027
      4022      4021      4026      4022      4023      4024      4023      4020      4197
      4023      4024      4201      4023      4024      4027      4024      4027      4026
      4024      4027      4028      4024      4201      4202      4024      4201      4206
      4025      4026      4027      4025      4030      4029      4025      4030      4031
      4026      4025      4030      4026      4027      4028      4027      4024      4201
      4027      4028      4205      4027      4028      4031      4028      4031      4030
      4028      4031      4032      4028      4205      4206      4028      4205      4210
      4029      4030      4031      4029      4034      4033      4029      4034      4035
      4030      4029      4034      4030      4031      4032      4031      4028      4205
      4031      4032      4209      4031      4032      4035      4032      4035      4034
      4032      4035      4036      4032      4209      4214      4032      4209      4210
      4033      4034      4035      4033      4038      4037      4033      4038      4039
      4034      4033      4038      4034      4035      4036      4035      4032      4209
      4035      4036      4039      4035      4036      4213      4036      4039      4038
      4036      4039      4040      4036      4213      4214      4036      4213      4218
      4037      4038      4039      4037      4042      4041      4037      4042      4043
      4038      4037      4042      4038      4039      4040      4039      4036      4213
      4039      4040      4217      4039      4040      4043      4040      4043      4042
      4040      4043      4044      4040      4217      4218      4040      4217      4222
      4041      4042      4043      4041      4046      4045      4041      4046      4047
      4042      4041      4046      4042      4043      4044      4043      4040      4217
      4043      4044      4221      4043      4044      4047      4044      4047      4046
      4044      4047      4048      4044      4221      4222      4044      4221      4226
      4045      4046      4047      4045      4050      4049      4045      4050      4051
      4046      4045      4050      4046      4047      4048      4047      4044      4221
      4047      4048      4225      4047      4048      4051      4048      4051      4050
      4048      4051      4052      4048      4225      4226      4048      4225      4230
      4049      4050      4051      4049      4054      4053      4049      4054      4055
      4050      4049      4054      4050      4051      4052      4051      4048      4225
      4051      4052      4055      4051      4052      4229      4052      4055      4054
      4052      4055      4056      4052      4229      4230      4052      4229      4234
      4053      4054      4055      4053      4058      4057      4053      4058      4059
      4054      4053      4058      4054      4055      4056      4055      4052      4229
      4055      4056      4059      4055      4056      4233      4056      4059      4058
      4056      4059      4060      4056      4233      4234      4056      4233      4238
      4057      4058      4059      4057      4062      4061      4057      4062      4063
      4058      4057      4062      4058      4059      4060      4059      4056      4233
      4059      4060      4237      4059      4060      4063      4060      4063      4062
      4060      4063      4064      4060      4237      4242      4060      4237      4238
      4061      4062      4063      4061      4066      4065      4061      4066      4067
      4062      4061      4066      4062      4063      4064      4063      4060      4237
      4063      4064      4241      4063      4064      4067      4064      4067      4066
      4064      4067      4068      4064      4241      4242      4064      4241      4246
      4065      4066      4067      4065      4070      4069      4065      4070      4071
      4066      4065      4070      4066      4067      4068      4067      4064      4241
      4067      4068      4245      4067      4068      4071      4068      4071      4070
      4068      4071      4072      4068      4245      4246      4068      4245      4250
      4069      4070      4071      4069      4074      4073      4069      4074      4075
      4070      4069      4074      4070      4071      4072      4071      4068      4245
      4071      4072      4075      4071      4072      4249      4072      4075      4074
      4072      4075      4076      4072      4249      4254      4072      4249      4250
      4073      4074      4075      4073      4078      4077      4073      4078      4079
      4074      4073      4078      4074      4075      4076      4075      4072      4249
      4075      4076      4079      4075      4076      4253      4076      4079      4078
      4076      4079      4080      4076      4253      4258      4076      4253      4254
      4077      4078      4079      4077      4082      4081      4077      4082      4083
      4078      4077      4082      4078      4079      4080      4079      4076      4253
      4079      4080      4257      4079      4080      4083      4080      4083      4082
      4080      4083      4084      4080      4257      4262      4080      4257      4258
      4081      4082      4083      4081      4086      4085      4081      4086      4087
      4082      4081      4086      4082      4083      4084      4083      4080      4257
      4083      4084      4261      4083      4084      4087      4084      4087      4086
      4084      4087      4088      4084      4261      4262      4084      4261      4266
      4085      4086      4087      4085      4090      4089      4085      4090      4091
      4086      4085      4090      4086      4087      4088      4087      4084      4261
      4087      4088      4265      4087      4088      4091      4088      4091      4090
      4088      4091      4092      4088      4265      4266      4088      4265      4270
      4089      4090      4091      4089      4094      4093      4089      4094      4095
      4090      4089      4094      4090      4091      4092      4091      4088      4265
      4091      4092      4269      4091      4092      4095      4092      4095      4094
      4092      4095      4096      4092      4269      4274      4092      4269      4270
      4093      4094      4095      4093      4098      4097      4093      4098      4099
      4094      4093      4098      4094      4095      4096      4095      4092      4269
      4095      4096      4273      4095      4096      4099      4096      4099      4098
      4096      4099      4100      4096      4273      4278      4096      4273      4274
      4097      4098      4099      4097      4102      4101      4097      4102      4103
      4098      4097      4102      4098      4099      4100      4099      4096      4273
      4099      4100      4277      4099      4100      4103      4100      4103      4102
      4100      4103      4104      4100      4277      4282      4100      4277      4278
      4101      4102      4103      4101      4106      4105      4101      4106      4107
      4102      4101      4106      4102      4103      4104      4103      4100      4277
      4103      4104      4281      4103      4104      4107      4104      4107      4106
      4104      4107      4108      4104      4281      4282      4104      4281      4286
      4105      4106      4107      4105      4110      4109      4105      4110      4111
      4106      4105      4110      4106      4107      4108      4107      4104      4281
      4107      4108      4285      4107      4108      4111      4108      4111      4110
      4108      4111      4112      4108      4285      4286      4108      4285      4290
      4109      4110      4111      4109      4114      4113      4109      4114      4115
      4110      4109      4114      4110      4111      4112      4111      4108      4285
      4111      4112      4115      4111      4112      4289      4112      4115      4114
      4112      4115      4116      4112      4289      4290      4112      4289      4294
      4113      4114      4115      4113      4118      4117      4113      4118      4119
      4114      4113      4118      4114      4115      4116      4115      4112      4289
      4115      4116      4119      4115      4116      4293      4116      4119      4118
      4116      4119      4120      4116      4293      4294      4116      4293      4298
      4117      4118      4119      4117      4122      4121      4117      4122      4123
      4118      4117      4122      4118      4119      4120      4119      4116      4293
      4119      4120      4297      4119      4120      4123      4120      4123      4122
      4120      4123      4124      4120      4297      4298      4120      4297      4302
      4121      4122      4123      4121      4126      4125      4121      4126      4127
      4122      4121      4126      4122      4123      4124      4123      4120      4297
      4123      4124      4301      4123      4124      4127      4124      4127      4126
      4124      4127      4128      4124      4301      4302      4124      4301      4306
      4125      4126      4127      4125      4130      4129      4125      4130      4131
      4126      4125      4130      4126      4127      4128      4127      4124      4301
      4127      4128      4305      4127      4128      4131      4128      4131      4130
      4128      4131      4132      4128      4305      4306      4128      4305      4310
      4129      4130      4131      4129      4134      4133      4129      4134      4135
      4130      4129      4134      4130      4131      4132      4131      4128      4305
      4131      4132      4135      4131      4132      4309      4132      4135      4134
      4132      4135      4136      4132      4309      4314      4132      4309      4310
      4133      4134      4135      4133      4138      4137      4133      4138      4139
      4134      4133      4138      4134      4135      4136      4135      4132      4309
      4135      4136      4139      4135      4136      4313      4136      4139      4138
      4136      4139      4140      4136      4313      4318      4136      4313      4314
      4137      4138      4139      4138      4139      4140      4139      4136      4313
      4139      4140      4317      4140      4317      4318      4141      4142      4143
      4141      4146      4145      4141      4146      4147      4142      4141      4146
      4142      4143      4144      4143      4144      4321      4143      4144      4147
      4144      4147      4146      4144      4147      4148      4144      4321      4322
      4144      4321      4326      4145      4146      4147      4145      4150      4149
      4145      4150      4151      4146      4145      4150      4146      4147      4148
      4147      4144      4321      4147      4148      4325      4147      4148      4151
      4148      4151      4150      4148      4151      4152      4148      4325      4326
      4148      4325      4330      4149      4150      4151      4149      4154      4153
      4149      4154      4155      4150      4149      4154      4150      4151      4152
      4151      4148      4325      4151      4152      4155      4151      4152      4329
      4152      4155      4154      4152      4155      4156      4152      4329      4334
      4152      4329      4330      4153      4154      4155      4153      4158      4157
      4153      4158      4159      4154      4153      4158      4154      4155      4156
      4155      4152      4329      4155      4156      4159      4155      4156      4333
      4156      4159      4158      4156      4159      4160      4156      4333      4338
      4156      4333      4334      4157      4158      4159      4157      4162      4161
      4157      4162      4163      4158      4157      4162      4158      4159      4160
      4159      4156      4333      4159      4160      4337      4159      4160      4163
      4160      4163      4162      4160      4163      4164      4160      4337      4342
      4160      4337      4338      4161      4162      4163      4161      4166      4165
      4161      4166      4167      4162      4161      4166      4162      4163      4164
      4163      4160      4337      4163      4164      4341      4163      4164      4167
      4164      4167      4166      4164      4167      4168      4164      4341      4342
      4164      4341      4346      4165      4166      4167      4165      4170      4169
      4165      4170      4171      4166      4165      4170      4166      4167      4168
      4167      4164      4341      4167      4168      4345      4167      4168      4171
      4168      4171      4170      4168      4171      4172      4168      4345      4346
      4168      4345      4350      4169      4170      4171      4169      4174      4173
      4169      4174      4175      4170      4169      4174      4170      4171      4172
      4171      4168      4345      4171      4172      4349      4171      4172      4175
      4172      4175      4174      4172      4175      4176      4172      4349      4354
      4172      4349      4350      4173      4174      4175      4173      4178      4177
      4173      4178      4179      4174      4173      4178      4174      4175      4176
      4175      4172      4349      4175      4176      4353      4175      4176      4179
      4176      4179      4178      4176      4179      4180      4176      4353      4358
      4176      4353      4354      4177      4178      4179      4177      4182      4181
      4177      4182      4183      4178      4177      4182      4178      4179      4180
      4179      4176      4353      4179      4180      4357      4179      4180      4183
      4180      4183      4182      4180      4183      4184      4180      4357      4362
      4180      4357      4358      4181      4182      4183      4181      4186      4185
      4181      4186      4187      4182      4181      4186      4182      4183      4184
      4183      4180      4357      4183      4184      4361      4183      4184      4187
      4184      4187      4186      4184      4187      4188      4184      4361      4362
      4184      4361      4366      4185      4186      4187      4185      4190      4189
      4185      4190      4191      4186      4185      4190      4186      4187      4188
      4187      4184      4361      4187      4188      4365      4187      4188      4191
      4188      4191      4190      4188      4191      4192      4188      4365      4366
      4188      4365      4370      4189      4190      4191      4189      4194      4193
      4189      4194      4195      4190      4189      4194      4190      4191      4192
      4191      4188      4365      4191      4192      4195      4191      4192      4369
      4192      4195      4194      4192      4195      4196      4192      4369      4374
      4192      4369      4370      4193      4194      4195      4193      4198      4197
      4193      4198      4199      4194      4193      4198      4194      4195      4196
      4195      4192      4369      4195      4196      4199      4195      4196      4373
      4196      4199      4198      4196      4199      4200      4196      4373      4378
      4196      4373      4374      4197      4198      4199      4197      4202      4201
      4197      4202      4203      4198      4197      4202      4198      4199      4200
      4199      4196      4373      4199      4200      4377      4199      4200      4203
      4200      4203      4202      4200      4203      4204      4200      4377      4382
      4200      4377      4378      4201      4202      4203      4201      4206      4205
      4201      4206      4207      4202      4201      4206      4202      4203      4204
      4203      4200      4377      4203      4204      4381      4203      4204      4207
      4204      4207      4206      4204      4207      4208      4204      4381      4382
      4204      4381      4386      4205      4206      4207      4205      4210      4209
      4205      4210      4211      4206      4205      4210      4206      4207      4208
      4207      4204      4381      4207      4208      4385      4207      4208      4211
      4208      4211      4210      4208      4211      4212      4208      4385      4386
      4208      4385      4390      4209      4210      4211      4209      4214      4213
      4209      4214      4215      4210      4209      4214      4210      4211      4212
      4211      4208      4385      4211      4212      4215      4211      4212      4389
      4212      4215      4214      4212      4215      4216      4212      4389      4394
      4212      4389      4390      4213      4214      4215      4213      4218      4217
      4213      4218      4219      4214      4213      4218      4214      4215      4216
      4215      4212      4389      4215      4216      4219      4215      4216      4393
      4216      4219      4218      4216      4219      4220      4216      4393      4398
      4216      4393      4394      4217      4218      4219      4217      4222      4221
      4217      4222      4223      4218      4217      4222      4218      4219      4220
      4219      4216      4393      4219      4220      4397      4219      4220      4223
      4220      4223      4222      4220      4223      4224      4220      4397      4402
      4220      4397      4398      4221      4222      4223      4221      4226      4225
      4221      4226      4227      4222      4221      4226      4222      4223      4224
      4223      4220      4397      4223      4224      4401      4223      4224      4227
      4224      4227      4226      4224      4227      4228      4224      4401      4402
      4224      4401      4406      4225      4226      4227      4225      4230      4229
      4225      4230      4231      4226      4225      4230      4226      4227      4228
      4227      4224      4401      4227      4228      4405      4227      4228      4231
      4228      4231      4230      4228      4231      4232      4228      4405      4406
      4228      4405      4410      4229      4230      4231      4229      4234      4233
      4229      4234      4235      4230      4229      4234      4230      4231      4232
      4231      4228      4405      4231      4232      4235      4231      4232      4409
      4232      4235      4234      4232      4235      4236      4232      4409      4414
      4232      4409      4410      4233      4234      4235      4233      4238      4237
      4233      4238      4239      4234      4233      4238      4234      4235      4236
      4235      4232      4409      4235      4236      4413      4235      4236      4239
      4236      4239      4238      4236      4239      4240      4236      4413      4418
      4236      4413      4414      4237      4238      4239      4237      4242      4241
      4237      4242      4243      4238      4237      4242      4238      4239      4240
      4239      4236      4413      4239      4240      4417      4239      4240      4243
      4240      4243      4242      4240      4243      4244      4240      4417      4422
      4240      4417      4418      4241      4242      4243      4241      4246      4245
      4241      4246      4247      4242      4241      4246      4242      4243      4244
      4243      4240      4417      4243      4244      4421      4243      4244      4247
      4244      4247      4246      4244      4247      4248      4244      4421      4422
      4244      4421      4426      4245      4246      4247      4245      4250      4249
      4245      4250      4251      4246      4245      4250      4246      4247      4248
      4247      4244      4421      4247      4248      4425      4247      4248      4251
      4248      4251      4250      4248      4251      4252      4248      4425      4426
      4248      4425      4430      4249      4250      4251      4249      4254      4253
      4249      4254      4255      4250      4249      4254      4250      4251      4252
      4251      4248      4425      4251      4252      4429      4251      4252      4255
      4252      4255      4254      4252      4255      4256      4252      4429      4434
      4252      4429      4430      4253      4254      4255      4253      4258      4257
      4253      4258      4259      4254      4253      4258      4254      4255      4256
      4255      4252      4429      4255      4256      4259      4255      4256      4433
      4256      4259      4258      4256      4259      4260      4256      4433      4438
      4256      4433      4434      4257      4258      4259      4257      4262      4261
      4257      4262      4263      4258      4257      4262      4258      4259      4260
      4259      4256      4433      4259      4260      4437      4259      4260      4263
      4260      4263      4262      4260      4263      4264      4260      4437      4442
      4260      4437      4438      4261      4262      4263      4261      4266      4265
      4261      4266      4267      4262      4261      4266      4262      4263      4264
      4263      4260      4437      4263      4264      4441      4263      4264      4267
      4264      4267      4266      4264      4267      4268      4264      4441      4442
      4264      4441      4446      4265      4266      4267      4265      4270      4269
      4265      4270      4271      4266      4265      4270      4266      4267      4268
      4267      4264      4441      4267      4268      4445      4267      4268      4271
      4268      4271      4270      4268      4271      4272      4268      4445      4446
      4268      4445      4450      4269      4270      4271      4269      4274      4273
      4269      4274      4275      4270      4269      4274      4270      4271      4272
      4271      4268      4445      4271      4272      4275      4271      4272      4449
      4272      4275      4274      4272      4275      4276      4272      4449      4454
      4272      4449      4450      4273      4274      4275      4273      4278      4277
      4273      4278      4279      4274      4273      4278      4274      4275      4276
      4275      4272      4449      4275      4276      4279      4275      4276      4453
      4276      4279      4278      4276      4279      4280      4276      4453      4454
      4276      4453      4458      4277      4278      4279      4277      4282      4281
      4277      4282      4283      4278      4277      4282      4278      4279      4280
      4279      4276      4453      4279      4280      4457      4279      4280      4283
      4280      4283      4282      4280      4283      4284      4280      4457      4462
      4280      4457      4458      4281      4282      4283      4281      4286      4285
      4281      4286      4287      4282      4281      4286      4282      4283      4284
      4283      4280      4457      4283      4284      4461      4283      4284      4287
      4284      4287      4286      4284      4287      4288      4284      4461      4462
      4284      4461      4466      4285      4286      4287      4285      4290      4289
      4285      4290      4291      4286      4285      4290      4286      4287      4288
      4287      4284      4461      4287      4288      4465      4287      4288      4291
      4288      4291      4290      4288      4291      4292      4288      4465      4466
      4288      4465      4470      4289      4290      4291      4289      4294      4293
      4289      4294      4295      4290      4289      4294      4290      4291      4292
      4291      4288      4465      4291      4292      4295      4291      4292      4469
      4292      4295      4294      4292      4295      4296      4292      4469      4474
      4292      4469      4470      4293      4294      4295      4293      4298      4297
      4293      4298      4299      4294      4293      4298      4294      4295      4296
      4295      4292      4469      4295      4296      4299      4295      4296      4473
      4296      4299      4298      4296      4299      4300      4296      4473      4478
      4296      4473      4474      4297      4298      4299      4297      4302      4301
      4297      4302      4303      4298      4297      4302      4298      4299      4300
      4299      4296      4473      4299      4300      4477      4299      4300      4303
      4300      4303      4302      4300      4303      4304      4300      4477      4482
      4300      4477      4478      4301      4302      4303      4301      4306      4305
      4301      4306      4307      4302      4301      4306      4302      4303      4304
      4303      4300      4477      4303      4304      4481      4303      4304      4307
      4304      4307      4306      4304      4307      4308      4304      4481      4482
      4304      4481      4486      4305      4306      4307      4305      4310      4309
      4305      4310      4311      4306      4305      4310      4306      4307      4308
      4307      4304      4481      4307      4308      4485      4307      4308      4311
      4308      4311      4310      4308      4311      4312      4308      4485      4486
      4308      4485      4490      4309      4310      4311      4309      4314      4313
      4309      4314      4315      4310      4309      4314      4310      4311      4312
      4311      4308      4485      4311      4312      4489      4311      4312      4315
      4312      4315      4314      4312      4315      4316      4312      4489      4494
      4312      4489      4490      4313      4314      4315      4313      4318      4317
      4313      4318      4319      4314      4313      4318      4314      4315      4316
      4315      4312      4489      4315      4316      4493      4315      4316      4319
      4316      4319      4318      4316      4319      4320      4316      4493      4498
      4316      4493      4494      4317      4318      4319      4318      4319      4320
      4319      4316      4493      4319      4320      4497      4320      4497      4498
      4321      4322      4323      4321      4326      4325      4321      4326      4327
      4322      4321      4326      4322      4323      4324      4323      4324      4327
      4323      4324      4501      4324      4327      4326      4324      4327      4328
      4324      4501      4502      4324      4501      4506      4325      4326      4327
      4325      4330      4329      4325      4330      4331      4326      4325      4330
      4326      4327      4328      4327      4324      4501      4327      4328      4331
      4327      4328      4505      4328      4331      4330      4328      4331      4332
      4328      4505      4506      4328      4505      4510      4329      4330      4331
      4329      4334      4333      4329      4334      4335      4330      4329      4334
      4330      4331      4332      4331      4328      4505      4331      4332      4335
      4331      4332      4509      4332      4335      4334      4332      4335      4336
      4332      4509      4514      4332      4509      4510      4333      4334      4335
      4333      4338      4337      4333      4338      4339      4334      4333      4338
      4334      4335      4336      4335      4332      4509      4335      4336      4339
      4335      4336      4513      4336      4339      4338      4336      4339      4340
      4336      4513      4518      4336      4513      4514      4337      4338      4339
      4337      4342      4341      4337      4342      4343      4338      4337      4342
      4338      4339      4340      4339      4336      4513      4339      4340      4343
      4339      4340      4517      4340      4343      4342      4340      4343      4344
      4340      4517      4522      4340      4517      4518      4341      4342      4343
      4341      4346      4345      4341      4346      4347      4342      4341      4346
      4342      4343      4344      4343      4340      4517      4343      4344      4347
      4343      4344      4521      4344      4347      4346      4344      4347      4348
      4344      4521      4522      4344      4521      4526      4345      4346      4347
      4345      4350      4349      4345      4350      4351      4346      4345      4350
      4346      4347      4348      4347      4344      4521      4347      4348      4351
      4347      4348      4525      4348      4351      4350      4348      4351      4352
      4348      4525      4526      4348      4525      4530      4349      4350      4351
      4349      4354      4353      4349      4354      4355      4350      4349      4354
      4350      4351      4352      4351      4348      4525      4351      4352      4355
      4351      4352      4529      4352      4355      4354      4352      4355      4356
      4352      4529      4534      4352      4529      4530      4353      4354      4355
      4353      4358      4357      4353      4358      4359      4354      4353      4358
      4354      4355      4356      4355      4352      4529      4355      4356      4359
      4355      4356      4533      4356      4359      4358      4356      4359      4360
      4356      4533      4538      4356      4533      4534      4357      4358      4359
      4357      4362      4361      4357      4362      4363      4358      4357      4362
      4358      4359      4360      4359      4356      4533      4359      4360      4363
      4359      4360      4537      4360      4363      4362      4360      4363      4364
      4360      4537      4542      4360      4537      4538      4361      4362      4363
      4361      4366      4365      4361      4366      4367      4362      4361      4366
      4362      4363      4364      4363      4360      4537      4363      4364      4367
      4363      4364      4541      4364      4367      4366      4364      4367      4368
      4364      4541      4542      4364      4541      4546      4365      4366      4367
      4365      4370      4369      4365      4370      4371      4366      4365      4370
      4366      4367      4368      4367      4364      4541      4367      4368      4371
      4367      4368      4545      4368      4371      4370      4368      4371      4372
      4368      4545      4546      4368      4545      4550      4369      4370      4371
      4369      4374      4373      4369      4374      4375      4370      4369      4374
      4370      4371      4372      4371      4368      4545      4371      4372      4375
      4371      4372      4549      4372      4375      4374      4372      4375      4376
      4372      4549      4554      4372      4549      4550      4373      4374      4375
      4373      4378      4377      4373      4378      4379      4374      4373      4378
      4374      4375      4376      4375      4372      4549      4375      4376      4379
      4375      4376      4553      4376      4379      4378      4376      4379      4380
      4376      4553      4558      4376      4553      4554      4377      4378      4379
      4377      4382      4381      4377      4382      4383      4378      4377      4382
      4378      4379      4380      4379      4376      4553      4379      4380      4383
      4379      4380      4557      4380      4383      4382      4380      4383      4384
      4380      4557      4562      4380      4557      4558      4381      4382      4383
      4381      4386      4385      4381      4386      4387      4382      4381      4386
      4382      4383      4384      4383      4380      4557      4383      4384      4387
      4383      4384      4561      4384      4387      4386      4384      4387      4388
      4384      4561      4562      4384      4561      4566      4385      4386      4387
      4385      4390      4389      4385      4390      4391      4386      4385      4390
      4386      4387      4388      4387      4384      4561      4387      4388      4391
      4387      4388      4565      4388      4391      4390      4388      4391      4392
      4388      4565      4566      4388      4565      4570      4389      4390      4391
      4389      4394      4393      4389      4394      4395      4390      4389      4394
      4390      4391      4392      4391      4388      4565      4391      4392      4395
      4391      4392      4569      4392      4395      4394      4392      4395      4396
      4392      4569      4574      4392      4569      4570      4393      4394      4395
      4393      4398      4397      4393      4398      4399      4394      4393      4398
      4394      4395      4396      4395      4392      4569      4395      4396      4399
      4395      4396      4573      4396      4399      4398      4396      4399      4400
      4396      4573      4578      4396      4573      4574      4397      4398      4399
      4397      4402      4401      4397      4402      4403      4398      4397      4402
      4398      4399      4400      4399      4396      4573      4399      4400      4403
      4399      4400      4577      4400      4403      4402      4400      4403      4404
      4400      4577      4582      4400      4577      4578      4401      4402      4403
      4401      4406      4405      4401      4406      4407      4402      4401      4406
      4402      4403      4404      4403      4400      4577      4403      4404      4407
      4403      4404      4581      4404      4407      4406      4404      4407      4408
      4404      4581      4582      4404      4581      4586      4405      4406      4407
      4405      4410      4409      4405      4410      4411      4406      4405      4410
      4406      4407      4408      4407      4404      4581      4407      4408      4411
      4407      4408      4585      4408      4411      4410      4408      4411      4412
      4408      4585      4586      4408      4585      4590      4409      4410      4411
      4409      4414      4413      4409      4414      4415      4410      4409      4414
      4410      4411      4412      4411      4408      4585      4411      4412      4415
      4411      4412      4589      4412      4415      4414      4412      4415      4416
      4412      4589      4594      4412      4589      4590      4413      4414      4415
      4413      4418      4417      4413      4418      4419      4414      4413      4418
      4414      4415      4416      4415      4412      4589      4415      4416      4419
      4415      4416      4593      4416      4419      4418      4416      4419      4420
      4416      4593      4598      4416      4593      4594      4417      4418      4419
      4417      4422      4421      4417      4422      4423      4418      4417      4422
      4418      4419      4420      4419      4416      4593      4419      4420      4423
      4419      4420      4597      4420      4423      4422      4420      4423      4424
      4420      4597      4602      4420      4597      4598      4421      4422      4423
      4421      4426      4425      4421      4426      4427      4422      4421      4426
      4422      4423      4424      4423      4420      4597      4423      4424      4427
      4423      4424      4601      4424      4427      4426      4424      4427      4428
      4424      4601      4602      4424      4601      4606      4425      4426      4427
      4425      4430      4429      4425      4430      4431      4426      4425      4430
      4426      4427      4428      4427      4424      4601      4427      4428      4431
      4427      4428      4605      4428      4431      4430      4428      4431      4432
      4428      4605      4606      4428      4605      4610      4429      4430      4431
      4429      4434      4433      4429      4434      4435      4430      4429      4434
      4430      4431      4432      4431      4428      4605      4431      4432      4435
      4431      4432      4609      4432      4435      4434      4432      4435      4436
      4432      4609      4614      4432      4609      4610      4433      4434      4435
      4433      4438      4437      4433      4438      4439      4434      4433      4438
      4434      4435      4436      4435      4432      4609      4435      4436      4439
      4435      4436      4613      4436      4439      4438      4436      4439      4440
      4436      4613      4618      4436      4613      4614      4437      4438      4439
      4437      4442      4441      4437      4442      4443      4438      4437      4442
      4438      4439      4440      4439      4436      4613      4439      4440      4443
      4439      4440      4617      4440      4443      4442      4440      4443      4444
      4440      4617      4622      4440      4617      4618      4441      4442      4443
      4441      4446      4445      4441      4446      4447      4442      4441      4446
      4442      4443      4444      4443      4440      4617      4443      4444      4447
      4443      4444      4621      4444      4447      4446      4444      4447      4448
      4444      4621      4622      4444      4621      4626      4445      4446      4447
      4445      4450      4449      4445      4450      4451      4446      4445      4450
      4446      4447      4448      4447      4444      4621      4447      4448      4451
      4447      4448      4625      4448      4451      4450      4448      4451      4452
      4448      4625      4626      4448      4625      4630      4449      4450      4451
      4449      4454      4453      4449      4454      4455      4450      4449      4454
      4450      4451      4452      4451      4448      4625      4451      4452      4455
      4451      4452      4629      4452      4455      4454      4452      4455      4456
      4452      4629      4634      4452      4629      4630      4453      4454      4455
      4453      4458      4457      4453      4458      4459      4454      4453      4458
      4454      4455      4456      4455      4452      4629      4455      4456      4459
      4455      4456      4633      4456      4459      4458      4456      4459      4460
      4456      4633      4638      4456      4633      4634      4457      4458      4459
      4457      4462      4461      4457      4462      4463      4458      4457      4462
      4458      4459      4460      4459      4456      4633      4459      4460      4463
      4459      4460      4637      4460      4463      4462      4460      4463      4464
      4460      4637      4642      4460      4637      4638      4461      4462      4463
      4461      4466      4465      4461      4466      4467      4462      4461      4466
      4462      4463      4464      4463      4460      4637      4463      4464      4467
      4463      4464      4641      4464      4467      4466      4464      4467      4468
      4464      4641      4642      4464      4641      4646      4465      4466      4467
      4465      4470      4469      4465      4470      4471      4466      4465      4470
      4466      4467      4468      4467      4464      4641      4467      4468      4471
      4467      4468      4645      4468      4471      4470      4468      4471      4472
      4468      4645      4646      4468      4645      4650      4469      4470      4471
      4469      4474      4473      4469      4474      4475      4470      4469      4474
      4470      4471      4472      4471      4468      4645      4471      4472      4475
      4471      4472      4649      4472      4475      4474      4472      4475      4476
      4472      4649      4654      4472      4649      4650      4473      4474      4475
      4473      4478      4477      4473      4478      4479      4474      4473      4478
      4474      4475      4476      4475      4472      4649      4475      4476      4479
      4475      4476      4653      4476      4479      4478      4476      4479      4480
      4476      4653      4658      4476      4653      4654      4477      4478      4479
      4477      4482      4481      4477      4482      4483      4478      4477      4482
      4478      4479      4480      4479      4476      4653      4479      4480      4483
      4479      4480      4657      4480      4483      4482      4480      4483      4484
      4480      4657      4662      4480      4657      4658      4481      4482      4483
      4481      4486      4485      4481      4486      4487      4482      4481      4486
      4482      4483      4484      4483      4480      4657      4483      4484      4487
      4483      4484      4661      4484      4487      4486      4484      4487      4488
      4484      4661      4662      4484      4661      4666      4485      4486      4487
      4485      4490      4489      4485      4490      4491      4486      4485      4490
      4486      4487      4488      4487      4484      4661      4487      4488      4491
      4487      4488      4665      4488      4491      4490      4488      4491      4492
      4488      4665      4666      4488      4665      4670      4489      4490      4491
      4489      4494      4493      4489      4494      4495      4490      4489      4494
      4490      4491      4492      4491      4488      4665      4491      4492      4495
      4491      4492      4669      4492      4495      4494      4492      4495      4496
      4492      4669      4674      4492      4669      4670      4493      4494      4495
      4493      4498      4497      4493      4498      4499      4494      4493      4498
      4494      4495      4496      4495      4492      4669      4495      4496      4499
      4495      4496      4673      4496      4499      4498      4496      4499      4500
      4496      4673      4674      4496      4673      4678      4497      4498      4499
      4498      4499      4500      4499      4496      4673      4499      4500      4677
      4500      4677      4678      4501      4502      4503      4501      4506      4505
      4501      4506      4507      4502      4501      4506      4502      4503      4504
      4503      4504      4507      4504      4507      4506      4504      4507      4508
      4505      4506      4507      4505      4510      4509      4505      4510      4511
      4506      4505      4510      4506      4507      4508      4507      4508      4511
      4508      4511      4510      4508      4511      4512      4509      4510      4511
      4509      4514      4513      4509      4514      4515      4510      4509      4514
      4510      4511      4512      4511      4512      4515      4512      4515      4514
      4512      4515      4516      4513      4514      4515      4513      4518      4517
      4513      4518      4519      4514      4513      4518      4514      4515      4516
      4515      4516      4519      4516      4519      4518      4516      4519      4520
      4517      4518      4519      4517      4522      4521      4517      4522      4523
      4518      4517      4522      4518      4519      4520      4519      4520      4523
      4520      4523      4522      4520      4523      4524      4521      4522      4523
      4521      4526      4525      4521      4526      4527      4522      4521      4526
      4522      4523      4524      4523      4524      4527      4524      4527      4526
      4524      4527      4528      4525      4526      4527      4525      4530      4529
      4525      4530      4531      4526      4525      4530      4526      4527      4528
      4527      4528      4531      4528      4531      4530      4528      4531      4532
      4529      4530      4531      4529      4534      4533      4529      4534      4535
      4530      4529      4534      4530      4531      4532      4531      4532      4535
      4532      4535      4534      4532      4535      4536      4533      4534      4535
      4533      4538      4537      4533      4538      4539      4534      4533      4538
      4534      4535      4536      4535      4536      4539      4536      4539      4538
      4536      4539      4540      4537      4538      4539      4537      4542      4541
      4537      4542      4543      4538      4537      4542      4538      4539      4540
      4539      4540      4543      4540      4543      4542      4540      4543      4544
      4541      4542      4543      4541      4546      4545      4541      4546      4547
      4542      4541      4546      4542      4543      4544      4543      4544      4547
      4544      4547      4546      4544      4547      4548      4545      4546      4547
      4545      4550      4549      4545      4550      4551      4546      4545      4550
      4546      4547      4548      4547      4548      4551      4548      4551      4550
      4548      4551      4552      4549      4550      4551      4549      4554      4553
      4549      4554      4555      4550      4549      4554      4550      4551      4552
      4551      4552      4555      4552      4555      4554      4552      4555      4556
      4553      4554      4555      4553      4558      4557      4553      4558      4559
      4554      4553      4558      4554      4555      4556      4555      4556      4559
      4556      4559      4558      4556      4559      4560      4557      4558      4559
      4557      4562      4561      4557      4562      4563      4558      4557      4562
      4558      4559      4560      4559      4560      4563      4560      4563      4562
      4560      4563      4564      4561      4562      4563      4561      4566      4565
      4561      4566      4567      4562      4561      4566      4562      4563      4564
      4563      4564      4567      4564      4567      4566      4564      4567      4568
      4565      4566      4567      4565      4570      4569      4565      4570      4571
      4566      4565      4570      4566      4567      4568      4567      4568      4571
      4568      4571      4570      4568      4571      4572      4569      4570      4571
      4569      4574      4573      4569      4574      4575      4570      4569      4574
      4570      4571      4572      4571      4572      4575      4572      4575      4574
      4572      4575      4576      4573      4574      4575      4573      4578      4577
      4573      4578      4579      4574      4573      4578      4574      4575      4576
      4575      4576      4579      4576      4579      4578      4576      4579      4580
      4577      4578      4579      4577      4582      4581      4577      4582      4583
      4578      4577      4582      4578      4579      4580      4579      4580      4583
      4580      4583      4582      4580      4583      4584      4581      4582      4583
      4581      4586      4585      4581      4586      4587      4582      4581      4586
      4582      4583      4584      4583      4584      4587      4584      4587      4586
      4584      4587      4588      4585      4586      4587      4585      4590      4589
      4585      4590      4591      4586      4585      4590      4586      4587      4588
      4587      4588      4591      4588      4591      4590      4588      4591      4592
      4589      4590      4591      4589      4594      4593      4589      4594      4595
      4590      4589      4594      4590      4591      4592      4591      4592      4595
      4592      4595      4594      4592      4595      4596      4593      4594      4595
      4593      4598      4597      4593      4598      4599      4594      4593      4598
      4594      4595      4596      4595      4596      4599      4596      4599      4598
      4596      4599      4600      4597      4598      4599      4597      4602      4601
      4597      4602      4603      4598      4597      4602      4598      4599      4600
      4599      4600      4603      4600      4603      4602      4600      4603      4604
      4601      4602      4603      4601      4606      4605      4601      4606      4607
      4602      4601      4606      4602      4603      4604      4603      4604      4607
      4604      4607      4606      4604      4607      4608      4605      4606      4607
      4605      4610      4609      4605      4610      4611      4606      4605      4610
      4606      4607      4608      4607      4608      4611      4608      4611      4610
      4608      4611      4612      4609      4610      4611      4609      4614      4613
      4609      4614      4615      4610      4609      4614      4610      4611      4612
      4611      4612      4615      4612      4615      4614      4612      4615      4616
      4613      4614      4615      4613      4618      4617      4613      4618      4619
      4614      4613      4618      4614      4615      4616      4615      4616      4619
      4616      4619      4618      4616      4619      4620      4617      4618      4619
      4617      4622      4621      4617      4622      4623      4618      4617      4622
      4618      4619      4620      4619      4620      4623      4620      4623      4622
      4620      4623      4624      4621      4622      4623      4621      4626      4625
      4621      4626      4627      4622      4621      4626      4622      4623      4624
      4623      4624      4627      4624      4627      4626      4624      4627      4628
      4625      4626      4627      4625      4630      4629      4625      4630      4631
      4626      4625      4630      4626      4627      4628      4627      4628      4631
      4628      4631      4630      4628      4631      4632      4629      4630      4631
      4629      4634      4633      4629      4634      4635      4630      4629      4634
      4630      4631      4632      4631      4632      4635      4632      4635      4634
      4632      4635      4636      4633      4634      4635      4633      4638      4637
      4633      4638      4639      4634      4633      4638      4634      4635      4636
      4635      4636      4639      4636      4639      4638      4636      4639      4640
      4637      4638      4639      4637      4642      4641      4637      4642      4643
      4638      4637      4642      4638      4639      4640      4639      4640      4643
      4640      4643      4642      4640      4643      4644      4641      4642      4643
      4641      4646      4645      4641      4646      4647      4642      4641      4646
      4642      4643      4644      4643      4644      4647      4644      4647      4646
      4644      4647      4648      4645      4646      4647      4645      4650      4649
      4645      4650      4651      4646      4645      4650      4646      4647      4648
      4647      4648      4651      4648      4651      4650      4648      4651      4652
      4649      4650      4651      4649      4654      4653      4649      4654      4655
      4650      4649      4654      4650      4651      4652      4651      4652      4655
      4652      4655      4654      4652      4655      4656      4653      4654      4655
      4653      4658      4657      4653      4658      4659      4654      4653      4658
      4654      4655      4656      4655      4656      4659      4656      4659      4658
      4656      4659      4660      4657      4658      4659      4657      4662      4661
      4657      4662      4663      4658      4657      4662      4658      4659      4660
      4659      4660      4663      4660      4663      4662      4660      4663      4664
      4661      4662      4663      4661      4666      4665      4661      4666      4667
      4662      4661      4666      4662      4663      4664      4663      4664      4667
      4664      4667      4666      4664      4667      4668      4665      4666      4667
      4665      4670      4669      4665      4670      4671      4666      4665      4670
      4666      4667      4668      4667      4668      4671      4668      4671      4670
      4668      4671      4672      4669      4670      4671      4669      4674      4673
      4669      4674      4675      4670      4669      4674      4670      4671      4672
      4671      4672      4675      4672      4675      4674      4672      4675      4676
      4673      4674      4675      4673      4678      4677      4673      4678      4679
      4674      4673      4678      4674      4675      4676      4675      4676      4679
      4676      4679      4678      4676      4679      4680      4677      4678      4679
      4678      4679      4680      4944      4948      4949      4945      4944      4947
      4945      4944      4946      4946      4944      4947      4948      4944      4947
      4948      4944      4946      4948      4944      4945      4950      4954      4955
      4951      4950      4953      4951      4950      4952      4952      4950      4953
      4954      4950      4953      4954      4950      4952      4954      4950      4951
      4956      4960      4961      4957      4956      4959      4957      4956      4958
      4958      4956      4959      4960      4956      4959      4960      4956      4958
      4960      4956      4957      4962      4966      4967      4963      4962      4965
      4963      4962      4964      4964      4962      4965      4966      4962      4965
      4966      4962      4964      4966      4962      4963      4968      4972      4973
      4969      4968      4971      4969      4968      4970      4970      4968      4971
      4972      4968      4971      4972      4968      4970      4972      4968      4969
      4974      4978      4979      4975      4974      4977      4975      4974      4976
      4976      4974      4977      4978      4974      4977      4978      4974      4976
      4978      4974      4975      4980      4984      4985      4981      4980      4983
      4981      4980      4982      4982      4980      4983      4984      4980      4983
      4984      4980      4982      4984      4980      4981      4986      4990      4991
      4987      4986      4989      4987      4986      4988      4988      4986      4989
      4990      4986      4989      4990      4986      4988      4990      4986      4987
      4992      4996      4997      4993      4992      4995      4993      4992      4994
      4994      4992      4995      4996      4992      4995      4996      4992      4994
      4996      4992      4993      4998      5002      5003      4999      4998      5001
      4999      4998      5000      5000      4998      5001      5002      4998      5001
      5002      4998      5000      5002      4998      4999      5004      5008      5009
      5005      5004      5007      5005      5004      5006      5006      5004      5007
      5008      5004      5007      5008      5004      5006      5008      5004      5005
      5010      5014      5015      5011      5010      5013      5011      5010      5012
      5012      5010      5013      5014      5010      5013      5014      5010      5012
      5014      5010      5011      5016      5020      5021      5017      5016      5019
      5017      5016      5018      5018      5016      5019      5020      5016      5019
      5020      5016      5018      5020      5016      5017      5022      5026      5027
      5023      5022      5025      5023      5022      5024      5024      5022      5025
      5026      5022      5025      5026      5022      5024      5026      5022      5023
      5028      5032      5033      5029      5028      5031      5029      5028      5030
      5030      5028      5031      5032      5028      5031      5032      5028      5030
      5032      5028      5029      5034      5038      5039      5035      5034      5037
      5035      5034      5036      5036      5034      5037      5038      5034      5037
      5038      5034      5036      5038      5034      5035      5040      5044      5045
      5041      5040      5043      5041      5040      5042      5042      5040      5043
      5044      5040      5043      5044      5040      5042      5044      5040      5041
      5046      5050      5051      5047      5046      5049      5047      5046      5048
      5048      5046      5049      5050      5046      5049      5050      5046      5048
      5050      5046      5047      5052      5056      5057      5053      5052      5055
      5053      5052      5054      5054      5052      5055      5056      5052      5055
      5056      5052      5054      5056      5052      5053      5058      5062      5063
      5059      5058      5061      5059      5058      5060      5060      5058      5061
      5062      5058      5061      5062      5058      5060      5062      5058      5059
      5064      5068      5069      5065      5064      5067      5065      5064      5066
      5066      5064      5067      5068      5064      5067      5068      5064      5066
      5068      5064      5065      5070      5074      5075      5071      5070      5073
      5071      5070      5072      5072      5070      5073      5074      5070      5073
      5074      5070      5072      5074      5070      5071      5076      5080      5081
      5077      5076      5079      5077      5076      5078      5078      5076      5079
      5080      5076      5079      5080      5076      5078      5080      5076      5077
      5082      5086      5087      5083      5082      5085      5083      5082      5084
      5084      5082      5085      5086      5082      5085      5086      5082      5084
      5086      5082      5083      5088      5092      5093      5089      5088      5091
      5089      5088      5090      5090      5088      5091      5092      5088      5091
      5092      5088      5090      5092      5088      5089      5094      5098      5099
      5095      5094      5097      5095      5094      5096      5096      5094      5097
      5098      5094      5097      5098      5094      5096      5098      5094      5095
      5100      5104      5105      5101      5100      5103      5101      5100      5102
      5102      5100      5103      5104      5100      5103      5104      5100      5102
      5104      5100      5101      5106      5110      5111      5107      5106      5109
      5107      5106      5108      5108      5106      5109      5110      5106      5109
      5110      5106      5108      5110      5106      5107      5112      5116      5117
      5113      5112      5115      5113      5112      5114      5114      5112      5115
      5116      5112      5115      5116      5112      5114      5116      5112      5113
      5118      5122      5123      5119      5118      5121      5119      5118      5120
      5120      5118      5121      5122      5118      5121      5122      5118      5120
      5122      5118      5119      5124      5128      5129      5125      5124      5127
      5125      5124      5126      5126      5124      5127      5128      5124      5127
      5128      5124      5126      5128      5124      5125      5130      5134      5135
      5131      5130      5133      5131      5130      5132      5132      5130      5133
      5134      5130      5133      5134      5130      5132      5134      5130      5131
      5136      5140      5141      5137      5136      5139      5137      5136      5138
      5138      5136      5139      5140      5136      5139      5140      5136      5138
      5140      5136      5137      5142      5146      5147      5143      5142      5145
      5143      5142      5144      5144      5142      5145      5146      5142      5145
      5146      5142      5144      5146      5142      5143      5148      5152      5153
      5149      5148      5151      5149      5148      5150      5150      5148      5151
      5152      5148      5151      5152      5148      5150      5152      5148      5149
      5154      5158      5159      5155      5154      5157      5155      5154      5156
      5156      5154      5157      5158      5154      5157      5158      5154      5156
      5158      5154      5155      5160      5164      5165      5161      5160      5163
      5161      5160      5162      5162      5160      5163      5164      5160      5163
      5164      5160      5162      5164      5160      5161      5166      5170      5171
      5167      5166      5169      5167      5166      5168      5168      5166      5169
      5170      5166      5169      5170      5166      5168      5170      5166      5167
      5172      5176      5177      5173      5172      5175      5173      5172      5174
      5174      5172      5175      5176      5172      5175      5176      5172      5174
      5176      5172      5173      5178      5182      5183      5179      5178      5181
      5179      5178      5180      5180      5178      5181      5182      5178      5181
      5182      5178      5180      5182      5178      5179      5184      5188      5189
      5185      5184      5187      5185      5184      5186      5186      5184      5187
      5188      5184      5187      5188      5184      5186      5188      5184      5185
      5190      5194      5195      5191      5190      5193      5191      5190      5192
      5192      5190      5193      5194      5190      5193      5194      5190      5192
      5194      5190      5191      5196      5200      5201      5197      5196      5199
      5197      5196      5198      5198      5196      5199      5200      5196      5199
      5200      5196      5198      5200      5196      5197      5202      5206      5207
      5203      5202      5205      5203      5202      5204      5204      5202      5205
      5206      5202      5205      5206      5202      5204      5206      5202      5203
      5208      5212      5213      5209      5208      5211      5209      5208      5210
      5210      5208      5211      5212      5208      5211      5212      5208      5210
      5212      5208      5209      5214      5218      5219      5215      5214      5217
      5215      5214      5216      5216      5214      5217      5218      5214      5217
      5218      5214      5216      5218      5214      5215      5220      5224      5225
      5221      5220      5223      5221      5220      5222      5222      5220      5223
      5224      5220      5223      5224      5220      5222      5224      5220      5221
      5226      5230      5231      5227      5226      5229      5227      5226      5228
      5228      5226      5229      5230      5226      5229      5230      5226      5228
      5230      5226      5227      5232      5236      5237      5233      5232      5235
      5233      5232      5234      5234      5232      5235      5236      5232      5235
      5236      5232      5234      5236      5232      5233      5238      5242      5243
      5239      5238      5241      5239      5238      5240      5240      5238      5241
      5242      5238      5241      5242      5238      5240      5242      5238      5239
      5244      5248      5249      5245      5244      5247      5245      5244      5246
      5246      5244      5247      5248      5244      5247      5248      5244      5246
      5248      5244      5245      5250      5254      5255      5251      5250      5253
      5251      5250      5252      5252      5250      5253      5254      5250      5253
      5254      5250      5252      5254      5250      5251      5256      5260      5261
      5257      5256      5259      5257      5256      5258      5258      5256      5259
      5260      5256      5259      5260      5256      5258      5260      5256      5257
      5262      5266      5267      5263      5262      5265      5263      5262      5264
      5264      5262      5265      5266      5262      5265      5266      5262      5264
      5266      5262      5263      5268      5272      5273      5269      5268      5271
      5269      5268      5270      5270      5268      5271      5272      5268      5271
      5272      5268      5270      5272      5268      5269      5274      5278      5279
      5275      5274      5277      5275      5274      5276      5276      5274      5277
      5278      5274      5277      5278      5274      5276      5278      5274      5275
      5280      5284      5285      5281      5280      5283      5281      5280      5282
      5282      5280      5283      5284      5280      5283      5284      5280      5282
      5284      5280      5281      5286      5290      5291      5287      5286      5289
      5287      5286      5288      5288      5286      5289      5290      5286      5289
      5290      5286      5288      5290      5286      5287      5292      5296      5297
      5293      5292      5295      5293      5292      5294      5294      5292      5295
      5296      5292      5295      5296      5292      5294      5296      5292      5293
      5298      5302      5303      5299      5298      5301      5299      5298      5300
      5300      5298      5301      5302      5298      5301      5302      5298      5300
      5302      5298      5299      5304      5308      5309      5305      5304      5307
      5305      5304      5306      5306      5304      5307      5308      5304      5307
      5308      5304      5306      5308      5304      5305      5310      5314      5315
      5311      5310      5313      5311      5310      5312      5312      5310      5313
      5314      5310      5313      5314      5310      5312      5314      5310      5311
      5316      5320      5321      5317      5316      5319      5317      5316      5318
      5318      5316      5319      5320      5316      5319      5320      5316      5318
      5320      5316      5317      5322      5326      5327      5323      5322      5325
      5323      5322      5324      5324      5322      5325      5326      5322      5325
      5326      5322      5324      5326      5322      5323      5328      5332      5333
      5329      5328      5331      5329      5328      5330      5330      5328      5331
      5332      5328      5331      5332      5328      5330      5332      5328      5329
      5334      5338      5339      5335      5334      5337      5335      5334      5336
      5336      5334      5337      5338      5334      5337      5338      5334      5336
      5338      5334      5335      5340      5344      5345      5341      5340      5343
      5341      5340      5342      5342      5340      5343      5344      5340      5343
      5344      5340      5342      5344      5340      5341      5346      5350      5351
      5347      5346      5349      5347      5346      5348      5348      5346      5349
      5350      5346      5349      5350      5346      5348      5350      5346      5347
      5352      5356      5357      5353      5352      5355      5353      5352      5354
      5354      5352      5355      5356      5352      5355      5356      5352      5354
      5356      5352      5353      5358      5362      5363      5359      5358      5361
      5359      5358      5360      5360      5358      5361      5362      5358      5361
      5362      5358      5360      5362      5358      5359      5364      5368      5369
      5365      5364      5367      5365      5364      5366      5366      5364      5367
      5368      5364      5367      5368      5364      5366      5368      5364      5365
      5370      5374      5375      5371      5370      5373      5371      5370      5372
      5372      5370      5373      5374      5370      5373      5374      5370      5372
      5374      5370      5371      5376      5380      5381      5377      5376      5379
      5377      5376      5378      5378      5376      5379      5380      5376      5379
      5380      5376      5378      5380      5376      5377      5382      5386      5387
      5383      5382      5385      5383      5382      5384      5384      5382      5385
      5386      5382      5385      5386      5382      5384      5386      5382      5383
      5388      5392      5393      5389      5388      5391      5389      5388      5390
      5390      5388      5391      5392      5388      5391      5392      5388      5390
      5392      5388      5389      5394      5398      5399      5395      5394      5397
      5395      5394      5396      5396      5394      5397      5398      5394      5397
      5398      5394      5396      5398      5394      5395      5400      5404      5405
      5401      5400      5403      5401      5400      5402      5402      5400      5403
      5404      5400      5403      5404      5400      5402      5404      5400      5401
      5406      5410      5411      5407      5406      5409      5407      5406      5408
      5408      5406      5409      5410      5406      5409      5410      5406      5408
      5410      5406      5407      5412      5416      5417      5413      5412      5415
      5413      5412      5414      5414      5412      5415      5416      5412      5415
      5416      5412      5414      5416      5412      5413      5418      5422      5423
      5419      5418      5421      5419      5418      5420      5420      5418      5421
      5422      5418      5421      5422      5418      5420      5422      5418      5419
      5424      5428      5429      5425      5424      5427      5425      5424      5426
      5426      5424      5427      5428      5424      5427      5428      5424      5426
      5428      5424      5425      5430      5434      5435      5431      5430      5433
      5431      5430      5432      5432      5430      5433      5434      5430      5433
      5434      5430      5432      5434      5430      5431      5436      5440      5441
      5437      5436      5439      5437      5436      5438      5438      5436      5439
      5440      5436      5439      5440      5436      5438      5440      5436      5437
      5442      5446      5447      5443      5442      5445      5443      5442      5444
      5444      5442      5445      5446      5442      5445      5446      5442      5444
      5446      5442      5443      5448      5452      5453      5449      5448      5451
      5449      5448      5450      5450      5448      5451      5452      5448      5451
      5452      5448      5450      5452      5448      5449      5454      5458      5459
      5455      5454      5457      5455      5454      5456      5456      5454      5457
      5458      5454      5457      5458      5454      5456      5458      5454      5455
      5460      5464      5465      5461      5460      5463      5461      5460      5462
      5462      5460      5463      5464      5460      5463      5464      5460      5462
      5464      5460      5461      5466      5470      5471      5467      5466      5469
      5467      5466      5468      5468      5466      5469      5470      5466      5469
      5470      5466      5468      5470      5466      5467      5472      5476      5477
      5473      5472      5475      5473      5472      5474      5474      5472      5475
      5476      5472      5475      5476      5472      5474      5476      5472      5473
      5478      5482      5483      5479      5478      5481      5479      5478      5480
      5480      5478      5481      5482      5478      5481      5482      5478      5480
      5482      5478      5479      5484      5488      5489      5485      5484      5487
      5485      5484      5486      5486      5484      5487      5488      5484      5487
      5488      5484      5486      5488      5484      5485      5490      5494      5495
      5491      5490      5493      5491      5490      5492      5492      5490      5493
      5494      5490      5493      5494      5490      5492      5494      5490      5491
      5496      5500      5501      5497      5496      5499      5497      5496      5498
      5498      5496      5499      5500      5496      5499      5500      5496      5498
      5500      5496      5497      5502      5506      5507      5503      5502      5505
      5503      5502      5504      5504      5502      5505      5506      5502      5505
      5506      5502      5504      5506      5502      5503      5508      5512      5513
      5509      5508      5511      5509      5508      5510      5510      5508      5511
      5512      5508      5511      5512      5508      5510      5512      5508      5509
      5514      5518      5519      5515      5514      5517      5515      5514      5516
      5516      5514      5517      5518      5514      5517      5518      5514      5516
      5518      5514      5515      5520      5524      5525      5521      5520      5523
      5521      5520      5522      5522      5520      5523      5524      5520      5523
      5524      5520      5522      5524      5520      5521      5526      5530      5531
      5527      5526      5529      5527      5526      5528      5528      5526      5529
      5530      5526      5529      5530      5526      5528      5530      5526      5527
      5532      5536      5537      5533      5532      5535      5533      5532      5534
      5534      5532      5535      5536      5532      5535      5536      5532      5534
      5536      5532      5533      5538      5542      5543      5539      5538      5541
      5539      5538      5540      5540      5538      5541      5542      5538      5541
      5542      5538      5540      5542      5538      5539      5544      5548      5549
      5545      5544      5547      5545      5544      5546      5546      5544      5547
      5548      5544      5547      5548      5544      5546      5548      5544      5545
      5550      5554      5555      5551      5550      5553      5551      5550      5552
      5552      5550      5553      5554      5550      5553      5554      5550      5552
      5554      5550      5551      5556      5560      5561      5557      5556      5559
      5557      5556      5558      5558      5556      5559      5560      5556      5559
      5560      5556      5558      5560      5556      5557      5562      5566      5567
      5563      5562      5565      5563      5562      5564      5564      5562      5565
      5566      5562      5565      5566      5562      5564      5566      5562      5563
      5568      5572      5573      5569      5568      5571      5569      5568      5570
      5570      5568      5571      5572      5568      5571      5572      5568      5570
      5572      5568      5569      5574      5578      5579      5575      5574      5577
      5575      5574      5576      5576      5574      5577      5578      5574      5577
      5578      5574      5576      5578      5574      5575      5580      5584      5585
      5581      5580      5583      5581      5580      5582      5582      5580      5583
      5584      5580      5583      5584      5580      5582      5584      5580      5581
      5586      5590      5591      5587      5586      5589      5587      5586      5588
      5588      5586      5589      5590      5586      5589      5590      5586      5588
      5590      5586      5587      5592      5596      5597      5593      5592      5595
      5593      5592      5594      5594      5592      5595      5596      5592      5595
      5596      5592      5594      5596      5592      5593      5598      5602      5603
      5599      5598      5601      5599      5598      5600      5600      5598      5601
      5602      5598      5601      5602      5598      5600      5602      5598      5599
      5604      5608      5609      5605      5604      5607      5605      5604      5606
      5606      5604      5607      5608      5604      5607      5608      5604      5606
      5608      5604      5605      5610      5614      5615      5611      5610      5613
      5611      5610      5612      5612      5610      5613      5614      5610      5613
      5614      5610      5612      5614      5610      5611      5616      5620      5621
      5617      5616      5619      5617      5616      5618      5618      5616      5619
      5620      5616      5619      5620      5616      5618      5620      5616      5617
      5622      5626      5627      5623      5622      5625      5623      5622      5624
      5624      5622      5625      5626      5622      5625      5626      5622      5624
      5626      5622      5623      5628      5632      5633      5629      5628      5631
      5629      5628      5630      5630      5628      5631      5632      5628      5631
      5632      5628      5630      5632      5628      5629      5634      5638      5639
      5635      5634      5637      5635      5634      5636      5636      5634      5637
      5638      5634      5637      5638      5634      5636      5638      5634      5635
      5640      5644      5645      5641      5640      5643      5641      5640      5642
      5642      5640      5643      5644      5640      5643      5644      5640      5642
      5644      5640      5641      5646      5650      5651      5647      5646      5649
      5647      5646      5648      5648      5646      5649      5650      5646      5649
      5650      5646      5648      5650      5646      5647      5652      5656      5657
      5653      5652      5655      5653      5652      5654      5654      5652      5655
      5656      5652      5655      5656      5652      5654      5656      5652      5653
      5658      5662      5663      5659      5658      5661      5659      5658      5660
      5660      5658      5661      5662      5658      5661      5662      5658      5660
      5662      5658      5659      5664      5668      5669      5665      5664      5667
      5665      5664      5666      5666      5664      5667      5668      5664      5667
      5668      5664      5666      5668      5664      5665      5670      5674      5675
      5671      5670      5673      5671      5670      5672      5672      5670      5673
      5674      5670      5673      5674      5670      5672      5674      5670      5671
      5676      5680      5681      5677      5676      5679      5677      5676      5678
      5678      5676      5679      5680      5676      5679      5680      5676      5678
      5680      5676      5677      5682      5686      5687      5683      5682      5685
      5683      5682      5684      5684      5682      5685      5686      5682      5685
      5686      5682      5684      5686      5682      5683      5688      5692      5693
      5689      5688      5691      5689      5688      5690      5690      5688      5691
      5692      5688      5691      5692      5688      5690      5692      5688      5689
      5694      5698      5699      5695      5694      5697      5695      5694      5696
      5696      5694      5697      5698      5694      5697      5698      5694      5696
      5698      5694      5695      5700      5704      5705      5701      5700      5703
      5701      5700      5702      5702      5700      5703      5704      5700      5703
      5704      5700      5702      5704      5700      5701      5706      5710      5711
      5707      5706      5709      5707      5706      5708      5708      5706      5709
      5710      5706      5709      5710      5706      5708      5710      5706      5707
      5712      5716      5717      5713      5712      5715      5713      5712      5714
      5714      5712      5715      5716      5712      5715      5716      5712      5714
      5716      5712      5713      5718      5722      5723      5719      5718      5721
      5719      5718      5720      5720      5718      5721      5722      5718      5721
      5722      5718      5720      5722      5718      5719      5724      5728      5729
      5725      5724      5727      5725      5724      5726      5726      5724      5727
      5728      5724      5727      5728      5724      5726      5728      5724      5725
      5730      5734      5735      5731      5730      5733      5731      5730      5732
      5732      5730      5733      5734      5730      5733      5734      5730      5732
      5734      5730      5731      5736      5740      5741      5737      5736      5739
      5737      5736      5738      5738      5736      5739      5740      5736      5739
      5740      5736      5738      5740      5736      5737      5742      5746      5747
      5743      5742      5745      5743      5742      5744      5744      5742      5745
      5746      5742      5745      5746      5742      5744      5746      5742      5743
      5748      5752      5753      5749      5748      5751      5749      5748      5750
      5750      5748      5751      5752      5748      5751      5752      5748      5750
      5752      5748      5749      5754      5758      5759      5755      5754      5757
      5755      5754      5756      5756      5754      5757      5758      5754      5757
      5758      5754      5756      5758      5754      5755      5760      5764      5765
      5761      5760      5763      5761      5760      5762      5762      5760      5763
      5764      5760      5763      5764      5760      5762      5764      5760      5761
      5766      5770      5771      5767      5766      5769      5767      5766      5768
      5768      5766      5769      5770      5766      5769      5770      5766      5768
      5770      5766      5767      5772      5776      5777      5773      5772      5775
      5773      5772      5774      5774      5772      5775      5776      5772      5775
      5776      5772      5774      5776      5772      5773      5778      5782      5783
      5779      5778      5781      5779      5778      5780      5780      5778      5781
      5782      5778      5781      5782      5778      5780      5782      5778      5779
      5784      5788      5789      5785      5784      5787      5785      5784      5786
      5786      5784      5787      5788      5784      5787      5788      5784      5786
      5788      5784      5785      5790      5794      5795      5791      5790      5793
      5791      5790      5792      5792      5790      5793      5794      5790      5793
      5794      5790      5792      5794      5790      5791      5796      5800      5801
      5797      5796      5799      5797      5796      5798      5798      5796      5799
      5800      5796      5799      5800      5796      5798      5800      5796      5797
      5802      5806      5807      5803      5802      5805      5803      5802      5804
      5804      5802      5805      5806      5802      5805      5806      5802      5804
      5806      5802      5803      5808      5812      5813      5809      5808      5811
      5809      5808      5810      5810      5808      5811      5812      5808      5811
      5812      5808      5810      5812      5808      5809      5814      5818      5819
      5815      5814      5817      5815      5814      5816      5816      5814      5817
      5818      5814      5817      5818      5814      5816      5818      5814      5815
      5820      5824      5825      5821      5820      5823      5821      5820      5822
      5822      5820      5823      5824      5820      5823      5824      5820      5822
      5824      5820      5821      5826      5830      5831      5827      5826      5829
      5827      5826      5828      5828      5826      5829      5830      5826      5829
      5830      5826      5828      5830      5826      5827      5832      5836      5837
      5833      5832      5835      5833      5832      5834      5834      5832      5835
      5836      5832      5835      5836      5832      5834      5836      5832      5833
      5838      5842      5843      5839      5838      5841      5839      5838      5840
      5840      5838      5841      5842      5838      5841      5842      5838      5840
      5842      5838      5839      5844      5848      5849      5845      5844      5847
      5845      5844      5846      5846      5844      5847      5848      5844      5847
      5848      5844      5846      5848      5844      5845      5850      5854      5855
      5851      5850      5853      5851      5850      5852      5852      5850      5853
      5854      5850      5853      5854      5850      5852      5854      5850      5851
      5856      5860      5861      5857      5856      5859      5857      5856      5858
      5858      5856      5859      5860      5856      5859      5860      5856      5858
      5860      5856      5857      5862      5866      5867      5863      5862      5865
      5863      5862      5864      5864      5862      5865      5866      5862      5865
      5866      5862      5864      5866      5862      5863      5868      5872      5873
      5869      5868      5871      5869      5868      5870      5870      5868      5871
      5872      5868      5871      5872      5868      5870      5872      5868      5869
      5874      5878      5879      5875      5874      5877      5875      5874      5876
      5876      5874      5877      5878      5874      5877      5878      5874      5876
      5878      5874      5875      5880      5884      5885      5881      5880      5883
      5881      5880      5882      5882      5880      5883      5884      5880      5883
      5884      5880      5882      5884      5880      5881      5886      5890      5891
      5887      5886      5889      5887      5886      5888      5888      5886      5889
      5890      5886      5889      5890      5886      5888      5890      5886      5887
      5892      5896      5897      5893      5892      5895      5893      5892      5894
      5894      5892      5895      5896      5892      5895      5896      5892      5894
      5896      5892      5893      5898      5902      5903      5899      5898      5901
      5899      5898      5900      5900      5898      5901      5902      5898      5901
      5902      5898      5900      5902      5898      5899      5904      5908      5909
      5905      5904      5907      5905      5904      5906      5906      5904      5907
      5908      5904      5907      5908      5904      5906      5908      5904      5905
      5910      5914      5915      5911      5910      5913      5911      5910      5912
      5912      5910      5913      5914      5910      5913      5914      5910      5912
      5914      5910      5911      5916      5920      5921      5917      5916      5919
      5917      5916      5918      5918      5916      5919      5920      5916      5919
      5920      5916      5918      5920      5916      5917      5922      5926      5927
      5923      5922      5925      5923      5922      5924      5924      5922      5925
      5926      5922      5925      5926      5922      5924      5926      5922      5923
      5928      5932      5933      5929      5928      5931      5929      5928      5930
      5930      5928      5931      5932      5928      5931      5932      5928      5930
      5932      5928      5929      5934      5938      5939      5935      5934      5937
      5935      5934      5936      5936      5934      5937      5938      5934      5937
      5938      5934      5936      5938      5934      5935      5940      5944      5945
      5941      5940      5943      5941      5940      5942      5942      5940      5943
      5944      5940      5943      5944      5940      5942      5944      5940      5941
      5946      5950      5951      5947      5946      5949      5947      5946      5948
      5948      5946      5949      5950      5946      5949      5950      5946      5948
      5950      5946      5947      5952      5956      5957      5953      5952      5955
      5953      5952      5954      5954      5952      5955      5956      5952      5955
      5956      5952      5954      5956      5952      5953      5958      5962      5963
      5959      5958      5961      5959      5958      5960      5960      5958      5961
      5962      5958      5961      5962      5958      5960      5962      5958      5959
      5964      5968      5969      5965      5964      5967      5965      5964      5966
      5966      5964      5967      5968      5964      5967      5968      5964      5966
      5968      5964      5965      5970      5974      5975      5971      5970      5973
      5971      5970      5972      5972      5970      5973      5974      5970      5973
      5974      5970      5972      5974      5970      5971      5976      5980      5981
      5977      5976      5979      5977      5976      5978      5978      5976      5979
      5980      5976      5979      5980      5976      5978      5980      5976      5977
      5982      5986      5987      5983      5982      5985      5983      5982      5984
      5984      5982      5985      5986      5982      5985      5986      5982      5984
      5986      5982      5983      5988      5992      5993      5989      5988      5991
      5989      5988      5990      5990      5988      5991      5992      5988      5991
      5992      5988      5990      5992      5988      5989      5994      5998      5999
      5995      5994      5997      5995      5994      5996      5996      5994      5997
      5998      5994      5997      5998      5994      5996      5998      5994      5995
      6000      6004      6005      6001      6000      6003      6001      6000      6002
      6002      6000      6003      6004      6000      6003      6004      6000      6002
      6004      6000      6001      6006      6010      6011      6007      6006      6009
      6007      6006      6008      6008      6006      6009      6010      6006      6009
      6010      6006      6008      6010      6006      6007      6012      6016      6017
      6013      6012      6015      6013      6012      6014      6014      6012      6015
      6016      6012      6015      6016      6012      6014      6016      6012      6013
      6018      6022      6023      6019      6018      6021      6019      6018      6020
      6020      6018      6021      6022      6018      6021      6022      6018      6020
      6022      6018      6019      6024      6028      6029      6025      6024      6027
      6025      6024      6026      6026      6024      6027      6028      6024      6027
      6028      6024      6026      6028      6024      6025      6030      6034      6035
      6031      6030      6033      6031      6030      6032      6032      6030      6033
      6034      6030      6033      6034      6030      6032      6034      6030      6031
      6036      6040      6041      6037      6036      6039      6037      6036      6038
      6038      6036      6039      6040      6036      6039      6040      6036      6038
      6040      6036      6037      6042      6046      6047      6043      6042      6045
      6043      6042      6044      6044      6042      6045      6046      6042      6045
      6046      6042      6044      6046      6042      6043      6048      6052      6053
      6049      6048      6051      6049      6048      6050      6050      6048      6051
      6052      6048      6051      6052      6048      6050      6052      6048      6049
      6054      6058      6059      6055      6054      6057      6055      6054      6056
      6056      6054      6057      6058      6054      6057      6058      6054      6056
      6058      6054      6055      6060      6064      6065      6061      6060      6063
      6061      6060      6062      6062      6060      6063      6064      6060      6063
      6064      6060      6062      6064      6060      6061      6066      6070      6071
      6067      6066      6069      6067      6066      6068      6068      6066      6069
      6070      6066      6069      6070      6066      6068      6070      6066      6067
      6072      6076      6077      6073      6072      6075      6073      6072      6074
      6074      6072      6075      6076      6072      6075      6076      6072      6074
      6076      6072      6073      6078      6082      6083      6079      6078      6081
      6079      6078      6080      6080      6078      6081      6082      6078      6081
      6082      6078      6080      6082      6078      6079      6084      6088      6089
      6085      6084      6087      6085      6084      6086      6086      6084      6087
      6088      6084      6087      6088      6084      6086      6088      6084      6085
      6090      6094      6095      6091      6090      6093      6091      6090      6092
      6092      6090      6093      6094      6090      6093      6094      6090      6092
      6094      6090      6091      6096      6100      6101      6097      6096      6099
      6097      6096      6098      6098      6096      6099      6100      6096      6099
      6100      6096      6098      6100      6096      6097      6102      6106      6107
      6103      6102      6105      6103      6102      6104      6104      6102      6105
      6106      6102      6105      6106      6102      6104      6106      6102      6103
      6108      6112      6113      6109      6108      6111      6109      6108      6110
      6110      6108      6111      6112      6108      6111      6112      6108      6110
      6112      6108      6109      6114      6118      6119      6115      6114      6117
      6115      6114      6116      6116      6114      6117      6118      6114      6117
      6118      6114      6116      6118      6114      6115      6120      6124      6125
      6121      6120      6123      6121      6120      6122      6122      6120      6123
      6124      6120      6123      6124      6120      6122      6124      6120      6121
      6126      6130      6131      6127      6126      6129      6127      6126      6128
      6128      6126      6129      6130      6126      6129      6130      6126      6128
      6130      6126      6127      6132      6136      6137      6133      6132      6135
      6133      6132      6134      6134      6132      6135      6136      6132      6135
      6136      6132      6134      6136      6132      6133      6138      6142      6143
      6139      6138      6141      6139      6138      6140      6140      6138      6141
      6142      6138      6141      6142      6138      6140      6142      6138      6139
      6144      6148      6149      6145      6144      6147      6145      6144      6146
      6146      6144      6147      6148      6144      6147      6148      6144      6146
      6148      6144      6145      6150      6154      6155      6151      6150      6153
      6151      6150      6152      6152      6150      6153      6154      6150      6153
      6154      6150      6152      6154      6150      6151      6156      6160      6161
      6157      6156      6159      6157      6156      6158      6158      6156      6159
      6160      6156      6159      6160      6156      6158      6160      6156      6157
      6162      6166      6167      6163      6162      6165      6163      6162      6164
      6164      6162      6165      6166      6162      6165      6166      6162      6164
      6166      6162      6163      6168      6172      6173      6169      6168      6171
      6169      6168      6170      6170      6168      6171      6172      6168      6171
      6172      6168      6170      6172      6168      6169      6174      6178      6179
      6175      6174      6177      6175      6174      6176      6176      6174      6177
      6178      6174      6177      6178      6174      6176      6178      6174      6175
      6180      6184      6185      6181      6180      6183      6181      6180      6182
      6182      6180      6183      6184      6180      6183      6184      6180      6182
      6184      6180      6181      6186      6190      6191      6187      6186      6189
      6187      6186      6188      6188      6186      6189      6190      6186      6189
      6190      6186      6188      6190      6186      6187      6192      6196      6197
      6193      6192      6195      6193      6192      6194      6194      6192      6195
      6196      6192      6195      6196      6192      6194      6196      6192      6193
      6198      6202      6203      6199      6198      6201      6199      6198      6200
      6200      6198      6201      6202      6198      6201      6202      6198      6200
      6202      6198      6199      6204      6208      6209      6205      6204      6207
      6205      6204      6206      6206      6204      6207      6208      6204      6207
      6208      6204      6206      6208      6204      6205      6210      6214      6215
      6211      6210      6213      6211      6210      6212      6212      6210      6213
      6214      6210      6213      6214      6210      6212      6214      6210      6211
      6216      6220      6221      6217      6216      6219      6217      6216      6218
      6218      6216      6219      6220      6216      6219      6220      6216      6218
      6220      6216      6217      6222      6226      6227      6223      6222      6225
      6223      6222      6224      6224      6222      6225      6226      6222      6225
      6226      6222      6224      6226      6222      6223      6228      6232      6233
      6229      6228      6231      6229      6228      6230      6230      6228      6231
      6232      6228      6231      6232      6228      6230      6232      6228      6229
      6234      6238      6239      6235      6234      6237      6235      6234      6236
      6236      6234      6237      6238      6234      6237      6238      6234      6236
      6238      6234      6235      6240      6244      6245      6241      6240      6243
      6241      6240      6242      6242      6240      6243      6244      6240      6243
      6244      6240      6242      6244      6240      6241      6246      6250      6251
      6247      6246      6249      6247      6246      6248      6248      6246      6249
      6250      6246      6249      6250      6246      6248      6250      6246      6247
      6252      6256      6257      6253      6252      6255      6253      6252      6254
      6254      6252      6255      6256      6252      6255      6256      6252      6254
      6256      6252      6253      6258      6262      6263      6259      6258      6261
      6259      6258      6260      6260      6258      6261      6262      6258      6261
      6262      6258      6260      6262      6258      6259      6264      6268      6269
      6265      6264      6267      6265      6264      6266      6266      6264      6267
      6268      6264      6267      6268      6264      6266      6268      6264      6265
      6270      6274      6275      6271      6270      6273      6271      6270      6272
      6272      6270      6273      6274      6270      6273      6274      6270      6272
      6274      6270      6271      6276      6280      6281      6277      6276      6279
      6277      6276      6278      6278      6276      6279      6280      6276      6279
      6280      6276      6278      6280      6276      6277      6282      6286      6287
      6283      6282      6285      6283      6282      6284      6284      6282      6285
      6286      6282      6285      6286      6282      6284      6286      6282      6283
      6288      6292      6293      6289      6288      6291      6289      6288      6290
      6290      6288      6291      6292      6288      6291      6292      6288      6290
      6292      6288      6289      6294      6298      6299      6295      6294      6297
      6295      6294      6296      6296      6294      6297      6298      6294      6297
      6298      6294      6296      6298      6294      6295      6300      6304      6305
      6301      6300      6303      6301      6300      6302      6302      6300      6303
      6304      6300      6303      6304      6300      6302      6304      6300      6301
      6306      6310      6311      6307      6306      6309      6307      6306      6308
      6308      6306      6309      6310      6306      6309      6310      6306      6308
      6310      6306      6307      6312      6316      6317      6313      6312      6315
      6313      6312      6314      6314      6312      6315      6316      6312      6315
      6316      6312      6314      6316      6312      6313      6318      6322      6323
      6319      6318      6321      6319      6318      6320      6320      6318      6321
      6322      6318      6321      6322      6318      6320      6322      6318      6319
      6324      6328      6329      6325      6324      6327      6325      6324      6326
      6326      6324      6327      6328      6324      6327      6328      6324      6326
      6328      6324      6325      6330      6334      6335      6331      6330      6333
      6331      6330      6332      6332      6330      6333      6334      6330      6333
      6334      6330      6332      6334      6330      6331      6336      6340      6341
      6337      6336      6339      6337      6336      6338      6338      6336      6339
      6340      6336      6339      6340      6336      6338      6340      6336      6337
      6342      6346      6347      6343      6342      6345      6343      6342      6344
      6344      6342      6345      6346      6342      6345      6346      6342      6344
      6346      6342      6343      6348      6352      6353      6349      6348      6351
      6349      6348      6350      6350      6348      6351      6352      6348      6351
      6352      6348      6350      6352      6348      6349      6354      6358      6359
      6355      6354      6357      6355      6354      6356      6356      6354      6357
      6358      6354      6357      6358      6354      6356      6358      6354      6355
      6360      6364      6365      6361      6360      6363      6361      6360      6362
      6362      6360      6363      6364      6360      6363      6364      6360      6362
      6364      6360      6361      6366      6370      6371      6367      6366      6369
      6367      6366      6368      6368      6366      6369      6370      6366      6369
      6370      6366      6368      6370      6366      6367      6372      6376      6377
      6373      6372      6375      6373      6372      6374      6374      6372      6375
      6376      6372      6375      6376      6372      6374      6376      6372      6373
      6378      6382      6383      6379      6378      6381      6379      6378      6380
      6380      6378      6381      6382      6378      6381      6382      6378      6380
      6382      6378      6379      6384      6388      6389      6385      6384      6387
      6385      6384      6386      6386      6384      6387      6388      6384      6387
      6388      6384      6386      6388      6384      6385      6390      6394      6395
      6391      6390      6393      6391      6390      6392      6392      6390      6393
      6394      6390      6393      6394      6390      6392      6394      6390      6391
      6396      6400      6401      6397      6396      6399      6397      6396      6398
      6398      6396      6399      6400      6396      6399      6400      6396      6398
      6400      6396      6397      6402      6406      6407      6403      6402      6405
      6403      6402      6404      6404      6402      6405      6406      6402      6405
      6406      6402      6404      6406      6402      6403      6408      6412      6413
      6409      6408      6411      6409      6408      6410      6410      6408      6411
      6412      6408      6411      6412      6408      6410      6412      6408      6409
      6414      6418      6419      6415      6414      6417      6415      6414      6416
      6416      6414      6417      6418      6414      6417      6418      6414      6416
      6418      6414      6415      6420      6424      6425      6421      6420      6423
      6421      6420      6422      6422      6420      6423      6424      6420      6423
      6424      6420      6422      6424      6420      6421      6426      6430      6431
      6427      6426      6429      6427      6426      6428      6428      6426      6429
      6430      6426      6429      6430      6426      6428      6430      6426      6427
      6432      6436      6437      6433      6432      6435      6433      6432      6434
      6434      6432      6435      6436      6432      6435      6436      6432      6434
      6436      6432      6433      6438      6442      6443      6439      6438      6441
      6439      6438      6440      6440      6438      6441      6442      6438      6441
      6442      6438      6440      6442      6438      6439      6444      6448      6449
      6445      6444      6447      6445      6444      6446      6446      6444      6447
      6448      6444      6447      6448      6444      6446      6448      6444      6445
      6450      6454      6455      6451      6450      6453      6451      6450      6452
      6452      6450      6453      6454      6450      6453      6454      6450      6452
      6454      6450      6451      6456      6460      6461      6457      6456      6459
      6457      6456      6458      6458      6456      6459      6460      6456      6459
      6460      6456      6458      6460      6456      6457      6462      6466      6467
      6463      6462      6465      6463      6462      6464      6464      6462      6465
      6466      6462      6465      6466      6462      6464      6466      6462      6463
      6468      6472      6473      6469      6468      6471      6469      6468      6470
      6470      6468      6471      6472      6468      6471      6472      6468      6470
      6472      6468      6469      6474      6478      6479      6475      6474      6477
      6475      6474      6476      6476      6474      6477      6478      6474      6477
      6478      6474      6476      6478      6474      6475      6480      6484      6485
      6481      6480      6483      6481      6480      6482      6482      6480      6483
      6484      6480      6483      6484      6480      6482      6484      6480      6481
      6486      6490      6491      6487      6486      6489      6487      6486      6488
      6488      6486      6489      6490      6486      6489      6490      6486      6488
      6490      6486      6487      6492      6496      6497      6493      6492      6495
      6493      6492      6494      6494      6492      6495      6496      6492      6495
      6496      6492      6494      6496      6492      6493      6498      6502      6503
      6499      6498      6501      6499      6498      6500      6500      6498      6501
      6502      6498      6501      6502      6498      6500      6502      6498      6499
      6504      6508      6509      6505      6504      6507      6505      6504      6506
      6506      6504      6507      6508      6504      6507      6508      6504      6506
      6508      6504      6505      6510      6514      6515      6511      6510      6513
      6511      6510      6512      6512      6510      6513      6514      6510      6513
      6514      6510      6512      6514      6510      6511      6516      6520      6521
      6517      6516      6519      6517      6516      6518      6518      6516      6519
      6520      6516      6519      6520      6516      6518      6520      6516      6517
      6522      6526      6527      6523      6522      6525      6523      6522      6524
      6524      6522      6525      6526      6522      6525      6526      6522      6524
      6526      6522      6523      6528      6532      6533      6529      6528      6531
      6529      6528      6530      6530      6528      6531      6532      6528      6531
      6532      6528      6530      6532      6528      6529      6534      6538      6539
      6535      6534      6537      6535      6534      6536      6536      6534      6537
      6538      6534      6537      6538      6534      6536      6538      6534      6535
      6540      6544      6545      6541      6540      6543      6541      6540      6542
      6542      6540      6543      6544      6540      6543      6544      6540      6542
      6544      6540      6541      6546      6550      6551      6547      6546      6549
      6547      6546      6548      6548      6546      6549      6550      6546      6549
      6550      6546      6548      6550      6546      6547      6552      6556      6557
      6553      6552      6555      6553      6552      6554      6554      6552      6555
      6556      6552      6555      6556      6552      6554      6556      6552      6553
      6558      6562      6563      6559      6558      6561      6559      6558      6560
      6560      6558      6561      6562      6558      6561      6562      6558      6560
      6562      6558      6559      6564      6568      6569      6565      6564      6567
      6565      6564      6566      6566      6564      6567      6568      6564      6567
      6568      6564      6566      6568      6564      6565      6570      6574      6575
      6571      6570      6573      6571      6570      6572      6572      6570      6573
      6574      6570      6573      6574      6570      6572      6574      6570      6571
      6576      6580      6581      6577      6576      6579      6577      6576      6578
      6578      6576      6579      6580      6576      6579      6580      6576      6578
      6580      6576      6577      6582      6586      6587      6583      6582      6585
      6583      6582      6584      6584      6582      6585      6586      6582      6585
      6586      6582      6584      6586      6582      6583      6588      6592      6593
      6589      6588      6591      6589      6588      6590      6590      6588      6591
      6592      6588      6591      6592      6588      6590      6592      6588      6589
      6594      6598      6599      6595      6594      6597      6595      6594      6596
      6596      6594      6597      6598      6594      6597      6598      6594      6596
      6598      6594      6595      6600      6604      6605      6601      6600      6603
      6601      6600      6602      6602      6600      6603      6604      6600      6603
      6604      6600      6602      6604      6600      6601      6606      6610      6611
      6607      6606      6609      6607      6606      6608      6608      6606      6609
      6610      6606      6609      6610      6606      6608      6610      6606      6607
      6612      6616      6617      6613      6612      6615      6613      6612      6614
      6614      6612      6615      6616      6612      6615      6616      6612      6614
      6616      6612      6613      6618      6622      6623      6619      6618      6621
      6619      6618      6620      6620      6618      6621      6622      6618      6621
      6622      6618      6620      6622      6618      6619      6624      6628      6629
      6625      6624      6627      6625      6624      6626      6626      6624      6627
      6628      6624      6627      6628      6624      6626      6628      6624      6625
      6630      6634      6635      6631      6630      6633      6631      6630      6632
      6632      6630      6633      6634      6630      6633      6634      6630      6632
      6634      6630      6631      6636      6640      6641      6637      6636      6639
      6637      6636      6638      6638      6636      6639      6640      6636      6639
      6640      6636      6638      6640      6636      6637      6642      6646      6647
      6643      6642      6645      6643      6642      6644      6644      6642      6645
      6646      6642      6645      6646      6642      6644      6646      6642      6643
      6648      6652      6653      6649      6648      6651      6649      6648      6650
      6650      6648      6651      6652      6648      6651      6652      6648      6650
      6652      6648      6649      6654      6658      6659      6655      6654      6657
      6655      6654      6656      6656      6654      6657      6658      6654      6657
      6658      6654      6656      6658      6654      6655      6660      6664      6665
      6661      6660      6663      6661      6660      6662      6662      6660      6663
      6664      6660      6663      6664      6660      6662      6664      6660      6661
      6666      6670      6671      6667      6666      6669      6667      6666      6668
      6668      6666      6669      6670      6666      6669      6670      6666      6668
      6670      6666      6667      6672      6676      6677      6673      6672      6675
      6673      6672      6674      6674      6672      6675      6676      6672      6675
      6676      6672      6674      6676      6672      6673      6678      6682      6683
      6679      6678      6681      6679      6678      6680      6680      6678      6681
      6682      6678      6681      6682      6678      6680      6682      6678      6679
      6684      6688      6689      6685      6684      6687      6685      6684      6686
      6686      6684      6687      6688      6684      6687      6688      6684      6686
      6688      6684      6685      6690      6694      6695      6691      6690      6693
      6691      6690      6692      6692      6690      6693      6694      6690      6693
      6694      6690      6692      6694      6690      6691      6696      6700      6701
      6697      6696      6699      6697      6696      6698      6698      6696      6699
      6700      6696      6699      6700      6696      6698      6700      6696      6697
      6702      6706      6707      6703      6702      6705      6703      6702      6704
      6704      6702      6705      6706      6702      6705      6706      6702      6704
      6706      6702      6703      6708      6712      6713      6709      6708      6711
      6709      6708      6710      6710      6708      6711      6712      6708      6711
      6712      6708      6710      6712      6708      6709      6714      6718      6719
      6715      6714      6717      6715      6714      6716      6716      6714      6717
      6718      6714      6717      6718      6714      6716      6718      6714      6715
      6720      6724      6725      6721      6720      6723      6721      6720      6722
      6722      6720      6723      6724      6720      6723      6724      6720      6722
      6724      6720      6721      6726      6730      6731      6727      6726      6729
      6727      6726      6728      6728      6726      6729      6730      6726      6729
      6730      6726      6728      6730      6726      6727      6732      6736      6737
      6733      6732      6735      6733      6732      6734      6734      6732      6735
      6736      6732      6735      6736      6732      6734      6736      6732      6733
      6738      6742      6743      6739      6738      6741      6739      6738      6740
      6740      6738      6741      6742      6738      6741      6742      6738      6740
      6742      6738      6739      6744      6748      6749      6745      6744      6747
      6745      6744      6746      6746      6744      6747      6748      6744      6747
      6748      6744      6746      6748      6744      6745      6750      6754      6755
      6751      6750      6753      6751      6750      6752      6752      6750      6753
      6754      6750      6753      6754      6750      6752      6754      6750      6751
      6756      6760      6761      6757      6756      6759      6757      6756      6758
      6758      6756      6759      6760      6756      6759      6760      6756      6758
      6760      6756      6757      6762      6766      6767      6763      6762      6765
      6763      6762      6764      6764      6762      6765      6766      6762      6765
      6766      6762      6764      6766      6762      6763      6768      6772      6773
      6769      6768      6771      6769      6768      6770      6770      6768      6771
      6772      6768      6771      6772      6768      6770      6772      6768      6769
      6774      6778      6779      6775      6774      6777      6775      6774      6776
      6776      6774      6777      6778      6774      6777      6778      6774      6776
      6778      6774      6775      6780      6784      6785      6781      6780      6783
      6781      6780      6782      6782      6780      6783      6784      6780      6783
      6784      6780      6782      6784      6780      6781      6786      6790      6791
      6787      6786      6789      6787      6786      6788      6788      6786      6789
      6790      6786      6789      6790      6786      6788      6790      6786      6787
      6792      6796      6797      6793      6792      6795      6793      6792      6794
      6794      6792      6795      6796      6792      6795      6796      6792      6794
      6796      6792      6793      6798      6802      6803      6799      6798      6801
      6799      6798      6800      6800      6798      6801      6802      6798      6801
      6802      6798      6800      6802      6798      6799      6804      6808      6809
      6805      6804      6807      6805      6804      6806      6806      6804      6807
      6808      6804      6807      6808      6804      6806      6808      6804      6805
      6810      6814      6815      6811      6810      6813      6811      6810      6812
      6812      6810      6813      6814      6810      6813      6814      6810      6812
      6814      6810      6811      6816      6820      6821      6817      6816      6819
      6817      6816      6818      6818      6816      6819      6820      6816      6819
      6820      6816      6818      6820      6816      6817      6822      6826      6827
      6823      6822      6825      6823      6822      6824      6824      6822      6825
      6826      6822      6825      6826      6822      6824      6826      6822      6823
      6828      6832      6833      6829      6828      6831      6829      6828      6830
      6830      6828      6831      6832      6828      6831      6832      6828      6830
      6832      6828      6829      6834      6838      6839      6835      6834      6837
      6835      6834      6836      6836      6834      6837      6838      6834      6837
      6838      6834      6836      6838      6834      6835      6840      6844      6845
      6841      6840      6843      6841      6840      6842      6842      6840      6843
      6844      6840      6843      6844      6840      6842      6844      6840      6841
      6846      6850      6851      6847      6846      6849      6847      6846      6848
      6848      6846      6849      6850      6846      6849      6850      6846      6848
      6850      6846      6847      6852      6856      6857      6853      6852      6855
      6853      6852      6854      6854      6852      6855      6856      6852      6855
      6856      6852      6854      6856      6852      6853      6858      6862      6863
      6859      6858      6861      6859      6858      6860      6860      6858      6861
      6862      6858      6861      6862      6858      6860      6862      6858      6859
      6864      6868      6869      6865      6864      6867      6865      6864      6866
      6866      6864      6867      6868      6864      6867      6868      6864      6866
      6868      6864      6865      6870      6874      6875      6871      6870      6873
      6871      6870      6872      6872      6870      6873      6874      6870      6873
      6874      6870      6872      6874      6870      6871      6876      6880      6881
      6877      6876      6879      6877      6876      6878      6878      6876      6879
      6880      6876      6879      6880      6876      6878      6880      6876      6877
      6882      6886      6887      6883      6882      6885      6883      6882      6884
      6884      6882      6885      6886      6882      6885      6886      6882      6884
      6886      6882      6883      6888      6892      6893      6889      6888      6891
      6889      6888      6890      6890      6888      6891      6892      6888      6891
      6892      6888      6890      6892      6888      6889      6894      6898      6899
      6895      6894      6897      6895      6894      6896      6896      6894      6897
      6898      6894      6897      6898      6894      6896      6898      6894      6895
      6900      6904      6905      6901      6900      6903      6901      6900      6902
      6902      6900      6903      6904      6900      6903      6904      6900      6902
      6904      6900      6901      6906      6910      6911      6907      6906      6909
      6907      6906      6908      6908      6906      6909      6910      6906      6909
      6910      6906      6908      6910      6906      6907      6912      6916      6917
      6913      6912      6915      6913      6912      6914      6914      6912      6915
      6916      6912      6915      6916      6912      6914      6916      6912      6913
      6918      6922      6923      6919      6918      6921      6919      6918      6920
      6920      6918      6921      6922      6918      6921      6922      6918      6920
      6922      6918      6919      6924      6928      6929      6925      6924      6927
      6925      6924      6926      6926      6924      6927      6928      6924      6927
      6928      6924      6926      6928      6924      6925      6930      6934      6935
      6931      6930      6933      6931      6930      6932      6932      6930      6933
      6934      6930      6933      6934      6930      6932      6934      6930      6931
      6936      6940      6941      6937      6936      6939      6937      6936      6938
      6938      6936      6939      6940      6936      6939      6940      6936      6938
      6940      6936      6937      6942      6946      6947      6943      6942      6945
      6943      6942      6944      6944      6942      6945      6946      6942      6945
      6946      6942      6944      6946      6942      6943      6948      6952      6953
      6949      6948      6951      6949      6948      6950      6950      6948      6951
      6952      6948      6951      6952      6948      6950      6952      6948      6949
      6954      6958      6959      6955      6954      6957      6955      6954      6956
      6956      6954      6957      6958      6954      6957      6958      6954      6956
      6958      6954      6955      6960      6964      6965      6961      6960      6963
      6961      6960      6962      6962      6960      6963      6964      6960      6963
      6964      6960      6962      6964      6960      6961      6966      6970      6971
      6967      6966      6969      6967      6966      6968      6968      6966      6969
      6970      6966      6969      6970      6966      6968      6970      6966      6967
      6972      6976      6977      6973      6972      6975      6973      6972      6974
      6974      6972      6975      6976      6972      6975      6976      6972      6974
      6976      6972      6973      6978      6982      6983      6979      6978      6981
      6979      6978      6980      6980      6978      6981      6982      6978      6981
      6982      6978      6980      6982      6978      6979      6984      6988      6989
      6985      6984      6987      6985      6984      6986      6986      6984      6987
      6988      6984      6987      6988      6984      6986      6988      6984      6985
      6990      6994      6995      6991      6990      6993      6991      6990      6992
      6992      6990      6993      6994      6990      6993      6994      6990      6992
      6994      6990      6991      6996      7000      7001      6997      6996      6999
      6997      6996      6998      6998      6996      6999      7000      6996      6999
      7000      6996      6998      7000      6996      6997      7002      7006      7007
      7003      7002      7005      7003      7002      7004      7004      7002      7005
      7006      7002      7005      7006      7002      7004      7006      7002      7003
      7008      7012      7013      7009      7008      7011      7009      7008      7010
      7010      7008      7011      7012      7008      7011      7012      7008      7010
      7012      7008      7009      7014      7018      7019      7015      7014      7017
      7015      7014      7016      7016      7014      7017      7018      7014      7017
      7018      7014      7016      7018      7014      7015      7020      7024      7025
      7021      7020      7023      7021      7020      7022      7022      7020      7023
      7024      7020      7023      7024      7020      7022      7024      7020      7021
      7026      7030      7031      7027      7026      7029      7027      7026      7028
      7028      7026      7029      7030      7026      7029      7030      7026      7028
      7030      7026      7027      7032      7036      7037      7033      7032      7035
      7033      7032      7034      7034      7032      7035      7036      7032      7035
      7036      7032      7034      7036      7032      7033      7038      7042      7043
      7039      7038      7041      7039      7038      7040      7040      7038      7041
      7042      7038      7041      7042      7038      7040      7042      7038      7039
      7044      7048      7049      7045      7044      7047      7045      7044      7046
      7046      7044      7047      7048      7044      7047      7048      7044      7046
      7048      7044      7045      7050      7054      7055      7051      7050      7053
      7051      7050      7052      7052      7050      7053      7054      7050      7053
      7054      7050      7052      7054      7050      7051      7056      7060      7061
      7057      7056      7059      7057      7056      7058      7058      7056      7059
      7060      7056      7059      7060      7056      7058      7060      7056      7057
      7062      7066      7067      7063      7062      7065      7063      7062      7064
      7064      7062      7065      7066      7062      7065      7066      7062      7064
      7066      7062      7063      7068      7072      7073      7069      7068      7071
      7069      7068      7070      7070      7068      7071      7072      7068      7071
      7072      7068      7070      7072      7068      7069      7074      7078      7079
      7075      7074      7077      7075      7074      7076      7076      7074      7077
      7078      7074      7077      7078      7074      7076      7078      7074      7075
      7080      7084      7085      7081      7080      7083      7081      7080      7082
      7082      7080      7083      7084      7080      7083      7084      7080      7082
      7084      7080      7081      7086      7090      7091      7087      7086      7089
      7087      7086      7088      7088      7086      7089      7090      7086      7089
      7090      7086      7088      7090      7086      7087      7092      7096      7097
      7093      7092      7095      7093      7092      7094      7094      7092      7095
      7096      7092      7095      7096      7092      7094      7096      7092      7093
      7098      7102      7103      7099      7098      7101      7099      7098      7100
      7100      7098      7101      7102      7098      7101      7102      7098      7100
      7102      7098      7099      7104      7108      7109      7105      7104      7107
      7105      7104      7106      7106      7104      7107      7108      7104      7107
      7108      7104      7106      7108      7104      7105      7110      7114      7115
      7111      7110      7113      7111      7110      7112      7112      7110      7113
      7114      7110      7113      7114      7110      7112      7114      7110      7111
      7116      7120      7121      7117      7116      7119      7117      7116      7118
      7118      7116      7119      7120      7116      7119      7120      7116      7118
      7120      7116      7117      7122      7126      7127      7123      7122      7125
      7123      7122      7124      7124      7122      7125      7126      7122      7125
      7126      7122      7124      7126      7122      7123      7128      7132      7133
      7129      7128      7131      7129      7128      7130      7130      7128      7131
      7132      7128      7131      7132      7128      7130      7132      7128      7129
      7134      7138      7139      7135      7134      7137      7135      7134      7136
      7136      7134      7137      7138      7134      7137      7138      7134      7136
      7138      7134      7135      7140      7144      7145      7141      7140      7143
      7141      7140      7142      7142      7140      7143      7144      7140      7143
      7144      7140      7142      7144      7140      7141      7146      7150      7151
      7147      7146      7149      7147      7146      7148      7148      7146      7149
      7150      7146      7149      7150      7146      7148      7150      7146      7147
      7152      7156      7157      7153      7152      7155      7153      7152      7154
      7154      7152      7155      7156      7152      7155      7156      7152      7154
      7156      7152      7153      7158      7162      7163      7159      7158      7161
      7159      7158      7160      7160      7158      7161      7162      7158      7161
      7162      7158      7160      7162      7158      7159      7164      7168      7169
      7165      7164      7167      7165      7164      7166      7166      7164      7167
      7168      7164      7167      7168      7164      7166      7168      7164      7165
      7170      7174      7175      7171      7170      7173      7171      7170      7172
      7172      7170      7173      7174      7170      7173      7174      7170      7172
      7174      7170      7171      7176      7180      7181      7177      7176      7179
      7177      7176      7178      7178      7176      7179      7180      7176      7179
      7180      7176      7178      7180      7176      7177      7182      7186      7187
      7183      7182      7185      7183      7182      7184      7184      7182      7185
      7186      7182      7185      7186      7182      7184      7186      7182      7183
      7188      7192      7193      7189      7188      7191      7189      7188      7190
      7190      7188      7191      7192      7188      7191      7192      7188      7190
      7192      7188      7189      7194      7198      7199      7195      7194      7197
      7195      7194      7196      7196      7194      7197      7198      7194      7197
      7198      7194      7196      7198      7194      7195      7200      7204      7205
      7201      7200      7203      7201      7200      7202      7202      7200      7203
      7204      7200      7203      7204      7200      7202      7204      7200      7201
      7206      7210      7211      7207      7206      7209      7207      7206      7208
      7208      7206      7209      7210      7206      7209      7210      7206      7208
      7210      7206      7207      7212      7216      7217      7213      7212      7215
      7213      7212      7214      7214      7212      7215      7216      7212      7215
      7216      7212      7214      7216      7212      7213      7218      7222      7223
      7219      7218      7221      7219      7218      7220      7220      7218      7221
      7222      7218      7221      7222      7218      7220      7222      7218      7219
      7224      7228      7229      7225      7224      7227      7225      7224      7226
      7226      7224      7227      7228      7224      7227      7228      7224      7226
      7228      7224      7225      7230      7234      7235      7231      7230      7233
      7231      7230      7232      7232      7230      7233      7234      7230      7233
      7234      7230      7232      7234      7230      7231      7236      7240      7241
      7237      7236      7239      7237      7236      7238      7238      7236      7239
      7240      7236      7239      7240      7236      7238      7240      7236      7237
      7242      7246      7247      7243      7242      7245      7243      7242      7244
      7244      7242      7245      7246      7242      7245      7246      7242      7244
      7246      7242      7243      7248      7252      7253      7249      7248      7251
      7249      7248      7250      7250      7248      7251      7252      7248      7251
      7252      7248      7250      7252      7248      7249      7254      7258      7259
      7255      7254      7257      7255      7254      7256      7256      7254      7257
      7258      7254      7257      7258      7254      7256      7258      7254      7255
      7260      7264      7265      7261      7260      7263      7261      7260      7262
      7262      7260      7263      7264      7260      7263      7264      7260      7262
      7264      7260      7261      7266      7270      7271      7267      7266      7269
      7267      7266      7268      7268      7266      7269      7270      7266      7269
      7270      7266      7268      7270      7266      7267      7272      7276      7277
      7273      7272      7275      7273      7272      7274      7274      7272      7275
      7276      7272      7275      7276      7272      7274      7276      7272      7273
      7278      7282      7283      7279      7278      7281      7279      7278      7280
      7280      7278      7281      7282      7278      7281      7282      7278      7280
      7282      7278      7279      7284      7288      7289      7285      7284      7287
      7285      7284      7286      7286      7284      7287      7288      7284      7287
      7288      7284      7286      7288      7284      7285      7290      7294      7295
      7291      7290      7293      7291      7290      7292      7292      7290      7293
      7294      7290      7293      7294      7290      7292      7294      7290      7291
      7296      7300      7301      7297      7296      7299      7297      7296      7298
      7298      7296      7299      7300      7296      7299      7300      7296      7298
      7300      7296      7297      7302      7306      7307      7303      7302      7305
      7303      7302      7304      7304      7302      7305      7306      7302      7305
      7306      7302      7304      7306      7302      7303      7308      7312      7313
      7309      7308      7311      7309      7308      7310      7310      7308      7311
      7312      7308      7311      7312      7308      7310      7312      7308      7309
      7314      7318      7319      7315      7314      7317      7315      7314      7316
      7316      7314      7317      7318      7314      7317      7318      7314      7316
      7318      7314      7315      7320      7324      7325      7321      7320      7323
      7321      7320      7322      7322      7320      7323      7324      7320      7323
      7324      7320      7322      7324      7320      7321      7326      7330      7331
      7327      7326      7329      7327      7326      7328      7328      7326      7329
      7330      7326      7329      7330      7326      7328      7330      7326      7327
      7332      7336      7337      7333      7332      7335      7333      7332      7334
      7334      7332      7335      7336      7332      7335      7336      7332      7334
      7336      7332      7333      7338      7342      7343      7339      7338      7341
      7339      7338      7340      7340      7338      7341      7342      7338      7341
      7342      7338      7340      7342      7338      7339      7344      7348      7349
      7345      7344      7347      7345      7344      7346      7346      7344      7347
      7348      7344      7347      7348      7344      7346      7348      7344      7345
      7350      7354      7355      7351      7350      7353      7351      7350      7352
      7352      7350      7353      7354      7350      7353      7354      7350      7352
      7354      7350      7351      7356      7360      7361      7357      7356      7359
      7357      7356      7358      7358      7356      7359      7360      7356      7359
      7360      7356      7358      7360      7356      7357      7362      7366      7367
      7363      7362      7365      7363      7362      7364      7364      7362      7365
      7366      7362      7365      7366      7362      7364      7366      7362      7363
      7368      7372      7373      7369      7368      7371      7369      7368      7370
      7370      7368      7371      7372      7368      7371      7372      7368      7370
      7372      7368      7369      7374      7378      7379      7375      7374      7377
      7375      7374      7376      7376      7374      7377      7378      7374      7377
      7378      7374      7376      7378      7374      7375      7380      7384      7385
      7381      7380      7383      7381      7380      7382      7382      7380      7383
      7384      7380      7383      7384      7380      7382      7384      7380      7381
      7386      7390      7391      7387      7386      7389      7387      7386      7388
      7388      7386      7389      7390      7386      7389      7390      7386      7388
      7390      7386      7387      7392      7396      7397      7393      7392      7395
      7393      7392      7394      7394      7392      7395      7396      7392      7395
      7396      7392      7394      7396      7392      7393      7398      7402      7403
      7399      7398      7401      7399      7398      7400      7400      7398      7401
      7402      7398      7401      7402      7398      7400      7402      7398      7399
      7404      7408      7409      7405      7404      7407      7405      7404      7406
      7406      7404      7407      7408      7404      7407      7408      7404      7406
      7408      7404      7405      7410      7414      7415      7411      7410      7413
      7411      7410      7412      7412      7410      7413      7414      7410      7413
      7414      7410      7412      7414      7410      7411      7416      7420      7421
      7417      7416      7419      7417      7416      7418      7418      7416      7419
      7420      7416      7419      7420      7416      7418      7420      7416      7417
      7422      7426      7427      7423      7422      7425      7423      7422      7424
      7424      7422      7425      7426      7422      7425      7426      7422      7424
      7426      7422      7423      7428      7432      7433      7429      7428      7431
      7429      7428      7430      7430      7428      7431      7432      7428      7431
      7432      7428      7430      7432      7428      7429      7434      7438      7439
      7435      7434      7437      7435      7434      7436      7436      7434      7437
      7438      7434      7437      7438      7434      7436      7438      7434      7435
      7440      7444      7445      7441      7440      7443      7441      7440      7442
      7442      7440      7443      7444      7440      7443      7444      7440      7442
      7444      7440      7441      7446      7450      7451      7447      7446      7449
      7447      7446      7448      7448      7446      7449      7450      7446      7449
      7450      7446      7448      7450      7446      7447      7452      7456      7457
      7453      7452      7455      7453      7452      7454      7454      7452      7455
      7456      7452      7455      7456      7452      7454      7456      7452      7453
      7458      7462      7463      7459      7458      7461      7459      7458      7460
      7460      7458      7461      7462      7458      7461      7462      7458      7460
      7462      7458      7459      7464      7468      7469      7465      7464      7467
      7465      7464      7466      7466      7464      7467      7468      7464      7467
      7468      7464      7466      7468      7464      7465      7470      7474      7475
      7471      7470      7473      7471      7470      7472      7472      7470      7473
      7474      7470      7473      7474      7470      7472      7474      7470      7471
      7476      7480      7481      7477      7476      7479      7477      7476      7478
      7478      7476      7479      7480      7476      7479      7480      7476      7478
      7480      7476      7477      7482      7486      7487      7483      7482      7485
      7483      7482      7484      7484      7482      7485      7486      7482      7485
      7486      7482      7484      7486      7482      7483      7488      7492      7493
      7489      7488      7491      7489      7488      7490      7490      7488      7491
      7492      7488      7491      7492      7488      7490      7492      7488      7489
      7494      7498      7499      7495      7494      7497      7495      7494      7496
      7496      7494      7497      7498      7494      7497      7498      7494      7496
      7498      7494      7495      7500      7504      7505      7501      7500      7503
      7501      7500      7502      7502      7500      7503      7504      7500      7503
      7504      7500      7502      7504      7500      7501      7506      7510      7511
      7507      7506      7509      7507      7506      7508      7508      7506      7509
      7510      7506      7509      7510      7506      7508      7510      7506      7507
      7512      7516      7517      7513      7512      7515      7513      7512      7514
      7514      7512      7515      7516      7512      7515      7516      7512      7514
      7516      7512      7513      7518      7522      7523      7519      7518      7521
      7519      7518      7520      7520      7518      7521      7522      7518      7521
      7522      7518      7520      7522      7518      7519      7524      7528      7529
      7525      7524      7527      7525      7524      7526      7526      7524      7527
      7528      7524      7527      7528      7524      7526      7528      7524      7525
      7530      7534      7535      7531      7530      7533      7531      7530      7532
      7532      7530      7533      7534      7530      7533      7534      7530      7532
      7534      7530      7531      7536      7540      7541      7537      7536      7539
      7537      7536      7538      7538      7536      7539      7540      7536      7539
      7540      7536      7538      7540      7536      7537      7542      7546      7547
      7543      7542      7545      7543      7542      7544      7544      7542      7545
      7546      7542      7545      7546      7542      7544      7546      7542      7543
      7548      7552      7553      7549      7548      7551      7549      7548      7550
      7550      7548      7551      7552      7548      7551      7552      7548      7550
      7552      7548      7549      7554      7558      7559      7555      7554      7557
      7555      7554      7556      7556      7554      7557      7558      7554      7557
      7558      7554      7556      7558      7554      7555      7560      7564      7565
      7561      7560      7563      7561      7560      7562      7562      7560      7563
      7564      7560      7563      7564      7560      7562      7564      7560      7561
      7566      7570      7571      7567      7566      7569      7567      7566      7568
      7568      7566      7569      7570      7566      7569      7570      7566      7568
      7570      7566      7567      7572      7576      7577      7573      7572      7575
      7573      7572      7574      7574      7572      7575      7576      7572      7575
      7576      7572      7574      7576      7572      7573      7578      7582      7583
      7579      7578      7581      7579      7578      7580      7580      7578      7581
      7582      7578      7581      7582      7578      7580      7582      7578      7579
      7584      7588      7589      7585      7584      7587      7585      7584      7586
      7586      7584      7587      7588      7584      7587      7588      7584      7586
      7588      7584      7585      7590      7594      7595      7591      7590      7593
      7591      7590      7592      7592      7590      7593      7594      7590      7593
      7594      7590      7592      7594      7590      7591      7596      7600      7601
      7597      7596      7599      7597      7596      7598      7598      7596      7599
      7600      7596      7599      7600      7596      7598      7600      7596      7597
      7602      7606      7607      7603      7602      7605      7603      7602      7604
      7604      7602      7605      7606      7602      7605      7606      7602      7604
      7606      7602      7603      7608      7612      7613      7609      7608      7611
      7609      7608      7610      7610      7608      7611      7612      7608      7611
      7612      7608      7610      7612      7608      7609      7614      7618      7619
      7615      7614      7617      7615      7614      7616      7616      7614      7617
      7618      7614      7617      7618      7614      7616      7618      7614      7615
      7620      7624      7625      7621      7620      7623      7621      7620      7622
      7622      7620      7623      7624      7620      7623      7624      7620      7622
      7624      7620      7621      7626      7630      7631      7627      7626      7629
      7627      7626      7628      7628      7626      7629      7630      7626      7629
      7630      7626      7628      7630      7626      7627      7632      7636      7637
      7633      7632      7635      7633      7632      7634      7634      7632      7635
      7636      7632      7635      7636      7632      7634      7636      7632      7633
      7638      7642      7643      7639      7638      7641      7639      7638      7640
      7640      7638      7641      7642      7638      7641      7642      7638      7640
      7642      7638      7639      7644      7648      7649      7645      7644      7647
      7645      7644      7646      7646      7644      7647      7648      7644      7647
      7648      7644      7646      7648      7644      7645      7650      7654      7655
      7651      7650      7653      7651      7650      7652      7652      7650      7653
      7654      7650      7653      7654      7650      7652      7654      7650      7651
      7656      7660      7661      7657      7656      7659      7657      7656      7658
      7658      7656      7659      7660      7656      7659      7660      7656      7658
      7660      7656      7657      7662      7666      7667      7663      7662      7665
      7663      7662      7664      7664      7662      7665      7666      7662      7665
      7666      7662      7664      7666      7662      7663      7668      7672      7673
      7669      7668      7671      7669      7668      7670      7670      7668      7671
      7672      7668      7671      7672      7668      7670      7672      7668      7669
      7674      7678      7679      7675      7674      7677      7675      7674      7676
      7676      7674      7677      7678      7674      7677      7678      7674      7676
      7678      7674      7675      7680      7684      7685      7681      7680      7683
      7681      7680      7682      7682      7680      7683      7684      7680      7683
      7684      7680      7682      7684      7680      7681      7686      7690      7691
      7687      7686      7689      7687      7686      7688      7688      7686      7689
      7690      7686      7689      7690      7686      7688      7690      7686      7687
      7692      7696      7697      7693      7692      7695      7693      7692      7694
      7694      7692      7695      7696      7692      7695      7696      7692      7694
      7696      7692      7693      7698      7702      7703      7699      7698      7701
      7699      7698      7700      7700      7698      7701      7702      7698      7701
      7702      7698      7700      7702      7698      7699      7704      7708      7709
      7705      7704      7707      7705      7704      7706      7706      7704      7707
      7708      7704      7707      7708      7704      7706      7708      7704      7705
      7710      7714      7715      7711      7710      7713      7711      7710      7712
      7712      7710      7713      7714      7710      7713      7714      7710      7712
      7714      7710      7711      7716      7720      7721      7717      7716      7719
      7717      7716      7718      7718      7716      7719      7720      7716      7719
      7720      7716      7718      7720      7716      7717      7722      7726      7727
      7723      7722      7725      7723      7722      7724      7724      7722      7725
      7726      7722      7725      7726      7722      7724      7726      7722      7723
      7728      7732      7733      7729      7728      7731      7729      7728      7730
      7730      7728      7731      7732      7728      7731      7732      7728      7730
      7732      7728      7729      7734      7738      7739      7735      7734      7737
      7735      7734      7736      7736      7734      7737      7738      7734      7737
      7738      7734      7736      7738      7734      7735      7740      7744      7745
      7741      7740      7743      7741      7740      7742      7742      7740      7743
      7744      7740      7743      7744      7740      7742      7744      7740      7741
      7746      7750      7751      7747      7746      7749      7747      7746      7748
      7748      7746      7749      7750      7746      7749      7750      7746      7748
      7750      7746      7747      7752      7756      7757      7753      7752      7755
      7753      7752      7754      7754      7752      7755      7756      7752      7755
      7756      7752      7754      7756      7752      7753      7758      7762      7763
      7759      7758      7761      7759      7758      7760      7760      7758      7761
      7762      7758      7761      7762      7758      7760      7762      7758      7759
      7764      7768      7769      7765      7764      7767      7765      7764      7766
      7766      7764      7767      7768      7764      7767      7768      7764      7766
      7768      7764      7765      7770      7774      7775      7771      7770      7773
      7771      7770      7772      7772      7770      7773      7774      7770      7773
      7774      7770      7772      7774      7770      7771      7776      7780      7781
      7777      7776      7779      7777      7776      7778      7778      7776      7779
      7780      7776      7779      7780      7776      7778      7780      7776      7777
      7782      7786      7787      7783      7782      7785      7783      7782      7784
      7784      7782      7785      7786      7782      7785      7786      7782      7784
      7786      7782      7783      7788      7792      7793      7789      7788      7791
      7789      7788      7790      7790      7788      7791      7792      7788      7791
      7792      7788      7790      7792      7788      7789      7794      7798      7799
      7795      7794      7797      7795      7794      7796      7796      7794      7797
      7798      7794      7797      7798      7794      7796      7798      7794      7795
      7800      7804      7805      7801      7800      7803      7801      7800      7802
      7802      7800      7803      7804      7800      7803      7804      7800      7802
      7804      7800      7801      7806      7810      7811      7807      7806      7809
      7807      7806      7808      7808      7806      7809      7810      7806      7809
      7810      7806      7808      7810      7806      7807      7812      7816      7817
      7813      7812      7815      7813      7812      7814      7814      7812      7815
      7816      7812      7815      7816      7812      7814      7816      7812      7813
      7818      7822      7823      7819      7818      7821      7819      7818      7820
      7820      7818      7821      7822      7818      7821      7822      7818      7820
      7822      7818      7819      7824      7828      7829      7825      7824      7827
      7825      7824      7826      7826      7824      7827      7828      7824      7827
      7828      7824      7826      7828      7824      7825      7830      7834      7835
      7831      7830      7833      7831      7830      7832      7832      7830      7833
      7834      7830      7833      7834      7830      7832      7834      7830      7831
      7836      7840      7841      7837      7836      7839      7837      7836      7838
      7838      7836      7839      7840      7836      7839      7840      7836      7838
      7840      7836      7837      7842      7846      7847      7843      7842      7845
      7843      7842      7844      7844      7842      7845      7846      7842      7845
      7846      7842      7844      7846      7842      7843      7848      7852      7853
      7849      7848      7851      7849      7848      7850      7850      7848      7851
      7852      7848      7851      7852      7848      7850      7852      7848      7849
      7854      7858      7859      7855      7854      7857      7855      7854      7856
      7856      7854      7857      7858      7854      7857      7858      7854      7856
      7858      7854      7855      7860      7864      7865      7861      7860      7863
      7861      7860      7862      7862      7860      7863      7864      7860      7863
      7864      7860      7862      7864      7860      7861      7866      7870      7871
      7867      7866      7869      7867      7866      7868      7868      7866      7869
      7870      7866      7869      7870      7866      7868      7870      7866      7867
      7872      7876      7877      7873      7872      7875      7873      7872      7874
      7874      7872      7875      7876      7872      7875      7876      7872      7874
      7876      7872      7873      7878      7882      7883      7879      7878      7881
      7879      7878      7880      7880      7878      7881      7882      7878      7881
      7882      7878      7880      7882      7878      7879      7884      7888      7889
      7885      7884      7887      7885      7884      7886      7886      7884      7887
      7888      7884      7887      7888      7884      7886      7888      7884      7885
      7890      7894      7895      7891      7890      7893      7891      7890      7892
      7892      7890      7893      7894      7890      7893      7894      7890      7892
      7894      7890      7891      7896      7900      7901      7897      7896      7899
      7897      7896      7898      7898      7896      7899      7900      7896      7899
      7900      7896      7898      7900      7896      7897      7902      7906      7907
      7903      7902      7905      7903      7902      7904      7904      7902      7905
      7906      7902      7905      7906      7902      7904      7906      7902      7903
      7908      7912      7913      7909      7908      7911      7909      7908      7910
      7910      7908      7911      7912      7908      7911      7912      7908      7910
      7912      7908      7909      7914      7918      7919      7915      7914      7917
      7915      7914      7916      7916      7914      7917      7918      7914      7917
      7918      7914      7916      7918      7914      7915      7920      7924      7925
      7921      7920      7923      7921      7920      7922      7922      7920      7923
      7924      7920      7923      7924      7920      7922      7924      7920      7921
      7926      7930      7931      7927      7926      7929      7927      7926      7928
      7928      7926      7929      7930      7926      7929      7930      7926      7928
      7930      7926      7927      7932      7936      7937      7933      7932      7935
      7933      7932      7934      7934      7932      7935      7936      7932      7935
      7936      7932      7934      7936      7932      7933      7938      7942      7943
      7939      7938      7941      7939      7938      7940      7940      7938      7941
      7942      7938      7941      7942      7938      7940      7942      7938      7939
      7944      7948      7949      7945      7944      7947      7945      7944      7946
      7946      7944      7947      7948      7944      7947      7948      7944      7946
      7948      7944      7945      7950      7954      7955      7951      7950      7953
      7951      7950      7952      7952      7950      7953      7954      7950      7953
      7954      7950      7952      7954      7950      7951      7956      7960      7961
      7957      7956      7959      7957      7956      7958      7958      7956      7959
      7960      7956      7959      7960      7956      7958      7960      7956      7957
      7962      7966      7967      7963      7962      7965      7963      7962      7964
      7964      7962      7965      7966      7962      7965      7966      7962      7964
      7966      7962      7963      7968      7972      7973      7969      7968      7971
      7969      7968      7970      7970      7968      7971      7972      7968      7971
      7972      7968      7970      7972      7968      7969      7974      7978      7979
      7975      7974      7977      7975      7974      7976      7976      7974      7977
      7978      7974      7977      7978      7974      7976      7978      7974      7975
      7980      7984      7985      7981      7980      7983      7981      7980      7982
      7982      7980      7983      7984      7980      7983      7984      7980      7982
      7984      7980      7981      7986      7990      7991      7987      7986      7989
      7987      7986      7988      7988      7986      7989      7990      7986      7989
      7990      7986      7988      7990      7986      7987      7992      7996      7997
      7993      7992      7995      7993      7992      7994      7994      7992      7995
      7996      7992      7995      7996      7992      7994      7996      7992      7993
      7998      8002      8003      7999      7998      8001      7999      7998      8000
      8000      7998      8001      8002      7998      8001      8002      7998      8000
      8002      7998      7999      8004      8008      8009      8005      8004      8007
      8005      8004      8006      8006      8004      8007      8008      8004      8007
      8008      8004      8006      8008      8004      8005      8010      8014      8015
      8011      8010      8013      8011      8010      8012      8012      8010      8013
      8014      8010      8013      8014      8010      8012      8014      8010      8011
      8016      8020      8021      8017      8016      8019      8017      8016      8018
      8018      8016      8019      8020      8016      8019      8020      8016      8018
      8020      8016      8017      8022      8026      8027      8023      8022      8025
      8023      8022      8024      8024      8022      8025      8026      8022      8025
      8026      8022      8024      8026      8022      8023      8028      8032      8033
      8029      8028      8031      8029      8028      8030      8030      8028      8031
      8032      8028      8031      8032      8028      8030      8032      8028      8029
      8034      8038      8039      8035      8034      8037      8035      8034      8036
      8036      8034      8037      8038      8034      8037      8038      8034      8036
      8038      8034      8035      8040      8044      8045      8041      8040      8043
      8041      8040      8042      8042      8040      8043      8044      8040      8043
      8044      8040      8042      8044      8040      8041      8046      8050      8051
      8047      8046      8049      8047      8046      8048      8048      8046      8049
      8050      8046      8049      8050      8046      8048      8050      8046      8047
      8052      8056      8057      8053      8052      8055      8053      8052      8054
      8054      8052      8055      8056      8052      8055      8056      8052      8054
      8056      8052      8053      8058      8062      8063      8059      8058      8061
      8059      8058      8060      8060      8058      8061      8062      8058      8061
      8062      8058      8060      8062      8058      8059      8064      8068      8069
      8065      8064      8067      8065      8064      8066      8066      8064      8067
      8068      8064      8067      8068      8064      8066      8068      8064      8065
      8070      8074      8075      8071      8070      8073      8071      8070      8072
      8072      8070      8073      8074      8070      8073      8074      8070      8072
      8074      8070      8071      8076      8080      8081      8077      8076      8079
      8077      8076      8078      8078      8076      8079      8080      8076      8079
      8080      8076      8078      8080      8076      8077      8082      8086      8087
      8083      8082      8085      8083      8082      8084      8084      8082      8085
      8086      8082      8085      8086      8082      8084      8086      8082      8083
      8088      8092      8093      8089      8088      8091      8089      8088      8090
      8090      8088      8091      8092      8088      8091      8092      8088      8090
      8092      8088      8089      8094      8098      8099      8095      8094      8097
      8095      8094      8096      8096      8094      8097      8098      8094      8097
      8098      8094      8096      8098      8094      8095      8100      8104      8105
      8101      8100      8103      8101      8100      8102      8102      8100      8103
      8104      8100      8103      8104      8100      8102      8104      8100      8101
      8106      8110      8111      8107      8106      8109      8107      8106      8108
      8108      8106      8109      8110      8106      8109      8110      8106      8108
      8110      8106      8107      8112      8116      8117      8113      8112      8115
      8113      8112      8114      8114      8112      8115      8116      8112      8115
      8116      8112      8114      8116      8112      8113      8118      8122      8123
      8119      8118      8121      8119      8118      8120      8120      8118      8121
      8122      8118      8121      8122      8118      8120      8122      8118      8119
      8124      8128      8129      8125      8124      8127      8125      8124      8126
      8126      8124      8127      8128      8124      8127      8128      8124      8126
      8128      8124      8125      8130      8134      8135      8131      8130      8133
      8131      8130      8132      8132      8130      8133      8134      8130      8133
      8134      8130      8132      8134      8130      8131      8136      8140      8141
      8137      8136      8139      8137      8136      8138      8138      8136      8139
      8140      8136      8139      8140      8136      8138      8140      8136      8137
      8142      8146      8147      8143      8142      8145      8143      8142      8144
      8144      8142      8145      8146      8142      8145      8146      8142      8144
      8146      8142      8143      8148      8152      8153      8149      8148      8151
      8149      8148      8150      8150      8148      8151      8152      8148      8151
      8152      8148      8150      8152      8148      8149      8154      8158      8159
      8155      8154      8157      8155      8154      8156      8156      8154      8157
      8158      8154      8157      8158      8154      8156      8158      8154      8155
      8160      8164      8165      8161      8160      8163      8161      8160      8162
      8162      8160      8163      8164      8160      8163      8164      8160      8162
      8164      8160      8161      8166      8170      8171      8167      8166      8169
      8167      8166      8168      8168      8166      8169      8170      8166      8169
      8170      8166      8168      8170      8166      8167      8172      8176      8177
      8173      8172      8175      8173      8172      8174      8174      8172      8175
      8176      8172      8175      8176      8172      8174      8176      8172      8173
      8178      8182      8183      8179      8178      8181      8179      8178      8180
      8180      8178      8181      8182      8178      8181      8182      8178      8180
      8182      8178      8179      8184      8188      8189      8185      8184      8187
      8185      8184      8186      8186      8184      8187      8188      8184      8187
      8188      8184      8186      8188      8184      8185      8190      8194      8195
      8191      8190      8193      8191      8190      8192      8192      8190      8193
      8194      8190      8193      8194      8190      8192      8194      8190      8191
      8196      8200      8201      8197      8196      8199      8197      8196      8198
      8198      8196      8199      8200      8196      8199      8200      8196      8198
      8200      8196      8197      8202      8206      8207      8203      8202      8205
      8203      8202      8204      8204      8202      8205      8206      8202      8205
      8206      8202      8204      8206      8202      8203      8208      8212      8213
      8209      8208      8211      8209      8208      8210      8210      8208      8211
      8212      8208      8211      8212      8208      8210      8212      8208      8209
      8214      8218      8219      8215      8214      8217      8215      8214      8216
      8216      8214      8217      8218      8214      8217      8218      8214      8216
      8218      8214      8215      8220      8224      8225      8221      8220      8223
      8221      8220      8222      8222      8220      8223      8224      8220      8223
      8224      8220      8222      8224      8220      8221      8226      8230      8231
      8227      8226      8229      8227      8226      8228      8228      8226      8229
      8230      8226      8229      8230      8226      8228      8230      8226      8227
      8232      8236      8237      8233      8232      8235      8233      8232      8234
      8234      8232      8235      8236      8232      8235      8236      8232      8234
      8236      8232      8233      8238      8242      8243      8239      8238      8241
      8239      8238      8240      8240      8238      8241      8242      8238      8241
      8242      8238      8240      8242      8238      8239      8244      8248      8249
      8245      8244      8247      8245      8244      8246      8246      8244      8247
      8248      8244      8247      8248      8244      8246      8248      8244      8245
      8250      8254      8255      8251      8250      8253      8251      8250      8252
      8252      8250      8253      8254      8250      8253      8254      8250      8252
      8254      8250      8251      8256      8260      8261      8257      8256      8259
      8257      8256      8258      8258      8256      8259      8260      8256      8259
      8260      8256      8258      8260      8256      8257      8262      8266      8267
      8263      8262      8265      8263      8262      8264      8264      8262      8265
      8266      8262      8265      8266      8262      8264      8266      8262      8263
      8268      8272      8273      8269      8268      8271      8269      8268      8270
      8270      8268      8271      8272      8268      8271      8272      8268      8270
      8272      8268      8269      8274      8278      8279      8275      8274      8277
      8275      8274      8276      8276      8274      8277      8278      8274      8277
      8278      8274      8276      8278      8274      8275      8280      8284      8285
      8281      8280      8283      8281      8280      8282      8282      8280      8283
      8284      8280      8283      8284      8280      8282      8284      8280      8281
      8286      8290      8291      8287      8286      8289      8287      8286      8288
      8288      8286      8289      8290      8286      8289      8290      8286      8288
      8290      8286      8287      8292      8296      8297      8293      8292      8295
      8293      8292      8294      8294      8292      8295      8296      8292      8295
      8296      8292      8294      8296      8292      8293      8298      8302      8303
      8299      8298      8301      8299      8298      8300      8300      8298      8301
      8302      8298      8301      8302      8298      8300      8302      8298      8299
      8304      8308      8309      8305      8304      8307      8305      8304      8306
      8306      8304      8307      8308      8304      8307      8308      8304      8306
      8308      8304      8305      8310      8314      8315      8311      8310      8313
      8311      8310      8312      8312      8310      8313      8314      8310      8313
      8314      8310      8312      8314      8310      8311      8316      8320      8321
      8317      8316      8319      8317      8316      8318      8318      8316      8319
      8320      8316      8319      8320      8316      8318      8320      8316      8317
      8322      8326      8327      8323      8322      8325      8323      8322      8324
      8324      8322      8325      8326      8322      8325      8326      8322      8324
      8326      8322      8323      8328      8332      8333      8329      8328      8331
      8329      8328      8330      8330      8328      8331      8332      8328      8331
      8332      8328      8330      8332      8328      8329      8334      8338      8339
      8335      8334      8337      8335      8334      8336      8336      8334      8337
      8338      8334      8337      8338      8334      8336      8338      8334      8335
      8340      8344      8345      8341      8340      8343      8341      8340      8342
      8342      8340      8343      8344      8340      8343      8344      8340      8342
      8344      8340      8341      8346      8350      8351      8347      8346      8349
      8347      8346      8348      8348      8346      8349      8350      8346      8349
      8350      8346      8348      8350      8346      8347      8352      8356      8357
      8353      8352      8355      8353      8352      8354      8354      8352      8355
      8356      8352      8355      8356      8352      8354      8356      8352      8353
      8358      8362      8363      8359      8358      8361      8359      8358      8360
      8360      8358      8361      8362      8358      8361      8362      8358      8360
      8362      8358      8359      8364      8368      8369      8365      8364      8367
      8365      8364      8366      8366      8364      8367      8368      8364      8367
      8368      8364      8366      8368      8364      8365      8370      8374      8375
      8371      8370      8373      8371      8370      8372      8372      8370      8373
      8374      8370      8373      8374      8370      8372      8374      8370      8371
      8376      8380      8381      8377      8376      8379      8377      8376      8378
      8378      8376      8379      8380      8376      8379      8380      8376      8378
      8380      8376      8377      8382      8386      8387      8383      8382      8385
      8383      8382      8384      8384      8382      8385      8386      8382      8385
      8386      8382      8384      8386      8382      8383      8388      8392      8393
      8389      8388      8391      8389      8388      8390      8390      8388      8391
      8392      8388      8391      8392      8388      8390      8392      8388      8389
      8394      8398      8399      8395      8394      8397      8395      8394      8396
      8396      8394      8397      8398      8394      8397      8398      8394      8396
      8398      8394      8395      8400      8404      8405      8401      8400      8403
      8401      8400      8402      8402      8400      8403      8404      8400      8403
      8404      8400      8402      8404      8400      8401      8406      8410      8411
      8407      8406      8409      8407      8406      8408      8408      8406      8409
      8410      8406      8409      8410      8406      8408      8410      8406      8407
      8412      8416      8417      8413      8412      8415      8413      8412      8414
      8414      8412      8415      8416      8412      8415      8416      8412      8414
      8416      8412      8413      8418      8422      8423      8419      8418      8421
      8419      8418      8420      8420      8418      8421      8422      8418      8421
      8422      8418      8420      8422      8418      8419      8424      8428      8429
      8425      8424      8427      8425      8424      8426      8426      8424      8427
      8428      8424      8427      8428      8424      8426      8428      8424      8425
      8430      8434      8435      8431      8430      8433      8431      8430      8432
      8432      8430      8433      8434      8430      8433      8434      8430      8432
      8434      8430      8431      8436      8440      8441      8437      8436      8439
      8437      8436      8438      8438      8436      8439      8440      8436      8439
      8440      8436      8438      8440      8436      8437      8442      8446      8447
      8443      8442      8445      8443      8442      8444      8444      8442      8445
      8446      8442      8445      8446      8442      8444      8446      8442      8443
      8448      8452      8453      8449      8448      8451      8449      8448      8450
      8450      8448      8451      8452      8448      8451      8452      8448      8450
      8452      8448      8449      8454      8458      8459      8455      8454      8457
      8455      8454      8456      8456      8454      8457      8458      8454      8457
      8458      8454      8456      8458      8454      8455      8460      8464      8465
      8461      8460      8463      8461      8460      8462      8462      8460      8463
      8464      8460      8463      8464      8460      8462      8464      8460      8461
      8466      8470      8471      8467      8466      8469      8467      8466      8468
      8468      8466      8469      8470      8466      8469      8470      8466      8468
      8470      8466      8467      8472      8476      8477      8473      8472      8475
      8473      8472      8474      8474      8472      8475      8476      8472      8475
      8476      8472      8474      8476      8472      8473      8478      8482      8483
      8479      8478      8481      8479      8478      8480      8480      8478      8481
      8482      8478      8481      8482      8478      8480      8482      8478      8479
      8484      8488      8489      8485      8484      8487      8485      8484      8486
      8486      8484      8487      8488      8484      8487      8488      8484      8486
      8488      8484      8485      8490      8494      8495      8491      8490      8493
      8491      8490      8492      8492      8490      8493      8494      8490      8493
      8494      8490      8492      8494      8490      8491      8496      8500      8501
      8497      8496      8499      8497      8496      8498      8498      8496      8499
      8500      8496      8499      8500      8496      8498      8500      8496      8497
      8502      8506      8507      8503      8502      8505      8503      8502      8504
      8504      8502      8505      8506      8502      8505      8506      8502      8504
      8506      8502      8503      8508      8512      8513      8509      8508      8511
      8509      8508      8510      8510      8508      8511      8512      8508      8511
      8512      8508      8510      8512      8508      8509      8514      8518      8519
      8515      8514      8517      8515      8514      8516      8516      8514      8517
      8518      8514      8517      8518      8514      8516      8518      8514      8515
      8520      8524      8525      8521      8520      8523      8521      8520      8522
      8522      8520      8523      8524      8520      8523      8524      8520      8522
      8524      8520      8521      8526      8530      8531      8527      8526      8529
      8527      8526      8528      8528      8526      8529      8530      8526      8529
      8530      8526      8528      8530      8526      8527      8532      8536      8537
      8533      8532      8535      8533      8532      8534      8534      8532      8535
      8536      8532      8535      8536      8532      8534      8536      8532      8533
      8538      8542      8543      8539      8538      8541      8539      8538      8540
      8540      8538      8541      8542      8538      8541      8542      8538      8540
      8542      8538      8539      8544      8548      8549      8545      8544      8547
      8545      8544      8546      8546      8544      8547      8548      8544      8547
      8548      8544      8546      8548      8544      8545      8550      8554      8555
      8551      8550      8553      8551      8550      8552      8552      8550      8553
      8554      8550      8553      8554      8550      8552      8554      8550      8551
      8556      8560      8561      8557      8556      8559      8557      8556      8558
      8558      8556      8559      8560      8556      8559      8560      8556      8558
      8560      8556      8557      8562      8566      8567      8563      8562      8565
      8563      8562      8564      8564      8562      8565      8566      8562      8565
      8566      8562      8564      8566      8562      8563      8568      8572      8573
      8569      8568      8571      8569      8568      8570      8570      8568      8571
      8572      8568      8571      8572      8568      8570      8572      8568      8569
      8574      8578      8579      8575      8574      8577      8575      8574      8576
      8576      8574      8577      8578      8574      8577      8578      8574      8576
      8578      8574      8575      8580      8584      8585      8581      8580      8583
      8581      8580      8582      8582      8580      8583      8584      8580      8583
      8584      8580      8582      8584      8580      8581      8586      8590      8591
      8587      8586      8589      8587      8586      8588      8588      8586      8589
      8590      8586      8589      8590      8586      8588      8590      8586      8587
      8592      8596      8597      8593      8592      8595      8593      8592      8594
      8594      8592      8595      8596      8592      8595      8596      8592      8594
      8596      8592      8593      8598      8602      8603      8599      8598      8601
      8599      8598      8600      8600      8598      8601      8602      8598      8601
      8602      8598      8600      8602      8598      8599      8604      8608      8609
      8605      8604      8607      8605      8604      8606      8606      8604      8607
      8608      8604      8607      8608      8604      8606      8608      8604      8605
      8610      8614      8615      8611      8610      8613      8611      8610      8612
      8612      8610      8613      8614      8610      8613      8614      8610      8612
      8614      8610      8611      8616      8620      8621      8617      8616      8619
      8617      8616      8618      8618      8616      8619      8620      8616      8619
      8620      8616      8618      8620      8616      8617      8622      8626      8627
      8623      8622      8625      8623      8622      8624      8624      8622      8625
      8626      8622      8625      8626      8622      8624      8626      8622      8623
      8628      8632      8633      8629      8628      8631      8629      8628      8630
      8630      8628      8631      8632      8628      8631      8632      8628      8630
      8632      8628      8629      8634      8638      8639      8635      8634      8637
      8635      8634      8636      8636      8634      8637      8638      8634      8637
      8638      8634      8636      8638      8634      8635      8640      8644      8645
      8641      8640      8643      8641      8640      8642      8642      8640      8643
      8644      8640      8643      8644      8640      8642      8644      8640      8641
      8646      8650      8651      8647      8646      8649      8647      8646      8648
      8648      8646      8649      8650      8646      8649      8650      8646      8648
      8650      8646      8647      8652      8656      8657      8653      8652      8655
      8653      8652      8654      8654      8652      8655      8656      8652      8655
      8656      8652      8654      8656      8652      8653      8658      8662      8663
      8659      8658      8661      8659      8658      8660      8660      8658      8661
      8662      8658      8661      8662      8658      8660      8662      8658      8659
      8664      8668      8669      8665      8664      8667      8665      8664      8666
      8666      8664      8667      8668      8664      8667      8668      8664      8666
      8668      8664      8665      8670      8674      8675      8671      8670      8673
      8671      8670      8672      8672      8670      8673      8674      8670      8673
      8674      8670      8672      8674      8670      8671      8676      8680      8681
      8677      8676      8679      8677      8676      8678      8678      8676      8679
      8680      8676      8679      8680      8676      8678      8680      8676      8677
      8682      8686      8687      8683      8682      8685      8683      8682      8684
      8684      8682      8685      8686      8682      8685      8686      8682      8684
      8686      8682      8683      8688      8692      8693      8689      8688      8691
      8689      8688      8690      8690      8688      8691      8692      8688      8691
      8692      8688      8690      8692      8688      8689      8694      8698      8699
      8695      8694      8697      8695      8694      8696      8696      8694      8697
      8698      8694      8697      8698      8694      8696      8698      8694      8695
      8700      8704      8705      8701      8700      8703      8701      8700      8702
      8702      8700      8703      8704      8700      8703      8704      8700      8702
      8704      8700      8701      8706      8710      8711      8707      8706      8709
      8707      8706      8708      8708      8706      8709      8710      8706      8709
      8710      8706      8708      8710      8706      8707      8712      8716      8717
      8713      8712      8715      8713      8712      8714      8714      8712      8715
      8716      8712      8715      8716      8712      8714      8716      8712      8713
      8718      8722      8723      8719      8718      8721      8719      8718      8720
      8720      8718      8721      8722      8718      8721      8722      8718      8720
      8722      8718      8719      8724      8728      8729      8725      8724      8727
      8725      8724      8726      8726      8724      8727      8728      8724      8727
      8728      8724      8726      8728      8724      8725      8730      8734      8735
      8731      8730      8733      8731      8730      8732      8732      8730      8733
      8734      8730      8733      8734      8730      8732      8734      8730      8731
      8736      8740      8741      8737      8736      8739      8737      8736      8738
      8738      8736      8739      8740      8736      8739      8740      8736      8738
      8740      8736      8737      8742      8746      8747      8743      8742      8745
      8743      8742      8744      8744      8742      8745      8746      8742      8745
      8746      8742      8744      8746      8742      8743      8748      8752      8753
      8749      8748      8751      8749      8748      8750      8750      8748      8751
      8752      8748      8751      8752      8748      8750      8752      8748      8749
      8754      8758      8759      8755      8754      8757      8755      8754      8756
      8756      8754      8757      8758      8754      8757      8758      8754      8756
      8758      8754      8755      8760      8764      8765      8761      8760      8763
      8761      8760      8762      8762      8760      8763      8764      8760      8763
      8764      8760      8762      8764      8760      8761      8766      8770      8771
      8767      8766      8769      8767      8766      8768      8768      8766      8769
      8770      8766      8769      8770      8766      8768      8770      8766      8767
      8772      8776      8777      8773      8772      8775      8773      8772      8774
      8774      8772      8775      8776      8772      8775      8776      8772      8774
      8776      8772      8773      8778      8782      8783      8779      8778      8781
      8779      8778      8780      8780      8778      8781      8782      8778      8781
      8782      8778      8780      8782      8778      8779      8784      8788      8789
      8785      8784      8787      8785      8784      8786      8786      8784      8787
      8788      8784      8787      8788      8784      8786      8788      8784      8785
      8790      8794      8795      8791      8790      8793      8791      8790      8792
      8792      8790      8793      8794      8790      8793      8794      8790      8792
      8794      8790      8791      8796      8800      8801      8797      8796      8799
      8797      8796      8798      8798      8796      8799      8800      8796      8799
      8800      8796      8798      8800      8796      8797      8802      8806      8807
      8803      8802      8805      8803      8802      8804      8804      8802      8805
      8806      8802      8805      8806      8802      8804      8806      8802      8803
      8808      8812      8813      8809      8808      8811      8809      8808      8810
      8810      8808      8811      8812      8808      8811      8812      8808      8810
      8812      8808      8809      8814      8818      8819      8815      8814      8817
      8815      8814      8816      8816      8814      8817      8818      8814      8817
      8818      8814      8816      8818      8814      8815      8820      8824      8825
      8821      8820      8823      8821      8820      8822      8822      8820      8823
      8824      8820      8823      8824      8820      8822      8824      8820      8821
      8826      8830      8831      8827      8826      8829      8827      8826      8828
      8828      8826      8829      8830      8826      8829      8830      8826      8828
      8830      8826      8827      8832      8836      8837      8833      8832      8835
      8833      8832      8834      8834      8832      8835      8836      8832      8835
      8836      8832      8834      8836      8832      8833      8838      8842      8843
      8839      8838      8841      8839      8838      8840      8840      8838      8841
      8842      8838      8841      8842      8838      8840      8842      8838      8839
      8844      8848      8849      8845      8844      8847      8845      8844      8846
      8846      8844      8847      8848      8844      8847      8848      8844      8846
      8848      8844      8845      8850      8854      8855      8851      8850      8853
      8851      8850      8852      8852      8850      8853      8854      8850      8853
      8854      8850      8852      8854      8850      8851      8856      8860      8861
      8857      8856      8859      8857      8856      8858      8858      8856      8859
      8860      8856      8859      8860      8856      8858      8860      8856      8857
      8862      8866      8867      8863      8862      8865      8863      8862      8864
      8864      8862      8865      8866      8862      8865      8866      8862      8864
      8866      8862      8863      8868      8872      8873      8869      8868      8871
      8869      8868      8870      8870      8868      8871      8872      8868      8871
      8872      8868      8870      8872      8868      8869      8874      8878      8879
      8875      8874      8877      8875      8874      8876      8876      8874      8877
      8878      8874      8877      8878      8874      8876      8878      8874      8875
      8880      8884      8885      8881      8880      8883      8881      8880      8882
      8882      8880      8883      8884      8880      8883      8884      8880      8882
      8884      8880      8881      8886      8890      8891      8887      8886      8889
      8887      8886      8888      8888      8886      8889      8890      8886      8889
      8890      8886      8888      8890      8886      8887      8892      8896      8897
      8893      8892      8895      8893      8892      8894      8894      8892      8895
      8896      8892      8895      8896      8892      8894      8896      8892      8893
      8898      8902      8903      8899      8898      8901      8899      8898      8900
      8900      8898      8901      8902      8898      8901      8902      8898      8900
      8902      8898      8899      8904      8908      8909      8905      8904      8907
      8905      8904      8906      8906      8904      8907      8908      8904      8907
      8908      8904      8906      8908      8904      8905      8910      8914      8915
      8911      8910      8913      8911      8910      8912      8912      8910      8913
      8914      8910      8913      8914      8910      8912      8914      8910      8911
      8916      8920      8921      8917      8916      8919      8917      8916      8918
      8918      8916      8919      8920      8916      8919      8920      8916      8918
      8920      8916      8917      8922      8926      8927      8923      8922      8925
      8923      8922      8924      8924      8922      8925      8926      8922      8925
      8926      8922      8924      8926      8922      8923      8928      8932      8933
      8929      8928      8931      8929      8928      8930      8930      8928      8931
      8932      8928      8931      8932      8928      8930      8932      8928      8929
      8934      8938      8939      8935      8934      8937      8935      8934      8936
      8936      8934      8937      8938      8934      8937      8938      8934      8936
      8938      8934      8935      8940      8944      8945      8941      8940      8943
      8941      8940      8942      8942      8940      8943      8944      8940      8943
      8944      8940      8942      8944      8940      8941      8946      8950      8951
      8947      8946      8949      8947      8946      8948      8948      8946      8949
      8950      8946      8949      8950      8946      8948      8950      8946      8947
      8952      8956      8957      8953      8952      8955      8953      8952      8954
      8954      8952      8955      8956      8952      8955      8956      8952      8954
      8956      8952      8953      8958      8962      8963      8959      8958      8961
      8959      8958      8960      8960      8958      8961      8962      8958      8961
      8962      8958      8960      8962      8958      8959      8964      8968      8969
      8965      8964      8967      8965      8964      8966      8966      8964      8967
      8968      8964      8967      8968      8964      8966      8968      8964      8965
      8970      8974      8975      8971      8970      8973      8971      8970      8972
      8972      8970      8973      8974      8970      8973      8974      8970      8972
      8974      8970      8971      8976      8980      8981      8977      8976      8979
      8977      8976      8978      8978      8976      8979      8980      8976      8979
      8980      8976      8978      8980      8976      8977      8982      8986      8987
      8983      8982      8985      8983      8982      8984      8984      8982      8985
      8986      8982      8985      8986      8982      8984      8986      8982      8983
      8988      8992      8993      8989      8988      8991      8989      8988      8990
      8990      8988      8991      8992      8988      8991      8992      8988      8990
      8992      8988      8989      8994      8998      8999      8995      8994      8997
      8995      8994      8996      8996      8994      8997      8998      8994      8997
      8998      8994      8996      8998      8994      8995      9000      9004      9005
      9001      9000      9003      9001      9000      9002      9002      9000      9003
      9004      9000      9003      9004      9000      9002      9004      9000      9001
      9006      9010      9011      9007      9006      9009      9007      9006      9008
      9008      9006      9009      9010      9006      9009      9010      9006      9008
      9010      9006      9007      9012      9016      9017      9013      9012      9015
      9013      9012      9014      9014      9012      9015      9016      9012      9015
      9016      9012      9014      9016      9012      9013      9018      9022      9023
      9019      9018      9021      9019      9018      9020      9020      9018      9021
      9022      9018      9021      9022      9018      9020      9022      9018      9019
      9024      9028      9029      9025      9024      9027      9025      9024      9026
      9026      9024      9027      9028      9024      9027      9028      9024      9026
      9028      9024      9025      9030      9034      9035      9031      9030      9033
      9031      9030      9032      9032      9030      9033      9034      9030      9033
      9034      9030      9032      9034      9030      9031      9036      9040      9041
      9037      9036      9039      9037      9036      9038      9038      9036      9039
      9040      9036      9039      9040      9036      9038      9040      9036      9037
      9042      9046      9047      9043      9042      9045      9043      9042      9044
      9044      9042      9045      9046      9042      9045      9046      9042      9044
      9046      9042      9043      9048      9052      9053      9049      9048      9051
      9049      9048      9050      9050      9048      9051      9052      9048      9051
      9052      9048      9050      9052      9048      9049      9054      9058      9059
      9055      9054      9057      9055      9054      9056      9056      9054      9057
      9058      9054      9057      9058      9054      9056      9058      9054      9055
      9060      9064      9065      9061      9060      9063      9061      9060      9062
      9062      9060      9063      9064      9060      9063      9064      9060      9062
      9064      9060      9061      9066      9070      9071      9067      9066      9069
      9067      9066      9068      9068      9066      9069      9070      9066      9069
      9070      9066      9068      9070      9066      9067      9072      9076      9077
      9073      9072      9075      9073      9072      9074      9074      9072      9075
      9076      9072      9075      9076      9072      9074      9076      9072      9073
      9078      9082      9083      9079      9078      9081      9079      9078      9080
      9080      9078      9081      9082      9078      9081      9082      9078      9080
      9082      9078      9079      9084      9088      9089      9085      9084      9087
      9085      9084      9086      9086      9084      9087      9088      9084      9087
      9088      9084      9086      9088      9084      9085      9090      9094      9095
      9091      9090      9093      9091      9090      9092      9092      9090      9093
      9094      9090      9093      9094      9090      9092      9094      9090      9091
      9096      9100      9101      9097      9096      9099      9097      9096      9098
      9098      9096      9099      9100      9096      9099      9100      9096      9098
      9100      9096      9097      9102      9106      9107      9103      9102      9105
      9103      9102      9104      9104      9102      9105      9106      9102      9105
      9106      9102      9104      9106      9102      9103      9108      9112      9113
      9109      9108      9111      9109      9108      9110      9110      9108      9111
      9112      9108      9111      9112      9108      9110      9112      9108      9109
      9114      9118      9119      9115      9114      9117      9115      9114      9116
      9116      9114      9117      9118      9114      9117      9118      9114      9116
      9118      9114      9115      9120      9124      9125      9121      9120      9123
      9121      9120      9122      9122      9120      9123      9124      9120      9123
      9124      9120      9122      9124      9120      9121      9126      9130      9131
      9127      9126      9129      9127      9126      9128      9128      9126      9129
      9130      9126      9129      9130      9126      9128      9130      9126      9127
      9132      9136      9137      9133      9132      9135      9133      9132      9134
      9134      9132      9135      9136      9132      9135      9136      9132      9134
      9136      9132      9133      9138      9142      9143      9139      9138      9141
      9139      9138      9140      9140      9138      9141      9142      9138      9141
      9142      9138      9140      9142      9138      9139      9144      9148      9149
      9145      9144      9147      9145      9144      9146      9146      9144      9147
      9148      9144      9147      9148      9144      9146      9148      9144      9145
      9150      9154      9155      9151      9150      9153      9151      9150      9152
      9152      9150      9153      9154      9150      9153      9154      9150      9152
      9154      9150      9151      9156      9160      9161      9157      9156      9159
      9157      9156      9158      9158      9156      9159      9160      9156      9159
      9160      9156      9158      9160      9156      9157      9162      9166      9167
      9163      9162      9165      9163      9162      9164      9164      9162      9165
      9166      9162      9165      9166      9162      9164      9166      9162      9163
      9168      9172      9173      9169      9168      9171      9169      9168      9170
      9170      9168      9171      9172      9168      9171      9172      9168      9170
      9172      9168      9169      9174      9178      9179      9175      9174      9177
      9175      9174      9176      9176      9174      9177      9178      9174      9177
      9178      9174      9176      9178      9174      9175      9180      9184      9185
      9181      9180      9183      9181      9180      9182      9182      9180      9183
      9184      9180      9183      9184      9180      9182      9184      9180      9181
      9186      9190      9191      9187      9186      9189      9187      9186      9188
      9188      9186      9189      9190      9186      9189      9190      9186      9188
      9190      9186      9187      9192      9196      9197      9193      9192      9195
      9193      9192      9194      9194      9192      9195      9196      9192      9195
      9196      9192      9194      9196      9192      9193      9198      9202      9203
      9199      9198      9201      9199      9198      9200      9200      9198      9201
      9202      9198      9201      9202      9198      9200      9202      9198      9199
      9204      9208      9209      9205      9204      9207      9205      9204      9206
      9206      9204      9207      9208      9204      9207      9208      9204      9206
      9208      9204      9205      9210      9214      9215      9211      9210      9213
      9211      9210      9212      9212      9210      9213      9214      9210      9213
      9214      9210      9212      9214      9210      9211      9216      9220      9221
      9217      9216      9219      9217      9216      9218      9218      9216      9219
      9220      9216      9219      9220      9216      9218      9220      9216      9217
      9222      9226      9227      9223      9222      9225      9223      9222      9224
      9224      9222      9225      9226      9222      9225      9226      9222      9224
      9226      9222      9223      9228      9232      9233      9229      9228      9231
      9229      9228      9230      9230      9228      9231      9232      9228      9231
      9232      9228      9230      9232      9228      9229      9234      9238      9239
      9235      9234      9237      9235      9234      9236      9236      9234      9237
      9238      9234      9237      9238      9234      9236      9238      9234      9235
      9240      9244      9245      9241      9240      9243      9241      9240      9242
      9242      9240      9243      9244      9240      9243      9244      9240      9242
      9244      9240      9241      9246      9250      9251      9247      9246      9249
      9247      9246      9248      9248      9246      9249      9250      9246      9249
      9250      9246      9248      9250      9246      9247      9252      9256      9257
      9253      9252      9255      9253      9252      9254      9254      9252      9255
      9256      9252      9255      9256      9252      9254      9256      9252      9253
      9258      9262      9263      9259      9258      9261      9259      9258      9260
      9260      9258      9261      9262      9258      9261      9262      9258      9260
      9262      9258      9259      9264      9268      9269      9265      9264      9267
      9265      9264      9266      9266      9264      9267      9268      9264      9267
      9268      9264      9266      9268      9264      9265      9270      9274      9275
      9271      9270      9273      9271      9270      9272      9272      9270      9273
      9274      9270      9273      9274      9270      9272      9274      9270      9271
      9276      9280      9281      9277      9276      9279      9277      9276      9278
      9278      9276      9279      9280      9276      9279      9280      9276      9278
      9280      9276      9277      9282      9286      9287      9283      9282      9285
      9283      9282      9284      9284      9282      9285      9286      9282      9285
      9286      9282      9284      9286      9282      9283      9288      9292      9293
      9289      9288      9291      9289      9288      9290      9290      9288      9291
      9292      9288      9291      9292      9288      9290      9292      9288      9289
      9294      9298      9299      9295      9294      9297      9295      9294      9296
      9296      9294      9297      9298      9294      9297      9298      9294      9296
      9298      9294      9295      9300      9304      9305      9301      9300      9303
      9301      9300      9302      9302      9300      9303      9304      9300      9303
      9304      9300      9302      9304      9300      9301      9306      9310      9311
      9307      9306      9309      9307      9306      9308      9308      9306      9309
      9310      9306      9309      9310      9306      9308      9310      9306      9307
      9312      9316      9317      9313      9312      9315      9313      9312      9314
      9314      9312      9315      9316      9312      9315      9316      9312      9314
      9316      9312      9313      9318      9322      9323      9319      9318      9321
      9319      9318      9320      9320      9318      9321      9322      9318      9321
      9322      9318      9320      9322      9318      9319      9324      9328      9329
      9325      9324      9327      9325      9324      9326      9326      9324      9327
      9328      9324      9327      9328      9324      9326      9328      9324      9325
      9330      9334      9335      9331      9330      9333      9331      9330      9332
      9332      9330      9333      9334      9330      9333      9334      9330      9332
      9334      9330      9331      9336      9340      9341      9337      9336      9339
      9337      9336      9338      9338      9336      9339      9340      9336      9339
      9340      9336      9338      9340      9336      9337      9342      9346      9347
      9343      9342      9345      9343      9342      9344      9344      9342      9345
      9346      9342      9345      9346      9342      9344      9346      9342      9343
      9348      9352      9353      9349      9348      9351      9349      9348      9350
      9350      9348      9351      9352      9348      9351      9352      9348      9350
      9352      9348      9349      9354      9358      9359      9355      9354      9357
      9355      9354      9356      9356      9354      9357      9358      9354      9357
      9358      9354      9356      9358      9354      9355      9360      9364      9365
      9361      9360      9363      9361      9360      9362      9362      9360      9363
      9364      9360      9363      9364      9360      9362      9364      9360      9361
      9366      9370      9371      9367      9366      9369      9367      9366      9368
      9368      9366      9369      9370      9366      9369      9370      9366      9368
      9370      9366      9367      9372      9376      9377      9373      9372      9375
      9373      9372      9374      9374      9372      9375      9376      9372      9375
      9376      9372      9374      9376      9372      9373      9378      9382      9383
      9379      9378      9381      9379      9378      9380      9380      9378      9381
      9382      9378      9381      9382      9378      9380      9382      9378      9379
      9384      9388      9389      9385      9384      9387      9385      9384      9386
      9386      9384      9387      9388      9384      9387      9388      9384      9386
      9388      9384      9385      9390      9394      9395      9391      9390      9393
      9391      9390      9392      9392      9390      9393      9394      9390      9393
      9394      9390      9392      9394      9390      9391      9396      9400      9401
      9397      9396      9399      9397      9396      9398      9398      9396      9399
      9400      9396      9399      9400      9396      9398      9400      9396      9397
      9402      9406      9407      9403      9402      9405      9403      9402      9404
      9404      9402      9405      9406      9402      9405      9406      9402      9404
      9406      9402      9403      9408      9412      9413      9409      9408      9411
      9409      9408      9410      9410      9408      9411      9412      9408      9411
      9412      9408      9410      9412      9408      9409      9414      9418      9419
      9415      9414      9417      9415      9414      9416      9416      9414      9417
      9418      9414      9417      9418      9414      9416      9418      9414      9415
      9420      9424      9425      9421      9420      9423      9421      9420      9422
      9422      9420      9423      9424      9420      9423      9424      9420      9422
      9424      9420      9421      9426      9430      9431      9427      9426      9429
      9427      9426      9428      9428      9426      9429      9430      9426      9429
      9430      9426      9428      9430      9426      9427      9432      9436      9437
      9433      9432      9435      9433      9432      9434      9434      9432      9435
      9436      9432      9435      9436      9432      9434      9436      9432      9433
      9438      9442      9443      9439      9438      9441      9439      9438      9440
      9440      9438      9441      9442      9438      9441      9442      9438      9440
      9442      9438      9439      9444      9448      9449      9445      9444      9447
      9445      9444      9446      9446      9444      9447      9448      9444      9447
      9448      9444      9446      9448      9444      9445      9450      9454      9455
      9451      9450      9453      9451      9450      9452      9452      9450      9453
      9454      9450      9453      9454      9450      9452      9454      9450      9451
      9456      9460      9461      9457      9456      9459      9457      9456      9458
      9458      9456      9459      9460      9456      9459      9460      9456      9458
      9460      9456      9457      9462      9466      9467      9463      9462      9465
      9463      9462      9464      9464      9462      9465      9466      9462      9465
      9466      9462      9464      9466      9462      9463      9468      9472      9473
      9469      9468      9471      9469      9468      9470      9470      9468      9471
      9472      9468      9471      9472      9468      9470      9472      9468      9469
      9474      9478      9479      9475      9474      9477      9475      9474      9476
      9476      9474      9477      9478      9474      9477      9478      9474      9476
      9478      9474      9475      9480      9484      9485      9481      9480      9483
      9481      9480      9482      9482      9480      9483      9484      9480      9483
      9484      9480      9482      9484      9480      9481      9486      9490      9491
      9487      9486      9489      9487      9486      9488      9488      9486      9489
      9490      9486      9489      9490      9486      9488      9490      9486      9487
      9492      9496      9497      9493      9492      9495      9493      9492      9494
      9494      9492      9495      9496      9492      9495      9496      9492      9494
      9496      9492      9493      9498      9502      9503      9499      9498      9501
      9499      9498      9500      9500      9498      9501      9502      9498      9501
      9502      9498      9500      9502      9498      9499      9504      9508      9509
      9505      9504      9507      9505      9504      9506      9506      9504      9507
      9508      9504      9507      9508      9504      9506      9508      9504      9505
      9510      9514      9515      9511      9510      9513      9511      9510      9512
      9512      9510      9513      9514      9510      9513      9514      9510      9512
      9514      9510      9511      9516      9520      9521      9517      9516      9519
      9517      9516      9518      9518      9516      9519      9520      9516      9519
      9520      9516      9518      9520      9516      9517      9522      9526      9527
      9523      9522      9525      9523      9522      9524      9524      9522      9525
      9526      9522      9525      9526      9522      9524      9526      9522      9523
      9528      9532      9533      9529      9528      9531      9529      9528      9530
      9530      9528      9531      9532      9528      9531      9532      9528      9530
      9532      9528      9529      9534      9538      9539      9535      9534      9537
      9535      9534      9536      9536      9534      9537      9538      9534      9537
      9538      9534      9536      9538      9534      9535      9540      9544      9545
      9541      9540      9543      9541      9540      9542      9542      9540      9543
      9544      9540      9543      9544      9540      9542      9544      9540      9541
      9546      9550      9551      9547      9546      9549      9547      9546      9548
      9548      9546      9549      9550      9546      9549      9550      9546      9548
      9550      9546      9547      9552      9556      9557      9553      9552      9555
      9553      9552      9554      9554      9552      9555      9556      9552      9555
      9556      9552      9554      9556      9552      9553      9558      9562      9563
      9559      9558      9561      9559      9558      9560      9560      9558      9561
      9562      9558      9561      9562      9558      9560      9562      9558      9559
      9564      9568      9569      9565      9564      9567      9565      9564      9566
      9566      9564      9567      9568      9564      9567      9568      9564      9566
      9568      9564      9565      9570      9574      9575      9571      9570      9573
      9571      9570      9572      9572      9570      9573      9574      9570      9573
      9574      9570      9572      9574      9570      9571      9576      9580      9581
      9577      9576      9579      9577      9576      9578      9578      9576      9579
      9580      9576      9579      9580      9576      9578      9580      9576      9577
      9582      9586      9587      9583      9582      9585      9583      9582      9584
      9584      9582      9585      9586      9582      9585      9586      9582      9584
      9586      9582      9583      9588      9592      9593      9589      9588      9591
      9589      9588      9590      9590      9588      9591      9592      9588      9591
      9592      9588      9590      9592      9588      9589      9594      9598      9599
      9595      9594      9597      9595      9594      9596      9596      9594      9597
      9598      9594      9597      9598      9594      9596      9598      9594      9595
      9600      9604      9605      9601      9600      9603      9601      9600      9602
      9602      9600      9603      9604      9600      9603      9604      9600      9602
      9604      9600      9601      9606      9610      9611      9607      9606      9609
      9607      9606      9608      9608      9606      9609      9610      9606      9609
      9610      9606      9608      9610      9606      9607      9612      9616      9617
      9613      9612      9615      9613      9612      9614      9614      9612      9615
      9616      9612      9615      9616      9612      9614      9616      9612      9613
      9618      9622      9623      9619      9618      9621      9619      9618      9620
      9620      9618      9621      9622      9618      9621      9622      9618      9620
      9622      9618      9619      9624      9628      9629      9625      9624      9627
      9625      9624      9626      9626      9624      9627      9628      9624      9627
      9628      9624      9626      9628      9624      9625      9630      9634      9635
      9631      9630      9633      9631      9630      9632      9632      9630      9633
      9634      9630      9633      9634      9630      9632      9634      9630      9631
      9636      9640      9641      9637      9636      9639      9637      9636      9638
      9638      9636      9639      9640      9636      9639      9640      9636      9638
      9640      9636      9637      9642      9646      9647      9643      9642      9645
      9643      9642      9644      9644      9642      9645      9646      9642      9645
      9646      9642      9644      9646      9642      9643      9648      9652      9653
      9649      9648      9651      9649      9648      9650      9650      9648      9651
      9652      9648      9651      9652      9648      9650      9652      9648      9649
      9654      9658      9659      9655      9654      9657      9655      9654      9656
      9656      9654      9657      9658      9654      9657      9658      9654      9656
      9658      9654      9655      9660      9664      9665      9661      9660      9663
      9661      9660      9662      9662      9660      9663      9664      9660      9663
      9664      9660      9662      9664      9660      9661      9666      9670      9671
      9667      9666      9669      9667      9666      9668      9668      9666      9669
      9670      9666      9669      9670      9666      9668      9670      9666      9667
      9672      9676      9677      9673      9672      9675      9673      9672      9674
      9674      9672      9675      9676      9672      9675      9676      9672      9674
      9676      9672      9673      9678      9682      9683      9679      9678      9681
      9679      9678      9680      9680      9678      9681      9682      9678      9681
      9682      9678      9680      9682      9678      9679      9684      9688      9689
      9685      9684      9687      9685      9684      9686      9686      9684      9687
      9688      9684      9687      9688      9684      9686      9688      9684      9685
      9690      9694      9695      9691      9690      9693      9691      9690      9692
      9692      9690      9693      9694      9690      9693      9694      9690      9692
      9694      9690      9691      9696      9700      9701      9697      9696      9699
      9697      9696      9698      9698      9696      9699      9700      9696      9699
      9700      9696      9698      9700      9696      9697      9702      9706      9707
      9703      9702      9705      9703      9702      9704      9704      9702      9705
      9706      9702      9705      9706      9702      9704      9706      9702      9703
      9708      9712      9713      9709      9708      9711      9709      9708      9710
      9710      9708      9711      9712      9708      9711      9712      9708      9710
      9712      9708      9709      9714      9718      9719      9715      9714      9717
      9715      9714      9716      9716      9714      9717      9718      9714      9717
      9718      9714      9716      9718      9714      9715      9720      9724      9725
      9721      9720      9723      9721      9720      9722      9722      9720      9723
      9724      9720      9723      9724      9720      9722      9724      9720      9721
      9726      9730      9731      9727      9726      9729      9727      9726      9728
      9728      9726      9729      9730      9726      9729      9730      9726      9728
      9730      9726      9727      9732      9736      9737      9733      9732      9735
      9733      9732      9734      9734      9732      9735      9736      9732      9735
      9736      9732      9734      9736      9732      9733      9738      9742      9743
      9739      9738      9741      9739      9738      9740      9740      9738      9741
      9742      9738      9741      9742      9738      9740      9742      9738      9739
      9744      9748      9749      9745      9744      9747      9745      9744      9746
      9746      9744      9747      9748      9744      9747      9748      9744      9746
      9748      9744      9745      9750      9754      9755      9751      9750      9753
      9751      9750      9752      9752      9750      9753      9754      9750      9753
      9754      9750      9752      9754      9750      9751      9756      9760      9761
      9757      9756      9759      9757      9756      9758      9758      9756      9759
      9760      9756      9759      9760      9756      9758      9760      9756      9757
      9762      9766      9767      9763      9762      9765      9763      9762      9764
      9764      9762      9765      9766      9762      9765      9766      9762      9764
      9766      9762      9763      9768      9772      9773      9769      9768      9771
      9769      9768      9770      9770      9768      9771      9772      9768      9771
      9772      9768      9770      9772      9768      9769      9774      9778      9779
      9775      9774      9777      9775      9774      9776      9776      9774      9777
      9778      9774      9777      9778      9774      9776      9778      9774      9775
      9780      9784      9785      9781      9780      9783      9781      9780      9782
      9782      9780      9783      9784      9780      9783      9784      9780      9782
      9784      9780      9781      9786      9790      9791      9787      9786      9789
      9787      9786      9788      9788      9786      9789      9790      9786      9789
      9790      9786      9788      9790      9786      9787      9792      9796      9797
      9793      9792      9795      9793      9792      9794      9794      9792      9795
      9796      9792      9795      9796      9792      9794      9796      9792      9793
      9798      9802      9803      9799      9798      9801      9799      9798      9800
      9800      9798      9801      9802      9798      9801      9802      9798      9800
      9802      9798      9799      9804      9808      9809      9805      9804      9807
      9805      9804      9806      9806      9804      9807      9808      9804      9807
      9808      9804      9806      9808      9804      9805      9810      9814      9815
      9811      9810      9813      9811      9810      9812      9812      9810      9813
      9814      9810      9813      9814      9810      9812      9814      9810      9811
      9816      9820      9821      9817      9816      9819      9817      9816      9818
      9818      9816      9819      9820      9816      9819      9820      9816      9818
      9820      9816      9817      9822      9826      9827      9823      9822      9825
      9823      9822      9824      9824      9822      9825      9826      9822      9825
      9826      9822      9824      9826      9822      9823      9828      9832      9833
      9829      9828      9831      9829      9828      9830      9830      9828      9831
      9832      9828      9831      9832      9828      9830      9832      9828      9829
      9834      9838      9839      9835      9834      9837      9835      9834      9836
      9836      9834      9837      9838      9834      9837      9838      9834      9836
      9838      9834      9835      9840      9844      9845      9841      9840      9843
      9841      9840      9842      9842      9840      9843      9844      9840      9843
      9844      9840      9842      9844      9840      9841      9846      9850      9851
      9847      9846      9849      9847      9846      9848      9848      9846      9849
      9850      9846      9849      9850      9846      9848      9850      9846      9847
      9852      9856      9857      9853      9852      9855      9853      9852      9854
      9854      9852      9855      9856      9852      9855      9856      9852      9854
      9856      9852      9853      9858      9862      9863      9859      9858      9861
      9859      9858      9860      9860      9858      9861      9862      9858      9861
      9862      9858      9860      9862      9858      9859      9864      9868      9869
      9865      9864      9867      9865      9864      9866      9866      9864      9867
      9868      9864      9867      9868      9864      9866      9868      9864      9865
      9870      9874      9875      9871      9870      9873      9871      9870      9872
      9872      9870      9873      9874      9870      9873      9874      9870      9872
      9874      9870      9871      9876      9880      9881      9877      9876      9879
      9877      9876      9878      9878      9876      9879      9880      9876      9879
      9880      9876      9878      9880      9876      9877      9882      9886      9887
      9883      9882      9885      9883      9882      9884      9884      9882      9885
      9886      9882      9885      9886      9882      9884      9886      9882      9883
      9888      9892      9893      9889      9888      9891      9889      9888      9890
      9890      9888      9891      9892      9888      9891      9892      9888      9890
      9892      9888      9889      9894      9898      9899      9895      9894      9897
      9895      9894      9896      9896      9894      9897      9898      9894      9897
      9898      9894      9896      9898      9894      9895      9900      9904      9905
      9901      9900      9903      9901      9900      9902      9902      9900      9903
      9904      9900      9903      9904      9900      9902      9904      9900      9901
      9906      9910      9911      9907      9906      9909      9907      9906      9908
      9908      9906      9909      9910      9906      9909      9910      9906      9908
      9910      9906      9907      9912      9916      9917      9913      9912      9915
      9913      9912      9914      9914      9912      9915      9916      9912      9915
      9916      9912      9914      9916      9912      9913      9918      9922      9923
      9919      9918      9921      9919      9918      9920      9920      9918      9921
      9922      9918      9921      9922      9918      9920      9922      9918      9919
      9924      9928      9929      9925      9924      9927      9925      9924      9926
      9926      9924      9927      9928      9924      9927      9928      9924      9926
      9928      9924      9925      9930      9934      9935      9931      9930      9933
      9931      9930      9932      9932      9930      9933      9934      9930      9933
      9934      9930      9932      9934      9930      9931      9936      9940      9941
      9937      9936      9939      9937      9936      9938      9938      9936      9939
      9940      9936      9939      9940      9936      9938      9940      9936      9937
      9942      9946      9947      9943      9942      9945      9943      9942      9944
      9944      9942      9945      9946      9942      9945      9946      9942      9944
      9946      9942      9943      9948      9952      9953      9949      9948      9951
      9949      9948      9950      9950      9948      9951      9952      9948      9951
      9952      9948      9950      9952      9948      9949      9954      9958      9959
      9955      9954      9957      9955      9954      9956      9956      9954      9957
      9958      9954      9957      9958      9954      9956      9958      9954      9955
      9960      9964      9965      9961      9960      9963      9961      9960      9962
      9962      9960      9963      9964      9960      9963      9964      9960      9962
      9964      9960      9961      9966      9970      9971      9967      9966      9969
      9967      9966      9968      9968      9966      9969      9970      9966      9969
      9970      9966      9968      9970      9966      9967      9972      9976      9977
      9973      9972      9975      9973      9972      9974      9974      9972      9975
      9976      9972      9975      9976      9972      9974      9976      9972      9973
      9978      9982      9983      9979      9978      9981      9979      9978      9980
      9980      9978      9981      9982      9978      9981      9982      9978      9980
      9982      9978      9979      9984      9988      9989      9985      9984      9987
      9985      9984      9986      9986      9984      9987      9988      9984      9987
      9988      9984      9986      9988      9984      9985      9990      9994      9995
      9991      9990      9993      9991      9990      9992      9992      9990      9993
      9994      9990      9993      9994      9990      9992      9994      9990      9991
      9996     10000     10001      9997      9996      9999      9997      9996      9998
      9998      9996      9999     10000      9996      9999     10000      9996      9998
     10000      9996      9997     10002     10006     10007     10003     10002     10005
     10003     10002     10004     10004     10002     10005     10006     10002     10005
     10006     10002     10004     10006     10002     10003     10008     10012     10013
     10009     10008     10011     10009     10008     10010     10010     10008     10011
     10012     10008     10011     10012     10008     10010     10012     10008     10009
     10014     10018     10019     10015     10014     10017     10015     10014     10016
     10016     10014     10017     10018     10014     10017     10018     10014     10016
     10018     10014     10015     10020     10024     10025     10021     10020     10023
     10021     10020     10022     10022     10020     10023     10024     10020     10023
     10024     10020     10022     10024     10020     10021     10026     10030     10031
     10027     10026     10029     10027     10026     10028     10028     10026     10029
     10030     10026     10029     10030     10026     10028     10030     10026     10027
     10032     10036     10037     10033     10032     10035     10033     10032     10034
     10034     10032     10035     10036     10032     10035     10036     10032     10034
     10036     10032     10033     10038     10042     10043     10039     10038     10041
     10039     10038     10040     10040     10038     10041     10042     10038     10041
     10042     10038     10040     10042     10038     10039     10044     10048     10049
     10045     10044     10047     10045     10044     10046     10046     10044     10047
     10048     10044     10047     10048     10044     10046     10048     10044     10045
     10050     10054     10055     10051     10050     10053     10051     10050     10052
     10052     10050     10053     10054     10050     10053     10054     10050     10052
     10054     10050     10051     10056     10060     10061     10057     10056     10059
     10057     10056     10058     10058     10056     10059     10060     10056     10059
     10060     10056     10058     10060     10056     10057     10062     10066     10067
     10063     10062     10065     10063     10062     10064     10064     10062     10065
     10066     10062     10065     10066     10062     10064     10066     10062     10063
     10068     10072     10073     10069     10068     10071     10069     10068     10070
     10070     10068     10071     10072     10068     10071     10072     10068     10070
     10072     10068     10069     10074     10078     10079     10075     10074     10077
     10075     10074     10076     10076     10074     10077     10078     10074     10077
     10078     10074     10076     10078     10074     10075     10080     10084     10085
     10081     10080     10083     10081     10080     10082     10082     10080     10083
     10084     10080     10083     10084     10080     10082     10084     10080     10081
     10086     10090     10091     10087     10086     10089     10087     10086     10088
     10088     10086     10089     10090     10086     10089     10090     10086     10088
     10090     10086     10087     10092     10096     10097     10093     10092     10095
     10093     10092     10094     10094     10092     10095     10096     10092     10095
     10096     10092     10094     10096     10092     10093     10098     10102     10103
     10099     10098     10101     10099     10098     10100     10100     10098     10101
     10102     10098     10101     10102     10098     10100     10102     10098     10099
     10104     10108     10109     10105     10104     10107     10105     10104     10106
     10106     10104     10107     10108     10104     10107     10108     10104     10106
     10108     10104     10105     10110     10114     10115     10111     10110     10113
     10111     10110     10112     10112     10110     10113     10114     10110     10113
     10114     10110     10112     10114     10110     10111     10116     10120     10121
     10117     10116     10119     10117     10116     10118     10118     10116     10119
     10120     10116     10119     10120     10116     10118     10120     10116     10117
     10122     10126     10127     10123     10122     10125     10123     10122     10124
     10124     10122     10125     10126     10122     10125     10126     10122     10124
     10126     10122     10123     10128     10132     10133     10129     10128     10131
     10129     10128     10130     10130     10128     10131     10132     10128     10131
     10132     10128     10130     10132     10128     10129     10134     10138     10139
     10135     10134     10137     10135     10134     10136     10136     10134     10137
     10138     10134     10137     10138     10134     10136     10138     10134     10135
     10140     10144     10145     10141     10140     10143     10141     10140     10142
     10142     10140     10143     10144     10140     10143     10144     10140     10142
     10144     10140     10141     10146     10150     10151     10147     10146     10149
     10147     10146     10148     10148     10146     10149     10150     10146     10149
     10150     10146     10148     10150     10146     10147     10152     10156     10157
     10153     10152     10155     10153     10152     10154     10154     10152     10155
     10156     10152     10155     10156     10152     10154     10156     10152     10153
     10158     10162     10163     10159     10158     10161     10159     10158     10160
     10160     10158     10161     10162     10158     10161     10162     10158     10160
     10162     10158     10159     10164     10168     10169     10165     10164     10167
     10165     10164     10166     10166     10164     10167     10168     10164     10167
     10168     10164     10166     10168     10164     10165     10170     10174     10175
     10171     10170     10173     10171     10170     10172     10172     10170     10173
     10174     10170     10173     10174     10170     10172     10174     10170     10171
     10176     10180     10181     10177     10176     10179     10177     10176     10178
     10178     10176     10179     10180     10176     10179     10180     10176     10178
     10180     10176     10177     10182     10186     10187     10183     10182     10185
     10183     10182     10184     10184     10182     10185     10186     10182     10185
     10186     10182     10184     10186     10182     10183     10188     10192     10193
     10189     10188     10191     10189     10188     10190     10190     10188     10191
     10192     10188     10191     10192     10188     10190     10192     10188     10189
     10194     10198     10199     10195     10194     10197     10195     10194     10196
     10196     10194     10197     10198     10194     10197     10198     10194     10196
     10198     10194     10195     10200     10204     10205     10201     10200     10203
     10201     10200     10202     10202     10200     10203     10204     10200     10203
     10204     10200     10202     10204     10200     10201     10206     10210     10211
     10207     10206     10209     10207     10206     10208     10208     10206     10209
     10210     10206     10209     10210     10206     10208     10210     10206     10207
     10212     10216     10217     10213     10212     10215     10213     10212     10214
     10214     10212     10215     10216     10212     10215     10216     10212     10214
     10216     10212     10213     10218     10222     10223     10219     10218     10221
     10219     10218     10220     10220     10218     10221     10222     10218     10221
     10222     10218     10220     10222     10218     10219     10224     10228     10229
     10225     10224     10227     10225     10224     10226     10226     10224     10227
     10228     10224     10227     10228     10224     10226     10228     10224     10225
     10230     10234     10235     10231     10230     10233     10231     10230     10232
     10232     10230     10233     10234     10230     10233     10234     10230     10232
     10234     10230     10231     10236     10240     10241     10237     10236     10239
     10237     10236     10238     10238     10236     10239     10240     10236     10239
     10240     10236     10238     10240     10236     10237     10242     10246     10247
     10243     10242     10245     10243     10242     10244     10244     10242     10245
     10246     10242     10245     10246     10242     10244     10246     10242     10243
     10248     10252     10253     10249     10248     10251     10249     10248     10250
     10250     10248     10251     10252     10248     10251     10252     10248     10250
     10252     10248     10249     10254     10258     10259     10255     10254     10257
     10255     10254     10256     10256     10254     10257     10258     10254     10257
     10258     10254     10256     10258     10254     10255     10260     10264     10265
     10261     10260     10263     10261     10260     10262     10262     10260     10263
     10264     10260     10263     10264     10260     10262     10264     10260     10261
     10266     10270     10271     10267     10266     10269     10267     10266     10268
     10268     10266     10269     10270     10266     10269     10270     10266     10268
     10270     10266     10267     10272     10276     10277     10273     10272     10275
     10273     10272     10274     10274     10272     10275     10276     10272     10275
     10276     10272     10274     10276     10272     10273     10278     10282     10283
     10279     10278     10281     10279     10278     10280     10280     10278     10281
     10282     10278     10281     10282     10278     10280     10282     10278     10279
     10284     10288     10289     10285     10284     10287     10285     10284     10286
     10286     10284     10287     10288     10284     10287     10288     10284     10286
     10288     10284     10285     10290     10294     10295     10291     10290     10293
     10291     10290     10292     10292     10290     10293     10294     10290     10293
     10294     10290     10292     10294     10290     10291     10296     10300     10301
     10297     10296     10299     10297     10296     10298     10298     10296     10299
     10300     10296     10299     10300     10296     10298     10300     10296     10297
     10302     10306     10307     10303     10302     10305     10303     10302     10304
     10304     10302     10305     10306     10302     10305     10306     10302     10304
     10306     10302     10303     10308     10312     10313     10309     10308     10311
     10309     10308     10310     10310     10308     10311     10312     10308     10311
     10312     10308     10310     10312     10308     10309     10314     10318     10319
     10315     10314     10317     10315     10314     10316     10316     10314     10317
     10318     10314     10317     10318     10314     10316     10318     10314     10315
     10320     10324     10325     10321     10320     10323     10321     10320     10322
     10322     10320     10323     10324     10320     10323     10324     10320     10322
     10324     10320     10321     10326     10330     10331     10327     10326     10329
     10327     10326     10328     10328     10326     10329     10330     10326     10329
     10330     10326     10328     10330     10326     10327     10332     10336     10337
     10333     10332     10335     10333     10332     10334     10334     10332     10335
     10336     10332     10335     10336     10332     10334     10336     10332     10333
     10338     10342     10343     10339     10338     10341     10339     10338     10340
     10340     10338     10341     10342     10338     10341     10342     10338     10340
     10342     10338     10339     10344     10348     10349     10345     10344     10347
     10345     10344     10346     10346     10344     10347     10348     10344     10347
     10348     10344     10346     10348     10344     10345     10350     10354     10355
     10351     10350     10353     10351     10350     10352     10352     10350     10353
     10354     10350     10353     10354     10350     10352     10354     10350     10351
     10356     10360     10361     10357     10356     10359     10357     10356     10358
     10358     10356     10359     10360     10356     10359     10360     10356     10358
     10360     10356     10357     10362     10366     10367     10363     10362     10365
     10363     10362     10364     10364     10362     10365     10366     10362     10365
     10366     10362     10364     10366     10362     10363     10368     10372     10373
     10369     10368     10371     10369     10368     10370     10370     10368     10371
     10372     10368     10371     10372     10368     10370     10372     10368     10369
     10374     10378     10379     10375     10374     10377     10375     10374     10376
     10376     10374     10377     10378     10374     10377     10378     10374     10376
     10378     10374     10375     10380     10384     10385     10381     10380     10383
     10381     10380     10382     10382     10380     10383     10384     10380     10383
     10384     10380     10382     10384     10380     10381     10386     10390     10391
     10387     10386     10389     10387     10386     10388     10388     10386     10389
     10390     10386     10389     10390     10386     10388     10390     10386     10387
     10392     10396     10397     10393     10392     10395     10393     10392     10394
     10394     10392     10395     10396     10392     10395     10396     10392     10394
     10396     10392     10393     10398     10402     10403     10399     10398     10401
     10399     10398     10400     10400     10398     10401     10402     10398     10401
     10402     10398     10400     10402     10398     10399     10404     10408     10409
     10405     10404     10407     10405     10404     10406     10406     10404     10407
     10408     10404     10407     10408     10404     10406     10408     10404     10405
     10410     10414     10415     10411     10410     10413     10411     10410     10412
     10412     10410     10413     10414     10410     10413     10414     10410     10412
     10414     10410     10411     10416     10420     10421     10417     10416     10419
     10417     10416     10418     10418     10416     10419     10420     10416     10419
     10420     10416     10418     10420     10416     10417     10422     10426     10427
     10423     10422     10425     10423     10422     10424     10424     10422     10425
     10426     10422     10425     10426     10422     10424     10426     10422     10423
     10428     10432     10433     10429     10428     10431     10429     10428     10430
     10430     10428     10431     10432     10428     10431     10432     10428     10430
     10432     10428     10429     10434     10438     10439     10435     10434     10437
     10435     10434     10436     10436     10434     10437     10438     10434     10437
     10438     10434     10436     10438     10434     10435     10440     10444     10445
     10441     10440     10443     10441     10440     10442     10442     10440     10443
     10444     10440     10443     10444     10440     10442     10444     10440     10441
     10446     10450     10451     10447     10446     10449     10447     10446     10448
     10448     10446     10449     10450     10446     10449     10450     10446     10448
     10450     10446     10447     10452     10456     10457     10453     10452     10455
     10453     10452     10454     10454     10452     10455     10456     10452     10455
     10456     10452     10454     10456     10452     10453     10458     10462     10463
     10459     10458     10461     10459     10458     10460     10460     10458     10461
     10462     10458     10461     10462     10458     10460     10462     10458     10459
     10464     10468     10469     10465     10464     10467     10465     10464     10466
     10466     10464     10467     10468     10464     10467     10468     10464     10466
     10468     10464     10465     10470     10474     10475     10471     10470     10473
     10471     10470     10472     10472     10470     10473     10474     10470     10473
     10474     10470     10472     10474     10470     10471     10476     10480     10481
     10477     10476     10479     10477     10476     10478     10478     10476     10479
     10480     10476     10479     10480     10476     10478     10480     10476     10477
     10482     10486     10487     10483     10482     10485     10483     10482     10484
     10484     10482     10485     10486     10482     10485     10486     10482     10484
     10486     10482     10483     10488     10492     10493     10489     10488     10491
     10489     10488     10490     10490     10488     10491     10492     10488     10491
     10492     10488     10490     10492     10488     10489     10494     10498     10499
     10495     10494     10497     10495     10494     10496     10496     10494     10497
     10498     10494     10497     10498     10494     10496     10498     10494     10495
     10500     10504     10505     10501     10500     10503     10501     10500     10502
     10502     10500     10503     10504     10500     10503     10504     10500     10502
     10504     10500     10501     10506     10510     10511     10507     10506     10509
     10507     10506     10508     10508     10506     10509     10510     10506     10509
     10510     10506     10508     10510     10506     10507     10512     10516     10517
     10513     10512     10515     10513     10512     10514     10514     10512     10515
     10516     10512     10515     10516     10512     10514     10516     10512     10513
     10518     10522     10523     10519     10518     10521     10519     10518     10520
     10520     10518     10521     10522     10518     10521     10522     10518     10520
     10522     10518     10519     10524     10528     10529     10525     10524     10527
     10525     10524     10526     10526     10524     10527     10528     10524     10527
     10528     10524     10526     10528     10524     10525     10530     10534     10535
     10531     10530     10533     10531     10530     10532     10532     10530     10533
     10534     10530     10533     10534     10530     10532     10534     10530     10531
     10536     10540     10541     10537     10536     10539     10537     10536     10538
     10538     10536     10539     10540     10536     10539     10540     10536     10538
     10540     10536     10537     10542     10546     10547     10543     10542     10545
     10543     10542     10544     10544     10542     10545     10546     10542     10545
     10546     10542     10544     10546     10542     10543     10548     10552     10553
     10549     10548     10551     10549     10548     10550     10550     10548     10551
     10552     10548     10551     10552     10548     10550     10552     10548     10549
     10554     10558     10559     10555     10554     10557     10555     10554     10556
     10556     10554     10557     10558     10554     10557     10558     10554     10556
     10558     10554     10555     10560     10564     10565     10561     10560     10563
     10561     10560     10562     10562     10560     10563     10564     10560     10563
     10564     10560     10562     10564     10560     10561     10566     10570     10571
     10567     10566     10569     10567     10566     10568     10568     10566     10569
     10570     10566     10569     10570     10566     10568     10570     10566     10567
     10572     10576     10577     10573     10572     10575     10573     10572     10574
     10574     10572     10575     10576     10572     10575     10576     10572     10574
     10576     10572     10573     10578     10582     10583     10579     10578     10581
     10579     10578     10580     10580     10578     10581     10582     10578     10581
     10582     10578     10580     10582     10578     10579     10584     10588     10589
     10585     10584     10587     10585     10584     10586     10586     10584     10587
     10588     10584     10587     10588     10584     10586     10588     10584     10585
     10590     10594     10595     10591     10590     10593     10591     10590     10592
     10592     10590     10593     10594     10590     10593     10594     10590     10592
     10594     10590     10591     10596     10600     10601     10597     10596     10599
     10597     10596     10598     10598     10596     10599     10600     10596     10599
     10600     10596     10598     10600     10596     10597     10602     10606     10607
     10603     10602     10605     10603     10602     10604     10604     10602     10605
     10606     10602     10605     10606     10602     10604     10606     10602     10603
     10608     10612     10613     10609     10608     10611     10609     10608     10610
     10610     10608     10611     10612     10608     10611     10612     10608     10610
     10612     10608     10609     10614     10618     10619     10615     10614     10617
     10615     10614     10616     10616     10614     10617     10618     10614     10617
     10618     10614     10616     10618     10614     10615     10620     10624     10625
     10621     10620     10623     10621     10620     10622     10622     10620     10623
     10624     10620     10623     10624     10620     10622     10624     10620     10621
     10626     10630     10631     10627     10626     10629     10627     10626     10628
     10628     10626     10629     10630     10626     10629     10630     10626     10628
     10630     10626     10627     10632     10636     10637     10633     10632     10635
     10633     10632     10634     10634     10632     10635     10636     10632     10635
     10636     10632     10634     10636     10632     10633     10638     10642     10643
     10639     10638     10641     10639     10638     10640     10640     10638     10641
     10642     10638     10641     10642     10638     10640     10642     10638     10639
     10644     10648     10649     10645     10644     10647     10645     10644     10646
     10646     10644     10647     10648     10644     10647     10648     10644     10646
     10648     10644     10645     10650     10654     10655     10651     10650     10653
     10651     10650     10652     10652     10650     10653     10654     10650     10653
     10654     10650     10652     10654     10650     10651     10656     10660     10661
     10657     10656     10659     10657     10656     10658     10658     10656     10659
     10660     10656     10659     10660     10656     10658     10660     10656     10657
     10662     10666     10667     10663     10662     10665     10663     10662     10664
     10664     10662     10665     10666     10662     10665     10666     10662     10664
     10666     10662     10663     10668     10672     10673     10669     10668     10671
     10669     10668     10670     10670     10668     10671     10672     10668     10671
     10672     10668     10670     10672     10668     10669     10674     10678     10679
     10675     10674     10677     10675     10674     10676     10676     10674     10677
     10678     10674     10677     10678     10674     10676     10678     10674     10675
     10680     10684     10685     10681     10680     10683     10681     10680     10682
     10682     10680     10683     10684     10680     10683     10684     10680     10682
     10684     10680     10681     10686     10690     10691     10687     10686     10689
     10687     10686     10688     10688     10686     10689     10690     10686     10689
     10690     10686     10688     10690     10686     10687     10692     10696     10697
     10693     10692     10695     10693     10692     10694     10694     10692     10695
     10696     10692     10695     10696     10692     10694     10696     10692     10693
     10698     10702     10703     10699     10698     10701     10699     10698     10700
     10700     10698     10701     10702     10698     10701     10702     10698     10700
     10702     10698     10699     10704     10708     10709     10705     10704     10707
     10705     10704     10706     10706     10704     10707     10708     10704     10707
     10708     10704     10706     10708     10704     10705     10710     10714     10715
     10711     10710     10713     10711     10710     10712     10712     10710     10713
     10714     10710     10713     10714     10710     10712     10714     10710     10711
     10716     10720     10721     10717     10716     10719     10717     10716     10718
     10718     10716     10719     10720     10716     10719     10720     10716     10718
     10720     10716     10717     10722     10726     10727     10723     10722     10725
     10723     10722     10724     10724     10722     10725     10726     10722     10725
     10726     10722     10724     10726     10722     10723     10728     10732     10733
     10729     10728     10731     10729     10728     10730     10730     10728     10731
     10732     10728     10731     10732     10728     10730     10732     10728     10729
     10734     10738     10739     10735     10734     10737     10735     10734     10736
     10736     10734     10737     10738     10734     10737     10738     10734     10736
     10738     10734     10735     10740     10744     10745     10741     10740     10743
     10741     10740     10742     10742     10740     10743     10744     10740     10743
     10744     10740     10742     10744     10740     10741     10746     10750     10751
     10747     10746     10749     10747     10746     10748     10748     10746     10749
     10750     10746     10749     10750     10746     10748     10750     10746     10747
     10752     10756     10757     10753     10752     10755     10753     10752     10754
     10754     10752     10755     10756     10752     10755     10756     10752     10754
     10756     10752     10753     10758     10762     10763     10759     10758     10761
     10759     10758     10760     10760     10758     10761     10762     10758     10761
     10762     10758     10760     10762     10758     10759     10764     10768     10769
     10765     10764     10767     10765     10764     10766     10766     10764     10767
     10768     10764     10767     10768     10764     10766     10768     10764     10765
     10770     10774     10775     10771     10770     10773     10771     10770     10772
     10772     10770     10773     10774     10770     10773     10774     10770     10772
     10774     10770     10771     10776     10780     10781     10777     10776     10779
     10777     10776     10778     10778     10776     10779     10780     10776     10779
     10780     10776     10778     10780     10776     10777     10782     10786     10787
     10783     10782     10785     10783     10782     10784     10784     10782     10785
     10786     10782     10785     10786     10782     10784     10786     10782     10783
     10788     10792     10793     10789     10788     10791     10789     10788     10790
     10790     10788     10791     10792     10788     10791     10792     10788     10790
     10792     10788     10789     10794     10798     10799     10795     10794     10797
     10795     10794     10796     10796     10794     10797     10798     10794     10797
     10798     10794     10796     10798     10794     10795     10800     10804     10805
     10801     10800     10803     10801     10800     10802     10802     10800     10803
     10804     10800     10803     10804     10800     10802     10804     10800     10801
     10806     10810     10811     10807     10806     10809     10807     10806     10808
     10808     10806     10809     10810     10806     10809     10810     10806     10808
     10810     10806     10807     10812     10816     10817     10813     10812     10815
     10813     10812     10814     10814     10812     10815     10816     10812     10815
     10816     10812     10814     10816     10812     10813     10818     10822     10823
     10819     10818     10821     10819     10818     10820     10820     10818     10821
     10822     10818     10821     10822     10818     10820     10822     10818     10819
     10824     10828     10829     10825     10824     10827     10825     10824     10826
     10826     10824     10827     10828     10824     10827     10828     10824     10826
     10828     10824     10825     10830     10834     10835     10831     10830     10833
     10831     10830     10832     10832     10830     10833     10834     10830     10833
     10834     10830     10832     10834     10830     10831     10836     10840     10841
     10837     10836     10839     10837     10836     10838     10838     10836     10839
     10840     10836     10839     10840     10836     10838     10840     10836     10837
     10842     10846     10847     10843     10842     10845     10843     10842     10844
     10844     10842     10845     10846     10842     10845     10846     10842     10844
     10846     10842     10843     10848     10852     10853     10849     10848     10851
     10849     10848     10850     10850     10848     10851     10852     10848     10851
     10852     10848     10850     10852     10848     10849     10854     10858     10859
     10855     10854     10857     10855     10854     10856     10856     10854     10857
     10858     10854     10857     10858     10854     10856     10858     10854     10855
     10860     10864     10865     10861     10860     10863     10861     10860     10862
     10862     10860     10863     10864     10860     10863     10864     10860     10862
     10864     10860     10861     10866     10870     10871     10867     10866     10869
     10867     10866     10868     10868     10866     10869     10870     10866     10869
     10870     10866     10868     10870     10866     10867     10872     10876     10877
     10873     10872     10875     10873     10872     10874     10874     10872     10875
     10876     10872     10875     10876     10872     10874     10876     10872     10873
     10878     10882     10883     10879     10878     10881     10879     10878     10880
     10880     10878     10881     10882     10878     10881     10882     10878     10880
     10882     10878     10879     10884     10888     10889     10885     10884     10887
     10885     10884     10886     10886     10884     10887     10888     10884     10887
     10888     10884     10886     10888     10884     10885     10890     10894     10895
     10891     10890     10893     10891     10890     10892     10892     10890     10893
     10894     10890     10893     10894     10890     10892     10894     10890     10891
     10896     10900     10901     10897     10896     10899     10897     10896     10898
     10898     10896     10899     10900     10896     10899     10900     10896     10898
     10900     10896     10897     10902     10906     10907     10903     10902     10905
     10903     10902     10904     10904     10902     10905     10906     10902     10905
     10906     10902     10904     10906     10902     10903     10908     10912     10913
     10909     10908     10911     10909     10908     10910     10910     10908     10911
     10912     10908     10911     10912     10908     10910     10912     10908     10909
     10914     10918     10919     10915     10914     10917     10915     10914     10916
     10916     10914     10917     10918     10914     10917     10918     10914     10916
     10918     10914     10915     10920     10924     10925     10921     10920     10923
     10921     10920     10922     10922     10920     10923     10924     10920     10923
     10924     10920     10922     10924     10920     10921     10926     10930     10931
     10927     10926     10929     10927     10926     10928     10928     10926     10929
     10930     10926     10929     10930     10926     10928     10930     10926     10927
     10932     10936     10937     10933     10932     10935     10933     10932     10934
     10934     10932     10935     10936     10932     10935     10936     10932     10934
     10936     10932     10933     10938     10942     10943     10939     10938     10941
     10939     10938     10940     10940     10938     10941     10942     10938     10941
     10942     10938     10940     10942     10938     10939     10944     10948     10949
     10945     10944     10947     10945     10944     10946     10946     10944     10947
     10948     10944     10947     10948     10944     10946     10948     10944     10945
     10950     10954     10955     10951     10950     10953     10951     10950     10952
     10952     10950     10953     10954     10950     10953     10954     10950     10952
     10954     10950     10951     10956     10960     10961     10957     10956     10959
     10957     10956     10958     10958     10956     10959     10960     10956     10959
     10960     10956     10958     10960     10956     10957     10962     10966     10967
     10963     10962     10965     10963     10962     10964     10964     10962     10965
     10966     10962     10965     10966     10962     10964     10966     10962     10963
     10968     10972     10973     10969     10968     10971     10969     10968     10970
     10970     10968     10971     10972     10968     10971     10972     10968     10970
     10972     10968     10969     10974     10978     10979     10975     10974     10977
     10975     10974     10976     10976     10974     10977     10978     10974     10977
     10978     10974     10976     10978     10974     10975     10980     10984     10985
     10981     10980     10983     10981     10980     10982     10982     10980     10983
     10984     10980     10983     10984     10980     10982     10984     10980     10981
     10986     10990     10991     10987     10986     10989     10987     10986     10988
     10988     10986     10989     10990     10986     10989     10990     10986     10988
     10990     10986     10987     10992     10996     10997     10993     10992     10995
     10993     10992     10994     10994     10992     10995     10996     10992     10995
     10996     10992     10994     10996     10992     10993     10998     11002     11003
     10999     10998     11001     10999     10998     11000     11000     10998     11001
     11002     10998     11001     11002     10998     11000     11002     10998     10999
     11004     11008     11009     11005     11004     11007     11005     11004     11006
     11006     11004     11007     11008     11004     11007     11008     11004     11006
     11008     11004     11005     11010     11014     11015     11011     11010     11013
     11011     11010     11012     11012     11010     11013     11014     11010     11013
     11014     11010     11012     11014     11010     11011     11016     11020     11021
     11017     11016     11019     11017     11016     11018     11018     11016     11019
     11020     11016     11019     11020     11016     11018     11020     11016     11017
     11022     11026     11027     11023     11022     11025     11023     11022     11024
     11024     11022     11025     11026     11022     11025     11026     11022     11024
     11026     11022     11023     11028     11032     11033     11029     11028     11031
     11029     11028     11030     11030     11028     11031     11032     11028     11031
     11032     11028     11030     11032     11028     11029     11034     11038     11039
     11035     11034     11037     11035     11034     11036     11036     11034     11037
     11038     11034     11037     11038     11034     11036     11038     11034     11035
     11040     11044     11045     11041     11040     11043     11041     11040     11042
     11042     11040     11043     11044     11040     11043     11044     11040     11042
     11044     11040     11041     11046     11050     11051     11047     11046     11049
     11047     11046     11048     11048     11046     11049     11050     11046     11049
     11050     11046     11048     11050     11046     11047     11052     11056     11057
     11053     11052     11055     11053     11052     11054     11054     11052     11055
     11056     11052     11055     11056     11052     11054     11056     11052     11053
     11058     11062     11063     11059     11058     11061     11059     11058     11060
     11060     11058     11061     11062     11058     11061     11062     11058     11060
     11062     11058     11059     11064     11068     11069     11065     11064     11067
     11065     11064     11066     11066     11064     11067     11068     11064     11067
     11068     11064     11066     11068     11064     11065     11070     11074     11075
     11071     11070     11073     11071     11070     11072     11072     11070     11073
     11074     11070     11073     11074     11070     11072     11074     11070     11071
     11076     11080     11081     11077     11076     11079     11077     11076     11078
     11078     11076     11079     11080     11076     11079     11080     11076     11078
     11080     11076     11077     11082     11086     11087     11083     11082     11085
     11083     11082     11084     11084     11082     11085     11086     11082     11085
     11086     11082     11084     11086     11082     11083     11088     11092     11093
     11089     11088     11091     11089     11088     11090     11090     11088     11091
     11092     11088     11091     11092     11088     11090     11092     11088     11089
     11094     11098     11099     11095     11094     11097     11095     11094     11096
     11096     11094     11097     11098     11094     11097     11098     11094     11096
     11098     11094     11095     11100     11104     11105     11101     11100     11103
     11101     11100     11102     11102     11100     11103     11104     11100     11103
     11104     11100     11102     11104     11100     11101     11106     11110     11111
     11107     11106     11109     11107     11106     11108     11108     11106     11109
     11110     11106     11109     11110     11106     11108     11110     11106     11107
     11112     11116     11117     11113     11112     11115     11113     11112     11114
     11114     11112     11115     11116     11112     11115     11116     11112     11114
     11116     11112     11113     11118     11122     11123     11119     11118     11121
     11119     11118     11120     11120     11118     11121     11122     11118     11121
     11122     11118     11120     11122     11118     11119     11124     11128     11129
     11125     11124     11127     11125     11124     11126     11126     11124     11127
     11128     11124     11127     11128     11124     11126     11128     11124     11125
     11130     11134     11135     11131     11130     11133     11131     11130     11132
     11132     11130     11133     11134     11130     11133     11134     11130     11132
     11134     11130     11131     11136     11140     11141     11137     11136     11139
     11137     11136     11138     11138     11136     11139     11140     11136     11139
     11140     11136     11138     11140     11136     11137     11142     11146     11147
     11143     11142     11145     11143     11142     11144     11144     11142     11145
     11146     11142     11145     11146     11142     11144     11146     11142     11143
     11148     11152     11153     11149     11148     11151     11149     11148     11150
     11150     11148     11151     11152     11148     11151     11152     11148     11150
     11152     11148     11149     11154     11158     11159     11155     11154     11157
     11155     11154     11156     11156     11154     11157     11158     11154     11157
     11158     11154     11156     11158     11154     11155     11160     11164     11165
     11161     11160     11163     11161     11160     11162     11162     11160     11163
     11164     11160     11163     11164     11160     11162     11164     11160     11161
     11166     11170     11171     11167     11166     11169     11167     11166     11168
     11168     11166     11169     11170     11166     11169     11170     11166     11168
     11170     11166     11167     11172     11176     11177     11173     11172     11175
     11173     11172     11174     11174     11172     11175     11176     11172     11175
     11176     11172     11174     11176     11172     11173     11178     11182     11183
     11179     11178     11181     11179     11178     11180     11180     11178     11181
     11182     11178     11181     11182     11178     11180     11182     11178     11179
     11184     11188     11189     11185     11184     11187     11185     11184     11186
     11186     11184     11187     11188     11184     11187     11188     11184     11186
     11188     11184     11185     11190     11194     11195     11191     11190     11193
     11191     11190     11192     11192     11190     11193     11194     11190     11193
     11194     11190     11192     11194     11190     11191     11196     11200     11201
     11197     11196     11199     11197     11196     11198     11198     11196     11199
     11200     11196     11199     11200     11196     11198     11200     11196     11197
     11202     11206     11207     11203     11202     11205     11203     11202     11204
     11204     11202     11205     11206     11202     11205     11206     11202     11204
     11206     11202     11203     11208     11212     11213     11209     11208     11211
     11209     11208     11210     11210     11208     11211     11212     11208     11211
     11212     11208     11210     11212     11208     11209     11214     11218     11219
     11215     11214     11217     11215     11214     11216     11216     11214     11217
     11218     11214     11217     11218     11214     11216     11218     11214     11215
     11220     11224     11225     11221     11220     11223     11221     11220     11222
     11222     11220     11223     11224     11220     11223     11224     11220     11222
     11224     11220     11221     11226     11230     11231     11227     11226     11229
     11227     11226     11228     11228     11226     11229     11230     11226     11229
     11230     11226     11228     11230     11226     11227     11232     11236     11237
     11233     11232     11235     11233     11232     11234     11234     11232     11235
     11236     11232     11235     11236     11232     11234     11236     11232     11233
     11238     11242     11243     11239     11238     11241     11239     11238     11240
     11240     11238     11241     11242     11238     11241     11242     11238     11240
     11242     11238     11239     11244     11248     11249     11245     11244     11247
     11245     11244     11246     11246     11244     11247     11248     11244     11247
     11248     11244     11246     11248     11244     11245     11250     11254     11255
     11251     11250     11253     11251     11250     11252     11252     11250     11253
     11254     11250     11253     11254     11250     11252     11254     11250     11251
     11256     11260     11261     11257     11256     11259     11257     11256     11258
     11258     11256     11259     11260     11256     11259     11260     11256     11258
     11260     11256     11257     11262     11266     11267     11263     11262     11265
     11263     11262     11264     11264     11262     11265     11266     11262     11265
     11266     11262     11264     11266     11262     11263     11268     11272     11273
     11269     11268     11271     11269     11268     11270     11270     11268     11271
     11272     11268     11271     11272     11268     11270     11272     11268     11269
     11274     11278     11279     11275     11274     11277     11275     11274     11276
     11276     11274     11277     11278     11274     11277     11278     11274     11276
     11278     11274     11275     11280     11284     11285     11281     11280     11283
     11281     11280     11282     11282     11280     11283     11284     11280     11283
     11284     11280     11282     11284     11280     11281     11286     11290     11291
     11287     11286     11289     11287     11286     11288     11288     11286     11289
     11290     11286     11289     11290     11286     11288     11290     11286     11287
     11292     11296     11297     11293     11292     11295     11293     11292     11294
     11294     11292     11295     11296     11292     11295     11296     11292     11294
     11296     11292     11293     11298     11302     11303     11299     11298     11301
     11299     11298     11300     11300     11298     11301     11302     11298     11301
     11302     11298     11300     11302     11298     11299     11304     11308     11309
     11305     11304     11307     11305     11304     11306     11306     11304     11307
     11308     11304     11307     11308     11304     11306     11308     11304     11305
     11310     11314     11315     11311     11310     11313     11311     11310     11312
     11312     11310     11313     11314     11310     11313     11314     11310     11312
     11314     11310     11311     11316     11320     11321     11317     11316     11319
     11317     11316     11318     11318     11316     11319     11320     11316     11319
     11320     11316     11318     11320     11316     11317     11322     11326     11327
     11323     11322     11325     11323     11322     11324     11324     11322     11325
     11326     11322     11325     11326     11322     11324     11326     11322     11323
     11328     11332     11333     11329     11328     11331     11329     11328     11330
     11330     11328     11331     11332     11328     11331     11332     11328     11330
     11332     11328     11329     11334     11338     11339     11335     11334     11337
     11335     11334     11336     11336     11334     11337     11338     11334     11337
     11338     11334     11336     11338     11334     11335     11340     11344     11345
     11341     11340     11343     11341     11340     11342     11342     11340     11343
     11344     11340     11343     11344     11340     11342     11344     11340     11341
     11346     11350     11351     11347     11346     11349     11347     11346     11348
     11348     11346     11349     11350     11346     11349     11350     11346     11348
     11350     11346     11347     11352     11356     11357     11353     11352     11355
     11353     11352     11354     11354     11352     11355     11356     11352     11355
     11356     11352     11354     11356     11352     11353     11358     11362     11363
     11359     11358     11361     11359     11358     11360     11360     11358     11361
     11362     11358     11361     11362     11358     11360     11362     11358     11359
     11364     11368     11369     11365     11364     11367     11365     11364     11366
     11366     11364     11367     11368     11364     11367     11368     11364     11366
     11368     11364     11365     11370     11374     11375     11371     11370     11373
     11371     11370     11372     11372     11370     11373     11374     11370     11373
     11374     11370     11372     11374     11370     11371     11376     11380     11381
     11377     11376     11379     11377     11376     11378     11378     11376     11379
     11380     11376     11379     11380     11376     11378     11380     11376     11377
     11382     11386     11387     11383     11382     11385     11383     11382     11384
     11384     11382     11385     11386     11382     11385     11386     11382     11384
     11386     11382     11383     11388     11392     11393     11389     11388     11391
     11389     11388     11390     11390     11388     11391     11392     11388     11391
     11392     11388     11390     11392     11388     11389     11394     11398     11399
     11395     11394     11397     11395     11394     11396     11396     11394     11397
     11398     11394     11397     11398     11394     11396     11398     11394     11395
     11400     11404     11405     11401     11400     11403     11401     11400     11402
     11402     11400     11403     11404     11400     11403     11404     11400     11402
     11404     11400     11401     11406     11410     11411     11407     11406     11409
     11407     11406     11408     11408     11406     11409     11410     11406     11409
     11410     11406     11408     11410     11406     11407     11412     11416     11417
     11413     11412     11415     11413     11412     11414     11414     11412     11415
     11416     11412     11415     11416     11412     11414     11416     11412     11413
     11418     11422     11423     11419     11418     11421     11419     11418     11420
     11420     11418     11421     11422     11418     11421     11422     11418     11420
     11422     11418     11419     11424     11428     11429     11425     11424     11427
     11425     11424     11426     11426     11424     11427     11428     11424     11427
     11428     11424     11426     11428     11424     11425     11430     11434     11435
     11431     11430     11433     11431     11430     11432     11432     11430     11433
     11434     11430     11433     11434     11430     11432     11434     11430     11431
     11436     11440     11441     11437     11436     11439     11437     11436     11438
     11438     11436     11439     11440     11436     11439     11440     11436     11438
     11440     11436     11437     11442     11446     11447     11443     11442     11445
     11443     11442     11444     11444     11442     11445     11446     11442     11445
     11446     11442     11444     11446     11442     11443     11448     11452     11453
     11449     11448     11451     11449     11448     11450     11450     11448     11451
     11452     11448     11451     11452     11448     11450     11452     11448     11449
     11454     11458     11459     11455     11454     11457     11455     11454     11456
     11456     11454     11457     11458     11454     11457     11458     11454     11456
     11458     11454     11455     11460     11464     11465     11461     11460     11463
     11461     11460     11462     11462     11460     11463     11464     11460     11463
     11464     11460     11462     11464     11460     11461     11466     11470     11471
     11467     11466     11469     11467     11466     11468     11468     11466     11469
     11470     11466     11469     11470     11466     11468     11470     11466     11467
     11472     11476     11477     11473     11472     11475     11473     11472     11474
     11474     11472     11475     11476     11472     11475     11476     11472     11474
     11476     11472     11473     11478     11482     11483     11479     11478     11481
     11479     11478     11480     11480     11478     11481     11482     11478     11481
     11482     11478     11480     11482     11478     11479     11484     11488     11489
     11485     11484     11487     11485     11484     11486     11486     11484     11487
     11488     11484     11487     11488     11484     11486     11488     11484     11485
     11490     11494     11495     11491     11490     11493     11491     11490     11492
     11492     11490     11493     11494     11490     11493     11494     11490     11492
     11494     11490     11491     11496     11500     11501     11497     11496     11499
     11497     11496     11498     11498     11496     11499     11500     11496     11499
     11500     11496     11498     11500     11496     11497     11502     11506     11507
     11503     11502     11505     11503     11502     11504     11504     11502     11505
     11506     11502     11505     11506     11502     11504     11506     11502     11503
     11508     11512     11513     11509     11508     11511     11509     11508     11510
     11510     11508     11511     11512     11508     11511     11512     11508     11510
     11512     11508     11509     11514     11518     11519     11515     11514     11517
     11515     11514     11516     11516     11514     11517     11518     11514     11517
     11518     11514     11516     11518     11514     11515     11520     11524     11525
     11521     11520     11523     11521     11520     11522     11522     11520     11523
     11524     11520     11523     11524     11520     11522     11524     11520     11521
     11526     11530     11531     11527     11526     11529     11527     11526     11528
     11528     11526     11529     11530     11526     11529     11530     11526     11528
     11530     11526     11527     11532     11536     11537     11533     11532     11535
     11533     11532     11534     11534     11532     11535     11536     11532     11535
     11536     11532     11534     11536     11532     11533     11538     11542     11543
     11539     11538     11541     11539     11538     11540     11540     11538     11541
     11542     11538     11541     11542     11538     11540     11542     11538     11539
     11544     11548     11549     11545     11544     11547     11545     11544     11546
     11546     11544     11547     11548     11544     11547     11548     11544     11546
     11548     11544     11545     11550     11554     11555     11551     11550     11553
     11551     11550     11552     11552     11550     11553     11554     11550     11553
     11554     11550     11552     11554     11550     11551     11556     11560     11561
     11557     11556     11559     11557     11556     11558     11558     11556     11559
     11560     11556     11559     11560     11556     11558     11560     11556     11557
     11562     11566     11567     11563     11562     11565     11563     11562     11564
     11564     11562     11565     11566     11562     11565     11566     11562     11564
     11566     11562     11563     11568     11572     11573     11569     11568     11571
     11569     11568     11570     11570     11568     11571     11572     11568     11571
     11572     11568     11570     11572     11568     11569     11574     11578     11579
     11575     11574     11577     11575     11574     11576     11576     11574     11577
     11578     11574     11577     11578     11574     11576     11578     11574     11575
     11580     11584     11585     11581     11580     11583     11581     11580     11582
     11582     11580     11583     11584     11580     11583     11584     11580     11582
     11584     11580     11581     11586     11590     11591     11587     11586     11589
     11587     11586     11588     11588     11586     11589     11590     11586     11589
     11590     11586     11588     11590     11586     11587     11592     11596     11597
     11593     11592     11595     11593     11592     11594     11594     11592     11595
     11596     11592     11595     11596     11592     11594     11596     11592     11593
     11598     11602     11603     11599     11598     11601     11599     11598     11600
     11600     11598     11601     11602     11598     11601     11602     11598     11600
     11602     11598     11599     11604     11608     11609     11605     11604     11607
     11605     11604     11606     11606     11604     11607     11608     11604     11607
     11608     11604     11606     11608     11604     11605     11610     11614     11615
     11611     11610     11613     11611     11610     11612     11612     11610     11613
     11614     11610     11613     11614     11610     11612     11614     11610     11611
     11616     11620     11621     11617     11616     11619     11617     11616     11618
     11618     11616     11619     11620     11616     11619     11620     11616     11618
     11620     11616     11617     11622     11626     11627     11623     11622     11625
     11623     11622     11624     11624     11622     11625     11626     11622     11625
     11626     11622     11624     11626     11622     11623     11628     11632     11633
     11629     11628     11631     11629     11628     11630     11630     11628     11631
     11632     11628     11631     11632     11628     11630     11632     11628     11629
     11634     11638     11639     11635     11634     11637     11635     11634     11636
     11636     11634     11637     11638     11634     11637     11638     11634     11636
     11638     11634     11635     11640     11644     11645     11641     11640     11643
     11641     11640     11642     11642     11640     11643     11644     11640     11643
     11644     11640     11642     11644     11640     11641     11646     11650     11651
     11647     11646     11649     11647     11646     11648     11648     11646     11649
     11650     11646     11649     11650     11646     11648     11650     11646     11647
     11652     11656     11657     11653     11652     11655     11653     11652     11654
     11654     11652     11655     11656     11652     11655     11656     11652     11654
     11656     11652     11653     11658     11662     11663     11659     11658     11661
     11659     11658     11660     11660     11658     11661     11662     11658     11661
     11662     11658     11660     11662     11658     11659     11664     11668     11669
     11665     11664     11667     11665     11664     11666     11666     11664     11667
     11668     11664     11667     11668     11664     11666     11668     11664     11665
     11670     11674     11675     11671     11670     11673     11671     11670     11672
     11672     11670     11673     11674     11670     11673     11674     11670     11672
     11674     11670     11671     11676     11680     11681     11677     11676     11679
     11677     11676     11678     11678     11676     11679     11680     11676     11679
     11680     11676     11678     11680     11676     11677     11682     11686     11687
     11683     11682     11685     11683     11682     11684     11684     11682     11685
     11686     11682     11685     11686     11682     11684     11686     11682     11683
     11688     11692     11693     11689     11688     11691     11689     11688     11690
     11690     11688     11691     11692     11688     11691     11692     11688     11690
     11692     11688     11689     11694     11698     11699     11695     11694     11697
     11695     11694     11696     11696     11694     11697     11698     11694     11697
     11698     11694     11696     11698     11694     11695     11700     11704     11705
     11701     11700     11703     11701     11700     11702     11702     11700     11703
     11704     11700     11703     11704     11700     11702     11704     11700     11701
     11706     11710     11711     11707     11706     11709     11707     11706     11708
     11708     11706     11709     11710     11706     11709     11710     11706     11708
     11710     11706     11707     11712     11716     11717     11713     11712     11715
     11713     11712     11714     11714     11712     11715     11716     11712     11715
     11716     11712     11714     11716     11712     11713     11718     11722     11723
     11719     11718     11721     11719     11718     11720     11720     11718     11721
     11722     11718     11721     11722     11718     11720     11722     11718     11719
     11724     11728     11729     11725     11724     11727     11725     11724     11726
     11726     11724     11727     11728     11724     11727     11728     11724     11726
     11728     11724     11725     11730     11734     11735     11731     11730     11733
     11731     11730     11732     11732     11730     11733     11734     11730     11733
     11734     11730     11732     11734     11730     11731     11736     11740     11741
     11737     11736     11739     11737     11736     11738     11738     11736     11739
     11740     11736     11739     11740     11736     11738     11740     11736     11737
     11742     11746     11747     11743     11742     11745     11743     11742     11744
     11744     11742     11745     11746     11742     11745     11746     11742     11744
     11746     11742     11743     11748     11752     11753     11749     11748     11751
     11749     11748     11750     11750     11748     11751     11752     11748     11751
     11752     11748     11750     11752     11748     11749     11754     11758     11759
     11755     11754     11757     11755     11754     11756     11756     11754     11757
     11758     11754     11757     11758     11754     11756     11758     11754     11755
     11760     11764     11765     11761     11760     11763     11761     11760     11762
     11762     11760     11763     11764     11760     11763     11764     11760     11762
     11764     11760     11761     11766     11770     11771     11767     11766     11769
     11767     11766     11768     11768     11766     11769     11770     11766     11769
     11770     11766     11768     11770     11766     11767     11772     11776     11777
     11773     11772     11775     11773     11772     11774     11774     11772     11775
     11776     11772     11775     11776     11772     11774     11776     11772     11773
     11778     11782     11783     11779     11778     11781     11779     11778     11780
     11780     11778     11781     11782     11778     11781     11782     11778     11780
     11782     11778     11779     11784     11788     11789     11785     11784     11787
     11785     11784     11786     11786     11784     11787     11788     11784     11787
     11788     11784     11786     11788     11784     11785     11790     11794     11795
     11791     11790     11793     11791     11790     11792     11792     11790     11793
     11794     11790     11793     11794     11790     11792     11794     11790     11791
     11796     11800     11801     11797     11796     11799     11797     11796     11798
     11798     11796     11799     11800     11796     11799     11800     11796     11798
     11800     11796     11797     11802     11806     11807     11803     11802     11805
     11803     11802     11804     11804     11802     11805     11806     11802     11805
     11806     11802     11804     11806     11802     11803     11808     11812     11813
     11809     11808     11811     11809     11808     11810     11810     11808     11811
     11812     11808     11811     11812     11808     11810     11812     11808     11809
     11814     11818     11819     11815     11814     11817     11815     11814     11816
     11816     11814     11817     11818     11814     11817     11818     11814     11816
     11818     11814     11815     11820     11824     11825     11821     11820     11823
     11821     11820     11822     11822     11820     11823     11824     11820     11823
     11824     11820     11822     11824     11820     11821     11826     11830     11831
     11827     11826     11829     11827     11826     11828     11828     11826     11829
     11830     11826     11829     11830     11826     11828     11830     11826     11827
     11832     11836     11837     11833     11832     11835     11833     11832     11834
     11834     11832     11835     11836     11832     11835     11836     11832     11834
     11836     11832     11833     11838     11842     11843     11839     11838     11841
     11839     11838     11840     11840     11838     11841     11842     11838     11841
     11842     11838     11840     11842     11838     11839     11844     11848     11849
     11845     11844     11847     11845     11844     11846     11846     11844     11847
     11848     11844     11847     11848     11844     11846     11848     11844     11845
     11850     11854     11855     11851     11850     11853     11851     11850     11852
     11852     11850     11853     11854     11850     11853     11854     11850     11852
     11854     11850     11851     11856     11860     11861     11857     11856     11859
     11857     11856     11858     11858     11856     11859     11860     11856     11859
     11860     11856     11858     11860     11856     11857     11862     11866     11867
     11863     11862     11865     11863     11862     11864     11864     11862     11865
     11866     11862     11865     11866     11862     11864     11866     11862     11863
     11868     11872     11873     11869     11868     11871     11869     11868     11870
     11870     11868     11871     11872     11868     11871     11872     11868     11870
     11872     11868     11869     11874     11878     11879     11875     11874     11877
     11875     11874     11876     11876     11874     11877     11878     11874     11877
     11878     11874     11876     11878     11874     11875     11880     11884     11885
     11881     11880     11883     11881     11880     11882     11882     11880     11883
     11884     11880     11883     11884     11880     11882     11884     11880     11881
     11886     11890     11891     11887     11886     11889     11887     11886     11888
     11888     11886     11889     11890     11886     11889     11890     11886     11888
     11890     11886     11887     11892     11896     11897     11893     11892     11895
     11893     11892     11894     11894     11892     11895     11896     11892     11895
     11896     11892     11894     11896     11892     11893     11898     11902     11903
     11899     11898     11901     11899     11898     11900     11900     11898     11901
     11902     11898     11901     11902     11898     11900     11902     11898     11899
     11904     11908     11909     11905     11904     11907     11905     11904     11906
     11906     11904     11907     11908     11904     11907     11908     11904     11906
     11908     11904     11905     11910     11914     11915     11911     11910     11913
     11911     11910     11912     11912     11910     11913     11914     11910     11913
     11914     11910     11912     11914     11910     11911     11916     11920     11921
     11917     11916     11919     11917     11916     11918     11918     11916     11919
     11920     11916     11919     11920     11916     11918     11920     11916     11917
     11922     11926     11927     11923     11922     11925     11923     11922     11924
     11924     11922     11925     11926     11922     11925     11926     11922     11924
     11926     11922     11923     11928     11932     11933     11929     11928     11931
     11929     11928     11930     11930     11928     11931     11932     11928     11931
     11932     11928     11930     11932     11928     11929     11934     11938     11939
     11935     11934     11937     11935     11934     11936     11936     11934     11937
     11938     11934     11937     11938     11934     11936     11938     11934     11935
     11940     11944     11945     11941     11940     11943     11941     11940     11942
     11942     11940     11943     11944     11940     11943     11944     11940     11942
     11944     11940     11941     11946     11950     11951     11947     11946     11949
     11947     11946     11948     11948     11946     11949     11950     11946     11949
     11950     11946     11948     11950     11946     11947     11952     11956     11957
     11953     11952     11955     11953     11952     11954     11954     11952     11955
     11956     11952     11955     11956     11952     11954     11956     11952     11953
     11958     11962     11963     11959     11958     11961     11959     11958     11960
     11960     11958     11961     11962     11958     11961     11962     11958     11960
     11962     11958     11959     11964     11968     11969     11965     11964     11967
     11965     11964     11966     11966     11964     11967     11968     11964     11967
     11968     11964     11966     11968     11964     11965     11970     11974     11975
     11971     11970     11973     11971     11970     11972     11972     11970     11973
     11974     11970     11973     11974     11970     11972     11974     11970     11971
     11976     11980     11981     11977     11976     11979     11977     11976     11978
     11978     11976     11979     11980     11976     11979     11980     11976     11978
     11980     11976     11977     11982     11986     11987     11983     11982     11985
     11983     11982     11984     11984     11982     11985     11986     11982     11985
     11986     11982     11984     11986     11982     11983     11988     11992     11993
     11989     11988     11991     11989     11988     11990     11990     11988     11991
     11992     11988     11991     11992     11988     11990     11992     11988     11989
     11994     11998     11999     11995     11994     11997     11995     11994     11996
     11996     11994     11997     11998     11994     11997     11998     11994     11996
     11998     11994     11995     12000     12004     12005     12001     12000     12003
     12001     12000     12002     12002     12000     12003     12004     12000     12003
     12004     12000     12002     12004     12000     12001     12006     12010     12011
     12007     12006     12009     12007     12006     12008     12008     12006     12009
     12010     12006     12009     12010     12006     12008     12010     12006     12007
     12012     12016     12017     12013     12012     12015     12013     12012     12014
     12014     12012     12015     12016     12012     12015     12016     12012     12014
     12016     12012     12013     12018     12022     12023     12019     12018     12021
     12019     12018     12020     12020     12018     12021     12022     12018     12021
     12022     12018     12020     12022     12018     12019     12024     12028     12029
     12025     12024     12027     12025     12024     12026     12026     12024     12027
     12028     12024     12027     12028     12024     12026     12028     12024     12025
     12030     12034     12035     12031     12030     12033     12031     12030     12032
     12032     12030     12033     12034     12030     12033     12034     12030     12032
     12034     12030     12031     12036     12040     12041     12037     12036     12039
     12037     12036     12038     12038     12036     12039     12040     12036     12039
     12040     12036     12038     12040     12036     12037     12042     12046     12047
     12043     12042     12045     12043     12042     12044     12044     12042     12045
     12046     12042     12045     12046     12042     12044     12046     12042     12043
     12048     12052     12053     12049     12048     12051     12049     12048     12050
     12050     12048     12051     12052     12048     12051     12052     12048     12050
     12052     12048     12049     12054     12058     12059     12055     12054     12057
     12055     12054     12056     12056     12054     12057     12058     12054     12057
     12058     12054     12056     12058     12054     12055     12060     12064     12065
     12061     12060     12063     12061     12060     12062     12062     12060     12063
     12064     12060     12063     12064     12060     12062     12064     12060     12061
     12066     12070     12071     12067     12066     12069     12067     12066     12068
     12068     12066     12069     12070     12066     12069     12070     12066     12068
     12070     12066     12067     12072     12076     12077     12073     12072     12075
     12073     12072     12074     12074     12072     12075     12076     12072     12075
     12076     12072     12074     12076     12072     12073     12078     12082     12083
     12079     12078     12081     12079     12078     12080     12080     12078     12081
     12082     12078     12081     12082     12078     12080     12082     12078     12079
     12084     12088     12089     12085     12084     12087     12085     12084     12086
     12086     12084     12087     12088     12084     12087     12088     12084     12086
     12088     12084     12085     12090     12094     12095     12091     12090     12093
     12091     12090     12092     12092     12090     12093     12094     12090     12093
     12094     12090     12092     12094     12090     12091     12096     12100     12101
     12097     12096     12099     12097     12096     12098     12098     12096     12099
     12100     12096     12099     12100     12096     12098     12100     12096     12097
     12102     12106     12107     12103     12102     12105     12103     12102     12104
     12104     12102     12105     12106     12102     12105     12106     12102     12104
     12106     12102     12103     12108     12112     12113     12109     12108     12111
     12109     12108     12110     12110     12108     12111     12112     12108     12111
     12112     12108     12110     12112     12108     12109     12114     12118     12119
     12115     12114     12117     12115     12114     12116     12116     12114     12117
     12118     12114     12117     12118     12114     12116     12118     12114     12115
     12120     12124     12125     12121     12120     12123     12121     12120     12122
     12122     12120     12123     12124     12120     12123     12124     12120     12122
     12124     12120     12121     12126     12130     12131     12127     12126     12129
     12127     12126     12128     12128     12126     12129     12130     12126     12129
     12130     12126     12128     12130     12126     12127     12132     12136     12137
     12133     12132     12135     12133     12132     12134     12134     12132     12135
     12136     12132     12135     12136     12132     12134     12136     12132     12133
     12138     12142     12143     12139     12138     12141     12139     12138     12140
     12140     12138     12141     12142     12138     12141     12142     12138     12140
     12142     12138     12139     12144     12148     12149     12145     12144     12147
     12145     12144     12146     12146     12144     12147     12148     12144     12147
     12148     12144     12146     12148     12144     12145     12150     12154     12155
     12151     12150     12153     12151     12150     12152     12152     12150     12153
     12154     12150     12153     12154     12150     12152     12154     12150     12151
     12156     12160     12161     12157     12156     12159     12157     12156     12158
     12158     12156     12159     12160     12156     12159     12160     12156     12158
     12160     12156     12157     12162     12166     12167     12163     12162     12165
     12163     12162     12164     12164     12162     12165     12166     12162     12165
     12166     12162     12164     12166     12162     12163     12168     12172     12173
     12169     12168     12171     12169     12168     12170     12170     12168     12171
     12172     12168     12171     12172     12168     12170     12172     12168     12169
     12174     12178     12179     12175     12174     12177     12175     12174     12176
     12176     12174     12177     12178     12174     12177     12178     12174     12176
     12178     12174     12175     12180     12184     12185     12181     12180     12183
     12181     12180     12182     12182     12180     12183     12184     12180     12183
     12184     12180     12182     12184     12180     12181     12186     12190     12191
     12187     12186     12189     12187     12186     12188     12188     12186     12189
     12190     12186     12189     12190     12186     12188     12190     12186     12187
     12192     12196     12197     12193     12192     12195     12193     12192     12194
     12194     12192     12195     12196     12192     12195     12196     12192     12194
     12196     12192     12193     12198     12202     12203     12199     12198     12201
     12199     12198     12200     12200     12198     12201     12202     12198     12201
     12202     12198     12200     12202     12198     12199     12204     12208     12209
     12205     12204     12207     12205     12204     12206     12206     12204     12207
     12208     12204     12207     12208     12204     12206     12208     12204     12205
     12210     12214     12215     12211     12210     12213     12211     12210     12212
     12212     12210     12213     12214     12210     12213     12214     12210     12212
     12214     12210     12211     12216     12220     12221     12217     12216     12219
     12217     12216     12218     12218     12216     12219     12220     12216     12219
     12220     12216     12218     12220     12216     12217     12222     12226     12227
     12223     12222     12225     12223     12222     12224     12224     12222     12225
     12226     12222     12225     12226     12222     12224     12226     12222     12223
     12228     12232     12233     12229     12228     12231     12229     12228     12230
     12230     12228     12231     12232     12228     12231     12232     12228     12230
     12232     12228     12229     12234     12238     12239     12235     12234     12237
     12235     12234     12236     12236     12234     12237     12238     12234     12237
     12238     12234     12236     12238     12234     12235     12240     12244     12245
     12241     12240     12243     12241     12240     12242     12242     12240     12243
     12244     12240     12243     12244     12240     12242     12244     12240     12241
     12246     12250     12251     12247     12246     12249     12247     12246     12248
     12248     12246     12249     12250     12246     12249     12250     12246     12248
     12250     12246     12247     12252     12256     12257     12253     12252     12255
     12253     12252     12254     12254     12252     12255     12256     12252     12255
     12256     12252     12254     12256     12252     12253     12258     12262     12263
     12259     12258     12261     12259     12258     12260     12260     12258     12261
     12262     12258     12261     12262     12258     12260     12262     12258     12259
     12264     12268     12269     12265     12264     12267     12265     12264     12266
     12266     12264     12267     12268     12264     12267     12268     12264     12266
     12268     12264     12265     12270     12274     12275     12271     12270     12273
     12271     12270     12272     12272     12270     12273     12274     12270     12273
     12274     12270     12272     12274     12270     12271     12276     12280     12281
     12277     12276     12279     12277     12276     12278     12278     12276     12279
     12280     12276     12279     12280     12276     12278     12280     12276     12277
     12282     12286     12287     12283     12282     12285     12283     12282     12284
     12284     12282     12285     12286     12282     12285     12286     12282     12284
     12286     12282     12283     12288     12292     12293     12289     12288     12291
     12289     12288     12290     12290     12288     12291     12292     12288     12291
     12292     12288     12290     12292     12288     12289     12294     12298     12299
     12295     12294     12297     12295     12294     12296     12296     12294     12297
     12298     12294     12297     12298     12294     12296     12298     12294     12295
     12300     12304     12305     12301     12300     12303     12301     12300     12302
     12302     12300     12303     12304     12300     12303     12304     12300     12302
     12304     12300     12301     12306     12310     12311     12307     12306     12309
     12307     12306     12308     12308     12306     12309     12310     12306     12309
     12310     12306     12308     12310     12306     12307     12312     12316     12317
     12313     12312     12315     12313     12312     12314     12314     12312     12315
     12316     12312     12315     12316     12312     12314     12316     12312     12313
     12318     12322     12323     12319     12318     12321     12319     12318     12320
     12320     12318     12321     12322     12318     12321     12322     12318     12320
     12322     12318     12319     12324     12328     12329     12325     12324     12327
     12325     12324     12326     12326     12324     12327     12328     12324     12327
     12328     12324     12326     12328     12324     12325     12330     12334     12335
     12331     12330     12333     12331     12330     12332     12332     12330     12333
     12334     12330     12333     12334     12330     12332     12334     12330     12331
     12336     12340     12341     12337     12336     12339     12337     12336     12338
     12338     12336     12339     12340     12336     12339     12340     12336     12338
     12340     12336     12337     12342     12346     12347     12343     12342     12345
     12343     12342     12344     12344     12342     12345     12346     12342     12345
     12346     12342     12344     12346     12342     12343     12348     12352     12353
     12349     12348     12351     12349     12348     12350     12350     12348     12351
     12352     12348     12351     12352     12348     12350     12352     12348     12349
     12354     12358     12359     12355     12354     12357     12355     12354     12356
     12356     12354     12357     12358     12354     12357     12358     12354     12356
     12358     12354     12355     12360     12364     12365     12361     12360     12363
     12361     12360     12362     12362     12360     12363     12364     12360     12363
     12364     12360     12362     12364     12360     12361     12366     12370     12371
     12367     12366     12369     12367     12366     12368     12368     12366     12369
     12370     12366     12369     12370     12366     12368     12370     12366     12367
     12372     12376     12377     12373     12372     12375     12373     12372     12374
     12374     12372     12375     12376     12372     12375     12376     12372     12374
     12376     12372     12373     12378     12382     12383     12379     12378     12381
     12379     12378     12380     12380     12378     12381     12382     12378     12381
     12382     12378     12380     12382     12378     12379     12384     12388     12389
     12385     12384     12387     12385     12384     12386     12386     12384     12387
     12388     12384     12387     12388     12384     12386     12388     12384     12385
     12390     12394     12395     12391     12390     12393     12391     12390     12392
     12392     12390     12393     12394     12390     12393     12394     12390     12392
     12394     12390     12391     12396     12400     12401     12397     12396     12399
     12397     12396     12398     12398     12396     12399     12400     12396     12399
     12400     12396     12398     12400     12396     12397     12402     12406     12407
     12403     12402     12405     12403     12402     12404     12404     12402     12405
     12406     12402     12405     12406     12402     12404     12406     12402     12403
     12408     12412     12413     12409     12408     12411     12409     12408     12410
     12410     12408     12411     12412     12408     12411     12412     12408     12410
     12412     12408     12409     12414     12418     12419     12415     12414     12417
     12415     12414     12416     12416     12414     12417     12418     12414     12417
     12418     12414     12416     12418     12414     12415     12420     12424     12425
     12421     12420     12423     12421     12420     12422     12422     12420     12423
     12424     12420     12423     12424     12420     12422     12424     12420     12421
     12426     12430     12431     12427     12426     12429     12427     12426     12428
     12428     12426     12429     12430     12426     12429     12430     12426     12428
     12430     12426     12427     12432     12436     12437     12433     12432     12435
     12433     12432     12434     12434     12432     12435     12436     12432     12435
     12436     12432     12434     12436     12432     12433     12438     12442     12443
     12439     12438     12441     12439     12438     12440     12440     12438     12441
     12442     12438     12441     12442     12438     12440     12442     12438     12439
     12444     12448     12449     12445     12444     12447     12445     12444     12446
     12446     12444     12447     12448     12444     12447     12448     12444     12446
     12448     12444     12445     12450     12454     12455     12451     12450     12453
     12451     12450     12452     12452     12450     12453     12454     12450     12453
     12454     12450     12452     12454     12450     12451     12456     12460     12461
     12457     12456     12459     12457     12456     12458     12458     12456     12459
     12460     12456     12459     12460     12456     12458     12460     12456     12457
     12462     12466     12467     12463     12462     12465     12463     12462     12464
     12464     12462     12465     12466     12462     12465     12466     12462     12464
     12466     12462     12463     12468     12472     12473     12469     12468     12471
     12469     12468     12470     12470     12468     12471     12472     12468     12471
     12472     12468     12470     12472     12468     12469     12474     12478     12479
     12475     12474     12477     12475     12474     12476     12476     12474     12477
     12478     12474     12477     12478     12474     12476     12478     12474     12475
     12480     12484     12485     12481     12480     12483     12481     12480     12482
     12482     12480     12483     12484     12480     12483     12484     12480     12482
     12484     12480     12481     12486     12490     12491     12487     12486     12489
     12487     12486     12488     12488     12486     12489     12490     12486     12489
     12490     12486     12488     12490     12486     12487     12492     12496     12497
     12493     12492     12495     12493     12492     12494     12494     12492     12495
     12496     12492     12495     12496     12492     12494     12496     12492     12493
     12498     12502     12503     12499     12498     12501     12499     12498     12500
     12500     12498     12501     12502     12498     12501     12502     12498     12500
     12502     12498     12499     12504     12508     12509     12505     12504     12507
     12505     12504     12506     12506     12504     12507     12508     12504     12507
     12508     12504     12506     12508     12504     12505     12510     12514     12515
     12511     12510     12513     12511     12510     12512     12512     12510     12513
     12514     12510     12513     12514     12510     12512     12514     12510     12511
     12516     12520     12521     12517     12516     12519     12517     12516     12518
     12518     12516     12519     12520     12516     12519     12520     12516     12518
     12520     12516     12517     12522     12526     12527     12523     12522     12525
     12523     12522     12524     12524     12522     12525     12526     12522     12525
     12526     12522     12524     12526     12522     12523     12528     12532     12533
     12529     12528     12531     12529     12528     12530     12530     12528     12531
     12532     12528     12531     12532     12528     12530     12532     12528     12529
     12534     12538     12539     12535     12534     12537     12535     12534     12536
     12536     12534     12537     12538     12534     12537     12538     12534     12536
     12538     12534     12535     12540     12544     12545     12541     12540     12543
     12541     12540     12542     12542     12540     12543     12544     12540     12543
     12544     12540     12542     12544     12540     12541     12546     12550     12551
     12547     12546     12549     12547     12546     12548     12548     12546     12549
     12550     12546     12549     12550     12546     12548     12550     12546     12547
     12552     12556     12557     12553     12552     12555     12553     12552     12554
     12554     12552     12555     12556     12552     12555     12556     12552     12554
     12556     12552     12553     12558     12562     12563     12559     12558     12561
     12559     12558     12560     12560     12558     12561     12562     12558     12561
     12562     12558     12560     12562     12558     12559     12564     12568     12569
     12565     12564     12567     12565     12564     12566     12566     12564     12567
     12568     12564     12567     12568     12564     12566     12568     12564     12565
     12570     12574     12575     12571     12570     12573     12571     12570     12572
     12572     12570     12573     12574     12570     12573     12574     12570     12572
     12574     12570     12571     12576     12580     12581     12577     12576     12579
     12577     12576     12578     12578     12576     12579     12580     12576     12579
     12580     12576     12578     12580     12576     12577     12582     12586     12587
     12583     12582     12585     12583     12582     12584     12584     12582     12585
     12586     12582     12585     12586     12582     12584     12586     12582     12583
     12588     12592     12593     12589     12588     12591     12589     12588     12590
     12590     12588     12591     12592     12588     12591     12592     12588     12590
     12592     12588     12589     12594     12598     12599     12595     12594     12597
     12595     12594     12596     12596     12594     12597     12598     12594     12597
     12598     12594     12596     12598     12594     12595     12600     12604     12605
     12601     12600     12603     12601     12600     12602     12602     12600     12603
     12604     12600     12603     12604     12600     12602     12604     12600     12601
     12606     12610     12611     12607     12606     12609     12607     12606     12608
     12608     12606     12609     12610     12606     12609     12610     12606     12608
     12610     12606     12607     12612     12616     12617     12613     12612     12615
     12613     12612     12614     12614     12612     12615     12616     12612     12615
     12616     12612     12614     12616     12612     12613     12618     12622     12623
     12619     12618     12621     12619     12618     12620     12620     12618     12621
     12622     12618     12621     12622     12618     12620     12622     12618     12619
     12624     12628     12629     12625     12624     12627     12625     12624     12626
     12626     12624     12627     12628     12624     12627     12628     12624     12626
     12628     12624     12625     12630     12634     12635     12631     12630     12633
     12631     12630     12632     12632     12630     12633     12634     12630     12633
     12634     12630     12632     12634     12630     12631     12636     12640     12641
     12637     12636     12639     12637     12636     12638     12638     12636     12639
     12640     12636     12639     12640     12636     12638     12640     12636     12637
     12642     12646     12647     12643     12642     12645     12643     12642     12644
     12644     12642     12645     12646     12642     12645     12646     12642     12644
     12646     12642     12643     12648     12652     12653     12649     12648     12651
     12649     12648     12650     12650     12648     12651     12652     12648     12651
     12652     12648     12650     12652     12648     12649     12654     12658     12659
     12655     12654     12657     12655     12654     12656     12656     12654     12657
     12658     12654     12657     12658     12654     12656     12658     12654     12655
     12660     12664     12665     12661     12660     12663     12661     12660     12662
     12662     12660     12663     12664     12660     12663     12664     12660     12662
     12664     12660     12661     12666     12670     12671     12667     12666     12669
     12667     12666     12668     12668     12666     12669     12670     12666     12669
     12670     12666     12668     12670     12666     12667     12672     12676     12677
     12673     12672     12675     12673     12672     12674     12674     12672     12675
     12676     12672     12675     12676     12672     12674     12676     12672     12673
     12678     12682     12683     12679     12678     12681     12679     12678     12680
     12680     12678     12681     12682     12678     12681     12682     12678     12680
     12682     12678     12679     12684     12688     12689     12685     12684     12687
     12685     12684     12686     12686     12684     12687     12688     12684     12687
     12688     12684     12686     12688     12684     12685     12690     12694     12695
     12691     12690     12693     12691     12690     12692     12692     12690     12693
     12694     12690     12693     12694     12690     12692     12694     12690     12691
     12696     12700     12701     12697     12696     12699     12697     12696     12698
     12698     12696     12699     12700     12696     12699     12700     12696     12698
     12700     12696     12697     12702     12706     12707     12703     12702     12705
     12703     12702     12704     12704     12702     12705     12706     12702     12705
     12706     12702     12704     12706     12702     12703     12708     12712     12713
     12709     12708     12711     12709     12708     12710     12710     12708     12711
     12712     12708     12711     12712     12708     12710     12712     12708     12709
     12714     12718     12719     12715     12714     12717     12715     12714     12716
     12716     12714     12717     12718     12714     12717     12718     12714     12716
     12718     12714     12715     12720     12724     12725     12721     12720     12723
     12721     12720     12722     12722     12720     12723     12724     12720     12723
     12724     12720     12722     12724     12720     12721     12726     12730     12731
     12727     12726     12729     12727     12726     12728     12728     12726     12729
     12730     12726     12729     12730     12726     12728     12730     12726     12727
     12732     12736     12737     12733     12732     12735     12733     12732     12734
     12734     12732     12735     12736     12732     12735     12736     12732     12734
     12736     12732     12733     12738     12742     12743     12739     12738     12741
     12739     12738     12740     12740     12738     12741     12742     12738     12741
     12742     12738     12740     12742     12738     12739     12744     12748     12749
     12745     12744     12747     12745     12744     12746     12746     12744     12747
     12748     12744     12747     12748     12744     12746     12748     12744     12745
     12750     12754     12755     12751     12750     12753     12751     12750     12752
     12752     12750     12753     12754     12750     12753     12754     12750     12752
     12754     12750     12751     12756     12760     12761     12757     12756     12759
     12757     12756     12758     12758     12756     12759     12760     12756     12759
     12760     12756     12758     12760     12756     12757     12762     12766     12767
     12763     12762     12765     12763     12762     12764     12764     12762     12765
     12766     12762     12765     12766     12762     12764     12766     12762     12763
     12768     12772     12773     12769     12768     12771     12769     12768     12770
     12770     12768     12771     12772     12768     12771     12772     12768     12770
     12772     12768     12769     12774     12778     12779     12775     12774     12777
     12775     12774     12776     12776     12774     12777     12778     12774     12777
     12778     12774     12776     12778     12774     12775     12780     12784     12785
     12781     12780     12783     12781     12780     12782     12782     12780     12783
     12784     12780     12783     12784     12780     12782     12784     12780     12781
     12786     12790     12791     12787     12786     12789     12787     12786     12788
     12788     12786     12789     12790     12786     12789     12790     12786     12788
     12790     12786     12787     12792     12796     12797     12793     12792     12795
     12793     12792     12794     12794     12792     12795     12796     12792     12795
     12796     12792     12794     12796     12792     12793     12798     12802     12803
     12799     12798     12801     12799     12798     12800     12800     12798     12801
     12802     12798     12801     12802     12798     12800     12802     12798     12799
     12804     12808     12809     12805     12804     12807     12805     12804     12806
     12806     12804     12807     12808     12804     12807     12808     12804     12806
     12808     12804     12805     12810     12814     12815     12811     12810     12813
     12811     12810     12812     12812     12810     12813     12814     12810     12813
     12814     12810     12812     12814     12810     12811     12816     12820     12821
     12817     12816     12819     12817     12816     12818     12818     12816     12819
     12820     12816     12819     12820     12816     12818     12820     12816     12817
     12822     12826     12827     12823     12822     12825     12823     12822     12824
     12824     12822     12825     12826     12822     12825     12826     12822     12824
     12826     12822     12823     12828     12832     12833     12829     12828     12831
     12829     12828     12830     12830     12828     12831     12832     12828     12831
     12832     12828     12830     12832     12828     12829     12834     12838     12839
     12835     12834     12837     12835     12834     12836     12836     12834     12837
     12838     12834     12837     12838     12834     12836     12838     12834     12835
     12840     12844     12845     12841     12840     12843     12841     12840     12842
     12842     12840     12843     12844     12840     12843     12844     12840     12842
     12844     12840     12841     12846     12850     12851     12847     12846     12849
     12847     12846     12848     12848     12846     12849     12850     12846     12849
     12850     12846     12848     12850     12846     12847     12852     12856     12857
     12853     12852     12855     12853     12852     12854     12854     12852     12855
     12856     12852     12855     12856     12852     12854     12856     12852     12853
     12858     12862     12863     12859     12858     12861     12859     12858     12860
     12860     12858     12861     12862     12858     12861     12862     12858     12860
     12862     12858     12859     12864     12868     12869     12865     12864     12867
     12865     12864     12866     12866     12864     12867     12868     12864     12867
     12868     12864     12866     12868     12864     12865     12870     12874     12875
     12871     12870     12873     12871     12870     12872     12872     12870     12873
     12874     12870     12873     12874     12870     12872     12874     12870     12871
     12876     12880     12881     12877     12876     12879     12877     12876     12878
     12878     12876     12879     12880     12876     12879     12880     12876     12878
     12880     12876     12877     12882     12886     12887     12883     12882     12885
     12883     12882     12884     12884     12882     12885     12886     12882     12885
     12886     12882     12884     12886     12882     12883     12888     12892     12893
     12889     12888     12891     12889     12888     12890     12890     12888     12891
     12892     12888     12891     12892     12888     12890     12892     12888     12889
     12894     12898     12899     12895     12894     12897     12895     12894     12896
     12896     12894     12897     12898     12894     12897     12898     12894     12896
     12898     12894     12895     12900     12904     12905     12901     12900     12903
     12901     12900     12902     12902     12900     12903     12904     12900     12903
     12904     12900     12902     12904     12900     12901     12906     12910     12911
     12907     12906     12909     12907     12906     12908     12908     12906     12909
     12910     12906     12909     12910     12906     12908     12910     12906     12907
     12912     12916     12917     12913     12912     12915     12913     12912     12914
     12914     12912     12915     12916     12912     12915     12916     12912     12914
     12916     12912     12913     12918     12922     12923     12919     12918     12921
     12919     12918     12920     12920     12918     12921     12922     12918     12921
     12922     12918     12920     12922     12918     12919     12924     12928     12929
     12925     12924     12927     12925     12924     12926     12926     12924     12927
     12928     12924     12927     12928     12924     12926     12928     12924     12925
     12930     12934     12935     12931     12930     12933     12931     12930     12932
     12932     12930     12933     12934     12930     12933     12934     12930     12932
     12934     12930     12931     12936     12940     12941     12937     12936     12939
     12937     12936     12938     12938     12936     12939     12940     12936     12939
     12940     12936     12938     12940     12936     12937     12942     12946     12947
     12943     12942     12945     12943     12942     12944     12944     12942     12945
     12946     12942     12945     12946     12942     12944     12946     12942     12943
     12948     12952     12953     12949     12948     12951     12949     12948     12950
     12950     12948     12951     12952     12948     12951     12952     12948     12950
     12952     12948     12949     12954     12958     12959     12955     12954     12957
     12955     12954     12956     12956     12954     12957     12958     12954     12957
     12958     12954     12956     12958     12954     12955     12960     12964     12965
     12961     12960     12963     12961     12960     12962     12962     12960     12963
     12964     12960     12963     12964     12960     12962     12964     12960     12961
     12966     12970     12971     12967     12966     12969     12967     12966     12968
     12968     12966     12969     12970     12966     12969     12970     12966     12968
     12970     12966     12967     12972     12976     12977     12973     12972     12975
     12973     12972     12974     12974     12972     12975     12976     12972     12975
     12976     12972     12974     12976     12972     12973     12978     12982     12983
     12979     12978     12981     12979     12978     12980     12980     12978     12981
     12982     12978     12981     12982     12978     12980     12982     12978     12979
     12984     12988     12989     12985     12984     12987     12985     12984     12986
     12986     12984     12987     12988     12984     12987     12988     12984     12986
     12988     12984     12985     12990     12994     12995     12991     12990     12993
     12991     12990     12992     12992     12990     12993     12994     12990     12993
     12994     12990     12992     12994     12990     12991     12996     13000     13001
     12997     12996     12999     12997     12996     12998     12998     12996     12999
     13000     12996     12999     13000     12996     12998     13000     12996     12997
     13002     13006     13007     13003     13002     13005     13003     13002     13004
     13004     13002     13005     13006     13002     13005     13006     13002     13004
     13006     13002     13003     13008     13012     13013     13009     13008     13011
     13009     13008     13010     13010     13008     13011     13012     13008     13011
     13012     13008     13010     13012     13008     13009     13014     13018     13019
     13015     13014     13017     13015     13014     13016     13016     13014     13017
     13018     13014     13017     13018     13014     13016     13018     13014     13015
     13020     13024     13025     13021     13020     13023     13021     13020     13022
     13022     13020     13023     13024     13020     13023     13024     13020     13022
     13024     13020     13021     13026     13030     13031     13027     13026     13029
     13027     13026     13028     13028     13026     13029     13030     13026     13029
     13030     13026     13028     13030     13026     13027     13032     13036     13037
     13033     13032     13035     13033     13032     13034     13034     13032     13035
     13036     13032     13035     13036     13032     13034     13036     13032     13033
     13038     13042     13043     13039     13038     13041     13039     13038     13040
     13040     13038     13041     13042     13038     13041     13042     13038     13040
     13042     13038     13039     13044     13048     13049     13045     13044     13047
     13045     13044     13046     13046     13044     13047     13048     13044     13047
     13048     13044     13046     13048     13044     13045     13050     13054     13055
     13051     13050     13053     13051     13050     13052     13052     13050     13053
     13054     13050     13053     13054     13050     13052     13054     13050     13051
     13056     13060     13061     13057     13056     13059     13057     13056     13058
     13058     13056     13059     13060     13056     13059     13060     13056     13058
     13060     13056     13057     13062     13066     13067     13063     13062     13065
     13063     13062     13064     13064     13062     13065     13066     13062     13065
     13066     13062     13064     13066     13062     13063     13068     13072     13073
     13069     13068     13071     13069     13068     13070     13070     13068     13071
     13072     13068     13071     13072     13068     13070     13072     13068     13069
     13074     13078     13079     13075     13074     13077     13075     13074     13076
     13076     13074     13077     13078     13074     13077     13078     13074     13076
     13078     13074     13075     13080     13084     13085     13081     13080     13083
     13081     13080     13082     13082     13080     13083     13084     13080     13083
     13084     13080     13082     13084     13080     13081     13086     13090     13091
     13087     13086     13089     13087     13086     13088     13088     13086     13089
     13090     13086     13089     13090     13086     13088     13090     13086     13087
     13092     13096     13097     13093     13092     13095     13093     13092     13094
     13094     13092     13095     13096     13092     13095     13096     13092     13094
     13096     13092     13093     13098     13102     13103     13099     13098     13101
     13099     13098     13100     13100     13098     13101     13102     13098     13101
     13102     13098     13100     13102     13098     13099     13104     13108     13109
     13105     13104     13107     13105     13104     13106     13106     13104     13107
     13108     13104     13107     13108     13104     13106     13108     13104     13105
     13110     13114     13115     13111     13110     13113     13111     13110     13112
     13112     13110     13113     13114     13110     13113     13114     13110     13112
     13114     13110     13111     13116     13120     13121     13117     13116     13119
     13117     13116     13118     13118     13116     13119     13120     13116     13119
     13120     13116     13118     13120     13116     13117     13122     13126     13127
     13123     13122     13125     13123     13122     13124     13124     13122     13125
     13126     13122     13125     13126     13122     13124     13126     13122     13123
     13128     13132     13133     13129     13128     13131     13129     13128     13130
     13130     13128     13131     13132     13128     13131     13132     13128     13130
     13132     13128     13129     13134     13138     13139     13135     13134     13137
     13135     13134     13136     13136     13134     13137     13138     13134     13137
     13138     13134     13136     13138     13134     13135     13140     13144     13145
     13141     13140     13143     13141     13140     13142     13142     13140     13143
     13144     13140     13143     13144     13140     13142     13144     13140     13141
     13146     13150     13151     13147     13146     13149     13147     13146     13148
     13148     13146     13149     13150     13146     13149     13150     13146     13148
     13150     13146     13147     13152     13156     13157     13153     13152     13155
     13153     13152     13154     13154     13152     13155     13156     13152     13155
     13156     13152     13154     13156     13152     13153     13158     13162     13163
     13159     13158     13161     13159     13158     13160     13160     13158     13161
     13162     13158     13161     13162     13158     13160     13162     13158     13159
     13164     13168     13169     13165     13164     13167     13165     13164     13166
     13166     13164     13167     13168     13164     13167     13168     13164     13166
     13168     13164     13165     13170     13174     13175     13171     13170     13173
     13171     13170     13172     13172     13170     13173     13174     13170     13173
     13174     13170     13172     13174     13170     13171     13176     13180     13181
     13177     13176     13179     13177     13176     13178     13178     13176     13179
     13180     13176     13179     13180     13176     13178     13180     13176     13177
     13182     13186     13187     13183     13182     13185     13183     13182     13184
     13184     13182     13185     13186     13182     13185     13186     13182     13184
     13186     13182     13183     13188     13192     13193     13189     13188     13191
     13189     13188     13190     13190     13188     13191     13192     13188     13191
     13192     13188     13190     13192     13188     13189     13194     13198     13199
     13195     13194     13197     13195     13194     13196     13196     13194     13197
     13198     13194     13197     13198     13194     13196     13198     13194     13195
     13200     13204     13205     13201     13200     13203     13201     13200     13202
     13202     13200     13203     13204     13200     13203     13204     13200     13202
     13204     13200     13201     13206     13210     13211     13207     13206     13209
     13207     13206     13208     13208     13206     13209     13210     13206     13209
     13210     13206     13208     13210     13206     13207     13212     13216     13217
     13213     13212     13215     13213     13212     13214     13214     13212     13215
     13216     13212     13215     13216     13212     13214     13216     13212     13213
     13218     13222     13223     13219     13218     13221     13219     13218     13220
     13220     13218     13221     13222     13218     13221     13222     13218     13220
     13222     13218     13219     13224     13228     13229     13225     13224     13227
     13225     13224     13226     13226     13224     13227     13228     13224     13227
     13228     13224     13226     13228     13224     13225     13230     13234     13235
     13231     13230     13233     13231     13230     13232     13232     13230     13233
     13234     13230     13233     13234     13230     13232     13234     13230     13231
     13236     13240     13241     13237     13236     13239     13237     13236     13238
     13238     13236     13239     13240     13236     13239     13240     13236     13238
     13240     13236     13237     13242     13246     13247     13243     13242     13245
     13243     13242     13244     13244     13242     13245     13246     13242     13245
     13246     13242     13244     13246     13242     13243     13248     13252     13253
     13249     13248     13251     13249     13248     13250     13250     13248     13251
     13252     13248     13251     13252     13248     13250     13252     13248     13249
     13254     13258     13259     13255     13254     13257     13255     13254     13256
     13256     13254     13257     13258     13254     13257     13258     13254     13256
     13258     13254     13255     13260     13264     13265     13261     13260     13263
     13261     13260     13262     13262     13260     13263     13264     13260     13263
     13264     13260     13262     13264     13260     13261     13266     13270     13271
     13267     13266     13269     13267     13266     13268     13268     13266     13269
     13270     13266     13269     13270     13266     13268     13270     13266     13267
     13272     13276     13277     13273     13272     13275     13273     13272     13274
     13274     13272     13275     13276     13272     13275     13276     13272     13274
     13276     13272     13273     13278     13282     13283     13279     13278     13281
     13279     13278     13280     13280     13278     13281     13282     13278     13281
     13282     13278     13280     13282     13278     13279     13284     13288     13289
     13285     13284     13287     13285     13284     13286     13286     13284     13287
     13288     13284     13287     13288     13284     13286     13288     13284     13285
     13290     13294     13295     13291     13290     13293     13291     13290     13292
     13292     13290     13293     13294     13290     13293     13294     13290     13292
     13294     13290     13291     13296     13300     13301     13297     13296     13299
     13297     13296     13298     13298     13296     13299     13300     13296     13299
     13300     13296     13298     13300     13296     13297     13302     13306     13307
     13303     13302     13305     13303     13302     13304     13304     13302     13305
     13306     13302     13305     13306     13302     13304     13306     13302     13303
     13308     13312     13313     13309     13308     13311     13309     13308     13310
     13310     13308     13311     13312     13308     13311     13312     13308     13310
     13312     13308     13309     13314     13318     13319     13315     13314     13317
     13315     13314     13316     13316     13314     13317     13318     13314     13317
     13318     13314     13316     13318     13314     13315     13320     13324     13325
     13321     13320     13323     13321     13320     13322     13322     13320     13323
     13324     13320     13323     13324     13320     13322     13324     13320     13321
     13326     13330     13331     13327     13326     13329     13327     13326     13328
     13328     13326     13329     13330     13326     13329     13330     13326     13328
     13330     13326     13327     13332     13336     13337     13333     13332     13335
     13333     13332     13334     13334     13332     13335     13336     13332     13335
     13336     13332     13334     13336     13332     13333     13338     13342     13343
     13339     13338     13341     13339     13338     13340     13340     13338     13341
     13342     13338     13341     13342     13338     13340     13342     13338     13339
     13344     13348     13349     13345     13344     13347     13345     13344     13346
     13346     13344     13347     13348     13344     13347     13348     13344     13346
     13348     13344     13345     13350     13354     13355     13351     13350     13353
     13351     13350     13352     13352     13350     13353     13354     13350     13353
     13354     13350     13352     13354     13350     13351     13356     13360     13361
     13357     13356     13359     13357     13356     13358     13358     13356     13359
     13360     13356     13359     13360     13356     13358     13360     13356     13357
     13362     13366     13367     13363     13362     13365     13363     13362     13364
     13364     13362     13365     13366     13362     13365     13366     13362     13364
     13366     13362     13363     13368     13372     13373     13369     13368     13371
     13369     13368     13370     13370     13368     13371     13372     13368     13371
     13372     13368     13370     13372     13368     13369     13374     13378     13379
     13375     13374     13377     13375     13374     13376     13376     13374     13377
     13378     13374     13377     13378     13374     13376     13378     13374     13375
     13380     13384     13385     13381     13380     13383     13381     13380     13382
     13382     13380     13383     13384     13380     13383     13384     13380     13382
     13384     13380     13381     13386     13390     13391     13387     13386     13389
     13387     13386     13388     13388     13386     13389     13390     13386     13389
     13390     13386     13388     13390     13386     13387     13392     13396     13397
     13393     13392     13395     13393     13392     13394     13394     13392     13395
     13396     13392     13395     13396     13392     13394     13396     13392     13393
     13398     13402     13403     13399     13398     13401     13399     13398     13400
     13400     13398     13401     13402     13398     13401     13402     13398     13400
     13402     13398     13399     13404     13408     13409     13405     13404     13407
     13405     13404     13406     13406     13404     13407     13408     13404     13407
     13408     13404     13406     13408     13404     13405     13410     13414     13415
     13411     13410     13413     13411     13410     13412     13412     13410     13413
     13414     13410     13413     13414     13410     13412     13414     13410     13411
     13416     13420     13421     13417     13416     13419     13417     13416     13418
     13418     13416     13419     13420     13416     13419     13420     13416     13418
     13420     13416     13417     13422     13426     13427     13423     13422     13425
     13423     13422     13424     13424     13422     13425     13426     13422     13425
     13426     13422     13424     13426     13422     13423     13428     13432     13433
     13429     13428     13431     13429     13428     13430     13430     13428     13431
     13432     13428     13431     13432     13428     13430     13432     13428     13429
     13434     13438     13439     13435     13434     13437     13435     13434     13436
     13436     13434     13437     13438     13434     13437     13438     13434     13436
     13438     13434     13435     13440     13444     13445     13441     13440     13443
     13441     13440     13442     13442     13440     13443     13444     13440     13443
     13444     13440     13442     13444     13440     13441     13446     13450     13451
     13447     13446     13449     13447     13446     13448     13448     13446     13449
     13450     13446     13449     13450     13446     13448     13450     13446     13447
     13452     13456     13457     13453     13452     13455     13453     13452     13454
     13454     13452     13455     13456     13452     13455     13456     13452     13454
     13456     13452     13453     13458     13462     13463     13459     13458     13461
     13459     13458     13460     13460     13458     13461     13462     13458     13461
     13462     13458     13460     13462     13458     13459     13464     13468     13469
     13465     13464     13467     13465     13464     13466     13466     13464     13467
     13468     13464     13467     13468     13464     13466     13468     13464     13465
     13470     13474     13475     13471     13470     13473     13471     13470     13472
     13472     13470     13473     13474     13470     13473     13474     13470     13472
     13474     13470     13471     13476     13480     13481     13477     13476     13479
     13477     13476     13478     13478     13476     13479     13480     13476     13479
     13480     13476     13478     13480     13476     13477     13482     13486     13487
     13483     13482     13485     13483     13482     13484     13484     13482     13485
     13486     13482     13485     13486     13482     13484     13486     13482     13483
     13488     13492     13493     13489     13488     13491     13489     13488     13490
     13490     13488     13491     13492     13488     13491     13492     13488     13490
     13492     13488     13489     13494     13498     13499     13495     13494     13497
     13495     13494     13496     13496     13494     13497     13498     13494     13497
     13498     13494     13496     13498     13494     13495     13500     13504     13505
     13501     13500     13503     13501     13500     13502     13502     13500     13503
     13504     13500     13503     13504     13500     13502     13504     13500     13501
     13506     13510     13511     13507     13506     13509     13507     13506     13508
     13508     13506     13509     13510     13506     13509     13510     13506     13508
     13510     13506     13507     13512     13516     13517     13513     13512     13515
     13513     13512     13514     13514     13512     13515     13516     13512     13515
     13516     13512     13514     13516     13512     13513     13518     13522     13523
     13519     13518     13521     13519     13518     13520     13520     13518     13521
     13522     13518     13521     13522     13518     13520     13522     13518     13519
     13524     13528     13529     13525     13524     13527     13525     13524     13526
     13526     13524     13527     13528     13524     13527     13528     13524     13526
     13528     13524     13525     13530     13534     13535     13531     13530     13533
     13531     13530     13532     13532     13530     13533     13534     13530     13533
     13534     13530     13532     13534     13530     13531     13536     13540     13541
     13537     13536     13539     13537     13536     13538     13538     13536     13539
     13540     13536     13539     13540     13536     13538     13540     13536     13537
     13542     13546     13547     13543     13542     13545     13543     13542     13544
     13544     13542     13545     13546     13542     13545     13546     13542     13544
     13546     13542     13543     13548     13552     13553     13549     13548     13551
     13549     13548     13550     13550     13548     13551     13552     13548     13551
     13552     13548     13550     13552     13548     13549     13554     13558     13559
     13555     13554     13557     13555     13554     13556     13556     13554     13557
     13558     13554     13557     13558     13554     13556     13558     13554     13555
     13560     13564     13565     13561     13560     13563     13561     13560     13562
     13562     13560     13563     13564     13560     13563     13564     13560     13562
     13564     13560     13561     13566     13570     13571     13567     13566     13569
     13567     13566     13568     13568     13566     13569     13570     13566     13569
     13570     13566     13568     13570     13566     13567     13572     13576     13577
     13573     13572     13575     13573     13572     13574     13574     13572     13575
     13576     13572     13575     13576     13572     13574     13576     13572     13573
     13578     13582     13583     13579     13578     13581     13579     13578     13580
     13580     13578     13581     13582     13578     13581     13582     13578     13580
     13582     13578     13579     13584     13588     13589     13585     13584     13587
     13585     13584     13586     13586     13584     13587     13588     13584     13587
     13588     13584     13586     13588     13584     13585     13590     13594     13595
     13591     13590     13593     13591     13590     13592     13592     13590     13593
     13594     13590     13593     13594     13590     13592     13594     13590     13591
     13596     13600     13601     13597     13596     13599     13597     13596     13598
     13598     13596     13599     13600     13596     13599     13600     13596     13598
     13600     13596     13597     13602     13606     13607     13603     13602     13605
     13603     13602     13604     13604     13602     13605     13606     13602     13605
     13606     13602     13604     13606     13602     13603     13608     13612     13613
     13609     13608     13611     13609     13608     13610     13610     13608     13611
     13612     13608     13611     13612     13608     13610     13612     13608     13609
     13614     13618     13619     13615     13614     13617     13615     13614     13616
     13616     13614     13617     13618     13614     13617     13618     13614     13616
     13618     13614     13615     13620     13624     13625     13621     13620     13623
     13621     13620     13622     13622     13620     13623     13624     13620     13623
     13624     13620     13622     13624     13620     13621     13626     13630     13631
     13627     13626     13629     13627     13626     13628     13628     13626     13629
     13630     13626     13629     13630     13626     13628     13630     13626     13627
     13632     13636     13637     13633     13632     13635     13633     13632     13634
     13634     13632     13635     13636     13632     13635     13636     13632     13634
     13636     13632     13633     13638     13642     13643     13639     13638     13641
     13639     13638     13640     13640     13638     13641     13642     13638     13641
     13642     13638     13640     13642     13638     13639     13644     13648     13649
     13645     13644     13647     13645     13644     13646     13646     13644     13647
     13648     13644     13647     13648     13644     13646     13648     13644     13645
     13650     13654     13655     13651     13650     13653     13651     13650     13652
     13652     13650     13653     13654     13650     13653     13654     13650     13652
     13654     13650     13651     13656     13660     13661     13657     13656     13659
     13657     13656     13658     13658     13656     13659     13660     13656     13659
     13660     13656     13658     13660     13656     13657     13662     13666     13667
     13663     13662     13665     13663     13662     13664     13664     13662     13665
     13666     13662     13665     13666     13662     13664     13666     13662     13663
     13668     13672     13673     13669     13668     13671     13669     13668     13670
     13670     13668     13671     13672     13668     13671     13672     13668     13670
     13672     13668     13669     13674     13678     13679     13675     13674     13677
     13675     13674     13676     13676     13674     13677     13678     13674     13677
     13678     13674     13676     13678     13674     13675     13680     13684     13685
     13681     13680     13683     13681     13680     13682     13682     13680     13683
     13684     13680     13683     13684     13680     13682     13684     13680     13681
     13686     13690     13691     13687     13686     13689     13687     13686     13688
     13688     13686     13689     13690     13686     13689     13690     13686     13688
     13690     13686     13687     13692     13696     13697     13693     13692     13695
     13693     13692     13694     13694     13692     13695     13696     13692     13695
     13696     13692     13694     13696     13692     13693     13698     13702     13703
     13699     13698     13701     13699     13698     13700     13700     13698     13701
     13702     13698     13701     13702     13698     13700     13702     13698     13699
     13704     13708     13709     13705     13704     13707     13705     13704     13706
     13706     13704     13707     13708     13704     13707     13708     13704     13706
     13708     13704     13705     13710     13714     13715     13711     13710     13713
     13711     13710     13712     13712     13710     13713     13714     13710     13713
     13714     13710     13712     13714     13710     13711     13716     13720     13721
     13717     13716     13719     13717     13716     13718     13718     13716     13719
     13720     13716     13719     13720     13716     13718     13720     13716     13717
     13722     13726     13727     13723     13722     13725     13723     13722     13724
     13724     13722     13725     13726     13722     13725     13726     13722     13724
     13726     13722     13723     13728     13732     13733     13729     13728     13731
     13729     13728     13730     13730     13728     13731     13732     13728     13731
     13732     13728     13730     13732     13728     13729     13734     13738     13739
     13735     13734     13737     13735     13734     13736     13736     13734     13737
     13738     13734     13737     13738     13734     13736     13738     13734     13735
     13740     13744     13745     13741     13740     13743     13741     13740     13742
     13742     13740     13743     13744     13740     13743     13744     13740     13742
     13744     13740     13741     13746     13750     13751     13747     13746     13749
     13747     13746     13748     13748     13746     13749     13750     13746     13749
     13750     13746     13748     13750     13746     13747     13752     13756     13757
     13753     13752     13755     13753     13752     13754     13754     13752     13755
     13756     13752     13755     13756     13752     13754     13756     13752     13753
     13758     13762     13763     13759     13758     13761     13759     13758     13760
     13760     13758     13761     13762     13758     13761     13762     13758     13760
     13762     13758     13759     13764     13768     13769     13765     13764     13767
     13765     13764     13766     13766     13764     13767     13768     13764     13767
     13768     13764     13766     13768     13764     13765     13770     13774     13775
     13771     13770     13773     13771     13770     13772     13772     13770     13773
     13774     13770     13773     13774     13770     13772     13774     13770     13771
     13776     13780     13781     13777     13776     13779     13777     13776     13778
     13778     13776     13779     13780     13776     13779     13780     13776     13778
     13780     13776     13777     13782     13786     13787     13783     13782     13785
     13783     13782     13784     13784     13782     13785     13786     13782     13785
     13786     13782     13784     13786     13782     13783     13788     13792     13793
     13789     13788     13791     13789     13788     13790     13790     13788     13791
     13792     13788     13791     13792     13788     13790     13792     13788     13789
     13794     13798     13799     13795     13794     13797     13795     13794     13796
     13796     13794     13797     13798     13794     13797     13798     13794     13796
     13798     13794     13795     13800     13804     13805     13801     13800     13803
     13801     13800     13802     13802     13800     13803     13804     13800     13803
     13804     13800     13802     13804     13800     13801     13806     13810     13811
     13807     13806     13809     13807     13806     13808     13808     13806     13809
     13810     13806     13809     13810     13806     13808     13810     13806     13807
     13812     13816     13817     13813     13812     13815     13813     13812     13814
     13814     13812     13815     13816     13812     13815     13816     13812     13814
     13816     13812     13813     13818     13822     13823     13819     13818     13821
     13819     13818     13820     13820     13818     13821     13822     13818     13821
     13822     13818     13820     13822     13818     13819     13824     13828     13829
     13825     13824     13827     13825     13824     13826     13826     13824     13827
     13828     13824     13827     13828     13824     13826     13828     13824     13825
     13830     13834     13835     13831     13830     13833     13831     13830     13832
     13832     13830     13833     13834     13830     13833     13834     13830     13832
     13834     13830     13831     13836     13840     13841     13837     13836     13839
     13837     13836     13838     13838     13836     13839     13840     13836     13839
     13840     13836     13838     13840     13836     13837     13842     13846     13847
     13843     13842     13845     13843     13842     13844     13844     13842     13845
     13846     13842     13845     13846     13842     13844     13846     13842     13843
     13848     13852     13853     13849     13848     13851     13849     13848     13850
     13850     13848     13851     13852     13848     13851     13852     13848     13850
     13852     13848     13849     13854     13858     13859     13855     13854     13857
     13855     13854     13856     13856     13854     13857     13858     13854     13857
     13858     13854     13856     13858     13854     13855     13860     13864     13865
     13861     13860     13863     13861     13860     13862     13862     13860     13863
     13864     13860     13863     13864     13860     13862     13864     13860     13861
     13866     13870     13871     13867     13866     13869     13867     13866     13868
     13868     13866     13869     13870     13866     13869     13870     13866     13868
     13870     13866     13867     13872     13876     13877     13873     13872     13875
     13873     13872     13874     13874     13872     13875     13876     13872     13875
     13876     13872     13874     13876     13872     13873     13878     13882     13883
     13879     13878     13881     13879     13878     13880     13880     13878     13881
     13882     13878     13881     13882     13878     13880     13882     13878     13879
     13884     13888     13889     13885     13884     13887     13885     13884     13886
     13886     13884     13887     13888     13884     13887     13888     13884     13886
     13888     13884     13885     13890     13894     13895     13891     13890     13893
     13891     13890     13892     13892     13890     13893     13894     13890     13893
     13894     13890     13892     13894     13890     13891     13896     13900     13901
     13897     13896     13899     13897     13896     13898     13898     13896     13899
     13900     13896     13899     13900     13896     13898     13900     13896     13897
     13902     13906     13907     13903     13902     13905     13903     13902     13904
     13904     13902     13905     13906     13902     13905     13906     13902     13904
     13906     13902     13903     13908     13912     13913     13909     13908     13911
     13909     13908     13910     13910     13908     13911     13912     13908     13911
     13912     13908     13910     13912     13908     13909     13914     13918     13919
     13915     13914     13917     13915     13914     13916     13916     13914     13917
     13918     13914     13917     13918     13914     13916     13918     13914     13915
     13920     13924     13925     13921     13920     13923     13921     13920     13922
     13922     13920     13923     13924     13920     13923     13924     13920     13922
     13924     13920     13921     13926     13930     13931     13927     13926     13929
     13927     13926     13928     13928     13926     13929     13930     13926     13929
     13930     13926     13928     13930     13926     13927     13932     13936     13937
     13933     13932     13935     13933     13932     13934     13934     13932     13935
     13936     13932     13935     13936     13932     13934     13936     13932     13933
     13938     13942     13943     13939     13938     13941     13939     13938     13940
     13940     13938     13941     13942     13938     13941     13942     13938     13940
     13942     13938     13939     13944     13948     13949     13945     13944     13947
     13945     13944     13946     13946     13944     13947     13948     13944     13947
     13948     13944     13946     13948     13944     13945     13950     13954     13955
     13951     13950     13953     13951     13950     13952     13952     13950     13953
     13954     13950     13953     13954     13950     13952     13954     13950     13951
     13956     13960     13961     13957     13956     13959     13957     13956     13958
     13958     13956     13959     13960     13956     13959     13960     13956     13958
     13960     13956     13957     13962     13966     13967     13963     13962     13965
     13963     13962     13964     13964     13962     13965     13966     13962     13965
     13966     13962     13964     13966     13962     13963     13968     13972     13973
     13969     13968     13971     13969     13968     13970     13970     13968     13971
     13972     13968     13971     13972     13968     13970     13972     13968     13969
     13974     13978     13979     13975     13974     13977     13975     13974     13976
     13976     13974     13977     13978     13974     13977     13978     13974     13976
     13978     13974     13975     13980     13984     13985     13981     13980     13983
     13981     13980     13982     13982     13980     13983     13984     13980     13983
     13984     13980     13982     13984     13980     13981     13986     13990     13991
     13987     13986     13989     13987     13986     13988     13988     13986     13989
     13990     13986     13989     13990     13986     13988     13990     13986     13987
     13992     13996     13997     13993     13992     13995     13993     13992     13994
     13994     13992     13995     13996     13992     13995     13996     13992     13994
     13996     13992     13993     13998     14002     14003     13999     13998     14001
     13999     13998     14000     14000     13998     14001     14002     13998     14001
     14002     13998     14000     14002     13998     13999     14004     14008     14009
     14005     14004     14007     14005     14004     14006     14006     14004     14007
     14008     14004     14007     14008     14004     14006     14008     14004     14005
     14010     14014     14015     14011     14010     14013     14011     14010     14012
     14012     14010     14013     14014     14010     14013     14014     14010     14012
     14014     14010     14011     14016     14020     14021     14017     14016     14019
     14017     14016     14018     14018     14016     14019     14020     14016     14019
     14020     14016     14018     14020     14016     14017     14022     14026     14027
     14023     14022     14025     14023     14022     14024     14024     14022     14025
     14026     14022     14025     14026     14022     14024     14026     14022     14023
     14028     14032     14033     14029     14028     14031     14029     14028     14030
     14030     14028     14031     14032     14028     14031     14032     14028     14030
     14032     14028     14029     14034     14038     14039     14035     14034     14037
     14035     14034     14036     14036     14034     14037     14038     14034     14037
     14038     14034     14036     14038     14034     14035     14040     14044     14045
     14041     14040     14043     14041     14040     14042     14042     14040     14043
     14044     14040     14043     14044     14040     14042     14044     14040     14041
     14046     14050     14051     14047     14046     14049     14047     14046     14048
     14048     14046     14049     14050     14046     14049     14050     14046     14048
     14050     14046     14047     14052     14056     14057     14053     14052     14055
     14053     14052     14054     14054     14052     14055     14056     14052     14055
     14056     14052     14054     14056     14052     14053     14058     14062     14063
     14059     14058     14061     14059     14058     14060     14060     14058     14061
     14062     14058     14061     14062     14058     14060     14062     14058     14059
     14064     14068     14069     14065     14064     14067     14065     14064     14066
     14066     14064     14067     14068     14064     14067     14068     14064     14066
     14068     14064     14065     14070     14074     14075     14071     14070     14073
     14071     14070     14072     14072     14070     14073     14074     14070     14073
     14074     14070     14072     14074     14070     14071     14076     14080     14081
     14077     14076     14079     14077     14076     14078     14078     14076     14079
     14080     14076     14079     14080     14076     14078     14080     14076     14077
     14082     14086     14087     14083     14082     14085     14083     14082     14084
     14084     14082     14085     14086     14082     14085     14086     14082     14084
     14086     14082     14083     14088     14092     14093     14089     14088     14091
     14089     14088     14090     14090     14088     14091     14092     14088     14091
     14092     14088     14090     14092     14088     14089     14094     14098     14099
     14095     14094     14097     14095     14094     14096     14096     14094     14097
     14098     14094     14097     14098     14094     14096     14098     14094     14095
     14100     14104     14105     14101     14100     14103     14101     14100     14102
     14102     14100     14103     14104     14100     14103     14104     14100     14102
     14104     14100     14101     14106     14110     14111     14107     14106     14109
     14107     14106     14108     14108     14106     14109     14110     14106     14109
     14110     14106     14108     14110     14106     14107     14112     14116     14117
     14113     14112     14115     14113     14112     14114     14114     14112     14115
     14116     14112     14115     14116     14112     14114     14116     14112     14113
     14118     14122     14123     14119     14118     14121     14119     14118     14120
     14120     14118     14121     14122     14118     14121     14122     14118     14120
     14122     14118     14119     14124     14128     14129     14125     14124     14127
     14125     14124     14126     14126     14124     14127     14128     14124     14127
     14128     14124     14126     14128     14124     14125     14130     14134     14135
     14131     14130     14133     14131     14130     14132     14132     14130     14133
     14134     14130     14133     14134     14130     14132     14134     14130     14131
     14136     14140     14141     14137     14136     14139     14137     14136     14138
     14138     14136     14139     14140     14136     14139     14140     14136     14138
     14140     14136     14137     14142     14146     14147     14143     14142     14145
     14143     14142     14144     14144     14142     14145     14146     14142     14145
     14146     14142     14144     14146     14142     14143     14148     14152     14153
     14149     14148     14151     14149     14148     14150     14150     14148     14151
     14152     14148     14151     14152     14148     14150     14152     14148     14149
     14154     14158     14159     14155     14154     14157     14155     14154     14156
     14156     14154     14157     14158     14154     14157     14158     14154     14156
     14158     14154     14155     14160     14164     14165     14161     14160     14163
     14161     14160     14162     14162     14160     14163     14164     14160     14163
     14164     14160     14162     14164     14160     14161     14166     14170     14171
     14167     14166     14169     14167     14166     14168     14168     14166     14169
     14170     14166     14169     14170     14166     14168     14170     14166     14167
     14172     14176     14177     14173     14172     14175     14173     14172     14174
     14174     14172     14175     14176     14172     14175     14176     14172     14174
     14176     14172     14173     14178     14182     14183     14179     14178     14181
     14179     14178     14180     14180     14178     14181     14182     14178     14181
     14182     14178     14180     14182     14178     14179     14184     14188     14189
     14185     14184     14187     14185     14184     14186     14186     14184     14187
     14188     14184     14187     14188     14184     14186     14188     14184     14185
     14190     14194     14195     14191     14190     14193     14191     14190     14192
     14192     14190     14193     14194     14190     14193     14194     14190     14192
     14194     14190     14191     14196     14200     14201     14197     14196     14199
     14197     14196     14198     14198     14196     14199     14200     14196     14199
     14200     14196     14198     14200     14196     14197     14202     14206     14207
     14203     14202     14205     14203     14202     14204     14204     14202     14205
     14206     14202     14205     14206     14202     14204     14206     14202     14203
     14208     14212     14213     14209     14208     14211     14209     14208     14210
     14210     14208     14211     14212     14208     14211     14212     14208     14210
     14212     14208     14209     14214     14218     14219     14215     14214     14217
     14215     14214     14216     14216     14214     14217     14218     14214     14217
     14218     14214     14216     14218     14214     14215     14220     14224     14225
     14221     14220     14223     14221     14220     14222     14222     14220     14223
     14224     14220     14223     14224     14220     14222     14224     14220     14221
     14226     14230     14231     14227     14226     14229     14227     14226     14228
     14228     14226     14229     14230     14226     14229     14230     14226     14228
     14230     14226     14227     14232     14236     14237     14233     14232     14235
     14233     14232     14234     14234     14232     14235     14236     14232     14235
     14236     14232     14234     14236     14232     14233     14238     14242     14243
     14239     14238     14241     14239     14238     14240     14240     14238     14241
     14242     14238     14241     14242     14238     14240     14242     14238     14239
     14244     14248     14249     14245     14244     14247     14245     14244     14246
     14246     14244     14247     14248     14244     14247     14248     14244     14246
     14248     14244     14245     14250     14254     14255     14251     14250     14253
     14251     14250     14252     14252     14250     14253     14254     14250     14253
     14254     14250     14252     14254     14250     14251     14256     14260     14261
     14257     14256     14259     14257     14256     14258     14258     14256     14259
     14260     14256     14259     14260     14256     14258     14260     14256     14257
     14262     14266     14267     14263     14262     14265     14263     14262     14264
     14264     14262     14265     14266     14262     14265     14266     14262     14264
     14266     14262     14263     14268     14272     14273     14269     14268     14271
     14269     14268     14270     14270     14268     14271     14272     14268     14271
     14272     14268     14270     14272     14268     14269     14274     14278     14279
     14275     14274     14277     14275     14274     14276     14276     14274     14277
     14278     14274     14277     14278     14274     14276     14278     14274     14275
     14280     14284     14285     14281     14280     14283     14281     14280     14282
     14282     14280     14283     14284     14280     14283     14284     14280     14282
     14284     14280     14281     14286     14290     14291     14287     14286     14289
     14287     14286     14288     14288     14286     14289     14290     14286     14289
     14290     14286     14288     14290     14286     14287     14292     14296     14297
     14293     14292     14295     14293     14292     14294     14294     14292     14295
     14296     14292     14295     14296     14292     14294     14296     14292     14293
     14298     14302     14303     14299     14298     14301     14299     14298     14300
     14300     14298     14301     14302     14298     14301     14302     14298     14300
     14302     14298     14299     14304     14308     14309     14305     14304     14307
     14305     14304     14306     14306     14304     14307     14308     14304     14307
     14308     14304     14306     14308     14304     14305     14310     14314     14315
     14311     14310     14313     14311     14310     14312     14312     14310     14313
     14314     14310     14313     14314     14310     14312     14314     14310     14311
     14316     14320     14321     14317     14316     14319     14317     14316     14318
     14318     14316     14319     14320     14316     14319     14320     14316     14318
     14320     14316     14317     14322     14326     14327     14323     14322     14325
     14323     14322     14324     14324     14322     14325     14326     14322     14325
     14326     14322     14324     14326     14322     14323     14328     14332     14333
     14329     14328     14331     14329     14328     14330     14330     14328     14331
     14332     14328     14331     14332     14328     14330     14332     14328     14329
     14334     14338     14339     14335     14334     14337     14335     14334     14336
     14336     14334     14337     14338     14334     14337     14338     14334     14336
     14338     14334     14335     14340     14344     14345     14341     14340     14343
     14341     14340     14342     14342     14340     14343     14344     14340     14343
     14344     14340     14342     14344     14340     14341     14346     14350     14351
     14347     14346     14349     14347     14346     14348     14348     14346     14349
     14350     14346     14349     14350     14346     14348     14350     14346     14347
     14352     14356     14357     14353     14352     14355     14353     14352     14354
     14354     14352     14355     14356     14352     14355     14356     14352     14354
     14356     14352     14353     14358     14362     14363     14359     14358     14361
     14359     14358     14360     14360     14358     14361     14362     14358     14361
     14362     14358     14360     14362     14358     14359     14364     14368     14369
     14365     14364     14367     14365     14364     14366     14366     14364     14367
     14368     14364     14367     14368     14364     14366     14368     14364     14365
     14370     14374     14375     14371     14370     14373     14371     14370     14372
     14372     14370     14373     14374     14370     14373     14374     14370     14372
     14374     14370     14371     14376     14380     14381     14377     14376     14379
     14377     14376     14378     14378     14376     14379     14380     14376     14379
     14380     14376     14378     14380     14376     14377     14382     14386     14387
     14383     14382     14385     14383     14382     14384     14384     14382     14385
     14386     14382     14385     14386     14382     14384     14386     14382     14383
     14388     14392     14393     14389     14388     14391     14389     14388     14390
     14390     14388     14391     14392     14388     14391     14392     14388     14390
     14392     14388     14389     14394     14398     14399     14395     14394     14397
     14395     14394     14396     14396     14394     14397     14398     14394     14397
     14398     14394     14396     14398     14394     14395     14400     14404     14405
     14401     14400     14403     14401     14400     14402     14402     14400     14403
     14404     14400     14403     14404     14400     14402     14404     14400     14401
     14406     14410     14411     14407     14406     14409     14407     14406     14408
     14408     14406     14409     14410     14406     14409     14410     14406     14408
     14410     14406     14407     14412     14416     14417     14413     14412     14415
     14413     14412     14414     14414     14412     14415     14416     14412     14415
     14416     14412     14414     14416     14412     14413     14418     14422     14423
     14419     14418     14421     14419     14418     14420     14420     14418     14421
     14422     14418     14421     14422     14418     14420     14422     14418     14419
     14424     14428     14429     14425     14424     14427     14425     14424     14426
     14426     14424     14427     14428     14424     14427     14428     14424     14426
     14428     14424     14425     14430     14434     14435     14431     14430     14433
     14431     14430     14432     14432     14430     14433     14434     14430     14433
     14434     14430     14432     14434     14430     14431     14436     14440     14441
     14437     14436     14439     14437     14436     14438     14438     14436     14439
     14440     14436     14439     14440     14436     14438     14440     14436     14437
     14442     14446     14447     14443     14442     14445     14443     14442     14444
     14444     14442     14445     14446     14442     14445     14446     14442     14444
     14446     14442     14443     14448     14452     14453     14449     14448     14451
     14449     14448     14450     14450     14448     14451     14452     14448     14451
     14452     14448     14450     14452     14448     14449     14454     14458     14459
     14455     14454     14457     14455     14454     14456     14456     14454     14457
     14458     14454     14457     14458     14454     14456     14458     14454     14455
     14460     14464     14465     14461     14460     14463     14461     14460     14462
     14462     14460     14463     14464     14460     14463     14464     14460     14462
     14464     14460     14461     14466     14470     14471     14467     14466     14469
     14467     14466     14468     14468     14466     14469     14470     14466     14469
     14470     14466     14468     14470     14466     14467     14472     14476     14477
     14473     14472     14475     14473     14472     14474     14474     14472     14475
     14476     14472     14475     14476     14472     14474     14476     14472     14473
     14478     14482     14483     14479     14478     14481     14479     14478     14480
     14480     14478     14481     14482     14478     14481     14482     14478     14480
     14482     14478     14479     14484     14488     14489     14485     14484     14487
     14485     14484     14486     14486     14484     14487     14488     14484     14487
     14488     14484     14486     14488     14484     14485     14490     14494     14495
     14491     14490     14493     14491     14490     14492     14492     14490     14493
     14494     14490     14493     14494     14490     14492     14494     14490     14491
     14496     14500     14501     14497     14496     14499     14497     14496     14498
     14498     14496     14499     14500     14496     14499     14500     14496     14498
     14500     14496     14497     14502     14506     14507     14503     14502     14505
     14503     14502     14504     14504     14502     14505     14506     14502     14505
     14506     14502     14504     14506     14502     14503     14508     14512     14513
     14509     14508     14511     14509     14508     14510     14510     14508     14511
     14512     14508     14511     14512     14508     14510     14512     14508     14509
     14514     14518     14519     14515     14514     14517     14515     14514     14516
     14516     14514     14517     14518     14514     14517     14518     14514     14516
     14518     14514     14515     14520     14524     14525     14521     14520     14523
     14521     14520     14522     14522     14520     14523     14524     14520     14523
     14524     14520     14522     14524     14520     14521     14526     14530     14531
     14527     14526     14529     14527     14526     14528     14528     14526     14529
     14530     14526     14529     14530     14526     14528     14530     14526     14527
     14532     14536     14537     14533     14532     14535     14533     14532     14534
     14534     14532     14535     14536     14532     14535     14536     14532     14534
     14536     14532     14533     14538     14542     14543     14539     14538     14541
     14539     14538     14540     14540     14538     14541     14542     14538     14541
     14542     14538     14540     14542     14538     14539     14544     14548     14549
     14545     14544     14547     14545     14544     14546     14546     14544     14547
     14548     14544     14547     14548     14544     14546     14548     14544     14545
     14550     14554     14555     14551     14550     14553     14551     14550     14552
     14552     14550     14553     14554     14550     14553     14554     14550     14552
     14554     14550     14551     14556     14560     14561     14557     14556     14559
     14557     14556     14558     14558     14556     14559     14560     14556     14559
     14560     14556     14558     14560     14556     14557     14562     14566     14567
     14563     14562     14565     14563     14562     14564     14564     14562     14565
     14566     14562     14565     14566     14562     14564     14566     14562     14563
     14568     14572     14573     14569     14568     14571     14569     14568     14570
     14570     14568     14571     14572     14568     14571     14572     14568     14570
     14572     14568     14569     14574     14578     14579     14575     14574     14577
     14575     14574     14576     14576     14574     14577     14578     14574     14577
     14578     14574     14576     14578     14574     14575     14580     14584     14585
     14581     14580     14583     14581     14580     14582     14582     14580     14583
     14584     14580     14583     14584     14580     14582     14584     14580     14581
     14586     14590     14591     14587     14586     14589     14587     14586     14588
     14588     14586     14589     14590     14586     14589     14590     14586     14588
     14590     14586     14587     14592     14596     14597     14593     14592     14595
     14593     14592     14594     14594     14592     14595     14596     14592     14595
     14596     14592     14594     14596     14592     14593     14598     14602     14603
     14599     14598     14601     14599     14598     14600     14600     14598     14601
     14602     14598     14601     14602     14598     14600     14602     14598     14599
     14604     14608     14609     14605     14604     14607     14605     14604     14606
     14606     14604     14607     14608     14604     14607     14608     14604     14606
     14608     14604     14605     14610     14614     14615     14611     14610     14613
     14611     14610     14612     14612     14610     14613     14614     14610     14613
     14614     14610     14612     14614     14610     14611     14616     14620     14621
     14617     14616     14619     14617     14616     14618     14618     14616     14619
     14620     14616     14619     14620     14616     14618     14620     14616     14617
     14622     14626     14627     14623     14622     14625     14623     14622     14624
     14624     14622     14625     14626     14622     14625     14626     14622     14624
     14626     14622     14623     14628     14632     14633     14629     14628     14631
     14629     14628     14630     14630     14628     14631     14632     14628     14631
     14632     14628     14630     14632     14628     14629     14634     14638     14639
     14635     14634     14637     14635     14634     14636     14636     14634     14637
     14638     14634     14637     14638     14634     14636     14638     14634     14635
     14640     14644     14645     14641     14640     14643     14641     14640     14642
     14642     14640     14643     14644     14640     14643     14644     14640     14642
     14644     14640     14641     14646     14650     14651     14647     14646     14649
     14647     14646     14648     14648     14646     14649     14650     14646     14649
     14650     14646     14648     14650     14646     14647     14652     14656     14657
     14653     14652     14655     14653     14652     14654     14654     14652     14655
     14656     14652     14655     14656     14652     14654     14656     14652     14653
     14658     14662     14663     14659     14658     14661     14659     14658     14660
     14660     14658     14661     14662     14658     14661     14662     14658     14660
     14662     14658     14659     14664     14668     14669     14665     14664     14667
     14665     14664     14666     14666     14664     14667     14668     14664     14667
     14668     14664     14666     14668     14664     14665     14670     14674     14675
     14671     14670     14673     14671     14670     14672     14672     14670     14673
     14674     14670     14673     14674     14670     14672     14674     14670     14671
     14676     14680     14681     14677     14676     14679     14677     14676     14678
     14678     14676     14679     14680     14676     14679     14680     14676     14678
     14680     14676     14677     14682     14686     14687     14683     14682     14685
     14683     14682     14684     14684     14682     14685     14686     14682     14685
     14686     14682     14684     14686     14682     14683     14688     14692     14693
     14689     14688     14691     14689     14688     14690     14690     14688     14691
     14692     14688     14691     14692     14688     14690     14692     14688     14689
     14694     14698     14699     14695     14694     14697     14695     14694     14696
     14696     14694     14697     14698     14694     14697     14698     14694     14696
     14698     14694     14695     14700     14704     14705     14701     14700     14703
     14701     14700     14702     14702     14700     14703     14704     14700     14703
     14704     14700     14702     14704     14700     14701     14706     14710     14711
     14707     14706     14709     14707     14706     14708     14708     14706     14709
     14710     14706     14709     14710     14706     14708     14710     14706     14707
     14712     14716     14717     14713     14712     14715     14713     14712     14714
     14714     14712     14715     14716     14712     14715     14716     14712     14714
     14716     14712     14713     14718     14722     14723     14719     14718     14721
     14719     14718     14720     14720     14718     14721     14722     14718     14721
     14722     14718     14720     14722     14718     14719     14724     14728     14729
     14725     14724     14727     14725     14724     14726     14726     14724     14727
     14728     14724     14727     14728     14724     14726     14728     14724     14725
     14730     14734     14735     14731     14730     14733     14731     14730     14732
     14732     14730     14733     14734     14730     14733     14734     14730     14732
     14734     14730     14731     14736     14740     14741     14737     14736     14739
     14737     14736     14738     14738     14736     14739     14740     14736     14739
     14740     14736     14738     14740     14736     14737     14742     14746     14747
     14743     14742     14745     14743     14742     14744     14744     14742     14745
     14746     14742     14745     14746     14742     14744     14746     14742     14743
     14748     14752     14753     14749     14748     14751     14749     14748     14750
     14750     14748     14751     14752     14748     14751     14752     14748     14750
     14752     14748     14749     14754     14758     14759     14755     14754     14757
     14755     14754     14756     14756     14754     14757     14758     14754     14757
     14758     14754     14756     14758     14754     14755     14760     14764     14765
     14761     14760     14763     14761     14760     14762     14762     14760     14763
     14764     14760     14763     14764     14760     14762     14764     14760     14761
     14766     14770     14771     14767     14766     14769     14767     14766     14768
     14768     14766     14769     14770     14766     14769     14770     14766     14768
     14770     14766     14767     14772     14776     14777     14773     14772     14775
     14773     14772     14774     14774     14772     14775     14776     14772     14775
     14776     14772     14774     14776     14772     14773     14778     14782     14783
     14779     14778     14781     14779     14778     14780     14780     14778     14781
     14782     14778     14781     14782     14778     14780     14782     14778     14779
     14784     14788     14789     14785     14784     14787     14785     14784     14786
     14786     14784     14787     14788     14784     14787     14788     14784     14786
     14788     14784     14785     14790     14794     14795     14791     14790     14793
     14791     14790     14792     14792     14790     14793     14794     14790     14793
     14794     14790     14792     14794     14790     14791     14796     14800     14801
     14797     14796     14799     14797     14796     14798     14798     14796     14799
     14800     14796     14799     14800     14796     14798     14800     14796     14797
     14802     14806     14807     14803     14802     14805     14803     14802     14804
     14804     14802     14805     14806     14802     14805     14806     14802     14804
     14806     14802     14803     14808     14812     14813     14809     14808     14811
     14809     14808     14810     14810     14808     14811     14812     14808     14811
     14812     14808     14810     14812     14808     14809     14814     14818     14819
     14815     14814     14817     14815     14814     14816     14816     14814     14817
     14818     14814     14817     14818     14814     14816     14818     14814     14815
     14820     14824     14825     14821     14820     14823     14821     14820     14822
     14822     14820     14823     14824     14820     14823     14824     14820     14822
     14824     14820     14821     14826     14830     14831     14827     14826     14829
     14827     14826     14828     14828     14826     14829     14830     14826     14829
     14830     14826     14828     14830     14826     14827     14832     14836     14837
     14833     14832     14835     14833     14832     14834     14834     14832     14835
     14836     14832     14835     14836     14832     14834     14836     14832     14833
     14838     14842     14843     14839     14838     14841     14839     14838     14840
     14840     14838     14841     14842     14838     14841     14842     14838     14840
     14842     14838     14839     14844     14848     14849     14845     14844     14847
     14845     14844     14846     14846     14844     14847     14848     14844     14847
     14848     14844     14846     14848     14844     14845     14850     14854     14855
     14851     14850     14853     14851     14850     14852     14852     14850     14853
     14854     14850     14853     14854     14850     14852     14854     14850     14851
     14856     14860     14861     14857     14856     14859     14857     14856     14858
     14858     14856     14859     14860     14856     14859     14860     14856     14858
     14860     14856     14857     14862     14866     14867     14863     14862     14865
     14863     14862     14864     14864     14862     14865     14866     14862     14865
     14866     14862     14864     14866     14862     14863     14868     14872     14873
     14869     14868     14871     14869     14868     14870     14870     14868     14871
     14872     14868     14871     14872     14868     14870     14872     14868     14869
     14874     14878     14879     14875     14874     14877     14875     14874     14876
     14876     14874     14877     14878     14874     14877     14878     14874     14876
     14878     14874     14875     14880     14884     14885     14881     14880     14883
     14881     14880     14882     14882     14880     14883     14884     14880     14883
     14884     14880     14882     14884     14880     14881     14886     14890     14891
     14887     14886     14889     14887     14886     14888     14888     14886     14889
     14890     14886     14889     14890     14886     14888     14890     14886     14887
     14892     14896     14897     14893     14892     14895     14893     14892     14894
     14894     14892     14895     14896     14892     14895     14896     14892     14894
     14896     14892     14893     14898     14902     14903     14899     14898     14901
     14899     14898     14900     14900     14898     14901     14902     14898     14901
     14902     14898     14900     14902     14898     14899     14904     14908     14909
     14905     14904     14907     14905     14904     14906     14906     14904     14907
     14908     14904     14907     14908     14904     14906     14908     14904     14905
     14910     14914     14915     14911     14910     14913     14911     14910     14912
     14912     14910     14913     14914     14910     14913     14914     14910     14912
     14914     14910     14911     14916     14920     14921     14917     14916     14919
     14917     14916     14918     14918     14916     14919     14920     14916     14919
     14920     14916     14918     14920     14916     14917     14922     14926     14927
     14923     14922     14925     14923     14922     14924     14924     14922     14925
     14926     14922     14925     14926     14922     14924     14926     14922     14923
     14928     14932     14933     14929     14928     14931     14929     14928     14930
     14930     14928     14931     14932     14928     14931     14932     14928     14930
     14932     14928     14929     14934     14938     14939     14935     14934     14937
     14935     14934     14936     14936     14934     14937     14938     14934     14937
     14938     14934     14936     14938     14934     14935     14940     14944     14945
     14941     14940     14943     14941     14940     14942     14942     14940     14943
     14944     14940     14943     14944     14940     14942     14944     14940     14941
     14946     14950     14951     14947     14946     14949     14947     14946     14948
     14948     14946     14949     14950     14946     14949     14950     14946     14948
     14950     14946     14947     14952     14956     14957     14953     14952     14955
     14953     14952     14954     14954     14952     14955     14956     14952     14955
     14956     14952     14954     14956     14952     14953     14958     14962     14963
     14959     14958     14961     14959     14958     14960     14960     14958     14961
     14962     14958     14961     14962     14958     14960     14962     14958     14959
     14964     14968     14969     14965     14964     14967     14965     14964     14966
     14966     14964     14967     14968     14964     14967     14968     14964     14966
     14968     14964     14965     14970     14974     14975     14971     14970     14973
     14971     14970     14972     14972     14970     14973     14974     14970     14973
     14974     14970     14972     14974     14970     14971     14976     14980     14981
     14977     14976     14979     14977     14976     14978     14978     14976     14979
     14980     14976     14979     14980     14976     14978     14980     14976     14977
     14982     14986     14987     14983     14982     14985     14983     14982     14984
     14984     14982     14985     14986     14982     14985     14986     14982     14984
     14986     14982     14983     14988     14992     14993     14989     14988     14991
     14989     14988     14990     14990     14988     14991     14992     14988     14991
     14992     14988     14990     14992     14988     14989     14994     14998     14999
     14995     14994     14997     14995     14994     14996     14996     14994     14997
     14998     14994     14997     14998     14994     14996     14998     14994     14995
     15000     15004     15005     15001     15000     15003     15001     15000     15002
     15002     15000     15003     15004     15000     15003     15004     15000     15002
     15004     15000     15001     15006     15010     15011     15007     15006     15009
     15007     15006     15008     15008     15006     15009     15010     15006     15009
     15010     15006     15008     15010     15006     15007     15012     15016     15017
     15013     15012     15015     15013     15012     15014     15014     15012     15015
     15016     15012     15015     15016     15012     15014     15016     15012     15013
     15018     15022     15023     15019     15018     15021     15019     15018     15020
     15020     15018     15021     15022     15018     15021     15022     15018     15020
     15022     15018     15019     15024     15028     15029     15025     15024     15027
     15025     15024     15026     15026     15024     15027     15028     15024     15027
     15028     15024     15026     15028     15024     15025     15030     15034     15035
     15031     15030     15033     15031     15030     15032     15032     15030     15033
     15034     15030     15033     15034     15030     15032     15034     15030     15031
     15036     15040     15041     15037     15036     15039     15037     15036     15038
     15038     15036     15039     15040     15036     15039     15040     15036     15038
     15040     15036     15037     15042     15046     15047     15043     15042     15045
     15043     15042     15044     15044     15042     15045     15046     15042     15045
     15046     15042     15044     15046     15042     15043     15048     15052     15053
     15049     15048     15051     15049     15048     15050     15050     15048     15051
     15052     15048     15051     15052     15048     15050     15052     15048     15049
     15054     15058     15059     15055     15054     15057     15055     15054     15056
     15056     15054     15057     15058     15054     15057     15058     15054     15056
     15058     15054     15055     15060     15064     15065     15061     15060     15063
     15061     15060     15062     15062     15060     15063     15064     15060     15063
     15064     15060     15062     15064     15060     15061     15066     15070     15071
     15067     15066     15069     15067     15066     15068     15068     15066     15069
     15070     15066     15069     15070     15066     15068     15070     15066     15067
     15072     15076     15077     15073     15072     15075     15073     15072     15074
     15074     15072     15075     15076     15072     15075     15076     15072     15074
     15076     15072     15073     15078     15082     15083     15079     15078     15081
     15079     15078     15080     15080     15078     15081     15082     15078     15081
     15082     15078     15080     15082     15078     15079     15084     15088     15089
     15085     15084     15087     15085     15084     15086     15086     15084     15087
     15088     15084     15087     15088     15084     15086     15088     15084     15085
     15090     15094     15095     15091     15090     15093     15091     15090     15092
     15092     15090     15093     15094     15090     15093     15094     15090     15092
     15094     15090     15091     15096     15100     15101     15097     15096     15099
     15097     15096     15098     15098     15096     15099     15100     15096     15099
     15100     15096     15098     15100     15096     15097     15102     15106     15107
     15103     15102     15105     15103     15102     15104     15104     15102     15105
     15106     15102     15105     15106     15102     15104     15106     15102     15103
     15108     15112     15113     15109     15108     15111     15109     15108     15110
     15110     15108     15111     15112     15108     15111     15112     15108     15110
     15112     15108     15109     15114     15118     15119     15115     15114     15117
     15115     15114     15116     15116     15114     15117     15118     15114     15117
     15118     15114     15116     15118     15114     15115     15120     15124     15125
     15121     15120     15123     15121     15120     15122     15122     15120     15123
     15124     15120     15123     15124     15120     15122     15124     15120     15121
     15126     15130     15131     15127     15126     15129     15127     15126     15128
     15128     15126     15129     15130     15126     15129     15130     15126     15128
     15130     15126     15127     15132     15136     15137     15133     15132     15135
     15133     15132     15134     15134     15132     15135     15136     15132     15135
     15136     15132     15134     15136     15132     15133     15138     15142     15143
     15139     15138     15141     15139     15138     15140     15140     15138     15141
     15142     15138     15141     15142     15138     15140     15142     15138     15139
     15144     15148     15149     15145     15144     15147     15145     15144     15146
     15146     15144     15147     15148     15144     15147     15148     15144     15146
     15148     15144     15145     15150     15154     15155     15151     15150     15153
     15151     15150     15152     15152     15150     15153     15154     15150     15153
     15154     15150     15152     15154     15150     15151     15156     15160     15161
     15157     15156     15159     15157     15156     15158     15158     15156     15159
     15160     15156     15159     15160     15156     15158     15160     15156     15157
     15162     15166     15167     15163     15162     15165     15163     15162     15164
     15164     15162     15165     15166     15162     15165     15166     15162     15164
     15166     15162     15163     15168     15172     15173     15169     15168     15171
     15169     15168     15170     15170     15168     15171     15172     15168     15171
     15172     15168     15170     15172     15168     15169     15174     15178     15179
     15175     15174     15177     15175     15174     15176     15176     15174     15177
     15178     15174     15177     15178     15174     15176     15178     15174     15175
     15180     15184     15185     15181     15180     15183     15181     15180     15182
     15182     15180     15183     15184     15180     15183     15184     15180     15182
     15184     15180     15181     15186     15190     15191     15187     15186     15189
     15187     15186     15188     15188     15186     15189     15190     15186     15189
     15190     15186     15188     15190     15186     15187     15192     15196     15197
     15193     15192     15195     15193     15192     15194     15194     15192     15195
     15196     15192     15195     15196     15192     15194     15196     15192     15193
     15198     15202     15203     15199     15198     15201     15199     15198     15200
     15200     15198     15201     15202     15198     15201     15202     15198     15200
     15202     15198     15199     15204     15208     15209     15205     15204     15207
     15205     15204     15206     15206     15204     15207     15208     15204     15207
     15208     15204     15206     15208     15204     15205     15210     15214     15215
     15211     15210     15213     15211     15210     15212     15212     15210     15213
     15214     15210     15213     15214     15210     15212     15214     15210     15211
     15216     15220     15221     15217     15216     15219     15217     15216     15218
     15218     15216     15219     15220     15216     15219     15220     15216     15218
     15220     15216     15217     15222     15226     15227     15223     15222     15225
     15223     15222     15224     15224     15222     15225     15226     15222     15225
     15226     15222     15224     15226     15222     15223     15228     15232     15233
     15229     15228     15231     15229     15228     15230     15230     15228     15231
     15232     15228     15231     15232     15228     15230     15232     15228     15229
     15234     15238     15239     15235     15234     15237     15235     15234     15236
     15236     15234     15237     15238     15234     15237     15238     15234     15236
     15238     15234     15235     15240     15244     15245     15241     15240     15243
     15241     15240     15242     15242     15240     15243     15244     15240     15243
     15244     15240     15242     15244     15240     15241     15246     15250     15251
     15247     15246     15249     15247     15246     15248     15248     15246     15249
     15250     15246     15249     15250     15246     15248     15250     15246     15247
     15252     15256     15257     15253     15252     15255     15253     15252     15254
     15254     15252     15255     15256     15252     15255     15256     15252     15254
     15256     15252     15253     15258     15262     15263     15259     15258     15261
     15259     15258     15260     15260     15258     15261     15262     15258     15261
     15262     15258     15260     15262     15258     15259     15264     15268     15269
     15265     15264     15267     15265     15264     15266     15266     15264     15267
     15268     15264     15267     15268     15264     15266     15268     15264     15265
     15270     15274     15275     15271     15270     15273     15271     15270     15272
     15272     15270     15273     15274     15270     15273     15274     15270     15272
     15274     15270     15271     15276     15280     15281     15277     15276     15279
     15277     15276     15278     15278     15276     15279     15280     15276     15279
     15280     15276     15278     15280     15276     15277     15282     15286     15287
     15283     15282     15285     15283     15282     15284     15284     15282     15285
     15286     15282     15285     15286     15282     15284     15286     15282     15283
     15288     15292     15293     15289     15288     15291     15289     15288     15290
     15290     15288     15291     15292     15288     15291     15292     15288     15290
     15292     15288     15289     15294     15298     15299     15295     15294     15297
     15295     15294     15296     15296     15294     15297     15298     15294     15297
     15298     15294     15296     15298     15294     15295     15300     15304     15305
     15301     15300     15303     15301     15300     15302     15302     15300     15303
     15304     15300     15303     15304     15300     15302     15304     15300     15301
     15306     15310     15311     15307     15306     15309     15307     15306     15308
     15308     15306     15309     15310     15306     15309     15310     15306     15308
     15310     15306     15307     15312     15316     15317     15313     15312     15315
     15313     15312     15314     15314     15312     15315     15316     15312     15315
     15316     15312     15314     15316     15312     15313     15318     15322     15323
     15319     15318     15321     15319     15318     15320     15320     15318     15321
     15322     15318     15321     15322     15318     15320     15322     15318     15319
     15324     15328     15329     15325     15324     15327     15325     15324     15326
     15326     15324     15327     15328     15324     15327     15328     15324     15326
     15328     15324     15325     15330     15334     15335     15331     15330     15333
     15331     15330     15332     15332     15330     15333     15334     15330     15333
     15334     15330     15332     15334     15330     15331     15336     15340     15341
     15337     15336     15339     15337     15336     15338     15338     15336     15339
     15340     15336     15339     15340     15336     15338     15340     15336     15337
     15342     15346     15347     15343     15342     15345     15343     15342     15344
     15344     15342     15345     15346     15342     15345     15346     15342     15344
     15346     15342     15343     15348     15352     15353     15349     15348     15351
     15349     15348     15350     15350     15348     15351     15352     15348     15351
     15352     15348     15350     15352     15348     15349     15354     15358     15359
     15355     15354     15357     15355     15354     15356     15356     15354     15357
     15358     15354     15357     15358     15354     15356     15358     15354     15355
     15360     15364     15365     15361     15360     15363     15361     15360     15362
     15362     15360     15363     15364     15360     15363     15364     15360     15362
     15364     15360     15361     15366     15370     15371     15367     15366     15369
     15367     15366     15368     15368     15366     15369     15370     15366     15369
     15370     15366     15368     15370     15366     15367     15372     15376     15377
     15373     15372     15375     15373     15372     15374     15374     15372     15375
     15376     15372     15375     15376     15372     15374     15376     15372     15373
     15378     15382     15383     15379     15378     15381     15379     15378     15380
     15380     15378     15381     15382     15378     15381     15382     15378     15380
     15382     15378     15379     15384     15388     15389     15385     15384     15387
     15385     15384     15386     15386     15384     15387     15388     15384     15387
     15388     15384     15386     15388     15384     15385     15390     15394     15395
     15391     15390     15393     15391     15390     15392     15392     15390     15393
     15394     15390     15393     15394     15390     15392     15394     15390     15391
     15396     15400     15401     15397     15396     15399     15397     15396     15398
     15398     15396     15399     15400     15396     15399     15400     15396     15398
     15400     15396     15397     15402     15406     15407     15403     15402     15405
     15403     15402     15404     15404     15402     15405     15406     15402     15405
     15406     15402     15404     15406     15402     15403     15408     15412     15413
     15409     15408     15411     15409     15408     15410     15410     15408     15411
     15412     15408     15411     15412     15408     15410     15412     15408     15409
     15414     15418     15419     15415     15414     15417     15415     15414     15416
     15416     15414     15417     15418     15414     15417     15418     15414     15416
     15418     15414     15415     15420     15424     15425     15421     15420     15423
     15421     15420     15422     15422     15420     15423     15424     15420     15423
     15424     15420     15422     15424     15420     15421     15426     15430     15431
     15427     15426     15429     15427     15426     15428     15428     15426     15429
     15430     15426     15429     15430     15426     15428     15430     15426     15427
     15432     15436     15437     15433     15432     15435     15433     15432     15434
     15434     15432     15435     15436     15432     15435     15436     15432     15434
     15436     15432     15433     15438     15442     15443     15439     15438     15441
     15439     15438     15440     15440     15438     15441     15442     15438     15441
     15442     15438     15440     15442     15438     15439     15444     15448     15449
     15445     15444     15447     15445     15444     15446     15446     15444     15447
     15448     15444     15447     15448     15444     15446     15448     15444     15445
     15450     15454     15455     15451     15450     15453     15451     15450     15452
     15452     15450     15453     15454     15450     15453     15454     15450     15452
     15454     15450     15451     15456     15460     15461     15457     15456     15459
     15457     15456     15458     15458     15456     15459     15460     15456     15459
     15460     15456     15458     15460     15456     15457     15462     15466     15467
     15463     15462     15465     15463     15462     15464     15464     15462     15465
     15466     15462     15465     15466     15462     15464     15466     15462     15463
     15468     15472     15473     15469     15468     15471     15469     15468     15470
     15470     15468     15471     15472     15468     15471     15472     15468     15470
     15472     15468     15469     15474     15478     15479     15475     15474     15477
     15475     15474     15476     15476     15474     15477     15478     15474     15477
     15478     15474     15476     15478     15474     15475     15480     15484     15485
     15481     15480     15483     15481     15480     15482     15482     15480     15483
     15484     15480     15483     15484     15480     15482     15484     15480     15481
     15486     15490     15491     15487     15486     15489     15487     15486     15488
     15488     15486     15489     15490     15486     15489     15490     15486     15488
     15490     15486     15487     15492     15496     15497     15493     15492     15495
     15493     15492     15494     15494     15492     15495     15496     15492     15495
     15496     15492     15494     15496     15492     15493     15498     15502     15503
     15499     15498     15501     15499     15498     15500     15500     15498     15501
     15502     15498     15501     15502     15498     15500     15502     15498     15499
     15504     15508     15509     15505     15504     15507     15505     15504     15506
     15506     15504     15507     15508     15504     15507     15508     15504     15506
     15508     15504     15505     15510     15514     15515     15511     15510     15513
     15511     15510     15512     15512     15510     15513     15514     15510     15513
     15514     15510     15512     15514     15510     15511     15516     15520     15521
     15517     15516     15519     15517     15516     15518     15518     15516     15519
     15520     15516     15519     15520     15516     15518     15520     15516     15517
     15522     15526     15527     15523     15522     15525     15523     15522     15524
     15524     15522     15525     15526     15522     15525     15526     15522     15524
     15526     15522     15523     15528     15532     15533     15529     15528     15531
     15529     15528     15530     15530     15528     15531     15532     15528     15531
     15532     15528     15530     15532     15528     15529     15534     15538     15539
     15535     15534     15537     15535     15534     15536     15536     15534     15537
     15538     15534     15537     15538     15534     15536     15538     15534     15535
     15540     15544     15545     15541     15540     15543     15541     15540     15542
     15542     15540     15543     15544     15540     15543     15544     15540     15542
     15544     15540     15541     15546     15550     15551     15547     15546     15549
     15547     15546     15548     15548     15546     15549     15550     15546     15549
     15550     15546     15548     15550     15546     15547     15552     15556     15557
     15553     15552     15555     15553     15552     15554     15554     15552     15555
     15556     15552     15555     15556     15552     15554     15556     15552     15553
     15558     15562     15563     15559     15558     15561     15559     15558     15560
     15560     15558     15561     15562     15558     15561     15562     15558     15560
     15562     15558     15559     15564     15568     15569     15565     15564     15567
     15565     15564     15566     15566     15564     15567     15568     15564     15567
     15568     15564     15566     15568     15564     15565     15570     15574     15575
     15571     15570     15573     15571     15570     15572     15572     15570     15573
     15574     15570     15573     15574     15570     15572     15574     15570     15571
     15576     15580     15581     15577     15576     15579     15577     15576     15578
     15578     15576     15579     15580     15576     15579     15580     15576     15578
     15580     15576     15577     15582     15586     15587     15583     15582     15585
     15583     15582     15584     15584     15582     15585     15586     15582     15585
     15586     15582     15584     15586     15582     15583     15588     15592     15593
     15589     15588     15591     15589     15588     15590     15590     15588     15591
     15592     15588     15591     15592     15588     15590     15592     15588     15589
     15594     15598     15599     15595     15594     15597     15595     15594     15596
     15596     15594     15597     15598     15594     15597     15598     15594     15596
     15598     15594     15595     15600     15604     15605     15601     15600     15603
     15601     15600     15602     15602     15600     15603     15604     15600     15603
     15604     15600     15602     15604     15600     15601     15606     15610     15611
     15607     15606     15609     15607     15606     15608     15608     15606     15609
     15610     15606     15609     15610     15606     15608     15610     15606     15607
     15612     15616     15617     15613     15612     15615     15613     15612     15614
     15614     15612     15615     15616     15612     15615     15616     15612     15614
     15616     15612     15613     15618     15622     15623     15619     15618     15621
     15619     15618     15620     15620     15618     15621     15622     15618     15621
     15622     15618     15620     15622     15618     15619     15624     15628     15629
     15625     15624     15627     15625     15624     15626     15626     15624     15627
     15628     15624     15627     15628     15624     15626     15628     15624     15625
     15630     15634     15635     15631     15630     15633     15631     15630     15632
     15632     15630     15633     15634     15630     15633     15634     15630     15632
     15634     15630     15631     15636     15640     15641     15637     15636     15639
     15637     15636     15638     15638     15636     15639     15640     15636     15639
     15640     15636     15638     15640     15636     15637     15642     15646     15647
     15643     15642     15645     15643     15642     15644     15644     15642     15645
     15646     15642     15645     15646     15642     15644     15646     15642     15643
     15648     15652     15653     15649     15648     15651     15649     15648     15650
     15650     15648     15651     15652     15648     15651     15652     15648     15650
     15652     15648     15649     15654     15658     15659     15655     15654     15657
     15655     15654     15656     15656     15654     15657     15658     15654     15657
     15658     15654     15656     15658     15654     15655     15660     15664     15665
     15661     15660     15663     15661     15660     15662     15662     15660     15663
     15664     15660     15663     15664     15660     15662     15664     15660     15661
     15666     15670     15671     15667     15666     15669     15667     15666     15668
     15668     15666     15669     15670     15666     15669     15670     15666     15668
     15670     15666     15667     15672     15676     15677     15673     15672     15675
     15673     15672     15674     15674     15672     15675     15676     15672     15675
     15676     15672     15674     15676     15672     15673     15678     15682     15683
     15679     15678     15681     15679     15678     15680     15680     15678     15681
     15682     15678     15681     15682     15678     15680     15682     15678     15679
     15684     15688     15689     15685     15684     15687     15685     15684     15686
     15686     15684     15687     15688     15684     15687     15688     15684     15686
     15688     15684     15685     15690     15694     15695     15691     15690     15693
     15691     15690     15692     15692     15690     15693     15694     15690     15693
     15694     15690     15692     15694     15690     15691     15696     15700     15701
     15697     15696     15699     15697     15696     15698     15698     15696     15699
     15700     15696     15699     15700     15696     15698     15700     15696     15697
     15702     15706     15707     15703     15702     15705     15703     15702     15704
     15704     15702     15705     15706     15702     15705     15706     15702     15704
     15706     15702     15703     15708     15712     15713     15709     15708     15711
     15709     15708     15710     15710     15708     15711     15712     15708     15711
     15712     15708     15710     15712     15708     15709     15714     15718     15719
     15715     15714     15717     15715     15714     15716     15716     15714     15717
     15718     15714     15717     15718     15714     15716     15718     15714     15715
     15720     15724     15725     15721     15720     15723     15721     15720     15722
     15722     15720     15723     15724     15720     15723     15724     15720     15722
     15724     15720     15721     15726     15730     15731     15727     15726     15729
     15727     15726     15728     15728     15726     15729     15730     15726     15729
     15730     15726     15728     15730     15726     15727     15732     15736     15737
     15733     15732     15735     15733     15732     15734     15734     15732     15735
     15736     15732     15735     15736     15732     15734     15736     15732     15733
     15738     15742     15743     15739     15738     15741     15739     15738     15740
     15740     15738     15741     15742     15738     15741     15742     15738     15740
     15742     15738     15739     15744     15748     15749     15745     15744     15747
     15745     15744     15746     15746     15744     15747     15748     15744     15747
     15748     15744     15746     15748     15744     15745     15750     15754     15755
     15751     15750     15753     15751     15750     15752     15752     15750     15753
     15754     15750     15753     15754     15750     15752     15754     15750     15751
     15756     15760     15761     15757     15756     15759     15757     15756     15758
     15758     15756     15759     15760     15756     15759     15760     15756     15758
     15760     15756     15757     15762     15766     15767     15763     15762     15765
     15763     15762     15764     15764     15762     15765     15766     15762     15765
     15766     15762     15764     15766     15762     15763     15768     15772     15773
     15769     15768     15771     15769     15768     15770     15770     15768     15771
     15772     15768     15771     15772     15768     15770     15772     15768     15769
     15774     15778     15779     15775     15774     15777     15775     15774     15776
     15776     15774     15777     15778     15774     15777     15778     15774     15776
     15778     15774     15775     15780     15784     15785     15781     15780     15783
     15781     15780     15782     15782     15780     15783     15784     15780     15783
     15784     15780     15782     15784     15780     15781     15786     15790     15791
     15787     15786     15789     15787     15786     15788     15788     15786     15789
     15790     15786     15789     15790     15786     15788     15790     15786     15787
     15792     15796     15797     15793     15792     15795     15793     15792     15794
     15794     15792     15795     15796     15792     15795     15796     15792     15794
     15796     15792     15793     15798     15802     15803     15799     15798     15801
     15799     15798     15800     15800     15798     15801     15802     15798     15801
     15802     15798     15800     15802     15798     15799     15804     15808     15809
     15805     15804     15807     15805     15804     15806     15806     15804     15807
     15808     15804     15807     15808     15804     15806     15808     15804     15805
     15810     15814     15815     15811     15810     15813     15811     15810     15812
     15812     15810     15813     15814     15810     15813     15814     15810     15812
     15814     15810     15811     15816     15820     15821     15817     15816     15819
     15817     15816     15818     15818     15816     15819     15820     15816     15819
     15820     15816     15818     15820     15816     15817     15822     15826     15827
     15823     15822     15825     15823     15822     15824     15824     15822     15825
     15826     15822     15825     15826     15822     15824     15826     15822     15823
     15828     15832     15833     15829     15828     15831     15829     15828     15830
     15830     15828     15831     15832     15828     15831     15832     15828     15830
     15832     15828     15829     15834     15838     15839     15835     15834     15837
     15835     15834     15836     15836     15834     15837     15838     15834     15837
     15838     15834     15836     15838     15834     15835     15840     15844     15845
     15841     15840     15843     15841     15840     15842     15842     15840     15843
     15844     15840     15843     15844     15840     15842     15844     15840     15841
     15846     15850     15851     15847     15846     15849     15847     15846     15848
     15848     15846     15849     15850     15846     15849     15850     15846     15848
     15850     15846     15847     15852     15856     15857     15853     15852     15855
     15853     15852     15854     15854     15852     15855     15856     15852     15855
     15856     15852     15854     15856     15852     15853     15858     15862     15863
     15859     15858     15861     15859     15858     15860     15860     15858     15861
     15862     15858     15861     15862     15858     15860     15862     15858     15859
     15864     15868     15869     15865     15864     15867     15865     15864     15866
     15866     15864     15867     15868     15864     15867     15868     15864     15866
     15868     15864     15865     15870     15874     15875     15871     15870     15873
     15871     15870     15872     15872     15870     15873     15874     15870     15873
     15874     15870     15872     15874     15870     15871     15876     15880     15881
     15877     15876     15879     15877     15876     15878     15878     15876     15879
     15880     15876     15879     15880     15876     15878     15880     15876     15877
     15882     15886     15887     15883     15882     15885     15883     15882     15884
     15884     15882     15885     15886     15882     15885     15886     15882     15884
     15886     15882     15883     15888     15892     15893     15889     15888     15891
     15889     15888     15890     15890     15888     15891     15892     15888     15891
     15892     15888     15890     15892     15888     15889     15894     15898     15899
     15895     15894     15897     15895     15894     15896     15896     15894     15897
     15898     15894     15897     15898     15894     15896     15898     15894     15895
     15900     15904     15905     15901     15900     15903     15901     15900     15902
     15902     15900     15903     15904     15900     15903     15904     15900     15902
     15904     15900     15901     15906     15910     15911     15907     15906     15909
     15907     15906     15908     15908     15906     15909     15910     15906     15909
     15910     15906     15908     15910     15906     15907     15912     15916     15917
     15913     15912     15915     15913     15912     15914     15914     15912     15915
     15916     15912     15915     15916     15912     15914     15916     15912     15913
     15918     15922     15923     15919     15918     15921     15919     15918     15920
     15920     15918     15921     15922     15918     15921     15922     15918     15920
     15922     15918     15919     15924     15928     15929     15925     15924     15927
     15925     15924     15926     15926     15924     15927     15928     15924     15927
     15928     15924     15926     15928     15924     15925     15930     15934     15935
     15931     15930     15933     15931     15930     15932     15932     15930     15933
     15934     15930     15933     15934     15930     15932     15934     15930     15931
     15936     15940     15941     15937     15936     15939     15937     15936     15938
     15938     15936     15939     15940     15936     15939     15940     15936     15938
     15940     15936     15937     15942     15946     15947     15943     15942     15945
     15943     15942     15944     15944     15942     15945     15946     15942     15945
     15946     15942     15944     15946     15942     15943     15948     15952     15953
     15949     15948     15951     15949     15948     15950     15950     15948     15951
     15952     15948     15951     15952     15948     15950     15952     15948     15949
     15954     15958     15959     15955     15954     15957     15955     15954     15956
     15956     15954     15957     15958     15954     15957     15958     15954     15956
     15958     15954     15955     15960     15964     15965     15961     15960     15963
     15961     15960     15962     15962     15960     15963     15964     15960     15963
     15964     15960     15962     15964     15960     15961     15966     15970     15971
     15967     15966     15969     15967     15966     15968     15968     15966     15969
     15970     15966     15969     15970     15966     15968     15970     15966     15967
     15972     15976     15977     15973     15972     15975     15973     15972     15974
     15974     15972     15975     15976     15972     15975     15976     15972     15974
     15976     15972     15973     15978     15982     15983     15979     15978     15981
     15979     15978     15980     15980     15978     15981     15982     15978     15981
     15982     15978     15980     15982     15978     15979     15984     15988     15989
     15985     15984     15987     15985     15984     15986     15986     15984     15987
     15988     15984     15987     15988     15984     15986     15988     15984     15985
     15990     15994     15995     15991     15990     15993     15991     15990     15992
     15992     15990     15993     15994     15990     15993     15994     15990     15992
     15994     15990     15991     15996     16000     16001     15997     15996     15999
     15997     15996     15998     15998     15996     15999     16000     15996     15999
     16000     15996     15998     16000     15996     15997     16002     16006     16007
     16003     16002     16005     16003     16002     16004     16004     16002     16005
     16006     16002     16005     16006     16002     16004     16006     16002     16003
     16008     16012     16013     16009     16008     16011     16009     16008     16010
     16010     16008     16011     16012     16008     16011     16012     16008     16010
     16012     16008     16009     16014     16018     16019     16015     16014     16017
     16015     16014     16016     16016     16014     16017     16018     16014     16017
     16018     16014     16016     16018     16014     16015     16020     16024     16025
     16021     16020     16023     16021     16020     16022     16022     16020     16023
     16024     16020     16023     16024     16020     16022     16024     16020     16021
     16026     16030     16031     16027     16026     16029     16027     16026     16028
     16028     16026     16029     16030     16026     16029     16030     16026     16028
     16030     16026     16027     16032     16036     16037     16033     16032     16035
     16033     16032     16034     16034     16032     16035     16036     16032     16035
     16036     16032     16034     16036     16032     16033     16038     16042     16043
     16039     16038     16041     16039     16038     16040     16040     16038     16041
     16042     16038     16041     16042     16038     16040     16042     16038     16039
     16044     16048     16049     16045     16044     16047     16045     16044     16046
     16046     16044     16047     16048     16044     16047     16048     16044     16046
     16048     16044     16045     16050     16054     16055     16051     16050     16053
     16051     16050     16052     16052     16050     16053     16054     16050     16053
     16054     16050     16052     16054     16050     16051     16056     16060     16061
     16057     16056     16059     16057     16056     16058     16058     16056     16059
     16060     16056     16059     16060     16056     16058     16060     16056     16057
     16062     16066     16067     16063     16062     16065     16063     16062     16064
     16064     16062     16065     16066     16062     16065     16066     16062     16064
     16066     16062     16063     16068     16072     16073     16069     16068     16071
     16069     16068     16070     16070     16068     16071     16072     16068     16071
     16072     16068     16070     16072     16068     16069     16074     16078     16079
     16075     16074     16077     16075     16074     16076     16076     16074     16077
     16078     16074     16077     16078     16074     16076     16078     16074     16075
     16080     16084     16085     16081     16080     16083     16081     16080     16082
     16082     16080     16083     16084     16080     16083     16084     16080     16082
     16084     16080     16081     16086     16090     16091     16087     16086     16089
     16087     16086     16088     16088     16086     16089     16090     16086     16089
     16090     16086     16088     16090     16086     16087     16092     16096     16097
     16093     16092     16095     16093     16092     16094     16094     16092     16095
     16096     16092     16095     16096     16092     16094     16096     16092     16093
     16098     16102     16103     16099     16098     16101     16099     16098     16100
     16100     16098     16101     16102     16098     16101     16102     16098     16100
     16102     16098     16099     16104     16108     16109     16105     16104     16107
     16105     16104     16106     16106     16104     16107     16108     16104     16107
     16108     16104     16106     16108     16104     16105     16110     16114     16115
     16111     16110     16113     16111     16110     16112     16112     16110     16113
     16114     16110     16113     16114     16110     16112     16114     16110     16111
     16116     16120     16121     16117     16116     16119     16117     16116     16118
     16118     16116     16119     16120     16116     16119     16120     16116     16118
     16120     16116     16117     16122     16126     16127     16123     16122     16125
     16123     16122     16124     16124     16122     16125     16126     16122     16125
     16126     16122     16124     16126     16122     16123     16128     16132     16133
     16129     16128     16131     16129     16128     16130     16130     16128     16131
     16132     16128     16131     16132     16128     16130     16132     16128     16129
     16134     16138     16139     16135     16134     16137     16135     16134     16136
     16136     16134     16137     16138     16134     16137     16138     16134     16136
     16138     16134     16135     16140     16144     16145     16141     16140     16143
     16141     16140     16142     16142     16140     16143     16144     16140     16143
     16144     16140     16142     16144     16140     16141     16146     16150     16151
     16147     16146     16149     16147     16146     16148     16148     16146     16149
     16150     16146     16149     16150     16146     16148     16150     16146     16147
     16152     16156     16157     16153     16152     16155     16153     16152     16154
     16154     16152     16155     16156     16152     16155     16156     16152     16154
     16156     16152     16153     16158     16162     16163     16159     16158     16161
     16159     16158     16160     16160     16158     16161     16162     16158     16161
     16162     16158     16160     16162     16158     16159     16164     16168     16169
     16165     16164     16167     16165     16164     16166     16166     16164     16167
     16168     16164     16167     16168     16164     16166     16168     16164     16165
     16170     16174     16175     16171     16170     16173     16171     16170     16172
     16172     16170     16173     16174     16170     16173     16174     16170     16172
     16174     16170     16171     16176     16180     16181     16177     16176     16179
     16177     16176     16178     16178     16176     16179     16180     16176     16179
     16180     16176     16178     16180     16176     16177     16182     16186     16187
     16183     16182     16185     16183     16182     16184     16184     16182     16185
     16186     16182     16185     16186     16182     16184     16186     16182     16183
     16188     16192     16193     16189     16188     16191     16189     16188     16190
     16190     16188     16191     16192     16188     16191     16192     16188     16190
     16192     16188     16189     16194     16198     16199     16195     16194     16197
     16195     16194     16196     16196     16194     16197     16198     16194     16197
     16198     16194     16196     16198     16194     16195     16200     16204     16205
     16201     16200     16203     16201     16200     16202     16202     16200     16203
     16204     16200     16203     16204     16200     16202     16204     16200     16201
     16206     16210     16211     16207     16206     16209     16207     16206     16208
     16208     16206     16209     16210     16206     16209     16210     16206     16208
     16210     16206     16207     16212     16216     16217     16213     16212     16215
     16213     16212     16214     16214     16212     16215     16216     16212     16215
     16216     16212     16214     16216     16212     16213     16218     16222     16223
     16219     16218     16221     16219     16218     16220     16220     16218     16221
     16222     16218     16221     16222     16218     16220     16222     16218     16219
     16224     16228     16229     16225     16224     16227     16225     16224     16226
     16226     16224     16227     16228     16224     16227     16228     16224     16226
     16228     16224     16225     16230     16234     16235     16231     16230     16233
     16231     16230     16232     16232     16230     16233     16234     16230     16233
     16234     16230     16232     16234     16230     16231     16236     16240     16241
     16237     16236     16239     16237     16236     16238     16238     16236     16239
     16240     16236     16239     16240     16236     16238     16240     16236     16237
     16242     16246     16247     16243     16242     16245     16243     16242     16244
     16244     16242     16245     16246     16242     16245     16246     16242     16244
     16246     16242     16243     16248     16252     16253     16249     16248     16251
     16249     16248     16250     16250     16248     16251     16252     16248     16251
     16252     16248     16250     16252     16248     16249     16254     16258     16259
     16255     16254     16257     16255     16254     16256     16256     16254     16257
     16258     16254     16257     16258     16254     16256     16258     16254     16255
     16260     16264     16265     16261     16260     16263     16261     16260     16262
     16262     16260     16263     16264     16260     16263     16264     16260     16262
     16264     16260     16261     16266     16270     16271     16267     16266     16269
     16267     16266     16268     16268     16266     16269     16270     16266     16269
     16270     16266     16268     16270     16266     16267     16272     16276     16277
     16273     16272     16275     16273     16272     16274     16274     16272     16275
     16276     16272     16275     16276     16272     16274     16276     16272     16273
     16278     16282     16283     16279     16278     16281     16279     16278     16280
     16280     16278     16281     16282     16278     16281     16282     16278     16280
     16282     16278     16279     16284     16288     16289     16285     16284     16287
     16285     16284     16286     16286     16284     16287     16288     16284     16287
     16288     16284     16286     16288     16284     16285     16290     16294     16295
     16291     16290     16293     16291     16290     16292     16292     16290     16293
     16294     16290     16293     16294     16290     16292     16294     16290     16291
     16296     16300     16301     16297     16296     16299     16297     16296     16298
     16298     16296     16299     16300     16296     16299     16300     16296     16298
     16300     16296     16297     16302     16306     16307     16303     16302     16305
     16303     16302     16304     16304     16302     16305     16306     16302     16305
     16306     16302     16304     16306     16302     16303     16308     16312     16313
     16309     16308     16311     16309     16308     16310     16310     16308     16311
     16312     16308     16311     16312     16308     16310     16312     16308     16309
     16314     16318     16319     16315     16314     16317     16315     16314     16316
     16316     16314     16317     16318     16314     16317     16318     16314     16316
     16318     16314     16315     16320     16324     16325     16321     16320     16323
     16321     16320     16322     16322     16320     16323     16324     16320     16323
     16324     16320     16322     16324     16320     16321     16326     16330     16331
     16327     16326     16329     16327     16326     16328     16328     16326     16329
     16330     16326     16329     16330     16326     16328     16330     16326     16327
     16332     16336     16337     16333     16332     16335     16333     16332     16334
     16334     16332     16335     16336     16332     16335     16336     16332     16334
     16336     16332     16333     16338     16342     16343     16339     16338     16341
     16339     16338     16340     16340     16338     16341     16342     16338     16341
     16342     16338     16340     16342     16338     16339     16344     16348     16349
     16345     16344     16347     16345     16344     16346     16346     16344     16347
     16348     16344     16347     16348     16344     16346     16348     16344     16345
     16350     16354     16355     16351     16350     16353     16351     16350     16352
     16352     16350     16353     16354     16350     16353     16354     16350     16352
     16354     16350     16351     16356     16360     16361     16357     16356     16359
     16357     16356     16358     16358     16356     16359     16360     16356     16359
     16360     16356     16358     16360     16356     16357     16362     16366     16367
     16363     16362     16365     16363     16362     16364     16364     16362     16365
     16366     16362     16365     16366     16362     16364     16366     16362     16363
     16368     16372     16373     16369     16368     16371     16369     16368     16370
     16370     16368     16371     16372     16368     16371     16372     16368     16370
     16372     16368     16369     16374     16378     16379     16375     16374     16377
     16375     16374     16376     16376     16374     16377     16378     16374     16377
     16378     16374     16376     16378     16374     16375     16380     16384     16385
     16381     16380     16383     16381     16380     16382     16382     16380     16383
     16384     16380     16383     16384     16380     16382     16384     16380     16381
     16386     16390     16391     16387     16386     16389     16387     16386     16388
     16388     16386     16389     16390     16386     16389     16390     16386     16388
     16390     16386     16387     16392     16396     16397     16393     16392     16395
     16393     16392     16394     16394     16392     16395     16396     16392     16395
     16396     16392     16394     16396     16392     16393     16398     16402     16403
     16399     16398     16401     16399     16398     16400     16400     16398     16401
     16402     16398     16401     16402     16398     16400     16402     16398     16399
     16404     16408     16409     16405     16404     16407     16405     16404     16406
     16406     16404     16407     16408     16404     16407     16408     16404     16406
     16408     16404     16405     16410     16414     16415     16411     16410     16413
     16411     16410     16412     16412     16410     16413     16414     16410     16413
     16414     16410     16412     16414     16410     16411     16416     16420     16421
     16417     16416     16419     16417     16416     16418     16418     16416     16419
     16420     16416     16419     16420     16416     16418     16420     16416     16417
     16422     16426     16427     16423     16422     16425     16423     16422     16424
     16424     16422     16425     16426     16422     16425     16426     16422     16424
     16426     16422     16423     16428     16432     16433     16429     16428     16431
     16429     16428     16430     16430     16428     16431     16432     16428     16431
     16432     16428     16430     16432     16428     16429     16434     16438     16439
     16435     16434     16437     16435     16434     16436     16436     16434     16437
     16438     16434     16437     16438     16434     16436     16438     16434     16435
     16440     16444     16445     16441     16440     16443     16441     16440     16442
     16442     16440     16443     16444     16440     16443     16444     16440     16442
     16444     16440     16441     16446     16450     16451     16447     16446     16449
     16447     16446     16448     16448     16446     16449     16450     16446     16449
     16450     16446     16448     16450     16446     16447     16452     16456     16457
     16453     16452     16455     16453     16452     16454     16454     16452     16455
     16456     16452     16455     16456     16452     16454     16456     16452     16453
     16458     16462     16463     16459     16458     16461     16459     16458     16460
     16460     16458     16461     16462     16458     16461     16462     16458     16460
     16462     16458     16459     16464     16468     16469     16465     16464     16467
     16465     16464     16466     16466     16464     16467     16468     16464     16467
     16468     16464     16466     16468     16464     16465     16470     16474     16475
     16471     16470     16473     16471     16470     16472     16472     16470     16473
     16474     16470     16473     16474     16470     16472     16474     16470     16471
     16476     16480     16481     16477     16476     16479     16477     16476     16478
     16478     16476     16479     16480     16476     16479     16480     16476     16478
     16480     16476     16477     16482     16486     16487     16483     16482     16485
     16483     16482     16484     16484     16482     16485     16486     16482     16485
     16486     16482     16484     16486     16482     16483     16488     16492     16493
     16489     16488     16491     16489     16488     16490     16490     16488     16491
     16492     16488     16491     16492     16488     16490     16492     16488     16489
     16494     16498     16499     16495     16494     16497     16495     16494     16496
     16496     16494     16497     16498     16494     16497     16498     16494     16496
     16498     16494     16495     16500     16504     16505     16501     16500     16503
     16501     16500     16502     16502     16500     16503     16504     16500     16503
     16504     16500     16502     16504     16500     16501     16506     16510     16511
     16507     16506     16509     16507     16506     16508     16508     16506     16509
     16510     16506     16509     16510     16506     16508     16510     16506     16507
     16512     16516     16517     16513     16512     16515     16513     16512     16514
     16514     16512     16515     16516     16512     16515     16516     16512     16514
     16516     16512     16513     16518     16522     16523     16519     16518     16521
     16519     16518     16520     16520     16518     16521     16522     16518     16521
     16522     16518     16520     16522     16518     16519     16524     16528     16529
     16525     16524     16527     16525     16524     16526     16526     16524     16527
     16528     16524     16527     16528     16524     16526     16528     16524     16525
     16530     16534     16535     16531     16530     16533     16531     16530     16532
     16532     16530     16533     16534     16530     16533     16534     16530     16532
     16534     16530     16531     16536     16540     16541     16537     16536     16539
     16537     16536     16538     16538     16536     16539     16540     16536     16539
     16540     16536     16538     16540     16536     16537     16542     16546     16547
     16543     16542     16545     16543     16542     16544     16544     16542     16545
     16546     16542     16545     16546     16542     16544     16546     16542     16543
     16548     16552     16553     16549     16548     16551     16549     16548     16550
     16550     16548     16551     16552     16548     16551     16552     16548     16550
     16552     16548     16549     16554     16558     16559     16555     16554     16557
     16555     16554     16556     16556     16554     16557     16558     16554     16557
     16558     16554     16556     16558     16554     16555     16560     16564     16565
     16561     16560     16563     16561     16560     16562     16562     16560     16563
     16564     16560     16563     16564     16560     16562     16564     16560     16561
     16566     16570     16571     16567     16566     16569     16567     16566     16568
     16568     16566     16569     16570     16566     16569     16570     16566     16568
     16570     16566     16567     16572     16576     16577     16573     16572     16575
     16573     16572     16574     16574     16572     16575     16576     16572     16575
     16576     16572     16574     16576     16572     16573     16578     16582     16583
     16579     16578     16581     16579     16578     16580     16580     16578     16581
     16582     16578     16581     16582     16578     16580     16582     16578     16579
     16584     16588     16589     16585     16584     16587     16585     16584     16586
     16586     16584     16587     16588     16584     16587     16588     16584     16586
     16588     16584     16585     16590     16594     16595     16591     16590     16593
     16591     16590     16592     16592     16590     16593     16594     16590     16593
     16594     16590     16592     16594     16590     16591     16596     16600     16601
     16597     16596     16599     16597     16596     16598     16598     16596     16599
     16600     16596     16599     16600     16596     16598     16600     16596     16597
     16602     16606     16607     16603     16602     16605     16603     16602     16604
     16604     16602     16605     16606     16602     16605     16606     16602     16604
     16606     16602     16603     16608     16612     16613     16609     16608     16611
     16609     16608     16610     16610     16608     16611     16612     16608     16611
     16612     16608     16610     16612     16608     16609     16614     16618     16619
     16615     16614     16617     16615     16614     16616     16616     16614     16617
     16618     16614     16617     16618     16614     16616     16618     16614     16615
     16620     16624     16625     16621     16620     16623     16621     16620     16622
     16622     16620     16623     16624     16620     16623     16624     16620     16622
     16624     16620     16621     16626     16630     16631     16627     16626     16629
     16627     16626     16628     16628     16626     16629     16630     16626     16629
     16630     16626     16628     16630     16626     16627     16632     16636     16637
     16633     16632     16635     16633     16632     16634     16634     16632     16635
     16636     16632     16635     16636     16632     16634     16636     16632     16633
     16638     16642     16643     16639     16638     16641     16639     16638     16640
     16640     16638     16641     16642     16638     16641     16642     16638     16640
     16642     16638     16639     16644     16648     16649     16645     16644     16647
     16645     16644     16646     16646     16644     16647     16648     16644     16647
     16648     16644     16646     16648     16644     16645     16650     16654     16655
     16651     16650     16653     16651     16650     16652     16652     16650     16653
     16654     16650     16653     16654     16650     16652     16654     16650     16651
     16656     16660     16661     16657     16656     16659     16657     16656     16658
     16658     16656     16659     16660     16656     16659     16660     16656     16658
     16660     16656     16657     16662     16666     16667     16663     16662     16665
     16663     16662     16664     16664     16662     16665     16666     16662     16665
     16666     16662     16664     16666     16662     16663     16668     16672     16673
     16669     16668     16671     16669     16668     16670     16670     16668     16671
     16672     16668     16671     16672     16668     16670     16672     16668     16669
     16674     16678     16679     16675     16674     16677     16675     16674     16676
     16676     16674     16677     16678     16674     16677     16678     16674     16676
     16678     16674     16675     16680     16684     16685     16681     16680     16683
     16681     16680     16682     16682     16680     16683     16684     16680     16683
     16684     16680     16682     16684     16680     16681     16686     16690     16691
     16687     16686     16689     16687     16686     16688     16688     16686     16689
     16690     16686     16689     16690     16686     16688     16690     16686     16687
     16692     16696     16697     16693     16692     16695     16693     16692     16694
     16694     16692     16695     16696     16692     16695     16696     16692     16694
     16696     16692     16693     16698     16702     16703     16699     16698     16701
     16699     16698     16700     16700     16698     16701     16702     16698     16701
     16702     16698     16700     16702     16698     16699     16704     16708     16709
     16705     16704     16707     16705     16704     16706     16706     16704     16707
     16708     16704     16707     16708     16704     16706     16708     16704     16705
     16710     16714     16715     16711     16710     16713     16711     16710     16712
     16712     16710     16713     16714     16710     16713     16714     16710     16712
     16714     16710     16711     16716     16720     16721     16717     16716     16719
     16717     16716     16718     16718     16716     16719     16720     16716     16719
     16720     16716     16718     16720     16716     16717     16722     16726     16727
     16723     16722     16725     16723     16722     16724     16724     16722     16725
     16726     16722     16725     16726     16722     16724     16726     16722     16723
     16728     16732     16733     16729     16728     16731     16729     16728     16730
     16730     16728     16731     16732     16728     16731     16732     16728     16730
     16732     16728     16729     16734     16738     16739     16735     16734     16737
     16735     16734     16736     16736     16734     16737     16738     16734     16737
     16738     16734     16736     16738     16734     16735     16740     16744     16745
     16741     16740     16743     16741     16740     16742     16742     16740     16743
     16744     16740     16743     16744     16740     16742     16744     16740     16741
     16746     16750     16751     16747     16746     16749     16747     16746     16748
     16748     16746     16749     16750     16746     16749     16750     16746     16748
     16750     16746     16747     16752     16756     16757     16753     16752     16755
     16753     16752     16754     16754     16752     16755     16756     16752     16755
     16756     16752     16754     16756     16752     16753     16758     16762     16763
     16759     16758     16761     16759     16758     16760     16760     16758     16761
     16762     16758     16761     16762     16758     16760     16762     16758     16759
     16764     16768     16769     16765     16764     16767     16765     16764     16766
     16766     16764     16767     16768     16764     16767     16768     16764     16766
     16768     16764     16765     16770     16774     16775     16771     16770     16773
     16771     16770     16772     16772     16770     16773     16774     16770     16773
     16774     16770     16772     16774     16770     16771     16776     16780     16781
     16777     16776     16779     16777     16776     16778     16778     16776     16779
     16780     16776     16779     16780     16776     16778     16780     16776     16777
     16782     16786     16787     16783     16782     16785     16783     16782     16784
     16784     16782     16785     16786     16782     16785     16786     16782     16784
     16786     16782     16783     16788     16792     16793     16789     16788     16791
     16789     16788     16790     16790     16788     16791     16792     16788     16791
     16792     16788     16790     16792     16788     16789     16794     16798     16799
     16795     16794     16797     16795     16794     16796     16796     16794     16797
     16798     16794     16797     16798     16794     16796     16798     16794     16795
     16800     16804     16805     16801     16800     16803     16801     16800     16802
     16802     16800     16803     16804     16800     16803     16804     16800     16802
     16804     16800     16801     16806     16810     16811     16807     16806     16809
     16807     16806     16808     16808     16806     16809     16810     16806     16809
     16810     16806     16808     16810     16806     16807     16812     16816     16817
     16813     16812     16815     16813     16812     16814     16814     16812     16815
     16816     16812     16815     16816     16812     16814     16816     16812     16813
     16818     16822     16823     16819     16818     16821     16819     16818     16820
     16820     16818     16821     16822     16818     16821     16822     16818     16820
     16822     16818     16819     16824     16828     16829     16825     16824     16827
     16825     16824     16826     16826     16824     16827     16828     16824     16827
     16828     16824     16826     16828     16824     16825     16830     16834     16835
     16831     16830     16833     16831     16830     16832     16832     16830     16833
     16834     16830     16833     16834     16830     16832     16834     16830     16831
     16836     16840     16841     16837     16836     16839     16837     16836     16838
     16838     16836     16839     16840     16836     16839     16840     16836     16838
     16840     16836     16837     16842     16846     16847     16843     16842     16845
     16843     16842     16844     16844     16842     16845     16846     16842     16845
     16846     16842     16844     16846     16842     16843     16848     16852     16853
     16849     16848     16851     16849     16848     16850     16850     16848     16851
     16852     16848     16851     16852     16848     16850     16852     16848     16849
     16854     16858     16859     16855     16854     16857     16855     16854     16856
     16856     16854     16857     16858     16854     16857     16858     16854     16856
     16858     16854     16855     16860     16864     16865     16861     16860     16863
     16861     16860     16862     16862     16860     16863     16864     16860     16863
     16864     16860     16862     16864     16860     16861     16866     16870     16871
     16867     16866     16869     16867     16866     16868     16868     16866     16869
     16870     16866     16869     16870     16866     16868     16870     16866     16867
     16872     16876     16877     16873     16872     16875     16873     16872     16874
     16874     16872     16875     16876     16872     16875     16876     16872     16874
     16876     16872     16873     16878     16882     16883     16879     16878     16881
     16879     16878     16880     16880     16878     16881     16882     16878     16881
     16882     16878     16880     16882     16878     16879     16884     16888     16889
     16885     16884     16887     16885     16884     16886     16886     16884     16887
     16888     16884     16887     16888     16884     16886     16888     16884     16885
     16890     16894     16895     16891     16890     16893     16891     16890     16892
     16892     16890     16893     16894     16890     16893     16894     16890     16892
     16894     16890     16891     16896     16900     16901     16897     16896     16899
     16897     16896     16898     16898     16896     16899     16900     16896     16899
     16900     16896     16898     16900     16896     16897     16902     16906     16907
     16903     16902     16905     16903     16902     16904     16904     16902     16905
     16906     16902     16905     16906     16902     16904     16906     16902     16903
     16908     16912     16913     16909     16908     16911     16909     16908     16910
     16910     16908     16911     16912     16908     16911     16912     16908     16910
     16912     16908     16909     16914     16918     16919     16915     16914     16917
     16915     16914     16916     16916     16914     16917     16918     16914     16917
     16918     16914     16916     16918     16914     16915     16920     16924     16925
     16921     16920     16923     16921     16920     16922     16922     16920     16923
     16924     16920     16923     16924     16920     16922     16924     16920     16921
     16926     16930     16931     16927     16926     16929     16927     16926     16928
     16928     16926     16929     16930     16926     16929     16930     16926     16928
     16930     16926     16927     16932     16936     16937     16933     16932     16935
     16933     16932     16934     16934     16932     16935     16936     16932     16935
     16936     16932     16934     16936     16932     16933     16938     16942     16943
     16939     16938     16941     16939     16938     16940     16940     16938     16941
     16942     16938     16941     16942     16938     16940     16942     16938     16939
     16944     16948     16949     16945     16944     16947     16945     16944     16946
     16946     16944     16947     16948     16944     16947     16948     16944     16946
     16948     16944     16945     16950     16954     16955     16951     16950     16953
     16951     16950     16952     16952     16950     16953     16954     16950     16953
     16954     16950     16952     16954     16950     16951     16956     16960     16961
     16957     16956     16959     16957     16956     16958     16958     16956     16959
     16960     16956     16959     16960     16956     16958     16960     16956     16957
     16962     16966     16967     16963     16962     16965     16963     16962     16964
     16964     16962     16965     16966     16962     16965     16966     16962     16964
     16966     16962     16963     16968     16972     16973     16969     16968     16971
     16969     16968     16970     16970     16968     16971     16972     16968     16971
     16972     16968     16970     16972     16968     16969     16974     16978     16979
     16975     16974     16977     16975     16974     16976     16976     16974     16977
     16978     16974     16977     16978     16974     16976     16978     16974     16975
     16980     16984     16985     16981     16980     16983     16981     16980     16982
     16982     16980     16983     16984     16980     16983     16984     16980     16982
     16984     16980     16981     16986     16990     16991     16987     16986     16989
     16987     16986     16988     16988     16986     16989     16990     16986     16989
     16990     16986     16988     16990     16986     16987     16992     16996     16997
     16993     16992     16995     16993     16992     16994     16994     16992     16995
     16996     16992     16995     16996     16992     16994     16996     16992     16993
     16998     17002     17003     16999     16998     17001     16999     16998     17000
     17000     16998     17001     17002     16998     17001     17002     16998     17000
     17002     16998     16999     17004     17008     17009     17005     17004     17007
     17005     17004     17006     17006     17004     17007     17008     17004     17007
     17008     17004     17006     17008     17004     17005     17010     17014     17015
     17011     17010     17013     17011     17010     17012     17012     17010     17013
     17014     17010     17013     17014     17010     17012     17014     17010     17011
     17016     17020     17021     17017     17016     17019     17017     17016     17018
     17018     17016     17019     17020     17016     17019     17020     17016     17018
     17020     17016     17017     17022     17026     17027     17023     17022     17025
     17023     17022     17024     17024     17022     17025     17026     17022     17025
     17026     17022     17024     17026     17022     17023     17028     17032     17033
     17029     17028     17031     17029     17028     17030     17030     17028     17031
     17032     17028     17031     17032     17028     17030     17032     17028     17029
     17034     17038     17039     17035     17034     17037     17035     17034     17036
     17036     17034     17037     17038     17034     17037     17038     17034     17036
     17038     17034     17035     17040     17044     17045     17041     17040     17043
     17041     17040     17042     17042     17040     17043     17044     17040     17043
     17044     17040     17042     17044     17040     17041     17046     17050     17051
     17047     17046     17049     17047     17046     17048     17048     17046     17049
     17050     17046     17049     17050     17046     17048     17050     17046     17047
     17052     17056     17057     17053     17052     17055     17053     17052     17054
     17054     17052     17055     17056     17052     17055     17056     17052     17054
     17056     17052     17053     17058     17062     17063     17059     17058     17061
     17059     17058     17060     17060     17058     17061     17062     17058     17061
     17062     17058     17060     17062     17058     17059     17064     17068     17069
     17065     17064     17067     17065     17064     17066     17066     17064     17067
     17068     17064     17067     17068     17064     17066     17068     17064     17065
     17070     17074     17075     17071     17070     17073     17071     17070     17072
     17072     17070     17073     17074     17070     17073     17074     17070     17072
     17074     17070     17071     17076     17080     17081     17077     17076     17079
     17077     17076     17078     17078     17076     17079     17080     17076     17079
     17080     17076     17078     17080     17076     17077     17082     17086     17087
     17083     17082     17085     17083     17082     17084     17084     17082     17085
     17086     17082     17085     17086     17082     17084     17086     17082     17083
     17088     17092     17093     17089     17088     17091     17089     17088     17090
     17090     17088     17091     17092     17088     17091     17092     17088     17090
     17092     17088     17089     17094     17098     17099     17095     17094     17097
     17095     17094     17096     17096     17094     17097     17098     17094     17097
     17098     17094     17096     17098     17094     17095     17100     17104     17105
     17101     17100     17103     17101     17100     17102     17102     17100     17103
     17104     17100     17103     17104     17100     17102     17104     17100     17101
     17106     17110     17111     17107     17106     17109     17107     17106     17108
     17108     17106     17109     17110     17106     17109     17110     17106     17108
     17110     17106     17107     17112     17116     17117     17113     17112     17115
     17113     17112     17114     17114     17112     17115     17116     17112     17115
     17116     17112     17114     17116     17112     17113     17118     17122     17123
     17119     17118     17121     17119     17118     17120     17120     17118     17121
     17122     17118     17121     17122     17118     17120     17122     17118     17119
     17124     17128     17129     17125     17124     17127     17125     17124     17126
     17126     17124     17127     17128     17124     17127     17128     17124     17126
     17128     17124     17125     17130     17134     17135     17131     17130     17133
     17131     17130     17132     17132     17130     17133     17134     17130     17133
     17134     17130     17132     17134     17130     17131     17136     17140     17141
     17137     17136     17139     17137     17136     17138     17138     17136     17139
     17140     17136     17139     17140     17136     17138     17140     17136     17137
     17142     17146     17147     17143     17142     17145     17143     17142     17144
     17144     17142     17145     17146     17142     17145     17146     17142     17144
     17146     17142     17143     17148     17152     17153     17149     17148     17151
     17149     17148     17150     17150     17148     17151     17152     17148     17151
     17152     17148     17150     17152     17148     17149     17154     17158     17159
     17155     17154     17157     17155     17154     17156     17156     17154     17157
     17158     17154     17157     17158     17154     17156     17158     17154     17155
     17160     17164     17165     17161     17160     17163     17161     17160     17162
     17162     17160     17163     17164     17160     17163     17164     17160     17162
     17164     17160     17161     17166     17170     17171     17167     17166     17169
     17167     17166     17168     17168     17166     17169     17170     17166     17169
     17170     17166     17168     17170     17166     17167     17172     17176     17177
     17173     17172     17175     17173     17172     17174     17174     17172     17175
     17176     17172     17175     17176     17172     17174     17176     17172     17173
     17178     17182     17183     17179     17178     17181     17179     17178     17180
     17180     17178     17181     17182     17178     17181     17182     17178     17180
     17182     17178     17179     17184     17188     17189     17185     17184     17187
     17185     17184     17186     17186     17184     17187     17188     17184     17187
     17188     17184     17186     17188     17184     17185     17190     17194     17195
     17191     17190     17193     17191     17190     17192     17192     17190     17193
     17194     17190     17193     17194     17190     17192     17194     17190     17191
     17196     17200     17201     17197     17196     17199     17197     17196     17198
     17198     17196     17199     17200     17196     17199     17200     17196     17198
     17200     17196     17197     17202     17206     17207     17203     17202     17205
     17203     17202     17204     17204     17202     17205     17206     17202     17205
     17206     17202     17204     17206     17202     17203     17208     17212     17213
     17209     17208     17211     17209     17208     17210     17210     17208     17211
     17212     17208     17211     17212     17208     17210     17212     17208     17209
     17214     17218     17219     17215     17214     17217     17215     17214     17216
     17216     17214     17217     17218     17214     17217     17218     17214     17216
     17218     17214     17215     17220     17224     17225     17221     17220     17223
     17221     17220     17222     17222     17220     17223     17224     17220     17223
     17224     17220     17222     17224     17220     17221     17226     17230     17231
     17227     17226     17229     17227     17226     17228     17228     17226     17229
     17230     17226     17229     17230     17226     17228     17230     17226     17227
     17232     17236     17237     17233     17232     17235     17233     17232     17234
     17234     17232     17235     17236     17232     17235     17236     17232     17234
     17236     17232     17233     17238     17242     17243     17239     17238     17241
     17239     17238     17240     17240     17238     17241     17242     17238     17241
     17242     17238     17240     17242     17238     17239     17244     17248     17249
     17245     17244     17247     17245     17244     17246     17246     17244     17247
     17248     17244     17247     17248     17244     17246     17248     17244     17245
     17250     17254     17255     17251     17250     17253     17251     17250     17252
     17252     17250     17253     17254     17250     17253     17254     17250     17252
     17254     17250     17251     17256     17260     17261     17257     17256     17259
     17257     17256     17258     17258     17256     17259     17260     17256     17259
     17260     17256     17258     17260     17256     17257     17262     17266     17267
     17263     17262     17265     17263     17262     17264     17264     17262     17265
     17266     17262     17265     17266     17262     17264     17266     17262     17263
     17268     17272     17273     17269     17268     17271     17269     17268     17270
     17270     17268     17271     17272     17268     17271     17272     17268     17270
     17272     17268     17269     17274     17278     17279     17275     17274     17277
     17275     17274     17276     17276     17274     17277     17278     17274     17277
     17278     17274     17276     17278     17274     17275     17280     17284     17285
     17281     17280     17283     17281     17280     17282     17282     17280     17283
     17284     17280     17283     17284     17280     17282     17284     17280     17281
     17286     17290     17291     17287     17286     17289     17287     17286     17288
     17288     17286     17289     17290     17286     17289     17290     17286     17288
     17290     17286     17287     17292     17296     17297     17293     17292     17295
     17293     17292     17294     17294     17292     17295     17296     17292     17295
     17296     17292     17294     17296     17292     17293     17298     17302     17303
     17299     17298     17301     17299     17298     17300     17300     17298     17301
     17302     17298     17301     17302     17298     17300     17302     17298     17299
     17304     17308     17309     17305     17304     17307     17305     17304     17306
     17306     17304     17307     17308     17304     17307     17308     17304     17306
     17308     17304     17305     17310     17314     17315     17311     17310     17313
     17311     17310     17312     17312     17310     17313     17314     17310     17313
     17314     17310     17312     17314     17310     17311     17316     17320     17321
     17317     17316     17319     17317     17316     17318     17318     17316     17319
     17320     17316     17319     17320     17316     17318     17320     17316     17317
     17322     17326     17327     17323     17322     17325     17323     17322     17324
     17324     17322     17325     17326     17322     17325     17326     17322     17324
     17326     17322     17323     17328     17332     17333     17329     17328     17331
     17329     17328     17330     17330     17328     17331     17332     17328     17331
     17332     17328     17330     17332     17328     17329     17334     17338     17339
     17335     17334     17337     17335     17334     17336     17336     17334     17337
     17338     17334     17337     17338     17334     17336     17338     17334     17335
     17340     17344     17345     17341     17340     17343     17341     17340     17342
     17342     17340     17343     17344     17340     17343     17344     17340     17342
     17344     17340     17341     17346     17350     17351     17347     17346     17349
     17347     17346     17348     17348     17346     17349     17350     17346     17349
     17350     17346     17348     17350     17346     17347     17352     17356     17357
     17353     17352     17355     17353     17352     17354     17354     17352     17355
     17356     17352     17355     17356     17352     17354     17356     17352     17353
     17358     17362     17363     17359     17358     17361     17359     17358     17360
     17360     17358     17361     17362     17358     17361     17362     17358     17360
     17362     17358     17359     17364     17368     17369     17365     17364     17367
     17365     17364     17366     17366     17364     17367     17368     17364     17367
     17368     17364     17366     17368     17364     17365     17370     17374     17375
     17371     17370     17373     17371     17370     17372     17372     17370     17373
     17374     17370     17373     17374     17370     17372     17374     17370     17371
     17376     17380     17381     17377     17376     17379     17377     17376     17378
     17378     17376     17379     17380     17376     17379     17380     17376     17378
     17380     17376     17377     17382     17386     17387     17383     17382     17385
     17383     17382     17384     17384     17382     17385     17386     17382     17385
     17386     17382     17384     17386     17382     17383     17388     17392     17393
     17389     17388     17391     17389     17388     17390     17390     17388     17391
     17392     17388     17391     17392     17388     17390     17392     17388     17389
     17394     17398     17399     17395     17394     17397     17395     17394     17396
     17396     17394     17397     17398     17394     17397     17398     17394     17396
     17398     17394     17395     17400     17404     17405     17401     17400     17403
     17401     17400     17402     17402     17400     17403     17404     17400     17403
     17404     17400     17402     17404     17400     17401     17406     17410     17411
     17407     17406     17409     17407     17406     17408     17408     17406     17409
     17410     17406     17409     17410     17406     17408     17410     17406     17407
     17412     17416     17417     17413     17412     17415     17413     17412     17414
     17414     17412     17415     17416     17412     17415     17416     17412     17414
     17416     17412     17413     17418     17422     17423     17419     17418     17421
     17419     17418     17420     17420     17418     17421     17422     17418     17421
     17422     17418     17420     17422     17418     17419     17424     17428     17429
     17425     17424     17427     17425     17424     17426     17426     17424     17427
     17428     17424     17427     17428     17424     17426     17428     17424     17425
     17430     17434     17435     17431     17430     17433     17431     17430     17432
     17432     17430     17433     17434     17430     17433     17434     17430     17432
     17434     17430     17431     17436     17440     17441     17437     17436     17439
     17437     17436     17438     17438     17436     17439     17440     17436     17439
     17440     17436     17438     17440     17436     17437     17442     17446     17447
     17443     17442     17445     17443     17442     17444     17444     17442     17445
     17446     17442     17445     17446     17442     17444     17446     17442     17443
     17448     17452     17453     17449     17448     17451     17449     17448     17450
     17450     17448     17451     17452     17448     17451     17452     17448     17450
     17452     17448     17449     17454     17458     17459     17455     17454     17457
     17455     17454     17456     17456     17454     17457     17458     17454     17457
     17458     17454     17456     17458     17454     17455     17460     17464     17465
     17461     17460     17463     17461     17460     17462     17462     17460     17463
     17464     17460     17463     17464     17460     17462     17464     17460     17461
     17466     17470     17471     17467     17466     17469     17467     17466     17468
     17468     17466     17469     17470     17466     17469     17470     17466     17468
     17470     17466     17467     17472     17476     17477     17473     17472     17475
     17473     17472     17474     17474     17472     17475     17476     17472     17475
     17476     17472     17474     17476     17472     17473     17478     17482     17483
     17479     17478     17481     17479     17478     17480     17480     17478     17481
     17482     17478     17481     17482     17478     17480     17482     17478     17479
     17484     17488     17489     17485     17484     17487     17485     17484     17486
     17486     17484     17487     17488     17484     17487     17488     17484     17486
     17488     17484     17485     17490     17494     17495     17491     17490     17493
     17491     17490     17492     17492     17490     17493     17494     17490     17493
     17494     17490     17492     17494     17490     17491     17496     17500     17501
     17497     17496     17499     17497     17496     17498     17498     17496     17499
     17500     17496     17499     17500     17496     17498     17500     17496     17497
     17502     17506     17507     17503     17502     17505     17503     17502     17504
     17504     17502     17505     17506     17502     17505     17506     17502     17504
     17506     17502     17503     17508     17512     17513     17509     17508     17511
     17509     17508     17510     17510     17508     17511     17512     17508     17511
     17512     17508     17510     17512     17508     17509     17514     17518     17519
     17515     17514     17517     17515     17514     17516     17516     17514     17517
     17518     17514     17517     17518     17514     17516     17518     17514     17515
     17520     17524     17525     17521     17520     17523     17521     17520     17522
     17522     17520     17523     17524     17520     17523     17524     17520     17522
     17524     17520     17521     17526     17530     17531     17527     17526     17529
     17527     17526     17528     17528     17526     17529     17530     17526     17529
     17530     17526     17528     17530     17526     17527     17532     17536     17537
     17533     17532     17535     17533     17532     17534     17534     17532     17535
     17536     17532     17535     17536     17532     17534     17536     17532     17533
     17538     17542     17543     17539     17538     17541     17539     17538     17540
     17540     17538     17541     17542     17538     17541     17542     17538     17540
     17542     17538     17539     17544     17548     17549     17545     17544     17547
     17545     17544     17546     17546     17544     17547     17548     17544     17547
     17548     17544     17546     17548     17544     17545     17550     17554     17555
     17551     17550     17553     17551     17550     17552     17552     17550     17553
     17554     17550     17553     17554     17550     17552     17554     17550     17551
     17556     17560     17561     17557     17556     17559     17557     17556     17558
     17558     17556     17559     17560     17556     17559     17560     17556     17558
     17560     17556     17557     17562     17566     17567     17563     17562     17565
     17563     17562     17564     17564     17562     17565     17566     17562     17565
     17566     17562     17564     17566     17562     17563     17568     17572     17573
     17569     17568     17571     17569     17568     17570     17570     17568     17571
     17572     17568     17571     17572     17568     17570     17572     17568     17569
     17574     17578     17579     17575     17574     17577     17575     17574     17576
     17576     17574     17577     17578     17574     17577     17578     17574     17576
     17578     17574     17575     17580     17584     17585     17581     17580     17583
     17581     17580     17582     17582     17580     17583     17584     17580     17583
     17584     17580     17582     17584     17580     17581     17586     17590     17591
     17587     17586     17589     17587     17586     17588     17588     17586     17589
     17590     17586     17589     17590     17586     17588     17590     17586     17587
     17592     17596     17597     17593     17592     17595     17593     17592     17594
     17594     17592     17595     17596     17592     17595     17596     17592     17594
     17596     17592     17593     17598     17602     17603     17599     17598     17601
     17599     17598     17600     17600     17598     17601     17602     17598     17601
     17602     17598     17600     17602     17598     17599     17604     17608     17609
     17605     17604     17607     17605     17604     17606     17606     17604     17607
     17608     17604     17607     17608     17604     17606     17608     17604     17605
     17610     17614     17615     17611     17610     17613     17611     17610     17612
     17612     17610     17613     17614     17610     17613     17614     17610     17612
     17614     17610     17611     17616     17620     17621     17617     17616     17619
     17617     17616     17618     17618     17616     17619     17620     17616     17619
     17620     17616     17618     17620     17616     17617     17622     17626     17627
     17623     17622     17625     17623     17622     17624     17624     17622     17625
     17626     17622     17625     17626     17622     17624     17626     17622     17623
     17628     17632     17633     17629     17628     17631     17629     17628     17630
     17630     17628     17631     17632     17628     17631     17632     17628     17630
     17632     17628     17629     17634     17638     17639     17635     17634     17637
     17635     17634     17636     17636     17634     17637     17638     17634     17637
     17638     17634     17636     17638     17634     17635     17640     17644     17645
     17641     17640     17643     17641     17640     17642     17642     17640     17643
     17644     17640     17643     17644     17640     17642     17644     17640     17641
     17646     17650     17651     17647     17646     17649     17647     17646     17648
     17648     17646     17649     17650     17646     17649     17650     17646     17648
     17650     17646     17647     17652     17656     17657     17653     17652     17655
     17653     17652     17654     17654     17652     17655     17656     17652     17655
     17656     17652     17654     17656     17652     17653     17658     17662     17663
     17659     17658     17661     17659     17658     17660     17660     17658     17661
     17662     17658     17661     17662     17658     17660     17662     17658     17659
     17664     17668     17669     17665     17664     17667     17665     17664     17666
     17666     17664     17667     17668     17664     17667     17668     17664     17666
     17668     17664     17665     17670     17674     17675     17671     17670     17673
     17671     17670     17672     17672     17670     17673     17674     17670     17673
     17674     17670     17672     17674     17670     17671     17676     17680     17681
     17677     17676     17679     17677     17676     17678     17678     17676     17679
     17680     17676     17679     17680     17676     17678     17680     17676     17677
     17682     17686     17687     17683     17682     17685     17683     17682     17684
     17684     17682     17685     17686     17682     17685     17686     17682     17684
     17686     17682     17683     17688     17692     17693     17689     17688     17691
     17689     17688     17690     17690     17688     17691     17692     17688     17691
     17692     17688     17690     17692     17688     17689     17694     17698     17699
     17695     17694     17697     17695     17694     17696     17696     17694     17697
     17698     17694     17697     17698     17694     17696     17698     17694     17695
     17700     17704     17705     17701     17700     17703     17701     17700     17702
     17702     17700     17703     17704     17700     17703     17704     17700     17702
     17704     17700     17701     17706     17710     17711     17707     17706     17709
     17707     17706     17708     17708     17706     17709     17710     17706     17709
     17710     17706     17708     17710     17706     17707     17712     17716     17717
     17713     17712     17715     17713     17712     17714     17714     17712     17715
     17716     17712     17715     17716     17712     17714     17716     17712     17713
     17718     17722     17723     17719     17718     17721     17719     17718     17720
     17720     17718     17721     17722     17718     17721     17722     17718     17720
     17722     17718     17719     17724     17728     17729     17725     17724     17727
     17725     17724     17726     17726     17724     17727     17728     17724     17727
     17728     17724     17726     17728     17724     17725     17730     17734     17735
     17731     17730     17733     17731     17730     17732     17732     17730     17733
     17734     17730     17733     17734     17730     17732     17734     17730     17731
     17736     17740     17741     17737     17736     17739     17737     17736     17738
     17738     17736     17739     17740     17736     17739     17740     17736     17738
     17740     17736     17737     17742     17746     17747     17743     17742     17745
     17743     17742     17744     17744     17742     17745     17746     17742     17745
     17746     17742     17744     17746     17742     17743     17748     17752     17753
     17749     17748     17751     17749     17748     17750     17750     17748     17751
     17752     17748     17751     17752     17748     17750     17752     17748     17749
     17754     17758     17759     17755     17754     17757     17755     17754     17756
     17756     17754     17757     17758     17754     17757     17758     17754     17756
     17758     17754     17755     17760     17764     17765     17761     17760     17763
     17761     17760     17762     17762     17760     17763     17764     17760     17763
     17764     17760     17762     17764     17760     17761     17766     17770     17771
     17767     17766     17769     17767     17766     17768     17768     17766     17769
     17770     17766     17769     17770     17766     17768     17770     17766     17767
     17772     17776     17777     17773     17772     17775     17773     17772     17774
     17774     17772     17775     17776     17772     17775     17776     17772     17774
     17776     17772     17773     17778     17782     17783     17779     17778     17781
     17779     17778     17780     17780     17778     17781     17782     17778     17781
     17782     17778     17780     17782     17778     17779     17784     17788     17789
     17785     17784     17787     17785     17784     17786     17786     17784     17787
     17788     17784     17787     17788     17784     17786     17788     17784     17785
     17790     17794     17795     17791     17790     17793     17791     17790     17792
     17792     17790     17793     17794     17790     17793     17794     17790     17792
     17794     17790     17791     17796     17800     17801     17797     17796     17799
     17797     17796     17798     17798     17796     17799     17800     17796     17799
     17800     17796     17798     17800     17796     17797     17802     17806     17807
     17803     17802     17805     17803     17802     17804     17804     17802     17805
     17806     17802     17805     17806     17802     17804     17806     17802     17803
     17808     17812     17813     17809     17808     17811     17809     17808     17810
     17810     17808     17811     17812     17808     17811     17812     17808     17810
     17812     17808     17809     17814     17818     17819     17815     17814     17817
     17815     17814     17816     17816     17814     17817     17818     17814     17817
     17818     17814     17816     17818     17814     17815     17820     17824     17825
     17821     17820     17823     17821     17820     17822     17822     17820     17823
     17824     17820     17823     17824     17820     17822     17824     17820     17821
     17826     17830     17831     17827     17826     17829     17827     17826     17828
     17828     17826     17829     17830     17826     17829     17830     17826     17828
     17830     17826     17827     17832     17836     17837     17833     17832     17835
     17833     17832     17834     17834     17832     17835     17836     17832     17835
     17836     17832     17834     17836     17832     17833     17838     17842     17843
     17839     17838     17841     17839     17838     17840     17840     17838     17841
     17842     17838     17841     17842     17838     17840     17842     17838     17839
     17844     17848     17849     17845     17844     17847     17845     17844     17846
     17846     17844     17847     17848     17844     17847     17848     17844     17846
     17848     17844     17845     17850     17854     17855     17851     17850     17853
     17851     17850     17852     17852     17850     17853     17854     17850     17853
     17854     17850     17852     17854     17850     17851     17856     17860     17861
     17857     17856     17859     17857     17856     17858     17858     17856     17859
     17860     17856     17859     17860     17856     17858     17860     17856     17857
     17862     17866     17867     17863     17862     17865     17863     17862     17864
     17864     17862     17865     17866     17862     17865     17866     17862     17864
     17866     17862     17863     17868     17872     17873     17869     17868     17871
     17869     17868     17870     17870     17868     17871     17872     17868     17871
     17872     17868     17870     17872     17868     17869     17874     17878     17879
     17875     17874     17877     17875     17874     17876     17876     17874     17877
     17878     17874     17877     17878     17874     17876     17878     17874     17875
     17880     17884     17885     17881     17880     17883     17881     17880     17882
     17882     17880     17883     17884     17880     17883     17884     17880     17882
     17884     17880     17881     17886     17890     17891     17887     17886     17889
     17887     17886     17888     17888     17886     17889     17890     17886     17889
     17890     17886     17888     17890     17886     17887     17892     17896     17897
     17893     17892     17895     17893     17892     17894     17894     17892     17895
     17896     17892     17895     17896     17892     17894     17896     17892     17893
     17898     17902     17903     17899     17898     17901     17899     17898     17900
     17900     17898     17901     17902     17898     17901     17902     17898     17900
     17902     17898     17899     17904     17908     17909     17905     17904     17907
     17905     17904     17906     17906     17904     17907     17908     17904     17907
     17908     17904     17906     17908     17904     17905     17910     17914     17915
     17911     17910     17913     17911     17910     17912     17912     17910     17913
     17914     17910     17913     17914     17910     17912     17914     17910     17911
     17916     17920     17921     17917     17916     17919     17917     17916     17918
     17918     17916     17919     17920     17916     17919     17920     17916     17918
     17920     17916     17917     17922     17926     17927     17923     17922     17925
     17923     17922     17924     17924     17922     17925     17926     17922     17925
     17926     17922     17924     17926     17922     17923     17928     17932     17933
     17929     17928     17931     17929     17928     17930     17930     17928     17931
     17932     17928     17931     17932     17928     17930     17932     17928     17929
     17934     17938     17939     17935     17934     17937     17935     17934     17936
     17936     17934     17937     17938     17934     17937     17938     17934     17936
     17938     17934     17935     17940     17944     17945     17941     17940     17943
     17941     17940     17942     17942     17940     17943     17944     17940     17943
     17944     17940     17942     17944     17940     17941     17946     17950     17951
     17947     17946     17949     17947     17946     17948     17948     17946     17949
     17950     17946     17949     17950     17946     17948     17950     17946     17947
     17952     17956     17957     17953     17952     17955     17953     17952     17954
     17954     17952     17955     17956     17952     17955     17956     17952     17954
     17956     17952     17953     17958     17962     17963     17959     17958     17961
     17959     17958     17960     17960     17958     17961     17962     17958     17961
     17962     17958     17960     17962     17958     17959     17964     17968     17969
     17965     17964     17967     17965     17964     17966     17966     17964     17967
     17968     17964     17967     17968     17964     17966     17968     17964     17965
     17970     17974     17975     17971     17970     17973     17971     17970     17972
     17972     17970     17973     17974     17970     17973     17974     17970     17972
     17974     17970     17971     17976     17980     17981     17977     17976     17979
     17977     17976     17978     17978     17976     17979     17980     17976     17979
     17980     17976     17978     17980     17976     17977     17982     17986     17987
     17983     17982     17985     17983     17982     17984     17984     17982     17985
     17986     17982     17985     17986     17982     17984     17986     17982     17983
     17988     17992     17993     17989     17988     17991     17989     17988     17990
     17990     17988     17991     17992     17988     17991     17992     17988     17990
     17992     17988     17989     17994     17998     17999     17995     17994     17997
     17995     17994     17996     17996     17994     17997     17998     17994     17997
     17998     17994     17996     17998     17994     17995     18000     18004     18005
     18001     18000     18003     18001     18000     18002     18002     18000     18003
     18004     18000     18003     18004     18000     18002     18004     18000     18001
     18006     18010     18011     18007     18006     18009     18007     18006     18008
     18008     18006     18009     18010     18006     18009     18010     18006     18008
     18010     18006     18007     18012     18016     18017     18013     18012     18015
     18013     18012     18014     18014     18012     18015     18016     18012     18015
     18016     18012     18014     18016     18012     18013     18018     18022     18023
     18019     18018     18021     18019     18018     18020     18020     18018     18021
     18022     18018     18021     18022     18018     18020     18022     18018     18019
     18024     18028     18029     18025     18024     18027     18025     18024     18026
     18026     18024     18027     18028     18024     18027     18028     18024     18026
     18028     18024     18025     18030     18034     18035     18031     18030     18033
     18031     18030     18032     18032     18030     18033     18034     18030     18033
     18034     18030     18032     18034     18030     18031     18036     18040     18041
     18037     18036     18039     18037     18036     18038     18038     18036     18039
     18040     18036     18039     18040     18036     18038     18040     18036     18037
     18042     18046     18047     18043     18042     18045     18043     18042     18044
     18044     18042     18045     18046     18042     18045     18046     18042     18044
     18046     18042     18043     18048     18052     18053     18049     18048     18051
     18049     18048     18050     18050     18048     18051     18052     18048     18051
     18052     18048     18050     18052     18048     18049     18054     18058     18059
     18055     18054     18057     18055     18054     18056     18056     18054     18057
     18058     18054     18057     18058     18054     18056     18058     18054     18055
     18060     18064     18065     18061     18060     18063     18061     18060     18062
     18062     18060     18063     18064     18060     18063     18064     18060     18062
     18064     18060     18061     18066     18070     18071     18067     18066     18069
     18067     18066     18068     18068     18066     18069     18070     18066     18069
     18070     18066     18068     18070     18066     18067     18072     18076     18077
     18073     18072     18075     18073     18072     18074     18074     18072     18075
     18076     18072     18075     18076     18072     18074     18076     18072     18073
     18078     18082     18083     18079     18078     18081     18079     18078     18080
     18080     18078     18081     18082     18078     18081     18082     18078     18080
     18082     18078     18079     18084     18088     18089     18085     18084     18087
     18085     18084     18086     18086     18084     18087     18088     18084     18087
     18088     18084     18086     18088     18084     18085     18090     18094     18095
     18091     18090     18093     18091     18090     18092     18092     18090     18093
     18094     18090     18093     18094     18090     18092     18094     18090     18091
     18096     18100     18101     18097     18096     18099     18097     18096     18098
     18098     18096     18099     18100     18096     18099     18100     18096     18098
     18100     18096     18097     18102     18106     18107     18103     18102     18105
     18103     18102     18104     18104     18102     18105     18106     18102     18105
     18106     18102     18104     18106     18102     18103     18108     18112     18113
     18109     18108     18111     18109     18108     18110     18110     18108     18111
     18112     18108     18111     18112     18108     18110     18112     18108     18109
     18114     18118     18119     18115     18114     18117     18115     18114     18116
     18116     18114     18117     18118     18114     18117     18118     18114     18116
     18118     18114     18115     18120     18124     18125     18121     18120     18123
     18121     18120     18122     18122     18120     18123     18124     18120     18123
     18124     18120     18122     18124     18120     18121     18126     18130     18131
     18127     18126     18129     18127     18126     18128     18128     18126     18129
     18130     18126     18129     18130     18126     18128     18130     18126     18127
     18132     18136     18137     18133     18132     18135     18133     18132     18134
     18134     18132     18135     18136     18132     18135     18136     18132     18134
     18136     18132     18133     18138     18142     18143     18139     18138     18141
     18139     18138     18140     18140     18138     18141     18142     18138     18141
     18142     18138     18140     18142     18138     18139     18144     18148     18149
     18145     18144     18147     18145     18144     18146     18146     18144     18147
     18148     18144     18147     18148     18144     18146     18148     18144     18145
     18150     18154     18155     18151     18150     18153     18151     18150     18152
     18152     18150     18153     18154     18150     18153     18154     18150     18152
     18154     18150     18151     18156     18160     18161     18157     18156     18159
     18157     18156     18158     18158     18156     18159     18160     18156     18159
     18160     18156     18158     18160     18156     18157     18162     18166     18167
     18163     18162     18165     18163     18162     18164     18164     18162     18165
     18166     18162     18165     18166     18162     18164     18166     18162     18163
     18168     18172     18173     18169     18168     18171     18169     18168     18170
     18170     18168     18171     18172     18168     18171     18172     18168     18170
     18172     18168     18169     18174     18178     18179     18175     18174     18177
     18175     18174     18176     18176     18174     18177     18178     18174     18177
     18178     18174     18176     18178     18174     18175     18180     18184     18185
     18181     18180     18183     18181     18180     18182     18182     18180     18183
     18184     18180     18183     18184     18180     18182     18184     18180     18181
     18186     18190     18191     18187     18186     18189     18187     18186     18188
     18188     18186     18189     18190     18186     18189     18190     18186     18188
     18190     18186     18187     18192     18196     18197     18193     18192     18195
     18193     18192     18194     18194     18192     18195     18196     18192     18195
     18196     18192     18194     18196     18192     18193     18198     18202     18203
     18199     18198     18201     18199     18198     18200     18200     18198     18201
     18202     18198     18201     18202     18198     18200     18202     18198     18199
     18204     18208     18209     18205     18204     18207     18205     18204     18206
     18206     18204     18207     18208     18204     18207     18208     18204     18206
     18208     18204     18205     18210     18214     18215     18211     18210     18213
     18211     18210     18212     18212     18210     18213     18214     18210     18213
     18214     18210     18212     18214     18210     18211     18216     18220     18221
     18217     18216     18219     18217     18216     18218     18218     18216     18219
     18220     18216     18219     18220     18216     18218     18220     18216     18217
     18222     18226     18227     18223     18222     18225     18223     18222     18224
     18224     18222     18225     18226     18222     18225     18226     18222     18224
     18226     18222     18223     18228     18232     18233     18229     18228     18231
     18229     18228     18230     18230     18228     18231     18232     18228     18231
     18232     18228     18230     18232     18228     18229     18234     18238     18239
     18235     18234     18237     18235     18234     18236     18236     18234     18237
     18238     18234     18237     18238     18234     18236     18238     18234     18235
     18240     18244     18245     18241     18240     18243     18241     18240     18242
     18242     18240     18243     18244     18240     18243     18244     18240     18242
     18244     18240     18241     18246     18250     18251     18247     18246     18249
     18247     18246     18248     18248     18246     18249     18250     18246     18249
     18250     18246     18248     18250     18246     18247     18252     18256     18257
     18253     18252     18255     18253     18252     18254     18254     18252     18255
     18256     18252     18255     18256     18252     18254     18256     18252     18253
     18258     18262     18263     18259     18258     18261     18259     18258     18260
     18260     18258     18261     18262     18258     18261     18262     18258     18260
     18262     18258     18259     18264     18268     18269     18265     18264     18267
     18265     18264     18266     18266     18264     18267     18268     18264     18267
     18268     18264     18266     18268     18264     18265     18270     18274     18275
     18271     18270     18273     18271     18270     18272     18272     18270     18273
     18274     18270     18273     18274     18270     18272     18274     18270     18271
     18276     18280     18281     18277     18276     18279     18277     18276     18278
     18278     18276     18279     18280     18276     18279     18280     18276     18278
     18280     18276     18277     18282     18286     18287     18283     18282     18285
     18283     18282     18284     18284     18282     18285     18286     18282     18285
     18286     18282     18284     18286     18282     18283     18288     18292     18293
     18289     18288     18291     18289     18288     18290     18290     18288     18291
     18292     18288     18291     18292     18288     18290     18292     18288     18289
     18294     18298     18299     18295     18294     18297     18295     18294     18296
     18296     18294     18297     18298     18294     18297     18298     18294     18296
     18298     18294     18295     18300     18304     18305     18301     18300     18303
     18301     18300     18302     18302     18300     18303     18304     18300     18303
     18304     18300     18302     18304     18300     18301     18306     18310     18311
     18307     18306     18309     18307     18306     18308     18308     18306     18309
     18310     18306     18309     18310     18306     18308     18310     18306     18307
     18312     18316     18317     18313     18312     18315     18313     18312     18314
     18314     18312     18315     18316     18312     18315     18316     18312     18314
     18316     18312     18313     18318     18322     18323     18319     18318     18321
     18319     18318     18320     18320     18318     18321     18322     18318     18321
     18322     18318     18320     18322     18318     18319     18324     18328     18329
     18325     18324     18327     18325     18324     18326     18326     18324     18327
     18328     18324     18327     18328     18324     18326     18328     18324     18325
     18330     18334     18335     18331     18330     18333     18331     18330     18332
     18332     18330     18333     18334     18330     18333     18334     18330     18332
     18334     18330     18331     18336     18340     18341     18337     18336     18339
     18337     18336     18338     18338     18336     18339     18340     18336     18339
     18340     18336     18338     18340     18336     18337     18342     18346     18347
     18343     18342     18345     18343     18342     18344     18344     18342     18345
     18346     18342     18345     18346     18342     18344     18346     18342     18343
     18348     18352     18353     18349     18348     18351     18349     18348     18350
     18350     18348     18351     18352     18348     18351     18352     18348     18350
     18352     18348     18349     18354     18358     18359     18355     18354     18357
     18355     18354     18356     18356     18354     18357     18358     18354     18357
     18358     18354     18356     18358     18354     18355     18360     18364     18365
     18361     18360     18363     18361     18360     18362     18362     18360     18363
     18364     18360     18363     18364     18360     18362     18364     18360     18361
     18366     18370     18371     18367     18366     18369     18367     18366     18368
     18368     18366     18369     18370     18366     18369     18370     18366     18368
     18370     18366     18367     18372     18376     18377     18373     18372     18375
     18373     18372     18374     18374     18372     18375     18376     18372     18375
     18376     18372     18374     18376     18372     18373     18378     18382     18383
     18379     18378     18381     18379     18378     18380     18380     18378     18381
     18382     18378     18381     18382     18378     18380     18382     18378     18379
     18384     18388     18389     18385     18384     18387     18385     18384     18386
     18386     18384     18387     18388     18384     18387     18388     18384     18386
     18388     18384     18385     18390     18394     18395     18391     18390     18393
     18391     18390     18392     18392     18390     18393     18394     18390     18393
     18394     18390     18392     18394     18390     18391     18396     18400     18401
     18397     18396     18399     18397     18396     18398     18398     18396     18399
     18400     18396     18399     18400     18396     18398     18400     18396     18397
     18402     18406     18407     18403     18402     18405     18403     18402     18404
     18404     18402     18405     18406     18402     18405     18406     18402     18404
     18406     18402     18403     18408     18412     18413     18409     18408     18411
     18409     18408     18410     18410     18408     18411     18412     18408     18411
     18412     18408     18410     18412     18408     18409     18414     18418     18419
     18415     18414     18417     18415     18414     18416     18416     18414     18417
     18418     18414     18417     18418     18414     18416     18418     18414     18415
     18420     18424     18425     18421     18420     18423     18421     18420     18422
     18422     18420     18423     18424     18420     18423     18424     18420     18422
     18424     18420     18421     18426     18430     18431     18427     18426     18429
     18427     18426     18428     18428     18426     18429     18430     18426     18429
     18430     18426     18428     18430     18426     18427     18432     18436     18437
     18433     18432     18435     18433     18432     18434     18434     18432     18435
     18436     18432     18435     18436     18432     18434     18436     18432     18433
     18438     18442     18443     18439     18438     18441     18439     18438     18440
     18440     18438     18441     18442     18438     18441     18442     18438     18440
     18442     18438     18439     18444     18448     18449     18445     18444     18447
     18445     18444     18446     18446     18444     18447     18448     18444     18447
     18448     18444     18446     18448     18444     18445     18450     18454     18455
     18451     18450     18453     18451     18450     18452     18452     18450     18453
     18454     18450     18453     18454     18450     18452     18454     18450     18451
     18456     18460     18461     18457     18456     18459     18457     18456     18458
     18458     18456     18459     18460     18456     18459     18460     18456     18458
     18460     18456     18457     18462     18466     18467     18463     18462     18465
     18463     18462     18464     18464     18462     18465     18466     18462     18465
     18466     18462     18464     18466     18462     18463     18468     18472     18473
     18469     18468     18471     18469     18468     18470     18470     18468     18471
     18472     18468     18471     18472     18468     18470     18472     18468     18469
     18474     18478     18479     18475     18474     18477     18475     18474     18476
     18476     18474     18477     18478     18474     18477     18478     18474     18476
     18478     18474     18475     18480     18484     18485     18481     18480     18483
     18481     18480     18482     18482     18480     18483     18484     18480     18483
     18484     18480     18482     18484     18480     18481     18486     18490     18491
     18487     18486     18489     18487     18486     18488     18488     18486     18489
     18490     18486     18489     18490     18486     18488     18490     18486     18487
     18492     18496     18497     18493     18492     18495     18493     18492     18494
     18494     18492     18495     18496     18492     18495     18496     18492     18494
     18496     18492     18493     18498     18502     18503     18499     18498     18501
     18499     18498     18500     18500     18498     18501     18502     18498     18501
     18502     18498     18500     18502     18498     18499     18504     18508     18509
     18505     18504     18507     18505     18504     18506     18506     18504     18507
     18508     18504     18507     18508     18504     18506     18508     18504     18505
     18510     18514     18515     18511     18510     18513     18511     18510     18512
     18512     18510     18513     18514     18510     18513     18514     18510     18512
     18514     18510     18511     18516     18520     18521     18517     18516     18519
     18517     18516     18518     18518     18516     18519     18520     18516     18519
     18520     18516     18518     18520     18516     18517     18522     18526     18527
     18523     18522     18525     18523     18522     18524     18524     18522     18525
     18526     18522     18525     18526     18522     18524     18526     18522     18523
     18528     18532     18533     18529     18528     18531     18529     18528     18530
     18530     18528     18531     18532     18528     18531     18532     18528     18530
     18532     18528     18529     18534     18538     18539     18535     18534     18537
     18535     18534     18536     18536     18534     18537     18538     18534     18537
     18538     18534     18536     18538     18534     18535     18540     18544     18545
     18541     18540     18543     18541     18540     18542     18542     18540     18543
     18544     18540     18543     18544     18540     18542     18544     18540     18541
     18546     18550     18551     18547     18546     18549     18547     18546     18548
     18548     18546     18549     18550     18546     18549     18550     18546     18548
     18550     18546     18547     18552     18556     18557     18553     18552     18555
     18553     18552     18554     18554     18552     18555     18556     18552     18555
     18556     18552     18554     18556     18552     18553     18558     18562     18563
     18559     18558     18561     18559     18558     18560     18560     18558     18561
     18562     18558     18561     18562     18558     18560     18562     18558     18559
     18564     18568     18569     18565     18564     18567     18565     18564     18566
     18566     18564     18567     18568     18564     18567     18568     18564     18566
     18568     18564     18565     18570     18574     18575     18571     18570     18573
     18571     18570     18572     18572     18570     18573     18574     18570     18573
     18574     18570     18572     18574     18570     18571     18576     18580     18581
     18577     18576     18579     18577     18576     18578     18578     18576     18579
     18580     18576     18579     18580     18576     18578     18580     18576     18577
     18582     18586     18587     18583     18582     18585     18583     18582     18584
     18584     18582     18585     18586     18582     18585     18586     18582     18584
     18586     18582     18583     18588     18592     18593     18589     18588     18591
     18589     18588     18590     18590     18588     18591     18592     18588     18591
     18592     18588     18590     18592     18588     18589     18594     18598     18599
     18595     18594     18597     18595     18594     18596     18596     18594     18597
     18598     18594     18597     18598     18594     18596     18598     18594     18595
     18600     18604     18605     18601     18600     18603     18601     18600     18602
     18602     18600     18603     18604     18600     18603     18604     18600     18602
     18604     18600     18601     18606     18610     18611     18607     18606     18609
     18607     18606     18608     18608     18606     18609     18610     18606     18609
     18610     18606     18608     18610     18606     18607     18612     18616     18617
     18613     18612     18615     18613     18612     18614     18614     18612     18615
     18616     18612     18615     18616     18612     18614     18616     18612     18613
     18618     18622     18623     18619     18618     18621     18619     18618     18620
     18620     18618     18621     18622     18618     18621     18622     18618     18620
     18622     18618     18619     18624     18628     18629     18625     18624     18627
     18625     18624     18626     18626     18624     18627     18628     18624     18627
     18628     18624     18626     18628     18624     18625     18630     18634     18635
     18631     18630     18633     18631     18630     18632     18632     18630     18633
     18634     18630     18633     18634     18630     18632     18634     18630     18631
     18636     18640     18641     18637     18636     18639     18637     18636     18638
     18638     18636     18639     18640     18636     18639     18640     18636     18638
     18640     18636     18637     18642     18646     18647     18643     18642     18645
     18643     18642     18644     18644     18642     18645     18646     18642     18645
     18646     18642     18644     18646     18642     18643     18648     18652     18653
     18649     18648     18651     18649     18648     18650     18650     18648     18651
     18652     18648     18651     18652     18648     18650     18652     18648     18649
     18654     18658     18659     18655     18654     18657     18655     18654     18656
     18656     18654     18657     18658     18654     18657     18658     18654     18656
     18658     18654     18655     18660     18664     18665     18661     18660     18663
     18661     18660     18662     18662     18660     18663     18664     18660     18663
     18664     18660     18662     18664     18660     18661     18666     18670     18671
     18667     18666     18669     18667     18666     18668     18668     18666     18669
     18670     18666     18669     18670     18666     18668     18670     18666     18667
     18672     18676     18677     18673     18672     18675     18673     18672     18674
     18674     18672     18675     18676     18672     18675     18676     18672     18674
     18676     18672     18673     18678     18682     18683     18679     18678     18681
     18679     18678     18680     18680     18678     18681     18682     18678     18681
     18682     18678     18680     18682     18678     18679     18684     18688     18689
     18685     18684     18687     18685     18684     18686     18686     18684     18687
     18688     18684     18687     18688     18684     18686     18688     18684     18685
     18690     18694     18695     18691     18690     18693     18691     18690     18692
     18692     18690     18693     18694     18690     18693     18694     18690     18692
     18694     18690     18691     18696     18700     18701     18697     18696     18699
     18697     18696     18698     18698     18696     18699     18700     18696     18699
     18700     18696     18698     18700     18696     18697     18702     18706     18707
     18703     18702     18705     18703     18702     18704     18704     18702     18705
     18706     18702     18705     18706     18702     18704     18706     18702     18703
     18708     18712     18713     18709     18708     18711     18709     18708     18710
     18710     18708     18711     18712     18708     18711     18712     18708     18710
     18712     18708     18709     18714     18718     18719     18715     18714     18717
     18715     18714     18716     18716     18714     18717     18718     18714     18717
     18718     18714     18716     18718     18714     18715     18720     18724     18725
     18721     18720     18723     18721     18720     18722     18722     18720     18723
     18724     18720     18723     18724     18720     18722     18724     18720     18721
     18726     18730     18731     18727     18726     18729     18727     18726     18728
     18728     18726     18729     18730     18726     18729     18730     18726     18728
     18730     18726     18727     18732     18736     18737     18733     18732     18735
     18733     18732     18734     18734     18732     18735     18736     18732     18735
     18736     18732     18734     18736     18732     18733     18738     18742     18743
     18739     18738     18741     18739     18738     18740     18740     18738     18741
     18742     18738     18741     18742     18738     18740     18742     18738     18739
     18744     18748     18749     18745     18744     18747     18745     18744     18746
     18746     18744     18747     18748     18744     18747     18748     18744     18746
     18748     18744     18745     18750     18754     18755     18751     18750     18753
     18751     18750     18752     18752     18750     18753     18754     18750     18753
     18754     18750     18752     18754     18750     18751     18756     18760     18761
     18757     18756     18759     18757     18756     18758     18758     18756     18759
     18760     18756     18759     18760     18756     18758     18760     18756     18757
     18762     18766     18767     18763     18762     18765     18763     18762     18764
     18764     18762     18765     18766     18762     18765     18766     18762     18764
     18766     18762     18763     18768     18772     18773     18769     18768     18771
     18769     18768     18770     18770     18768     18771     18772     18768     18771
     18772     18768     18770     18772     18768     18769     18774     18778     18779
     18775     18774     18777     18775     18774     18776     18776     18774     18777
     18778     18774     18777     18778     18774     18776     18778     18774     18775
     18780     18784     18785     18781     18780     18783     18781     18780     18782
     18782     18780     18783     18784     18780     18783     18784     18780     18782
     18784     18780     18781     18786     18790     18791     18787     18786     18789
     18787     18786     18788     18788     18786     18789     18790     18786     18789
     18790     18786     18788     18790     18786     18787     18792     18796     18797
     18793     18792     18795     18793     18792     18794     18794     18792     18795
     18796     18792     18795     18796     18792     18794     18796     18792     18793
     18798     18802     18803     18799     18798     18801     18799     18798     18800
     18800     18798     18801     18802     18798     18801     18802     18798     18800
     18802     18798     18799     18804     18808     18809     18805     18804     18807
     18805     18804     18806     18806     18804     18807     18808     18804     18807
     18808     18804     18806     18808     18804     18805     18810     18814     18815
     18811     18810     18813     18811     18810     18812     18812     18810     18813
     18814     18810     18813     18814     18810     18812     18814     18810     18811
     18816     18820     18821     18817     18816     18819     18817     18816     18818
     18818     18816     18819     18820     18816     18819     18820     18816     18818
     18820     18816     18817     18822     18826     18827     18823     18822     18825
     18823     18822     18824     18824     18822     18825     18826     18822     18825
     18826     18822     18824     18826     18822     18823     18828     18832     18833
     18829     18828     18831     18829     18828     18830     18830     18828     18831
     18832     18828     18831     18832     18828     18830     18832     18828     18829
     18834     18838     18839     18835     18834     18837     18835     18834     18836
     18836     18834     18837     18838     18834     18837     18838     18834     18836
     18838     18834     18835     18840     18844     18845     18841     18840     18843
     18841     18840     18842     18842     18840     18843     18844     18840     18843
     18844     18840     18842     18844     18840     18841     18846     18850     18851
     18847     18846     18849     18847     18846     18848     18848     18846     18849
     18850     18846     18849     18850     18846     18848     18850     18846     18847
     18852     18856     18857     18853     18852     18855     18853     18852     18854
     18854     18852     18855     18856     18852     18855     18856     18852     18854
     18856     18852     18853     18858     18862     18863     18859     18858     18861
     18859     18858     18860     18860     18858     18861     18862     18858     18861
     18862     18858     18860     18862     18858     18859     18864     18868     18869
     18865     18864     18867     18865     18864     18866     18866     18864     18867
     18868     18864     18867     18868     18864     18866     18868     18864     18865
     18870     18874     18875     18871     18870     18873     18871     18870     18872
     18872     18870     18873     18874     18870     18873     18874     18870     18872
     18874     18870     18871     18876     18880     18881     18877     18876     18879
     18877     18876     18878     18878     18876     18879     18880     18876     18879
     18880     18876     18878     18880     18876     18877     18882     18886     18887
     18883     18882     18885     18883     18882     18884     18884     18882     18885
     18886     18882     18885     18886     18882     18884     18886     18882     18883
     18888     18892     18893     18889     18888     18891     18889     18888     18890
     18890     18888     18891     18892     18888     18891     18892     18888     18890
     18892     18888     18889     18894     18898     18899     18895     18894     18897
     18895     18894     18896     18896     18894     18897     18898     18894     18897
     18898     18894     18896     18898     18894     18895     18900     18904     18905
     18901     18900     18903     18901     18900     18902     18902     18900     18903
     18904     18900     18903     18904     18900     18902     18904     18900     18901
     18906     18910     18911     18907     18906     18909     18907     18906     18908
     18908     18906     18909     18910     18906     18909     18910     18906     18908
     18910     18906     18907     18912     18916     18917     18913     18912     18915
     18913     18912     18914     18914     18912     18915     18916     18912     18915
     18916     18912     18914     18916     18912     18913     18918     18922     18923
     18919     18918     18921     18919     18918     18920     18920     18918     18921
     18922     18918     18921     18922     18918     18920     18922     18918     18919
     18924     18928     18929     18925     18924     18927     18925     18924     18926
     18926     18924     18927     18928     18924     18927     18928     18924     18926
     18928     18924     18925     18930     18934     18935     18931     18930     18933
     18931     18930     18932     18932     18930     18933     18934     18930     18933
     18934     18930     18932     18934     18930     18931     18936     18940     18941
     18937     18936     18939     18937     18936     18938     18938     18936     18939
     18940     18936     18939     18940     18936     18938     18940     18936     18937
     18942     18946     18947     18943     18942     18945     18943     18942     18944
     18944     18942     18945     18946     18942     18945     18946     18942     18944
     18946     18942     18943     18948     18952     18953     18949     18948     18951
     18949     18948     18950     18950     18948     18951     18952     18948     18951
     18952     18948     18950     18952     18948     18949     18954     18958     18959
     18955     18954     18957     18955     18954     18956     18956     18954     18957
     18958     18954     18957     18958     18954     18956     18958     18954     18955
     18960     18964     18965     18961     18960     18963     18961     18960     18962
     18962     18960     18963     18964     18960     18963     18964     18960     18962
     18964     18960     18961     18966     18970     18971     18967     18966     18969
     18967     18966     18968     18968     18966     18969     18970     18966     18969
     18970     18966     18968     18970     18966     18967     18972     18976     18977
     18973     18972     18975     18973     18972     18974     18974     18972     18975
     18976     18972     18975     18976     18972     18974     18976     18972     18973
     18978     18982     18983     18979     18978     18981     18979     18978     18980
     18980     18978     18981     18982     18978     18981     18982     18978     18980
     18982     18978     18979     18984     18988     18989     18985     18984     18987
     18985     18984     18986     18986     18984     18987     18988     18984     18987
     18988     18984     18986     18988     18984     18985     18990     18994     18995
     18991     18990     18993     18991     18990     18992     18992     18990     18993
     18994     18990     18993     18994     18990     18992     18994     18990     18991
     18996     19000     19001     18997     18996     18999     18997     18996     18998
     18998     18996     18999     19000     18996     18999     19000     18996     18998
     19000     18996     18997     19002     19006     19007     19003     19002     19005
     19003     19002     19004     19004     19002     19005     19006     19002     19005
     19006     19002     19004     19006     19002     19003     19008     19012     19013
     19009     19008     19011     19009     19008     19010     19010     19008     19011
     19012     19008     19011     19012     19008     19010     19012     19008     19009
     19014     19018     19019     19015     19014     19017     19015     19014     19016
     19016     19014     19017     19018     19014     19017     19018     19014     19016
     19018     19014     19015     19020     19024     19025     19021     19020     19023
     19021     19020     19022     19022     19020     19023     19024     19020     19023
     19024     19020     19022     19024     19020     19021     19026     19030     19031
     19027     19026     19029     19027     19026     19028     19028     19026     19029
     19030     19026     19029     19030     19026     19028     19030     19026     19027
     19032     19036     19037     19033     19032     19035     19033     19032     19034
     19034     19032     19035     19036     19032     19035     19036     19032     19034
     19036     19032     19033     19038     19042     19043     19039     19038     19041
     19039     19038     19040     19040     19038     19041     19042     19038     19041
     19042     19038     19040     19042     19038     19039     19044     19048     19049
     19045     19044     19047     19045     19044     19046     19046     19044     19047
     19048     19044     19047     19048     19044     19046     19048     19044     19045
     19050     19054     19055     19051     19050     19053     19051     19050     19052
     19052     19050     19053     19054     19050     19053     19054     19050     19052
     19054     19050     19051     19056     19060     19061     19057     19056     19059
     19057     19056     19058     19058     19056     19059     19060     19056     19059
     19060     19056     19058     19060     19056     19057     19062     19066     19067
     19063     19062     19065     19063     19062     19064     19064     19062     19065
     19066     19062     19065     19066     19062     19064     19066     19062     19063
     19068     19072     19073     19069     19068     19071     19069     19068     19070
     19070     19068     19071     19072     19068     19071     19072     19068     19070
     19072     19068     19069     19074     19078     19079     19075     19074     19077
     19075     19074     19076     19076     19074     19077     19078     19074     19077
     19078     19074     19076     19078     19074     19075     19080     19084     19085
     19081     19080     19083     19081     19080     19082     19082     19080     19083
     19084     19080     19083     19084     19080     19082     19084     19080     19081
     19086     19090     19091     19087     19086     19089     19087     19086     19088
     19088     19086     19089     19090     19086     19089     19090     19086     19088
     19090     19086     19087     19092     19096     19097     19093     19092     19095
     19093     19092     19094     19094     19092     19095     19096     19092     19095
     19096     19092     19094     19096     19092     19093     19098     19102     19103
     19099     19098     19101     19099     19098     19100     19100     19098     19101
     19102     19098     19101     19102     19098     19100     19102     19098     19099
     19104     19108     19109     19105     19104     19107     19105     19104     19106
     19106     19104     19107     19108     19104     19107     19108     19104     19106
     19108     19104     19105     19110     19114     19115     19111     19110     19113
     19111     19110     19112     19112     19110     19113     19114     19110     19113
     19114     19110     19112     19114     19110     19111     19116     19120     19121
     19117     19116     19119     19117     19116     19118     19118     19116     19119
     19120     19116     19119     19120     19116     19118     19120     19116     19117
     19122     19126     19127     19123     19122     19125     19123     19122     19124
     19124     19122     19125     19126     19122     19125     19126     19122     19124
     19126     19122     19123     19128     19132     19133     19129     19128     19131
     19129     19128     19130     19130     19128     19131     19132     19128     19131
     19132     19128     19130     19132     19128     19129     19134     19138     19139
     19135     19134     19137     19135     19134     19136     19136     19134     19137
     19138     19134     19137     19138     19134     19136     19138     19134     19135
     19140     19144     19145     19141     19140     19143     19141     19140     19142
     19142     19140     19143     19144     19140     19143     19144     19140     19142
     19144     19140     19141     19146     19150     19151     19147     19146     19149
     19147     19146     19148     19148     19146     19149     19150     19146     19149
     19150     19146     19148     19150     19146     19147     19152     19156     19157
     19153     19152     19155     19153     19152     19154     19154     19152     19155
     19156     19152     19155     19156     19152     19154     19156     19152     19153
     19158     19162     19163     19159     19158     19161     19159     19158     19160
     19160     19158     19161     19162     19158     19161     19162     19158     19160
     19162     19158     19159     19164     19168     19169     19165     19164     19167
     19165     19164     19166     19166     19164     19167     19168     19164     19167
     19168     19164     19166     19168     19164     19165     19170     19174     19175
     19171     19170     19173     19171     19170     19172     19172     19170     19173
     19174     19170     19173     19174     19170     19172     19174     19170     19171
     19176     19180     19181     19177     19176     19179     19177     19176     19178
     19178     19176     19179     19180     19176     19179     19180     19176     19178
     19180     19176     19177     19182     19186     19187     19183     19182     19185
     19183     19182     19184     19184     19182     19185     19186     19182     19185
     19186     19182     19184     19186     19182     19183     19188     19192     19193
     19189     19188     19191     19189     19188     19190     19190     19188     19191
     19192     19188     19191     19192     19188     19190     19192     19188     19189
     19194     19198     19199     19195     19194     19197     19195     19194     19196
     19196     19194     19197     19198     19194     19197     19198     19194     19196
     19198     19194     19195     19200     19204     19205     19201     19200     19203
     19201     19200     19202     19202     19200     19203     19204     19200     19203
     19204     19200     19202     19204     19200     19201     19206     19210     19211
     19207     19206     19209     19207     19206     19208     19208     19206     19209
     19210     19206     19209     19210     19206     19208     19210     19206     19207
     19212     19216     19217     19213     19212     19215     19213     19212     19214
     19214     19212     19215     19216     19212     19215     19216     19212     19214
     19216     19212     19213     19218     19222     19223     19219     19218     19221
     19219     19218     19220     19220     19218     19221     19222     19218     19221
     19222     19218     19220     19222     19218     19219     19224     19228     19229
     19225     19224     19227     19225     19224     19226     19226     19224     19227
     19228     19224     19227     19228     19224     19226     19228     19224     19225
     19230     19234     19235     19231     19230     19233     19231     19230     19232
     19232     19230     19233     19234     19230     19233     19234     19230     19232
     19234     19230     19231     19236     19240     19241     19237     19236     19239
     19237     19236     19238     19238     19236     19239     19240     19236     19239
     19240     19236     19238     19240     19236     19237     19242     19246     19247
     19243     19242     19245     19243     19242     19244     19244     19242     19245
     19246     19242     19245     19246     19242     19244     19246     19242     19243
     19248     19252     19253     19249     19248     19251     19249     19248     19250
     19250     19248     19251     19252     19248     19251     19252     19248     19250
     19252     19248     19249     19254     19258     19259     19255     19254     19257
     19255     19254     19256     19256     19254     19257     19258     19254     19257
     19258     19254     19256     19258     19254     19255     19260     19264     19265
     19261     19260     19263     19261     19260     19262     19262     19260     19263
     19264     19260     19263     19264     19260     19262     19264     19260     19261
     19266     19270     19271     19267     19266     19269     19267     19266     19268
     19268     19266     19269     19270     19266     19269     19270     19266     19268
     19270     19266     19267     19272     19276     19277     19273     19272     19275
     19273     19272     19274     19274     19272     19275     19276     19272     19275
     19276     19272     19274     19276     19272     19273     19278     19282     19283
     19279     19278     19281     19279     19278     19280     19280     19278     19281
     19282     19278     19281     19282     19278     19280     19282     19278     19279
     19284     19288     19289     19285     19284     19287     19285     19284     19286
     19286     19284     19287     19288     19284     19287     19288     19284     19286
     19288     19284     19285     19290     19294     19295     19291     19290     19293
     19291     19290     19292     19292     19290     19293     19294     19290     19293
     19294     19290     19292     19294     19290     19291     19296     19300     19301
     19297     19296     19299     19297     19296     19298     19298     19296     19299
     19300     19296     19299     19300     19296     19298     19300     19296     19297
     19302     19306     19307     19303     19302     19305     19303     19302     19304
     19304     19302     19305     19306     19302     19305     19306     19302     19304
     19306     19302     19303     19308     19312     19313     19309     19308     19311
     19309     19308     19310     19310     19308     19311     19312     19308     19311
     19312     19308     19310     19312     19308     19309     19314     19318     19319
     19315     19314     19317     19315     19314     19316     19316     19314     19317
     19318     19314     19317     19318     19314     19316     19318     19314     19315
     19320     19324     19325     19321     19320     19323     19321     19320     19322
     19322     19320     19323     19324     19320     19323     19324     19320     19322
     19324     19320     19321     19326     19330     19331     19327     19326     19329
     19327     19326     19328     19328     19326     19329     19330     19326     19329
     19330     19326     19328     19330     19326     19327     19332     19336     19337
     19333     19332     19335     19333     19332     19334     19334     19332     19335
     19336     19332     19335     19336     19332     19334     19336     19332     19333
     19338     19342     19343     19339     19338     19341     19339     19338     19340
     19340     19338     19341     19342     19338     19341     19342     19338     19340
     19342     19338     19339     19344     19348     19349     19345     19344     19347
     19345     19344     19346     19346     19344     19347     19348     19344     19347
     19348     19344     19346     19348     19344     19345     19350     19354     19355
     19351     19350     19353     19351     19350     19352     19352     19350     19353
     19354     19350     19353     19354     19350     19352     19354     19350     19351
     19356     19360     19361     19357     19356     19359     19357     19356     19358
     19358     19356     19359     19360     19356     19359     19360     19356     19358
     19360     19356     19357     19362     19366     19367     19363     19362     19365
     19363     19362     19364     19364     19362     19365     19366     19362     19365
     19366     19362     19364     19366     19362     19363     19368     19372     19373
     19369     19368     19371     19369     19368     19370     19370     19368     19371
     19372     19368     19371     19372     19368     19370     19372     19368     19369
     19374     19378     19379     19375     19374     19377     19375     19374     19376
     19376     19374     19377     19378     19374     19377     19378     19374     19376
     19378     19374     19375     19380     19384     19385     19381     19380     19383
     19381     19380     19382     19382     19380     19383     19384     19380     19383
     19384     19380     19382     19384     19380     19381     19386     19390     19391
     19387     19386     19389     19387     19386     19388     19388     19386     19389
     19390     19386     19389     19390     19386     19388     19390     19386     19387
     19392     19396     19397     19393     19392     19395     19393     19392     19394
     19394     19392     19395     19396     19392     19395     19396     19392     19394
     19396     19392     19393     19398     19402     19403     19399     19398     19401
     19399     19398     19400     19400     19398     19401     19402     19398     19401
     19402     19398     19400     19402     19398     19399     19404     19408     19409
     19405     19404     19407     19405     19404     19406     19406     19404     19407
     19408     19404     19407     19408     19404     19406     19408     19404     19405
     19410     19414     19415     19411     19410     19413     19411     19410     19412
     19412     19410     19413     19414     19410     19413     19414     19410     19412
     19414     19410     19411     19416     19420     19421     19417     19416     19419
     19417     19416     19418     19418     19416     19419     19420     19416     19419
     19420     19416     19418     19420     19416     19417     19422     19426     19427
     19423     19422     19425     19423     19422     19424     19424     19422     19425
     19426     19422     19425     19426     19422     19424     19426     19422     19423
     19428     19432     19433     19429     19428     19431     19429     19428     19430
     19430     19428     19431     19432     19428     19431     19432     19428     19430
     19432     19428     19429     19434     19438     19439     19435     19434     19437
     19435     19434     19436     19436     19434     19437     19438     19434     19437
     19438     19434     19436     19438     19434     19435     19440     19444     19445
     19441     19440     19443     19441     19440     19442     19442     19440     19443
     19444     19440     19443     19444     19440     19442     19444     19440     19441
     19446     19450     19451     19447     19446     19449     19447     19446     19448
     19448     19446     19449     19450     19446     19449     19450     19446     19448
     19450     19446     19447     19452     19456     19457     19453     19452     19455
     19453     19452     19454     19454     19452     19455     19456     19452     19455
     19456     19452     19454     19456     19452     19453     19458     19462     19463
     19459     19458     19461     19459     19458     19460     19460     19458     19461
     19462     19458     19461     19462     19458     19460     19462     19458     19459
     19464     19468     19469     19465     19464     19467     19465     19464     19466
     19466     19464     19467     19468     19464     19467     19468     19464     19466
     19468     19464     19465     19470     19474     19475     19471     19470     19473
     19471     19470     19472     19472     19470     19473     19474     19470     19473
     19474     19470     19472     19474     19470     19471     19476     19480     19481
     19477     19476     19479     19477     19476     19478     19478     19476     19479
     19480     19476     19479     19480     19476     19478     19480     19476     19477
     19482     19486     19487     19483     19482     19485     19483     19482     19484
     19484     19482     19485     19486     19482     19485     19486     19482     19484
     19486     19482     19483     19488     19492     19493     19489     19488     19491
     19489     19488     19490     19490     19488     19491     19492     19488     19491
     19492     19488     19490     19492     19488     19489     19494     19498     19499
     19495     19494     19497     19495     19494     19496     19496     19494     19497
     19498     19494     19497     19498     19494     19496     19498     19494     19495
     19500     19504     19505     19501     19500     19503     19501     19500     19502
     19502     19500     19503     19504     19500     19503     19504     19500     19502
     19504     19500     19501     19506     19510     19511     19507     19506     19509
     19507     19506     19508     19508     19506     19509     19510     19506     19509
     19510     19506     19508     19510     19506     19507     19512     19516     19517
     19513     19512     19515     19513     19512     19514     19514     19512     19515
     19516     19512     19515     19516     19512     19514     19516     19512     19513
     19518     19522     19523     19519     19518     19521     19519     19518     19520
     19520     19518     19521     19522     19518     19521     19522     19518     19520
     19522     19518     19519     19524     19528     19529     19525     19524     19527
     19525     19524     19526     19526     19524     19527     19528     19524     19527
     19528     19524     19526     19528     19524     19525     19530     19534     19535
     19531     19530     19533     19531     19530     19532     19532     19530     19533
     19534     19530     19533     19534     19530     19532     19534     19530     19531
     19536     19540     19541     19537     19536     19539     19537     19536     19538
     19538     19536     19539     19540     19536     19539     19540     19536     19538
     19540     19536     19537     19542     19546     19547     19543     19542     19545
     19543     19542     19544     19544     19542     19545     19546     19542     19545
     19546     19542     19544     19546     19542     19543     19548     19552     19553
     19549     19548     19551     19549     19548     19550     19550     19548     19551
     19552     19548     19551     19552     19548     19550     19552     19548     19549
     19554     19558     19559     19555     19554     19557     19555     19554     19556
     19556     19554     19557     19558     19554     19557     19558     19554     19556
     19558     19554     19555     19560     19564     19565     19561     19560     19563
     19561     19560     19562     19562     19560     19563     19564     19560     19563
     19564     19560     19562     19564     19560     19561     19566     19570     19571
     19567     19566     19569     19567     19566     19568     19568     19566     19569
     19570     19566     19569     19570     19566     19568     19570     19566     19567
     19572     19576     19577     19573     19572     19575     19573     19572     19574
     19574     19572     19575     19576     19572     19575     19576     19572     19574
     19576     19572     19573     19578     19582     19583     19579     19578     19581
     19579     19578     19580     19580     19578     19581     19582     19578     19581
     19582     19578     19580     19582     19578     19579     19584     19588     19589
     19585     19584     19587     19585     19584     19586     19586     19584     19587
     19588     19584     19587     19588     19584     19586     19588     19584     19585
     19590     19594     19595     19591     19590     19593     19591     19590     19592
     19592     19590     19593     19594     19590     19593     19594     19590     19592
     19594     19590     19591     19596     19600     19601     19597     19596     19599
     19597     19596     19598     19598     19596     19599     19600     19596     19599
     19600     19596     19598     19600     19596     19597     19602     19606     19607
     19603     19602     19605     19603     19602     19604     19604     19602     19605
     19606     19602     19605     19606     19602     19604     19606     19602     19603
     19608     19612     19613     19609     19608     19611     19609     19608     19610
     19610     19608     19611     19612     19608     19611     19612     19608     19610
     19612     19608     19609     19614     19618     19619     19615     19614     19617
     19615     19614     19616     19616     19614     19617     19618     19614     19617
     19618     19614     19616     19618     19614     19615     19620     19624     19625
     19621     19620     19623     19621     19620     19622     19622     19620     19623
     19624     19620     19623     19624     19620     19622     19624     19620     19621
     19626     19630     19631     19627     19626     19629     19627     19626     19628
     19628     19626     19629     19630     19626     19629     19630     19626     19628
     19630     19626     19627     19632     19636     19637     19633     19632     19635
     19633     19632     19634     19634     19632     19635     19636     19632     19635
     19636     19632     19634     19636     19632     19633     19638     19642     19643
     19639     19638     19641     19639     19638     19640     19640     19638     19641
     19642     19638     19641     19642     19638     19640     19642     19638     19639
     19644     19648     19649     19645     19644     19647     19645     19644     19646
     19646     19644     19647     19648     19644     19647     19648     19644     19646
     19648     19644     19645     19650     19654     19655     19651     19650     19653
     19651     19650     19652     19652     19650     19653     19654     19650     19653
     19654     19650     19652     19654     19650     19651     19656     19660     19661
     19657     19656     19659     19657     19656     19658     19658     19656     19659
     19660     19656     19659     19660     19656     19658     19660     19656     19657
     19662     19666     19667     19663     19662     19665     19663     19662     19664
     19664     19662     19665     19666     19662     19665     19666     19662     19664
     19666     19662     19663     19668     19672     19673     19669     19668     19671
     19669     19668     19670     19670     19668     19671     19672     19668     19671
     19672     19668     19670     19672     19668     19669     19674     19678     19679
     19675     19674     19677     19675     19674     19676     19676     19674     19677
     19678     19674     19677     19678     19674     19676     19678     19674     19675
     19680     19684     19685     19681     19680     19683     19681     19680     19682
     19682     19680     19683     19684     19680     19683     19684     19680     19682
     19684     19680     19681     19686     19690     19691     19687     19686     19689
     19687     19686     19688     19688     19686     19689     19690     19686     19689
     19690     19686     19688     19690     19686     19687     19692     19696     19697
     19693     19692     19695     19693     19692     19694     19694     19692     19695
     19696     19692     19695     19696     19692     19694     19696     19692     19693
     19698     19702     19703     19699     19698     19701     19699     19698     19700
     19700     19698     19701     19702     19698     19701     19702     19698     19700
     19702     19698     19699     19704     19708     19709     19705     19704     19707
     19705     19704     19706     19706     19704     19707     19708     19704     19707
     19708     19704     19706     19708     19704     19705     19710     19714     19715
     19711     19710     19713     19711     19710     19712     19712     19710     19713
     19714     19710     19713     19714     19710     19712     19714     19710     19711
     19716     19720     19721     19717     19716     19719     19717     19716     19718
     19718     19716     19719     19720     19716     19719     19720     19716     19718
     19720     19716     19717     19722     19726     19727     19723     19722     19725
     19723     19722     19724     19724     19722     19725     19726     19722     19725
     19726     19722     19724     19726     19722     19723     19728     19732     19733
     19729     19728     19731     19729     19728     19730     19730     19728     19731
     19732     19728     19731     19732     19728     19730     19732     19728     19729
     19734     19738     19739     19735     19734     19737     19735     19734     19736
     19736     19734     19737     19738     19734     19737     19738     19734     19736
     19738     19734     19735     19740     19744     19745     19741     19740     19743
     19741     19740     19742     19742     19740     19743     19744     19740     19743
     19744     19740     19742     19744     19740     19741     19746     19750     19751
     19747     19746     19749     19747     19746     19748     19748     19746     19749
     19750     19746     19749     19750     19746     19748     19750     19746     19747
     19752     19756     19757     19753     19752     19755     19753     19752     19754
     19754     19752     19755     19756     19752     19755     19756     19752     19754
     19756     19752     19753     19758     19762     19763     19759     19758     19761
     19759     19758     19760     19760     19758     19761     19762     19758     19761
     19762     19758     19760     19762     19758     19759     19764     19768     19769
     19765     19764     19767     19765     19764     19766     19766     19764     19767
     19768     19764     19767     19768     19764     19766     19768     19764     19765
     19770     19774     19775     19771     19770     19773     19771     19770     19772
     19772     19770     19773     19774     19770     19773     19774     19770     19772
     19774     19770     19771     19776     19780     19781     19777     19776     19779
     19777     19776     19778     19778     19776     19779     19780     19776     19779
     19780     19776     19778     19780     19776     19777     19782     19786     19787
     19783     19782     19785     19783     19782     19784     19784     19782     19785
     19786     19782     19785     19786     19782     19784     19786     19782     19783
     19788     19792     19793     19789     19788     19791     19789     19788     19790
     19790     19788     19791     19792     19788     19791     19792     19788     19790
     19792     19788     19789     19794     19798     19799     19795     19794     19797
     19795     19794     19796     19796     19794     19797     19798     19794     19797
     19798     19794     19796     19798     19794     19795     19800     19804     19805
     19801     19800     19803     19801     19800     19802     19802     19800     19803
     19804     19800     19803     19804     19800     19802     19804     19800     19801
     19806     19810     19811     19807     19806     19809     19807     19806     19808
     19808     19806     19809     19810     19806     19809     19810     19806     19808
     19810     19806     19807     19812     19816     19817     19813     19812     19815
     19813     19812     19814     19814     19812     19815     19816     19812     19815
     19816     19812     19814     19816     19812     19813     19818     19822     19823
     19819     19818     19821     19819     19818     19820     19820     19818     19821
     19822     19818     19821     19822     19818     19820     19822     19818     19819
     19824     19828     19829     19825     19824     19827     19825     19824     19826
     19826     19824     19827     19828     19824     19827     19828     19824     19826
     19828     19824     19825     19830     19834     19835     19831     19830     19833
     19831     19830     19832     19832     19830     19833     19834     19830     19833
     19834     19830     19832     19834     19830     19831     19836     19840     19841
     19837     19836     19839     19837     19836     19838     19838     19836     19839
     19840     19836     19839     19840     19836     19838     19840     19836     19837
     19842     19846     19847     19843     19842     19845     19843     19842     19844
     19844     19842     19845     19846     19842     19845     19846     19842     19844
     19846     19842     19843     19848     19852     19853     19849     19848     19851
     19849     19848     19850     19850     19848     19851     19852     19848     19851
     19852     19848     19850     19852     19848     19849     19854     19858     19859
     19855     19854     19857     19855     19854     19856     19856     19854     19857
     19858     19854     19857     19858     19854     19856     19858     19854     19855
     19860     19864     19865     19861     19860     19863     19861     19860     19862
     19862     19860     19863     19864     19860     19863     19864     19860     19862
     19864     19860     19861     19866     19870     19871     19867     19866     19869
     19867     19866     19868     19868     19866     19869     19870     19866     19869
     19870     19866     19868     19870     19866     19867     19872     19876     19877
     19873     19872     19875     19873     19872     19874     19874     19872     19875
     19876     19872     19875     19876     19872     19874     19876     19872     19873
     19878     19882     19883     19879     19878     19881     19879     19878     19880
     19880     19878     19881     19882     19878     19881     19882     19878     19880
     19882     19878     19879     19884     19888     19889     19885     19884     19887
     19885     19884     19886     19886     19884     19887     19888     19884     19887
     19888     19884     19886     19888     19884     19885     19890     19894     19895
     19891     19890     19893     19891     19890     19892     19892     19890     19893
     19894     19890     19893     19894     19890     19892     19894     19890     19891
     19896     19900     19901     19897     19896     19899     19897     19896     19898
     19898     19896     19899     19900     19896     19899     19900     19896     19898
     19900     19896     19897     19902     19906     19907     19903     19902     19905
     19903     19902     19904     19904     19902     19905     19906     19902     19905
     19906     19902     19904     19906     19902     19903     19908     19912     19913
     19909     19908     19911     19909     19908     19910     19910     19908     19911
     19912     19908     19911     19912     19908     19910     19912     19908     19909
     19914     19918     19919     19915     19914     19917     19915     19914     19916
     19916     19914     19917     19918     19914     19917     19918     19914     19916
     19918     19914     19915     19920     19924     19925     19921     19920     19923
     19921     19920     19922     19922     19920     19923     19924     19920     19923
     19924     19920     19922     19924     19920     19921     19926     19930     19931
     19927     19926     19929     19927     19926     19928     19928     19926     19929
     19930     19926     19929     19930     19926     19928     19930     19926     19927
     19932     19936     19937     19933     19932     19935     19933     19932     19934
     19934     19932     19935     19936     19932     19935     19936     19932     19934
     19936     19932     19933     19938     19942     19943     19939     19938     19941
     19939     19938     19940     19940     19938     19941     19942     19938     19941
     19942     19938     19940     19942     19938     19939     19944     19948     19949
     19945     19944     19947     19945     19944     19946     19946     19944     19947
     19948     19944     19947     19948     19944     19946     19948     19944     19945
     19950     19954     19955     19951     19950     19953     19951     19950     19952
     19952     19950     19953     19954     19950     19953     19954     19950     19952
     19954     19950     19951     19956     19960     19961     19957     19956     19959
     19957     19956     19958     19958     19956     19959     19960     19956     19959
     19960     19956     19958     19960     19956     19957     19962     19966     19967
     19963     19962     19965     19963     19962     19964     19964     19962     19965
     19966     19962     19965     19966     19962     19964     19966     19962     19963
     19968     19972     19973     19969     19968     19971     19969     19968     19970
     19970     19968     19971     19972     19968     19971     19972     19968     19970
     19972     19968     19969     19974     19978     19979     19975     19974     19977
     19975     19974     19976     19976     19974     19977     19978     19974     19977
     19978     19974     19976     19978     19974     19975     19980     19984     19985
     19981     19980     19983     19981     19980     19982     19982     19980     19983
     19984     19980     19983     19984     19980     19982     19984     19980     19981
     19986     19990     19991     19987     19986     19989     19987     19986     19988
     19988     19986     19989     19990     19986     19989     19990     19986     19988
     19990     19986     19987     19992     19996     19997     19993     19992     19995
     19993     19992     19994     19994     19992     19995     19996     19992     19995
     19996     19992     19994     19996     19992     19993     19998     20002     20003
     19999     19998     20001     19999     19998     20000     20000     19998     20001
     20002     19998     20001     20002     19998     20000     20002     19998     19999
     20004     20008     20009     20005     20004     20007     20005     20004     20006
     20006     20004     20007     20008     20004     20007     20008     20004     20006
     20008     20004     20005     20010     20014     20015     20011     20010     20013
     20011     20010     20012     20012     20010     20013     20014     20010     20013
     20014     20010     20012     20014     20010     20011     20016     20020     20021
     20017     20016     20019     20017     20016     20018     20018     20016     20019
     20020     20016     20019     20020     20016     20018     20020     20016     20017
     20022     20026     20027     20023     20022     20025     20023     20022     20024
     20024     20022     20025     20026     20022     20025     20026     20022     20024
     20026     20022     20023     20028     20032     20033     20029     20028     20031
     20029     20028     20030     20030     20028     20031     20032     20028     20031
     20032     20028     20030     20032     20028     20029     20034     20038     20039
     20035     20034     20037     20035     20034     20036     20036     20034     20037
     20038     20034     20037     20038     20034     20036     20038     20034     20035
     20040     20044     20045     20041     20040     20043     20041     20040     20042
     20042     20040     20043     20044     20040     20043     20044     20040     20042
     20044     20040     20041     20046     20050     20051     20047     20046     20049
     20047     20046     20048     20048     20046     20049     20050     20046     20049
     20050     20046     20048     20050     20046     20047     20052     20056     20057
     20053     20052     20055     20053     20052     20054     20054     20052     20055
     20056     20052     20055     20056     20052     20054     20056     20052     20053
     20058     20062     20063     20059     20058     20061     20059     20058     20060
     20060     20058     20061     20062     20058     20061     20062     20058     20060
     20062     20058     20059     20064     20068     20069     20065     20064     20067
     20065     20064     20066     20066     20064     20067     20068     20064     20067
     20068     20064     20066     20068     20064     20065     20070     20074     20075
     20071     20070     20073     20071     20070     20072     20072     20070     20073
     20074     20070     20073     20074     20070     20072     20074     20070     20071
     20076     20080     20081     20077     20076     20079     20077     20076     20078
     20078     20076     20079     20080     20076     20079     20080     20076     20078
     20080     20076     20077     20082     20086     20087     20083     20082     20085
     20083     20082     20084     20084     20082     20085     20086     20082     20085
     20086     20082     20084     20086     20082     20083     20088     20092     20093
     20089     20088     20091     20089     20088     20090     20090     20088     20091
     20092     20088     20091     20092     20088     20090     20092     20088     20089
     20094     20098     20099     20095     20094     20097     20095     20094     20096
     20096     20094     20097     20098     20094     20097     20098     20094     20096
     20098     20094     20095     20100     20104     20105     20101     20100     20103
     20101     20100     20102     20102     20100     20103     20104     20100     20103
     20104     20100     20102     20104     20100     20101     20106     20110     20111
     20107     20106     20109     20107     20106     20108     20108     20106     20109
     20110     20106     20109     20110     20106     20108     20110     20106     20107
     20112     20116     20117     20113     20112     20115     20113     20112     20114
     20114     20112     20115     20116     20112     20115     20116     20112     20114
     20116     20112     20113     20118     20122     20123     20119     20118     20121
     20119     20118     20120     20120     20118     20121     20122     20118     20121
     20122     20118     20120     20122     20118     20119     20124     20128     20129
     20125     20124     20127     20125     20124     20126     20126     20124     20127
     20128     20124     20127     20128     20124     20126     20128     20124     20125
     20130     20134     20135     20131     20130     20133     20131     20130     20132
     20132     20130     20133     20134     20130     20133     20134     20130     20132
     20134     20130     20131     20136     20140     20141     20137     20136     20139
     20137     20136     20138     20138     20136     20139     20140     20136     20139
     20140     20136     20138     20140     20136     20137     20142     20146     20147
     20143     20142     20145     20143     20142     20144     20144     20142     20145
     20146     20142     20145     20146     20142     20144     20146     20142     20143
     20148     20152     20153     20149     20148     20151     20149     20148     20150
     20150     20148     20151     20152     20148     20151     20152     20148     20150
     20152     20148     20149     20154     20158     20159     20155     20154     20157
     20155     20154     20156     20156     20154     20157     20158     20154     20157
     20158     20154     20156     20158     20154     20155     20160     20164     20165
     20161     20160     20163     20161     20160     20162     20162     20160     20163
     20164     20160     20163     20164     20160     20162     20164     20160     20161
     20166     20170     20171     20167     20166     20169     20167     20166     20168
     20168     20166     20169     20170     20166     20169     20170     20166     20168
     20170     20166     20167     20172     20176     20177     20173     20172     20175
     20173     20172     20174     20174     20172     20175     20176     20172     20175
     20176     20172     20174     20176     20172     20173     20178     20182     20183
     20179     20178     20181     20179     20178     20180     20180     20178     20181
     20182     20178     20181     20182     20178     20180     20182     20178     20179
     20184     20188     20189     20185     20184     20187     20185     20184     20186
     20186     20184     20187     20188     20184     20187     20188     20184     20186
     20188     20184     20185     20190     20194     20195     20191     20190     20193
     20191     20190     20192     20192     20190     20193     20194     20190     20193
     20194     20190     20192     20194     20190     20191     20196     20200     20201
     20197     20196     20199     20197     20196     20198     20198     20196     20199
     20200     20196     20199     20200     20196     20198     20200     20196     20197
     20202     20206     20207     20203     20202     20205     20203     20202     20204
     20204     20202     20205     20206     20202     20205     20206     20202     20204
     20206     20202     20203     20208     20212     20213     20209     20208     20211
     20209     20208     20210     20210     20208     20211     20212     20208     20211
     20212     20208     20210     20212     20208     20209     20214     20218     20219
     20215     20214     20217     20215     20214     20216     20216     20214     20217
     20218     20214     20217     20218     20214     20216     20218     20214     20215
     20220     20224     20225     20221     20220     20223     20221     20220     20222
     20222     20220     20223     20224     20220     20223     20224     20220     20222
     20224     20220     20221     20226     20230     20231     20227     20226     20229
     20227     20226     20228     20228     20226     20229     20230     20226     20229
     20230     20226     20228     20230     20226     20227     20232     20236     20237
     20233     20232     20235     20233     20232     20234     20234     20232     20235
     20236     20232     20235     20236     20232     20234     20236     20232     20233
     20238     20242     20243     20239     20238     20241     20239     20238     20240
     20240     20238     20241     20242     20238     20241     20242     20238     20240
     20242     20238     20239     20244     20248     20249     20245     20244     20247
     20245     20244     20246     20246     20244     20247     20248     20244     20247
     20248     20244     20246     20248     20244     20245     20250     20254     20255
     20251     20250     20253     20251     20250     20252     20252     20250     20253
     20254     20250     20253     20254     20250     20252     20254     20250     20251
     20256     20260     20261     20257     20256     20259     20257     20256     20258
     20258     20256     20259     20260     20256     20259     20260     20256     20258
     20260     20256     20257     20262     20266     20267     20263     20262     20265
     20263     20262     20264     20264     20262     20265     20266     20262     20265
     20266     20262     20264     20266     20262     20263     20268     20272     20273
     20269     20268     20271     20269     20268     20270     20270     20268     20271
     20272     20268     20271     20272     20268     20270     20272     20268     20269
     20274     20278     20279     20275     20274     20277     20275     20274     20276
     20276     20274     20277     20278     20274     20277     20278     20274     20276
     20278     20274     20275     20280     20284     20285     20281     20280     20283
     20281     20280     20282     20282     20280     20283     20284     20280     20283
     20284     20280     20282     20284     20280     20281     20286     20290     20291
     20287     20286     20289     20287     20286     20288     20288     20286     20289
     20290     20286     20289     20290     20286     20288     20290     20286     20287
     20292     20296     20297     20293     20292     20295     20293     20292     20294
     20294     20292     20295     20296     20292     20295     20296     20292     20294
     20296     20292     20293     20298     20302     20303     20299     20298     20301
     20299     20298     20300     20300     20298     20301     20302     20298     20301
     20302     20298     20300     20302     20298     20299     20304     20308     20309
     20305     20304     20307     20305     20304     20306     20306     20304     20307
     20308     20304     20307     20308     20304     20306     20308     20304     20305
     20310     20314     20315     20311     20310     20313     20311     20310     20312
     20312     20310     20313     20314     20310     20313     20314     20310     20312
     20314     20310     20311     20316     20320     20321     20317     20316     20319
     20317     20316     20318     20318     20316     20319     20320     20316     20319
     20320     20316     20318     20320     20316     20317     20322     20326     20327
     20323     20322     20325     20323     20322     20324     20324     20322     20325
     20326     20322     20325     20326     20322     20324     20326     20322     20323
     20328     20332     20333     20329     20328     20331     20329     20328     20330
     20330     20328     20331     20332     20328     20331     20332     20328     20330
     20332     20328     20329     20334     20338     20339     20335     20334     20337
     20335     20334     20336     20336     20334     20337     20338     20334     20337
     20338     20334     20336     20338     20334     20335     20340     20344     20345
     20341     20340     20343     20341     20340     20342     20342     20340     20343
     20344     20340     20343     20344     20340     20342     20344     20340     20341
     20346     20350     20351     20347     20346     20349     20347     20346     20348
     20348     20346     20349     20350     20346     20349     20350     20346     20348
     20350     20346     20347     20352     20356     20357     20353     20352     20355
     20353     20352     20354     20354     20352     20355     20356     20352     20355
     20356     20352     20354     20356     20352     20353     20358     20362     20363
     20359     20358     20361     20359     20358     20360     20360     20358     20361
     20362     20358     20361     20362     20358     20360     20362     20358     20359
     20364     20368     20369     20365     20364     20367     20365     20364     20366
     20366     20364     20367     20368     20364     20367     20368     20364     20366
     20368     20364     20365     20370     20374     20375     20371     20370     20373
     20371     20370     20372     20372     20370     20373     20374     20370     20373
     20374     20370     20372     20374     20370     20371     20376     20380     20381
     20377     20376     20379     20377     20376     20378     20378     20376     20379
     20380     20376     20379     20380     20376     20378     20380     20376     20377
     20382     20386     20387     20383     20382     20385     20383     20382     20384
     20384     20382     20385     20386     20382     20385     20386     20382     20384
     20386     20382     20383     20388     20392     20393     20389     20388     20391
     20389     20388     20390     20390     20388     20391     20392     20388     20391
     20392     20388     20390     20392     20388     20389     20394     20398     20399
     20395     20394     20397     20395     20394     20396     20396     20394     20397
     20398     20394     20397     20398     20394     20396     20398     20394     20395
     20400     20404     20405     20401     20400     20403     20401     20400     20402
     20402     20400     20403     20404     20400     20403     20404     20400     20402
     20404     20400     20401     20406     20410     20411     20407     20406     20409
     20407     20406     20408     20408     20406     20409     20410     20406     20409
     20410     20406     20408     20410     20406     20407     20412     20416     20417
     20413     20412     20415     20413     20412     20414     20414     20412     20415
     20416     20412     20415     20416     20412     20414     20416     20412     20413
     20418     20422     20423     20419     20418     20421     20419     20418     20420
     20420     20418     20421     20422     20418     20421     20422     20418     20420
     20422     20418     20419     20424     20428     20429     20425     20424     20427
     20425     20424     20426     20426     20424     20427     20428     20424     20427
     20428     20424     20426     20428     20424     20425     20430     20434     20435
     20431     20430     20433     20431     20430     20432     20432     20430     20433
     20434     20430     20433     20434     20430     20432     20434     20430     20431
     20436     20440     20441     20437     20436     20439     20437     20436     20438
     20438     20436     20439     20440     20436     20439     20440     20436     20438
     20440     20436     20437     20442     20446     20447     20443     20442     20445
     20443     20442     20444     20444     20442     20445     20446     20442     20445
     20446     20442     20444     20446     20442     20443     20448     20452     20453
     20449     20448     20451     20449     20448     20450     20450     20448     20451
     20452     20448     20451     20452     20448     20450     20452     20448     20449
     20454     20458     20459     20455     20454     20457     20455     20454     20456
     20456     20454     20457     20458     20454     20457     20458     20454     20456
     20458     20454     20455     20460     20464     20465     20461     20460     20463
     20461     20460     20462     20462     20460     20463     20464     20460     20463
     20464     20460     20462     20464     20460     20461     20466     20470     20471
     20467     20466     20469     20467     20466     20468     20468     20466     20469
     20470     20466     20469     20470     20466     20468     20470     20466     20467
     20472     20476     20477     20473     20472     20475     20473     20472     20474
     20474     20472     20475     20476     20472     20475     20476     20472     20474
     20476     20472     20473     20478     20482     20483     20479     20478     20481
     20479     20478     20480     20480     20478     20481     20482     20478     20481
     20482     20478     20480     20482     20478     20479     20484     20488     20489
     20485     20484     20487     20485     20484     20486     20486     20484     20487
     20488     20484     20487     20488     20484     20486     20488     20484     20485
     20490     20494     20495     20491     20490     20493     20491     20490     20492
     20492     20490     20493     20494     20490     20493     20494     20490     20492
     20494     20490     20491     20496     20500     20501     20497     20496     20499
     20497     20496     20498     20498     20496     20499     20500     20496     20499
     20500     20496     20498     20500     20496     20497     20502     20506     20507
     20503     20502     20505     20503     20502     20504     20504     20502     20505
     20506     20502     20505     20506     20502     20504     20506     20502     20503
     20508     20512     20513     20509     20508     20511     20509     20508     20510
     20510     20508     20511     20512     20508     20511     20512     20508     20510
     20512     20508     20509     20514     20518     20519     20515     20514     20517
     20515     20514     20516     20516     20514     20517     20518     20514     20517
     20518     20514     20516     20518     20514     20515     20520     20524     20525
     20521     20520     20523     20521     20520     20522     20522     20520     20523
     20524     20520     20523     20524     20520     20522     20524     20520     20521
     20526     20530     20531     20527     20526     20529     20527     20526     20528
     20528     20526     20529     20530     20526     20529     20530     20526     20528
     20530     20526     20527     20532     20536     20537     20533     20532     20535
     20533     20532     20534     20534     20532     20535     20536     20532     20535
     20536     20532     20534     20536     20532     20533     20538     20542     20543
     20539     20538     20541     20539     20538     20540     20540     20538     20541
     20542     20538     20541     20542     20538     20540     20542     20538     20539
     20544     20548     20549     20545     20544     20547     20545     20544     20546
     20546     20544     20547     20548     20544     20547     20548     20544     20546
     20548     20544     20545     20550     20554     20555     20551     20550     20553
     20551     20550     20552     20552     20550     20553     20554     20550     20553
     20554     20550     20552     20554     20550     20551     20556     20560     20561
     20557     20556     20559     20557     20556     20558     20558     20556     20559
     20560     20556     20559     20560     20556     20558     20560     20556     20557
     20562     20566     20567     20563     20562     20565     20563     20562     20564
     20564     20562     20565     20566     20562     20565     20566     20562     20564
     20566     20562     20563     20568     20572     20573     20569     20568     20571
     20569     20568     20570     20570     20568     20571     20572     20568     20571
     20572     20568     20570     20572     20568     20569     20574     20578     20579
     20575     20574     20577     20575     20574     20576     20576     20574     20577
     20578     20574     20577     20578     20574     20576     20578     20574     20575
     20580     20584     20585     20581     20580     20583     20581     20580     20582
     20582     20580     20583     20584     20580     20583     20584     20580     20582
     20584     20580     20581     20586     20590     20591     20587     20586     20589
     20587     20586     20588     20588     20586     20589     20590     20586     20589
     20590     20586     20588     20590     20586     20587     20592     20596     20597
     20593     20592     20595     20593     20592     20594     20594     20592     20595
     20596     20592     20595     20596     20592     20594     20596     20592     20593
     20598     20602     20603     20599     20598     20601     20599     20598     20600
     20600     20598     20601     20602     20598     20601     20602     20598     20600
     20602     20598     20599     20604     20608     20609     20605     20604     20607
     20605     20604     20606     20606     20604     20607     20608     20604     20607
     20608     20604     20606     20608     20604     20605     20610     20614     20615
     20611     20610     20613     20611     20610     20612     20612     20610     20613
     20614     20610     20613     20614     20610     20612     20614     20610     20611
     20616     20620     20621     20617     20616     20619     20617     20616     20618
     20618     20616     20619     20620     20616     20619     20620     20616     20618
     20620     20616     20617     20622     20626     20627     20623     20622     20625
     20623     20622     20624     20624     20622     20625     20626     20622     20625
     20626     20622     20624     20626     20622     20623     20628     20632     20633
     20629     20628     20631     20629     20628     20630     20630     20628     20631
     20632     20628     20631     20632     20628     20630     20632     20628     20629
     20634     20638     20639     20635     20634     20637     20635     20634     20636
     20636     20634     20637     20638     20634     20637     20638     20634     20636
     20638     20634     20635     20640     20644     20645     20641     20640     20643
     20641     20640     20642     20642     20640     20643     20644     20640     20643
     20644     20640     20642     20644     20640     20641     20646     20650     20651
     20647     20646     20649     20647     20646     20648     20648     20646     20649
     20650     20646     20649     20650     20646     20648     20650     20646     20647
     20652     20656     20657     20653     20652     20655     20653     20652     20654
     20654     20652     20655     20656     20652     20655     20656     20652     20654
     20656     20652     20653     20658     20662     20663     20659     20658     20661
     20659     20658     20660     20660     20658     20661     20662     20658     20661
     20662     20658     20660     20662     20658     20659     20664     20668     20669
     20665     20664     20667     20665     20664     20666     20666     20664     20667
     20668     20664     20667     20668     20664     20666     20668     20664     20665
     20670     20674     20675     20671     20670     20673     20671     20670     20672
     20672     20670     20673     20674     20670     20673     20674     20670     20672
     20674     20670     20671     20676     20680     20681     20677     20676     20679
     20677     20676     20678     20678     20676     20679     20680     20676     20679
     20680     20676     20678     20680     20676     20677     20682     20686     20687
     20683     20682     20685     20683     20682     20684     20684     20682     20685
     20686     20682     20685     20686     20682     20684     20686     20682     20683
     20688     20692     20693     20689     20688     20691     20689     20688     20690
     20690     20688     20691     20692     20688     20691     20692     20688     20690
     20692     20688     20689     20694     20698     20699     20695     20694     20697
     20695     20694     20696     20696     20694     20697     20698     20694     20697
     20698     20694     20696     20698     20694     20695     20700     20704     20705
     20701     20700     20703     20701     20700     20702     20702     20700     20703
     20704     20700     20703     20704     20700     20702     20704     20700     20701
     20706     20710     20711     20707     20706     20709     20707     20706     20708
     20708     20706     20709     20710     20706     20709     20710     20706     20708
     20710     20706     20707     20712     20716     20717     20713     20712     20715
     20713     20712     20714     20714     20712     20715     20716     20712     20715
     20716     20712     20714     20716     20712     20713     20718     20722     20723
     20719     20718     20721     20719     20718     20720     20720     20718     20721
     20722     20718     20721     20722     20718     20720     20722     20718     20719
     20724     20728     20729     20725     20724     20727     20725     20724     20726
     20726     20724     20727     20728     20724     20727     20728     20724     20726
     20728     20724     20725     20730     20734     20735     20731     20730     20733
     20731     20730     20732     20732     20730     20733     20734     20730     20733
     20734     20730     20732     20734     20730     20731     20736     20740     20741
     20737     20736     20739     20737     20736     20738     20738     20736     20739
     20740     20736     20739     20740     20736     20738     20740     20736     20737
     20742     20746     20747     20743     20742     20745     20743     20742     20744
     20744     20742     20745     20746     20742     20745     20746     20742     20744
     20746     20742     20743     20748     20752     20753     20749     20748     20751
     20749     20748     20750     20750     20748     20751     20752     20748     20751
     20752     20748     20750     20752     20748     20749     20754     20758     20759
     20755     20754     20757     20755     20754     20756     20756     20754     20757
     20758     20754     20757     20758     20754     20756     20758     20754     20755
     20760     20764     20765     20761     20760     20763     20761     20760     20762
     20762     20760     20763     20764     20760     20763     20764     20760     20762
     20764     20760     20761     20766     20770     20771     20767     20766     20769
     20767     20766     20768     20768     20766     20769     20770     20766     20769
     20770     20766     20768     20770     20766     20767     20772     20776     20777
     20773     20772     20775     20773     20772     20774     20774     20772     20775
     20776     20772     20775     20776     20772     20774     20776     20772     20773
     20778     20782     20783     20779     20778     20781     20779     20778     20780
     20780     20778     20781     20782     20778     20781     20782     20778     20780
     20782     20778     20779     20784     20788     20789     20785     20784     20787
     20785     20784     20786     20786     20784     20787     20788     20784     20787
     20788     20784     20786     20788     20784     20785     20790     20794     20795
     20791     20790     20793     20791     20790     20792     20792     20790     20793
     20794     20790     20793     20794     20790     20792     20794     20790     20791
     20796     20800     20801     20797     20796     20799     20797     20796     20798
     20798     20796     20799     20800     20796     20799     20800     20796     20798
     20800     20796     20797     20802     20806     20807     20803     20802     20805
     20803     20802     20804     20804     20802     20805     20806     20802     20805
     20806     20802     20804     20806     20802     20803     20808     20812     20813
     20809     20808     20811     20809     20808     20810     20810     20808     20811
     20812     20808     20811     20812     20808     20810     20812     20808     20809
     20814     20818     20819     20815     20814     20817     20815     20814     20816
     20816     20814     20817     20818     20814     20817     20818     20814     20816
     20818     20814     20815     20820     20824     20825     20821     20820     20823
     20821     20820     20822     20822     20820     20823     20824     20820     20823
     20824     20820     20822     20824     20820     20821     20826     20830     20831
     20827     20826     20829     20827     20826     20828     20828     20826     20829
     20830     20826     20829     20830     20826     20828     20830     20826     20827
     20832     20836     20837     20833     20832     20835     20833     20832     20834
     20834     20832     20835     20836     20832     20835     20836     20832     20834
     20836     20832     20833     20838     20842     20843     20839     20838     20841
     20839     20838     20840     20840     20838     20841     20842     20838     20841
     20842     20838     20840     20842     20838     20839     20844     20848     20849
     20845     20844     20847     20845     20844     20846     20846     20844     20847
     20848     20844     20847     20848     20844     20846     20848     20844     20845
     20850     20854     20855     20851     20850     20853     20851     20850     20852
     20852     20850     20853     20854     20850     20853     20854     20850     20852
     20854     20850     20851     20856     20860     20861     20857     20856     20859
     20857     20856     20858     20858     20856     20859     20860     20856     20859
     20860     20856     20858     20860     20856     20857     20862     20866     20867
     20863     20862     20865     20863     20862     20864     20864     20862     20865
     20866     20862     20865     20866     20862     20864     20866     20862     20863
     20868     20872     20873     20869     20868     20871     20869     20868     20870
     20870     20868     20871     20872     20868     20871     20872     20868     20870
     20872     20868     20869     20874     20878     20879     20875     20874     20877
     20875     20874     20876     20876     20874     20877     20878     20874     20877
     20878     20874     20876     20878     20874     20875     20880     20884     20885
     20881     20880     20883     20881     20880     20882     20882     20880     20883
     20884     20880     20883     20884     20880     20882     20884     20880     20881
     20886     20890     20891     20887     20886     20889     20887     20886     20888
     20888     20886     20889     20890     20886     20889     20890     20886     20888
     20890     20886     20887     20892     20896     20897     20893     20892     20895
     20893     20892     20894     20894     20892     20895     20896     20892     20895
     20896     20892     20894     20896     20892     20893     20898     20902     20903
     20899     20898     20901     20899     20898     20900     20900     20898     20901
     20902     20898     20901     20902     20898     20900     20902     20898     20899
     20904     20908     20909     20905     20904     20907     20905     20904     20906
     20906     20904     20907     20908     20904     20907     20908     20904     20906
     20908     20904     20905     20910     20914     20915     20911     20910     20913
     20911     20910     20912     20912     20910     20913     20914     20910     20913
     20914     20910     20912     20914     20910     20911     20916     20920     20921
     20917     20916     20919     20917     20916     20918     20918     20916     20919
     20920     20916     20919     20920     20916     20918     20920     20916     20917
     20922     20926     20927     20923     20922     20925     20923     20922     20924
     20924     20922     20925     20926     20922     20925     20926     20922     20924
     20926     20922     20923     20928     20932     20933     20929     20928     20931
     20929     20928     20930     20930     20928     20931     20932     20928     20931
     20932     20928     20930     20932     20928     20929     20934     20938     20939
     20935     20934     20937     20935     20934     20936     20936     20934     20937
     20938     20934     20937     20938     20934     20936     20938     20934     20935
     20940     20944     20945     20941     20940     20943     20941     20940     20942
     20942     20940     20943     20944     20940     20943     20944     20940     20942
     20944     20940     20941     20946     20950     20951     20947     20946     20949
     20947     20946     20948     20948     20946     20949     20950     20946     20949
     20950     20946     20948     20950     20946     20947     20952     20956     20957
     20953     20952     20955     20953     20952     20954     20954     20952     20955
     20956     20952     20955     20956     20952     20954     20956     20952     20953
     20958     20962     20963     20959     20958     20961     20959     20958     20960
     20960     20958     20961     20962     20958     20961     20962     20958     20960
     20962     20958     20959     20964     20968     20969     20965     20964     20967
     20965     20964     20966     20966     20964     20967     20968     20964     20967
     20968     20964     20966     20968     20964     20965     20970     20974     20975
     20971     20970     20973     20971     20970     20972     20972     20970     20973
     20974     20970     20973     20974     20970     20972     20974     20970     20971
     20976     20980     20981     20977     20976     20979     20977     20976     20978
     20978     20976     20979     20980     20976     20979     20980     20976     20978
     20980     20976     20977     20982     20986     20987     20983     20982     20985
     20983     20982     20984     20984     20982     20985     20986     20982     20985
     20986     20982     20984     20986     20982     20983     20988     20992     20993
     20989     20988     20991     20989     20988     20990     20990     20988     20991
     20992     20988     20991     20992     20988     20990     20992     20988     20989
     20994     20998     20999     20995     20994     20997     20995     20994     20996
     20996     20994     20997     20998     20994     20997     20998     20994     20996
     20998     20994     20995     21000     21004     21005     21001     21000     21003
     21001     21000     21002     21002     21000     21003     21004     21000     21003
     21004     21000     21002     21004     21000     21001     21006     21010     21011
     21007     21006     21009     21007     21006     21008     21008     21006     21009
     21010     21006     21009     21010     21006     21008     21010     21006     21007
     21012     21016     21017     21013     21012     21015     21013     21012     21014
     21014     21012     21015     21016     21012     21015     21016     21012     21014
     21016     21012     21013     21018     21022     21023     21019     21018     21021
     21019     21018     21020     21020     21018     21021     21022     21018     21021
     21022     21018     21020     21022     21018     21019     21024     21028     21029
     21025     21024     21027     21025     21024     21026     21026     21024     21027
     21028     21024     21027     21028     21024     21026     21028     21024     21025
     21030     21034     21035     21031     21030     21033     21031     21030     21032
     21032     21030     21033     21034     21030     21033     21034     21030     21032
     21034     21030     21031     21036     21040     21041     21037     21036     21039
     21037     21036     21038     21038     21036     21039     21040     21036     21039
     21040     21036     21038     21040     21036     21037     21042     21046     21047
     21043     21042     21045     21043     21042     21044     21044     21042     21045
     21046     21042     21045     21046     21042     21044     21046     21042     21043
     21048     21052     21053     21049     21048     21051     21049     21048     21050
     21050     21048     21051     21052     21048     21051     21052     21048     21050
     21052     21048     21049     21054     21058     21059     21055     21054     21057
     21055     21054     21056     21056     21054     21057     21058     21054     21057
     21058     21054     21056     21058     21054     21055     21060     21064     21065
     21061     21060     21063     21061     21060     21062     21062     21060     21063
     21064     21060     21063     21064     21060     21062     21064     21060     21061
     21066     21070     21071     21067     21066     21069     21067     21066     21068
     21068     21066     21069     21070     21066     21069     21070     21066     21068
     21070     21066     21067     21072     21076     21077     21073     21072     21075
     21073     21072     21074     21074     21072     21075     21076     21072     21075
     21076     21072     21074     21076     21072     21073     21078     21082     21083
     21079     21078     21081     21079     21078     21080     21080     21078     21081
     21082     21078     21081     21082     21078     21080     21082     21078     21079
     21084     21088     21089     21085     21084     21087     21085     21084     21086
     21086     21084     21087     21088     21084     21087     21088     21084     21086
     21088     21084     21085     21090     21094     21095     21091     21090     21093
     21091     21090     21092     21092     21090     21093     21094     21090     21093
     21094     21090     21092     21094     21090     21091     21096     21100     21101
     21097     21096     21099     21097     21096     21098     21098     21096     21099
     21100     21096     21099     21100     21096     21098     21100     21096     21097
     21102     21106     21107     21103     21102     21105     21103     21102     21104
     21104     21102     21105     21106     21102     21105     21106     21102     21104
     21106     21102     21103     21108     21112     21113     21109     21108     21111
     21109     21108     21110     21110     21108     21111     21112     21108     21111
     21112     21108     21110     21112     21108     21109     21114     21118     21119
     21115     21114     21117     21115     21114     21116     21116     21114     21117
     21118     21114     21117     21118     21114     21116     21118     21114     21115
     21120     21124     21125     21121     21120     21123     21121     21120     21122
     21122     21120     21123     21124     21120     21123     21124     21120     21122
     21124     21120     21121     21126     21130     21131     21127     21126     21129
     21127     21126     21128     21128     21126     21129     21130     21126     21129
     21130     21126     21128     21130     21126     21127     21132     21136     21137
     21133     21132     21135     21133     21132     21134     21134     21132     21135
     21136     21132     21135     21136     21132     21134     21136     21132     21133
     21138     21142     21143     21139     21138     21141     21139     21138     21140
     21140     21138     21141     21142     21138     21141     21142     21138     21140
     21142     21138     21139     21144     21148     21149     21145     21144     21147
     21145     21144     21146     21146     21144     21147     21148     21144     21147
     21148     21144     21146     21148     21144     21145     21150     21154     21155
     21151     21150     21153     21151     21150     21152     21152     21150     21153
     21154     21150     21153     21154     21150     21152     21154     21150     21151
     21156     21160     21161     21157     21156     21159     21157     21156     21158
     21158     21156     21159     21160     21156     21159     21160     21156     21158
     21160     21156     21157     21162     21166     21167     21163     21162     21165
     21163     21162     21164     21164     21162     21165     21166     21162     21165
     21166     21162     21164     21166     21162     21163     21168     21172     21173
     21169     21168     21171     21169     21168     21170     21170     21168     21171
     21172     21168     21171     21172     21168     21170     21172     21168     21169
     21174     21178     21179     21175     21174     21177     21175     21174     21176
     21176     21174     21177     21178     21174     21177     21178     21174     21176
     21178     21174     21175     21180     21184     21185     21181     21180     21183
     21181     21180     21182     21182     21180     21183     21184     21180     21183
     21184     21180     21182     21184     21180     21181     21186     21190     21191
     21187     21186     21189     21187     21186     21188     21188     21186     21189
     21190     21186     21189     21190     21186     21188     21190     21186     21187
     21192     21196     21197     21193     21192     21195     21193     21192     21194
     21194     21192     21195     21196     21192     21195     21196     21192     21194
     21196     21192     21193     21198     21202     21203     21199     21198     21201
     21199     21198     21200     21200     21198     21201     21202     21198     21201
     21202     21198     21200     21202     21198     21199     21204     21208     21209
     21205     21204     21207     21205     21204     21206     21206     21204     21207
     21208     21204     21207     21208     21204     21206     21208     21204     21205
     21210     21214     21215     21211     21210     21213     21211     21210     21212
     21212     21210     21213     21214     21210     21213     21214     21210     21212
     21214     21210     21211     21216     21220     21221     21217     21216     21219
     21217     21216     21218     21218     21216     21219     21220     21216     21219
     21220     21216     21218     21220     21216     21217     21222     21226     21227
     21223     21222     21225     21223     21222     21224     21224     21222     21225
     21226     21222     21225     21226     21222     21224     21226     21222     21223
     21228     21232     21233     21229     21228     21231     21229     21228     21230
     21230     21228     21231     21232     21228     21231     21232     21228     21230
     21232     21228     21229     21234     21238     21239     21235     21234     21237
     21235     21234     21236     21236     21234     21237     21238     21234     21237
     21238     21234     21236     21238     21234     21235     21240     21244     21245
     21241     21240     21243     21241     21240     21242     21242     21240     21243
     21244     21240     21243     21244     21240     21242     21244     21240     21241
     21246     21250     21251     21247     21246     21249     21247     21246     21248
     21248     21246     21249     21250     21246     21249     21250     21246     21248
     21250     21246     21247     21252     21256     21257     21253     21252     21255
     21253     21252     21254     21254     21252     21255     21256     21252     21255
     21256     21252     21254     21256     21252     21253     21258     21262     21263
     21259     21258     21261     21259     21258     21260     21260     21258     21261
     21262     21258     21261     21262     21258     21260     21262     21258     21259
     21264     21268     21269     21265     21264     21267     21265     21264     21266
     21266     21264     21267     21268     21264     21267     21268     21264     21266
     21268     21264     21265     21270     21274     21275     21271     21270     21273
     21271     21270     21272     21272     21270     21273     21274     21270     21273
     21274     21270     21272     21274     21270     21271     21276     21280     21281
     21277     21276     21279     21277     21276     21278     21278     21276     21279
     21280     21276     21279     21280     21276     21278     21280     21276     21277
     21282     21286     21287     21283     21282     21285     21283     21282     21284
     21284     21282     21285     21286     21282     21285     21286     21282     21284
     21286     21282     21283     21288     21292     21293     21289     21288     21291
     21289     21288     21290     21290     21288     21291     21292     21288     21291
     21292     21288     21290     21292     21288     21289     21294     21298     21299
     21295     21294     21297     21295     21294     21296     21296     21294     21297
     21298     21294     21297     21298     21294     21296     21298     21294     21295
     21300     21304     21305     21301     21300     21303     21301     21300     21302
     21302     21300     21303     21304     21300     21303     21304     21300     21302
     21304     21300     21301     21306     21310     21311     21307     21306     21309
     21307     21306     21308     21308     21306     21309     21310     21306     21309
     21310     21306     21308     21310     21306     21307     21312     21316     21317
     21313     21312     21315     21313     21312     21314     21314     21312     21315
     21316     21312     21315     21316     21312     21314     21316     21312     21313
     21318     21322     21323     21319     21318     21321     21319     21318     21320
     21320     21318     21321     21322     21318     21321     21322     21318     21320
     21322     21318     21319     21324     21328     21329     21325     21324     21327
     21325     21324     21326     21326     21324     21327     21328     21324     21327
     21328     21324     21326     21328     21324     21325     21330     21334     21335
     21331     21330     21333     21331     21330     21332     21332     21330     21333
     21334     21330     21333     21334     21330     21332     21334     21330     21331
     21336     21340     21341     21337     21336     21339     21337     21336     21338
     21338     21336     21339     21340     21336     21339     21340     21336     21338
     21340     21336     21337     21342     21346     21347     21343     21342     21345
     21343     21342     21344     21344     21342     21345     21346     21342     21345
     21346     21342     21344     21346     21342     21343     21348     21352     21353
     21349     21348     21351     21349     21348     21350     21350     21348     21351
     21352     21348     21351     21352     21348     21350     21352     21348     21349
     21354     21358     21359     21355     21354     21357     21355     21354     21356
     21356     21354     21357     21358     21354     21357     21358     21354     21356
     21358     21354     21355     21360     21364     21365     21361     21360     21363
     21361     21360     21362     21362     21360     21363     21364     21360     21363
     21364     21360     21362     21364     21360     21361     21366     21370     21371
     21367     21366     21369     21367     21366     21368     21368     21366     21369
     21370     21366     21369     21370     21366     21368     21370     21366     21367
     21372     21376     21377     21373     21372     21375     21373     21372     21374
     21374     21372     21375     21376     21372     21375     21376     21372     21374
     21376     21372     21373     21378     21382     21383     21379     21378     21381
     21379     21378     21380     21380     21378     21381     21382     21378     21381
     21382     21378     21380     21382     21378     21379     21384     21388     21389
     21385     21384     21387     21385     21384     21386     21386     21384     21387
     21388     21384     21387     21388     21384     21386     21388     21384     21385
     21390     21394     21395     21391     21390     21393     21391     21390     21392
     21392     21390     21393     21394     21390     21393     21394     21390     21392
     21394     21390     21391     21396     21400     21401     21397     21396     21399
     21397     21396     21398     21398     21396     21399     21400     21396     21399
     21400     21396     21398     21400     21396     21397     21402     21406     21407
     21403     21402     21405     21403     21402     21404     21404     21402     21405
     21406     21402     21405     21406     21402     21404     21406     21402     21403
     21408     21412     21413     21409     21408     21411     21409     21408     21410
     21410     21408     21411     21412     21408     21411     21412     21408     21410
     21412     21408     21409     21414     21418     21419     21415     21414     21417
     21415     21414     21416     21416     21414     21417     21418     21414     21417
     21418     21414     21416     21418     21414     21415     21420     21424     21425
     21421     21420     21423     21421     21420     21422     21422     21420     21423
     21424     21420     21423     21424     21420     21422     21424     21420     21421
     21426     21430     21431     21427     21426     21429     21427     21426     21428
     21428     21426     21429     21430     21426     21429     21430     21426     21428
     21430     21426     21427     21432     21436     21437     21433     21432     21435
     21433     21432     21434     21434     21432     21435     21436     21432     21435
     21436     21432     21434     21436     21432     21433     21438     21442     21443
     21439     21438     21441     21439     21438     21440     21440     21438     21441
     21442     21438     21441     21442     21438     21440     21442     21438     21439
     21444     21448     21449     21445     21444     21447     21445     21444     21446
     21446     21444     21447     21448     21444     21447     21448     21444     21446
     21448     21444     21445     21450     21454     21455     21451     21450     21453
     21451     21450     21452     21452     21450     21453     21454     21450     21453
     21454     21450     21452     21454     21450     21451     21456     21460     21461
     21457     21456     21459     21457     21456     21458     21458     21456     21459
     21460     21456     21459     21460     21456     21458     21460     21456     21457
     21462     21466     21467     21463     21462     21465     21463     21462     21464
     21464     21462     21465     21466     21462     21465     21466     21462     21464
     21466     21462     21463     21468     21472     21473     21469     21468     21471
     21469     21468     21470     21470     21468     21471     21472     21468     21471
     21472     21468     21470     21472     21468     21469     21474     21478     21479
     21475     21474     21477     21475     21474     21476     21476     21474     21477
     21478     21474     21477     21478     21474     21476     21478     21474     21475
     21480     21484     21485     21481     21480     21483     21481     21480     21482
     21482     21480     21483     21484     21480     21483     21484     21480     21482
     21484     21480     21481     21486     21490     21491     21487     21486     21489
     21487     21486     21488     21488     21486     21489     21490     21486     21489
     21490     21486     21488     21490     21486     21487     21492     21496     21497
     21493     21492     21495     21493     21492     21494     21494     21492     21495
     21496     21492     21495     21496     21492     21494     21496     21492     21493
     21498     21502     21503     21499     21498     21501     21499     21498     21500
     21500     21498     21501     21502     21498     21501     21502     21498     21500
     21502     21498     21499     21504     21508     21509     21505     21504     21507
     21505     21504     21506     21506     21504     21507     21508     21504     21507
     21508     21504     21506     21508     21504     21505     21510     21514     21515
     21511     21510     21513     21511     21510     21512     21512     21510     21513
     21514     21510     21513     21514     21510     21512     21514     21510     21511
     21516     21520     21521     21517     21516     21519     21517     21516     21518
     21518     21516     21519     21520     21516     21519     21520     21516     21518
     21520     21516     21517     21522     21526     21527     21523     21522     21525
     21523     21522     21524     21524     21522     21525     21526     21522     21525
     21526     21522     21524     21526     21522     21523     21528     21532     21533
     21529     21528     21531     21529     21528     21530     21530     21528     21531
     21532     21528     21531     21532     21528     21530     21532     21528     21529
     21534     21538     21539     21535     21534     21537     21535     21534     21536
     21536     21534     21537     21538     21534     21537     21538     21534     21536
     21538     21534     21535     21540     21544     21545     21541     21540     21543
     21541     21540     21542     21542     21540     21543     21544     21540     21543
     21544     21540     21542     21544     21540     21541     21546     21550     21551
     21547     21546     21549     21547     21546     21548     21548     21546     21549
     21550     21546     21549     21550     21546     21548     21550     21546     21547
     21552     21556     21557     21553     21552     21555     21553     21552     21554
     21554     21552     21555     21556     21552     21555     21556     21552     21554
     21556     21552     21553     21558     21562     21563     21559     21558     21561
     21559     21558     21560     21560     21558     21561     21562     21558     21561
     21562     21558     21560     21562     21558     21559     21564     21568     21569
     21565     21564     21567     21565     21564     21566     21566     21564     21567
     21568     21564     21567     21568     21564     21566     21568     21564     21565
     21570     21574     21575     21571     21570     21573     21571     21570     21572
     21572     21570     21573     21574     21570     21573     21574     21570     21572
     21574     21570     21571     21576     21580     21581     21577     21576     21579
     21577     21576     21578     21578     21576     21579     21580     21576     21579
     21580     21576     21578     21580     21576     21577     21582     21586     21587
     21583     21582     21585     21583     21582     21584     21584     21582     21585
     21586     21582     21585     21586     21582     21584     21586     21582     21583
     21588     21592     21593     21589     21588     21591     21589     21588     21590
     21590     21588     21591     21592     21588     21591     21592     21588     21590
     21592     21588     21589     21594     21598     21599     21595     21594     21597
     21595     21594     21596     21596     21594     21597     21598     21594     21597
     21598     21594     21596     21598     21594     21595     21600     21604     21605
     21601     21600     21603     21601     21600     21602     21602     21600     21603
     21604     21600     21603     21604     21600     21602     21604     21600     21601
     21606     21610     21611     21607     21606     21609     21607     21606     21608
     21608     21606     21609     21610     21606     21609     21610     21606     21608
     21610     21606     21607     21612     21616     21617     21613     21612     21615
     21613     21612     21614     21614     21612     21615     21616     21612     21615
     21616     21612     21614     21616     21612     21613     21618     21622     21623
     21619     21618     21621     21619     21618     21620     21620     21618     21621
     21622     21618     21621     21622     21618     21620     21622     21618     21619
     21624     21628     21629     21625     21624     21627     21625     21624     21626
     21626     21624     21627     21628     21624     21627     21628     21624     21626
     21628     21624     21625     21630     21634     21635     21631     21630     21633
     21631     21630     21632     21632     21630     21633     21634     21630     21633
     21634     21630     21632     21634     21630     21631     21636     21640     21641
     21637     21636     21639     21637     21636     21638     21638     21636     21639
     21640     21636     21639     21640     21636     21638     21640     21636     21637
     21642     21646     21647     21643     21642     21645     21643     21642     21644
     21644     21642     21645     21646     21642     21645     21646     21642     21644
     21646     21642     21643     21648     21652     21653     21649     21648     21651
     21649     21648     21650     21650     21648     21651     21652     21648     21651
     21652     21648     21650     21652     21648     21649     21654     21658     21659
     21655     21654     21657     21655     21654     21656     21656     21654     21657
     21658     21654     21657     21658     21654     21656     21658     21654     21655
     21660     21664     21665     21661     21660     21663     21661     21660     21662
     21662     21660     21663     21664     21660     21663     21664     21660     21662
     21664     21660     21661     21666     21670     21671     21667     21666     21669
     21667     21666     21668     21668     21666     21669     21670     21666     21669
     21670     21666     21668     21670     21666     21667     21672     21676     21677
     21673     21672     21675     21673     21672     21674     21674     21672     21675
     21676     21672     21675     21676     21672     21674     21676     21672     21673
     21678     21682     21683     21679     21678     21681     21679     21678     21680
     21680     21678     21681     21682     21678     21681     21682     21678     21680
     21682     21678     21679     21684     21688     21689     21685     21684     21687
     21685     21684     21686     21686     21684     21687     21688     21684     21687
     21688     21684     21686     21688     21684     21685     21690     21694     21695
     21691     21690     21693     21691     21690     21692     21692     21690     21693
     21694     21690     21693     21694     21690     21692     21694     21690     21691
     21696     21700     21701     21697     21696     21699     21697     21696     21698
     21698     21696     21699     21700     21696     21699     21700     21696     21698
     21700     21696     21697     21702     21706     21707     21703     21702     21705
     21703     21702     21704     21704     21702     21705     21706     21702     21705
     21706     21702     21704     21706     21702     21703     21708     21712     21713
     21709     21708     21711     21709     21708     21710     21710     21708     21711
     21712     21708     21711     21712     21708     21710     21712     21708     21709
     21714     21718     21719     21715     21714     21717     21715     21714     21716
     21716     21714     21717     21718     21714     21717     21718     21714     21716
     21718     21714     21715     21720     21724     21725     21721     21720     21723
     21721     21720     21722     21722     21720     21723     21724     21720     21723
     21724     21720     21722     21724     21720     21721     21726     21730     21731
     21727     21726     21729     21727     21726     21728     21728     21726     21729
     21730     21726     21729     21730     21726     21728     21730     21726     21727
     21732     21736     21737     21733     21732     21735     21733     21732     21734
     21734     21732     21735     21736     21732     21735     21736     21732     21734
     21736     21732     21733     21738     21742     21743     21739     21738     21741
     21739     21738     21740     21740     21738     21741     21742     21738     21741
     21742     21738     21740     21742     21738     21739     21744     21748     21749
     21745     21744     21747     21745     21744     21746     21746     21744     21747
     21748     21744     21747     21748     21744     21746     21748     21744     21745
     21750     21754     21755     21751     21750     21753     21751     21750     21752
     21752     21750     21753     21754     21750     21753     21754     21750     21752
     21754     21750     21751     21756     21760     21761     21757     21756     21759
     21757     21756     21758     21758     21756     21759     21760     21756     21759
     21760     21756     21758     21760     21756     21757     21762     21766     21767
     21763     21762     21765     21763     21762     21764     21764     21762     21765
     21766     21762     21765     21766     21762     21764     21766     21762     21763
     21768     21772     21773     21769     21768     21771     21769     21768     21770
     21770     21768     21771     21772     21768     21771     21772     21768     21770
     21772     21768     21769     21774     21778     21779     21775     21774     21777
     21775     21774     21776     21776     21774     21777     21778     21774     21777
     21778     21774     21776     21778     21774     21775     21780     21784     21785
     21781     21780     21783     21781     21780     21782     21782     21780     21783
     21784     21780     21783     21784     21780     21782     21784     21780     21781
     21786     21790     21791     21787     21786     21789     21787     21786     21788
     21788     21786     21789     21790     21786     21789     21790     21786     21788
     21790     21786     21787     21792     21796     21797     21793     21792     21795
     21793     21792     21794     21794     21792     21795     21796     21792     21795
     21796     21792     21794     21796     21792     21793     21798     21802     21803
     21799     21798     21801     21799     21798     21800     21800     21798     21801
     21802     21798     21801     21802     21798     21800     21802     21798     21799
     21804     21808     21809     21805     21804     21807     21805     21804     21806
     21806     21804     21807     21808     21804     21807     21808     21804     21806
     21808     21804     21805     21810     21814     21815     21811     21810     21813
     21811     21810     21812     21812     21810     21813     21814     21810     21813
     21814     21810     21812     21814     21810     21811     21816     21820     21821
     21817     21816     21819     21817     21816     21818     21818     21816     21819
     21820     21816     21819     21820     21816     21818     21820     21816     21817
     21822     21826     21827     21823     21822     21825     21823     21822     21824
     21824     21822     21825     21826     21822     21825     21826     21822     21824
     21826     21822     21823     21828     21832     21833     21829     21828     21831
     21829     21828     21830     21830     21828     21831     21832     21828     21831
     21832     21828     21830     21832     21828     21829     21834     21838     21839
     21835     21834     21837     21835     21834     21836     21836     21834     21837
     21838     21834     21837     21838     21834     21836     21838     21834     21835
     21840     21844     21845     21841     21840     21843     21841     21840     21842
     21842     21840     21843     21844     21840     21843     21844     21840     21842
     21844     21840     21841     21846     21850     21851     21847     21846     21849
     21847     21846     21848     21848     21846     21849     21850     21846     21849
     21850     21846     21848     21850     21846     21847     21852     21856     21857
     21853     21852     21855     21853     21852     21854     21854     21852     21855
     21856     21852     21855     21856     21852     21854     21856     21852     21853
     21858     21862     21863     21859     21858     21861     21859     21858     21860
     21860     21858     21861     21862     21858     21861     21862     21858     21860
     21862     21858     21859     21864     21868     21869     21865     21864     21867
     21865     21864     21866     21866     21864     21867     21868     21864     21867
     21868     21864     21866     21868     21864     21865     21870     21874     21875
     21871     21870     21873     21871     21870     21872     21872     21870     21873
     21874     21870     21873     21874     21870     21872     21874     21870     21871
     21876     21880     21881     21877     21876     21879     21877     21876     21878
     21878     21876     21879     21880     21876     21879     21880     21876     21878
     21880     21876     21877     21882     21886     21887     21883     21882     21885
     21883     21882     21884     21884     21882     21885     21886     21882     21885
     21886     21882     21884     21886     21882     21883     21888     21892     21893
     21889     21888     21891     21889     21888     21890     21890     21888     21891
     21892     21888     21891     21892     21888     21890     21892     21888     21889
     21894     21898     21899     21895     21894     21897     21895     21894     21896
     21896     21894     21897     21898     21894     21897     21898     21894     21896
     21898     21894     21895     21900     21904     21905     21901     21900     21903
     21901     21900     21902     21902     21900     21903     21904     21900     21903
     21904     21900     21902     21904     21900     21901     21906     21910     21911
     21907     21906     21909     21907     21906     21908     21908     21906     21909
     21910     21906     21909     21910     21906     21908     21910     21906     21907
     21912     21916     21917     21913     21912     21915     21913     21912     21914
     21914     21912     21915     21916     21912     21915     21916     21912     21914
     21916     21912     21913     21918     21922     21923     21919     21918     21921
     21919     21918     21920     21920     21918     21921     21922     21918     21921
     21922     21918     21920     21922     21918     21919     21924     21928     21929
     21925     21924     21927     21925     21924     21926     21926     21924     21927
     21928     21924     21927     21928     21924     21926     21928     21924     21925
     21930     21934     21935     21931     21930     21933     21931     21930     21932
     21932     21930     21933     21934     21930     21933     21934     21930     21932
     21934     21930     21931     21936     21940     21941     21937     21936     21939
     21937     21936     21938     21938     21936     21939     21940     21936     21939
     21940     21936     21938     21940     21936     21937     21942     21946     21947
     21943     21942     21945     21943     21942     21944     21944     21942     21945
     21946     21942     21945     21946     21942     21944     21946     21942     21943
     21948     21952     21953     21949     21948     21951     21949     21948     21950
     21950     21948     21951     21952     21948     21951     21952     21948     21950
     21952     21948     21949     21954     21958     21959     21955     21954     21957
     21955     21954     21956     21956     21954     21957     21958     21954     21957
     21958     21954     21956     21958     21954     21955     21960     21964     21965
     21961     21960     21963     21961     21960     21962     21962     21960     21963
     21964     21960     21963     21964     21960     21962     21964     21960     21961
     21966     21970     21971     21967     21966     21969     21967     21966     21968
     21968     21966     21969     21970     21966     21969     21970     21966     21968
     21970     21966     21967     21972     21976     21977     21973     21972     21975
     21973     21972     21974     21974     21972     21975     21976     21972     21975
     21976     21972     21974     21976     21972     21973     21978     21982     21983
     21979     21978     21981     21979     21978     21980     21980     21978     21981
     21982     21978     21981     21982     21978     21980     21982     21978     21979
     21984     21988     21989     21985     21984     21987     21985     21984     21986
     21986     21984     21987     21988     21984     21987     21988     21984     21986
     21988     21984     21985     21990     21994     21995     21991     21990     21993
     21991     21990     21992     21992     21990     21993     21994     21990     21993
     21994     21990     21992     21994     21990     21991     21996     22000     22001
     21997     21996     21999     21997     21996     21998     21998     21996     21999
     22000     21996     21999     22000     21996     21998     22000     21996     21997
     22002     22006     22007     22003     22002     22005     22003     22002     22004
     22004     22002     22005     22006     22002     22005     22006     22002     22004
     22006     22002     22003     22008     22012     22013     22009     22008     22011
     22009     22008     22010     22010     22008     22011     22012     22008     22011
     22012     22008     22010     22012     22008     22009     22014     22018     22019
     22015     22014     22017     22015     22014     22016     22016     22014     22017
     22018     22014     22017     22018     22014     22016     22018     22014     22015
     22020     22024     22025     22021     22020     22023     22021     22020     22022
     22022     22020     22023     22024     22020     22023     22024     22020     22022
     22024     22020     22021     22026     22030     22031     22027     22026     22029
     22027     22026     22028     22028     22026     22029     22030     22026     22029
     22030     22026     22028     22030     22026     22027     22032     22036     22037
     22033     22032     22035     22033     22032     22034     22034     22032     22035
     22036     22032     22035     22036     22032     22034     22036     22032     22033
     22038     22042     22043     22039     22038     22041     22039     22038     22040
     22040     22038     22041     22042     22038     22041     22042     22038     22040
     22042     22038     22039     22044     22048     22049     22045     22044     22047
     22045     22044     22046     22046     22044     22047     22048     22044     22047
     22048     22044     22046     22048     22044     22045     22050     22054     22055
     22051     22050     22053     22051     22050     22052     22052     22050     22053
     22054     22050     22053     22054     22050     22052     22054     22050     22051
     22056     22060     22061     22057     22056     22059     22057     22056     22058
     22058     22056     22059     22060     22056     22059     22060     22056     22058
     22060     22056     22057     22062     22066     22067     22063     22062     22065
     22063     22062     22064     22064     22062     22065     22066     22062     22065
     22066     22062     22064     22066     22062     22063     22068     22072     22073
     22069     22068     22071     22069     22068     22070     22070     22068     22071
     22072     22068     22071     22072     22068     22070     22072     22068     22069
     22074     22078     22079     22075     22074     22077     22075     22074     22076
     22076     22074     22077     22078     22074     22077     22078     22074     22076
     22078     22074     22075     22080     22084     22085     22081     22080     22083
     22081     22080     22082     22082     22080     22083     22084     22080     22083
     22084     22080     22082     22084     22080     22081     22086     22090     22091
     22087     22086     22089     22087     22086     22088     22088     22086     22089
     22090     22086     22089     22090     22086     22088     22090     22086     22087
     22092     22096     22097     22093     22092     22095     22093     22092     22094
     22094     22092     22095     22096     22092     22095     22096     22092     22094
     22096     22092     22093     22098     22102     22103     22099     22098     22101
     22099     22098     22100     22100     22098     22101     22102     22098     22101
     22102     22098     22100     22102     22098     22099     22104     22108     22109
     22105     22104     22107     22105     22104     22106     22106     22104     22107
     22108     22104     22107     22108     22104     22106     22108     22104     22105
     22110     22114     22115     22111     22110     22113     22111     22110     22112
     22112     22110     22113     22114     22110     22113     22114     22110     22112
     22114     22110     22111     22116     22120     22121     22117     22116     22119
     22117     22116     22118     22118     22116     22119     22120     22116     22119
     22120     22116     22118     22120     22116     22117     22122     22126     22127
     22123     22122     22125     22123     22122     22124     22124     22122     22125
     22126     22122     22125     22126     22122     22124     22126     22122     22123
     22128     22132     22133     22129     22128     22131     22129     22128     22130
     22130     22128     22131     22132     22128     22131     22132     22128     22130
     22132     22128     22129     22134     22138     22139     22135     22134     22137
     22135     22134     22136     22136     22134     22137     22138     22134     22137
     22138     22134     22136     22138     22134     22135     22140     22144     22145
     22141     22140     22143     22141     22140     22142     22142     22140     22143
     22144     22140     22143     22144     22140     22142     22144     22140     22141
     22146     22150     22151     22147     22146     22149     22147     22146     22148
     22148     22146     22149     22150     22146     22149     22150     22146     22148
     22150     22146     22147     22152     22156     22157     22153     22152     22155
     22153     22152     22154     22154     22152     22155     22156     22152     22155
     22156     22152     22154     22156     22152     22153     22158     22162     22163
     22159     22158     22161     22159     22158     22160     22160     22158     22161
     22162     22158     22161     22162     22158     22160     22162     22158     22159
     22164     22168     22169     22165     22164     22167     22165     22164     22166
     22166     22164     22167     22168     22164     22167     22168     22164     22166
     22168     22164     22165     22170     22174     22175     22171     22170     22173
     22171     22170     22172     22172     22170     22173     22174     22170     22173
     22174     22170     22172     22174     22170     22171     22176     22180     22181
     22177     22176     22179     22177     22176     22178     22178     22176     22179
     22180     22176     22179     22180     22176     22178     22180     22176     22177
     22182     22186     22187     22183     22182     22185     22183     22182     22184
     22184     22182     22185     22186     22182     22185     22186     22182     22184
     22186     22182     22183     22188     22192     22193     22189     22188     22191
     22189     22188     22190     22190     22188     22191     22192     22188     22191
     22192     22188     22190     22192     22188     22189     22194     22198     22199
     22195     22194     22197     22195     22194     22196     22196     22194     22197
     22198     22194     22197     22198     22194     22196     22198     22194     22195
     22200     22204     22205     22201     22200     22203     22201     22200     22202
     22202     22200     22203     22204     22200     22203     22204     22200     22202
     22204     22200     22201     22206     22210     22211     22207     22206     22209
     22207     22206     22208     22208     22206     22209     22210     22206     22209
     22210     22206     22208     22210     22206     22207     22212     22216     22217
     22213     22212     22215     22213     22212     22214     22214     22212     22215
     22216     22212     22215     22216     22212     22214     22216     22212     22213
     22218     22222     22223     22219     22218     22221     22219     22218     22220
     22220     22218     22221     22222     22218     22221     22222     22218     22220
     22222     22218     22219     22224     22228     22229     22225     22224     22227
     22225     22224     22226     22226     22224     22227     22228     22224     22227
     22228     22224     22226     22228     22224     22225     22230     22234     22235
     22231     22230     22233     22231     22230     22232     22232     22230     22233
     22234     22230     22233     22234     22230     22232     22234     22230     22231
     22236     22240     22241     22237     22236     22239     22237     22236     22238
     22238     22236     22239     22240     22236     22239     22240     22236     22238
     22240     22236     22237     22242     22246     22247     22243     22242     22245
     22243     22242     22244     22244     22242     22245     22246     22242     22245
     22246     22242     22244     22246     22242     22243     22248     22252     22253
     22249     22248     22251     22249     22248     22250     22250     22248     22251
     22252     22248     22251     22252     22248     22250     22252     22248     22249
     22254     22258     22259     22255     22254     22257     22255     22254     22256
     22256     22254     22257     22258     22254     22257     22258     22254     22256
     22258     22254     22255     22260     22264     22265     22261     22260     22263
     22261     22260     22262     22262     22260     22263     22264     22260     22263
     22264     22260     22262     22264     22260     22261     22266     22270     22271
     22267     22266     22269     22267     22266     22268     22268     22266     22269
     22270     22266     22269     22270     22266     22268     22270     22266     22267
     22272     22276     22277     22273     22272     22275     22273     22272     22274
     22274     22272     22275     22276     22272     22275     22276     22272     22274
     22276     22272     22273     22278     22282     22283     22279     22278     22281
     22279     22278     22280     22280     22278     22281     22282     22278     22281
     22282     22278     22280     22282     22278     22279     22284     22288     22289
     22285     22284     22287     22285     22284     22286     22286     22284     22287
     22288     22284     22287     22288     22284     22286     22288     22284     22285
     22290     22294     22295     22291     22290     22293     22291     22290     22292
     22292     22290     22293     22294     22290     22293     22294     22290     22292
     22294     22290     22291     22296     22300     22301     22297     22296     22299
     22297     22296     22298     22298     22296     22299     22300     22296     22299
     22300     22296     22298     22300     22296     22297     22302     22306     22307
     22303     22302     22305     22303     22302     22304     22304     22302     22305
     22306     22302     22305     22306     22302     22304     22306     22302     22303
     22308     22312     22313     22309     22308     22311     22309     22308     22310
     22310     22308     22311     22312     22308     22311     22312     22308     22310
     22312     22308     22309     22314     22318     22319     22315     22314     22317
     22315     22314     22316     22316     22314     22317     22318     22314     22317
     22318     22314     22316     22318     22314     22315     22320     22324     22325
     22321     22320     22323     22321     22320     22322     22322     22320     22323
     22324     22320     22323     22324     22320     22322     22324     22320     22321
     22326     22330     22331     22327     22326     22329     22327     22326     22328
     22328     22326     22329     22330     22326     22329     22330     22326     22328
     22330     22326     22327     22332     22336     22337     22333     22332     22335
     22333     22332     22334     22334     22332     22335     22336     22332     22335
     22336     22332     22334     22336     22332     22333     22338     22342     22343
     22339     22338     22341     22339     22338     22340     22340     22338     22341
     22342     22338     22341     22342     22338     22340     22342     22338     22339
     22344     22348     22349     22345     22344     22347     22345     22344     22346
     22346     22344     22347     22348     22344     22347     22348     22344     22346
     22348     22344     22345     22350     22354     22355     22351     22350     22353
     22351     22350     22352     22352     22350     22353     22354     22350     22353
     22354     22350     22352     22354     22350     22351     22356     22360     22361
     22357     22356     22359     22357     22356     22358     22358     22356     22359
     22360     22356     22359     22360     22356     22358     22360     22356     22357
     22362     22366     22367     22363     22362     22365     22363     22362     22364
     22364     22362     22365     22366     22362     22365     22366     22362     22364
     22366     22362     22363     22368     22372     22373     22369     22368     22371
     22369     22368     22370     22370     22368     22371     22372     22368     22371
     22372     22368     22370     22372     22368     22369     22374     22378     22379
     22375     22374     22377     22375     22374     22376     22376     22374     22377
     22378     22374     22377     22378     22374     22376     22378     22374     22375
     22380     22384     22385     22381     22380     22383     22381     22380     22382
     22382     22380     22383     22384     22380     22383     22384     22380     22382
     22384     22380     22381     22386     22390     22391     22387     22386     22389
     22387     22386     22388     22388     22386     22389     22390     22386     22389
     22390     22386     22388     22390     22386     22387     22392     22396     22397
     22393     22392     22395     22393     22392     22394     22394     22392     22395
     22396     22392     22395     22396     22392     22394     22396     22392     22393
     22398     22402     22403     22399     22398     22401     22399     22398     22400
     22400     22398     22401     22402     22398     22401     22402     22398     22400
     22402     22398     22399     22404     22408     22409     22405     22404     22407
     22405     22404     22406     22406     22404     22407     22408     22404     22407
     22408     22404     22406     22408     22404     22405     22410     22414     22415
     22411     22410     22413     22411     22410     22412     22412     22410     22413
     22414     22410     22413     22414     22410     22412     22414     22410     22411
     22416     22420     22421     22417     22416     22419     22417     22416     22418
     22418     22416     22419     22420     22416     22419     22420     22416     22418
     22420     22416     22417     22422     22426     22427     22423     22422     22425
     22423     22422     22424     22424     22422     22425     22426     22422     22425
     22426     22422     22424     22426     22422     22423     22428     22432     22433
     22429     22428     22431     22429     22428     22430     22430     22428     22431
     22432     22428     22431     22432     22428     22430     22432     22428     22429
     22434     22438     22439     22435     22434     22437     22435     22434     22436
     22436     22434     22437     22438     22434     22437     22438     22434     22436
     22438     22434     22435     22440     22444     22445     22441     22440     22443
     22441     22440     22442     22442     22440     22443     22444     22440     22443
     22444     22440     22442     22444     22440     22441     22446     22450     22451
     22447     22446     22449     22447     22446     22448     22448     22446     22449
     22450     22446     22449     22450     22446     22448     22450     22446     22447
     22452     22456     22457     22453     22452     22455     22453     22452     22454
     22454     22452     22455     22456     22452     22455     22456     22452     22454
     22456     22452     22453     22458     22462     22463     22459     22458     22461
     22459     22458     22460     22460     22458     22461     22462     22458     22461
     22462     22458     22460     22462     22458     22459     22464     22468     22469
     22465     22464     22467     22465     22464     22466     22466     22464     22467
     22468     22464     22467     22468     22464     22466     22468     22464     22465
     22470     22474     22475     22471     22470     22473     22471     22470     22472
     22472     22470     22473     22474     22470     22473     22474     22470     22472
     22474     22470     22471     22476     22480     22481     22477     22476     22479
     22477     22476     22478     22478     22476     22479     22480     22476     22479
     22480     22476     22478     22480     22476     22477     22482     22486     22487
     22483     22482     22485     22483     22482     22484     22484     22482     22485
     22486     22482     22485     22486     22482     22484     22486     22482     22483
     22488     22492     22493     22489     22488     22491     22489     22488     22490
     22490     22488     22491     22492     22488     22491     22492     22488     22490
     22492     22488     22489     22494     22498     22499     22495     22494     22497
     22495     22494     22496     22496     22494     22497     22498     22494     22497
     22498     22494     22496     22498     22494     22495     22500     22504     22505
     22501     22500     22503     22501     22500     22502     22502     22500     22503
     22504     22500     22503     22504     22500     22502     22504     22500     22501
     22506     22510     22511     22507     22506     22509     22507     22506     22508
     22508     22506     22509     22510     22506     22509     22510     22506     22508
     22510     22506     22507     22512     22516     22517     22513     22512     22515
     22513     22512     22514     22514     22512     22515     22516     22512     22515
     22516     22512     22514     22516     22512     22513     22518     22522     22523
     22519     22518     22521     22519     22518     22520     22520     22518     22521
     22522     22518     22521     22522     22518     22520     22522     22518     22519
     22524     22528     22529     22525     22524     22527     22525     22524     22526
     22526     22524     22527     22528     22524     22527     22528     22524     22526
     22528     22524     22525     22530     22534     22535     22531     22530     22533
     22531     22530     22532     22532     22530     22533     22534     22530     22533
     22534     22530     22532     22534     22530     22531     22536     22540     22541
     22537     22536     22539     22537     22536     22538     22538     22536     22539
     22540     22536     22539     22540     22536     22538     22540     22536     22537
     22542     22546     22547     22543     22542     22545     22543     22542     22544
     22544     22542     22545     22546     22542     22545     22546     22542     22544
     22546     22542     22543     22548     22552     22553     22549     22548     22551
     22549     22548     22550     22550     22548     22551     22552     22548     22551
     22552     22548     22550     22552     22548     22549     22554     22558     22559
     22555     22554     22557     22555     22554     22556     22556     22554     22557
     22558     22554     22557     22558     22554     22556     22558     22554     22555
     22560     22564     22565     22561     22560     22563     22561     22560     22562
     22562     22560     22563     22564     22560     22563     22564     22560     22562
     22564     22560     22561     22566     22570     22571     22567     22566     22569
     22567     22566     22568     22568     22566     22569     22570     22566     22569
     22570     22566     22568     22570     22566     22567     22572     22576     22577
     22573     22572     22575     22573     22572     22574     22574     22572     22575
     22576     22572     22575     22576     22572     22574     22576     22572     22573
     22578     22582     22583     22579     22578     22581     22579     22578     22580
     22580     22578     22581     22582     22578     22581     22582     22578     22580
     22582     22578     22579     22584     22588     22589     22585     22584     22587
     22585     22584     22586     22586     22584     22587     22588     22584     22587
     22588     22584     22586     22588     22584     22585     22590     22594     22595
     22591     22590     22593     22591     22590     22592     22592     22590     22593
     22594     22590     22593     22594     22590     22592     22594     22590     22591
     22596     22600     22601     22597     22596     22599     22597     22596     22598
     22598     22596     22599     22600     22596     22599     22600     22596     22598
     22600     22596     22597     22602     22606     22607     22603     22602     22605
     22603     22602     22604     22604     22602     22605     22606     22602     22605
     22606     22602     22604     22606     22602     22603     22608     22612     22613
     22609     22608     22611     22609     22608     22610     22610     22608     22611
     22612     22608     22611     22612     22608     22610     22612     22608     22609
     22614     22618     22619     22615     22614     22617     22615     22614     22616
     22616     22614     22617     22618     22614     22617     22618     22614     22616
     22618     22614     22615     22620     22624     22625     22621     22620     22623
     22621     22620     22622     22622     22620     22623     22624     22620     22623
     22624     22620     22622     22624     22620     22621     22626     22630     22631
     22627     22626     22629     22627     22626     22628     22628     22626     22629
     22630     22626     22629     22630     22626     22628     22630     22626     22627
     22632     22636     22637     22633     22632     22635     22633     22632     22634
     22634     22632     22635     22636     22632     22635     22636     22632     22634
     22636     22632     22633     22638     22642     22643     22639     22638     22641
     22639     22638     22640     22640     22638     22641     22642     22638     22641
     22642     22638     22640     22642     22638     22639     22644     22648     22649
     22645     22644     22647     22645     22644     22646     22646     22644     22647
     22648     22644     22647     22648     22644     22646     22648     22644     22645
     22650     22654     22655     22651     22650     22653     22651     22650     22652
     22652     22650     22653     22654     22650     22653     22654     22650     22652
     22654     22650     22651     22656     22660     22661     22657     22656     22659
     22657     22656     22658     22658     22656     22659     22660     22656     22659
     22660     22656     22658     22660     22656     22657     22662     22666     22667
     22663     22662     22665     22663     22662     22664     22664     22662     22665
     22666     22662     22665     22666     22662     22664     22666     22662     22663
     22668     22672     22673     22669     22668     22671     22669     22668     22670
     22670     22668     22671     22672     22668     22671     22672     22668     22670
     22672     22668     22669     22674     22678     22679     22675     22674     22677
     22675     22674     22676     22676     22674     22677     22678     22674     22677
     22678     22674     22676     22678     22674     22675     22680     22684     22685
     22681     22680     22683     22681     22680     22682     22682     22680     22683
     22684     22680     22683     22684     22680     22682     22684     22680     22681
     22686     22690     22691     22687     22686     22689     22687     22686     22688
     22688     22686     22689     22690     22686     22689     22690     22686     22688
     22690     22686     22687     22692     22696     22697     22693     22692     22695
     22693     22692     22694     22694     22692     22695     22696     22692     22695
     22696     22692     22694     22696     22692     22693     22698     22702     22703
     22699     22698     22701     22699     22698     22700     22700     22698     22701
     22702     22698     22701     22702     22698     22700     22702     22698     22699
     22704     22708     22709     22705     22704     22707     22705     22704     22706
     22706     22704     22707     22708     22704     22707     22708     22704     22706
     22708     22704     22705     22710     22714     22715     22711     22710     22713
     22711     22710     22712     22712     22710     22713     22714     22710     22713
     22714     22710     22712     22714     22710     22711     22716     22720     22721
     22717     22716     22719     22717     22716     22718     22718     22716     22719
     22720     22716     22719     22720     22716     22718     22720     22716     22717
     22722     22726     22727     22723     22722     22725     22723     22722     22724
     22724     22722     22725     22726     22722     22725     22726     22722     22724
     22726     22722     22723     22728     22732     22733     22729     22728     22731
     22729     22728     22730     22730     22728     22731     22732     22728     22731
     22732     22728     22730     22732     22728     22729     22734     22738     22739
     22735     22734     22737     22735     22734     22736     22736     22734     22737
     22738     22734     22737     22738     22734     22736     22738     22734     22735
     22740     22744     22745     22741     22740     22743     22741     22740     22742
     22742     22740     22743     22744     22740     22743     22744     22740     22742
     22744     22740     22741     22746     22750     22751     22747     22746     22749
     22747     22746     22748     22748     22746     22749     22750     22746     22749
     22750     22746     22748     22750     22746     22747     22752     22756     22757
     22753     22752     22755     22753     22752     22754     22754     22752     22755
     22756     22752     22755     22756     22752     22754     22756     22752     22753
     22758     22762     22763     22759     22758     22761     22759     22758     22760
     22760     22758     22761     22762     22758     22761     22762     22758     22760
     22762     22758     22759     22764     22768     22769     22765     22764     22767
     22765     22764     22766     22766     22764     22767     22768     22764     22767
     22768     22764     22766     22768     22764     22765     22770     22774     22775
     22771     22770     22773     22771     22770     22772     22772     22770     22773
     22774     22770     22773     22774     22770     22772     22774     22770     22771
     22776     22780     22781     22777     22776     22779     22777     22776     22778
     22778     22776     22779     22780     22776     22779     22780     22776     22778
     22780     22776     22777     22782     22786     22787     22783     22782     22785
     22783     22782     22784     22784     22782     22785     22786     22782     22785
     22786     22782     22784     22786     22782     22783     22788     22792     22793
     22789     22788     22791     22789     22788     22790     22790     22788     22791
     22792     22788     22791     22792     22788     22790     22792     22788     22789
     22794     22798     22799     22795     22794     22797     22795     22794     22796
     22796     22794     22797     22798     22794     22797     22798     22794     22796
     22798     22794     22795     22800     22804     22805     22801     22800     22803
     22801     22800     22802     22802     22800     22803     22804     22800     22803
     22804     22800     22802     22804     22800     22801     22806     22810     22811
     22807     22806     22809     22807     22806     22808     22808     22806     22809
     22810     22806     22809     22810     22806     22808     22810     22806     22807
     22812     22816     22817     22813     22812     22815     22813     22812     22814
     22814     22812     22815     22816     22812     22815     22816     22812     22814
     22816     22812     22813     22818     22822     22823     22819     22818     22821
     22819     22818     22820     22820     22818     22821     22822     22818     22821
     22822     22818     22820     22822     22818     22819     22824     22828     22829
     22825     22824     22827     22825     22824     22826     22826     22824     22827
     22828     22824     22827     22828     22824     22826     22828     22824     22825
     22830     22834     22835     22831     22830     22833     22831     22830     22832
     22832     22830     22833     22834     22830     22833     22834     22830     22832
     22834     22830     22831     22836     22840     22841     22837     22836     22839
     22837     22836     22838     22838     22836     22839     22840     22836     22839
     22840     22836     22838     22840     22836     22837     22842     22846     22847
     22843     22842     22845     22843     22842     22844     22844     22842     22845
     22846     22842     22845     22846     22842     22844     22846     22842     22843
     22848     22852     22853     22849     22848     22851     22849     22848     22850
     22850     22848     22851     22852     22848     22851     22852     22848     22850
     22852     22848     22849     22854     22858     22859     22855     22854     22857
     22855     22854     22856     22856     22854     22857     22858     22854     22857
     22858     22854     22856     22858     22854     22855     22860     22864     22865
     22861     22860     22863     22861     22860     22862     22862     22860     22863
     22864     22860     22863     22864     22860     22862     22864     22860     22861
     22866     22870     22871     22867     22866     22869     22867     22866     22868
     22868     22866     22869     22870     22866     22869     22870     22866     22868
     22870     22866     22867     22872     22876     22877     22873     22872     22875
     22873     22872     22874     22874     22872     22875     22876     22872     22875
     22876     22872     22874     22876     22872     22873     22878     22882     22883
     22879     22878     22881     22879     22878     22880     22880     22878     22881
     22882     22878     22881     22882     22878     22880     22882     22878     22879
     22884     22888     22889     22885     22884     22887     22885     22884     22886
     22886     22884     22887     22888     22884     22887     22888     22884     22886
     22888     22884     22885     22890     22894     22895     22891     22890     22893
     22891     22890     22892     22892     22890     22893     22894     22890     22893
     22894     22890     22892     22894     22890     22891     22896     22900     22901
     22897     22896     22899     22897     22896     22898     22898     22896     22899
     22900     22896     22899     22900     22896     22898     22900     22896     22897
     22902     22906     22907     22903     22902     22905     22903     22902     22904
     22904     22902     22905     22906     22902     22905     22906     22902     22904
     22906     22902     22903     22908     22912     22913     22909     22908     22911
     22909     22908     22910     22910     22908     22911     22912     22908     22911
     22912     22908     22910     22912     22908     22909     22914     22918     22919
     22915     22914     22917     22915     22914     22916     22916     22914     22917
     22918     22914     22917     22918     22914     22916     22918     22914     22915
     22920     22924     22925     22921     22920     22923     22921     22920     22922
     22922     22920     22923     22924     22920     22923     22924     22920     22922
     22924     22920     22921     22926     22930     22931     22927     22926     22929
     22927     22926     22928     22928     22926     22929     22930     22926     22929
     22930     22926     22928     22930     22926     22927     22932     22936     22937
     22933     22932     22935     22933     22932     22934     22934     22932     22935
     22936     22932     22935     22936     22932     22934     22936     22932     22933
     22938     22942     22943     22939     22938     22941     22939     22938     22940
     22940     22938     22941     22942     22938     22941     22942     22938     22940
     22942     22938     22939     22944     22948     22949     22945     22944     22947
     22945     22944     22946     22946     22944     22947     22948     22944     22947
     22948     22944     22946     22948     22944     22945     22950     22954     22955
     22951     22950     22953     22951     22950     22952     22952     22950     22953
     22954     22950     22953     22954     22950     22952     22954     22950     22951
     22956     22960     22961     22957     22956     22959     22957     22956     22958
     22958     22956     22959     22960     22956     22959     22960     22956     22958
     22960     22956     22957     22962     22966     22967     22963     22962     22965
     22963     22962     22964     22964     22962     22965     22966     22962     22965
     22966     22962     22964     22966     22962     22963     22968     22972     22973
     22969     22968     22971     22969     22968     22970     22970     22968     22971
     22972     22968     22971     22972     22968     22970     22972     22968     22969
     22974     22978     22979     22975     22974     22977     22975     22974     22976
     22976     22974     22977     22978     22974     22977     22978     22974     22976
     22978     22974     22975     22980     22984     22985     22981     22980     22983
     22981     22980     22982     22982     22980     22983     22984     22980     22983
     22984     22980     22982     22984     22980     22981     22986     22990     22991
     22987     22986     22989     22987     22986     22988     22988     22986     22989
     22990     22986     22989     22990     22986     22988     22990     22986     22987
     22992     22996     22997     22993     22992     22995     22993     22992     22994
     22994     22992     22995     22996     22992     22995     22996     22992     22994
     22996     22992     22993     22998     23002     23003     22999     22998     23001
     22999     22998     23000     23000     22998     23001     23002     22998     23001
     23002     22998     23000     23002     22998     22999     23004     23008     23009
     23005     23004     23007     23005     23004     23006     23006     23004     23007
     23008     23004     23007     23008     23004     23006     23008     23004     23005
     23010     23014     23015     23011     23010     23013     23011     23010     23012
     23012     23010     23013     23014     23010     23013     23014     23010     23012
     23014     23010     23011     23016     23020     23021     23017     23016     23019
     23017     23016     23018     23018     23016     23019     23020     23016     23019
     23020     23016     23018     23020     23016     23017     23022     23026     23027
     23023     23022     23025     23023     23022     23024     23024     23022     23025
     23026     23022     23025     23026     23022     23024     23026     23022     23023
     23028     23032     23033     23029     23028     23031     23029     23028     23030
     23030     23028     23031     23032     23028     23031     23032     23028     23030
     23032     23028     23029     23034     23038     23039     23035     23034     23037
     23035     23034     23036     23036     23034     23037     23038     23034     23037
     23038     23034     23036     23038     23034     23035     23040     23044     23045
     23041     23040     23043     23041     23040     23042     23042     23040     23043
     23044     23040     23043     23044     23040     23042     23044     23040     23041
     23046     23050     23051     23047     23046     23049     23047     23046     23048
     23048     23046     23049     23050     23046     23049     23050     23046     23048
     23050     23046     23047     23052     23056     23057     23053     23052     23055
     23053     23052     23054     23054     23052     23055     23056     23052     23055
     23056     23052     23054     23056     23052     23053     23058     23062     23063
     23059     23058     23061     23059     23058     23060     23060     23058     23061
     23062     23058     23061     23062     23058     23060     23062     23058     23059
     23064     23068     23069     23065     23064     23067     23065     23064     23066
     23066     23064     23067     23068     23064     23067     23068     23064     23066
     23068     23064     23065     23070     23074     23075     23071     23070     23073
     23071     23070     23072     23072     23070     23073     23074     23070     23073
     23074     23070     23072     23074     23070     23071     23076     23080     23081
     23077     23076     23079     23077     23076     23078     23078     23076     23079
     23080     23076     23079     23080     23076     23078     23080     23076     23077
     23082     23086     23087     23083     23082     23085     23083     23082     23084
     23084     23082     23085     23086     23082     23085     23086     23082     23084
     23086     23082     23083     23088     23092     23093     23089     23088     23091
     23089     23088     23090     23090     23088     23091     23092     23088     23091
     23092     23088     23090     23092     23088     23089     23094     23098     23099
     23095     23094     23097     23095     23094     23096     23096     23094     23097
     23098     23094     23097     23098     23094     23096     23098     23094     23095
     23100     23104     23105     23101     23100     23103     23101     23100     23102
     23102     23100     23103     23104     23100     23103     23104     23100     23102
     23104     23100     23101     23106     23110     23111     23107     23106     23109
     23107     23106     23108     23108     23106     23109     23110     23106     23109
     23110     23106     23108     23110     23106     23107     23112     23116     23117
     23113     23112     23115     23113     23112     23114     23114     23112     23115
     23116     23112     23115     23116     23112     23114     23116     23112     23113
     23118     23122     23123     23119     23118     23121     23119     23118     23120
     23120     23118     23121     23122     23118     23121     23122     23118     23120
     23122     23118     23119     23124     23128     23129     23125     23124     23127
     23125     23124     23126     23126     23124     23127     23128     23124     23127
     23128     23124     23126     23128     23124     23125     23130     23134     23135
     23131     23130     23133     23131     23130     23132     23132     23130     23133
     23134     23130     23133     23134     23130     23132     23134     23130     23131
     23136     23140     23141     23137     23136     23139     23137     23136     23138
     23138     23136     23139     23140     23136     23139     23140     23136     23138
     23140     23136     23137     23142     23146     23147     23143     23142     23145
     23143     23142     23144     23144     23142     23145     23146     23142     23145
     23146     23142     23144     23146     23142     23143     23148     23152     23153
     23149     23148     23151     23149     23148     23150     23150     23148     23151
     23152     23148     23151     23152     23148     23150     23152     23148     23149
     23154     23158     23159     23155     23154     23157     23155     23154     23156
     23156     23154     23157     23158     23154     23157     23158     23154     23156
     23158     23154     23155     23160     23164     23165     23161     23160     23163
     23161     23160     23162     23162     23160     23163     23164     23160     23163
     23164     23160     23162     23164     23160     23161     23166     23170     23171
     23167     23166     23169     23167     23166     23168     23168     23166     23169
     23170     23166     23169     23170     23166     23168     23170     23166     23167
     23172     23176     23177     23173     23172     23175     23173     23172     23174
     23174     23172     23175     23176     23172     23175     23176     23172     23174
     23176     23172     23173     23178     23182     23183     23179     23178     23181
     23179     23178     23180     23180     23178     23181     23182     23178     23181
     23182     23178     23180     23182     23178     23179     23184     23188     23189
     23185     23184     23187     23185     23184     23186     23186     23184     23187
     23188     23184     23187     23188     23184     23186     23188     23184     23185
     23190     23194     23195     23191     23190     23193     23191     23190     23192
     23192     23190     23193     23194     23190     23193     23194     23190     23192
     23194     23190     23191     23196     23200     23201     23197     23196     23199
     23197     23196     23198     23198     23196     23199     23200     23196     23199
     23200     23196     23198     23200     23196     23197     23202     23206     23207
     23203     23202     23205     23203     23202     23204     23204     23202     23205
     23206     23202     23205     23206     23202     23204     23206     23202     23203
     23208     23212     23213     23209     23208     23211     23209     23208     23210
     23210     23208     23211     23212     23208     23211     23212     23208     23210
     23212     23208     23209     23214     23218     23219     23215     23214     23217
     23215     23214     23216     23216     23214     23217     23218     23214     23217
     23218     23214     23216     23218     23214     23215     23220     23224     23225
     23221     23220     23223     23221     23220     23222     23222     23220     23223
     23224     23220     23223     23224     23220     23222     23224     23220     23221
     23226     23230     23231     23227     23226     23229     23227     23226     23228
     23228     23226     23229     23230     23226     23229     23230     23226     23228
     23230     23226     23227     23232     23236     23237     23233     23232     23235
     23233     23232     23234     23234     23232     23235     23236     23232     23235
     23236     23232     23234     23236     23232     23233     23238     23242     23243
     23239     23238     23241     23239     23238     23240     23240     23238     23241
     23242     23238     23241     23242     23238     23240     23242     23238     23239
     23244     23248     23249     23245     23244     23247     23245     23244     23246
     23246     23244     23247     23248     23244     23247     23248     23244     23246
     23248     23244     23245     23250     23254     23255     23251     23250     23253
     23251     23250     23252     23252     23250     23253     23254     23250     23253
     23254     23250     23252     23254     23250     23251     23256     23260     23261
     23257     23256     23259     23257     23256     23258     23258     23256     23259
     23260     23256     23259     23260     23256     23258     23260     23256     23257
     23262     23266     23267     23263     23262     23265     23263     23262     23264
     23264     23262     23265     23266     23262     23265     23266     23262     23264
     23266     23262     23263     23268     23272     23273     23269     23268     23271
     23269     23268     23270     23270     23268     23271     23272     23268     23271
     23272     23268     23270     23272     23268     23269     23274     23278     23279
     23275     23274     23277     23275     23274     23276     23276     23274     23277
     23278     23274     23277     23278     23274     23276     23278     23274     23275
     23280     23284     23285     23281     23280     23283     23281     23280     23282
     23282     23280     23283     23284     23280     23283     23284     23280     23282
     23284     23280     23281     23286     23290     23291     23287     23286     23289
     23287     23286     23288     23288     23286     23289     23290     23286     23289
     23290     23286     23288     23290     23286     23287     23292     23296     23297
     23293     23292     23295     23293     23292     23294     23294     23292     23295
     23296     23292     23295     23296     23292     23294     23296     23292     23293
     23298     23302     23303     23299     23298     23301     23299     23298     23300
     23300     23298     23301     23302     23298     23301     23302     23298     23300
     23302     23298     23299     23304     23308     23309     23305     23304     23307
     23305     23304     23306     23306     23304     23307     23308     23304     23307
     23308     23304     23306     23308     23304     23305     23310     23314     23315
     23311     23310     23313     23311     23310     23312     23312     23310     23313
     23314     23310     23313     23314     23310     23312     23314     23310     23311
     23316     23320     23321     23317     23316     23319     23317     23316     23318
     23318     23316     23319     23320     23316     23319     23320     23316     23318
     23320     23316     23317     23322     23326     23327     23323     23322     23325
     23323     23322     23324     23324     23322     23325     23326     23322     23325
     23326     23322     23324     23326     23322     23323     23328     23332     23333
     23329     23328     23331     23329     23328     23330     23330     23328     23331
     23332     23328     23331     23332     23328     23330     23332     23328     23329
     23334     23338     23339     23335     23334     23337     23335     23334     23336
     23336     23334     23337     23338     23334     23337     23338     23334     23336
     23338     23334     23335     23340     23344     23345     23341     23340     23343
     23341     23340     23342     23342     23340     23343     23344     23340     23343
     23344     23340     23342     23344     23340     23341     23346     23350     23351
     23347     23346     23349     23347     23346     23348     23348     23346     23349
     23350     23346     23349     23350     23346     23348     23350     23346     23347
     23352     23356     23357     23353     23352     23355     23353     23352     23354
     23354     23352     23355     23356     23352     23355     23356     23352     23354
     23356     23352     23353     23358     23362     23363     23359     23358     23361
     23359     23358     23360     23360     23358     23361     23362     23358     23361
     23362     23358     23360     23362     23358     23359     23364     23368     23369
     23365     23364     23367     23365     23364     23366     23366     23364     23367
     23368     23364     23367     23368     23364     23366     23368     23364     23365
     23370     23374     23375     23371     23370     23373     23371     23370     23372
     23372     23370     23373     23374     23370     23373     23374     23370     23372
     23374     23370     23371     23376     23380     23381     23377     23376     23379
     23377     23376     23378     23378     23376     23379     23380     23376     23379
     23380     23376     23378     23380     23376     23377     23382     23386     23387
     23383     23382     23385     23383     23382     23384     23384     23382     23385
     23386     23382     23385     23386     23382     23384     23386     23382     23383
     23388     23392     23393     23389     23388     23391     23389     23388     23390
     23390     23388     23391     23392     23388     23391     23392     23388     23390
     23392     23388     23389     23394     23398     23399     23395     23394     23397
     23395     23394     23396     23396     23394     23397     23398     23394     23397
     23398     23394     23396     23398     23394     23395     23400     23404     23405
     23401     23400     23403     23401     23400     23402     23402     23400     23403
     23404     23400     23403     23404     23400     23402     23404     23400     23401
     23406     23410     23411     23407     23406     23409     23407     23406     23408
     23408     23406     23409     23410     23406     23409     23410     23406     23408
     23410     23406     23407     23412     23416     23417     23413     23412     23415
     23413     23412     23414     23414     23412     23415     23416     23412     23415
     23416     23412     23414     23416     23412     23413     23418     23422     23423
     23419     23418     23421     23419     23418     23420     23420     23418     23421
     23422     23418     23421     23422     23418     23420     23422     23418     23419
     23424     23428     23429     23425     23424     23427     23425     23424     23426
     23426     23424     23427     23428     23424     23427     23428     23424     23426
     23428     23424     23425     23430     23434     23435     23431     23430     23433
     23431     23430     23432     23432     23430     23433     23434     23430     23433
     23434     23430     23432     23434     23430     23431     23436     23440     23441
     23437     23436     23439     23437     23436     23438     23438     23436     23439
     23440     23436     23439     23440     23436     23438     23440     23436     23437
     23442     23446     23447     23443     23442     23445     23443     23442     23444
     23444     23442     23445     23446     23442     23445     23446     23442     23444
     23446     23442     23443     23448     23452     23453     23449     23448     23451
     23449     23448     23450     23450     23448     23451     23452     23448     23451
     23452     23448     23450     23452     23448     23449     23454     23458     23459
     23455     23454     23457     23455     23454     23456     23456     23454     23457
     23458     23454     23457     23458     23454     23456     23458     23454     23455
     23460     23464     23465     23461     23460     23463     23461     23460     23462
     23462     23460     23463     23464     23460     23463     23464     23460     23462
     23464     23460     23461     23466     23470     23471     23467     23466     23469
     23467     23466     23468     23468     23466     23469     23470     23466     23469
     23470     23466     23468     23470     23466     23467     23472     23476     23477
     23473     23472     23475     23473     23472     23474     23474     23472     23475
     23476     23472     23475     23476     23472     23474     23476     23472     23473
     23478     23482     23483     23479     23478     23481     23479     23478     23480
     23480     23478     23481     23482     23478     23481     23482     23478     23480
     23482     23478     23479     23484     23488     23489     23485     23484     23487
     23485     23484     23486     23486     23484     23487     23488     23484     23487
     23488     23484     23486     23488     23484     23485     23490     23494     23495
     23491     23490     23493     23491     23490     23492     23492     23490     23493
     23494     23490     23493     23494     23490     23492     23494     23490     23491
     23496     23500     23501     23497     23496     23499     23497     23496     23498
     23498     23496     23499     23500     23496     23499     23500     23496     23498
     23500     23496     23497     23502     23506     23507     23503     23502     23505
     23503     23502     23504     23504     23502     23505     23506     23502     23505
     23506     23502     23504     23506     23502     23503     23508     23512     23513
     23509     23508     23511     23509     23508     23510     23510     23508     23511
     23512     23508     23511     23512     23508     23510     23512     23508     23509
     23514     23518     23519     23515     23514     23517     23515     23514     23516
     23516     23514     23517     23518     23514     23517     23518     23514     23516
     23518     23514     23515     23520     23524     23525     23521     23520     23523
     23521     23520     23522     23522     23520     23523     23524     23520     23523
     23524     23520     23522     23524     23520     23521     23526     23530     23531
     23527     23526     23529     23527     23526     23528     23528     23526     23529
     23530     23526     23529     23530     23526     23528     23530     23526     23527
     23532     23536     23537     23533     23532     23535     23533     23532     23534
     23534     23532     23535     23536     23532     23535     23536     23532     23534
     23536     23532     23533     23538     23542     23543     23539     23538     23541
     23539     23538     23540     23540     23538     23541     23542     23538     23541
     23542     23538     23540     23542     23538     23539     23544     23548     23549
     23545     23544     23547     23545     23544     23546     23546     23544     23547
     23548     23544     23547     23548     23544     23546     23548     23544     23545
     23550     23554     23555     23551     23550     23553     23551     23550     23552
     23552     23550     23553     23554     23550     23553     23554     23550     23552
     23554     23550     23551     23556     23560     23561     23557     23556     23559
     23557     23556     23558     23558     23556     23559     23560     23556     23559
     23560     23556     23558     23560     23556     23557     23562     23566     23567
     23563     23562     23565     23563     23562     23564     23564     23562     23565
     23566     23562     23565     23566     23562     23564     23566     23562     23563
     23568     23572     23573     23569     23568     23571     23569     23568     23570
     23570     23568     23571     23572     23568     23571     23572     23568     23570
     23572     23568     23569     23574     23578     23579     23575     23574     23577
     23575     23574     23576     23576     23574     23577     23578     23574     23577
     23578     23574     23576     23578     23574     23575     23580     23584     23585
     23581     23580     23583     23581     23580     23582     23582     23580     23583
     23584     23580     23583     23584     23580     23582     23584     23580     23581
     23586     23590     23591     23587     23586     23589     23587     23586     23588
     23588     23586     23589     23590     23586     23589     23590     23586     23588
     23590     23586     23587     23592     23596     23597     23593     23592     23595
     23593     23592     23594     23594     23592     23595     23596     23592     23595
     23596     23592     23594     23596     23592     23593     23598     23602     23603
     23599     23598     23601     23599     23598     23600     23600     23598     23601
     23602     23598     23601     23602     23598     23600     23602     23598     23599
     23604     23608     23609     23605     23604     23607     23605     23604     23606
     23606     23604     23607     23608     23604     23607     23608     23604     23606
     23608     23604     23605     23610     23614     23615     23611     23610     23613
     23611     23610     23612     23612     23610     23613     23614     23610     23613
     23614     23610     23612     23614     23610     23611     23616     23620     23621
     23617     23616     23619     23617     23616     23618     23618     23616     23619
     23620     23616     23619     23620     23616     23618     23620     23616     23617
     23622     23626     23627     23623     23622     23625     23623     23622     23624
     23624     23622     23625     23626     23622     23625     23626     23622     23624
     23626     23622     23623     23628     23632     23633     23629     23628     23631
     23629     23628     23630     23630     23628     23631     23632     23628     23631
     23632     23628     23630     23632     23628     23629     23634     23638     23639
     23635     23634     23637     23635     23634     23636     23636     23634     23637
     23638     23634     23637     23638     23634     23636     23638     23634     23635
     23640     23644     23645     23641     23640     23643     23641     23640     23642
     23642     23640     23643     23644     23640     23643     23644     23640     23642
     23644     23640     23641     23646     23650     23651     23647     23646     23649
     23647     23646     23648     23648     23646     23649     23650     23646     23649
     23650     23646     23648     23650     23646     23647     23652     23656     23657
     23653     23652     23655     23653     23652     23654     23654     23652     23655
     23656     23652     23655     23656     23652     23654     23656     23652     23653
     23658     23662     23663     23659     23658     23661     23659     23658     23660
     23660     23658     23661     23662     23658     23661     23662     23658     23660
     23662     23658     23659     23664     23668     23669     23665     23664     23667
     23665     23664     23666     23666     23664     23667     23668     23664     23667
     23668     23664     23666     23668     23664     23665     23670     23674     23675
     23671     23670     23673     23671     23670     23672     23672     23670     23673
     23674     23670     23673     23674     23670     23672     23674     23670     23671
     23676     23680     23681     23677     23676     23679     23677     23676     23678
     23678     23676     23679     23680     23676     23679     23680     23676     23678
     23680     23676     23677     23682     23686     23687     23683     23682     23685
     23683     23682     23684     23684     23682     23685     23686     23682     23685
     23686     23682     23684     23686     23682     23683     23688     23692     23693
     23689     23688     23691     23689     23688     23690     23690     23688     23691
     23692     23688     23691     23692     23688     23690     23692     23688     23689
     23694     23698     23699     23695     23694     23697     23695     23694     23696
     23696     23694     23697     23698     23694     23697     23698     23694     23696
     23698     23694     23695     23700     23704     23705     23701     23700     23703
     23701     23700     23702     23702     23700     23703     23704     23700     23703
     23704     23700     23702     23704     23700     23701     23706     23710     23711
     23707     23706     23709     23707     23706     23708     23708     23706     23709
     23710     23706     23709     23710     23706     23708     23710     23706     23707
     23712     23716     23717     23713     23712     23715     23713     23712     23714
     23714     23712     23715     23716     23712     23715     23716     23712     23714
     23716     23712     23713     23718     23722     23723     23719     23718     23721
     23719     23718     23720     23720     23718     23721     23722     23718     23721
     23722     23718     23720     23722     23718     23719     23724     23728     23729
     23725     23724     23727     23725     23724     23726     23726     23724     23727
     23728     23724     23727     23728     23724     23726     23728     23724     23725
     23730     23734     23735     23731     23730     23733     23731     23730     23732
     23732     23730     23733     23734     23730     23733     23734     23730     23732
     23734     23730     23731     23736     23740     23741     23737     23736     23739
     23737     23736     23738     23738     23736     23739     23740     23736     23739
     23740     23736     23738     23740     23736     23737     23742     23746     23747
     23743     23742     23745     23743     23742     23744     23744     23742     23745
     23746     23742     23745     23746     23742     23744     23746     23742     23743
     23748     23752     23753     23749     23748     23751     23749     23748     23750
     23750     23748     23751     23752     23748     23751     23752     23748     23750
     23752     23748     23749     23754     23758     23759     23755     23754     23757
     23755     23754     23756     23756     23754     23757     23758     23754     23757
     23758     23754     23756     23758     23754     23755     23760     23764     23765
     23761     23760     23763     23761     23760     23762     23762     23760     23763
     23764     23760     23763     23764     23760     23762     23764     23760     23761
     23766     23770     23771     23767     23766     23769     23767     23766     23768
     23768     23766     23769     23770     23766     23769     23770     23766     23768
     23770     23766     23767     23772     23776     23777     23773     23772     23775
     23773     23772     23774     23774     23772     23775     23776     23772     23775
     23776     23772     23774     23776     23772     23773     23778     23782     23783
     23779     23778     23781     23779     23778     23780     23780     23778     23781
     23782     23778     23781     23782     23778     23780     23782     23778     23779
     23784     23788     23789     23785     23784     23787     23785     23784     23786
     23786     23784     23787     23788     23784     23787     23788     23784     23786
     23788     23784     23785     23790     23794     23795     23791     23790     23793
     23791     23790     23792     23792     23790     23793     23794     23790     23793
     23794     23790     23792     23794     23790     23791     23796     23800     23801
     23797     23796     23799     23797     23796     23798     23798     23796     23799
     23800     23796     23799     23800     23796     23798     23800     23796     23797
     23802     23806     23807     23803     23802     23805     23803     23802     23804
     23804     23802     23805     23806     23802     23805     23806     23802     23804
     23806     23802     23803     23808     23812     23813     23809     23808     23811
     23809     23808     23810     23810     23808     23811     23812     23808     23811
     23812     23808     23810     23812     23808     23809     23814     23818     23819
     23815     23814     23817     23815     23814     23816     23816     23814     23817
     23818     23814     23817     23818     23814     23816     23818     23814     23815
     23820     23824     23825     23821     23820     23823     23821     23820     23822
     23822     23820     23823     23824     23820     23823     23824     23820     23822
     23824     23820     23821     23826     23830     23831     23827     23826     23829
     23827     23826     23828     23828     23826     23829     23830     23826     23829
     23830     23826     23828     23830     23826     23827     23832     23836     23837
     23833     23832     23835     23833     23832     23834     23834     23832     23835
     23836     23832     23835     23836     23832     23834     23836     23832     23833
     23838     23842     23843     23839     23838     23841     23839     23838     23840
     23840     23838     23841     23842     23838     23841     23842     23838     23840
     23842     23838     23839     23844     23848     23849     23845     23844     23847
     23845     23844     23846     23846     23844     23847     23848     23844     23847
     23848     23844     23846     23848     23844     23845     23850     23854     23855
     23851     23850     23853     23851     23850     23852     23852     23850     23853
     23854     23850     23853     23854     23850     23852     23854     23850     23851
     23856     23860     23861     23857     23856     23859     23857     23856     23858
     23858     23856     23859     23860     23856     23859     23860     23856     23858
     23860     23856     23857     23862     23866     23867     23863     23862     23865
     23863     23862     23864     23864     23862     23865     23866     23862     23865
     23866     23862     23864     23866     23862     23863     23868     23872     23873
     23869     23868     23871     23869     23868     23870     23870     23868     23871
     23872     23868     23871     23872     23868     23870     23872     23868     23869
     23874     23878     23879     23875     23874     23877     23875     23874     23876
     23876     23874     23877     23878     23874     23877     23878     23874     23876
     23878     23874     23875     23880     23884     23885     23881     23880     23883
     23881     23880     23882     23882     23880     23883     23884     23880     23883
     23884     23880     23882     23884     23880     23881     23886     23890     23891
     23887     23886     23889     23887     23886     23888     23888     23886     23889
     23890     23886     23889     23890     23886     23888     23890     23886     23887
     23892     23896     23897     23893     23892     23895     23893     23892     23894
     23894     23892     23895     23896     23892     23895     23896     23892     23894
     23896     23892     23893     23898     23902     23903     23899     23898     23901
     23899     23898     23900     23900     23898     23901     23902     23898     23901
     23902     23898     23900     23902     23898     23899     23904     23908     23909
     23905     23904     23907     23905     23904     23906     23906     23904     23907
     23908     23904     23907     23908     23904     23906     23908     23904     23905
     23910     23914     23915     23911     23910     23913     23911     23910     23912
     23912     23910     23913     23914     23910     23913     23914     23910     23912
     23914     23910     23911     23916     23920     23921     23917     23916     23919
     23917     23916     23918     23918     23916     23919     23920     23916     23919
     23920     23916     23918     23920     23916     23917     23922     23926     23927
     23923     23922     23925     23923     23922     23924     23924     23922     23925
     23926     23922     23925     23926     23922     23924     23926     23922     23923
     23928     23932     23933     23929     23928     23931     23929     23928     23930
     23930     23928     23931     23932     23928     23931     23932     23928     23930
     23932     23928     23929     23934     23938     23939     23935     23934     23937
     23935     23934     23936     23936     23934     23937     23938     23934     23937
     23938     23934     23936     23938     23934     23935     23940     23944     23945
     23941     23940     23943     23941     23940     23942     23942     23940     23943
     23944     23940     23943     23944     23940     23942     23944     23940     23941
     23946     23950     23951     23947     23946     23949     23947     23946     23948
     23948     23946     23949     23950     23946     23949     23950     23946     23948
     23950     23946     23947     23952     23956     23957     23953     23952     23955
     23953     23952     23954     23954     23952     23955     23956     23952     23955
     23956     23952     23954     23956     23952     23953     23958     23962     23963
     23959     23958     23961     23959     23958     23960     23960     23958     23961
     23962     23958     23961     23962     23958     23960     23962     23958     23959
     23964     23968     23969     23965     23964     23967     23965     23964     23966
     23966     23964     23967     23968     23964     23967     23968     23964     23966
     23968     23964     23965     23970     23974     23975     23971     23970     23973
     23971     23970     23972     23972     23970     23973     23974     23970     23973
     23974     23970     23972     23974     23970     23971     23976     23980     23981
     23977     23976     23979     23977     23976     23978     23978     23976     23979
     23980     23976     23979     23980     23976     23978     23980     23976     23977
     23982     23986     23987     23983     23982     23985     23983     23982     23984
     23984     23982     23985     23986     23982     23985     23986     23982     23984
     23986     23982     23983     23988     23992     23993     23989     23988     23991
     23989     23988     23990     23990     23988     23991     23992     23988     23991
     23992     23988     23990     23992     23988     23989     23994     23998     23999
     23995     23994     23997     23995     23994     23996     23996     23994     23997
     23998     23994     23997     23998     23994     23996     23998     23994     23995
     24000     24004     24005     24001     24000     24003     24001     24000     24002
     24002     24000     24003     24004     24000     24003     24004     24000     24002
     24004     24000     24001     24006     24010     24011     24007     24006     24009
     24007     24006     24008     24008     24006     24009     24010     24006     24009
     24010     24006     24008     24010     24006     24007     24012     24016     24017
     24013     24012     24015     24013     24012     24014     24014     24012     24015
     24016     24012     24015     24016     24012     24014     24016     24012     24013
     24018     24022     24023     24019     24018     24021     24019     24018     24020
     24020     24018     24021     24022     24018     24021     24022     24018     24020
     24022     24018     24019     24024     24028     24029     24025     24024     24027
     24025     24024     24026     24026     24024     24027     24028     24024     24027
     24028     24024     24026     24028     24024     24025     24030     24034     24035
     24031     24030     24033     24031     24030     24032     24032     24030     24033
     24034     24030     24033     24034     24030     24032     24034     24030     24031
     24036     24040     24041     24037     24036     24039     24037     24036     24038
     24038     24036     24039     24040     24036     24039     24040     24036     24038
     24040     24036     24037     24042     24046     24047     24043     24042     24045
     24043     24042     24044     24044     24042     24045     24046     24042     24045
     24046     24042     24044     24046     24042     24043     24048     24052     24053
     24049     24048     24051     24049     24048     24050     24050     24048     24051
     24052     24048     24051     24052     24048     24050     24052     24048     24049
     24054     24058     24059     24055     24054     24057     24055     24054     24056
     24056     24054     24057     24058     24054     24057     24058     24054     24056
     24058     24054     24055     24060     24064     24065     24061     24060     24063
     24061     24060     24062     24062     24060     24063     24064     24060     24063
     24064     24060     24062     24064     24060     24061     24066     24070     24071
     24067     24066     24069     24067     24066     24068     24068     24066     24069
     24070     24066     24069     24070     24066     24068     24070     24066     24067
     24072     24076     24077     24073     24072     24075     24073     24072     24074
     24074     24072     24075     24076     24072     24075     24076     24072     24074
     24076     24072     24073     24078     24082     24083     24079     24078     24081
     24079     24078     24080     24080     24078     24081     24082     24078     24081
     24082     24078     24080     24082     24078     24079     24084     24088     24089
     24085     24084     24087     24085     24084     24086     24086     24084     24087
     24088     24084     24087     24088     24084     24086     24088     24084     24085
     24090     24094     24095     24091     24090     24093     24091     24090     24092
     24092     24090     24093     24094     24090     24093     24094     24090     24092
     24094     24090     24091     24096     24100     24101     24097     24096     24099
     24097     24096     24098     24098     24096     24099     24100     24096     24099
     24100     24096     24098     24100     24096     24097     24102     24106     24107
     24103     24102     24105     24103     24102     24104     24104     24102     24105
     24106     24102     24105     24106     24102     24104     24106     24102     24103
     24108     24112     24113     24109     24108     24111     24109     24108     24110
     24110     24108     24111     24112     24108     24111     24112     24108     24110
     24112     24108     24109     24114     24118     24119     24115     24114     24117
     24115     24114     24116     24116     24114     24117     24118     24114     24117
     24118     24114     24116     24118     24114     24115     24120     24124     24125
     24121     24120     24123     24121     24120     24122     24122     24120     24123
     24124     24120     24123     24124     24120     24122     24124     24120     24121
     24126     24130     24131     24127     24126     24129     24127     24126     24128
     24128     24126     24129     24130     24126     24129     24130     24126     24128
     24130     24126     24127     24132     24136     24137     24133     24132     24135
     24133     24132     24134     24134     24132     24135     24136     24132     24135
     24136     24132     24134     24136     24132     24133     24138     24142     24143
     24139     24138     24141     24139     24138     24140     24140     24138     24141
     24142     24138     24141     24142     24138     24140     24142     24138     24139
     24144     24148     24149     24145     24144     24147     24145     24144     24146
     24146     24144     24147     24148     24144     24147     24148     24144     24146
     24148     24144     24145     24150     24154     24155     24151     24150     24153
     24151     24150     24152     24152     24150     24153     24154     24150     24153
     24154     24150     24152     24154     24150     24151     24156     24160     24161
     24157     24156     24159     24157     24156     24158     24158     24156     24159
     24160     24156     24159     24160     24156     24158     24160     24156     24157
     24162     24166     24167     24163     24162     24165     24163     24162     24164
     24164     24162     24165     24166     24162     24165     24166     24162     24164
     24166     24162     24163     24168     24172     24173     24169     24168     24171
     24169     24168     24170     24170     24168     24171     24172     24168     24171
     24172     24168     24170     24172     24168     24169     24174     24178     24179
     24175     24174     24177     24175     24174     24176     24176     24174     24177
     24178     24174     24177     24178     24174     24176     24178     24174     24175
     24180     24184     24185     24181     24180     24183     24181     24180     24182
     24182     24180     24183     24184     24180     24183     24184     24180     24182
     24184     24180     24181     24186     24190     24191     24187     24186     24189
     24187     24186     24188     24188     24186     24189     24190     24186     24189
     24190     24186     24188     24190     24186     24187     24192     24196     24197
     24193     24192     24195     24193     24192     24194     24194     24192     24195
     24196     24192     24195     24196     24192     24194     24196     24192     24193
     24198     24202     24203     24199     24198     24201     24199     24198     24200
     24200     24198     24201     24202     24198     24201     24202     24198     24200
     24202     24198     24199     24204     24208     24209     24205     24204     24207
     24205     24204     24206     24206     24204     24207     24208     24204     24207
     24208     24204     24206     24208     24204     24205     24210     24214     24215
     24211     24210     24213     24211     24210     24212     24212     24210     24213
     24214     24210     24213     24214     24210     24212     24214     24210     24211
     24216     24220     24221     24217     24216     24219     24217     24216     24218
     24218     24216     24219     24220     24216     24219     24220     24216     24218
     24220     24216     24217     24222     24226     24227     24223     24222     24225
     24223     24222     24224     24224     24222     24225     24226     24222     24225
     24226     24222     24224     24226     24222     24223     24228     24232     24233
     24229     24228     24231     24229     24228     24230     24230     24228     24231
     24232     24228     24231     24232     24228     24230     24232     24228     24229
     24234     24238     24239     24235     24234     24237     24235     24234     24236
     24236     24234     24237     24238     24234     24237     24238     24234     24236
     24238     24234     24235     24240     24244     24245     24241     24240     24243
     24241     24240     24242     24242     24240     24243     24244     24240     24243
     24244     24240     24242     24244     24240     24241     24246     24250     24251
     24247     24246     24249     24247     24246     24248     24248     24246     24249
     24250     24246     24249     24250     24246     24248     24250     24246     24247
     24252     24256     24257     24253     24252     24255     24253     24252     24254
     24254     24252     24255     24256     24252     24255     24256     24252     24254
     24256     24252     24253     24258     24262     24263     24259     24258     24261
     24259     24258     24260     24260     24258     24261     24262     24258     24261
     24262     24258     24260     24262     24258     24259     24264     24268     24269
     24265     24264     24267     24265     24264     24266     24266     24264     24267
     24268     24264     24267     24268     24264     24266     24268     24264     24265
     24270     24274     24275     24271     24270     24273     24271     24270     24272
     24272     24270     24273     24274     24270     24273     24274     24270     24272
     24274     24270     24271     24276     24280     24281     24277     24276     24279
     24277     24276     24278     24278     24276     24279     24280     24276     24279
     24280     24276     24278     24280     24276     24277     24282     24286     24287
     24283     24282     24285     24283     24282     24284     24284     24282     24285
     24286     24282     24285     24286     24282     24284     24286     24282     24283
     24288     24292     24293     24289     24288     24291     24289     24288     24290
     24290     24288     24291     24292     24288     24291     24292     24288     24290
     24292     24288     24289     24294     24298     24299     24295     24294     24297
     24295     24294     24296     24296     24294     24297     24298     24294     24297
     24298     24294     24296     24298     24294     24295     24300     24304     24305
     24301     24300     24303     24301     24300     24302     24302     24300     24303
     24304     24300     24303     24304     24300     24302     24304     24300     24301
     24306     24310     24311     24307     24306     24309     24307     24306     24308
     24308     24306     24309     24310     24306     24309     24310     24306     24308
     24310     24306     24307     24312     24316     24317     24313     24312     24315
     24313     24312     24314     24314     24312     24315     24316     24312     24315
     24316     24312     24314     24316     24312     24313     24318     24322     24323
     24319     24318     24321     24319     24318     24320     24320     24318     24321
     24322     24318     24321     24322     24318     24320     24322     24318     24319
     24324     24328     24329     24325     24324     24327     24325     24324     24326
     24326     24324     24327     24328     24324     24327     24328     24324     24326
     24328     24324     24325     24330     24334     24335     24331     24330     24333
     24331     24330     24332     24332     24330     24333     24334     24330     24333
     24334     24330     24332     24334     24330     24331     24336     24340     24341
     24337     24336     24339     24337     24336     24338     24338     24336     24339
     24340     24336     24339     24340     24336     24338     24340     24336     24337
     24342     24346     24347     24343     24342     24345     24343     24342     24344
     24344     24342     24345     24346     24342     24345     24346     24342     24344
     24346     24342     24343     24348     24352     24353     24349     24348     24351
     24349     24348     24350     24350     24348     24351     24352     24348     24351
     24352     24348     24350     24352     24348     24349     24354     24358     24359
     24355     24354     24357     24355     24354     24356     24356     24354     24357
     24358     24354     24357     24358     24354     24356     24358     24354     24355
     24360     24364     24365     24361     24360     24363     24361     24360     24362
     24362     24360     24363     24364     24360     24363     24364     24360     24362
     24364     24360     24361     24366     24370     24371     24367     24366     24369
     24367     24366     24368     24368     24366     24369     24370     24366     24369
     24370     24366     24368     24370     24366     24367     24372     24376     24377
     24373     24372     24375     24373     24372     24374     24374     24372     24375
     24376     24372     24375     24376     24372     24374     24376     24372     24373
     24378     24382     24383     24379     24378     24381     24379     24378     24380
     24380     24378     24381     24382     24378     24381     24382     24378     24380
     24382     24378     24379     24384     24388     24389     24385     24384     24387
     24385     24384     24386     24386     24384     24387     24388     24384     24387
     24388     24384     24386     24388     24384     24385     24390     24394     24395
     24391     24390     24393     24391     24390     24392     24392     24390     24393
     24394     24390     24393     24394     24390     24392     24394     24390     24391
     24396     24400     24401     24397     24396     24399     24397     24396     24398
     24398     24396     24399     24400     24396     24399     24400     24396     24398
     24400     24396     24397     24402     24406     24407     24403     24402     24405
     24403     24402     24404     24404     24402     24405     24406     24402     24405
     24406     24402     24404     24406     24402     24403     24408     24412     24413
     24409     24408     24411     24409     24408     24410     24410     24408     24411
     24412     24408     24411     24412     24408     24410     24412     24408     24409
     24414     24418     24419     24415     24414     24417     24415     24414     24416
     24416     24414     24417     24418     24414     24417     24418     24414     24416
     24418     24414     24415     24420     24424     24425     24421     24420     24423
     24421     24420     24422     24422     24420     24423     24424     24420     24423
     24424     24420     24422     24424     24420     24421     24426     24430     24431
     24427     24426     24429     24427     24426     24428     24428     24426     24429
     24430     24426     24429     24430     24426     24428     24430     24426     24427
     24432     24436     24437     24433     24432     24435     24433     24432     24434
     24434     24432     24435     24436     24432     24435     24436     24432     24434
     24436     24432     24433     24438     24442     24443     24439     24438     24441
     24439     24438     24440     24440     24438     24441     24442     24438     24441
     24442     24438     24440     24442     24438     24439     24444     24448     24449
     24445     24444     24447     24445     24444     24446     24446     24444     24447
     24448     24444     24447     24448     24444     24446     24448     24444     24445
     24450     24454     24455     24451     24450     24453     24451     24450     24452
     24452     24450     24453     24454     24450     24453     24454     24450     24452
     24454     24450     24451     24456     24460     24461     24457     24456     24459
     24457     24456     24458     24458     24456     24459     24460     24456     24459
     24460     24456     24458     24460     24456     24457     24462     24466     24467
     24463     24462     24465     24463     24462     24464     24464     24462     24465
     24466     24462     24465     24466     24462     24464     24466     24462     24463
     24468     24472     24473     24469     24468     24471     24469     24468     24470
     24470     24468     24471     24472     24468     24471     24472     24468     24470
     24472     24468     24469     24474     24478     24479     24475     24474     24477
     24475     24474     24476     24476     24474     24477     24478     24474     24477
     24478     24474     24476     24478     24474     24475     24480     24484     24485
     24481     24480     24483     24481     24480     24482     24482     24480     24483
     24484     24480     24483     24484     24480     24482     24484     24480     24481
     24486     24490     24491     24487     24486     24489     24487     24486     24488
     24488     24486     24489     24490     24486     24489     24490     24486     24488
     24490     24486     24487     24492     24496     24497     24493     24492     24495
     24493     24492     24494     24494     24492     24495     24496     24492     24495
     24496     24492     24494     24496     24492     24493     24498     24502     24503
     24499     24498     24501     24499     24498     24500     24500     24498     24501
     24502     24498     24501     24502     24498     24500     24502     24498     24499
     24504     24508     24509     24505     24504     24507     24505     24504     24506
     24506     24504     24507     24508     24504     24507     24508     24504     24506
     24508     24504     24505     24510     24514     24515     24511     24510     24513
     24511     24510     24512     24512     24510     24513     24514     24510     24513
     24514     24510     24512     24514     24510     24511     24516     24520     24521
     24517     24516     24519     24517     24516     24518     24518     24516     24519
     24520     24516     24519     24520     24516     24518     24520     24516     24517
     24522     24526     24527     24523     24522     24525     24523     24522     24524
     24524     24522     24525     24526     24522     24525     24526     24522     24524
     24526     24522     24523     24528     24532     24533     24529     24528     24531
     24529     24528     24530     24530     24528     24531     24532     24528     24531
     24532     24528     24530     24532     24528     24529     24534     24538     24539
     24535     24534     24537     24535     24534     24536     24536     24534     24537
     24538     24534     24537     24538     24534     24536     24538     24534     24535
     24540     24544     24545     24541     24540     24543     24541     24540     24542
     24542     24540     24543     24544     24540     24543     24544     24540     24542
     24544     24540     24541     24546     24550     24551     24547     24546     24549
     24547     24546     24548     24548     24546     24549     24550     24546     24549
     24550     24546     24548     24550     24546     24547     24552     24556     24557
     24553     24552     24555     24553     24552     24554     24554     24552     24555
     24556     24552     24555     24556     24552     24554     24556     24552     24553
     24558     24562     24563     24559     24558     24561     24559     24558     24560
     24560     24558     24561     24562     24558     24561     24562     24558     24560
     24562     24558     24559     24564     24568     24569     24565     24564     24567
     24565     24564     24566     24566     24564     24567     24568     24564     24567
     24568     24564     24566     24568     24564     24565     24570     24574     24575
     24571     24570     24573     24571     24570     24572     24572     24570     24573
     24574     24570     24573     24574     24570     24572     24574     24570     24571
     24576     24580     24581     24577     24576     24579     24577     24576     24578
     24578     24576     24579     24580     24576     24579     24580     24576     24578
     24580     24576     24577     24582     24586     24587     24583     24582     24585
     24583     24582     24584     24584     24582     24585     24586     24582     24585
     24586     24582     24584     24586     24582     24583     24588     24592     24593
     24589     24588     24591     24589     24588     24590     24590     24588     24591
     24592     24588     24591     24592     24588     24590     24592     24588     24589
     24594     24598     24599     24595     24594     24597     24595     24594     24596
     24596     24594     24597     24598     24594     24597     24598     24594     24596
     24598     24594     24595     24600     24604     24605     24601     24600     24603
     24601     24600     24602     24602     24600     24603     24604     24600     24603
     24604     24600     24602     24604     24600     24601     24606     24610     24611
     24607     24606     24609     24607     24606     24608     24608     24606     24609
     24610     24606     24609     24610     24606     24608     24610     24606     24607
     24612     24616     24617     24613     24612     24615     24613     24612     24614
     24614     24612     24615     24616     24612     24615     24616     24612     24614
     24616     24612     24613     24618     24622     24623     24619     24618     24621
     24619     24618     24620     24620     24618     24621     24622     24618     24621
     24622     24618     24620     24622     24618     24619     24624     24628     24629
     24625     24624     24627     24625     24624     24626     24626     24624     24627
     24628     24624     24627     24628     24624     24626     24628     24624     24625
     24630     24634     24635     24631     24630     24633     24631     24630     24632
     24632     24630     24633     24634     24630     24633     24634     24630     24632
     24634     24630     24631     24636     24640     24641     24637     24636     24639
     24637     24636     24638     24638     24636     24639     24640     24636     24639
     24640     24636     24638     24640     24636     24637     24642     24646     24647
     24643     24642     24645     24643     24642     24644     24644     24642     24645
     24646     24642     24645     24646     24642     24644     24646     24642     24643
     24648     24652     24653     24649     24648     24651     24649     24648     24650
     24650     24648     24651     24652     24648     24651     24652     24648     24650
     24652     24648     24649     24654     24658     24659     24655     24654     24657
     24655     24654     24656     24656     24654     24657     24658     24654     24657
     24658     24654     24656     24658     24654     24655     24660     24664     24665
     24661     24660     24663     24661     24660     24662     24662     24660     24663
     24664     24660     24663     24664     24660     24662     24664     24660     24661
     24666     24670     24671     24667     24666     24669     24667     24666     24668
     24668     24666     24669     24670     24666     24669     24670     24666     24668
     24670     24666     24667     24672     24676     24677     24673     24672     24675
     24673     24672     24674     24674     24672     24675     24676     24672     24675
     24676     24672     24674     24676     24672     24673     24678     24682     24683
     24679     24678     24681     24679     24678     24680     24680     24678     24681
     24682     24678     24681     24682     24678     24680     24682     24678     24679
     24684     24688     24689     24685     24684     24687     24685     24684     24686
     24686     24684     24687     24688     24684     24687     24688     24684     24686
     24688     24684     24685     24690     24694     24695     24691     24690     24693
     24691     24690     24692     24692     24690     24693     24694     24690     24693
     24694     24690     24692     24694     24690     24691     24696     24700     24701
     24697     24696     24699     24697     24696     24698     24698     24696     24699
     24700     24696     24699     24700     24696     24698     24700     24696     24697
     24702     24706     24707     24703     24702     24705     24703     24702     24704
     24704     24702     24705     24706     24702     24705     24706     24702     24704
     24706     24702     24703     24708     24712     24713     24709     24708     24711
     24709     24708     24710     24710     24708     24711     24712     24708     24711
     24712     24708     24710     24712     24708     24709     24714     24718     24719
     24715     24714     24717     24715     24714     24716     24716     24714     24717
     24718     24714     24717     24718     24714     24716     24718     24714     24715
     24720     24724     24725     24721     24720     24723     24721     24720     24722
     24722     24720     24723     24724     24720     24723     24724     24720     24722
     24724     24720     24721     24726     24730     24731     24727     24726     24729
     24727     24726     24728     24728     24726     24729     24730     24726     24729
     24730     24726     24728     24730     24726     24727     24732     24736     24737
     24733     24732     24735     24733     24732     24734     24734     24732     24735
     24736     24732     24735     24736     24732     24734     24736     24732     24733
     24738     24742     24743     24739     24738     24741     24739     24738     24740
     24740     24738     24741     24742     24738     24741     24742     24738     24740
     24742     24738     24739     24744     24748     24749     24745     24744     24747
     24745     24744     24746     24746     24744     24747     24748     24744     24747
     24748     24744     24746     24748     24744     24745     24750     24754     24755
     24751     24750     24753     24751     24750     24752     24752     24750     24753
     24754     24750     24753     24754     24750     24752     24754     24750     24751
     24756     24760     24761     24757     24756     24759     24757     24756     24758
     24758     24756     24759     24760     24756     24759     24760     24756     24758
     24760     24756     24757     24762     24766     24767     24763     24762     24765
     24763     24762     24764     24764     24762     24765     24766     24762     24765
     24766     24762     24764     24766     24762     24763     24768     24772     24773
     24769     24768     24771     24769     24768     24770     24770     24768     24771
     24772     24768     24771     24772     24768     24770     24772     24768     24769
     24774     24778     24779     24775     24774     24777     24775     24774     24776
     24776     24774     24777     24778     24774     24777     24778     24774     24776
     24778     24774     24775     24780     24784     24785     24781     24780     24783
     24781     24780     24782     24782     24780     24783     24784     24780     24783
     24784     24780     24782     24784     24780     24781     24786     24790     24791
     24787     24786     24789     24787     24786     24788     24788     24786     24789
     24790     24786     24789     24790     24786     24788     24790     24786     24787
     24792     24796     24797     24793     24792     24795     24793     24792     24794
     24794     24792     24795     24796     24792     24795     24796     24792     24794
     24796     24792     24793     24798     24802     24803     24799     24798     24801
     24799     24798     24800     24800     24798     24801     24802     24798     24801
     24802     24798     24800     24802     24798     24799     24804     24808     24809
     24805     24804     24807     24805     24804     24806     24806     24804     24807
     24808     24804     24807     24808     24804     24806     24808     24804     24805
     24810     24814     24815     24811     24810     24813     24811     24810     24812
     24812     24810     24813     24814     24810     24813     24814     24810     24812
     24814     24810     24811     24816     24820     24821     24817     24816     24819
     24817     24816     24818     24818     24816     24819     24820     24816     24819
     24820     24816     24818     24820     24816     24817     24822     24826     24827
     24823     24822     24825     24823     24822     24824     24824     24822     24825
     24826     24822     24825     24826     24822     24824     24826     24822     24823
     24828     24832     24833     24829     24828     24831     24829     24828     24830
     24830     24828     24831     24832     24828     24831     24832     24828     24830
     24832     24828     24829     24834     24838     24839     24835     24834     24837
     24835     24834     24836     24836     24834     24837     24838     24834     24837
     24838     24834     24836     24838     24834     24835     24840     24844     24845
     24841     24840     24843     24841     24840     24842     24842     24840     24843
     24844     24840     24843     24844     24840     24842     24844     24840     24841
     24846     24850     24851     24847     24846     24849     24847     24846     24848
     24848     24846     24849     24850     24846     24849     24850     24846     24848
     24850     24846     24847     24852     24856     24857     24853     24852     24855
     24853     24852     24854     24854     24852     24855     24856     24852     24855
     24856     24852     24854     24856     24852     24853     24858     24862     24863
     24859     24858     24861     24859     24858     24860     24860     24858     24861
     24862     24858     24861     24862     24858     24860     24862     24858     24859
     24864     24868     24869     24865     24864     24867     24865     24864     24866
     24866     24864     24867     24868     24864     24867     24868     24864     24866
     24868     24864     24865     24870     24874     24875     24871     24870     24873
     24871     24870     24872     24872     24870     24873     24874     24870     24873
     24874     24870     24872     24874     24870     24871     24876     24880     24881
     24877     24876     24879     24877     24876     24878     24878     24876     24879
     24880     24876     24879     24880     24876     24878     24880     24876     24877
     24882     24886     24887     24883     24882     24885     24883     24882     24884
     24884     24882     24885     24886     24882     24885     24886     24882     24884
     24886     24882     24883     24888     24892     24893     24889     24888     24891
     24889     24888     24890     24890     24888     24891     24892     24888     24891
     24892     24888     24890     24892     24888     24889     24894     24898     24899
     24895     24894     24897     24895     24894     24896     24896     24894     24897
     24898     24894     24897     24898     24894     24896     24898     24894     24895
     24900     24904     24905     24901     24900     24903     24901     24900     24902
     24902     24900     24903     24904     24900     24903     24904     24900     24902
     24904     24900     24901     24906     24910     24911     24907     24906     24909
     24907     24906     24908     24908     24906     24909     24910     24906     24909
     24910     24906     24908     24910     24906     24907     24912     24916     24917
     24913     24912     24915     24913     24912     24914     24914     24912     24915
     24916     24912     24915     24916     24912     24914     24916     24912     24913
     24918     24922     24923     24919     24918     24921     24919     24918     24920
     24920     24918     24921     24922     24918     24921     24922     24918     24920
     24922     24918     24919     24924     24928     24929     24925     24924     24927
     24925     24924     24926     24926     24924     24927     24928     24924     24927
     24928     24924     24926     24928     24924     24925     24930     24934     24935
     24931     24930     24933     24931     24930     24932     24932     24930     24933
     24934     24930     24933     24934     24930     24932     24934     24930     24931
     24936     24940     24941     24937     24936     24939     24937     24936     24938
     24938     24936     24939     24940     24936     24939     24940     24936     24938
     24940     24936     24937     24942     24946     24947     24943     24942     24945
     24943     24942     24944     24944     24942     24945     24946     24942     24945
     24946     24942     24944     24946     24942     24943     24948     24952     24953
     24949     24948     24951     24949     24948     24950     24950     24948     24951
     24952     24948     24951     24952     24948     24950     24952     24948     24949
     24954     24958     24959     24955     24954     24957     24955     24954     24956
     24956     24954     24957     24958     24954     24957     24958     24954     24956
     24958     24954     24955     24960     24964     24965     24961     24960     24963
     24961     24960     24962     24962     24960     24963     24964     24960     24963
     24964     24960     24962     24964     24960     24961     24966     24970     24971
     24967     24966     24969     24967     24966     24968     24968     24966     24969
     24970     24966     24969     24970     24966     24968     24970     24966     24967
     24972     24976     24977     24973     24972     24975     24973     24972     24974
     24974     24972     24975     24976     24972     24975     24976     24972     24974
     24976     24972     24973     24978     24982     24983     24979     24978     24981
     24979     24978     24980     24980     24978     24981     24982     24978     24981
     24982     24978     24980     24982     24978     24979     24984     24988     24989
     24985     24984     24987     24985     24984     24986     24986     24984     24987
     24988     24984     24987     24988     24984     24986     24988     24984     24985
     24990     24994     24995     24991     24990     24993     24991     24990     24992
     24992     24990     24993     24994     24990     24993     24994     24990     24992
     24994     24990     24991     24996     25000     25001     24997     24996     24999
     24997     24996     24998     24998     24996     24999     25000     24996     24999
     25000     24996     24998     25000     24996     24997     25002     25006     25007
     25003     25002     25005     25003     25002     25004     25004     25002     25005
     25006     25002     25005     25006     25002     25004     25006     25002     25003
     25008     25012     25013     25009     25008     25011     25009     25008     25010
     25010     25008     25011     25012     25008     25011     25012     25008     25010
     25012     25008     25009     25014     25018     25019     25015     25014     25017
     25015     25014     25016     25016     25014     25017     25018     25014     25017
     25018     25014     25016     25018     25014     25015     25020     25024     25025
     25021     25020     25023     25021     25020     25022     25022     25020     25023
     25024     25020     25023     25024     25020     25022     25024     25020     25021
     25026     25030     25031     25027     25026     25029     25027     25026     25028
     25028     25026     25029     25030     25026     25029     25030     25026     25028
     25030     25026     25027     25032     25036     25037     25033     25032     25035
     25033     25032     25034     25034     25032     25035     25036     25032     25035
     25036     25032     25034     25036     25032     25033     25038     25042     25043
     25039     25038     25041     25039     25038     25040     25040     25038     25041
     25042     25038     25041     25042     25038     25040     25042     25038     25039
     25044     25048     25049     25045     25044     25047     25045     25044     25046
     25046     25044     25047     25048     25044     25047     25048     25044     25046
     25048     25044     25045     25050     25054     25055     25051     25050     25053
     25051     25050     25052     25052     25050     25053     25054     25050     25053
     25054     25050     25052     25054     25050     25051     25056     25060     25061
     25057     25056     25059     25057     25056     25058     25058     25056     25059
     25060     25056     25059     25060     25056     25058     25060     25056     25057
     25062     25066     25067     25063     25062     25065     25063     25062     25064
     25064     25062     25065     25066     25062     25065     25066     25062     25064
     25066     25062     25063     25068     25072     25073     25069     25068     25071
     25069     25068     25070     25070     25068     25071     25072     25068     25071
     25072     25068     25070     25072     25068     25069     25074     25078     25079
     25075     25074     25077     25075     25074     25076     25076     25074     25077
     25078     25074     25077     25078     25074     25076     25078     25074     25075
     25080     25084     25085     25081     25080     25083     25081     25080     25082
     25082     25080     25083     25084     25080     25083     25084     25080     25082
     25084     25080     25081     25086     25090     25091     25087     25086     25089
     25087     25086     25088     25088     25086     25089     25090     25086     25089
     25090     25086     25088     25090     25086     25087     25092     25096     25097
     25093     25092     25095     25093     25092     25094     25094     25092     25095
     25096     25092     25095     25096     25092     25094     25096     25092     25093
     25098     25102     25103     25099     25098     25101     25099     25098     25100
     25100     25098     25101     25102     25098     25101     25102     25098     25100
     25102     25098     25099     25104     25108     25109     25105     25104     25107
     25105     25104     25106     25106     25104     25107     25108     25104     25107
     25108     25104     25106     25108     25104     25105     25110     25114     25115
     25111     25110     25113     25111     25110     25112     25112     25110     25113
     25114     25110     25113     25114     25110     25112     25114     25110     25111
     25116     25120     25121     25117     25116     25119     25117     25116     25118
     25118     25116     25119     25120     25116     25119     25120     25116     25118
     25120     25116     25117     25122     25126     25127     25123     25122     25125
     25123     25122     25124     25124     25122     25125     25126     25122     25125
     25126     25122     25124     25126     25122     25123     25128     25132     25133
     25129     25128     25131     25129     25128     25130     25130     25128     25131
     25132     25128     25131     25132     25128     25130     25132     25128     25129
     25134     25138     25139     25135     25134     25137     25135     25134     25136
     25136     25134     25137     25138     25134     25137     25138     25134     25136
     25138     25134     25135     25140     25144     25145     25141     25140     25143
     25141     25140     25142     25142     25140     25143     25144     25140     25143
     25144     25140     25142     25144     25140     25141     25146     25150     25151
     25147     25146     25149     25147     25146     25148     25148     25146     25149
     25150     25146     25149     25150     25146     25148     25150     25146     25147
     25152     25156     25157     25153     25152     25155     25153     25152     25154
     25154     25152     25155     25156     25152     25155     25156     25152     25154
     25156     25152     25153     25158     25162     25163     25159     25158     25161
     25159     25158     25160     25160     25158     25161     25162     25158     25161
     25162     25158     25160     25162     25158     25159     25164     25168     25169
     25165     25164     25167     25165     25164     25166     25166     25164     25167
     25168     25164     25167     25168     25164     25166     25168     25164     25165
     25170     25174     25175     25171     25170     25173     25171     25170     25172
     25172     25170     25173     25174     25170     25173     25174     25170     25172
     25174     25170     25171     25176     25180     25181     25177     25176     25179
     25177     25176     25178     25178     25176     25179     25180     25176     25179
     25180     25176     25178     25180     25176     25177     25182     25186     25187
     25183     25182     25185     25183     25182     25184     25184     25182     25185
     25186     25182     25185     25186     25182     25184     25186     25182     25183
     25188     25192     25193     25189     25188     25191     25189     25188     25190
     25190     25188     25191     25192     25188     25191     25192     25188     25190
     25192     25188     25189     25194     25198     25199     25195     25194     25197
     25195     25194     25196     25196     25194     25197     25198     25194     25197
     25198     25194     25196     25198     25194     25195     25200     25204     25205
     25201     25200     25203     25201     25200     25202     25202     25200     25203
     25204     25200     25203     25204     25200     25202     25204     25200     25201
     25206     25210     25211     25207     25206     25209     25207     25206     25208
     25208     25206     25209     25210     25206     25209     25210     25206     25208
     25210     25206     25207     25212     25216     25217     25213     25212     25215
     25213     25212     25214     25214     25212     25215     25216     25212     25215
     25216     25212     25214     25216     25212     25213     25218     25222     25223
     25219     25218     25221     25219     25218     25220     25220     25218     25221
     25222     25218     25221     25222     25218     25220     25222     25218     25219
     25224     25228     25229     25225     25224     25227     25225     25224     25226
     25226     25224     25227     25228     25224     25227     25228     25224     25226
     25228     25224     25225     25230     25234     25235     25231     25230     25233
     25231     25230     25232     25232     25230     25233     25234     25230     25233
     25234     25230     25232     25234     25230     25231     25236     25240     25241
     25237     25236     25239     25237     25236     25238     25238     25236     25239
     25240     25236     25239     25240     25236     25238     25240     25236     25237
     25242     25246     25247     25243     25242     25245     25243     25242     25244
     25244     25242     25245     25246     25242     25245     25246     25242     25244
     25246     25242     25243     25248     25252     25253     25249     25248     25251
     25249     25248     25250     25250     25248     25251     25252     25248     25251
     25252     25248     25250     25252     25248     25249     25254     25258     25259
     25255     25254     25257     25255     25254     25256     25256     25254     25257
     25258     25254     25257     25258     25254     25256     25258     25254     25255
     25260     25264     25265     25261     25260     25263     25261     25260     25262
     25262     25260     25263     25264     25260     25263     25264     25260     25262
     25264     25260     25261     25266     25270     25271     25267     25266     25269
     25267     25266     25268     25268     25266     25269     25270     25266     25269
     25270     25266     25268     25270     25266     25267     25272     25276     25277
     25273     25272     25275     25273     25272     25274     25274     25272     25275
     25276     25272     25275     25276     25272     25274     25276     25272     25273
     25278     25282     25283     25279     25278     25281     25279     25278     25280
     25280     25278     25281     25282     25278     25281     25282     25278     25280
     25282     25278     25279     25284     25288     25289     25285     25284     25287
     25285     25284     25286     25286     25284     25287     25288     25284     25287
     25288     25284     25286     25288     25284     25285     25290     25294     25295
     25291     25290     25293     25291     25290     25292     25292     25290     25293
     25294     25290     25293     25294     25290     25292     25294     25290     25291
     25296     25300     25301     25297     25296     25299     25297     25296     25298
     25298     25296     25299     25300     25296     25299     25300     25296     25298
     25300     25296     25297     25302     25306     25307     25303     25302     25305
     25303     25302     25304     25304     25302     25305     25306     25302     25305
     25306     25302     25304     25306     25302     25303     25308     25312     25313
     25309     25308     25311     25309     25308     25310     25310     25308     25311
     25312     25308     25311     25312     25308     25310     25312     25308     25309
     25314     25318     25319     25315     25314     25317     25315     25314     25316
     25316     25314     25317     25318     25314     25317     25318     25314     25316
     25318     25314     25315     25320     25324     25325     25321     25320     25323
     25321     25320     25322     25322     25320     25323     25324     25320     25323
     25324     25320     25322     25324     25320     25321     25326     25330     25331
     25327     25326     25329     25327     25326     25328     25328     25326     25329
     25330     25326     25329     25330     25326     25328     25330     25326     25327
     25332     25336     25337     25333     25332     25335     25333     25332     25334
     25334     25332     25335     25336     25332     25335     25336     25332     25334
     25336     25332     25333     25338     25342     25343     25339     25338     25341
     25339     25338     25340     25340     25338     25341     25342     25338     25341
     25342     25338     25340     25342     25338     25339     25344     25348     25349
     25345     25344     25347     25345     25344     25346     25346     25344     25347
     25348     25344     25347     25348     25344     25346     25348     25344     25345
     25350     25354     25355     25351     25350     25353     25351     25350     25352
     25352     25350     25353     25354     25350     25353     25354     25350     25352
     25354     25350     25351     25356     25360     25361     25357     25356     25359
     25357     25356     25358     25358     25356     25359     25360     25356     25359
     25360     25356     25358     25360     25356     25357     25362     25366     25367
     25363     25362     25365     25363     25362     25364     25364     25362     25365
     25366     25362     25365     25366     25362     25364     25366     25362     25363
     25368     25372     25373     25369     25368     25371     25369     25368     25370
     25370     25368     25371     25372     25368     25371     25372     25368     25370
     25372     25368     25369     25374     25378     25379     25375     25374     25377
     25375     25374     25376     25376     25374     25377     25378     25374     25377
     25378     25374     25376     25378     25374     25375     25380     25384     25385
     25381     25380     25383     25381     25380     25382     25382     25380     25383
     25384     25380     25383     25384     25380     25382     25384     25380     25381
     25386     25390     25391     25387     25386     25389     25387     25386     25388
     25388     25386     25389     25390     25386     25389     25390     25386     25388
     25390     25386     25387     25392     25396     25397     25393     25392     25395
     25393     25392     25394     25394     25392     25395     25396     25392     25395
     25396     25392     25394     25396     25392     25393     25398     25402     25403
     25399     25398     25401     25399     25398     25400     25400     25398     25401
     25402     25398     25401     25402     25398     25400     25402     25398     25399
     25404     25408     25409     25405     25404     25407     25405     25404     25406
     25406     25404     25407     25408     25404     25407     25408     25404     25406
     25408     25404     25405     25410     25414     25415     25411     25410     25413
     25411     25410     25412     25412     25410     25413     25414     25410     25413
     25414     25410     25412     25414     25410     25411     25416     25420     25421
     25417     25416     25419     25417     25416     25418     25418     25416     25419
     25420     25416     25419     25420     25416     25418     25420     25416     25417
     25422     25426     25427     25423     25422     25425     25423     25422     25424
     25424     25422     25425     25426     25422     25425     25426     25422     25424
     25426     25422     25423     25428     25432     25433     25429     25428     25431
     25429     25428     25430     25430     25428     25431     25432     25428     25431
     25432     25428     25430     25432     25428     25429     25434     25438     25439
     25435     25434     25437     25435     25434     25436     25436     25434     25437
     25438     25434     25437     25438     25434     25436     25438     25434     25435
     25440     25444     25445     25441     25440     25443     25441     25440     25442
     25442     25440     25443     25444     25440     25443     25444     25440     25442
     25444     25440     25441     25446     25450     25451     25447     25446     25449
     25447     25446     25448     25448     25446     25449     25450     25446     25449
     25450     25446     25448     25450     25446     25447     25452     25456     25457
     25453     25452     25455     25453     25452     25454     25454     25452     25455
     25456     25452     25455     25456     25452     25454     25456     25452     25453
     25458     25462     25463     25459     25458     25461     25459     25458     25460
     25460     25458     25461     25462     25458     25461     25462     25458     25460
     25462     25458     25459     25464     25468     25469     25465     25464     25467
     25465     25464     25466     25466     25464     25467     25468     25464     25467
     25468     25464     25466     25468     25464     25465     25470     25474     25475
     25471     25470     25473     25471     25470     25472     25472     25470     25473
     25474     25470     25473     25474     25470     25472     25474     25470     25471
     25476     25480     25481     25477     25476     25479     25477     25476     25478
     25478     25476     25479     25480     25476     25479     25480     25476     25478
     25480     25476     25477     25482     25486     25487     25483     25482     25485
     25483     25482     25484     25484     25482     25485     25486     25482     25485
     25486     25482     25484     25486     25482     25483     25488     25492     25493
     25489     25488     25491     25489     25488     25490     25490     25488     25491
     25492     25488     25491     25492     25488     25490     25492     25488     25489
     25494     25498     25499     25495     25494     25497     25495     25494     25496
     25496     25494     25497     25498     25494     25497     25498     25494     25496
     25498     25494     25495     25500     25504     25505     25501     25500     25503
     25501     25500     25502     25502     25500     25503     25504     25500     25503
     25504     25500     25502     25504     25500     25501     25506     25510     25511
     25507     25506     25509     25507     25506     25508     25508     25506     25509
     25510     25506     25509     25510     25506     25508     25510     25506     25507
     25512     25516     25517     25513     25512     25515     25513     25512     25514
     25514     25512     25515     25516     25512     25515     25516     25512     25514
     25516     25512     25513     25518     25522     25523     25519     25518     25521
     25519     25518     25520     25520     25518     25521     25522     25518     25521
     25522     25518     25520     25522     25518     25519     25524     25528     25529
     25525     25524     25527     25525     25524     25526     25526     25524     25527
     25528     25524     25527     25528     25524     25526     25528     25524     25525
     25530     25534     25535     25531     25530     25533     25531     25530     25532
     25532     25530     25533     25534     25530     25533     25534     25530     25532
     25534     25530     25531     25536     25540     25541     25537     25536     25539
     25537     25536     25538     25538     25536     25539     25540     25536     25539
     25540     25536     25538     25540     25536     25537     25542     25546     25547
     25543     25542     25545     25543     25542     25544     25544     25542     25545
     25546     25542     25545     25546     25542     25544     25546     25542     25543
     25548     25552     25553     25549     25548     25551     25549     25548     25550
     25550     25548     25551     25552     25548     25551     25552     25548     25550
     25552     25548     25549     25554     25558     25559     25555     25554     25557
     25555     25554     25556     25556     25554     25557     25558     25554     25557
     25558     25554     25556     25558     25554     25555     25560     25564     25565
     25561     25560     25563     25561     25560     25562     25562     25560     25563
     25564     25560     25563     25564     25560     25562     25564     25560     25561
     25566     25570     25571     25567     25566     25569     25567     25566     25568
     25568     25566     25569     25570     25566     25569     25570     25566     25568
     25570     25566     25567     25572     25576     25577     25573     25572     25575
     25573     25572     25574     25574     25572     25575     25576     25572     25575
     25576     25572     25574     25576     25572     25573     25578     25582     25583
     25579     25578     25581     25579     25578     25580     25580     25578     25581
     25582     25578     25581     25582     25578     25580     25582     25578     25579
     25584     25588     25589     25585     25584     25587     25585     25584     25586
     25586     25584     25587     25588     25584     25587     25588     25584     25586
     25588     25584     25585     25590     25594     25595     25591     25590     25593
     25591     25590     25592     25592     25590     25593     25594     25590     25593
     25594     25590     25592     25594     25590     25591     25596     25600     25601
     25597     25596     25599     25597     25596     25598     25598     25596     25599
     25600     25596     25599     25600     25596     25598     25600     25596     25597
     25602     25606     25607     25603     25602     25605     25603     25602     25604
     25604     25602     25605     25606     25602     25605     25606     25602     25604
     25606     25602     25603     25608     25612     25613     25609     25608     25611
     25609     25608     25610     25610     25608     25611     25612     25608     25611
     25612     25608     25610     25612     25608     25609     25614     25618     25619
     25615     25614     25617     25615     25614     25616     25616     25614     25617
     25618     25614     25617     25618     25614     25616     25618     25614     25615
     25620     25624     25625     25621     25620     25623     25621     25620     25622
     25622     25620     25623     25624     25620     25623     25624     25620     25622
     25624     25620     25621     25626     25630     25631     25627     25626     25629
     25627     25626     25628     25628     25626     25629     25630     25626     25629
     25630     25626     25628     25630     25626     25627     25632     25636     25637
     25633     25632     25635     25633     25632     25634     25634     25632     25635
     25636     25632     25635     25636     25632     25634     25636     25632     25633
     25638     25642     25643     25639     25638     25641     25639     25638     25640
     25640     25638     25641     25642     25638     25641     25642     25638     25640
     25642     25638     25639     25644     25648     25649     25645     25644     25647
     25645     25644     25646     25646     25644     25647     25648     25644     25647
     25648     25644     25646     25648     25644     25645     25650     25654     25655
     25651     25650     25653     25651     25650     25652     25652     25650     25653
     25654     25650     25653     25654     25650     25652     25654     25650     25651
     25656     25660     25661     25657     25656     25659     25657     25656     25658
     25658     25656     25659     25660     25656     25659     25660     25656     25658
     25660     25656     25657     25662     25666     25667     25663     25662     25665
     25663     25662     25664     25664     25662     25665     25666     25662     25665
     25666     25662     25664     25666     25662     25663     25668     25672     25673
     25669     25668     25671     25669     25668     25670     25670     25668     25671
     25672     25668     25671     25672     25668     25670     25672     25668     25669
     25674     25678     25679     25675     25674     25677     25675     25674     25676
     25676     25674     25677     25678     25674     25677     25678     25674     25676
     25678     25674     25675     25680     25684     25685     25681     25680     25683
     25681     25680     25682     25682     25680     25683     25684     25680     25683
     25684     25680     25682     25684     25680     25681     25686     25690     25691
     25687     25686     25689     25687     25686     25688     25688     25686     25689
     25690     25686     25689     25690     25686     25688     25690     25686     25687
     25692     25696     25697     25693     25692     25695     25693     25692     25694
     25694     25692     25695     25696     25692     25695     25696     25692     25694
     25696     25692     25693     25698     25702     25703     25699     25698     25701
     25699     25698     25700     25700     25698     25701     25702     25698     25701
     25702     25698     25700     25702     25698     25699     25704     25708     25709
     25705     25704     25707     25705     25704     25706     25706     25704     25707
     25708     25704     25707     25708     25704     25706     25708     25704     25705
     25710     25714     25715     25711     25710     25713     25711     25710     25712
     25712     25710     25713     25714     25710     25713     25714     25710     25712
     25714     25710     25711     25716     25720     25721     25717     25716     25719
     25717     25716     25718     25718     25716     25719     25720     25716     25719
     25720     25716     25718     25720     25716     25717     25722     25726     25727
     25723     25722     25725     25723     25722     25724     25724     25722     25725
     25726     25722     25725     25726     25722     25724     25726     25722     25723
     25728     25732     25733     25729     25728     25731     25729     25728     25730
     25730     25728     25731     25732     25728     25731     25732     25728     25730
     25732     25728     25729     25734     25738     25739     25735     25734     25737
     25735     25734     25736     25736     25734     25737     25738     25734     25737
     25738     25734     25736     25738     25734     25735     25740     25744     25745
     25741     25740     25743     25741     25740     25742     25742     25740     25743
     25744     25740     25743     25744     25740     25742     25744     25740     25741
     25746     25750     25751     25747     25746     25749     25747     25746     25748
     25748     25746     25749     25750     25746     25749     25750     25746     25748
     25750     25746     25747     25752     25756     25757     25753     25752     25755
     25753     25752     25754     25754     25752     25755     25756     25752     25755
     25756     25752     25754     25756     25752     25753     25758     25762     25763
     25759     25758     25761     25759     25758     25760     25760     25758     25761
     25762     25758     25761     25762     25758     25760     25762     25758     25759
     25764     25768     25769     25765     25764     25767     25765     25764     25766
     25766     25764     25767     25768     25764     25767     25768     25764     25766
     25768     25764     25765     25770     25774     25775     25771     25770     25773
     25771     25770     25772     25772     25770     25773     25774     25770     25773
     25774     25770     25772     25774     25770     25771     25776     25780     25781
     25777     25776     25779     25777     25776     25778     25778     25776     25779
     25780     25776     25779     25780     25776     25778     25780     25776     25777
     25782     25786     25787     25783     25782     25785     25783     25782     25784
     25784     25782     25785     25786     25782     25785     25786     25782     25784
     25786     25782     25783     25788     25792     25793     25789     25788     25791
     25789     25788     25790     25790     25788     25791     25792     25788     25791
     25792     25788     25790     25792     25788     25789     25794     25798     25799
     25795     25794     25797     25795     25794     25796     25796     25794     25797
     25798     25794     25797     25798     25794     25796     25798     25794     25795
     25800     25804     25805     25801     25800     25803     25801     25800     25802
     25802     25800     25803     25804     25800     25803     25804     25800     25802
     25804     25800     25801     25806     25810     25811     25807     25806     25809
     25807     25806     25808     25808     25806     25809     25810     25806     25809
     25810     25806     25808     25810     25806     25807     25812     25816     25817
     25813     25812     25815     25813     25812     25814     25814     25812     25815
     25816     25812     25815     25816     25812     25814     25816     25812     25813
     25818     25822     25823     25819     25818     25821     25819     25818     25820
     25820     25818     25821     25822     25818     25821     25822     25818     25820
     25822     25818     25819     25824     25828     25829     25825     25824     25827
     25825     25824     25826     25826     25824     25827     25828     25824     25827
     25828     25824     25826     25828     25824     25825     25830     25834     25835
     25831     25830     25833     25831     25830     25832     25832     25830     25833
     25834     25830     25833     25834     25830     25832     25834     25830     25831
     25836     25840     25841     25837     25836     25839     25837     25836     25838
     25838     25836     25839     25840     25836     25839     25840     25836     25838
     25840     25836     25837     25842     25846     25847     25843     25842     25845
     25843     25842     25844     25844     25842     25845     25846     25842     25845
     25846     25842     25844     25846     25842     25843     25848     25852     25853
     25849     25848     25851     25849     25848     25850     25850     25848     25851
     25852     25848     25851     25852     25848     25850     25852     25848     25849
     25854     25858     25859     25855     25854     25857     25855     25854     25856
     25856     25854     25857     25858     25854     25857     25858     25854     25856
     25858     25854     25855     25860     25864     25865     25861     25860     25863
     25861     25860     25862     25862     25860     25863     25864     25860     25863
     25864     25860     25862     25864     25860     25861     25866     25870     25871
     25867     25866     25869     25867     25866     25868     25868     25866     25869
     25870     25866     25869     25870     25866     25868     25870     25866     25867
     25872     25876     25877     25873     25872     25875     25873     25872     25874
     25874     25872     25875     25876     25872     25875     25876     25872     25874
     25876     25872     25873     25878     25882     25883     25879     25878     25881
     25879     25878     25880     25880     25878     25881     25882     25878     25881
     25882     25878     25880     25882     25878     25879     25884     25888     25889
     25885     25884     25887     25885     25884     25886     25886     25884     25887
     25888     25884     25887     25888     25884     25886     25888     25884     25885
     25890     25894     25895     25891     25890     25893     25891     25890     25892
     25892     25890     25893     25894     25890     25893     25894     25890     25892
     25894     25890     25891     25896     25900     25901     25897     25896     25899
     25897     25896     25898     25898     25896     25899     25900     25896     25899
     25900     25896     25898     25900     25896     25897     25902     25906     25907
     25903     25902     25905     25903     25902     25904     25904     25902     25905
     25906     25902     25905     25906     25902     25904     25906     25902     25903
     25908     25912     25913     25909     25908     25911     25909     25908     25910
     25910     25908     25911     25912     25908     25911     25912     25908     25910
     25912     25908     25909     25914     25918     25919     25915     25914     25917
     25915     25914     25916     25916     25914     25917     25918     25914     25917
     25918     25914     25916     25918     25914     25915     25920     25924     25925
     25921     25920     25923     25921     25920     25922     25922     25920     25923
     25924     25920     25923     25924     25920     25922     25924     25920     25921
     25926     25930     25931     25927     25926     25929     25927     25926     25928
     25928     25926     25929     25930     25926     25929     25930     25926     25928
     25930     25926     25927     25932     25936     25937     25933     25932     25935
     25933     25932     25934     25934     25932     25935     25936     25932     25935
     25936     25932     25934     25936     25932     25933     25938     25942     25943
     25939     25938     25941     25939     25938     25940     25940     25938     25941
     25942     25938     25941     25942     25938     25940     25942     25938     25939
     25944     25948     25949     25945     25944     25947     25945     25944     25946
     25946     25944     25947     25948     25944     25947     25948     25944     25946
     25948     25944     25945     25950     25954     25955     25951     25950     25953
     25951     25950     25952     25952     25950     25953     25954     25950     25953
     25954     25950     25952     25954     25950     25951     25956     25960     25961
     25957     25956     25959     25957     25956     25958     25958     25956     25959
     25960     25956     25959     25960     25956     25958     25960     25956     25957
     25962     25966     25967     25963     25962     25965     25963     25962     25964
     25964     25962     25965     25966     25962     25965     25966     25962     25964
     25966     25962     25963     25968     25972     25973     25969     25968     25971
     25969     25968     25970     25970     25968     25971     25972     25968     25971
     25972     25968     25970     25972     25968     25969     25974     25978     25979
     25975     25974     25977     25975     25974     25976     25976     25974     25977
     25978     25974     25977     25978     25974     25976     25978     25974     25975
     25980     25984     25985     25981     25980     25983     25981     25980     25982
     25982     25980     25983     25984     25980     25983     25984     25980     25982
     25984     25980     25981     25986     25990     25991     25987     25986     25989
     25987     25986     25988     25988     25986     25989     25990     25986     25989
     25990     25986     25988     25990     25986     25987     25992     25996     25997
     25993     25992     25995     25993     25992     25994     25994     25992     25995
     25996     25992     25995     25996     25992     25994     25996     25992     25993
     25998     26002     26003     25999     25998     26001     25999     25998     26000
     26000     25998     26001     26002     25998     26001     26002     25998     26000
     26002     25998     25999     26004     26008     26009     26005     26004     26007
     26005     26004     26006     26006     26004     26007     26008     26004     26007
     26008     26004     26006     26008     26004     26005     26010     26014     26015
     26011     26010     26013     26011     26010     26012     26012     26010     26013
     26014     26010     26013     26014     26010     26012     26014     26010     26011
     26016     26020     26021     26017     26016     26019     26017     26016     26018
     26018     26016     26019     26020     26016     26019     26020     26016     26018
     26020     26016     26017     26022     26026     26027     26023     26022     26025
     26023     26022     26024     26024     26022     26025     26026     26022     26025
     26026     26022     26024     26026     26022     26023     26028     26032     26033
     26029     26028     26031     26029     26028     26030     26030     26028     26031
     26032     26028     26031     26032     26028     26030     26032     26028     26029
     26034     26038     26039     26035     26034     26037     26035     26034     26036
     26036     26034     26037     26038     26034     26037     26038     26034     26036
     26038     26034     26035     26040     26044     26045     26041     26040     26043
     26041     26040     26042     26042     26040     26043     26044     26040     26043
     26044     26040     26042     26044     26040     26041     26046     26050     26051
     26047     26046     26049     26047     26046     26048     26048     26046     26049
     26050     26046     26049     26050     26046     26048     26050     26046     26047
     26052     26056     26057     26053     26052     26055     26053     26052     26054
     26054     26052     26055     26056     26052     26055     26056     26052     26054
     26056     26052     26053     26058     26062     26063     26059     26058     26061
     26059     26058     26060     26060     26058     26061     26062     26058     26061
     26062     26058     26060     26062     26058     26059     26064     26068     26069
     26065     26064     26067     26065     26064     26066     26066     26064     26067
     26068     26064     26067     26068     26064     26066     26068     26064     26065
     26070     26074     26075     26071     26070     26073     26071     26070     26072
     26072     26070     26073     26074     26070     26073     26074     26070     26072
     26074     26070     26071     26076     26080     26081     26077     26076     26079
     26077     26076     26078     26078     26076     26079     26080     26076     26079
     26080     26076     26078     26080     26076     26077     26082     26086     26087
     26083     26082     26085     26083     26082     26084     26084     26082     26085
     26086     26082     26085     26086     26082     26084     26086     26082     26083
     26088     26092     26093     26089     26088     26091     26089     26088     26090
     26090     26088     26091     26092     26088     26091     26092     26088     26090
     26092     26088     26089     26094     26098     26099     26095     26094     26097
     26095     26094     26096     26096     26094     26097     26098     26094     26097
     26098     26094     26096     26098     26094     26095     26100     26104     26105
     26101     26100     26103     26101     26100     26102     26102     26100     26103
     26104     26100     26103     26104     26100     26102     26104     26100     26101
     26106     26110     26111     26107     26106     26109     26107     26106     26108
     26108     26106     26109     26110     26106     26109     26110     26106     26108
     26110     26106     26107     26112     26116     26117     26113     26112     26115
     26113     26112     26114     26114     26112     26115     26116     26112     26115
     26116     26112     26114     26116     26112     26113     26118     26122     26123
     26119     26118     26121     26119     26118     26120     26120     26118     26121
     26122     26118     26121     26122     26118     26120     26122     26118     26119
     26124     26128     26129     26125     26124     26127     26125     26124     26126
     26126     26124     26127     26128     26124     26127     26128     26124     26126
     26128     26124     26125     26130     26134     26135     26131     26130     26133
     26131     26130     26132     26132     26130     26133     26134     26130     26133
     26134     26130     26132     26134     26130     26131     26136     26140     26141
     26137     26136     26139     26137     26136     26138     26138     26136     26139
     26140     26136     26139     26140     26136     26138     26140     26136     26137
     26142     26146     26147     26143     26142     26145     26143     26142     26144
     26144     26142     26145     26146     26142     26145     26146     26142     26144
     26146     26142     26143     26148     26152     26153     26149     26148     26151
     26149     26148     26150     26150     26148     26151     26152     26148     26151
     26152     26148     26150     26152     26148     26149     26154     26158     26159
     26155     26154     26157     26155     26154     26156     26156     26154     26157
     26158     26154     26157     26158     26154     26156     26158     26154     26155
     26160     26164     26165     26161     26160     26163     26161     26160     26162
     26162     26160     26163     26164     26160     26163     26164     26160     26162
     26164     26160     26161     26166     26170     26171     26167     26166     26169
     26167     26166     26168     26168     26166     26169     26170     26166     26169
     26170     26166     26168     26170     26166     26167     26172     26176     26177
     26173     26172     26175     26173     26172     26174     26174     26172     26175
     26176     26172     26175     26176     26172     26174     26176     26172     26173
     26178     26182     26183     26179     26178     26181     26179     26178     26180
     26180     26178     26181     26182     26178     26181     26182     26178     26180
     26182     26178     26179     26184     26188     26189     26185     26184     26187
     26185     26184     26186     26186     26184     26187     26188     26184     26187
     26188     26184     26186     26188     26184     26185     26190     26194     26195
     26191     26190     26193     26191     26190     26192     26192     26190     26193
     26194     26190     26193     26194     26190     26192     26194     26190     26191
     26196     26200     26201     26197     26196     26199     26197     26196     26198
     26198     26196     26199     26200     26196     26199     26200     26196     26198
     26200     26196     26197     26202     26206     26207     26203     26202     26205
     26203     26202     26204     26204     26202     26205     26206     26202     26205
     26206     26202     26204     26206     26202     26203     26208     26212     26213
     26209     26208     26211     26209     26208     26210     26210     26208     26211
     26212     26208     26211     26212     26208     26210     26212     26208     26209
     26214     26218     26219     26215     26214     26217     26215     26214     26216
     26216     26214     26217     26218     26214     26217     26218     26214     26216
     26218     26214     26215     26220     26224     26225     26221     26220     26223
     26221     26220     26222     26222     26220     26223     26224     26220     26223
     26224     26220     26222     26224     26220     26221     26226     26230     26231
     26227     26226     26229     26227     26226     26228     26228     26226     26229
     26230     26226     26229     26230     26226     26228     26230     26226     26227
     26232     26236     26237     26233     26232     26235     26233     26232     26234
     26234     26232     26235     26236     26232     26235     26236     26232     26234
     26236     26232     26233     26238     26242     26243     26239     26238     26241
     26239     26238     26240     26240     26238     26241     26242     26238     26241
     26242     26238     26240     26242     26238     26239     26244     26248     26249
     26245     26244     26247     26245     26244     26246     26246     26244     26247
     26248     26244     26247     26248     26244     26246     26248     26244     26245
     26250     26254     26255     26251     26250     26253     26251     26250     26252
     26252     26250     26253     26254     26250     26253     26254     26250     26252
     26254     26250     26251     26256     26260     26261     26257     26256     26259
     26257     26256     26258     26258     26256     26259     26260     26256     26259
     26260     26256     26258     26260     26256     26257     26262     26266     26267
     26263     26262     26265     26263     26262     26264     26264     26262     26265
     26266     26262     26265     26266     26262     26264     26266     26262     26263
     26268     26272     26273     26269     26268     26271     26269     26268     26270
     26270     26268     26271     26272     26268     26271     26272     26268     26270
     26272     26268     26269     26274     26278     26279     26275     26274     26277
     26275     26274     26276     26276     26274     26277     26278     26274     26277
     26278     26274     26276     26278     26274     26275     26280     26284     26285
     26281     26280     26283     26281     26280     26282     26282     26280     26283
     26284     26280     26283     26284     26280     26282     26284     26280     26281
     26286     26290     26291     26287     26286     26289     26287     26286     26288
     26288     26286     26289     26290     26286     26289     26290     26286     26288
     26290     26286     26287     26292     26296     26297     26293     26292     26295
     26293     26292     26294     26294     26292     26295     26296     26292     26295
     26296     26292     26294     26296     26292     26293     26298     26302     26303
     26299     26298     26301     26299     26298     26300     26300     26298     26301
     26302     26298     26301     26302     26298     26300     26302     26298     26299
     26304     26308     26309     26305     26304     26307     26305     26304     26306
     26306     26304     26307     26308     26304     26307     26308     26304     26306
     26308     26304     26305     26310     26314     26315     26311     26310     26313
     26311     26310     26312     26312     26310     26313     26314     26310     26313
     26314     26310     26312     26314     26310     26311     26316     26320     26321
     26317     26316     26319     26317     26316     26318     26318     26316     26319
     26320     26316     26319     26320     26316     26318     26320     26316     26317
     26322     26326     26327     26323     26322     26325     26323     26322     26324
     26324     26322     26325     26326     26322     26325     26326     26322     26324
     26326     26322     26323     26328     26332     26333     26329     26328     26331
     26329     26328     26330     26330     26328     26331     26332     26328     26331
     26332     26328     26330     26332     26328     26329     26334     26338     26339
     26335     26334     26337     26335     26334     26336     26336     26334     26337
     26338     26334     26337     26338     26334     26336     26338     26334     26335
     26340     26344     26345     26341     26340     26343     26341     26340     26342
     26342     26340     26343     26344     26340     26343     26344     26340     26342
     26344     26340     26341     26346     26350     26351     26347     26346     26349
     26347     26346     26348     26348     26346     26349     26350     26346     26349
     26350     26346     26348     26350     26346     26347     26352     26356     26357
     26353     26352     26355     26353     26352     26354     26354     26352     26355
     26356     26352     26355     26356     26352     26354     26356     26352     26353
     26358     26362     26363     26359     26358     26361     26359     26358     26360
     26360     26358     26361     26362     26358     26361     26362     26358     26360
     26362     26358     26359     26364     26368     26369     26365     26364     26367
     26365     26364     26366     26366     26364     26367     26368     26364     26367
     26368     26364     26366     26368     26364     26365     26370     26374     26375
     26371     26370     26373     26371     26370     26372     26372     26370     26373
     26374     26370     26373     26374     26370     26372     26374     26370     26371
     26376     26380     26381     26377     26376     26379     26377     26376     26378
     26378     26376     26379     26380     26376     26379     26380     26376     26378
     26380     26376     26377     26382     26386     26387     26383     26382     26385
     26383     26382     26384     26384     26382     26385     26386     26382     26385
     26386     26382     26384     26386     26382     26383     26388     26392     26393
     26389     26388     26391     26389     26388     26390     26390     26388     26391
     26392     26388     26391     26392     26388     26390     26392     26388     26389
     26394     26398     26399     26395     26394     26397     26395     26394     26396
     26396     26394     26397     26398     26394     26397     26398     26394     26396
     26398     26394     26395     26400     26404     26405     26401     26400     26403
     26401     26400     26402     26402     26400     26403     26404     26400     26403
     26404     26400     26402     26404     26400     26401     26406     26410     26411
     26407     26406     26409     26407     26406     26408     26408     26406     26409
     26410     26406     26409     26410     26406     26408     26410     26406     26407
     26412     26416     26417     26413     26412     26415     26413     26412     26414
     26414     26412     26415     26416     26412     26415     26416     26412     26414
     26416     26412     26413     26418     26422     26423     26419     26418     26421
     26419     26418     26420     26420     26418     26421     26422     26418     26421
     26422     26418     26420     26422     26418     26419     26424     26428     26429
     26425     26424     26427     26425     26424     26426     26426     26424     26427
     26428     26424     26427     26428     26424     26426     26428     26424     26425
     26430     26434     26435     26431     26430     26433     26431     26430     26432
     26432     26430     26433     26434     26430     26433     26434     26430     26432
     26434     26430     26431     26436     26440     26441     26437     26436     26439
     26437     26436     26438     26438     26436     26439     26440     26436     26439
     26440     26436     26438     26440     26436     26437     26442     26446     26447
     26443     26442     26445     26443     26442     26444     26444     26442     26445
     26446     26442     26445     26446     26442     26444     26446     26442     26443
     26448     26452     26453     26449     26448     26451     26449     26448     26450
     26450     26448     26451     26452     26448     26451     26452     26448     26450
     26452     26448     26449     26454     26458     26459     26455     26454     26457
     26455     26454     26456     26456     26454     26457     26458     26454     26457
     26458     26454     26456     26458     26454     26455     26460     26464     26465
     26461     26460     26463     26461     26460     26462     26462     26460     26463
     26464     26460     26463     26464     26460     26462     26464     26460     26461
     26466     26470     26471     26467     26466     26469     26467     26466     26468
     26468     26466     26469     26470     26466     26469     26470     26466     26468
     26470     26466     26467     26472     26476     26477     26473     26472     26475
     26473     26472     26474     26474     26472     26475     26476     26472     26475
     26476     26472     26474     26476     26472     26473     26478     26482     26483
     26479     26478     26481     26479     26478     26480     26480     26478     26481
     26482     26478     26481     26482     26478     26480     26482     26478     26479
     26484     26488     26489     26485     26484     26487     26485     26484     26486
     26486     26484     26487     26488     26484     26487     26488     26484     26486
     26488     26484     26485     26490     26494     26495     26491     26490     26493
     26491     26490     26492     26492     26490     26493     26494     26490     26493
     26494     26490     26492     26494     26490     26491     26496     26500     26501
     26497     26496     26499     26497     26496     26498     26498     26496     26499
     26500     26496     26499     26500     26496     26498     26500     26496     26497
     26502     26506     26507     26503     26502     26505     26503     26502     26504
     26504     26502     26505     26506     26502     26505     26506     26502     26504
     26506     26502     26503     26508     26512     26513     26509     26508     26511
     26509     26508     26510     26510     26508     26511     26512     26508     26511
     26512     26508     26510     26512     26508     26509     26514     26518     26519
     26515     26514     26517     26515     26514     26516     26516     26514     26517
     26518     26514     26517     26518     26514     26516     26518     26514     26515
     26520     26524     26525     26521     26520     26523     26521     26520     26522
     26522     26520     26523     26524     26520     26523     26524     26520     26522
     26524     26520     26521     26526     26530     26531     26527     26526     26529
     26527     26526     26528     26528     26526     26529     26530     26526     26529
     26530     26526     26528     26530     26526     26527     26532     26536     26537
     26533     26532     26535     26533     26532     26534     26534     26532     26535
     26536     26532     26535     26536     26532     26534     26536     26532     26533
     26538     26542     26543     26539     26538     26541     26539     26538     26540
     26540     26538     26541     26542     26538     26541     26542     26538     26540
     26542     26538     26539     26544     26548     26549     26545     26544     26547
     26545     26544     26546     26546     26544     26547     26548     26544     26547
     26548     26544     26546     26548     26544     26545     26550     26554     26555
     26551     26550     26553     26551     26550     26552     26552     26550     26553
     26554     26550     26553     26554     26550     26552     26554     26550     26551
     26556     26560     26561     26557     26556     26559     26557     26556     26558
     26558     26556     26559     26560     26556     26559     26560     26556     26558
     26560     26556     26557     26562     26566     26567     26563     26562     26565
     26563     26562     26564     26564     26562     26565     26566     26562     26565
     26566     26562     26564     26566     26562     26563     26568     26572     26573
     26569     26568     26571     26569     26568     26570     26570     26568     26571
     26572     26568     26571     26572     26568     26570     26572     26568     26569
     26574     26578     26579     26575     26574     26577     26575     26574     26576
     26576     26574     26577     26578     26574     26577     26578     26574     26576
     26578     26574     26575     26580     26584     26585     26581     26580     26583
     26581     26580     26582     26582     26580     26583     26584     26580     26583
     26584     26580     26582     26584     26580     26581     26586     26590     26591
     26587     26586     26589     26587     26586     26588     26588     26586     26589
     26590     26586     26589     26590     26586     26588     26590     26586     26587
     26592     26596     26597     26593     26592     26595     26593     26592     26594
     26594     26592     26595     26596     26592     26595     26596     26592     26594
     26596     26592     26593     26598     26602     26603     26599     26598     26601
     26599     26598     26600     26600     26598     26601     26602     26598     26601
     26602     26598     26600     26602     26598     26599     26604     26608     26609
     26605     26604     26607     26605     26604     26606     26606     26604     26607
     26608     26604     26607     26608     26604     26606     26608     26604     26605
     26610     26614     26615     26611     26610     26613     26611     26610     26612
     26612     26610     26613     26614     26610     26613     26614     26610     26612
     26614     26610     26611     26616     26620     26621     26617     26616     26619
     26617     26616     26618     26618     26616     26619     26620     26616     26619
     26620     26616     26618     26620     26616     26617     26622     26626     26627
     26623     26622     26625     26623     26622     26624     26624     26622     26625
     26626     26622     26625     26626     26622     26624     26626     26622     26623
     26628     26632     26633     26629     26628     26631     26629     26628     26630
     26630     26628     26631     26632     26628     26631     26632     26628     26630
     26632     26628     26629     26634     26638     26639     26635     26634     26637
     26635     26634     26636     26636     26634     26637     26638     26634     26637
     26638     26634     26636     26638     26634     26635     26640     26644     26645
     26641     26640     26643     26641     26640     26642     26642     26640     26643
     26644     26640     26643     26644     26640     26642     26644     26640     26641
     26646     26650     26651     26647     26646     26649     26647     26646     26648
     26648     26646     26649     26650     26646     26649     26650     26646     26648
     26650     26646     26647     26652     26656     26657     26653     26652     26655
     26653     26652     26654     26654     26652     26655     26656     26652     26655
     26656     26652     26654     26656     26652     26653     26658     26662     26663
     26659     26658     26661     26659     26658     26660     26660     26658     26661
     26662     26658     26661     26662     26658     26660     26662     26658     26659
     26664     26668     26669     26665     26664     26667     26665     26664     26666
     26666     26664     26667     26668     26664     26667     26668     26664     26666
     26668     26664     26665     26670     26674     26675     26671     26670     26673
     26671     26670     26672     26672     26670     26673     26674     26670     26673
     26674     26670     26672     26674     26670     26671     26676     26680     26681
     26677     26676     26679     26677     26676     26678     26678     26676     26679
     26680     26676     26679     26680     26676     26678     26680     26676     26677
     26682     26686     26687     26683     26682     26685     26683     26682     26684
     26684     26682     26685     26686     26682     26685     26686     26682     26684
     26686     26682     26683     26688     26692     26693     26689     26688     26691
     26689     26688     26690     26690     26688     26691     26692     26688     26691
     26692     26688     26690     26692     26688     26689     26694     26698     26699
     26695     26694     26697     26695     26694     26696     26696     26694     26697
     26698     26694     26697     26698     26694     26696     26698     26694     26695
     26700     26704     26705     26701     26700     26703     26701     26700     26702
     26702     26700     26703     26704     26700     26703     26704     26700     26702
     26704     26700     26701     26706     26710     26711     26707     26706     26709
     26707     26706     26708     26708     26706     26709     26710     26706     26709
     26710     26706     26708     26710     26706     26707     26712     26716     26717
     26713     26712     26715     26713     26712     26714     26714     26712     26715
     26716     26712     26715     26716     26712     26714     26716     26712     26713
     26718     26722     26723     26719     26718     26721     26719     26718     26720
     26720     26718     26721     26722     26718     26721     26722     26718     26720
     26722     26718     26719     26724     26728     26729     26725     26724     26727
     26725     26724     26726     26726     26724     26727     26728     26724     26727
     26728     26724     26726     26728     26724     26725     26730     26734     26735
     26731     26730     26733     26731     26730     26732     26732     26730     26733
     26734     26730     26733     26734     26730     26732     26734     26730     26731
     26736     26740     26741     26737     26736     26739     26737     26736     26738
     26738     26736     26739     26740     26736     26739     26740     26736     26738
     26740     26736     26737     26742     26746     26747     26743     26742     26745
     26743     26742     26744     26744     26742     26745     26746     26742     26745
     26746     26742     26744     26746     26742     26743     26748     26752     26753
     26749     26748     26751     26749     26748     26750     26750     26748     26751
     26752     26748     26751     26752     26748     26750     26752     26748     26749
     26754     26758     26759     26755     26754     26757     26755     26754     26756
     26756     26754     26757     26758     26754     26757     26758     26754     26756
     26758     26754     26755     26760     26764     26765     26761     26760     26763
     26761     26760     26762     26762     26760     26763     26764     26760     26763
     26764     26760     26762     26764     26760     26761     26766     26770     26771
     26767     26766     26769     26767     26766     26768     26768     26766     26769
     26770     26766     26769     26770     26766     26768     26770     26766     26767
     26772     26776     26777     26773     26772     26775     26773     26772     26774
     26774     26772     26775     26776     26772     26775     26776     26772     26774
     26776     26772     26773     26778     26782     26783     26779     26778     26781
     26779     26778     26780     26780     26778     26781     26782     26778     26781
     26782     26778     26780     26782     26778     26779     26784     26788     26789
     26785     26784     26787     26785     26784     26786     26786     26784     26787
     26788     26784     26787     26788     26784     26786     26788     26784     26785
     26790     26794     26795     26791     26790     26793     26791     26790     26792
     26792     26790     26793     26794     26790     26793     26794     26790     26792
     26794     26790     26791     26796     26800     26801     26797     26796     26799
     26797     26796     26798     26798     26796     26799     26800     26796     26799
     26800     26796     26798     26800     26796     26797     26802     26806     26807
     26803     26802     26805     26803     26802     26804     26804     26802     26805
     26806     26802     26805     26806     26802     26804     26806     26802     26803
     26808     26812     26813     26809     26808     26811     26809     26808     26810
     26810     26808     26811     26812     26808     26811     26812     26808     26810
     26812     26808     26809     26814     26818     26819     26815     26814     26817
     26815     26814     26816     26816     26814     26817     26818     26814     26817
     26818     26814     26816     26818     26814     26815     26820     26824     26825
     26821     26820     26823     26821     26820     26822     26822     26820     26823
     26824     26820     26823     26824     26820     26822     26824     26820     26821
     26826     26830     26831     26827     26826     26829     26827     26826     26828
     26828     26826     26829     26830     26826     26829     26830     26826     26828
     26830     26826     26827     26832     26836     26837     26833     26832     26835
     26833     26832     26834     26834     26832     26835     26836     26832     26835
     26836     26832     26834     26836     26832     26833     26838     26842     26843
     26839     26838     26841     26839     26838     26840     26840     26838     26841
     26842     26838     26841     26842     26838     26840     26842     26838     26839
     26844     26848     26849     26845     26844     26847     26845     26844     26846
     26846     26844     26847     26848     26844     26847     26848     26844     26846
     26848     26844     26845     26850     26854     26855     26851     26850     26853
     26851     26850     26852     26852     26850     26853     26854     26850     26853
     26854     26850     26852     26854     26850     26851     26856     26860     26861
     26857     26856     26859     26857     26856     26858     26858     26856     26859
     26860     26856     26859     26860     26856     26858     26860     26856     26857
     26862     26866     26867     26863     26862     26865     26863     26862     26864
     26864     26862     26865     26866     26862     26865     26866     26862     26864
     26866     26862     26863     26868     26872     26873     26869     26868     26871
     26869     26868     26870     26870     26868     26871     26872     26868     26871
     26872     26868     26870     26872     26868     26869     26874     26878     26879
     26875     26874     26877     26875     26874     26876     26876     26874     26877
     26878     26874     26877     26878     26874     26876     26878     26874     26875
     26880     26884     26885     26881     26880     26883     26881     26880     26882
     26882     26880     26883     26884     26880     26883     26884     26880     26882
     26884     26880     26881     26886     26890     26891     26887     26886     26889
     26887     26886     26888     26888     26886     26889     26890     26886     26889
     26890     26886     26888     26890     26886     26887     26892     26896     26897
     26893     26892     26895     26893     26892     26894     26894     26892     26895
     26896     26892     26895     26896     26892     26894     26896     26892     26893
     26898     26902     26903     26899     26898     26901     26899     26898     26900
     26900     26898     26901     26902     26898     26901     26902     26898     26900
     26902     26898     26899     26904     26908     26909     26905     26904     26907
     26905     26904     26906     26906     26904     26907     26908     26904     26907
     26908     26904     26906     26908     26904     26905     26910     26914     26915
     26911     26910     26913     26911     26910     26912     26912     26910     26913
     26914     26910     26913     26914     26910     26912     26914     26910     26911
     26916     26920     26921     26917     26916     26919     26917     26916     26918
     26918     26916     26919     26920     26916     26919     26920     26916     26918
     26920     26916     26917     26922     26926     26927     26923     26922     26925
     26923     26922     26924     26924     26922     26925     26926     26922     26925
     26926     26922     26924     26926     26922     26923     26928     26932     26933
     26929     26928     26931     26929     26928     26930     26930     26928     26931
     26932     26928     26931     26932     26928     26930     26932     26928     26929
     26934     26938     26939     26935     26934     26937     26935     26934     26936
     26936     26934     26937     26938     26934     26937     26938     26934     26936
     26938     26934     26935     26940     26944     26945     26941     26940     26943
     26941     26940     26942     26942     26940     26943     26944     26940     26943
     26944     26940     26942     26944     26940     26941     26946     26950     26951
     26947     26946     26949     26947     26946     26948     26948     26946     26949
     26950     26946     26949     26950     26946     26948     26950     26946     26947
     26952     26956     26957     26953     26952     26955     26953     26952     26954
     26954     26952     26955     26956     26952     26955     26956     26952     26954
     26956     26952     26953     26958     26962     26963     26959     26958     26961
     26959     26958     26960     26960     26958     26961     26962     26958     26961
     26962     26958     26960     26962     26958     26959     26964     26968     26969
     26965     26964     26967     26965     26964     26966     26966     26964     26967
     26968     26964     26967     26968     26964     26966     26968     26964     26965
     26970     26974     26975     26971     26970     26973     26971     26970     26972
     26972     26970     26973     26974     26970     26973     26974     26970     26972
     26974     26970     26971     26976     26980     26981     26977     26976     26979
     26977     26976     26978     26978     26976     26979     26980     26976     26979
     26980     26976     26978     26980     26976     26977     26982     26986     26987
     26983     26982     26985     26983     26982     26984     26984     26982     26985
     26986     26982     26985     26986     26982     26984     26986     26982     26983
     26988     26992     26993     26989     26988     26991     26989     26988     26990
     26990     26988     26991     26992     26988     26991     26992     26988     26990
     26992     26988     26989     26994     26998     26999     26995     26994     26997
     26995     26994     26996     26996     26994     26997     26998     26994     26997
     26998     26994     26996     26998     26994     26995     27000     27004     27005
     27001     27000     27003     27001     27000     27002     27002     27000     27003
     27004     27000     27003     27004     27000     27002     27004     27000     27001
     27006     27010     27011     27007     27006     27009     27007     27006     27008
     27008     27006     27009     27010     27006     27009     27010     27006     27008
     27010     27006     27007     27012     27016     27017     27013     27012     27015
     27013     27012     27014     27014     27012     27015     27016     27012     27015
     27016     27012     27014     27016     27012     27013     27018     27022     27023
     27019     27018     27021     27019     27018     27020     27020     27018     27021
     27022     27018     27021     27022     27018     27020     27022     27018     27019
     27024     27028     27029     27025     27024     27027     27025     27024     27026
     27026     27024     27027     27028     27024     27027     27028     27024     27026
     27028     27024     27025     27030     27034     27035     27031     27030     27033
     27031     27030     27032     27032     27030     27033     27034     27030     27033
     27034     27030     27032     27034     27030     27031     27036     27040     27041
     27037     27036     27039     27037     27036     27038     27038     27036     27039
     27040     27036     27039     27040     27036     27038     27040     27036     27037
     27042     27046     27047     27043     27042     27045     27043     27042     27044
     27044     27042     27045     27046     27042     27045     27046     27042     27044
     27046     27042     27043     27048     27052     27053     27049     27048     27051
     27049     27048     27050     27050     27048     27051     27052     27048     27051
     27052     27048     27050     27052     27048     27049     27054     27058     27059
     27055     27054     27057     27055     27054     27056     27056     27054     27057
     27058     27054     27057     27058     27054     27056     27058     27054     27055
     27060     27064     27065     27061     27060     27063     27061     27060     27062
     27062     27060     27063     27064     27060     27063     27064     27060     27062
     27064     27060     27061     27066     27070     27071     27067     27066     27069
     27067     27066     27068     27068     27066     27069     27070     27066     27069
     27070     27066     27068     27070     27066     27067     27072     27076     27077
     27073     27072     27075     27073     27072     27074     27074     27072     27075
     27076     27072     27075     27076     27072     27074     27076     27072     27073
     27078     27082     27083     27079     27078     27081     27079     27078     27080
     27080     27078     27081     27082     27078     27081     27082     27078     27080
     27082     27078     27079     27084     27088     27089     27085     27084     27087
     27085     27084     27086     27086     27084     27087     27088     27084     27087
     27088     27084     27086     27088     27084     27085     27090     27094     27095
     27091     27090     27093     27091     27090     27092     27092     27090     27093
     27094     27090     27093     27094     27090     27092     27094     27090     27091
     27096     27100     27101     27097     27096     27099     27097     27096     27098
     27098     27096     27099     27100     27096     27099     27100     27096     27098
     27100     27096     27097     27102     27106     27107     27103     27102     27105
     27103     27102     27104     27104     27102     27105     27106     27102     27105
     27106     27102     27104     27106     27102     27103     27108     27112     27113
     27109     27108     27111     27109     27108     27110     27110     27108     27111
     27112     27108     27111     27112     27108     27110     27112     27108     27109
     27114     27118     27119     27115     27114     27117     27115     27114     27116
     27116     27114     27117     27118     27114     27117     27118     27114     27116
     27118     27114     27115     27120     27124     27125     27121     27120     27123
     27121     27120     27122     27122     27120     27123     27124     27120     27123
     27124     27120     27122     27124     27120     27121     27126     27130     27131
     27127     27126     27129     27127     27126     27128     27128     27126     27129
     27130     27126     27129     27130     27126     27128     27130     27126     27127
     27132     27136     27137     27133     27132     27135     27133     27132     27134
     27134     27132     27135     27136     27132     27135     27136     27132     27134
     27136     27132     27133     27138     27142     27143     27139     27138     27141
     27139     27138     27140     27140     27138     27141     27142     27138     27141
     27142     27138     27140     27142     27138     27139     27144     27148     27149
     27145     27144     27147     27145     27144     27146     27146     27144     27147
     27148     27144     27147     27148     27144     27146     27148     27144     27145
     27150     27154     27155     27151     27150     27153     27151     27150     27152
     27152     27150     27153     27154     27150     27153     27154     27150     27152
     27154     27150     27151     27156     27160     27161     27157     27156     27159
     27157     27156     27158     27158     27156     27159     27160     27156     27159
     27160     27156     27158     27160     27156     27157     27162     27166     27167
     27163     27162     27165     27163     27162     27164     27164     27162     27165
     27166     27162     27165     27166     27162     27164     27166     27162     27163
     27168     27172     27173     27169     27168     27171     27169     27168     27170
     27170     27168     27171     27172     27168     27171     27172     27168     27170
     27172     27168     27169     27174     27178     27179     27175     27174     27177
     27175     27174     27176     27176     27174     27177     27178     27174     27177
     27178     27174     27176     27178     27174     27175     27180     27184     27185
     27181     27180     27183     27181     27180     27182     27182     27180     27183
     27184     27180     27183     27184     27180     27182     27184     27180     27181
     27186     27190     27191     27187     27186     27189     27187     27186     27188
     27188     27186     27189     27190     27186     27189     27190     27186     27188
     27190     27186     27187     27192     27196     27197     27193     27192     27195
     27193     27192     27194     27194     27192     27195     27196     27192     27195
     27196     27192     27194     27196     27192     27193     27198     27202     27203
     27199     27198     27201     27199     27198     27200     27200     27198     27201
     27202     27198     27201     27202     27198     27200     27202     27198     27199
     27204     27208     27209     27205     27204     27207     27205     27204     27206
     27206     27204     27207     27208     27204     27207     27208     27204     27206
     27208     27204     27205     27210     27214     27215     27211     27210     27213
     27211     27210     27212     27212     27210     27213     27214     27210     27213
     27214     27210     27212     27214     27210     27211     27216     27220     27221
     27217     27216     27219     27217     27216     27218     27218     27216     27219
     27220     27216     27219     27220     27216     27218     27220     27216     27217
     27222     27226     27227     27223     27222     27225     27223     27222     27224
     27224     27222     27225     27226     27222     27225     27226     27222     27224
     27226     27222     27223     27228     27232     27233     27229     27228     27231
     27229     27228     27230     27230     27228     27231     27232     27228     27231
     27232     27228     27230     27232     27228     27229     27234     27238     27239
     27235     27234     27237     27235     27234     27236     27236     27234     27237
     27238     27234     27237     27238     27234     27236     27238     27234     27235
     27240     27244     27245     27241     27240     27243     27241     27240     27242
     27242     27240     27243     27244     27240     27243     27244     27240     27242
     27244     27240     27241     27246     27250     27251     27247     27246     27249
     27247     27246     27248     27248     27246     27249     27250     27246     27249
     27250     27246     27248     27250     27246     27247     27252     27256     27257
     27253     27252     27255     27253     27252     27254     27254     27252     27255
     27256     27252     27255     27256     27252     27254     27256     27252     27253
     27258     27262     27263     27259     27258     27261     27259     27258     27260
     27260     27258     27261     27262     27258     27261     27262     27258     27260
     27262     27258     27259     27264     27268     27269     27265     27264     27267
     27265     27264     27266     27266     27264     27267     27268     27264     27267
     27268     27264     27266     27268     27264     27265     27270     27274     27275
     27271     27270     27273     27271     27270     27272     27272     27270     27273
     27274     27270     27273     27274     27270     27272     27274     27270     27271
     27276     27280     27281     27277     27276     27279     27277     27276     27278
     27278     27276     27279     27280     27276     27279     27280     27276     27278
     27280     27276     27277     27282     27286     27287     27283     27282     27285
     27283     27282     27284     27284     27282     27285     27286     27282     27285
     27286     27282     27284     27286     27282     27283     27288     27292     27293
     27289     27288     27291     27289     27288     27290     27290     27288     27291
     27292     27288     27291     27292     27288     27290     27292     27288     27289
     27294     27298     27299     27295     27294     27297     27295     27294     27296
     27296     27294     27297     27298     27294     27297     27298     27294     27296
     27298     27294     27295     27300     27304     27305     27301     27300     27303
     27301     27300     27302     27302     27300     27303     27304     27300     27303
     27304     27300     27302     27304     27300     27301     27306     27310     27311
     27307     27306     27309     27307     27306     27308     27308     27306     27309
     27310     27306     27309     27310     27306     27308     27310     27306     27307
     27312     27316     27317     27313     27312     27315     27313     27312     27314
     27314     27312     27315     27316     27312     27315     27316     27312     27314
     27316     27312     27313     27318     27322     27323     27319     27318     27321
     27319     27318     27320     27320     27318     27321     27322     27318     27321
     27322     27318     27320     27322     27318     27319     27324     27328     27329
     27325     27324     27327     27325     27324     27326     27326     27324     27327
     27328     27324     27327     27328     27324     27326     27328     27324     27325
     27330     27334     27335     27331     27330     27333     27331     27330     27332
     27332     27330     27333     27334     27330     27333     27334     27330     27332
     27334     27330     27331     27336     27340     27341     27337     27336     27339
     27337     27336     27338     27338     27336     27339     27340     27336     27339
     27340     27336     27338     27340     27336     27337     27342     27346     27347
     27343     27342     27345     27343     27342     27344     27344     27342     27345
     27346     27342     27345     27346     27342     27344     27346     27342     27343
     27348     27352     27353     27349     27348     27351     27349     27348     27350
     27350     27348     27351     27352     27348     27351     27352     27348     27350
     27352     27348     27349     27354     27358     27359     27355     27354     27357
     27355     27354     27356     27356     27354     27357     27358     27354     27357
     27358     27354     27356     27358     27354     27355     27360     27364     27365
     27361     27360     27363     27361     27360     27362     27362     27360     27363
     27364     27360     27363     27364     27360     27362     27364     27360     27361
     27366     27370     27371     27367     27366     27369     27367     27366     27368
     27368     27366     27369     27370     27366     27369     27370     27366     27368
     27370     27366     27367     27372     27376     27377     27373     27372     27375
     27373     27372     27374     27374     27372     27375     27376     27372     27375
     27376     27372     27374     27376     27372     27373     27378     27382     27383
     27379     27378     27381     27379     27378     27380     27380     27378     27381
     27382     27378     27381     27382     27378     27380     27382     27378     27379
     27384     27388     27389     27385     27384     27387     27385     27384     27386
     27386     27384     27387     27388     27384     27387     27388     27384     27386
     27388     27384     27385     27390     27394     27395     27391     27390     27393
     27391     27390     27392     27392     27390     27393     27394     27390     27393
     27394     27390     27392     27394     27390     27391     27396     27400     27401
     27397     27396     27399     27397     27396     27398     27398     27396     27399
     27400     27396     27399     27400     27396     27398     27400     27396     27397
     27402     27406     27407     27403     27402     27405     27403     27402     27404
     27404     27402     27405     27406     27402     27405     27406     27402     27404
     27406     27402     27403     27408     27412     27413     27409     27408     27411
     27409     27408     27410     27410     27408     27411     27412     27408     27411
     27412     27408     27410     27412     27408     27409     27414     27418     27419
     27415     27414     27417     27415     27414     27416     27416     27414     27417
     27418     27414     27417     27418     27414     27416     27418     27414     27415
     27420     27424     27425     27421     27420     27423     27421     27420     27422
     27422     27420     27423     27424     27420     27423     27424     27420     27422
     27424     27420     27421     27426     27430     27431     27427     27426     27429
     27427     27426     27428     27428     27426     27429     27430     27426     27429
     27430     27426     27428     27430     27426     27427     27432     27436     27437
     27433     27432     27435     27433     27432     27434     27434     27432     27435
     27436     27432     27435     27436     27432     27434     27436     27432     27433
     27438     27442     27443     27439     27438     27441     27439     27438     27440
     27440     27438     27441     27442     27438     27441     27442     27438     27440
     27442     27438     27439     27444     27448     27449     27445     27444     27447
     27445     27444     27446     27446     27444     27447     27448     27444     27447
     27448     27444     27446     27448     27444     27445     27450     27454     27455
     27451     27450     27453     27451     27450     27452     27452     27450     27453
     27454     27450     27453     27454     27450     27452     27454     27450     27451
     27456     27460     27461     27457     27456     27459     27457     27456     27458
     27458     27456     27459     27460     27456     27459     27460     27456     27458
     27460     27456     27457     27462     27466     27467     27463     27462     27465
     27463     27462     27464     27464     27462     27465     27466     27462     27465
     27466     27462     27464     27466     27462     27463     27468     27472     27473
     27469     27468     27471     27469     27468     27470     27470     27468     27471
     27472     27468     27471     27472     27468     27470     27472     27468     27469
     27474     27478     27479     27475     27474     27477     27475     27474     27476
     27476     27474     27477     27478     27474     27477     27478     27474     27476
     27478     27474     27475     27480     27484     27485     27481     27480     27483
     27481     27480     27482     27482     27480     27483     27484     27480     27483
     27484     27480     27482     27484     27480     27481     27486     27490     27491
     27487     27486     27489     27487     27486     27488     27488     27486     27489
     27490     27486     27489     27490     27486     27488     27490     27486     27487
     27492     27496     27497     27493     27492     27495     27493     27492     27494
     27494     27492     27495     27496     27492     27495     27496     27492     27494
     27496     27492     27493     27498     27502     27503     27499     27498     27501
     27499     27498     27500     27500     27498     27501     27502     27498     27501
     27502     27498     27500     27502     27498     27499     27504     27508     27509
     27505     27504     27507     27505     27504     27506     27506     27504     27507
     27508     27504     27507     27508     27504     27506     27508     27504     27505
     27510     27514     27515     27511     27510     27513     27511     27510     27512
     27512     27510     27513     27514     27510     27513     27514     27510     27512
     27514     27510     27511     27516     27520     27521     27517     27516     27519
     27517     27516     27518     27518     27516     27519     27520     27516     27519
     27520     27516     27518     27520     27516     27517     27522     27526     27527
     27523     27522     27525     27523     27522     27524     27524     27522     27525
     27526     27522     27525     27526     27522     27524     27526     27522     27523
     27528     27532     27533     27529     27528     27531     27529     27528     27530
     27530     27528     27531     27532     27528     27531     27532     27528     27530
     27532     27528     27529     27534     27538     27539     27535     27534     27537
     27535     27534     27536     27536     27534     27537     27538     27534     27537
     27538     27534     27536     27538     27534     27535     27540     27544     27545
     27541     27540     27543     27541     27540     27542     27542     27540     27543
     27544     27540     27543     27544     27540     27542     27544     27540     27541
     27546     27550     27551     27547     27546     27549     27547     27546     27548
     27548     27546     27549     27550     27546     27549     27550     27546     27548
     27550     27546     27547     27552     27556     27557     27553     27552     27555
     27553     27552     27554     27554     27552     27555     27556     27552     27555
     27556     27552     27554     27556     27552     27553     27558     27562     27563
     27559     27558     27561     27559     27558     27560     27560     27558     27561
     27562     27558     27561     27562     27558     27560     27562     27558     27559
     27564     27568     27569     27565     27564     27567     27565     27564     27566
     27566     27564     27567     27568     27564     27567     27568     27564     27566
     27568     27564     27565     27570     27574     27575     27571     27570     27573
     27571     27570     27572     27572     27570     27573     27574     27570     27573
     27574     27570     27572     27574     27570     27571     27576     27580     27581
     27577     27576     27579     27577     27576     27578     27578     27576     27579
     27580     27576     27579     27580     27576     27578     27580     27576     27577
     27582     27586     27587     27583     27582     27585     27583     27582     27584
     27584     27582     27585     27586     27582     27585     27586     27582     27584
     27586     27582     27583     27588     27592     27593     27589     27588     27591
     27589     27588     27590     27590     27588     27591     27592     27588     27591
     27592     27588     27590     27592     27588     27589     27594     27598     27599
     27595     27594     27597     27595     27594     27596     27596     27594     27597
     27598     27594     27597     27598     27594     27596     27598     27594     27595
     27600     27604     27605     27601     27600     27603     27601     27600     27602
     27602     27600     27603     27604     27600     27603     27604     27600     27602
     27604     27600     27601     27606     27610     27611     27607     27606     27609
     27607     27606     27608     27608     27606     27609     27610     27606     27609
     27610     27606     27608     27610     27606     27607     27612     27616     27617
     27613     27612     27615     27613     27612     27614     27614     27612     27615
     27616     27612     27615     27616     27612     27614     27616     27612     27613
     27618     27622     27623     27619     27618     27621     27619     27618     27620
     27620     27618     27621     27622     27618     27621     27622     27618     27620
     27622     27618     27619     27624     27628     27629     27625     27624     27627
     27625     27624     27626     27626     27624     27627     27628     27624     27627
     27628     27624     27626     27628     27624     27625     27630     27634     27635
     27631     27630     27633     27631     27630     27632     27632     27630     27633
     27634     27630     27633     27634     27630     27632     27634     27630     27631
     27636     27640     27641     27637     27636     27639     27637     27636     27638
     27638     27636     27639     27640     27636     27639     27640     27636     27638
     27640     27636     27637     27642     27646     27647     27643     27642     27645
     27643     27642     27644     27644     27642     27645     27646     27642     27645
     27646     27642     27644     27646     27642     27643     27648     27652     27653
     27649     27648     27651     27649     27648     27650     27650     27648     27651
     27652     27648     27651     27652     27648     27650     27652     27648     27649
     27654     27658     27659     27655     27654     27657     27655     27654     27656
     27656     27654     27657     27658     27654     27657     27658     27654     27656
     27658     27654     27655     27660     27664     27665     27661     27660     27663
     27661     27660     27662     27662     27660     27663     27664     27660     27663
     27664     27660     27662     27664     27660     27661     27666     27670     27671
     27667     27666     27669     27667     27666     27668     27668     27666     27669
     27670     27666     27669     27670     27666     27668     27670     27666     27667
     27672     27676     27677     27673     27672     27675     27673     27672     27674
     27674     27672     27675     27676     27672     27675     27676     27672     27674
     27676     27672     27673     27678     27682     27683     27679     27678     27681
     27679     27678     27680     27680     27678     27681     27682     27678     27681
     27682     27678     27680     27682     27678     27679     27684     27688     27689
     27685     27684     27687     27685     27684     27686     27686     27684     27687
     27688     27684     27687     27688     27684     27686     27688     27684     27685
     27690     27694     27695     27691     27690     27693     27691     27690     27692
     27692     27690     27693     27694     27690     27693     27694     27690     27692
     27694     27690     27691     27696     27700     27701     27697     27696     27699
     27697     27696     27698     27698     27696     27699     27700     27696     27699
     27700     27696     27698     27700     27696     27697     27702     27706     27707
     27703     27702     27705     27703     27702     27704     27704     27702     27705
     27706     27702     27705     27706     27702     27704     27706     27702     27703
     27708     27712     27713     27709     27708     27711     27709     27708     27710
     27710     27708     27711     27712     27708     27711     27712     27708     27710
     27712     27708     27709     27714     27718     27719     27715     27714     27717
     27715     27714     27716     27716     27714     27717     27718     27714     27717
     27718     27714     27716     27718     27714     27715     27720     27724     27725
     27721     27720     27723     27721     27720     27722     27722     27720     27723
     27724     27720     27723     27724     27720     27722     27724     27720     27721
     27726     27730     27731     27727     27726     27729     27727     27726     27728
     27728     27726     27729     27730     27726     27729     27730     27726     27728
     27730     27726     27727     27732     27736     27737     27733     27732     27735
     27733     27732     27734     27734     27732     27735     27736     27732     27735
     27736     27732     27734     27736     27732     27733     27738     27742     27743
     27739     27738     27741     27739     27738     27740     27740     27738     27741
     27742     27738     27741     27742     27738     27740     27742     27738     27739
     27744     27748     27749     27745     27744     27747     27745     27744     27746
     27746     27744     27747     27748     27744     27747     27748     27744     27746
     27748     27744     27745     27750     27754     27755     27751     27750     27753
     27751     27750     27752     27752     27750     27753     27754     27750     27753
     27754     27750     27752     27754     27750     27751     27756     27760     27761
     27757     27756     27759     27757     27756     27758     27758     27756     27759
     27760     27756     27759     27760     27756     27758     27760     27756     27757
     27762     27766     27767     27763     27762     27765     27763     27762     27764
     27764     27762     27765     27766     27762     27765     27766     27762     27764
     27766     27762     27763     27768     27772     27773     27769     27768     27771
     27769     27768     27770     27770     27768     27771     27772     27768     27771
     27772     27768     27770     27772     27768     27769     27774     27778     27779
     27775     27774     27777     27775     27774     27776     27776     27774     27777
     27778     27774     27777     27778     27774     27776     27778     27774     27775
     27780     27784     27785     27781     27780     27783     27781     27780     27782
     27782     27780     27783     27784     27780     27783     27784     27780     27782
     27784     27780     27781     27786     27790     27791     27787     27786     27789
     27787     27786     27788     27788     27786     27789     27790     27786     27789
     27790     27786     27788     27790     27786     27787     27792     27796     27797
     27793     27792     27795     27793     27792     27794     27794     27792     27795
     27796     27792     27795     27796     27792     27794     27796     27792     27793
     27798     27802     27803     27799     27798     27801     27799     27798     27800
     27800     27798     27801     27802     27798     27801     27802     27798     27800
     27802     27798     27799     27804     27808     27809     27805     27804     27807
     27805     27804     27806     27806     27804     27807     27808     27804     27807
     27808     27804     27806     27808     27804     27805     27810     27814     27815
     27811     27810     27813     27811     27810     27812     27812     27810     27813
     27814     27810     27813     27814     27810     27812     27814     27810     27811
     27816     27820     27821     27817     27816     27819     27817     27816     27818
     27818     27816     27819     27820     27816     27819     27820     27816     27818
     27820     27816     27817     27822     27826     27827     27823     27822     27825
     27823     27822     27824     27824     27822     27825     27826     27822     27825
     27826     27822     27824     27826     27822     27823     27828     27832     27833
     27829     27828     27831     27829     27828     27830     27830     27828     27831
     27832     27828     27831     27832     27828     27830     27832     27828     27829
     27834     27838     27839     27835     27834     27837     27835     27834     27836
     27836     27834     27837     27838     27834     27837     27838     27834     27836
     27838     27834     27835     27840     27844     27845     27841     27840     27843
     27841     27840     27842     27842     27840     27843     27844     27840     27843
     27844     27840     27842     27844     27840     27841     27846     27850     27851
     27847     27846     27849     27847     27846     27848     27848     27846     27849
     27850     27846     27849     27850     27846     27848     27850     27846     27847
     27852     27856     27857     27853     27852     27855     27853     27852     27854
     27854     27852     27855     27856     27852     27855     27856     27852     27854
     27856     27852     27853     27858     27862     27863     27859     27858     27861
     27859     27858     27860     27860     27858     27861     27862     27858     27861
     27862     27858     27860     27862     27858     27859     27864     27868     27869
     27865     27864     27867     27865     27864     27866     27866     27864     27867
     27868     27864     27867     27868     27864     27866     27868     27864     27865
     27870     27874     27875     27871     27870     27873     27871     27870     27872
     27872     27870     27873     27874     27870     27873     27874     27870     27872
     27874     27870     27871     27876     27880     27881     27877     27876     27879
     27877     27876     27878     27878     27876     27879     27880     27876     27879
     27880     27876     27878     27880     27876     27877     27882     27886     27887
     27883     27882     27885     27883     27882     27884     27884     27882     27885
     27886     27882     27885     27886     27882     27884     27886     27882     27883
     27888     27892     27893     27889     27888     27891     27889     27888     27890
     27890     27888     27891     27892     27888     27891     27892     27888     27890
     27892     27888     27889     27894     27898     27899     27895     27894     27897
     27895     27894     27896     27896     27894     27897     27898     27894     27897
     27898     27894     27896     27898     27894     27895     27900     27904     27905
     27901     27900     27903     27901     27900     27902     27902     27900     27903
     27904     27900     27903     27904     27900     27902     27904     27900     27901
     27906     27910     27911     27907     27906     27909     27907     27906     27908
     27908     27906     27909     27910     27906     27909     27910     27906     27908
     27910     27906     27907     27912     27916     27917     27913     27912     27915
     27913     27912     27914     27914     27912     27915     27916     27912     27915
     27916     27912     27914     27916     27912     27913     27918     27922     27923
     27919     27918     27921     27919     27918     27920     27920     27918     27921
     27922     27918     27921     27922     27918     27920     27922     27918     27919
     27924     27928     27929     27925     27924     27927     27925     27924     27926
     27926     27924     27927     27928     27924     27927     27928     27924     27926
     27928     27924     27925     27930     27934     27935     27931     27930     27933
     27931     27930     27932     27932     27930     27933     27934     27930     27933
     27934     27930     27932     27934     27930     27931     27936     27940     27941
     27937     27936     27939     27937     27936     27938     27938     27936     27939
     27940     27936     27939     27940     27936     27938     27940     27936     27937
     27942     27946     27947     27943     27942     27945     27943     27942     27944
     27944     27942     27945     27946     27942     27945     27946     27942     27944
     27946     27942     27943     27948     27952     27953     27949     27948     27951
     27949     27948     27950     27950     27948     27951     27952     27948     27951
     27952     27948     27950     27952     27948     27949     27954     27958     27959
     27955     27954     27957     27955     27954     27956     27956     27954     27957
     27958     27954     27957     27958     27954     27956     27958     27954     27955
     27960     27964     27965     27961     27960     27963     27961     27960     27962
     27962     27960     27963     27964     27960     27963     27964     27960     27962
     27964     27960     27961     27966     27970     27971     27967     27966     27969
     27967     27966     27968     27968     27966     27969     27970     27966     27969
     27970     27966     27968     27970     27966     27967     27972     27976     27977
     27973     27972     27975     27973     27972     27974     27974     27972     27975
     27976     27972     27975     27976     27972     27974     27976     27972     27973
     27978     27982     27983     27979     27978     27981     27979     27978     27980
     27980     27978     27981     27982     27978     27981     27982     27978     27980
     27982     27978     27979     27984     27988     27989     27985     27984     27987
     27985     27984     27986     27986     27984     27987     27988     27984     27987
     27988     27984     27986     27988     27984     27985     27990     27994     27995
     27991     27990     27993     27991     27990     27992     27992     27990     27993
     27994     27990     27993     27994     27990     27992     27994     27990     27991
     27996     28000     28001     27997     27996     27999     27997     27996     27998
     27998     27996     27999     28000     27996     27999     28000     27996     27998
     28000     27996     27997     28002     28006     28007     28003     28002     28005
     28003     28002     28004     28004     28002     28005     28006     28002     28005
     28006     28002     28004     28006     28002     28003     28008     28012     28013
     28009     28008     28011     28009     28008     28010     28010     28008     28011
     28012     28008     28011     28012     28008     28010     28012     28008     28009
     28014     28018     28019     28015     28014     28017     28015     28014     28016
     28016     28014     28017     28018     28014     28017     28018     28014     28016
     28018     28014     28015     28020     28024     28025     28021     28020     28023
     28021     28020     28022     28022     28020     28023     28024     28020     28023
     28024     28020     28022     28024     28020     28021     28026     28030     28031
     28027     28026     28029     28027     28026     28028     28028     28026     28029
     28030     28026     28029     28030     28026     28028     28030     28026     28027
     28032     28036     28037     28033     28032     28035     28033     28032     28034
     28034     28032     28035     28036     28032     28035     28036     28032     28034
     28036     28032     28033     28038     28042     28043     28039     28038     28041
     28039     28038     28040     28040     28038     28041     28042     28038     28041
     28042     28038     28040     28042     28038     28039     28044     28048     28049
     28045     28044     28047     28045     28044     28046     28046     28044     28047
     28048     28044     28047     28048     28044     28046     28048     28044     28045
     28050     28054     28055     28051     28050     28053     28051     28050     28052
     28052     28050     28053     28054     28050     28053     28054     28050     28052
     28054     28050     28051     28056     28060     28061     28057     28056     28059
     28057     28056     28058     28058     28056     28059     28060     28056     28059
     28060     28056     28058     28060     28056     28057     28062     28066     28067
     28063     28062     28065     28063     28062     28064     28064     28062     28065
     28066     28062     28065     28066     28062     28064     28066     28062     28063
     28068     28072     28073     28069     28068     28071     28069     28068     28070
     28070     28068     28071     28072     28068     28071     28072     28068     28070
     28072     28068     28069     28074     28078     28079     28075     28074     28077
     28075     28074     28076     28076     28074     28077     28078     28074     28077
     28078     28074     28076     28078     28074     28075     28080     28084     28085
     28081     28080     28083     28081     28080     28082     28082     28080     28083
     28084     28080     28083     28084     28080     28082     28084     28080     28081
     28086     28090     28091     28087     28086     28089     28087     28086     28088
     28088     28086     28089     28090     28086     28089     28090     28086     28088
     28090     28086     28087     28092     28096     28097     28093     28092     28095
     28093     28092     28094     28094     28092     28095     28096     28092     28095
     28096     28092     28094     28096     28092     28093     28098     28102     28103
     28099     28098     28101     28099     28098     28100     28100     28098     28101
     28102     28098     28101     28102     28098     28100     28102     28098     28099
     28104     28108     28109     28105     28104     28107     28105     28104     28106
     28106     28104     28107     28108     28104     28107     28108     28104     28106
     28108     28104     28105     28110     28114     28115     28111     28110     28113
     28111     28110     28112     28112     28110     28113     28114     28110     28113
     28114     28110     28112     28114     28110     28111     28116     28120     28121
     28117     28116     28119     28117     28116     28118     28118     28116     28119
     28120     28116     28119     28120     28116     28118     28120     28116     28117
     28122     28126     28127     28123     28122     28125     28123     28122     28124
     28124     28122     28125     28126     28122     28125     28126     28122     28124
     28126     28122     28123     28128     28132     28133     28129     28128     28131
     28129     28128     28130     28130     28128     28131     28132     28128     28131
     28132     28128     28130     28132     28128     28129     28134     28138     28139
     28135     28134     28137     28135     28134     28136     28136     28134     28137
     28138     28134     28137     28138     28134     28136     28138     28134     28135
     28140     28144     28145     28141     28140     28143     28141     28140     28142
     28142     28140     28143     28144     28140     28143     28144     28140     28142
     28144     28140     28141     28146     28150     28151     28147     28146     28149
     28147     28146     28148     28148     28146     28149     28150     28146     28149
     28150     28146     28148     28150     28146     28147     28152     28156     28157
     28153     28152     28155     28153     28152     28154     28154     28152     28155
     28156     28152     28155     28156     28152     28154     28156     28152     28153
     28158     28162     28163     28159     28158     28161     28159     28158     28160
     28160     28158     28161     28162     28158     28161     28162     28158     28160
     28162     28158     28159     28164     28168     28169     28165     28164     28167
     28165     28164     28166     28166     28164     28167     28168     28164     28167
     28168     28164     28166     28168     28164     28165     28170     28174     28175
     28171     28170     28173     28171     28170     28172     28172     28170     28173
     28174     28170     28173     28174     28170     28172     28174     28170     28171
     28176     28180     28181     28177     28176     28179     28177     28176     28178
     28178     28176     28179     28180     28176     28179     28180     28176     28178
     28180     28176     28177     28182     28186     28187     28183     28182     28185
     28183     28182     28184     28184     28182     28185     28186     28182     28185
     28186     28182     28184     28186     28182     28183     28188     28192     28193
     28189     28188     28191     28189     28188     28190     28190     28188     28191
     28192     28188     28191     28192     28188     28190     28192     28188     28189
     28194     28198     28199     28195     28194     28197     28195     28194     28196
     28196     28194     28197     28198     28194     28197     28198     28194     28196
     28198     28194     28195     28200     28204     28205     28201     28200     28203
     28201     28200     28202     28202     28200     28203     28204     28200     28203
     28204     28200     28202     28204     28200     28201     28206     28210     28211
     28207     28206     28209     28207     28206     28208     28208     28206     28209
     28210     28206     28209     28210     28206     28208     28210     28206     28207
     28212     28216     28217     28213     28212     28215     28213     28212     28214
     28214     28212     28215     28216     28212     28215     28216     28212     28214
     28216     28212     28213     28218     28222     28223     28219     28218     28221
     28219     28218     28220     28220     28218     28221     28222     28218     28221
     28222     28218     28220     28222     28218     28219     28224     28228     28229
     28225     28224     28227     28225     28224     28226     28226     28224     28227
     28228     28224     28227     28228     28224     28226     28228     28224     28225
     28230     28234     28235     28231     28230     28233     28231     28230     28232
     28232     28230     28233     28234     28230     28233     28234     28230     28232
     28234     28230     28231     28236     28240     28241     28237     28236     28239
     28237     28236     28238     28238     28236     28239     28240     28236     28239
     28240     28236     28238     28240     28236     28237     28242     28246     28247
     28243     28242     28245     28243     28242     28244     28244     28242     28245
     28246     28242     28245     28246     28242     28244     28246     28242     28243
     28248     28252     28253     28249     28248     28251     28249     28248     28250
     28250     28248     28251     28252     28248     28251     28252     28248     28250
     28252     28248     28249     28254     28258     28259     28255     28254     28257
     28255     28254     28256     28256     28254     28257     28258     28254     28257
     28258     28254     28256     28258     28254     28255     28260     28264     28265
     28261     28260     28263     28261     28260     28262     28262     28260     28263
     28264     28260     28263     28264     28260     28262     28264     28260     28261
     28266     28270     28271     28267     28266     28269     28267     28266     28268
     28268     28266     28269     28270     28266     28269     28270     28266     28268
     28270     28266     28267     28272     28276     28277     28273     28272     28275
     28273     28272     28274     28274     28272     28275     28276     28272     28275
     28276     28272     28274     28276     28272     28273     28278     28282     28283
     28279     28278     28281     28279     28278     28280     28280     28278     28281
     28282     28278     28281     28282     28278     28280     28282     28278     28279
     28284     28288     28289     28285     28284     28287     28285     28284     28286
     28286     28284     28287     28288     28284     28287     28288     28284     28286
     28288     28284     28285     28290     28294     28295     28291     28290     28293
     28291     28290     28292     28292     28290     28293     28294     28290     28293
     28294     28290     28292     28294     28290     28291     28296     28300     28301
     28297     28296     28299     28297     28296     28298     28298     28296     28299
     28300     28296     28299     28300     28296     28298     28300     28296     28297
     28302     28306     28307     28303     28302     28305     28303     28302     28304
     28304     28302     28305     28306     28302     28305     28306     28302     28304
     28306     28302     28303     28308     28312     28313     28309     28308     28311
     28309     28308     28310     28310     28308     28311     28312     28308     28311
     28312     28308     28310     28312     28308     28309     28314     28318     28319
     28315     28314     28317     28315     28314     28316     28316     28314     28317
     28318     28314     28317     28318     28314     28316     28318     28314     28315
     28320     28324     28325     28321     28320     28323     28321     28320     28322
     28322     28320     28323     28324     28320     28323     28324     28320     28322
     28324     28320     28321     28326     28330     28331     28327     28326     28329
     28327     28326     28328     28328     28326     28329     28330     28326     28329
     28330     28326     28328     28330     28326     28327     28332     28336     28337
     28333     28332     28335     28333     28332     28334     28334     28332     28335
     28336     28332     28335     28336     28332     28334     28336     28332     28333
     28338     28342     28343     28339     28338     28341     28339     28338     28340
     28340     28338     28341     28342     28338     28341     28342     28338     28340
     28342     28338     28339     28344     28348     28349     28345     28344     28347
     28345     28344     28346     28346     28344     28347     28348     28344     28347
     28348     28344     28346     28348     28344     28345     28350     28354     28355
     28351     28350     28353     28351     28350     28352     28352     28350     28353
     28354     28350     28353     28354     28350     28352     28354     28350     28351
     28356     28360     28361     28357     28356     28359     28357     28356     28358
     28358     28356     28359     28360     28356     28359     28360     28356     28358
     28360     28356     28357     28362     28366     28367     28363     28362     28365
     28363     28362     28364     28364     28362     28365     28366     28362     28365
     28366     28362     28364     28366     28362     28363     28368     28372     28373
     28369     28368     28371     28369     28368     28370     28370     28368     28371
     28372     28368     28371     28372     28368     28370     28372     28368     28369
     28374     28378     28379     28375     28374     28377     28375     28374     28376
     28376     28374     28377     28378     28374     28377     28378     28374     28376
     28378     28374     28375     28380     28384     28385     28381     28380     28383
     28381     28380     28382     28382     28380     28383     28384     28380     28383
     28384     28380     28382     28384     28380     28381     28386     28390     28391
     28387     28386     28389     28387     28386     28388     28388     28386     28389
     28390     28386     28389     28390     28386     28388     28390     28386     28387
     28392     28396     28397     28393     28392     28395     28393     28392     28394
     28394     28392     28395     28396     28392     28395     28396     28392     28394
     28396     28392     28393     28398     28402     28403     28399     28398     28401
     28399     28398     28400     28400     28398     28401     28402     28398     28401
     28402     28398     28400     28402     28398     28399     28404     28408     28409
     28405     28404     28407     28405     28404     28406     28406     28404     28407
     28408     28404     28407     28408     28404     28406     28408     28404     28405
     28410     28414     28415     28411     28410     28413     28411     28410     28412
     28412     28410     28413     28414     28410     28413     28414     28410     28412
     28414     28410     28411     28416     28420     28421     28417     28416     28419
     28417     28416     28418     28418     28416     28419     28420     28416     28419
     28420     28416     28418     28420     28416     28417     28422     28426     28427
     28423     28422     28425     28423     28422     28424     28424     28422     28425
     28426     28422     28425     28426     28422     28424     28426     28422     28423
     28428     28432     28433     28429     28428     28431     28429     28428     28430
     28430     28428     28431     28432     28428     28431     28432     28428     28430
     28432     28428     28429     28434     28438     28439     28435     28434     28437
     28435     28434     28436     28436     28434     28437     28438     28434     28437
     28438     28434     28436     28438     28434     28435     28440     28444     28445
     28441     28440     28443     28441     28440     28442     28442     28440     28443
     28444     28440     28443     28444     28440     28442     28444     28440     28441
     28446     28450     28451     28447     28446     28449     28447     28446     28448
     28448     28446     28449     28450     28446     28449     28450     28446     28448
     28450     28446     28447     28452     28456     28457     28453     28452     28455
     28453     28452     28454     28454     28452     28455     28456     28452     28455
     28456     28452     28454     28456     28452     28453     28458     28462     28463
     28459     28458     28461     28459     28458     28460     28460     28458     28461
     28462     28458     28461     28462     28458     28460     28462     28458     28459
     28464     28468     28469     28465     28464     28467     28465     28464     28466
     28466     28464     28467     28468     28464     28467     28468     28464     28466
     28468     28464     28465     28470     28474     28475     28471     28470     28473
     28471     28470     28472     28472     28470     28473     28474     28470     28473
     28474     28470     28472     28474     28470     28471     28476     28480     28481
     28477     28476     28479     28477     28476     28478     28478     28476     28479
     28480     28476     28479     28480     28476     28478     28480     28476     28477
     28482     28486     28487     28483     28482     28485     28483     28482     28484
     28484     28482     28485     28486     28482     28485     28486     28482     28484
     28486     28482     28483     28488     28492     28493     28489     28488     28491
     28489     28488     28490     28490     28488     28491     28492     28488     28491
     28492     28488     28490     28492     28488     28489     28494     28498     28499
     28495     28494     28497     28495     28494     28496     28496     28494     28497
     28498     28494     28497     28498     28494     28496     28498     28494     28495
     28500     28504     28505     28501     28500     28503     28501     28500     28502
     28502     28500     28503     28504     28500     28503     28504     28500     28502
     28504     28500     28501     28506     28510     28511     28507     28506     28509
     28507     28506     28508     28508     28506     28509     28510     28506     28509
     28510     28506     28508     28510     28506     28507     28512     28516     28517
     28513     28512     28515     28513     28512     28514     28514     28512     28515
     28516     28512     28515     28516     28512     28514     28516     28512     28513
     28518     28522     28523     28519     28518     28521     28519     28518     28520
     28520     28518     28521     28522     28518     28521     28522     28518     28520
     28522     28518     28519     28524     28528     28529     28525     28524     28527
     28525     28524     28526     28526     28524     28527     28528     28524     28527
     28528     28524     28526     28528     28524     28525     28530     28534     28535
     28531     28530     28533     28531     28530     28532     28532     28530     28533
     28534     28530     28533     28534     28530     28532     28534     28530     28531
     28536     28540     28541     28537     28536     28539     28537     28536     28538
     28538     28536     28539     28540     28536     28539     28540     28536     28538
     28540     28536     28537     28542     28546     28547     28543     28542     28545
     28543     28542     28544     28544     28542     28545     28546     28542     28545
     28546     28542     28544     28546     28542     28543     28548     28552     28553
     28549     28548     28551     28549     28548     28550     28550     28548     28551
     28552     28548     28551     28552     28548     28550     28552     28548     28549
     28554     28558     28559     28555     28554     28557     28555     28554     28556
     28556     28554     28557     28558     28554     28557     28558     28554     28556
     28558     28554     28555     28560     28564     28565     28561     28560     28563
     28561     28560     28562     28562     28560     28563     28564     28560     28563
     28564     28560     28562     28564     28560     28561     28566     28570     28571
     28567     28566     28569     28567     28566     28568     28568     28566     28569
     28570     28566     28569     28570     28566     28568     28570     28566     28567
     28572     28576     28577     28573     28572     28575     28573     28572     28574
     28574     28572     28575     28576     28572     28575     28576     28572     28574
     28576     28572     28573     28578     28582     28583     28579     28578     28581
     28579     28578     28580     28580     28578     28581     28582     28578     28581
     28582     28578     28580     28582     28578     28579     28584     28588     28589
     28585     28584     28587     28585     28584     28586     28586     28584     28587
     28588     28584     28587     28588     28584     28586     28588     28584     28585
     28590     28594     28595     28591     28590     28593     28591     28590     28592
     28592     28590     28593     28594     28590     28593     28594     28590     28592
     28594     28590     28591     28596     28600     28601     28597     28596     28599
     28597     28596     28598     28598     28596     28599     28600     28596     28599
     28600     28596     28598     28600     28596     28597     28602     28606     28607
     28603     28602     28605     28603     28602     28604     28604     28602     28605
     28606     28602     28605     28606     28602     28604     28606     28602     28603
     28608     28612     28613     28609     28608     28611     28609     28608     28610
     28610     28608     28611     28612     28608     28611     28612     28608     28610
     28612     28608     28609     28614     28618     28619     28615     28614     28617
     28615     28614     28616     28616     28614     28617     28618     28614     28617
     28618     28614     28616     28618     28614     28615     28620     28624     28625
     28621     28620     28623     28621     28620     28622     28622     28620     28623
     28624     28620     28623     28624     28620     28622     28624     28620     28621
     28626     28630     28631     28627     28626     28629     28627     28626     28628
     28628     28626     28629     28630     28626     28629     28630     28626     28628
     28630     28626     28627     28632     28636     28637     28633     28632     28635
     28633     28632     28634     28634     28632     28635     28636     28632     28635
     28636     28632     28634     28636     28632     28633     28638     28642     28643
     28639     28638     28641     28639     28638     28640     28640     28638     28641
     28642     28638     28641     28642     28638     28640     28642     28638     28639
     28644     28648     28649     28645     28644     28647     28645     28644     28646
     28646     28644     28647     28648     28644     28647     28648     28644     28646
     28648     28644     28645     28650     28654     28655     28651     28650     28653
     28651     28650     28652     28652     28650     28653     28654     28650     28653
     28654     28650     28652     28654     28650     28651     28656     28660     28661
     28657     28656     28659     28657     28656     28658     28658     28656     28659
     28660     28656     28659     28660     28656     28658     28660     28656     28657
     28662     28666     28667     28663     28662     28665     28663     28662     28664
     28664     28662     28665     28666     28662     28665     28666     28662     28664
     28666     28662     28663     28668     28672     28673     28669     28668     28671
     28669     28668     28670     28670     28668     28671     28672     28668     28671
     28672     28668     28670     28672     28668     28669     28674     28678     28679
     28675     28674     28677     28675     28674     28676     28676     28674     28677
     28678     28674     28677     28678     28674     28676     28678     28674     28675
     28680     28684     28685     28681     28680     28683     28681     28680     28682
     28682     28680     28683     28684     28680     28683     28684     28680     28682
     28684     28680     28681     28686     28690     28691     28687     28686     28689
     28687     28686     28688     28688     28686     28689     28690     28686     28689
     28690     28686     28688     28690     28686     28687     28692     28696     28697
     28693     28692     28695     28693     28692     28694     28694     28692     28695
     28696     28692     28695     28696     28692     28694     28696     28692     28693
     28698     28702     28703     28699     28698     28701     28699     28698     28700
     28700     28698     28701     28702     28698     28701     28702     28698     28700
     28702     28698     28699     28704     28708     28709     28705     28704     28707
     28705     28704     28706     28706     28704     28707     28708     28704     28707
     28708     28704     28706     28708     28704     28705     28710     28714     28715
     28711     28710     28713     28711     28710     28712     28712     28710     28713
     28714     28710     28713     28714     28710     28712     28714     28710     28711
     28716     28720     28721     28717     28716     28719     28717     28716     28718
     28718     28716     28719     28720     28716     28719     28720     28716     28718
     28720     28716     28717     28722     28726     28727     28723     28722     28725
     28723     28722     28724     28724     28722     28725     28726     28722     28725
     28726     28722     28724     28726     28722     28723     28728     28732     28733
     28729     28728     28731     28729     28728     28730     28730     28728     28731
     28732     28728     28731     28732     28728     28730     28732     28728     28729
     28734     28738     28739     28735     28734     28737     28735     28734     28736
     28736     28734     28737     28738     28734     28737     28738     28734     28736
     28738     28734     28735     28740     28744     28745     28741     28740     28743
     28741     28740     28742     28742     28740     28743     28744     28740     28743
     28744     28740     28742     28744     28740     28741     28746     28750     28751
     28747     28746     28749     28747     28746     28748     28748     28746     28749
     28750     28746     28749     28750     28746     28748     28750     28746     28747
     28752     28756     28757     28753     28752     28755     28753     28752     28754
     28754     28752     28755     28756     28752     28755     28756     28752     28754
     28756     28752     28753     28758     28762     28763     28759     28758     28761
     28759     28758     28760     28760     28758     28761     28762     28758     28761
     28762     28758     28760     28762     28758     28759     28764     28768     28769
     28765     28764     28767     28765     28764     28766     28766     28764     28767
     28768     28764     28767     28768     28764     28766     28768     28764     28765
     28770     28774     28775     28771     28770     28773     28771     28770     28772
     28772     28770     28773     28774     28770     28773     28774     28770     28772
     28774     28770     28771     28776     28780     28781     28777     28776     28779
     28777     28776     28778     28778     28776     28779     28780     28776     28779
     28780     28776     28778     28780     28776     28777     28782     28786     28787
     28783     28782     28785     28783     28782     28784     28784     28782     28785
     28786     28782     28785     28786     28782     28784     28786     28782     28783
     28788     28792     28793     28789     28788     28791     28789     28788     28790
     28790     28788     28791     28792     28788     28791     28792     28788     28790
     28792     28788     28789     28794     28798     28799     28795     28794     28797
     28795     28794     28796     28796     28794     28797     28798     28794     28797
     28798     28794     28796     28798     28794     28795     28800     28804     28805
     28801     28800     28803     28801     28800     28802     28802     28800     28803
     28804     28800     28803     28804     28800     28802     28804     28800     28801
     28806     28810     28811     28807     28806     28809     28807     28806     28808
     28808     28806     28809     28810     28806     28809     28810     28806     28808
     28810     28806     28807     28812     28816     28817     28813     28812     28815
     28813     28812     28814     28814     28812     28815     28816     28812     28815
     28816     28812     28814     28816     28812     28813     28818     28822     28823
     28819     28818     28821     28819     28818     28820     28820     28818     28821
     28822     28818     28821     28822     28818     28820     28822     28818     28819
     28824     28828     28829     28825     28824     28827     28825     28824     28826
     28826     28824     28827     28828     28824     28827     28828     28824     28826
     28828     28824     28825     28830     28834     28835     28831     28830     28833
     28831     28830     28832     28832     28830     28833     28834     28830     28833
     28834     28830     28832     28834     28830     28831     28836     28840     28841
     28837     28836     28839     28837     28836     28838     28838     28836     28839
     28840     28836     28839     28840     28836     28838     28840     28836     28837
     28842     28846     28847     28843     28842     28845     28843     28842     28844
     28844     28842     28845     28846     28842     28845     28846     28842     28844
     28846     28842     28843     28848     28852     28853     28849     28848     28851
     28849     28848     28850     28850     28848     28851     28852     28848     28851
     28852     28848     28850     28852     28848     28849     28854     28858     28859
     28855     28854     28857     28855     28854     28856     28856     28854     28857
     28858     28854     28857     28858     28854     28856     28858     28854     28855
     28860     28864     28865     28861     28860     28863     28861     28860     28862
     28862     28860     28863     28864     28860     28863     28864     28860     28862
     28864     28860     28861     28866     28870     28871     28867     28866     28869
     28867     28866     28868     28868     28866     28869     28870     28866     28869
     28870     28866     28868     28870     28866     28867     28872     28876     28877
     28873     28872     28875     28873     28872     28874     28874     28872     28875
     28876     28872     28875     28876     28872     28874     28876     28872     28873
     28878     28882     28883     28879     28878     28881     28879     28878     28880
     28880     28878     28881     28882     28878     28881     28882     28878     28880
     28882     28878     28879     28884     28888     28889     28885     28884     28887
     28885     28884     28886     28886     28884     28887     28888     28884     28887
     28888     28884     28886     28888     28884     28885     28890     28894     28895
     28891     28890     28893     28891     28890     28892     28892     28890     28893
     28894     28890     28893     28894     28890     28892     28894     28890     28891
     28896     28900     28901     28897     28896     28899     28897     28896     28898
     28898     28896     28899     28900     28896     28899     28900     28896     28898
     28900     28896     28897     28902     28906     28907     28903     28902     28905
     28903     28902     28904     28904     28902     28905     28906     28902     28905
     28906     28902     28904     28906     28902     28903     28908     28912     28913
     28909     28908     28911     28909     28908     28910     28910     28908     28911
     28912     28908     28911     28912     28908     28910     28912     28908     28909
     28914     28918     28919     28915     28914     28917     28915     28914     28916
     28916     28914     28917     28918     28914     28917     28918     28914     28916
     28918     28914     28915     28920     28924     28925     28921     28920     28923
     28921     28920     28922     28922     28920     28923     28924     28920     28923
     28924     28920     28922     28924     28920     28921     28926     28930     28931
     28927     28926     28929     28927     28926     28928     28928     28926     28929
     28930     28926     28929     28930     28926     28928     28930     28926     28927
     28932     28936     28937     28933     28932     28935     28933     28932     28934
     28934     28932     28935     28936     28932     28935     28936     28932     28934
     28936     28932     28933     28938     28942     28943     28939     28938     28941
     28939     28938     28940     28940     28938     28941     28942     28938     28941
     28942     28938     28940     28942     28938     28939     28944     28948     28949
     28945     28944     28947     28945     28944     28946     28946     28944     28947
     28948     28944     28947     28948     28944     28946     28948     28944     28945
     28950     28954     28955     28951     28950     28953     28951     28950     28952
     28952     28950     28953     28954     28950     28953     28954     28950     28952
     28954     28950     28951     28956     28960     28961     28957     28956     28959
     28957     28956     28958     28958     28956     28959     28960     28956     28959
     28960     28956     28958     28960     28956     28957     28962     28966     28967
     28963     28962     28965     28963     28962     28964     28964     28962     28965
     28966     28962     28965     28966     28962     28964     28966     28962     28963
     28968     28972     28973     28969     28968     28971     28969     28968     28970
     28970     28968     28971     28972     28968     28971     28972     28968     28970
     28972     28968     28969     28974     28978     28979     28975     28974     28977
     28975     28974     28976     28976     28974     28977     28978     28974     28977
     28978     28974     28976     28978     28974     28975     28980     28984     28985
     28981     28980     28983     28981     28980     28982     28982     28980     28983
     28984     28980     28983     28984     28980     28982     28984     28980     28981
     28986     28990     28991     28987     28986     28989     28987     28986     28988
     28988     28986     28989     28990     28986     28989     28990     28986     28988
     28990     28986     28987     28992     28996     28997     28993     28992     28995
     28993     28992     28994     28994     28992     28995     28996     28992     28995
     28996     28992     28994     28996     28992     28993     28998     29002     29003
     28999     28998     29001     28999     28998     29000     29000     28998     29001
     29002     28998     29001     29002     28998     29000     29002     28998     28999
     29004     29008     29009     29005     29004     29007     29005     29004     29006
     29006     29004     29007     29008     29004     29007     29008     29004     29006
     29008     29004     29005     29010     29014     29015     29011     29010     29013
     29011     29010     29012     29012     29010     29013     29014     29010     29013
     29014     29010     29012     29014     29010     29011     29016     29020     29021
     29017     29016     29019     29017     29016     29018     29018     29016     29019
     29020     29016     29019     29020     29016     29018     29020     29016     29017
     29022     29026     29027     29023     29022     29025     29023     29022     29024
     29024     29022     29025     29026     29022     29025     29026     29022     29024
     29026     29022     29023     29028     29032     29033     29029     29028     29031
     29029     29028     29030     29030     29028     29031     29032     29028     29031
     29032     29028     29030     29032     29028     29029     29034     29038     29039
     29035     29034     29037     29035     29034     29036     29036     29034     29037
     29038     29034     29037     29038     29034     29036     29038     29034     29035
     29040     29044     29045     29041     29040     29043     29041     29040     29042
     29042     29040     29043     29044     29040     29043     29044     29040     29042
     29044     29040     29041     29046     29050     29051     29047     29046     29049
     29047     29046     29048     29048     29046     29049     29050     29046     29049
     29050     29046     29048     29050     29046     29047     29052     29056     29057
     29053     29052     29055     29053     29052     29054     29054     29052     29055
     29056     29052     29055     29056     29052     29054     29056     29052     29053
     29058     29062     29063     29059     29058     29061     29059     29058     29060
     29060     29058     29061     29062     29058     29061     29062     29058     29060
     29062     29058     29059     29064     29068     29069     29065     29064     29067
     29065     29064     29066     29066     29064     29067     29068     29064     29067
     29068     29064     29066     29068     29064     29065     29070     29074     29075
     29071     29070     29073     29071     29070     29072     29072     29070     29073
     29074     29070     29073     29074     29070     29072     29074     29070     29071
     29076     29080     29081     29077     29076     29079     29077     29076     29078
     29078     29076     29079     29080     29076     29079     29080     29076     29078
     29080     29076     29077     29082     29086     29087     29083     29082     29085
     29083     29082     29084     29084     29082     29085     29086     29082     29085
     29086     29082     29084     29086     29082     29083     29088     29092     29093
     29089     29088     29091     29089     29088     29090     29090     29088     29091
     29092     29088     29091     29092     29088     29090     29092     29088     29089
     29094     29098     29099     29095     29094     29097     29095     29094     29096
     29096     29094     29097     29098     29094     29097     29098     29094     29096
     29098     29094     29095     29100     29104     29105     29101     29100     29103
     29101     29100     29102     29102     29100     29103     29104     29100     29103
     29104     29100     29102     29104     29100     29101     29106     29110     29111
     29107     29106     29109     29107     29106     29108     29108     29106     29109
     29110     29106     29109     29110     29106     29108     29110     29106     29107
     29112     29116     29117     29113     29112     29115     29113     29112     29114
     29114     29112     29115     29116     29112     29115     29116     29112     29114
     29116     29112     29113     29118     29122     29123     29119     29118     29121
     29119     29118     29120     29120     29118     29121     29122     29118     29121
     29122     29118     29120     29122     29118     29119     29124     29128     29129
     29125     29124     29127     29125     29124     29126     29126     29124     29127
     29128     29124     29127     29128     29124     29126     29128     29124     29125
     29130     29134     29135     29131     29130     29133     29131     29130     29132
     29132     29130     29133     29134     29130     29133     29134     29130     29132
     29134     29130     29131     29136     29140     29141     29137     29136     29139
     29137     29136     29138     29138     29136     29139     29140     29136     29139
     29140     29136     29138     29140     29136     29137     29142     29146     29147
     29143     29142     29145     29143     29142     29144     29144     29142     29145
     29146     29142     29145     29146     29142     29144     29146     29142     29143
     29148     29152     29153     29149     29148     29151     29149     29148     29150
     29150     29148     29151     29152     29148     29151     29152     29148     29150
     29152     29148     29149     29154     29158     29159     29155     29154     29157
     29155     29154     29156     29156     29154     29157     29158     29154     29157
     29158     29154     29156     29158     29154     29155     29160     29164     29165
     29161     29160     29163     29161     29160     29162     29162     29160     29163
     29164     29160     29163     29164     29160     29162     29164     29160     29161
     29166     29170     29171     29167     29166     29169     29167     29166     29168
     29168     29166     29169     29170     29166     29169     29170     29166     29168
     29170     29166     29167     29172     29176     29177     29173     29172     29175
     29173     29172     29174     29174     29172     29175     29176     29172     29175
     29176     29172     29174     29176     29172     29173     29178     29182     29183
     29179     29178     29181     29179     29178     29180     29180     29178     29181
     29182     29178     29181     29182     29178     29180     29182     29178     29179
     29184     29188     29189     29185     29184     29187     29185     29184     29186
     29186     29184     29187     29188     29184     29187     29188     29184     29186
     29188     29184     29185     29190     29194     29195     29191     29190     29193
     29191     29190     29192     29192     29190     29193     29194     29190     29193
     29194     29190     29192     29194     29190     29191     29196     29200     29201
     29197     29196     29199     29197     29196     29198     29198     29196     29199
     29200     29196     29199     29200     29196     29198     29200     29196     29197
     29202     29206     29207     29203     29202     29205     29203     29202     29204
     29204     29202     29205     29206     29202     29205     29206     29202     29204
     29206     29202     29203     29208     29212     29213     29209     29208     29211
     29209     29208     29210     29210     29208     29211     29212     29208     29211
     29212     29208     29210     29212     29208     29209     29214     29218     29219
     29215     29214     29217     29215     29214     29216     29216     29214     29217
     29218     29214     29217     29218     29214     29216     29218     29214     29215
     29220     29224     29225     29221     29220     29223     29221     29220     29222
     29222     29220     29223     29224     29220     29223     29224     29220     29222
     29224     29220     29221     29226     29230     29231     29227     29226     29229
     29227     29226     29228     29228     29226     29229     29230     29226     29229
     29230     29226     29228     29230     29226     29227     29232     29236     29237
     29233     29232     29235     29233     29232     29234     29234     29232     29235
     29236     29232     29235     29236     29232     29234     29236     29232     29233
     29238     29242     29243     29239     29238     29241     29239     29238     29240
     29240     29238     29241     29242     29238     29241     29242     29238     29240
     29242     29238     29239     29244     29248     29249     29245     29244     29247
     29245     29244     29246     29246     29244     29247     29248     29244     29247
     29248     29244     29246     29248     29244     29245     29250     29254     29255
     29251     29250     29253     29251     29250     29252     29252     29250     29253
     29254     29250     29253     29254     29250     29252     29254     29250     29251
     29256     29260     29261     29257     29256     29259     29257     29256     29258
     29258     29256     29259     29260     29256     29259     29260     29256     29258
     29260     29256     29257     29262     29266     29267     29263     29262     29265
     29263     29262     29264     29264     29262     29265     29266     29262     29265
     29266     29262     29264     29266     29262     29263     29268     29272     29273
     29269     29268     29271     29269     29268     29270     29270     29268     29271
     29272     29268     29271     29272     29268     29270     29272     29268     29269
     29274     29278     29279     29275     29274     29277     29275     29274     29276
     29276     29274     29277     29278     29274     29277     29278     29274     29276
     29278     29274     29275     29280     29284     29285     29281     29280     29283
     29281     29280     29282     29282     29280     29283     29284     29280     29283
     29284     29280     29282     29284     29280     29281     29286     29290     29291
     29287     29286     29289     29287     29286     29288     29288     29286     29289
     29290     29286     29289     29290     29286     29288     29290     29286     29287
     29292     29296     29297     29293     29292     29295     29293     29292     29294
     29294     29292     29295     29296     29292     29295     29296     29292     29294
     29296     29292     29293     29298     29302     29303     29299     29298     29301
     29299     29298     29300     29300     29298     29301     29302     29298     29301
     29302     29298     29300     29302     29298     29299     29304     29308     29309
     29305     29304     29307     29305     29304     29306     29306     29304     29307
     29308     29304     29307     29308     29304     29306     29308     29304     29305
     29310     29314     29315     29311     29310     29313     29311     29310     29312
     29312     29310     29313     29314     29310     29313     29314     29310     29312
     29314     29310     29311     29316     29320     29321     29317     29316     29319
     29317     29316     29318     29318     29316     29319     29320     29316     29319
     29320     29316     29318     29320     29316     29317     29322     29326     29327
     29323     29322     29325     29323     29322     29324     29324     29322     29325
     29326     29322     29325     29326     29322     29324     29326     29322     29323
     29328     29332     29333     29329     29328     29331     29329     29328     29330
     29330     29328     29331     29332     29328     29331     29332     29328     29330
     29332     29328     29329     29334     29338     29339     29335     29334     29337
     29335     29334     29336     29336     29334     29337     29338     29334     29337
     29338     29334     29336     29338     29334     29335     29340     29344     29345
     29341     29340     29343     29341     29340     29342     29342     29340     29343
     29344     29340     29343     29344     29340     29342     29344     29340     29341
     29346     29350     29351     29347     29346     29349     29347     29346     29348
     29348     29346     29349     29350     29346     29349     29350     29346     29348
     29350     29346     29347     29352     29356     29357     29353     29352     29355
     29353     29352     29354     29354     29352     29355     29356     29352     29355
     29356     29352     29354     29356     29352     29353     29358     29362     29363
     29359     29358     29361     29359     29358     29360     29360     29358     29361
     29362     29358     29361     29362     29358     29360     29362     29358     29359
     29364     29368     29369     29365     29364     29367     29365     29364     29366
     29366     29364     29367     29368     29364     29367     29368     29364     29366
     29368     29364     29365     29370     29374     29375     29371     29370     29373
     29371     29370     29372     29372     29370     29373     29374     29370     29373
     29374     29370     29372     29374     29370     29371     29376     29380     29381
     29377     29376     29379     29377     29376     29378     29378     29376     29379
     29380     29376     29379     29380     29376     29378     29380     29376     29377
     29382     29386     29387     29383     29382     29385     29383     29382     29384
     29384     29382     29385     29386     29382     29385     29386     29382     29384
     29386     29382     29383     29388     29392     29393     29389     29388     29391
     29389     29388     29390     29390     29388     29391     29392     29388     29391
     29392     29388     29390     29392     29388     29389     29394     29398     29399
     29395     29394     29397     29395     29394     29396     29396     29394     29397
     29398     29394     29397     29398     29394     29396     29398     29394     29395
     29400     29404     29405     29401     29400     29403     29401     29400     29402
     29402     29400     29403     29404     29400     29403     29404     29400     29402
     29404     29400     29401     29406     29410     29411     29407     29406     29409
     29407     29406     29408     29408     29406     29409     29410     29406     29409
     29410     29406     29408     29410     29406     29407     29412     29416     29417
     29413     29412     29415     29413     29412     29414     29414     29412     29415
     29416     29412     29415     29416     29412     29414     29416     29412     29413
     29418     29422     29423     29419     29418     29421     29419     29418     29420
     29420     29418     29421     29422     29418     29421     29422     29418     29420
     29422     29418     29419     29424     29428     29429     29425     29424     29427
     29425     29424     29426     29426     29424     29427     29428     29424     29427
     29428     29424     29426     29428     29424     29425     29430     29434     29435
     29431     29430     29433     29431     29430     29432     29432     29430     29433
     29434     29430     29433     29434     29430     29432     29434     29430     29431
     29436     29440     29441     29437     29436     29439     29437     29436     29438
     29438     29436     29439     29440     29436     29439     29440     29436     29438
     29440     29436     29437     29442     29446     29447     29443     29442     29445
     29443     29442     29444     29444     29442     29445     29446     29442     29445
     29446     29442     29444     29446     29442     29443     29448     29452     29453
     29449     29448     29451     29449     29448     29450     29450     29448     29451
     29452     29448     29451     29452     29448     29450     29452     29448     29449
     29454     29458     29459     29455     29454     29457     29455     29454     29456
     29456     29454     29457     29458     29454     29457     29458     29454     29456
     29458     29454     29455     29460     29464     29465     29461     29460     29463
     29461     29460     29462     29462     29460     29463     29464     29460     29463
     29464     29460     29462     29464     29460     29461     29466     29470     29471
     29467     29466     29469     29467     29466     29468     29468     29466     29469
     29470     29466     29469     29470     29466     29468     29470     29466     29467
     29472     29476     29477     29473     29472     29475     29473     29472     29474
     29474     29472     29475     29476     29472     29475     29476     29472     29474
     29476     29472     29473     29478     29482     29483     29479     29478     29481
     29479     29478     29480     29480     29478     29481     29482     29478     29481
     29482     29478     29480     29482     29478     29479     29484     29488     29489
     29485     29484     29487     29485     29484     29486     29486     29484     29487
     29488     29484     29487     29488     29484     29486     29488     29484     29485
     29490     29494     29495     29491     29490     29493     29491     29490     29492
     29492     29490     29493     29494     29490     29493     29494     29490     29492
     29494     29490     29491     29496     29500     29501     29497     29496     29499
     29497     29496     29498     29498     29496     29499     29500     29496     29499
     29500     29496     29498     29500     29496     29497     29502     29506     29507
     29503     29502     29505     29503     29502     29504     29504     29502     29505
     29506     29502     29505     29506     29502     29504     29506     29502     29503
     29508     29512     29513     29509     29508     29511     29509     29508     29510
     29510     29508     29511     29512     29508     29511     29512     29508     29510
     29512     29508     29509     29514     29518     29519     29515     29514     29517
     29515     29514     29516     29516     29514     29517     29518     29514     29517
     29518     29514     29516     29518     29514     29515     29520     29524     29525
     29521     29520     29523     29521     29520     29522     29522     29520     29523
     29524     29520     29523     29524     29520     29522     29524     29520     29521
     29526     29530     29531     29527     29526     29529     29527     29526     29528
     29528     29526     29529     29530     29526     29529     29530     29526     29528
     29530     29526     29527     29532     29536     29537     29533     29532     29535
     29533     29532     29534     29534     29532     29535     29536     29532     29535
     29536     29532     29534     29536     29532     29533     29538     29542     29543
     29539     29538     29541     29539     29538     29540     29540     29538     29541
     29542     29538     29541     29542     29538     29540     29542     29538     29539
     29544     29548     29549     29545     29544     29547     29545     29544     29546
     29546     29544     29547     29548     29544     29547     29548     29544     29546
     29548     29544     29545     29550     29554     29555     29551     29550     29553
     29551     29550     29552     29552     29550     29553     29554     29550     29553
     29554     29550     29552     29554     29550     29551     29556     29560     29561
     29557     29556     29559     29557     29556     29558     29558     29556     29559
     29560     29556     29559     29560     29556     29558     29560     29556     29557
     29562     29566     29567     29563     29562     29565     29563     29562     29564
     29564     29562     29565     29566     29562     29565     29566     29562     29564
     29566     29562     29563     29568     29572     29573     29569     29568     29571
     29569     29568     29570     29570     29568     29571     29572     29568     29571
     29572     29568     29570     29572     29568     29569     29574     29578     29579
     29575     29574     29577     29575     29574     29576     29576     29574     29577
     29578     29574     29577     29578     29574     29576     29578     29574     29575
     29580     29584     29585     29581     29580     29583     29581     29580     29582
     29582     29580     29583     29584     29580     29583     29584     29580     29582
     29584     29580     29581     29586     29590     29591     29587     29586     29589
     29587     29586     29588     29588     29586     29589     29590     29586     29589
     29590     29586     29588     29590     29586     29587     29592     29596     29597
     29593     29592     29595     29593     29592     29594     29594     29592     29595
     29596     29592     29595     29596     29592     29594     29596     29592     29593
     29598     29602     29603     29599     29598     29601     29599     29598     29600
     29600     29598     29601     29602     29598     29601     29602     29598     29600
     29602     29598     29599     29604     29608     29609     29605     29604     29607
     29605     29604     29606     29606     29604     29607     29608     29604     29607
     29608     29604     29606     29608     29604     29605     29610     29614     29615
     29611     29610     29613     29611     29610     29612     29612     29610     29613
     29614     29610     29613     29614     29610     29612     29614     29610     29611
     29616     29620     29621     29617     29616     29619     29617     29616     29618
     29618     29616     29619     29620     29616     29619     29620     29616     29618
     29620     29616     29617     29622     29626     29627     29623     29622     29625
     29623     29622     29624     29624     29622     29625     29626     29622     29625
     29626     29622     29624     29626     29622     29623     29628     29632     29633
     29629     29628     29631     29629     29628     29630     29630     29628     29631
     29632     29628     29631     29632     29628     29630     29632     29628     29629
     29634     29638     29639     29635     29634     29637     29635     29634     29636
     29636     29634     29637     29638     29634     29637     29638     29634     29636
     29638     29634     29635     29640     29644     29645     29641     29640     29643
     29641     29640     29642     29642     29640     29643     29644     29640     29643
     29644     29640     29642     29644     29640     29641     29646     29650     29651
     29647     29646     29649     29647     29646     29648     29648     29646     29649
     29650     29646     29649     29650     29646     29648     29650     29646     29647
     29652     29656     29657     29653     29652     29655     29653     29652     29654
     29654     29652     29655     29656     29652     29655     29656     29652     29654
     29656     29652     29653     29658     29662     29663     29659     29658     29661
     29659     29658     29660     29660     29658     29661     29662     29658     29661
     29662     29658     29660     29662     29658     29659     29664     29668     29669
     29665     29664     29667     29665     29664     29666     29666     29664     29667
     29668     29664     29667     29668     29664     29666     29668     29664     29665
     29670     29674     29675     29671     29670     29673     29671     29670     29672
     29672     29670     29673     29674     29670     29673     29674     29670     29672
     29674     29670     29671     29676     29680     29681     29677     29676     29679
     29677     29676     29678     29678     29676     29679     29680     29676     29679
     29680     29676     29678     29680     29676     29677     29682     29686     29687
     29683     29682     29685     29683     29682     29684     29684     29682     29685
     29686     29682     29685     29686     29682     29684     29686     29682     29683
     29688     29692     29693     29689     29688     29691     29689     29688     29690
     29690     29688     29691     29692     29688     29691     29692     29688     29690
     29692     29688     29689     29694     29698     29699     29695     29694     29697
     29695     29694     29696     29696     29694     29697     29698     29694     29697
     29698     29694     29696     29698     29694     29695     29700     29704     29705
     29701     29700     29703     29701     29700     29702     29702     29700     29703
     29704     29700     29703     29704     29700     29702     29704     29700     29701
     29706     29710     29711     29707     29706     29709     29707     29706     29708
     29708     29706     29709     29710     29706     29709     29710     29706     29708
     29710     29706     29707     29712     29716     29717     29713     29712     29715
     29713     29712     29714     29714     29712     29715     29716     29712     29715
     29716     29712     29714     29716     29712     29713     29718     29722     29723
     29719     29718     29721     29719     29718     29720     29720     29718     29721
     29722     29718     29721     29722     29718     29720     29722     29718     29719
     29724     29728     29729     29725     29724     29727     29725     29724     29726
     29726     29724     29727     29728     29724     29727     29728     29724     29726
     29728     29724     29725     29730     29734     29735     29731     29730     29733
     29731     29730     29732     29732     29730     29733     29734     29730     29733
     29734     29730     29732     29734     29730     29731     29736     29740     29741
     29737     29736     29739     29737     29736     29738     29738     29736     29739
     29740     29736     29739     29740     29736     29738     29740     29736     29737
     29742     29746     29747     29743     29742     29745     29743     29742     29744
     29744     29742     29745     29746     29742     29745     29746     29742     29744
     29746     29742     29743     29748     29752     29753     29749     29748     29751
     29749     29748     29750     29750     29748     29751     29752     29748     29751
     29752     29748     29750     29752     29748     29749     29754     29758     29759
     29755     29754     29757     29755     29754     29756     29756     29754     29757
     29758     29754     29757     29758     29754     29756     29758     29754     29755
     29760     29764     29765     29761     29760     29763     29761     29760     29762
     29762     29760     29763     29764     29760     29763     29764     29760     29762
     29764     29760     29761     29766     29770     29771     29767     29766     29769
     29767     29766     29768     29768     29766     29769     29770     29766     29769
     29770     29766     29768     29770     29766     29767     29772     29776     29777
     29773     29772     29775     29773     29772     29774     29774     29772     29775
     29776     29772     29775     29776     29772     29774     29776     29772     29773
     29778     29782     29783     29779     29778     29781     29779     29778     29780
     29780     29778     29781     29782     29778     29781     29782     29778     29780
     29782     29778     29779     29784     29788     29789     29785     29784     29787
     29785     29784     29786     29786     29784     29787     29788     29784     29787
     29788     29784     29786     29788     29784     29785     29790     29794     29795
     29791     29790     29793     29791     29790     29792     29792     29790     29793
     29794     29790     29793     29794     29790     29792     29794     29790     29791
     29796     29800     29801     29797     29796     29799     29797     29796     29798
     29798     29796     29799     29800     29796     29799     29800     29796     29798
     29800     29796     29797     29802     29806     29807     29803     29802     29805
     29803     29802     29804     29804     29802     29805     29806     29802     29805
     29806     29802     29804     29806     29802     29803     29808     29812     29813
     29809     29808     29811     29809     29808     29810     29810     29808     29811
     29812     29808     29811     29812     29808     29810     29812     29808     29809
     29814     29818     29819     29815     29814     29817     29815     29814     29816
     29816     29814     29817     29818     29814     29817     29818     29814     29816
     29818     29814     29815     29820     29824     29825     29821     29820     29823
     29821     29820     29822     29822     29820     29823     29824     29820     29823
     29824     29820     29822     29824     29820     29821     29826     29830     29831
     29827     29826     29829     29827     29826     29828     29828     29826     29829
     29830     29826     29829     29830     29826     29828     29830     29826     29827
     29832     29836     29837     29833     29832     29835     29833     29832     29834
     29834     29832     29835     29836     29832     29835     29836     29832     29834
     29836     29832     29833     29838     29842     29843     29839     29838     29841
     29839     29838     29840     29840     29838     29841     29842     29838     29841
     29842     29838     29840     29842     29838     29839     29844     29848     29849
     29845     29844     29847     29845     29844     29846     29846     29844     29847
     29848     29844     29847     29848     29844     29846     29848     29844     29845
     29850     29854     29855     29851     29850     29853     29851     29850     29852
     29852     29850     29853     29854     29850     29853     29854     29850     29852
     29854     29850     29851     29856     29860     29861     29857     29856     29859
     29857     29856     29858     29858     29856     29859     29860     29856     29859
     29860     29856     29858     29860     29856     29857     29862     29866     29867
     29863     29862     29865     29863     29862     29864     29864     29862     29865
     29866     29862     29865     29866     29862     29864     29866     29862     29863
     29868     29872     29873     29869     29868     29871     29869     29868     29870
     29870     29868     29871     29872     29868     29871     29872     29868     29870
     29872     29868     29869     29874     29878     29879     29875     29874     29877
     29875     29874     29876     29876     29874     29877     29878     29874     29877
     29878     29874     29876     29878     29874     29875     29880     29884     29885
     29881     29880     29883     29881     29880     29882     29882     29880     29883
     29884     29880     29883     29884     29880     29882     29884     29880     29881
     29886     29890     29891     29887     29886     29889     29887     29886     29888
     29888     29886     29889     29890     29886     29889     29890     29886     29888
     29890     29886     29887     29892     29896     29897     29893     29892     29895
     29893     29892     29894     29894     29892     29895     29896     29892     29895
     29896     29892     29894     29896     29892     29893     29898     29902     29903
     29899     29898     29901     29899     29898     29900     29900     29898     29901
     29902     29898     29901     29902     29898     29900     29902     29898     29899
     29904     29908     29909     29905     29904     29907     29905     29904     29906
     29906     29904     29907     29908     29904     29907     29908     29904     29906
     29908     29904     29905     29910     29914     29915     29911     29910     29913
     29911     29910     29912     29912     29910     29913     29914     29910     29913
     29914     29910     29912     29914     29910     29911     29916     29920     29921
     29917     29916     29919     29917     29916     29918     29918     29916     29919
     29920     29916     29919     29920     29916     29918     29920     29916     29917
     29922     29926     29927     29923     29922     29925     29923     29922     29924
     29924     29922     29925     29926     29922     29925     29926     29922     29924
     29926     29922     29923     29928     29932     29933     29929     29928     29931
     29929     29928     29930     29930     29928     29931     29932     29928     29931
     29932     29928     29930     29932     29928     29929     29934     29938     29939
     29935     29934     29937     29935     29934     29936     29936     29934     29937
     29938     29934     29937     29938     29934     29936     29938     29934     29935
     29940     29944     29945     29941     29940     29943     29941     29940     29942
     29942     29940     29943     29944     29940     29943     29944     29940     29942
     29944     29940     29941     29946     29950     29951     29947     29946     29949
     29947     29946     29948     29948     29946     29949     29950     29946     29949
     29950     29946     29948     29950     29946     29947     29952     29956     29957
     29953     29952     29955     29953     29952     29954     29954     29952     29955
     29956     29952     29955     29956     29952     29954     29956     29952     29953
     29958     29962     29963     29959     29958     29961     29959     29958     29960
     29960     29958     29961     29962     29958     29961     29962     29958     29960
     29962     29958     29959     29964     29968     29969     29965     29964     29967
     29965     29964     29966     29966     29964     29967     29968     29964     29967
     29968     29964     29966     29968     29964     29965     29970     29974     29975
     29971     29970     29973     29971     29970     29972     29972     29970     29973
     29974     29970     29973     29974     29970     29972     29974     29970     29971
     29976     29980     29981     29977     29976     29979     29977     29976     29978
     29978     29976     29979     29980     29976     29979     29980     29976     29978
     29980     29976     29977     29982     29986     29987     29983     29982     29985
     29983     29982     29984     29984     29982     29985     29986     29982     29985
     29986     29982     29984     29986     29982     29983     29988     29992     29993
     29989     29988     29991     29989     29988     29990     29990     29988     29991
     29992     29988     29991     29992     29988     29990     29992     29988     29989
     29994     29998     29999     29995     29994     29997     29995     29994     29996
     29996     29994     29997     29998     29994     29997     29998     29994     29996
     29998     29994     29995     30000     30004     30005     30001     30000     30003
     30001     30000     30002     30002     30000     30003     30004     30000     30003
     30004     30000     30002     30004     30000     30001     30006     30010     30011
     30007     30006     30009     30007     30006     30008     30008     30006     30009
     30010     30006     30009     30010     30006     30008     30010     30006     30007
     30012     30016     30017     30013     30012     30015     30013     30012     30014
     30014     30012     30015     30016     30012     30015     30016     30012     30014
     30016     30012     30013     30018     30022     30023     30019     30018     30021
     30019     30018     30020     30020     30018     30021     30022     30018     30021
     30022     30018     30020     30022     30018     30019     30024     30028     30029
     30025     30024     30027     30025     30024     30026     30026     30024     30027
     30028     30024     30027     30028     30024     30026     30028     30024     30025
     30030     30034     30035     30031     30030     30033     30031     30030     30032
     30032     30030     30033     30034     30030     30033     30034     30030     30032
     30034     30030     30031     30036     30040     30041     30037     30036     30039
     30037     30036     30038     30038     30036     30039     30040     30036     30039
     30040     30036     30038     30040     30036     30037     30042     30046     30047
     30043     30042     30045     30043     30042     30044     30044     30042     30045
     30046     30042     30045     30046     30042     30044     30046     30042     30043
     30048     30052     30053     30049     30048     30051     30049     30048     30050
     30050     30048     30051     30052     30048     30051     30052     30048     30050
     30052     30048     30049     30054     30058     30059     30055     30054     30057
     30055     30054     30056     30056     30054     30057     30058     30054     30057
     30058     30054     30056     30058     30054     30055     30060     30064     30065
     30061     30060     30063     30061     30060     30062     30062     30060     30063
     30064     30060     30063     30064     30060     30062     30064     30060     30061
     30066     30070     30071     30067     30066     30069     30067     30066     30068
     30068     30066     30069     30070     30066     30069     30070     30066     30068
     30070     30066     30067     30072     30076     30077     30073     30072     30075
     30073     30072     30074     30074     30072     30075     30076     30072     30075
     30076     30072     30074     30076     30072     30073     30078     30082     30083
     30079     30078     30081     30079     30078     30080     30080     30078     30081
     30082     30078     30081     30082     30078     30080     30082     30078     30079
     30084     30088     30089     30085     30084     30087     30085     30084     30086
     30086     30084     30087     30088     30084     30087     30088     30084     30086
     30088     30084     30085     30090     30094     30095     30091     30090     30093
     30091     30090     30092     30092     30090     30093     30094     30090     30093
     30094     30090     30092     30094     30090     30091     30096     30100     30101
     30097     30096     30099     30097     30096     30098     30098     30096     30099
     30100     30096     30099     30100     30096     30098     30100     30096     30097
     30102     30106     30107     30103     30102     30105     30103     30102     30104
     30104     30102     30105     30106     30102     30105     30106     30102     30104
     30106     30102     30103     30108     30112     30113     30109     30108     30111
     30109     30108     30110     30110     30108     30111     30112     30108     30111
     30112     30108     30110     30112     30108     30109     30114     30118     30119
     30115     30114     30117     30115     30114     30116     30116     30114     30117
     30118     30114     30117     30118     30114     30116     30118     30114     30115
     30120     30124     30125     30121     30120     30123     30121     30120     30122
     30122     30120     30123     30124     30120     30123     30124     30120     30122
     30124     30120     30121     30126     30130     30131     30127     30126     30129
     30127     30126     30128     30128     30126     30129     30130     30126     30129
     30130     30126     30128     30130     30126     30127     30132     30136     30137
     30133     30132     30135     30133     30132     30134     30134     30132     30135
     30136     30132     30135     30136     30132     30134     30136     30132     30133
     30138     30142     30143     30139     30138     30141     30139     30138     30140
     30140     30138     30141     30142     30138     30141     30142     30138     30140
     30142     30138     30139     30144     30148     30149     30145     30144     30147
     30145     30144     30146     30146     30144     30147     30148     30144     30147
     30148     30144     30146     30148     30144     30145     30150     30154     30155
     30151     30150     30153     30151     30150     30152     30152     30150     30153
     30154     30150     30153     30154     30150     30152     30154     30150     30151
     30156     30160     30161     30157     30156     30159     30157     30156     30158
     30158     30156     30159     30160     30156     30159     30160     30156     30158
     30160     30156     30157     30162     30166     30167     30163     30162     30165
     30163     30162     30164     30164     30162     30165     30166     30162     30165
     30166     30162     30164     30166     30162     30163     30168     30172     30173
     30169     30168     30171     30169     30168     30170     30170     30168     30171
     30172     30168     30171     30172     30168     30170     30172     30168     30169
     30174     30178     30179     30175     30174     30177     30175     30174     30176
     30176     30174     30177     30178     30174     30177     30178     30174     30176
     30178     30174     30175     30180     30184     30185     30181     30180     30183
     30181     30180     30182     30182     30180     30183     30184     30180     30183
     30184     30180     30182     30184     30180     30181     30186     30190     30191
     30187     30186     30189     30187     30186     30188     30188     30186     30189
     30190     30186     30189     30190     30186     30188     30190     30186     30187
     30192     30196     30197     30193     30192     30195     30193     30192     30194
     30194     30192     30195     30196     30192     30195     30196     30192     30194
     30196     30192     30193     30198     30202     30203     30199     30198     30201
     30199     30198     30200     30200     30198     30201     30202     30198     30201
     30202     30198     30200     30202     30198     30199     30204     30208     30209
     30205     30204     30207     30205     30204     30206     30206     30204     30207
     30208     30204     30207     30208     30204     30206     30208     30204     30205
     30210     30214     30215     30211     30210     30213     30211     30210     30212
     30212     30210     30213     30214     30210     30213     30214     30210     30212
     30214     30210     30211     30216     30220     30221     30217     30216     30219
     30217     30216     30218     30218     30216     30219     30220     30216     30219
     30220     30216     30218     30220     30216     30217     30222     30226     30227
     30223     30222     30225     30223     30222     30224     30224     30222     30225
     30226     30222     30225     30226     30222     30224     30226     30222     30223
     30228     30232     30233     30229     30228     30231     30229     30228     30230
     30230     30228     30231     30232     30228     30231     30232     30228     30230
     30232     30228     30229     30234     30238     30239     30235     30234     30237
     30235     30234     30236     30236     30234     30237     30238     30234     30237
     30238     30234     30236     30238     30234     30235     30240     30244     30245
     30241     30240     30243     30241     30240     30242     30242     30240     30243
     30244     30240     30243     30244     30240     30242     30244     30240     30241
     30246     30250     30251     30247     30246     30249     30247     30246     30248
     30248     30246     30249     30250     30246     30249     30250     30246     30248
     30250     30246     30247     30252     30256     30257     30253     30252     30255
     30253     30252     30254     30254     30252     30255     30256     30252     30255
     30256     30252     30254     30256     30252     30253     30258     30262     30263
     30259     30258     30261     30259     30258     30260     30260     30258     30261
     30262     30258     30261     30262     30258     30260     30262     30258     30259
     30264     30268     30269     30265     30264     30267     30265     30264     30266
     30266     30264     30267     30268     30264     30267     30268     30264     30266
     30268     30264     30265     30270     30274     30275     30271     30270     30273
     30271     30270     30272     30272     30270     30273     30274     30270     30273
     30274     30270     30272     30274     30270     30271     30276     30280     30281
     30277     30276     30279     30277     30276     30278     30278     30276     30279
     30280     30276     30279     30280     30276     30278     30280     30276     30277
     30282     30286     30287     30283     30282     30285     30283     30282     30284
     30284     30282     30285     30286     30282     30285     30286     30282     30284
     30286     30282     30283     30288     30292     30293     30289     30288     30291
     30289     30288     30290     30290     30288     30291     30292     30288     30291
     30292     30288     30290     30292     30288     30289     30294     30298     30299
     30295     30294     30297     30295     30294     30296     30296     30294     30297
     30298     30294     30297     30298     30294     30296     30298     30294     30295
     30300     30304     30305     30301     30300     30303     30301     30300     30302
     30302     30300     30303     30304     30300     30303     30304     30300     30302
     30304     30300     30301     30306     30310     30311     30307     30306     30309
     30307     30306     30308     30308     30306     30309     30310     30306     30309
     30310     30306     30308     30310     30306     30307     30312     30316     30317
     30313     30312     30315     30313     30312     30314     30314     30312     30315
     30316     30312     30315     30316     30312     30314     30316     30312     30313
     30318     30322     30323     30319     30318     30321     30319     30318     30320
     30320     30318     30321     30322     30318     30321     30322     30318     30320
     30322     30318     30319     30324     30328     30329     30325     30324     30327
     30325     30324     30326     30326     30324     30327     30328     30324     30327
     30328     30324     30326     30328     30324     30325     30330     30334     30335
     30331     30330     30333     30331     30330     30332     30332     30330     30333
     30334     30330     30333     30334     30330     30332     30334     30330     30331
     30336     30340     30341     30337     30336     30339     30337     30336     30338
     30338     30336     30339     30340     30336     30339     30340     30336     30338
     30340     30336     30337     30342     30346     30347     30343     30342     30345
     30343     30342     30344     30344     30342     30345     30346     30342     30345
     30346     30342     30344     30346     30342     30343     30348     30352     30353
     30349     30348     30351     30349     30348     30350     30350     30348     30351
     30352     30348     30351     30352     30348     30350     30352     30348     30349
     30354     30358     30359     30355     30354     30357     30355     30354     30356
     30356     30354     30357     30358     30354     30357     30358     30354     30356
     30358     30354     30355     30360     30364     30365     30361     30360     30363
     30361     30360     30362     30362     30360     30363     30364     30360     30363
     30364     30360     30362     30364     30360     30361     30366     30370     30371
     30367     30366     30369     30367     30366     30368     30368     30366     30369
     30370     30366     30369     30370     30366     30368     30370     30366     30367
     30372     30376     30377     30373     30372     30375     30373     30372     30374
     30374     30372     30375     30376     30372     30375     30376     30372     30374
     30376     30372     30373     30378     30382     30383     30379     30378     30381
     30379     30378     30380     30380     30378     30381     30382     30378     30381
     30382     30378     30380     30382     30378     30379     30384     30388     30389
     30385     30384     30387     30385     30384     30386     30386     30384     30387
     30388     30384     30387     30388     30384     30386     30388     30384     30385
     30390     30394     30395     30391     30390     30393     30391     30390     30392
     30392     30390     30393     30394     30390     30393     30394     30390     30392
     30394     30390     30391     30396     30400     30401     30397     30396     30399
     30397     30396     30398     30398     30396     30399     30400     30396     30399
     30400     30396     30398     30400     30396     30397     30402     30406     30407
     30403     30402     30405     30403     30402     30404     30404     30402     30405
     30406     30402     30405     30406     30402     30404     30406     30402     30403
     30408     30412     30413     30409     30408     30411     30409     30408     30410
     30410     30408     30411     30412     30408     30411     30412     30408     30410
     30412     30408     30409     30414     30418     30419     30415     30414     30417
     30415     30414     30416     30416     30414     30417     30418     30414     30417
     30418     30414     30416     30418     30414     30415     30420     30424     30425
     30421     30420     30423     30421     30420     30422     30422     30420     30423
     30424     30420     30423     30424     30420     30422     30424     30420     30421
     30426     30430     30431     30427     30426     30429     30427     30426     30428
     30428     30426     30429     30430     30426     30429     30430     30426     30428
     30430     30426     30427     30432     30436     30437     30433     30432     30435
     30433     30432     30434     30434     30432     30435     30436     30432     30435
     30436     30432     30434     30436     30432     30433     30438     30442     30443
     30439     30438     30441     30439     30438     30440     30440     30438     30441
     30442     30438     30441     30442     30438     30440     30442     30438     30439
     30444     30448     30449     30445     30444     30447     30445     30444     30446
     30446     30444     30447     30448     30444     30447     30448     30444     30446
     30448     30444     30445     30450     30454     30455     30451     30450     30453
     30451     30450     30452     30452     30450     30453     30454     30450     30453
     30454     30450     30452     30454     30450     30451     30456     30460     30461
     30457     30456     30459     30457     30456     30458     30458     30456     30459
     30460     30456     30459     30460     30456     30458     30460     30456     30457
     30462     30466     30467     30463     30462     30465     30463     30462     30464
     30464     30462     30465     30466     30462     30465     30466     30462     30464
     30466     30462     30463     30468     30472     30473     30469     30468     30471
     30469     30468     30470     30470     30468     30471     30472     30468     30471
     30472     30468     30470     30472     30468     30469     30474     30478     30479
     30475     30474     30477     30475     30474     30476     30476     30474     30477
     30478     30474     30477     30478     30474     30476     30478     30474     30475
     30480     30484     30485     30481     30480     30483     30481     30480     30482
     30482     30480     30483     30484     30480     30483     30484     30480     30482
     30484     30480     30481     30486     30490     30491     30487     30486     30489
     30487     30486     30488     30488     30486     30489     30490     30486     30489
     30490     30486     30488     30490     30486     30487     30492     30496     30497
     30493     30492     30495     30493     30492     30494     30494     30492     30495
     30496     30492     30495     30496     30492     30494     30496     30492     30493
     30498     30502     30503     30499     30498     30501     30499     30498     30500
     30500     30498     30501     30502     30498     30501     30502     30498     30500
     30502     30498     30499     30504     30508     30509     30505     30504     30507
     30505     30504     30506     30506     30504     30507     30508     30504     30507
     30508     30504     30506     30508     30504     30505     30510     30514     30515
     30511     30510     30513     30511     30510     30512     30512     30510     30513
     30514     30510     30513     30514     30510     30512     30514     30510     30511
     30516     30520     30521     30517     30516     30519     30517     30516     30518
     30518     30516     30519     30520     30516     30519     30520     30516     30518
     30520     30516     30517     30522     30526     30527     30523     30522     30525
     30523     30522     30524     30524     30522     30525     30526     30522     30525
     30526     30522     30524     30526     30522     30523     30528     30532     30533
     30529     30528     30531     30529     30528     30530     30530     30528     30531
     30532     30528     30531     30532     30528     30530     30532     30528     30529
     30534     30538     30539     30535     30534     30537     30535     30534     30536
     30536     30534     30537     30538     30534     30537     30538     30534     30536
     30538     30534     30535     30540     30544     30545     30541     30540     30543
     30541     30540     30542     30542     30540     30543     30544     30540     30543
     30544     30540     30542     30544     30540     30541     30546     30550     30551
     30547     30546     30549     30547     30546     30548     30548     30546     30549
     30550     30546     30549     30550     30546     30548     30550     30546     30547
     30552     30556     30557     30553     30552     30555     30553     30552     30554
     30554     30552     30555     30556     30552     30555     30556     30552     30554
     30556     30552     30553     30558     30562     30563     30559     30558     30561
     30559     30558     30560     30560     30558     30561     30562     30558     30561
     30562     30558     30560     30562     30558     30559     30564     30568     30569
     30565     30564     30567     30565     30564     30566     30566     30564     30567
     30568     30564     30567     30568     30564     30566     30568     30564     30565
     30570     30574     30575     30571     30570     30573     30571     30570     30572
     30572     30570     30573     30574     30570     30573     30574     30570     30572
     30574     30570     30571     30576     30580     30581     30577     30576     30579
     30577     30576     30578     30578     30576     30579     30580     30576     30579
     30580     30576     30578     30580     30576     30577     30582     30586     30587
     30583     30582     30585     30583     30582     30584     30584     30582     30585
     30586     30582     30585     30586     30582     30584     30586     30582     30583
     30588     30592     30593     30589     30588     30591     30589     30588     30590
     30590     30588     30591     30592     30588     30591     30592     30588     30590
     30592     30588     30589     30594     30598     30599     30595     30594     30597
     30595     30594     30596     30596     30594     30597     30598     30594     30597
     30598     30594     30596     30598     30594     30595     30600     30604     30605
     30601     30600     30603     30601     30600     30602     30602     30600     30603
     30604     30600     30603     30604     30600     30602     30604     30600     30601
     30606     30610     30611     30607     30606     30609     30607     30606     30608
     30608     30606     30609     30610     30606     30609     30610     30606     30608
     30610     30606     30607     30612     30616     30617     30613     30612     30615
     30613     30612     30614     30614     30612     30615     30616     30612     30615
     30616     30612     30614     30616     30612     30613     30618     30622     30623
     30619     30618     30621     30619     30618     30620     30620     30618     30621
     30622     30618     30621     30622     30618     30620     30622     30618     30619
     30624     30628     30629     30625     30624     30627     30625     30624     30626
     30626     30624     30627     30628     30624     30627     30628     30624     30626
     30628     30624     30625     30630     30634     30635     30631     30630     30633
     30631     30630     30632     30632     30630     30633     30634     30630     30633
     30634     30630     30632     30634     30630     30631     30636     30640     30641
     30637     30636     30639     30637     30636     30638     30638     30636     30639
     30640     30636     30639     30640     30636     30638     30640     30636     30637
     30642     30646     30647     30643     30642     30645     30643     30642     30644
     30644     30642     30645     30646     30642     30645     30646     30642     30644
     30646     30642     30643     30648     30652     30653     30649     30648     30651
     30649     30648     30650     30650     30648     30651     30652     30648     30651
     30652     30648     30650     30652     30648     30649     30654     30658     30659
     30655     30654     30657     30655     30654     30656     30656     30654     30657
     30658     30654     30657     30658     30654     30656     30658     30654     30655
     30660     30664     30665     30661     30660     30663     30661     30660     30662
     30662     30660     30663     30664     30660     30663     30664     30660     30662
     30664     30660     30661     30666     30670     30671     30667     30666     30669
     30667     30666     30668     30668     30666     30669     30670     30666     30669
     30670     30666     30668     30670     30666     30667     30672     30676     30677
     30673     30672     30675     30673     30672     30674     30674     30672     30675
     30676     30672     30675     30676     30672     30674     30676     30672     30673
     30678     30682     30683     30679     30678     30681     30679     30678     30680
     30680     30678     30681     30682     30678     30681     30682     30678     30680
     30682     30678     30679     30684     30688     30689     30685     30684     30687
     30685     30684     30686     30686     30684     30687     30688     30684     30687
     30688     30684     30686     30688     30684     30685     30690     30694     30695
     30691     30690     30693     30691     30690     30692     30692     30690     30693
     30694     30690     30693     30694     30690     30692     30694     30690     30691
     30696     30700     30701     30697     30696     30699     30697     30696     30698
     30698     30696     30699     30700     30696     30699     30700     30696     30698
     30700     30696     30697     30702     30706     30707     30703     30702     30705
     30703     30702     30704     30704     30702     30705     30706     30702     30705
     30706     30702     30704     30706     30702     30703     30708     30712     30713
     30709     30708     30711     30709     30708     30710     30710     30708     30711
     30712     30708     30711     30712     30708     30710     30712     30708     30709
     30714     30718     30719     30715     30714     30717     30715     30714     30716
     30716     30714     30717     30718     30714     30717     30718     30714     30716
     30718     30714     30715     30720     30724     30725     30721     30720     30723
     30721     30720     30722     30722     30720     30723     30724     30720     30723
     30724     30720     30722     30724     30720     30721     30726     30730     30731
     30727     30726     30729     30727     30726     30728     30728     30726     30729
     30730     30726     30729     30730     30726     30728     30730     30726     30727
     30732     30736     30737     30733     30732     30735     30733     30732     30734
     30734     30732     30735     30736     30732     30735     30736     30732     30734
     30736     30732     30733     30738     30742     30743     30739     30738     30741
     30739     30738     30740     30740     30738     30741     30742     30738     30741
     30742     30738     30740     30742     30738     30739     30744     30748     30749
     30745     30744     30747     30745     30744     30746     30746     30744     30747
     30748     30744     30747     30748     30744     30746     30748     30744     30745
     30750     30754     30755     30751     30750     30753     30751     30750     30752
     30752     30750     30753     30754     30750     30753     30754     30750     30752
     30754     30750     30751     30756     30760     30761     30757     30756     30759
     30757     30756     30758     30758     30756     30759     30760     30756     30759
     30760     30756     30758     30760     30756     30757     30762     30766     30767
     30763     30762     30765     30763     30762     30764     30764     30762     30765
     30766     30762     30765     30766     30762     30764     30766     30762     30763
     30768     30772     30773     30769     30768     30771     30769     30768     30770
     30770     30768     30771     30772     30768     30771     30772     30768     30770
     30772     30768     30769     30774     30778     30779     30775     30774     30777
     30775     30774     30776     30776     30774     30777     30778     30774     30777
     30778     30774     30776     30778     30774     30775     30780     30784     30785
     30781     30780     30783     30781     30780     30782     30782     30780     30783
     30784     30780     30783     30784     30780     30782     30784     30780     30781
     30786     30790     30791     30787     30786     30789     30787     30786     30788
     30788     30786     30789     30790     30786     30789     30790     30786     30788
     30790     30786     30787     30792     30796     30797     30793     30792     30795
     30793     30792     30794     30794     30792     30795     30796     30792     30795
     30796     30792     30794     30796     30792     30793     30798     30802     30803
     30799     30798     30801     30799     30798     30800     30800     30798     30801
     30802     30798     30801     30802     30798     30800     30802     30798     30799
     30804     30808     30809     30805     30804     30807     30805     30804     30806
     30806     30804     30807     30808     30804     30807     30808     30804     30806
     30808     30804     30805     30810     30814     30815     30811     30810     30813
     30811     30810     30812     30812     30810     30813     30814     30810     30813
     30814     30810     30812     30814     30810     30811     30816     30820     30821
     30817     30816     30819     30817     30816     30818     30818     30816     30819
     30820     30816     30819     30820     30816     30818     30820     30816     30817
     30822     30826     30827     30823     30822     30825     30823     30822     30824
     30824     30822     30825     30826     30822     30825     30826     30822     30824
     30826     30822     30823     30828     30832     30833     30829     30828     30831
     30829     30828     30830     30830     30828     30831     30832     30828     30831
     30832     30828     30830     30832     30828     30829     30834     30838     30839
     30835     30834     30837     30835     30834     30836     30836     30834     30837
     30838     30834     30837     30838     30834     30836     30838     30834     30835
     30840     30844     30845     30841     30840     30843     30841     30840     30842
     30842     30840     30843     30844     30840     30843     30844     30840     30842
     30844     30840     30841     30846     30850     30851     30847     30846     30849
     30847     30846     30848     30848     30846     30849     30850     30846     30849
     30850     30846     30848     30850     30846     30847     30852     30856     30857
     30853     30852     30855     30853     30852     30854     30854     30852     30855
     30856     30852     30855     30856     30852     30854     30856     30852     30853
     30858     30862     30863     30859     30858     30861     30859     30858     30860
     30860     30858     30861     30862     30858     30861     30862     30858     30860
     30862     30858     30859     30864     30868     30869     30865     30864     30867
     30865     30864     30866     30866     30864     30867     30868     30864     30867
     30868     30864     30866     30868     30864     30865     30870     30874     30875
     30871     30870     30873     30871     30870     30872     30872     30870     30873
     30874     30870     30873     30874     30870     30872     30874     30870     30871
     30876     30880     30881     30877     30876     30879     30877     30876     30878
     30878     30876     30879     30880     30876     30879     30880     30876     30878
     30880     30876     30877     30882     30886     30887     30883     30882     30885
     30883     30882     30884     30884     30882     30885     30886     30882     30885
     30886     30882     30884     30886     30882     30883     30888     30892     30893
     30889     30888     30891     30889     30888     30890     30890     30888     30891
     30892     30888     30891     30892     30888     30890     30892     30888     30889
     30894     30898     30899     30895     30894     30897     30895     30894     30896
     30896     30894     30897     30898     30894     30897     30898     30894     30896
     30898     30894     30895     30900     30904     30905     30901     30900     30903
     30901     30900     30902     30902     30900     30903     30904     30900     30903
     30904     30900     30902     30904     30900     30901     30906     30910     30911
     30907     30906     30909     30907     30906     30908     30908     30906     30909
     30910     30906     30909     30910     30906     30908     30910     30906     30907
     30912     30916     30917     30913     30912     30915     30913     30912     30914
     30914     30912     30915     30916     30912     30915     30916     30912     30914
     30916     30912     30913     30918     30922     30923     30919     30918     30921
     30919     30918     30920     30920     30918     30921     30922     30918     30921
     30922     30918     30920     30922     30918     30919     30924     30928     30929
     30925     30924     30927     30925     30924     30926     30926     30924     30927
     30928     30924     30927     30928     30924     30926     30928     30924     30925
     30930     30934     30935     30931     30930     30933     30931     30930     30932
     30932     30930     30933     30934     30930     30933     30934     30930     30932
     30934     30930     30931     30936     30940     30941     30937     30936     30939
     30937     30936     30938     30938     30936     30939     30940     30936     30939
     30940     30936     30938     30940     30936     30937     30942     30946     30947
     30943     30942     30945     30943     30942     30944     30944     30942     30945
     30946     30942     30945     30946     30942     30944     30946     30942     30943
     30948     30952     30953     30949     30948     30951     30949     30948     30950
     30950     30948     30951     30952     30948     30951     30952     30948     30950
     30952     30948     30949     30954     30958     30959     30955     30954     30957
     30955     30954     30956     30956     30954     30957     30958     30954     30957
     30958     30954     30956     30958     30954     30955     30960     30964     30965
     30961     30960     30963     30961     30960     30962     30962     30960     30963
     30964     30960     30963     30964     30960     30962     30964     30960     30961
     30966     30970     30971     30967     30966     30969     30967     30966     30968
     30968     30966     30969     30970     30966     30969     30970     30966     30968
     30970     30966     30967     30972     30976     30977     30973     30972     30975
     30973     30972     30974     30974     30972     30975     30976     30972     30975
     30976     30972     30974     30976     30972     30973     30978     30982     30983
     30979     30978     30981     30979     30978     30980     30980     30978     30981
     30982     30978     30981     30982     30978     30980     30982     30978     30979
     30984     30988     30989     30985     30984     30987     30985     30984     30986
     30986     30984     30987     30988     30984     30987     30988     30984     30986
     30988     30984     30985     30990     30994     30995     30991     30990     30993
     30991     30990     30992     30992     30990     30993     30994     30990     30993
     30994     30990     30992     30994     30990     30991     30996     31000     31001
     30997     30996     30999     30997     30996     30998     30998     30996     30999
     31000     30996     30999     31000     30996     30998     31000     30996     30997
     31002     31006     31007     31003     31002     31005     31003     31002     31004
     31004     31002     31005     31006     31002     31005     31006     31002     31004
     31006     31002     31003     31008     31012     31013     31009     31008     31011
     31009     31008     31010     31010     31008     31011     31012     31008     31011
     31012     31008     31010     31012     31008     31009     31014     31018     31019
     31015     31014     31017     31015     31014     31016     31016     31014     31017
     31018     31014     31017     31018     31014     31016     31018     31014     31015
     31020     31024     31025     31021     31020     31023     31021     31020     31022
     31022     31020     31023     31024     31020     31023     31024     31020     31022
     31024     31020     31021     31026     31030     31031     31027     31026     31029
     31027     31026     31028     31028     31026     31029     31030     31026     31029
     31030     31026     31028     31030     31026     31027     31032     31036     31037
     31033     31032     31035     31033     31032     31034     31034     31032     31035
     31036     31032     31035     31036     31032     31034     31036     31032     31033
     31038     31042     31043     31039     31038     31041     31039     31038     31040
     31040     31038     31041     31042     31038     31041     31042     31038     31040
     31042     31038     31039     31044     31048     31049     31045     31044     31047
     31045     31044     31046     31046     31044     31047     31048     31044     31047
     31048     31044     31046     31048     31044     31045     31050     31054     31055
     31051     31050     31053     31051     31050     31052     31052     31050     31053
     31054     31050     31053     31054     31050     31052     31054     31050     31051
     31056     31060     31061     31057     31056     31059     31057     31056     31058
     31058     31056     31059     31060     31056     31059     31060     31056     31058
     31060     31056     31057     31062     31066     31067     31063     31062     31065
     31063     31062     31064     31064     31062     31065     31066     31062     31065
     31066     31062     31064     31066     31062     31063     31068     31072     31073
     31069     31068     31071     31069     31068     31070     31070     31068     31071
     31072     31068     31071     31072     31068     31070     31072     31068     31069
     31074     31078     31079     31075     31074     31077     31075     31074     31076
     31076     31074     31077     31078     31074     31077     31078     31074     31076
     31078     31074     31075     31080     31084     31085     31081     31080     31083
     31081     31080     31082     31082     31080     31083     31084     31080     31083
     31084     31080     31082     31084     31080     31081     31086     31090     31091
     31087     31086     31089     31087     31086     31088     31088     31086     31089
     31090     31086     31089     31090     31086     31088     31090     31086     31087
     31092     31096     31097     31093     31092     31095     31093     31092     31094
     31094     31092     31095     31096     31092     31095     31096     31092     31094
     31096     31092     31093     31098     31102     31103     31099     31098     31101
     31099     31098     31100     31100     31098     31101     31102     31098     31101
     31102     31098     31100     31102     31098     31099     31104     31108     31109
     31105     31104     31107     31105     31104     31106     31106     31104     31107
     31108     31104     31107     31108     31104     31106     31108     31104     31105
     31110     31114     31115     31111     31110     31113     31111     31110     31112
     31112     31110     31113     31114     31110     31113     31114     31110     31112
     31114     31110     31111     31116     31120     31121     31117     31116     31119
     31117     31116     31118     31118     31116     31119     31120     31116     31119
     31120     31116     31118     31120     31116     31117     31122     31126     31127
     31123     31122     31125     31123     31122     31124     31124     31122     31125
     31126     31122     31125     31126     31122     31124     31126     31122     31123
     31128     31132     31133     31129     31128     31131     31129     31128     31130
     31130     31128     31131     31132     31128     31131     31132     31128     31130
     31132     31128     31129     31134     31138     31139     31135     31134     31137
     31135     31134     31136     31136     31134     31137     31138     31134     31137
     31138     31134     31136     31138     31134     31135     31140     31144     31145
     31141     31140     31143     31141     31140     31142     31142     31140     31143
     31144     31140     31143     31144     31140     31142     31144     31140     31141
     31146     31150     31151     31147     31146     31149     31147     31146     31148
     31148     31146     31149     31150     31146     31149     31150     31146     31148
     31150     31146     31147     31152     31156     31157     31153     31152     31155
     31153     31152     31154     31154     31152     31155     31156     31152     31155
     31156     31152     31154     31156     31152     31153     31158     31162     31163
     31159     31158     31161     31159     31158     31160     31160     31158     31161
     31162     31158     31161     31162     31158     31160     31162     31158     31159
     31164     31168     31169     31165     31164     31167     31165     31164     31166
     31166     31164     31167     31168     31164     31167     31168     31164     31166
     31168     31164     31165     31170     31174     31175     31171     31170     31173
     31171     31170     31172     31172     31170     31173     31174     31170     31173
     31174     31170     31172     31174     31170     31171     31176     31180     31181
     31177     31176     31179     31177     31176     31178     31178     31176     31179
     31180     31176     31179     31180     31176     31178     31180     31176     31177
     31182     31186     31187     31183     31182     31185     31183     31182     31184
     31184     31182     31185     31186     31182     31185     31186     31182     31184
     31186     31182     31183     31188     31192     31193     31189     31188     31191
     31189     31188     31190     31190     31188     31191     31192     31188     31191
     31192     31188     31190     31192     31188     31189     31194     31198     31199
     31195     31194     31197     31195     31194     31196     31196     31194     31197
     31198     31194     31197     31198     31194     31196     31198     31194     31195
     31200     31204     31205     31201     31200     31203     31201     31200     31202
     31202     31200     31203     31204     31200     31203     31204     31200     31202
     31204     31200     31201     31206     31210     31211     31207     31206     31209
     31207     31206     31208     31208     31206     31209     31210     31206     31209
     31210     31206     31208     31210     31206     31207     31212     31216     31217
     31213     31212     31215     31213     31212     31214     31214     31212     31215
     31216     31212     31215     31216     31212     31214     31216     31212     31213
     31218     31222     31223     31219     31218     31221     31219     31218     31220
     31220     31218     31221     31222     31218     31221     31222     31218     31220
     31222     31218     31219     31224     31228     31229     31225     31224     31227
     31225     31224     31226     31226     31224     31227     31228     31224     31227
     31228     31224     31226     31228     31224     31225     31230     31234     31235
     31231     31230     31233     31231     31230     31232     31232     31230     31233
     31234     31230     31233     31234     31230     31232     31234     31230     31231
     31236     31240     31241     31237     31236     31239     31237     31236     31238
     31238     31236     31239     31240     31236     31239     31240     31236     31238
     31240     31236     31237     31242     31246     31247     31243     31242     31245
     31243     31242     31244     31244     31242     31245     31246     31242     31245
     31246     31242     31244     31246     31242     31243     31248     31252     31253
     31249     31248     31251     31249     31248     31250     31250     31248     31251
     31252     31248     31251     31252     31248     31250     31252     31248     31249
     31254     31258     31259     31255     31254     31257     31255     31254     31256
     31256     31254     31257     31258     31254     31257     31258     31254     31256
     31258     31254     31255     31260     31264     31265     31261     31260     31263
     31261     31260     31262     31262     31260     31263     31264     31260     31263
     31264     31260     31262     31264     31260     31261     31266     31270     31271
     31267     31266     31269     31267     31266     31268     31268     31266     31269
     31270     31266     31269     31270     31266     31268     31270     31266     31267
     31272     31276     31277     31273     31272     31275     31273     31272     31274
     31274     31272     31275     31276     31272     31275     31276     31272     31274
     31276     31272     31273     31278     31282     31283     31279     31278     31281
     31279     31278     31280     31280     31278     31281     31282     31278     31281
     31282     31278     31280     31282     31278     31279     31284     31288     31289
     31285     31284     31287     31285     31284     31286     31286     31284     31287
     31288     31284     31287     31288     31284     31286     31288     31284     31285
     31290     31294     31295     31291     31290     31293     31291     31290     31292
     31292     31290     31293     31294     31290     31293     31294     31290     31292
     31294     31290     31291     31296     31300     31301     31297     31296     31299
     31297     31296     31298     31298     31296     31299     31300     31296     31299
     31300     31296     31298     31300     31296     31297     31302     31306     31307
     31303     31302     31305     31303     31302     31304     31304     31302     31305
     31306     31302     31305     31306     31302     31304     31306     31302     31303
     31308     31312     31313     31309     31308     31311     31309     31308     31310
     31310     31308     31311     31312     31308     31311     31312     31308     31310
     31312     31308     31309     31314     31318     31319     31315     31314     31317
     31315     31314     31316     31316     31314     31317     31318     31314     31317
     31318     31314     31316     31318     31314     31315     31320     31324     31325
     31321     31320     31323     31321     31320     31322     31322     31320     31323
     31324     31320     31323     31324     31320     31322     31324     31320     31321
     31326     31330     31331     31327     31326     31329     31327     31326     31328
     31328     31326     31329     31330     31326     31329     31330     31326     31328
     31330     31326     31327     31332     31336     31337     31333     31332     31335
     31333     31332     31334     31334     31332     31335     31336     31332     31335
     31336     31332     31334     31336     31332     31333     31338     31342     31343
     31339     31338     31341     31339     31338     31340     31340     31338     31341
     31342     31338     31341     31342     31338     31340     31342     31338     31339
     31344     31348     31349     31345     31344     31347     31345     31344     31346
     31346     31344     31347     31348     31344     31347     31348     31344     31346
     31348     31344     31345     31350     31354     31355     31351     31350     31353
     31351     31350     31352     31352     31350     31353     31354     31350     31353
     31354     31350     31352     31354     31350     31351     31356     31360     31361
     31357     31356     31359     31357     31356     31358     31358     31356     31359
     31360     31356     31359     31360     31356     31358     31360     31356     31357
     31362     31366     31367     31363     31362     31365     31363     31362     31364
     31364     31362     31365     31366     31362     31365     31366     31362     31364
     31366     31362     31363     31368     31372     31373     31369     31368     31371
     31369     31368     31370     31370     31368     31371     31372     31368     31371
     31372     31368     31370     31372     31368     31369     31374     31378     31379
     31375     31374     31377     31375     31374     31376     31376     31374     31377
     31378     31374     31377     31378     31374     31376     31378     31374     31375
     31380     31384     31385     31381     31380     31383     31381     31380     31382
     31382     31380     31383     31384     31380     31383     31384     31380     31382
     31384     31380     31381     31386     31390     31391     31387     31386     31389
     31387     31386     31388     31388     31386     31389     31390     31386     31389
     31390     31386     31388     31390     31386     31387     31392     31396     31397
     31393     31392     31395     31393     31392     31394     31394     31392     31395
     31396     31392     31395     31396     31392     31394     31396     31392     31393
     31398     31402     31403     31399     31398     31401     31399     31398     31400
     31400     31398     31401     31402     31398     31401     31402     31398     31400
     31402     31398     31399     31404     31408     31409     31405     31404     31407
     31405     31404     31406     31406     31404     31407     31408     31404     31407
     31408     31404     31406     31408     31404     31405     31410     31414     31415
     31411     31410     31413     31411     31410     31412     31412     31410     31413
     31414     31410     31413     31414     31410     31412     31414     31410     31411
     31416     31420     31421     31417     31416     31419     31417     31416     31418
     31418     31416     31419     31420     31416     31419     31420     31416     31418
     31420     31416     31417     31422     31426     31427     31423     31422     31425
     31423     31422     31424     31424     31422     31425     31426     31422     31425
     31426     31422     31424     31426     31422     31423     31428     31432     31433
     31429     31428     31431     31429     31428     31430     31430     31428     31431
     31432     31428     31431     31432     31428     31430     31432     31428     31429
     31434     31438     31439     31435     31434     31437     31435     31434     31436
     31436     31434     31437     31438     31434     31437     31438     31434     31436
     31438     31434     31435     31440     31444     31445     31441     31440     31443
     31441     31440     31442     31442     31440     31443     31444     31440     31443
     31444     31440     31442     31444     31440     31441     31446     31450     31451
     31447     31446     31449     31447     31446     31448     31448     31446     31449
     31450     31446     31449     31450     31446     31448     31450     31446     31447
     31452     31456     31457     31453     31452     31455     31453     31452     31454
     31454     31452     31455     31456     31452     31455     31456     31452     31454
     31456     31452     31453     31458     31462     31463     31459     31458     31461
     31459     31458     31460     31460     31458     31461     31462     31458     31461
     31462     31458     31460     31462     31458     31459     31464     31468     31469
     31465     31464     31467     31465     31464     31466     31466     31464     31467
     31468     31464     31467     31468     31464     31466     31468     31464     31465
     31470     31474     31475     31471     31470     31473     31471     31470     31472
     31472     31470     31473     31474     31470     31473     31474     31470     31472
     31474     31470     31471     31476     31480     31481     31477     31476     31479
     31477     31476     31478     31478     31476     31479     31480     31476     31479
     31480     31476     31478     31480     31476     31477     31482     31486     31487
     31483     31482     31485     31483     31482     31484     31484     31482     31485
     31486     31482     31485     31486     31482     31484     31486     31482     31483
     31488     31492     31493     31489     31488     31491     31489     31488     31490
     31490     31488     31491     31492     31488     31491     31492     31488     31490
     31492     31488     31489     31494     31498     31499     31495     31494     31497
     31495     31494     31496     31496     31494     31497     31498     31494     31497
     31498     31494     31496     31498     31494     31495     31500     31504     31505
     31501     31500     31503     31501     31500     31502     31502     31500     31503
     31504     31500     31503     31504     31500     31502     31504     31500     31501
     31506     31510     31511     31507     31506     31509     31507     31506     31508
     31508     31506     31509     31510     31506     31509     31510     31506     31508
     31510     31506     31507     31512     31516     31517     31513     31512     31515
     31513     31512     31514     31514     31512     31515     31516     31512     31515
     31516     31512     31514     31516     31512     31513     31518     31522     31523
     31519     31518     31521     31519     31518     31520     31520     31518     31521
     31522     31518     31521     31522     31518     31520     31522     31518     31519
     31524     31528     31529     31525     31524     31527     31525     31524     31526
     31526     31524     31527     31528     31524     31527     31528     31524     31526
     31528     31524     31525     31530     31534     31535     31531     31530     31533
     31531     31530     31532     31532     31530     31533     31534     31530     31533
     31534     31530     31532     31534     31530     31531     31536     31540     31541
     31537     31536     31539     31537     31536     31538     31538     31536     31539
     31540     31536     31539     31540     31536     31538     31540     31536     31537
     31542     31546     31547     31543     31542     31545     31543     31542     31544
     31544     31542     31545     31546     31542     31545     31546     31542     31544
     31546     31542     31543     31548     31552     31553     31549     31548     31551
     31549     31548     31550     31550     31548     31551     31552     31548     31551
     31552     31548     31550     31552     31548     31549     31554     31558     31559
     31555     31554     31557     31555     31554     31556     31556     31554     31557
     31558     31554     31557     31558     31554     31556     31558     31554     31555
     31560     31564     31565     31561     31560     31563     31561     31560     31562
     31562     31560     31563     31564     31560     31563     31564     31560     31562
     31564     31560     31561     31566     31570     31571     31567     31566     31569
     31567     31566     31568     31568     31566     31569     31570     31566     31569
     31570     31566     31568     31570     31566     31567     31572     31576     31577
     31573     31572     31575     31573     31572     31574     31574     31572     31575
     31576     31572     31575     31576     31572     31574     31576     31572     31573
     31578     31582     31583     31579     31578     31581     31579     31578     31580
     31580     31578     31581     31582     31578     31581     31582     31578     31580
     31582     31578     31579     31584     31588     31589     31585     31584     31587
     31585     31584     31586     31586     31584     31587     31588     31584     31587
     31588     31584     31586     31588     31584     31585     31590     31594     31595
     31591     31590     31593     31591     31590     31592     31592     31590     31593
     31594     31590     31593     31594     31590     31592     31594     31590     31591
     31596     31600     31601     31597     31596     31599     31597     31596     31598
     31598     31596     31599     31600     31596     31599     31600     31596     31598
     31600     31596     31597     31602     31606     31607     31603     31602     31605
     31603     31602     31604     31604     31602     31605     31606     31602     31605
     31606     31602     31604     31606     31602     31603     31608     31612     31613
     31609     31608     31611     31609     31608     31610     31610     31608     31611
     31612     31608     31611     31612     31608     31610     31612     31608     31609
     31614     31618     31619     31615     31614     31617     31615     31614     31616
     31616     31614     31617     31618     31614     31617     31618     31614     31616
     31618     31614     31615     31620     31624     31625     31621     31620     31623
     31621     31620     31622     31622     31620     31623     31624     31620     31623
     31624     31620     31622     31624     31620     31621     31626     31630     31631
     31627     31626     31629     31627     31626     31628     31628     31626     31629
     31630     31626     31629     31630     31626     31628     31630     31626     31627
     31632     31636     31637     31633     31632     31635     31633     31632     31634
     31634     31632     31635     31636     31632     31635     31636     31632     31634
     31636     31632     31633     31638     31642     31643     31639     31638     31641
     31639     31638     31640     31640     31638     31641     31642     31638     31641
     31642     31638     31640     31642     31638     31639     31644     31648     31649
     31645     31644     31647     31645     31644     31646     31646     31644     31647
     31648     31644     31647     31648     31644     31646     31648     31644     31645
     31650     31654     31655     31651     31650     31653     31651     31650     31652
     31652     31650     31653     31654     31650     31653     31654     31650     31652
     31654     31650     31651     31656     31660     31661     31657     31656     31659
     31657     31656     31658     31658     31656     31659     31660     31656     31659
     31660     31656     31658     31660     31656     31657     31662     31666     31667
     31663     31662     31665     31663     31662     31664     31664     31662     31665
     31666     31662     31665     31666     31662     31664     31666     31662     31663
     31668     31672     31673     31669     31668     31671     31669     31668     31670
     31670     31668     31671     31672     31668     31671     31672     31668     31670
     31672     31668     31669     31674     31678     31679     31675     31674     31677
     31675     31674     31676     31676     31674     31677     31678     31674     31677
     31678     31674     31676     31678     31674     31675     31680     31684     31685
     31681     31680     31683     31681     31680     31682     31682     31680     31683
     31684     31680     31683     31684     31680     31682     31684     31680     31681
     31686     31690     31691     31687     31686     31689     31687     31686     31688
     31688     31686     31689     31690     31686     31689     31690     31686     31688
     31690     31686     31687     31692     31696     31697     31693     31692     31695
     31693     31692     31694     31694     31692     31695     31696     31692     31695
     31696     31692     31694     31696     31692     31693     31698     31702     31703
     31699     31698     31701     31699     31698     31700     31700     31698     31701
     31702     31698     31701     31702     31698     31700     31702     31698     31699
     31704     31708     31709     31705     31704     31707     31705     31704     31706
     31706     31704     31707     31708     31704     31707     31708     31704     31706
     31708     31704     31705     31710     31714     31715     31711     31710     31713
     31711     31710     31712     31712     31710     31713     31714     31710     31713
     31714     31710     31712     31714     31710     31711     31716     31720     31721
     31717     31716     31719     31717     31716     31718     31718     31716     31719
     31720     31716     31719     31720     31716     31718     31720     31716     31717
     31722     31726     31727     31723     31722     31725     31723     31722     31724
     31724     31722     31725     31726     31722     31725     31726     31722     31724
     31726     31722     31723     31728     31732     31733     31729     31728     31731
     31729     31728     31730     31730     31728     31731     31732     31728     31731
     31732     31728     31730     31732     31728     31729     31734     31738     31739
     31735     31734     31737     31735     31734     31736     31736     31734     31737
     31738     31734     31737     31738     31734     31736     31738     31734     31735
     31740     31744     31745     31741     31740     31743     31741     31740     31742
     31742     31740     31743     31744     31740     31743     31744     31740     31742
     31744     31740     31741     31746     31750     31751     31747     31746     31749
     31747     31746     31748     31748     31746     31749     31750     31746     31749
     31750     31746     31748     31750     31746     31747     31752     31756     31757
     31753     31752     31755     31753     31752     31754     31754     31752     31755
     31756     31752     31755     31756     31752     31754     31756     31752     31753
     31758     31762     31763     31759     31758     31761     31759     31758     31760
     31760     31758     31761     31762     31758     31761     31762     31758     31760
     31762     31758     31759     31764     31768     31769     31765     31764     31767
     31765     31764     31766     31766     31764     31767     31768     31764     31767
     31768     31764     31766     31768     31764     31765     31770     31774     31775
     31771     31770     31773     31771     31770     31772     31772     31770     31773
     31774     31770     31773     31774     31770     31772     31774     31770     31771
     31776     31780     31781     31777     31776     31779     31777     31776     31778
     31778     31776     31779     31780     31776     31779     31780     31776     31778
     31780     31776     31777     31782     31786     31787     31783     31782     31785
     31783     31782     31784     31784     31782     31785     31786     31782     31785
     31786     31782     31784     31786     31782     31783     31788     31792     31793
     31789     31788     31791     31789     31788     31790     31790     31788     31791
     31792     31788     31791     31792     31788     31790     31792     31788     31789
     31794     31798     31799     31795     31794     31797     31795     31794     31796
     31796     31794     31797     31798     31794     31797     31798     31794     31796
     31798     31794     31795     31800     31804     31805     31801     31800     31803
     31801     31800     31802     31802     31800     31803     31804     31800     31803
     31804     31800     31802     31804     31800     31801     31806     31810     31811
     31807     31806     31809     31807     31806     31808     31808     31806     31809
     31810     31806     31809     31810     31806     31808     31810     31806     31807
     31812     31816     31817     31813     31812     31815     31813     31812     31814
     31814     31812     31815     31816     31812     31815     31816     31812     31814
     31816     31812     31813     31818     31822     31823     31819     31818     31821
     31819     31818     31820     31820     31818     31821     31822     31818     31821
     31822     31818     31820     31822     31818     31819     31824     31828     31829
     31825     31824     31827     31825     31824     31826     31826     31824     31827
     31828     31824     31827     31828     31824     31826     31828     31824     31825
     31830     31834     31835     31831     31830     31833     31831     31830     31832
     31832     31830     31833     31834     31830     31833     31834     31830     31832
     31834     31830     31831     31836     31840     31841     31837     31836     31839
     31837     31836     31838     31838     31836     31839     31840     31836     31839
     31840     31836     31838     31840     31836     31837     31842     31846     31847
     31843     31842     31845     31843     31842     31844     31844     31842     31845
     31846     31842     31845     31846     31842     31844     31846     31842     31843
     31848     31852     31853     31849     31848     31851     31849     31848     31850
     31850     31848     31851     31852     31848     31851     31852     31848     31850
     31852     31848     31849     31854     31858     31859     31855     31854     31857
     31855     31854     31856     31856     31854     31857     31858     31854     31857
     31858     31854     31856     31858     31854     31855     31860     31864     31865
     31861     31860     31863     31861     31860     31862     31862     31860     31863
     31864     31860     31863     31864     31860     31862     31864     31860     31861
     31866     31870     31871     31867     31866     31869     31867     31866     31868
     31868     31866     31869     31870     31866     31869     31870     31866     31868
     31870     31866     31867     31872     31876     31877     31873     31872     31875
     31873     31872     31874     31874     31872     31875     31876     31872     31875
     31876     31872     31874     31876     31872     31873     31878     31882     31883
     31879     31878     31881     31879     31878     31880     31880     31878     31881
     31882     31878     31881     31882     31878     31880     31882     31878     31879
     31884     31888     31889     31885     31884     31887     31885     31884     31886
     31886     31884     31887     31888     31884     31887     31888     31884     31886
     31888     31884     31885     31890     31894     31895     31891     31890     31893
     31891     31890     31892     31892     31890     31893     31894     31890     31893
     31894     31890     31892     31894     31890     31891     31896     31900     31901
     31897     31896     31899     31897     31896     31898     31898     31896     31899
     31900     31896     31899     31900     31896     31898     31900     31896     31897
     31902     31906     31907     31903     31902     31905     31903     31902     31904
     31904     31902     31905     31906     31902     31905     31906     31902     31904
     31906     31902     31903     31908     31912     31913     31909     31908     31911
     31909     31908     31910     31910     31908     31911     31912     31908     31911
     31912     31908     31910     31912     31908     31909     31914     31918     31919
     31915     31914     31917     31915     31914     31916     31916     31914     31917
     31918     31914     31917     31918     31914     31916     31918     31914     31915
     31920     31924     31925     31921     31920     31923     31921     31920     31922
     31922     31920     31923     31924     31920     31923     31924     31920     31922
     31924     31920     31921     31926     31930     31931     31927     31926     31929
     31927     31926     31928     31928     31926     31929     31930     31926     31929
     31930     31926     31928     31930     31926     31927     31932     31936     31937
     31933     31932     31935     31933     31932     31934     31934     31932     31935
     31936     31932     31935     31936     31932     31934     31936     31932     31933
     31938     31942     31943     31939     31938     31941     31939     31938     31940
     31940     31938     31941     31942     31938     31941     31942     31938     31940
     31942     31938     31939     31944     31948     31949     31945     31944     31947
     31945     31944     31946     31946     31944     31947     31948     31944     31947
     31948     31944     31946     31948     31944     31945     31950     31954     31955
     31951     31950     31953     31951     31950     31952     31952     31950     31953
     31954     31950     31953     31954     31950     31952     31954     31950     31951
     31956     31960     31961     31957     31956     31959     31957     31956     31958
     31958     31956     31959     31960     31956     31959     31960     31956     31958
     31960     31956     31957     31962     31966     31967     31963     31962     31965
     31963     31962     31964     31964     31962     31965     31966     31962     31965
     31966     31962     31964     31966     31962     31963     31968     31972     31973
     31969     31968     31971     31969     31968     31970     31970     31968     31971
     31972     31968     31971     31972     31968     31970     31972     31968     31969
     31974     31978     31979     31975     31974     31977     31975     31974     31976
     31976     31974     31977     31978     31974     31977     31978     31974     31976
     31978     31974     31975     31980     31984     31985     31981     31980     31983
     31981     31980     31982     31982     31980     31983     31984     31980     31983
     31984     31980     31982     31984     31980     31981     31986     31990     31991
     31987     31986     31989     31987     31986     31988     31988     31986     31989
     31990     31986     31989     31990     31986     31988     31990     31986     31987
     31992     31996     31997     31993     31992     31995     31993     31992     31994
     31994     31992     31995     31996     31992     31995     31996     31992     31994
     31996     31992     31993     31998     32002     32003     31999     31998     32001
     31999     31998     32000     32000     31998     32001     32002     31998     32001
     32002     31998     32000     32002     31998     31999     32004     32008     32009
     32005     32004     32007     32005     32004     32006     32006     32004     32007
     32008     32004     32007     32008     32004     32006     32008     32004     32005
     32010     32014     32015     32011     32010     32013     32011     32010     32012
     32012     32010     32013     32014     32010     32013     32014     32010     32012
     32014     32010     32011     32016     32020     32021     32017     32016     32019
     32017     32016     32018     32018     32016     32019     32020     32016     32019
     32020     32016     32018     32020     32016     32017     32022     32026     32027
     32023     32022     32025     32023     32022     32024     32024     32022     32025
     32026     32022     32025     32026     32022     32024     32026     32022     32023
     32028     32032     32033     32029     32028     32031     32029     32028     32030
     32030     32028     32031     32032     32028     32031     32032     32028     32030
     32032     32028     32029     32034     32038     32039     32035     32034     32037
     32035     32034     32036     32036     32034     32037     32038     32034     32037
     32038     32034     32036     32038     32034     32035     32040     32044     32045
     32041     32040     32043     32041     32040     32042     32042     32040     32043
     32044     32040     32043     32044     32040     32042     32044     32040     32041
     32046     32050     32051     32047     32046     32049     32047     32046     32048
     32048     32046     32049     32050     32046     32049     32050     32046     32048
     32050     32046     32047     32052     32056     32057     32053     32052     32055
     32053     32052     32054     32054     32052     32055     32056     32052     32055
     32056     32052     32054     32056     32052     32053     32058     32062     32063
     32059     32058     32061     32059     32058     32060     32060     32058     32061
     32062     32058     32061     32062     32058     32060     32062     32058     32059
     32064     32068     32069     32065     32064     32067     32065     32064     32066
     32066     32064     32067     32068     32064     32067     32068     32064     32066
     32068     32064     32065     32070     32074     32075     32071     32070     32073
     32071     32070     32072     32072     32070     32073     32074     32070     32073
     32074     32070     32072     32074     32070     32071     32076     32080     32081
     32077     32076     32079     32077     32076     32078     32078     32076     32079
     32080     32076     32079     32080     32076     32078     32080     32076     32077
     32082     32086     32087     32083     32082     32085     32083     32082     32084
     32084     32082     32085     32086     32082     32085     32086     32082     32084
     32086     32082     32083     32088     32092     32093     32089     32088     32091
     32089     32088     32090     32090     32088     32091     32092     32088     32091
     32092     32088     32090     32092     32088     32089     32094     32098     32099
     32095     32094     32097     32095     32094     32096     32096     32094     32097
     32098     32094     32097     32098     32094     32096     32098     32094     32095
     32100     32104     32105     32101     32100     32103     32101     32100     32102
     32102     32100     32103     32104     32100     32103     32104     32100     32102
     32104     32100     32101     32106     32110     32111     32107     32106     32109
     32107     32106     32108     32108     32106     32109     32110     32106     32109
     32110     32106     32108     32110     32106     32107     32112     32116     32117
     32113     32112     32115     32113     32112     32114     32114     32112     32115
     32116     32112     32115     32116     32112     32114     32116     32112     32113
     32118     32122     32123     32119     32118     32121     32119     32118     32120
     32120     32118     32121     32122     32118     32121     32122     32118     32120
     32122     32118     32119     32124     32128     32129     32125     32124     32127
     32125     32124     32126     32126     32124     32127     32128     32124     32127
     32128     32124     32126     32128     32124     32125     32130     32134     32135
     32131     32130     32133     32131     32130     32132     32132     32130     32133
     32134     32130     32133     32134     32130     32132     32134     32130     32131
     32136     32140     32141     32137     32136     32139     32137     32136     32138
     32138     32136     32139     32140     32136     32139     32140     32136     32138
     32140     32136     32137     32142     32146     32147     32143     32142     32145
     32143     32142     32144     32144     32142     32145     32146     32142     32145
     32146     32142     32144     32146     32142     32143     32148     32152     32153
     32149     32148     32151     32149     32148     32150     32150     32148     32151
     32152     32148     32151     32152     32148     32150     32152     32148     32149
     32154     32158     32159     32155     32154     32157     32155     32154     32156
     32156     32154     32157     32158     32154     32157     32158     32154     32156
     32158     32154     32155     32160     32164     32165     32161     32160     32163
     32161     32160     32162     32162     32160     32163     32164     32160     32163
     32164     32160     32162     32164     32160     32161     32166     32170     32171
     32167     32166     32169     32167     32166     32168     32168     32166     32169
     32170     32166     32169     32170     32166     32168     32170     32166     32167
     32172     32176     32177     32173     32172     32175     32173     32172     32174
     32174     32172     32175     32176     32172     32175     32176     32172     32174
     32176     32172     32173     32178     32182     32183     32179     32178     32181
     32179     32178     32180     32180     32178     32181     32182     32178     32181
     32182     32178     32180     32182     32178     32179     32184     32188     32189
     32185     32184     32187     32185     32184     32186     32186     32184     32187
     32188     32184     32187     32188     32184     32186     32188     32184     32185
     32190     32194     32195     32191     32190     32193     32191     32190     32192
     32192     32190     32193     32194     32190     32193     32194     32190     32192
     32194     32190     32191     32196     32200     32201     32197     32196     32199
     32197     32196     32198     32198     32196     32199     32200     32196     32199
     32200     32196     32198     32200     32196     32197     32202     32206     32207
     32203     32202     32205     32203     32202     32204     32204     32202     32205
     32206     32202     32205     32206     32202     32204     32206     32202     32203
     32208     32212     32213     32209     32208     32211     32209     32208     32210
     32210     32208     32211     32212     32208     32211     32212     32208     32210
     32212     32208     32209     32214     32218     32219     32215     32214     32217
     32215     32214     32216     32216     32214     32217     32218     32214     32217
     32218     32214     32216     32218     32214     32215     32220     32224     32225
     32221     32220     32223     32221     32220     32222     32222     32220     32223
     32224     32220     32223     32224     32220     32222     32224     32220     32221
     32226     32230     32231     32227     32226     32229     32227     32226     32228
     32228     32226     32229     32230     32226     32229     32230     32226     32228
     32230     32226     32227     32232     32236     32237     32233     32232     32235
     32233     32232     32234     32234     32232     32235     32236     32232     32235
     32236     32232     32234     32236     32232     32233     32238     32242     32243
     32239     32238     32241     32239     32238     32240     32240     32238     32241
     32242     32238     32241     32242     32238     32240     32242     32238     32239
     32244     32248     32249     32245     32244     32247     32245     32244     32246
     32246     32244     32247     32248     32244     32247     32248     32244     32246
     32248     32244     32245     32250     32254     32255     32251     32250     32253
     32251     32250     32252     32252     32250     32253     32254     32250     32253
     32254     32250     32252     32254     32250     32251     32256     32260     32261
     32257     32256     32259     32257     32256     32258     32258     32256     32259
     32260     32256     32259     32260     32256     32258     32260     32256     32257
     32262     32266     32267     32263     32262     32265     32263     32262     32264
     32264     32262     32265     32266     32262     32265     32266     32262     32264
     32266     32262     32263     32268     32272     32273     32269     32268     32271
     32269     32268     32270     32270     32268     32271     32272     32268     32271
     32272     32268     32270     32272     32268     32269     32274     32278     32279
     32275     32274     32277     32275     32274     32276     32276     32274     32277
     32278     32274     32277     32278     32274     32276     32278     32274     32275
     32280     32284     32285     32281     32280     32283     32281     32280     32282
     32282     32280     32283     32284     32280     32283     32284     32280     32282
     32284     32280     32281     32286     32290     32291     32287     32286     32289
     32287     32286     32288     32288     32286     32289     32290     32286     32289
     32290     32286     32288     32290     32286     32287     32292     32296     32297
     32293     32292     32295     32293     32292     32294     32294     32292     32295
     32296     32292     32295     32296     32292     32294     32296     32292     32293
     32298     32302     32303     32299     32298     32301     32299     32298     32300
     32300     32298     32301     32302     32298     32301     32302     32298     32300
     32302     32298     32299     32304     32308     32309     32305     32304     32307
     32305     32304     32306     32306     32304     32307     32308     32304     32307
     32308     32304     32306     32308     32304     32305     32310     32314     32315
     32311     32310     32313     32311     32310     32312     32312     32310     32313
     32314     32310     32313     32314     32310     32312     32314     32310     32311
     32316     32320     32321     32317     32316     32319     32317     32316     32318
     32318     32316     32319     32320     32316     32319     32320     32316     32318
     32320     32316     32317     32322     32326     32327     32323     32322     32325
     32323     32322     32324     32324     32322     32325     32326     32322     32325
     32326     32322     32324     32326     32322     32323     32328     32332     32333
     32329     32328     32331     32329     32328     32330     32330     32328     32331
     32332     32328     32331     32332     32328     32330     32332     32328     32329
     32334     32338     32339     32335     32334     32337     32335     32334     32336
     32336     32334     32337     32338     32334     32337     32338     32334     32336
     32338     32334     32335     32340     32344     32345     32341     32340     32343
     32341     32340     32342     32342     32340     32343     32344     32340     32343
     32344     32340     32342     32344     32340     32341     32346     32350     32351
     32347     32346     32349     32347     32346     32348     32348     32346     32349
     32350     32346     32349     32350     32346     32348     32350     32346     32347
     32352     32356     32357     32353     32352     32355     32353     32352     32354
     32354     32352     32355     32356     32352     32355     32356     32352     32354
     32356     32352     32353     32358     32362     32363     32359     32358     32361
     32359     32358     32360     32360     32358     32361     32362     32358     32361
     32362     32358     32360     32362     32358     32359     32364     32368     32369
     32365     32364     32367     32365     32364     32366     32366     32364     32367
     32368     32364     32367     32368     32364     32366     32368     32364     32365
     32370     32374     32375     32371     32370     32373     32371     32370     32372
     32372     32370     32373     32374     32370     32373     32374     32370     32372
     32374     32370     32371     32376     32380     32381     32377     32376     32379
     32377     32376     32378     32378     32376     32379     32380     32376     32379
     32380     32376     32378     32380     32376     32377     32382     32386     32387
     32383     32382     32385     32383     32382     32384     32384     32382     32385
     32386     32382     32385     32386     32382     32384     32386     32382     32383
     32388     32392     32393     32389     32388     32391     32389     32388     32390
     32390     32388     32391     32392     32388     32391     32392     32388     32390
     32392     32388     32389     32394     32398     32399     32395     32394     32397
     32395     32394     32396     32396     32394     32397     32398     32394     32397
     32398     32394     32396     32398     32394     32395     32400     32404     32405
     32401     32400     32403     32401     32400     32402     32402     32400     32403
     32404     32400     32403     32404     32400     32402     32404     32400     32401
     32406     32410     32411     32407     32406     32409     32407     32406     32408
     32408     32406     32409     32410     32406     32409     32410     32406     32408
     32410     32406     32407     32412     32416     32417     32413     32412     32415
     32413     32412     32414     32414     32412     32415     32416     32412     32415
     32416     32412     32414     32416     32412     32413     32418     32422     32423
     32419     32418     32421     32419     32418     32420     32420     32418     32421
     32422     32418     32421     32422     32418     32420     32422     32418     32419
     32424     32428     32429     32425     32424     32427     32425     32424     32426
     32426     32424     32427     32428     32424     32427     32428     32424     32426
     32428     32424     32425     32430     32434     32435     32431     32430     32433
     32431     32430     32432     32432     32430     32433     32434     32430     32433
     32434     32430     32432     32434     32430     32431     32436     32440     32441
     32437     32436     32439     32437     32436     32438     32438     32436     32439
     32440     32436     32439     32440     32436     32438     32440     32436     32437
     32442     32446     32447     32443     32442     32445     32443     32442     32444
     32444     32442     32445     32446     32442     32445     32446     32442     32444
     32446     32442     32443     32448     32452     32453     32449     32448     32451
     32449     32448     32450     32450     32448     32451     32452     32448     32451
     32452     32448     32450     32452     32448     32449     32454     32458     32459
     32455     32454     32457     32455     32454     32456     32456     32454     32457
     32458     32454     32457     32458     32454     32456     32458     32454     32455
     32460     32464     32465     32461     32460     32463     32461     32460     32462
     32462     32460     32463     32464     32460     32463     32464     32460     32462
     32464     32460     32461     32466     32470     32471     32467     32466     32469
     32467     32466     32468     32468     32466     32469     32470     32466     32469
     32470     32466     32468     32470     32466     32467     32472     32476     32477
     32473     32472     32475     32473     32472     32474     32474     32472     32475
     32476     32472     32475     32476     32472     32474     32476     32472     32473
     32478     32482     32483     32479     32478     32481     32479     32478     32480
     32480     32478     32481     32482     32478     32481     32482     32478     32480
     32482     32478     32479     32484     32488     32489     32485     32484     32487
     32485     32484     32486     32486     32484     32487     32488     32484     32487
     32488     32484     32486     32488     32484     32485     32490     32494     32495
     32491     32490     32493     32491     32490     32492     32492     32490     32493
     32494     32490     32493     32494     32490     32492     32494     32490     32491
     32496     32500     32501     32497     32496     32499     32497     32496     32498
     32498     32496     32499     32500     32496     32499     32500     32496     32498
     32500     32496     32497     32502     32506     32507     32503     32502     32505
     32503     32502     32504     32504     32502     32505     32506     32502     32505
     32506     32502     32504     32506     32502     32503     32508     32512     32513
     32509     32508     32511     32509     32508     32510     32510     32508     32511
     32512     32508     32511     32512     32508     32510     32512     32508     32509
     32514     32518     32519     32515     32514     32517     32515     32514     32516
     32516     32514     32517     32518     32514     32517     32518     32514     32516
     32518     32514     32515     32520     32524     32525     32521     32520     32523
     32521     32520     32522     32522     32520     32523     32524     32520     32523
     32524     32520     32522     32524     32520     32521     32526     32530     32531
     32527     32526     32529     32527     32526     32528     32528     32526     32529
     32530     32526     32529     32530     32526     32528     32530     32526     32527
     32532     32536     32537     32533     32532     32535     32533     32532     32534
     32534     32532     32535     32536     32532     32535     32536     32532     32534
     32536     32532     32533     32538     32542     32543     32539     32538     32541
     32539     32538     32540     32540     32538     32541     32542     32538     32541
     32542     32538     32540     32542     32538     32539     32544     32548     32549
     32545     32544     32547     32545     32544     32546     32546     32544     32547
     32548     32544     32547     32548     32544     32546     32548     32544     32545
     32550     32554     32555     32551     32550     32553     32551     32550     32552
     32552     32550     32553     32554     32550     32553     32554     32550     32552
     32554     32550     32551     32556     32560     32561     32557     32556     32559
     32557     32556     32558     32558     32556     32559     32560     32556     32559
     32560     32556     32558     32560     32556     32557     32562     32566     32567
     32563     32562     32565     32563     32562     32564     32564     32562     32565
     32566     32562     32565     32566     32562     32564     32566     32562     32563
     32568     32572     32573     32569     32568     32571     32569     32568     32570
     32570     32568     32571     32572     32568     32571     32572     32568     32570
     32572     32568     32569     32574     32578     32579     32575     32574     32577
     32575     32574     32576     32576     32574     32577     32578     32574     32577
     32578     32574     32576     32578     32574     32575     32580     32584     32585
     32581     32580     32583     32581     32580     32582     32582     32580     32583
     32584     32580     32583     32584     32580     32582     32584     32580     32581
     32586     32590     32591     32587     32586     32589     32587     32586     32588
     32588     32586     32589     32590     32586     32589     32590     32586     32588
     32590     32586     32587     32592     32596     32597     32593     32592     32595
     32593     32592     32594     32594     32592     32595     32596     32592     32595
     32596     32592     32594     32596     32592     32593     32598     32602     32603
     32599     32598     32601     32599     32598     32600     32600     32598     32601
     32602     32598     32601     32602     32598     32600     32602     32598     32599
     32604     32608     32609     32605     32604     32607     32605     32604     32606
     32606     32604     32607     32608     32604     32607     32608     32604     32606
     32608     32604     32605     32610     32614     32615     32611     32610     32613
     32611     32610     32612     32612     32610     32613     32614     32610     32613
     32614     32610     32612     32614     32610     32611     32616     32620     32621
     32617     32616     32619     32617     32616     32618     32618     32616     32619
     32620     32616     32619     32620     32616     32618     32620     32616     32617
     32622     32626     32627     32623     32622     32625     32623     32622     32624
     32624     32622     32625     32626     32622     32625     32626     32622     32624
     32626     32622     32623     32628     32632     32633     32629     32628     32631
     32629     32628     32630     32630     32628     32631     32632     32628     32631
     32632     32628     32630     32632     32628     32629     32634     32638     32639
     32635     32634     32637     32635     32634     32636     32636     32634     32637
     32638     32634     32637     32638     32634     32636     32638     32634     32635
     32640     32644     32645     32641     32640     32643     32641     32640     32642
     32642     32640     32643     32644     32640     32643     32644     32640     32642
     32644     32640     32641     32646     32650     32651     32647     32646     32649
     32647     32646     32648     32648     32646     32649     32650     32646     32649
     32650     32646     32648     32650     32646     32647     32652     32656     32657
     32653     32652     32655     32653     32652     32654     32654     32652     32655
     32656     32652     32655     32656     32652     32654     32656     32652     32653
     32658     32662     32663     32659     32658     32661     32659     32658     32660
     32660     32658     32661     32662     32658     32661     32662     32658     32660
     32662     32658     32659     32664     32668     32669     32665     32664     32667
     32665     32664     32666     32666     32664     32667     32668     32664     32667
     32668     32664     32666     32668     32664     32665     32670     32674     32675
     32671     32670     32673     32671     32670     32672     32672     32670     32673
     32674     32670     32673     32674     32670     32672     32674     32670     32671
     32676     32680     32681     32677     32676     32679     32677     32676     32678
     32678     32676     32679     32680     32676     32679     32680     32676     32678
     32680     32676     32677     32682     32686     32687     32683     32682     32685
     32683     32682     32684     32684     32682     32685     32686     32682     32685
     32686     32682     32684     32686     32682     32683     32688     32692     32693
     32689     32688     32691     32689     32688     32690     32690     32688     32691
     32692     32688     32691     32692     32688     32690     32692     32688     32689
     32694     32698     32699     32695     32694     32697     32695     32694     32696
     32696     32694     32697     32698     32694     32697     32698     32694     32696
     32698     32694     32695     32700     32704     32705     32701     32700     32703
     32701     32700     32702     32702     32700     32703     32704     32700     32703
     32704     32700     32702     32704     32700     32701     32706     32710     32711
     32707     32706     32709     32707     32706     32708     32708     32706     32709
     32710     32706     32709     32710     32706     32708     32710     32706     32707
     32712     32716     32717     32713     32712     32715     32713     32712     32714
     32714     32712     32715     32716     32712     32715     32716     32712     32714
     32716     32712     32713     32718     32722     32723     32719     32718     32721
     32719     32718     32720     32720     32718     32721     32722     32718     32721
     32722     32718     32720     32722     32718     32719     32724     32728     32729
     32725     32724     32727     32725     32724     32726     32726     32724     32727
     32728     32724     32727     32728     32724     32726     32728     32724     32725
     32730     32734     32735     32731     32730     32733     32731     32730     32732
     32732     32730     32733     32734     32730     32733     32734     32730     32732
     32734     32730     32731     32736     32740     32741     32737     32736     32739
     32737     32736     32738     32738     32736     32739     32740     32736     32739
     32740     32736     32738     32740     32736     32737     32742     32746     32747
     32743     32742     32745     32743     32742     32744     32744     32742     32745
     32746     32742     32745     32746     32742     32744     32746     32742     32743
     32748     32752     32753     32749     32748     32751     32749     32748     32750
     32750     32748     32751     32752     32748     32751     32752     32748     32750
     32752     32748     32749     32754     32758     32759     32755     32754     32757
     32755     32754     32756     32756     32754     32757     32758     32754     32757
     32758     32754     32756     32758     32754     32755     32760     32764     32765
     32761     32760     32763     32761     32760     32762     32762     32760     32763
     32764     32760     32763     32764     32760     32762     32764     32760     32761
     32766     32770     32771     32767     32766     32769     32767     32766     32768
     32768     32766     32769     32770     32766     32769     32770     32766     32768
     32770     32766     32767     32772     32776     32777     32773     32772     32775
     32773     32772     32774     32774     32772     32775     32776     32772     32775
     32776     32772     32774     32776     32772     32773     32778     32782     32783
     32779     32778     32781     32779     32778     32780     32780     32778     32781
     32782     32778     32781     32782     32778     32780     32782     32778     32779
     32784     32788     32789     32785     32784     32787     32785     32784     32786
     32786     32784     32787     32788     32784     32787     32788     32784     32786
     32788     32784     32785     32790     32794     32795     32791     32790     32793
     32791     32790     32792     32792     32790     32793     32794     32790     32793
     32794     32790     32792     32794     32790     32791     32796     32800     32801
     32797     32796     32799     32797     32796     32798     32798     32796     32799
     32800     32796     32799     32800     32796     32798     32800     32796     32797
     32802     32806     32807     32803     32802     32805     32803     32802     32804
     32804     32802     32805     32806     32802     32805     32806     32802     32804
     32806     32802     32803     32808     32812     32813     32809     32808     32811
     32809     32808     32810     32810     32808     32811     32812     32808     32811
     32812     32808     32810     32812     32808     32809     32814     32818     32819
     32815     32814     32817     32815     32814     32816     32816     32814     32817
     32818     32814     32817     32818     32814     32816     32818     32814     32815
     32820     32824     32825     32821     32820     32823     32821     32820     32822
     32822     32820     32823     32824     32820     32823     32824     32820     32822
     32824     32820     32821     32826     32830     32831     32827     32826     32829
     32827     32826     32828     32828     32826     32829     32830     32826     32829
     32830     32826     32828     32830     32826     32827     32832     32836     32837
     32833     32832     32835     32833     32832     32834     32834     32832     32835
     32836     32832     32835     32836     32832     32834     32836     32832     32833
     32838     32842     32843     32839     32838     32841     32839     32838     32840
     32840     32838     32841     32842     32838     32841     32842     32838     32840
     32842     32838     32839     32844     32848     32849     32845     32844     32847
     32845     32844     32846     32846     32844     32847     32848     32844     32847
     32848     32844     32846     32848     32844     32845     32850     32854     32855
     32851     32850     32853     32851     32850     32852     32852     32850     32853
     32854     32850     32853     32854     32850     32852     32854     32850     32851
     32856     32860     32861     32857     32856     32859     32857     32856     32858
     32858     32856     32859     32860     32856     32859     32860     32856     32858
     32860     32856     32857     32862     32866     32867     32863     32862     32865
     32863     32862     32864     32864     32862     32865     32866     32862     32865
     32866     32862     32864     32866     32862     32863     32868     32872     32873
     32869     32868     32871     32869     32868     32870     32870     32868     32871
     32872     32868     32871     32872     32868     32870     32872     32868     32869
     32874     32878     32879     32875     32874     32877     32875     32874     32876
     32876     32874     32877     32878     32874     32877     32878     32874     32876
     32878     32874     32875     32880     32884     32885     32881     32880     32883
     32881     32880     32882     32882     32880     32883     32884     32880     32883
     32884     32880     32882     32884     32880     32881     32886     32890     32891
     32887     32886     32889     32887     32886     32888     32888     32886     32889
     32890     32886     32889     32890     32886     32888     32890     32886     32887
     32892     32896     32897     32893     32892     32895     32893     32892     32894
     32894     32892     32895     32896     32892     32895     32896     32892     32894
     32896     32892     32893     32898     32902     32903     32899     32898     32901
     32899     32898     32900     32900     32898     32901     32902     32898     32901
     32902     32898     32900     32902     32898     32899     32904     32908     32909
     32905     32904     32907     32905     32904     32906     32906     32904     32907
     32908     32904     32907     32908     32904     32906     32908     32904     32905
     32910     32914     32915     32911     32910     32913     32911     32910     32912
     32912     32910     32913     32914     32910     32913     32914     32910     32912
     32914     32910     32911     32916     32920     32921     32917     32916     32919
     32917     32916     32918     32918     32916     32919     32920     32916     32919
     32920     32916     32918     32920     32916     32917     32922     32926     32927
     32923     32922     32925     32923     32922     32924     32924     32922     32925
     32926     32922     32925     32926     32922     32924     32926     32922     32923
     32928     32932     32933     32929     32928     32931     32929     32928     32930
     32930     32928     32931     32932     32928     32931     32932     32928     32930
     32932     32928     32929     32934     32938     32939     32935     32934     32937
     32935     32934     32936     32936     32934     32937     32938     32934     32937
     32938     32934     32936     32938     32934     32935     32940     32944     32945
     32941     32940     32943     32941     32940     32942     32942     32940     32943
     32944     32940     32943     32944     32940     32942     32944     32940     32941
     32946     32950     32951     32947     32946     32949     32947     32946     32948
     32948     32946     32949     32950     32946     32949     32950     32946     32948
     32950     32946     32947     32952     32956     32957     32953     32952     32955
     32953     32952     32954     32954     32952     32955     32956     32952     32955
     32956     32952     32954     32956     32952     32953     32958     32962     32963
     32959     32958     32961     32959     32958     32960     32960     32958     32961
     32962     32958     32961     32962     32958     32960     32962     32958     32959
     32964     32968     32969     32965     32964     32967     32965     32964     32966
     32966     32964     32967     32968     32964     32967     32968     32964     32966
     32968     32964     32965     32970     32974     32975     32971     32970     32973
     32971     32970     32972     32972     32970     32973     32974     32970     32973
     32974     32970     32972     32974     32970     32971     32976     32980     32981
     32977     32976     32979     32977     32976     32978     32978     32976     32979
     32980     32976     32979     32980     32976     32978     32980     32976     32977
     32982     32986     32987     32983     32982     32985     32983     32982     32984
     32984     32982     32985     32986     32982     32985     32986     32982     32984
     32986     32982     32983     32988     32992     32993     32989     32988     32991
     32989     32988     32990     32990     32988     32991     32992     32988     32991
     32992     32988     32990     32992     32988     32989     32994     32998     32999
     32995     32994     32997     32995     32994     32996     32996     32994     32997
     32998     32994     32997     32998     32994     32996     32998     32994     32995
     33000     33004     33005     33001     33000     33003     33001     33000     33002
     33002     33000     33003     33004     33000     33003     33004     33000     33002
     33004     33000     33001     33006     33010     33011     33007     33006     33009
     33007     33006     33008     33008     33006     33009     33010     33006     33009
     33010     33006     33008     33010     33006     33007     33012     33016     33017
     33013     33012     33015     33013     33012     33014     33014     33012     33015
     33016     33012     33015     33016     33012     33014     33016     33012     33013
     33018     33022     33023     33019     33018     33021     33019     33018     33020
     33020     33018     33021     33022     33018     33021     33022     33018     33020
     33022     33018     33019     33024     33028     33029     33025     33024     33027
     33025     33024     33026     33026     33024     33027     33028     33024     33027
     33028     33024     33026     33028     33024     33025     33030     33034     33035
     33031     33030     33033     33031     33030     33032     33032     33030     33033
     33034     33030     33033     33034     33030     33032     33034     33030     33031
     33036     33040     33041     33037     33036     33039     33037     33036     33038
     33038     33036     33039     33040     33036     33039     33040     33036     33038
     33040     33036     33037     33042     33046     33047     33043     33042     33045
     33043     33042     33044     33044     33042     33045     33046     33042     33045
     33046     33042     33044     33046     33042     33043     33048     33052     33053
     33049     33048     33051     33049     33048     33050     33050     33048     33051
     33052     33048     33051     33052     33048     33050     33052     33048     33049
     33054     33058     33059     33055     33054     33057     33055     33054     33056
     33056     33054     33057     33058     33054     33057     33058     33054     33056
     33058     33054     33055     33060     33064     33065     33061     33060     33063
     33061     33060     33062     33062     33060     33063     33064     33060     33063
     33064     33060     33062     33064     33060     33061     33066     33070     33071
     33067     33066     33069     33067     33066     33068     33068     33066     33069
     33070     33066     33069     33070     33066     33068     33070     33066     33067
     33072     33076     33077     33073     33072     33075     33073     33072     33074
     33074     33072     33075     33076     33072     33075     33076     33072     33074
     33076     33072     33073     33078     33082     33083     33079     33078     33081
     33079     33078     33080     33080     33078     33081     33082     33078     33081
     33082     33078     33080     33082     33078     33079     33084     33088     33089
     33085     33084     33087     33085     33084     33086     33086     33084     33087
     33088     33084     33087     33088     33084     33086     33088     33084     33085
     33090     33094     33095     33091     33090     33093     33091     33090     33092
     33092     33090     33093     33094     33090     33093     33094     33090     33092
     33094     33090     33091     33096     33100     33101     33097     33096     33099
     33097     33096     33098     33098     33096     33099     33100     33096     33099
     33100     33096     33098     33100     33096     33097     33102     33106     33107
     33103     33102     33105     33103     33102     33104     33104     33102     33105
     33106     33102     33105     33106     33102     33104     33106     33102     33103
     33108     33112     33113     33109     33108     33111     33109     33108     33110
     33110     33108     33111     33112     33108     33111     33112     33108     33110
     33112     33108     33109     33114     33118     33119     33115     33114     33117
     33115     33114     33116     33116     33114     33117     33118     33114     33117
     33118     33114     33116     33118     33114     33115     33120     33124     33125
     33121     33120     33123     33121     33120     33122     33122     33120     33123
     33124     33120     33123     33124     33120     33122     33124     33120     33121
     33126     33130     33131     33127     33126     33129     33127     33126     33128
     33128     33126     33129     33130     33126     33129     33130     33126     33128
     33130     33126     33127     33132     33136     33137     33133     33132     33135
     33133     33132     33134     33134     33132     33135     33136     33132     33135
     33136     33132     33134     33136     33132     33133     33138     33142     33143
     33139     33138     33141     33139     33138     33140     33140     33138     33141
     33142     33138     33141     33142     33138     33140     33142     33138     33139
     33144     33148     33149     33145     33144     33147     33145     33144     33146
     33146     33144     33147     33148     33144     33147     33148     33144     33146
     33148     33144     33145     33150     33154     33155     33151     33150     33153
     33151     33150     33152     33152     33150     33153     33154     33150     33153
     33154     33150     33152     33154     33150     33151     33156     33160     33161
     33157     33156     33159     33157     33156     33158     33158     33156     33159
     33160     33156     33159     33160     33156     33158     33160     33156     33157
     33162     33166     33167     33163     33162     33165     33163     33162     33164
     33164     33162     33165     33166     33162     33165     33166     33162     33164
     33166     33162     33163     33168     33172     33173     33169     33168     33171
     33169     33168     33170     33170     33168     33171     33172     33168     33171
     33172     33168     33170     33172     33168     33169     33174     33178     33179
     33175     33174     33177     33175     33174     33176     33176     33174     33177
     33178     33174     33177     33178     33174     33176     33178     33174     33175
     33180     33184     33185     33181     33180     33183     33181     33180     33182
     33182     33180     33183     33184     33180     33183     33184     33180     33182
     33184     33180     33181     33186     33190     33191     33187     33186     33189
     33187     33186     33188     33188     33186     33189     33190     33186     33189
     33190     33186     33188     33190     33186     33187     33192     33196     33197
     33193     33192     33195     33193     33192     33194     33194     33192     33195
     33196     33192     33195     33196     33192     33194     33196     33192     33193
     33198     33202     33203     33199     33198     33201     33199     33198     33200
     33200     33198     33201     33202     33198     33201     33202     33198     33200
     33202     33198     33199     33204     33208     33209     33205     33204     33207
     33205     33204     33206     33206     33204     33207     33208     33204     33207
     33208     33204     33206     33208     33204     33205     33210     33214     33215
     33211     33210     33213     33211     33210     33212     33212     33210     33213
     33214     33210     33213     33214     33210     33212     33214     33210     33211
     33216     33220     33221     33217     33216     33219     33217     33216     33218
     33218     33216     33219     33220     33216     33219     33220     33216     33218
     33220     33216     33217     33222     33226     33227     33223     33222     33225
     33223     33222     33224     33224     33222     33225     33226     33222     33225
     33226     33222     33224     33226     33222     33223     33228     33232     33233
     33229     33228     33231     33229     33228     33230     33230     33228     33231
     33232     33228     33231     33232     33228     33230     33232     33228     33229
     33234     33238     33239     33235     33234     33237     33235     33234     33236
     33236     33234     33237     33238     33234     33237     33238     33234     33236
     33238     33234     33235     33240     33244     33245     33241     33240     33243
     33241     33240     33242     33242     33240     33243     33244     33240     33243
     33244     33240     33242     33244     33240     33241     33246     33250     33251
     33247     33246     33249     33247     33246     33248     33248     33246     33249
     33250     33246     33249     33250     33246     33248     33250     33246     33247
     33252     33256     33257     33253     33252     33255     33253     33252     33254
     33254     33252     33255     33256     33252     33255     33256     33252     33254
     33256     33252     33253     33258     33262     33263     33259     33258     33261
     33259     33258     33260     33260     33258     33261     33262     33258     33261
     33262     33258     33260     33262     33258     33259     33264     33268     33269
     33265     33264     33267     33265     33264     33266     33266     33264     33267
     33268     33264     33267     33268     33264     33266     33268     33264     33265
     33270     33274     33275     33271     33270     33273     33271     33270     33272
     33272     33270     33273     33274     33270     33273     33274     33270     33272
     33274     33270     33271     33276     33280     33281     33277     33276     33279
     33277     33276     33278     33278     33276     33279     33280     33276     33279
     33280     33276     33278     33280     33276     33277     33282     33286     33287
     33283     33282     33285     33283     33282     33284     33284     33282     33285
     33286     33282     33285     33286     33282     33284     33286     33282     33283
     33288     33292     33293     33289     33288     33291     33289     33288     33290
     33290     33288     33291     33292     33288     33291     33292     33288     33290
     33292     33288     33289     33294     33298     33299     33295     33294     33297
     33295     33294     33296     33296     33294     33297     33298     33294     33297
     33298     33294     33296     33298     33294     33295     33300     33304     33305
     33301     33300     33303     33301     33300     33302     33302     33300     33303
     33304     33300     33303     33304     33300     33302     33304     33300     33301
     33306     33310     33311     33307     33306     33309     33307     33306     33308
     33308     33306     33309     33310     33306     33309     33310     33306     33308
     33310     33306     33307     33312     33316     33317     33313     33312     33315
     33313     33312     33314     33314     33312     33315     33316     33312     33315
     33316     33312     33314     33316     33312     33313     33318     33322     33323
     33319     33318     33321     33319     33318     33320     33320     33318     33321
     33322     33318     33321     33322     33318     33320     33322     33318     33319
     33324     33328     33329     33325     33324     33327     33325     33324     33326
     33326     33324     33327     33328     33324     33327     33328     33324     33326
     33328     33324     33325     33330     33334     33335     33331     33330     33333
     33331     33330     33332     33332     33330     33333     33334     33330     33333
     33334     33330     33332     33334     33330     33331     33336     33340     33341
     33337     33336     33339     33337     33336     33338     33338     33336     33339
     33340     33336     33339     33340     33336     33338     33340     33336     33337
     33342     33346     33347     33343     33342     33345     33343     33342     33344
     33344     33342     33345     33346     33342     33345     33346     33342     33344
     33346     33342     33343     33348     33352     33353     33349     33348     33351
     33349     33348     33350     33350     33348     33351     33352     33348     33351
     33352     33348     33350     33352     33348     33349     33354     33358     33359
     33355     33354     33357     33355     33354     33356     33356     33354     33357
     33358     33354     33357     33358     33354     33356     33358     33354     33355
     33360     33364     33365     33361     33360     33363     33361     33360     33362
     33362     33360     33363     33364     33360     33363     33364     33360     33362
     33364     33360     33361     33366     33370     33371     33367     33366     33369
     33367     33366     33368     33368     33366     33369     33370     33366     33369
     33370     33366     33368     33370     33366     33367     33372     33376     33377
     33373     33372     33375     33373     33372     33374     33374     33372     33375
     33376     33372     33375     33376     33372     33374     33376     33372     33373
     33378     33382     33383     33379     33378     33381     33379     33378     33380
     33380     33378     33381     33382     33378     33381     33382     33378     33380
     33382     33378     33379     33384     33388     33389     33385     33384     33387
     33385     33384     33386     33386     33384     33387     33388     33384     33387
     33388     33384     33386     33388     33384     33385     33390     33394     33395
     33391     33390     33393     33391     33390     33392     33392     33390     33393
     33394     33390     33393     33394     33390     33392     33394     33390     33391
     33396     33400     33401     33397     33396     33399     33397     33396     33398
     33398     33396     33399     33400     33396     33399     33400     33396     33398
     33400     33396     33397     33402     33406     33407     33403     33402     33405
     33403     33402     33404     33404     33402     33405     33406     33402     33405
     33406     33402     33404     33406     33402     33403     33408     33412     33413
     33409     33408     33411     33409     33408     33410     33410     33408     33411
     33412     33408     33411     33412     33408     33410     33412     33408     33409
     33414     33418     33419     33415     33414     33417     33415     33414     33416
     33416     33414     33417     33418     33414     33417     33418     33414     33416
     33418     33414     33415     33420     33424     33425     33421     33420     33423
     33421     33420     33422     33422     33420     33423     33424     33420     33423
     33424     33420     33422     33424     33420     33421     33426     33430     33431
     33427     33426     33429     33427     33426     33428     33428     33426     33429
     33430     33426     33429     33430     33426     33428     33430     33426     33427
     33432     33436     33437     33433     33432     33435     33433     33432     33434
     33434     33432     33435     33436     33432     33435     33436     33432     33434
     33436     33432     33433     33438     33442     33443     33439     33438     33441
     33439     33438     33440     33440     33438     33441     33442     33438     33441
     33442     33438     33440     33442     33438     33439     33444     33448     33449
     33445     33444     33447     33445     33444     33446     33446     33444     33447
     33448     33444     33447     33448     33444     33446     33448     33444     33445
     33450     33454     33455     33451     33450     33453     33451     33450     33452
     33452     33450     33453     33454     33450     33453     33454     33450     33452
     33454     33450     33451     33456     33460     33461     33457     33456     33459
     33457     33456     33458     33458     33456     33459     33460     33456     33459
     33460     33456     33458     33460     33456     33457     33462     33466     33467
     33463     33462     33465     33463     33462     33464     33464     33462     33465
     33466     33462     33465     33466     33462     33464     33466     33462     33463
     33468     33472     33473     33469     33468     33471     33469     33468     33470
     33470     33468     33471     33472     33468     33471     33472     33468     33470
     33472     33468     33469     33474     33478     33479     33475     33474     33477
     33475     33474     33476     33476     33474     33477     33478     33474     33477
     33478     33474     33476     33478     33474     33475     33480     33484     33485
     33481     33480     33483     33481     33480     33482     33482     33480     33483
     33484     33480     33483     33484     33480     33482     33484     33480     33481
     33486     33490     33491     33487     33486     33489     33487     33486     33488
     33488     33486     33489     33490     33486     33489     33490     33486     33488
     33490     33486     33487     33492     33496     33497     33493     33492     33495
     33493     33492     33494     33494     33492     33495     33496     33492     33495
     33496     33492     33494     33496     33492     33493     33498     33502     33503
     33499     33498     33501     33499     33498     33500     33500     33498     33501
     33502     33498     33501     33502     33498     33500     33502     33498     33499
     33504     33508     33509     33505     33504     33507     33505     33504     33506
     33506     33504     33507     33508     33504     33507     33508     33504     33506
     33508     33504     33505     33510     33514     33515     33511     33510     33513
     33511     33510     33512     33512     33510     33513     33514     33510     33513
     33514     33510     33512     33514     33510     33511     33516     33520     33521
     33517     33516     33519     33517     33516     33518     33518     33516     33519
     33520     33516     33519     33520     33516     33518     33520     33516     33517
     33522     33526     33527     33523     33522     33525     33523     33522     33524
     33524     33522     33525     33526     33522     33525     33526     33522     33524
     33526     33522     33523     33528     33532     33533     33529     33528     33531
     33529     33528     33530     33530     33528     33531     33532     33528     33531
     33532     33528     33530     33532     33528     33529     33534     33538     33539
     33535     33534     33537     33535     33534     33536     33536     33534     33537
     33538     33534     33537     33538     33534     33536     33538     33534     33535
     33540     33544     33545     33541     33540     33543     33541     33540     33542
     33542     33540     33543     33544     33540     33543     33544     33540     33542
     33544     33540     33541     33546     33550     33551     33547     33546     33549
     33547     33546     33548     33548     33546     33549     33550     33546     33549
     33550     33546     33548     33550     33546     33547     33552     33556     33557
     33553     33552     33555     33553     33552     33554     33554     33552     33555
     33556     33552     33555     33556     33552     33554     33556     33552     33553
     33558     33562     33563     33559     33558     33561     33559     33558     33560
     33560     33558     33561     33562     33558     33561     33562     33558     33560
     33562     33558     33559     33564     33568     33569     33565     33564     33567
     33565     33564     33566     33566     33564     33567     33568     33564     33567
     33568     33564     33566     33568     33564     33565     33570     33574     33575
     33571     33570     33573     33571     33570     33572     33572     33570     33573
     33574     33570     33573     33574     33570     33572     33574     33570     33571
     33576     33580     33581     33577     33576     33579     33577     33576     33578
     33578     33576     33579     33580     33576     33579     33580     33576     33578
     33580     33576     33577     33582     33586     33587     33583     33582     33585
     33583     33582     33584     33584     33582     33585     33586     33582     33585
     33586     33582     33584     33586     33582     33583     33588     33592     33593
     33589     33588     33591     33589     33588     33590     33590     33588     33591
     33592     33588     33591     33592     33588     33590     33592     33588     33589
     33594     33598     33599     33595     33594     33597     33595     33594     33596
     33596     33594     33597     33598     33594     33597     33598     33594     33596
     33598     33594     33595     33600     33604     33605     33601     33600     33603
     33601     33600     33602     33602     33600     33603     33604     33600     33603
     33604     33600     33602     33604     33600     33601     33606     33610     33611
     33607     33606     33609     33607     33606     33608     33608     33606     33609
     33610     33606     33609     33610     33606     33608     33610     33606     33607
     33612     33616     33617     33613     33612     33615     33613     33612     33614
     33614     33612     33615     33616     33612     33615     33616     33612     33614
     33616     33612     33613     33618     33622     33623     33619     33618     33621
     33619     33618     33620     33620     33618     33621     33622     33618     33621
     33622     33618     33620     33622     33618     33619     33624     33628     33629
     33625     33624     33627     33625     33624     33626     33626     33624     33627
     33628     33624     33627     33628     33624     33626     33628     33624     33625
     33630     33634     33635     33631     33630     33633     33631     33630     33632
     33632     33630     33633     33634     33630     33633     33634     33630     33632
     33634     33630     33631     33636     33640     33641     33637     33636     33639
     33637     33636     33638     33638     33636     33639     33640     33636     33639
     33640     33636     33638     33640     33636     33637     33642     33646     33647
     33643     33642     33645     33643     33642     33644     33644     33642     33645
     33646     33642     33645     33646     33642     33644     33646     33642     33643
     33648     33652     33653     33649     33648     33651     33649     33648     33650
     33650     33648     33651     33652     33648     33651     33652     33648     33650
     33652     33648     33649     33654     33658     33659     33655     33654     33657
     33655     33654     33656     33656     33654     33657     33658     33654     33657
     33658     33654     33656     33658     33654     33655     33660     33664     33665
     33661     33660     33663     33661     33660     33662     33662     33660     33663
     33664     33660     33663     33664     33660     33662     33664     33660     33661
     33666     33670     33671     33667     33666     33669     33667     33666     33668
     33668     33666     33669     33670     33666     33669     33670     33666     33668
     33670     33666     33667     33672     33676     33677     33673     33672     33675
     33673     33672     33674     33674     33672     33675     33676     33672     33675
     33676     33672     33674     33676     33672     33673     33678     33682     33683
     33679     33678     33681     33679     33678     33680     33680     33678     33681
     33682     33678     33681     33682     33678     33680     33682     33678     33679
     33684     33688     33689     33685     33684     33687     33685     33684     33686
     33686     33684     33687     33688     33684     33687     33688     33684     33686
     33688     33684     33685     33690     33694     33695     33691     33690     33693
     33691     33690     33692     33692     33690     33693     33694     33690     33693
     33694     33690     33692     33694     33690     33691     33696     33700     33701
     33697     33696     33699     33697     33696     33698     33698     33696     33699
     33700     33696     33699     33700     33696     33698     33700     33696     33697
     33702     33706     33707     33703     33702     33705     33703     33702     33704
     33704     33702     33705     33706     33702     33705     33706     33702     33704
     33706     33702     33703     33708     33712     33713     33709     33708     33711
     33709     33708     33710     33710     33708     33711     33712     33708     33711
     33712     33708     33710     33712     33708     33709     33714     33718     33719
     33715     33714     33717     33715     33714     33716     33716     33714     33717
     33718     33714     33717     33718     33714     33716     33718     33714     33715
     33720     33724     33725     33721     33720     33723     33721     33720     33722
     33722     33720     33723     33724     33720     33723     33724     33720     33722
     33724     33720     33721     33726     33730     33731     33727     33726     33729
     33727     33726     33728     33728     33726     33729     33730     33726     33729
     33730     33726     33728     33730     33726     33727     33732     33736     33737
     33733     33732     33735     33733     33732     33734     33734     33732     33735
     33736     33732     33735     33736     33732     33734     33736     33732     33733
     33738     33742     33743     33739     33738     33741     33739     33738     33740
     33740     33738     33741     33742     33738     33741     33742     33738     33740
     33742     33738     33739     33744     33748     33749     33745     33744     33747
     33745     33744     33746     33746     33744     33747     33748     33744     33747
     33748     33744     33746     33748     33744     33745     33750     33754     33755
     33751     33750     33753     33751     33750     33752     33752     33750     33753
     33754     33750     33753     33754     33750     33752     33754     33750     33751
     33756     33760     33761     33757     33756     33759     33757     33756     33758
     33758     33756     33759     33760     33756     33759     33760     33756     33758
     33760     33756     33757     33762     33766     33767     33763     33762     33765
     33763     33762     33764     33764     33762     33765     33766     33762     33765
     33766     33762     33764     33766     33762     33763     33768     33772     33773
     33769     33768     33771     33769     33768     33770     33770     33768     33771
     33772     33768     33771     33772     33768     33770     33772     33768     33769
     33774     33778     33779     33775     33774     33777     33775     33774     33776
     33776     33774     33777     33778     33774     33777     33778     33774     33776
     33778     33774     33775     33780     33784     33785     33781     33780     33783
     33781     33780     33782     33782     33780     33783     33784     33780     33783
     33784     33780     33782     33784     33780     33781     33786     33790     33791
     33787     33786     33789     33787     33786     33788     33788     33786     33789
     33790     33786     33789     33790     33786     33788     33790     33786     33787
     33792     33796     33797     33793     33792     33795     33793     33792     33794
     33794     33792     33795     33796     33792     33795     33796     33792     33794
     33796     33792     33793     33798     33802     33803     33799     33798     33801
     33799     33798     33800     33800     33798     33801     33802     33798     33801
     33802     33798     33800     33802     33798     33799     33804     33808     33809
     33805     33804     33807     33805     33804     33806     33806     33804     33807
     33808     33804     33807     33808     33804     33806     33808     33804     33805
     33810     33814     33815     33811     33810     33813     33811     33810     33812
     33812     33810     33813     33814     33810     33813     33814     33810     33812
     33814     33810     33811     33816     33820     33821     33817     33816     33819
     33817     33816     33818     33818     33816     33819     33820     33816     33819
     33820     33816     33818     33820     33816     33817     33822     33826     33827
     33823     33822     33825     33823     33822     33824     33824     33822     33825
     33826     33822     33825     33826     33822     33824     33826     33822     33823
     33828     33832     33833     33829     33828     33831     33829     33828     33830
     33830     33828     33831     33832     33828     33831     33832     33828     33830
     33832     33828     33829     33834     33838     33839     33835     33834     33837
     33835     33834     33836     33836     33834     33837     33838     33834     33837
     33838     33834     33836     33838     33834     33835     33840     33844     33845
     33841     33840     33843     33841     33840     33842     33842     33840     33843
     33844     33840     33843     33844     33840     33842     33844     33840     33841
     33846     33850     33851     33847     33846     33849     33847     33846     33848
     33848     33846     33849     33850     33846     33849     33850     33846     33848
     33850     33846     33847     33852     33856     33857     33853     33852     33855
     33853     33852     33854     33854     33852     33855     33856     33852     33855
     33856     33852     33854     33856     33852     33853     33858     33862     33863
     33859     33858     33861     33859     33858     33860     33860     33858     33861
     33862     33858     33861     33862     33858     33860     33862     33858     33859
     33864     33868     33869     33865     33864     33867     33865     33864     33866
     33866     33864     33867     33868     33864     33867     33868     33864     33866
     33868     33864     33865     33870     33874     33875     33871     33870     33873
     33871     33870     33872     33872     33870     33873     33874     33870     33873
     33874     33870     33872     33874     33870     33871     33876     33880     33881
     33877     33876     33879     33877     33876     33878     33878     33876     33879
     33880     33876     33879     33880     33876     33878     33880     33876     33877
     33882     33886     33887     33883     33882     33885     33883     33882     33884
     33884     33882     33885     33886     33882     33885     33886     33882     33884
     33886     33882     33883     33888     33892     33893     33889     33888     33891
     33889     33888     33890     33890     33888     33891     33892     33888     33891
     33892     33888     33890     33892     33888     33889     33894     33898     33899
     33895     33894     33897     33895     33894     33896     33896     33894     33897
     33898     33894     33897     33898     33894     33896     33898     33894     33895
     33900     33904     33905     33901     33900     33903     33901     33900     33902
     33902     33900     33903     33904     33900     33903     33904     33900     33902
     33904     33900     33901     33906     33910     33911     33907     33906     33909
     33907     33906     33908     33908     33906     33909     33910     33906     33909
     33910     33906     33908     33910     33906     33907     33912     33916     33917
     33913     33912     33915     33913     33912     33914     33914     33912     33915
     33916     33912     33915     33916     33912     33914     33916     33912     33913
     33918     33922     33923     33919     33918     33921     33919     33918     33920
     33920     33918     33921     33922     33918     33921     33922     33918     33920
     33922     33918     33919     33924     33928     33929     33925     33924     33927
     33925     33924     33926     33926     33924     33927     33928     33924     33927
     33928     33924     33926     33928     33924     33925     33930     33934     33935
     33931     33930     33933     33931     33930     33932     33932     33930     33933
     33934     33930     33933     33934     33930     33932     33934     33930     33931
     33936     33940     33941     33937     33936     33939     33937     33936     33938
     33938     33936     33939     33940     33936     33939     33940     33936     33938
     33940     33936     33937     33942     33946     33947     33943     33942     33945
     33943     33942     33944     33944     33942     33945     33946     33942     33945
     33946     33942     33944     33946     33942     33943     33948     33952     33953
     33949     33948     33951     33949     33948     33950     33950     33948     33951
     33952     33948     33951     33952     33948     33950     33952     33948     33949
     33954     33958     33959     33955     33954     33957     33955     33954     33956
     33956     33954     33957     33958     33954     33957     33958     33954     33956
     33958     33954     33955     33960     33964     33965     33961     33960     33963
     33961     33960     33962     33962     33960     33963     33964     33960     33963
     33964     33960     33962     33964     33960     33961     33966     33970     33971
     33967     33966     33969     33967     33966     33968     33968     33966     33969
     33970     33966     33969     33970     33966     33968     33970     33966     33967
     33972     33976     33977     33973     33972     33975     33973     33972     33974
     33974     33972     33975     33976     33972     33975     33976     33972     33974
     33976     33972     33973     33978     33982     33983     33979     33978     33981
     33979     33978     33980     33980     33978     33981     33982     33978     33981
     33982     33978     33980     33982     33978     33979     33984     33988     33989
     33985     33984     33987     33985     33984     33986     33986     33984     33987
     33988     33984     33987     33988     33984     33986     33988     33984     33985
     33990     33994     33995     33991     33990     33993     33991     33990     33992
     33992     33990     33993     33994     33990     33993     33994     33990     33992
     33994     33990     33991     33996     34000     34001     33997     33996     33999
     33997     33996     33998     33998     33996     33999     34000     33996     33999
     34000     33996     33998     34000     33996     33997     34002     34006     34007
     34003     34002     34005     34003     34002     34004     34004     34002     34005
     34006     34002     34005     34006     34002     34004     34006     34002     34003
     34008     34012     34013     34009     34008     34011     34009     34008     34010
     34010     34008     34011     34012     34008     34011     34012     34008     34010
     34012     34008     34009     34014     34018     34019     34015     34014     34017
     34015     34014     34016     34016     34014     34017     34018     34014     34017
     34018     34014     34016     34018     34014     34015     34020     34024     34025
     34021     34020     34023     34021     34020     34022     34022     34020     34023
     34024     34020     34023     34024     34020     34022     34024     34020     34021
     34026     34030     34031     34027     34026     34029     34027     34026     34028
     34028     34026     34029     34030     34026     34029     34030     34026     34028
     34030     34026     34027     34032     34036     34037     34033     34032     34035
     34033     34032     34034     34034     34032     34035     34036     34032     34035
     34036     34032     34034     34036     34032     34033     34038     34042     34043
     34039     34038     34041     34039     34038     34040     34040     34038     34041
     34042     34038     34041     34042     34038     34040     34042     34038     34039
     34044     34048     34049     34045     34044     34047     34045     34044     34046
     34046     34044     34047     34048     34044     34047     34048     34044     34046
     34048     34044     34045     34050     34054     34055     34051     34050     34053
     34051     34050     34052     34052     34050     34053     34054     34050     34053
     34054     34050     34052     34054     34050     34051     34056     34060     34061
     34057     34056     34059     34057     34056     34058     34058     34056     34059
     34060     34056     34059     34060     34056     34058     34060     34056     34057
     34062     34066     34067     34063     34062     34065     34063     34062     34064
     34064     34062     34065     34066     34062     34065     34066     34062     34064
     34066     34062     34063     34068     34072     34073     34069     34068     34071
     34069     34068     34070     34070     34068     34071     34072     34068     34071
     34072     34068     34070     34072     34068     34069     34074     34078     34079
     34075     34074     34077     34075     34074     34076     34076     34074     34077
     34078     34074     34077     34078     34074     34076     34078     34074     34075
     34080     34084     34085     34081     34080     34083     34081     34080     34082
     34082     34080     34083     34084     34080     34083     34084     34080     34082
     34084     34080     34081     34086     34090     34091     34087     34086     34089
     34087     34086     34088     34088     34086     34089     34090     34086     34089
     34090     34086     34088     34090     34086     34087     34092     34096     34097
     34093     34092     34095     34093     34092     34094     34094     34092     34095
     34096     34092     34095     34096     34092     34094     34096     34092     34093
     34098     34102     34103     34099     34098     34101     34099     34098     34100
     34100     34098     34101     34102     34098     34101     34102     34098     34100
     34102     34098     34099     34104     34108     34109     34105     34104     34107
     34105     34104     34106     34106     34104     34107     34108     34104     34107
     34108     34104     34106     34108     34104     34105     34110     34114     34115
     34111     34110     34113     34111     34110     34112     34112     34110     34113
     34114     34110     34113     34114     34110     34112     34114     34110     34111
     34116     34120     34121     34117     34116     34119     34117     34116     34118
     34118     34116     34119     34120     34116     34119     34120     34116     34118
     34120     34116     34117     34122     34126     34127     34123     34122     34125
     34123     34122     34124     34124     34122     34125     34126     34122     34125
     34126     34122     34124     34126     34122     34123     34128     34132     34133
     34129     34128     34131     34129     34128     34130     34130     34128     34131
     34132     34128     34131     34132     34128     34130     34132     34128     34129
     34134     34138     34139     34135     34134     34137     34135     34134     34136
     34136     34134     34137     34138     34134     34137     34138     34134     34136
     34138     34134     34135     34140     34144     34145     34141     34140     34143
     34141     34140     34142     34142     34140     34143     34144     34140     34143
     34144     34140     34142     34144     34140     34141     34146     34150     34151
     34147     34146     34149     34147     34146     34148     34148     34146     34149
     34150     34146     34149     34150     34146     34148     34150     34146     34147
     34152     34156     34157     34153     34152     34155     34153     34152     34154
     34154     34152     34155     34156     34152     34155     34156     34152     34154
     34156     34152     34153     34158     34162     34163     34159     34158     34161
     34159     34158     34160     34160     34158     34161     34162     34158     34161
     34162     34158     34160     34162     34158     34159     34164     34168     34169
     34165     34164     34167     34165     34164     34166     34166     34164     34167
     34168     34164     34167     34168     34164     34166     34168     34164     34165
     34170     34174     34175     34171     34170     34173     34171     34170     34172
     34172     34170     34173     34174     34170     34173     34174     34170     34172
     34174     34170     34171     34176     34180     34181     34177     34176     34179
     34177     34176     34178     34178     34176     34179     34180     34176     34179
     34180     34176     34178     34180     34176     34177     34182     34186     34187
     34183     34182     34185     34183     34182     34184     34184     34182     34185
     34186     34182     34185     34186     34182     34184     34186     34182     34183
     34188     34192     34193     34189     34188     34191     34189     34188     34190
     34190     34188     34191     34192     34188     34191     34192     34188     34190
     34192     34188     34189     34194     34198     34199     34195     34194     34197
     34195     34194     34196     34196     34194     34197     34198     34194     34197
     34198     34194     34196     34198     34194     34195     34200     34204     34205
     34201     34200     34203     34201     34200     34202     34202     34200     34203
     34204     34200     34203     34204     34200     34202     34204     34200     34201
     34206     34210     34211     34207     34206     34209     34207     34206     34208
     34208     34206     34209     34210     34206     34209     34210     34206     34208
     34210     34206     34207     34212     34216     34217     34213     34212     34215
     34213     34212     34214     34214     34212     34215     34216     34212     34215
     34216     34212     34214     34216     34212     34213     34218     34222     34223
     34219     34218     34221     34219     34218     34220     34220     34218     34221
     34222     34218     34221     34222     34218     34220     34222     34218     34219
     34224     34228     34229     34225     34224     34227     34225     34224     34226
     34226     34224     34227     34228     34224     34227     34228     34224     34226
     34228     34224     34225     34230     34234     34235     34231     34230     34233
     34231     34230     34232     34232     34230     34233     34234     34230     34233
     34234     34230     34232     34234     34230     34231     34236     34240     34241
     34237     34236     34239     34237     34236     34238     34238     34236     34239
     34240     34236     34239     34240     34236     34238     34240     34236     34237
     34242     34246     34247     34243     34242     34245     34243     34242     34244
     34244     34242     34245     34246     34242     34245     34246     34242     34244
     34246     34242     34243     34248     34252     34253     34249     34248     34251
     34249     34248     34250     34250     34248     34251     34252     34248     34251
     34252     34248     34250     34252     34248     34249     34254     34258     34259
     34255     34254     34257     34255     34254     34256     34256     34254     34257
     34258     34254     34257     34258     34254     34256     34258     34254     34255
     34260     34264     34265     34261     34260     34263     34261     34260     34262
     34262     34260     34263     34264     34260     34263     34264     34260     34262
     34264     34260     34261     34266     34270     34271     34267     34266     34269
     34267     34266     34268     34268     34266     34269     34270     34266     34269
     34270     34266     34268     34270     34266     34267     34272     34276     34277
     34273     34272     34275     34273     34272     34274     34274     34272     34275
     34276     34272     34275     34276     34272     34274     34276     34272     34273
     34278     34282     34283     34279     34278     34281     34279     34278     34280
     34280     34278     34281     34282     34278     34281     34282     34278     34280
     34282     34278     34279     34284     34288     34289     34285     34284     34287
     34285     34284     34286     34286     34284     34287     34288     34284     34287
     34288     34284     34286     34288     34284     34285     34290     34294     34295
     34291     34290     34293     34291     34290     34292     34292     34290     34293
     34294     34290     34293     34294     34290     34292     34294     34290     34291
     34296     34300     34301     34297     34296     34299     34297     34296     34298
     34298     34296     34299     34300     34296     34299     34300     34296     34298
     34300     34296     34297     34302     34306     34307     34303     34302     34305
     34303     34302     34304     34304     34302     34305     34306     34302     34305
     34306     34302     34304     34306     34302     34303     34308     34312     34313
     34309     34308     34311     34309     34308     34310     34310     34308     34311
     34312     34308     34311     34312     34308     34310     34312     34308     34309
     34314     34318     34319     34315     34314     34317     34315     34314     34316
     34316     34314     34317     34318     34314     34317     34318     34314     34316
     34318     34314     34315     34320     34324     34325     34321     34320     34323
     34321     34320     34322     34322     34320     34323     34324     34320     34323
     34324     34320     34322     34324     34320     34321     34326     34330     34331
     34327     34326     34329     34327     34326     34328     34328     34326     34329
     34330     34326     34329     34330     34326     34328     34330     34326     34327
     34332     34336     34337     34333     34332     34335     34333     34332     34334
     34334     34332     34335     34336     34332     34335     34336     34332     34334
     34336     34332     34333     34338     34342     34343     34339     34338     34341
     34339     34338     34340     34340     34338     34341     34342     34338     34341
     34342     34338     34340     34342     34338     34339     34344     34348     34349
     34345     34344     34347     34345     34344     34346     34346     34344     34347
     34348     34344     34347     34348     34344     34346     34348     34344     34345
     34350     34354     34355     34351     34350     34353     34351     34350     34352
     34352     34350     34353     34354     34350     34353     34354     34350     34352
     34354     34350     34351     34356     34360     34361     34357     34356     34359
     34357     34356     34358     34358     34356     34359     34360     34356     34359
     34360     34356     34358     34360     34356     34357     34362     34366     34367
     34363     34362     34365     34363     34362     34364     34364     34362     34365
     34366     34362     34365     34366     34362     34364     34366     34362     34363
     34368     34372     34373     34369     34368     34371     34369     34368     34370
     34370     34368     34371     34372     34368     34371     34372     34368     34370
     34372     34368     34369     34374     34378     34379     34375     34374     34377
     34375     34374     34376     34376     34374     34377     34378     34374     34377
     34378     34374     34376     34378     34374     34375     34380     34384     34385
     34381     34380     34383     34381     34380     34382     34382     34380     34383
     34384     34380     34383     34384     34380     34382     34384     34380     34381
     34386     34390     34391     34387     34386     34389     34387     34386     34388
     34388     34386     34389     34390     34386     34389     34390     34386     34388
     34390     34386     34387     34392     34396     34397     34393     34392     34395
     34393     34392     34394     34394     34392     34395     34396     34392     34395
     34396     34392     34394     34396     34392     34393     34398     34402     34403
     34399     34398     34401     34399     34398     34400     34400     34398     34401
     34402     34398     34401     34402     34398     34400     34402     34398     34399
     34404     34408     34409     34405     34404     34407     34405     34404     34406
     34406     34404     34407     34408     34404     34407     34408     34404     34406
     34408     34404     34405     34410     34414     34415     34411     34410     34413
     34411     34410     34412     34412     34410     34413     34414     34410     34413
     34414     34410     34412     34414     34410     34411     34416     34420     34421
     34417     34416     34419     34417     34416     34418     34418     34416     34419
     34420     34416     34419     34420     34416     34418     34420     34416     34417
     34422     34426     34427     34423     34422     34425     34423     34422     34424
     34424     34422     34425     34426     34422     34425     34426     34422     34424
     34426     34422     34423     34428     34432     34433     34429     34428     34431
     34429     34428     34430     34430     34428     34431     34432     34428     34431
     34432     34428     34430     34432     34428     34429     34434     34438     34439
     34435     34434     34437     34435     34434     34436     34436     34434     34437
     34438     34434     34437     34438     34434     34436     34438     34434     34435
     34440     34444     34445     34441     34440     34443     34441     34440     34442
     34442     34440     34443     34444     34440     34443     34444     34440     34442
     34444     34440     34441     34446     34450     34451     34447     34446     34449
     34447     34446     34448     34448     34446     34449     34450     34446     34449
     34450     34446     34448     34450     34446     34447     34452     34456     34457
     34453     34452     34455     34453     34452     34454     34454     34452     34455
     34456     34452     34455     34456     34452     34454     34456     34452     34453
     34458     34462     34463     34459     34458     34461     34459     34458     34460
     34460     34458     34461     34462     34458     34461     34462     34458     34460
     34462     34458     34459     34464     34468     34469     34465     34464     34467
     34465     34464     34466     34466     34464     34467     34468     34464     34467
     34468     34464     34466     34468     34464     34465     34470     34474     34475
     34471     34470     34473     34471     34470     34472     34472     34470     34473
     34474     34470     34473     34474     34470     34472     34474     34470     34471
     34476     34480     34481     34477     34476     34479     34477     34476     34478
     34478     34476     34479     34480     34476     34479     34480     34476     34478
     34480     34476     34477     34482     34486     34487     34483     34482     34485
     34483     34482     34484     34484     34482     34485     34486     34482     34485
     34486     34482     34484     34486     34482     34483     34488     34492     34493
     34489     34488     34491     34489     34488     34490     34490     34488     34491
     34492     34488     34491     34492     34488     34490     34492     34488     34489
     34494     34498     34499     34495     34494     34497     34495     34494     34496
     34496     34494     34497     34498     34494     34497     34498     34494     34496
     34498     34494     34495     34500     34504     34505     34501     34500     34503
     34501     34500     34502     34502     34500     34503     34504     34500     34503
     34504     34500     34502     34504     34500     34501     34506     34510     34511
     34507     34506     34509     34507     34506     34508     34508     34506     34509
     34510     34506     34509     34510     34506     34508     34510     34506     34507
     34512     34516     34517     34513     34512     34515     34513     34512     34514
     34514     34512     34515     34516     34512     34515     34516     34512     34514
     34516     34512     34513     34518     34522     34523     34519     34518     34521
     34519     34518     34520     34520     34518     34521     34522     34518     34521
     34522     34518     34520     34522     34518     34519     34524     34528     34529
     34525     34524     34527     34525     34524     34526     34526     34524     34527
     34528     34524     34527     34528     34524     34526     34528     34524     34525
     34530     34534     34535     34531     34530     34533     34531     34530     34532
     34532     34530     34533     34534     34530     34533     34534     34530     34532
     34534     34530     34531     34536     34540     34541     34537     34536     34539
     34537     34536     34538     34538     34536     34539     34540     34536     34539
     34540     34536     34538     34540     34536     34537     34542     34546     34547
     34543     34542     34545     34543     34542     34544     34544     34542     34545
     34546     34542     34545     34546     34542     34544     34546     34542     34543
     34548     34552     34553     34549     34548     34551     34549     34548     34550
     34550     34548     34551     34552     34548     34551     34552     34548     34550
     34552     34548     34549     34554     34558     34559     34555     34554     34557
     34555     34554     34556     34556     34554     34557     34558     34554     34557
     34558     34554     34556     34558     34554     34555     34560     34564     34565
     34561     34560     34563     34561     34560     34562     34562     34560     34563
     34564     34560     34563     34564     34560     34562     34564     34560     34561
     34566     34570     34571     34567     34566     34569     34567     34566     34568
     34568     34566     34569     34570     34566     34569     34570     34566     34568
     34570     34566     34567     34572     34576     34577     34573     34572     34575
     34573     34572     34574     34574     34572     34575     34576     34572     34575
     34576     34572     34574     34576     34572     34573     34578     34582     34583
     34579     34578     34581     34579     34578     34580     34580     34578     34581
     34582     34578     34581     34582     34578     34580     34582     34578     34579
     34584     34588     34589     34585     34584     34587     34585     34584     34586
     34586     34584     34587     34588     34584     34587     34588     34584     34586
     34588     34584     34585     34590     34594     34595     34591     34590     34593
     34591     34590     34592     34592     34590     34593     34594     34590     34593
     34594     34590     34592     34594     34590     34591     34596     34600     34601
     34597     34596     34599     34597     34596     34598     34598     34596     34599
     34600     34596     34599     34600     34596     34598     34600     34596     34597
     34602     34606     34607     34603     34602     34605     34603     34602     34604
     34604     34602     34605     34606     34602     34605     34606     34602     34604
     34606     34602     34603     34608     34612     34613     34609     34608     34611
     34609     34608     34610     34610     34608     34611     34612     34608     34611
     34612     34608     34610     34612     34608     34609     34614     34618     34619
     34615     34614     34617     34615     34614     34616     34616     34614     34617
     34618     34614     34617     34618     34614     34616     34618     34614     34615
     34620     34624     34625     34621     34620     34623     34621     34620     34622
     34622     34620     34623     34624     34620     34623     34624     34620     34622
     34624     34620     34621     34626     34630     34631     34627     34626     34629
     34627     34626     34628     34628     34626     34629     34630     34626     34629
     34630     34626     34628     34630     34626     34627     34632     34636     34637
     34633     34632     34635     34633     34632     34634     34634     34632     34635
     34636     34632     34635     34636     34632     34634     34636     34632     34633
     34638     34642     34643     34639     34638     34641     34639     34638     34640
     34640     34638     34641     34642     34638     34641     34642     34638     34640
     34642     34638     34639     34644     34648     34649     34645     34644     34647
     34645     34644     34646     34646     34644     34647     34648     34644     34647
     34648     34644     34646     34648     34644     34645     34650     34654     34655
     34651     34650     34653     34651     34650     34652     34652     34650     34653
     34654     34650     34653     34654     34650     34652     34654     34650     34651
     34656     34660     34661     34657     34656     34659     34657     34656     34658
     34658     34656     34659     34660     34656     34659     34660     34656     34658
     34660     34656     34657     34662     34666     34667     34663     34662     34665
     34663     34662     34664     34664     34662     34665     34666     34662     34665
     34666     34662     34664     34666     34662     34663     34668     34672     34673
     34669     34668     34671     34669     34668     34670     34670     34668     34671
     34672     34668     34671     34672     34668     34670     34672     34668     34669
     34674     34678     34679     34675     34674     34677     34675     34674     34676
     34676     34674     34677     34678     34674     34677     34678     34674     34676
     34678     34674     34675     34680     34684     34685     34681     34680     34683
     34681     34680     34682     34682     34680     34683     34684     34680     34683
     34684     34680     34682     34684     34680     34681     34686     34690     34691
     34687     34686     34689     34687     34686     34688     34688     34686     34689
     34690     34686     34689     34690     34686     34688     34690     34686     34687
     34692     34696     34697     34693     34692     34695     34693     34692     34694
     34694     34692     34695     34696     34692     34695     34696     34692     34694
     34696     34692     34693     34698     34702     34703     34699     34698     34701
     34699     34698     34700     34700     34698     34701     34702     34698     34701
     34702     34698     34700     34702     34698     34699     34704     34708     34709
     34705     34704     34707     34705     34704     34706     34706     34704     34707
     34708     34704     34707     34708     34704     34706     34708     34704     34705
     34710     34714     34715     34711     34710     34713     34711     34710     34712
     34712     34710     34713     34714     34710     34713     34714     34710     34712
     34714     34710     34711     34716     34720     34721     34717     34716     34719
     34717     34716     34718     34718     34716     34719     34720     34716     34719
     34720     34716     34718     34720     34716     34717     34722     34726     34727
     34723     34722     34725     34723     34722     34724     34724     34722     34725
     34726     34722     34725     34726     34722     34724     34726     34722     34723
     34728     34732     34733     34729     34728     34731     34729     34728     34730
     34730     34728     34731     34732     34728     34731     34732     34728     34730
     34732     34728     34729     34734     34738     34739     34735     34734     34737
     34735     34734     34736     34736     34734     34737     34738     34734     34737
     34738     34734     34736     34738     34734     34735     34740     34744     34745
     34741     34740     34743     34741     34740     34742     34742     34740     34743
     34744     34740     34743     34744     34740     34742     34744     34740     34741
     34746     34750     34751     34747     34746     34749     34747     34746     34748
     34748     34746     34749     34750     34746     34749     34750     34746     34748
     34750     34746     34747     34752     34756     34757     34753     34752     34755
     34753     34752     34754     34754     34752     34755     34756     34752     34755
     34756     34752     34754     34756     34752     34753     34758     34762     34763
     34759     34758     34761     34759     34758     34760     34760     34758     34761
     34762     34758     34761     34762     34758     34760     34762     34758     34759
     34764     34768     34769     34765     34764     34767     34765     34764     34766
     34766     34764     34767     34768     34764     34767     34768     34764     34766
     34768     34764     34765     34770     34774     34775     34771     34770     34773
     34771     34770     34772     34772     34770     34773     34774     34770     34773
     34774     34770     34772     34774     34770     34771     34776     34780     34781
     34777     34776     34779     34777     34776     34778     34778     34776     34779
     34780     34776     34779     34780     34776     34778     34780     34776     34777
     34782     34786     34787     34783     34782     34785     34783     34782     34784
     34784     34782     34785     34786     34782     34785     34786     34782     34784
     34786     34782     34783     34788     34792     34793     34789     34788     34791
     34789     34788     34790     34790     34788     34791     34792     34788     34791
     34792     34788     34790     34792     34788     34789     34794     34798     34799
     34795     34794     34797     34795     34794     34796     34796     34794     34797
     34798     34794     34797     34798     34794     34796     34798     34794     34795
     34800     34804     34805     34801     34800     34803     34801     34800     34802
     34802     34800     34803     34804     34800     34803     34804     34800     34802
     34804     34800     34801     34806     34810     34811     34807     34806     34809
     34807     34806     34808     34808     34806     34809     34810     34806     34809
     34810     34806     34808     34810     34806     34807     34812     34816     34817
     34813     34812     34815     34813     34812     34814     34814     34812     34815
     34816     34812     34815     34816     34812     34814     34816     34812     34813
     34818     34822     34823     34819     34818     34821     34819     34818     34820
     34820     34818     34821     34822     34818     34821     34822     34818     34820
     34822     34818     34819     34824     34828     34829     34825     34824     34827
     34825     34824     34826     34826     34824     34827     34828     34824     34827
     34828     34824     34826     34828     34824     34825     34830     34834     34835
     34831     34830     34833     34831     34830     34832     34832     34830     34833
     34834     34830     34833     34834     34830     34832     34834     34830     34831
     34836     34840     34841     34837     34836     34839     34837     34836     34838
     34838     34836     34839     34840     34836     34839     34840     34836     34838
     34840     34836     34837     34842     34846     34847     34843     34842     34845
     34843     34842     34844     34844     34842     34845     34846     34842     34845
     34846     34842     34844     34846     34842     34843     34848     34852     34853
     34849     34848     34851     34849     34848     34850     34850     34848     34851
     34852     34848     34851     34852     34848     34850     34852     34848     34849
     34854     34858     34859     34855     34854     34857     34855     34854     34856
     34856     34854     34857     34858     34854     34857     34858     34854     34856
     34858     34854     34855     34860     34864     34865     34861     34860     34863
     34861     34860     34862     34862     34860     34863     34864     34860     34863
     34864     34860     34862     34864     34860     34861     34866     34870     34871
     34867     34866     34869     34867     34866     34868     34868     34866     34869
     34870     34866     34869     34870     34866     34868     34870     34866     34867
     34872     34876     34877     34873     34872     34875     34873     34872     34874
     34874     34872     34875     34876     34872     34875     34876     34872     34874
     34876     34872     34873     34878     34882     34883     34879     34878     34881
     34879     34878     34880     34880     34878     34881     34882     34878     34881
     34882     34878     34880     34882     34878     34879     34884     34888     34889
     34885     34884     34887     34885     34884     34886     34886     34884     34887
     34888     34884     34887     34888     34884     34886     34888     34884     34885
     34890     34894     34895     34891     34890     34893     34891     34890     34892
     34892     34890     34893     34894     34890     34893     34894     34890     34892
     34894     34890     34891     34896     34900     34901     34897     34896     34899
     34897     34896     34898     34898     34896     34899     34900     34896     34899
     34900     34896     34898     34900     34896     34897     34902     34906     34907
     34903     34902     34905     34903     34902     34904     34904     34902     34905
     34906     34902     34905     34906     34902     34904     34906     34902     34903
     34908     34912     34913     34909     34908     34911     34909     34908     34910
     34910     34908     34911     34912     34908     34911     34912     34908     34910
     34912     34908     34909     34914     34918     34919     34915     34914     34917
     34915     34914     34916     34916     34914     34917     34918     34914     34917
     34918     34914     34916     34918     34914     34915     34920     34924     34925
     34921     34920     34923     34921     34920     34922     34922     34920     34923
     34924     34920     34923     34924     34920     34922     34924     34920     34921
     34926     34930     34931     34927     34926     34929     34927     34926     34928
     34928     34926     34929     34930     34926     34929     34930     34926     34928
     34930     34926     34927     34932     34936     34937     34933     34932     34935
     34933     34932     34934     34934     34932     34935     34936     34932     34935
     34936     34932     34934     34936     34932     34933     34938     34942     34943
     34939     34938     34941     34939     34938     34940     34940     34938     34941
     34942     34938     34941     34942     34938     34940     34942     34938     34939
     34944     34948     34949     34945     34944     34947     34945     34944     34946
     34946     34944     34947     34948     34944     34947     34948     34944     34946
     34948     34944     34945     34950     34954     34955     34951     34950     34953
     34951     34950     34952     34952     34950     34953     34954     34950     34953
     34954     34950     34952     34954     34950     34951     34956     34960     34961
     34957     34956     34959     34957     34956     34958     34958     34956     34959
     34960     34956     34959     34960     34956     34958     34960     34956     34957
     34962     34966     34967     34963     34962     34965     34963     34962     34964
     34964     34962     34965     34966     34962     34965     34966     34962     34964
     34966     34962     34963     34968     34972     34973     34969     34968     34971
     34969     34968     34970     34970     34968     34971     34972     34968     34971
     34972     34968     34970     34972     34968     34969     34974     34978     34979
     34975     34974     34977     34975     34974     34976     34976     34974     34977
     34978     34974     34977     34978     34974     34976     34978     34974     34975
     34980     34984     34985     34981     34980     34983     34981     34980     34982
     34982     34980     34983     34984     34980     34983     34984     34980     34982
     34984     34980     34981     34986     34990     34991     34987     34986     34989
     34987     34986     34988     34988     34986     34989     34990     34986     34989
     34990     34986     34988     34990     34986     34987     34992     34996     34997
     34993     34992     34995     34993     34992     34994     34994     34992     34995
     34996     34992     34995     34996     34992     34994     34996     34992     34993
     34998     35002     35003     34999     34998     35001     34999     34998     35000
     35000     34998     35001     35002     34998     35001     35002     34998     35000
     35002     34998     34999     35004     35008     35009     35005     35004     35007
     35005     35004     35006     35006     35004     35007     35008     35004     35007
     35008     35004     35006     35008     35004     35005     35010     35014     35015
     35011     35010     35013     35011     35010     35012     35012     35010     35013
     35014     35010     35013     35014     35010     35012     35014     35010     35011
     35016     35020     35021     35017     35016     35019     35017     35016     35018
     35018     35016     35019     35020     35016     35019     35020     35016     35018
     35020     35016     35017     35022     35026     35027     35023     35022     35025
     35023     35022     35024     35024     35022     35025     35026     35022     35025
     35026     35022     35024     35026     35022     35023     35028     35032     35033
     35029     35028     35031     35029     35028     35030     35030     35028     35031
     35032     35028     35031     35032     35028     35030     35032     35028     35029
     35034     35038     35039     35035     35034     35037     35035     35034     35036
     35036     35034     35037     35038     35034     35037     35038     35034     35036
     35038     35034     35035     35040     35044     35045     35041     35040     35043
     35041     35040     35042     35042     35040     35043     35044     35040     35043
     35044     35040     35042     35044     35040     35041     35046     35050     35051
     35047     35046     35049     35047     35046     35048     35048     35046     35049
     35050     35046     35049     35050     35046     35048     35050     35046     35047
     35052     35056     35057     35053     35052     35055     35053     35052     35054
     35054     35052     35055     35056     35052     35055     35056     35052     35054
     35056     35052     35053     35058     35062     35063     35059     35058     35061
     35059     35058     35060     35060     35058     35061     35062     35058     35061
     35062     35058     35060     35062     35058     35059     35064     35068     35069
     35065     35064     35067     35065     35064     35066     35066     35064     35067
     35068     35064     35067     35068     35064     35066     35068     35064     35065
     35070     35074     35075     35071     35070     35073     35071     35070     35072
     35072     35070     35073     35074     35070     35073     35074     35070     35072
     35074     35070     35071     35076     35080     35081     35077     35076     35079
     35077     35076     35078     35078     35076     35079     35080     35076     35079
     35080     35076     35078     35080     35076     35077     35082     35086     35087
     35083     35082     35085     35083     35082     35084     35084     35082     35085
     35086     35082     35085     35086     35082     35084     35086     35082     35083
     35088     35092     35093     35089     35088     35091     35089     35088     35090
     35090     35088     35091     35092     35088     35091     35092     35088     35090
     35092     35088     35089     35094     35098     35099     35095     35094     35097
     35095     35094     35096     35096     35094     35097     35098     35094     35097
     35098     35094     35096     35098     35094     35095     35100     35104     35105
     35101     35100     35103     35101     35100     35102     35102     35100     35103
     35104     35100     35103     35104     35100     35102     35104     35100     35101
     35106     35110     35111     35107     35106     35109     35107     35106     35108
     35108     35106     35109     35110     35106     35109     35110     35106     35108
     35110     35106     35107     35112     35116     35117     35113     35112     35115
     35113     35112     35114     35114     35112     35115     35116     35112     35115
     35116     35112     35114     35116     35112     35113     35118     35122     35123
     35119     35118     35121     35119     35118     35120     35120     35118     35121
     35122     35118     35121     35122     35118     35120     35122     35118     35119
     35124     35128     35129     35125     35124     35127     35125     35124     35126
     35126     35124     35127     35128     35124     35127     35128     35124     35126
     35128     35124     35125     35130     35134     35135     35131     35130     35133
     35131     35130     35132     35132     35130     35133     35134     35130     35133
     35134     35130     35132     35134     35130     35131     35136     35140     35141
     35137     35136     35139     35137     35136     35138     35138     35136     35139
     35140     35136     35139     35140     35136     35138     35140     35136     35137
     35142     35146     35147     35143     35142     35145     35143     35142     35144
     35144     35142     35145     35146     35142     35145     35146     35142     35144
     35146     35142     35143     35148     35152     35153     35149     35148     35151
     35149     35148     35150     35150     35148     35151     35152     35148     35151
     35152     35148     35150     35152     35148     35149     35154     35158     35159
     35155     35154     35157     35155     35154     35156     35156     35154     35157
     35158     35154     35157     35158     35154     35156     35158     35154     35155
     35160     35164     35165     35161     35160     35163     35161     35160     35162
     35162     35160     35163     35164     35160     35163     35164     35160     35162
     35164     35160     35161     35166     35170     35171     35167     35166     35169
     35167     35166     35168     35168     35166     35169     35170     35166     35169
     35170     35166     35168     35170     35166     35167     35172     35176     35177
     35173     35172     35175     35173     35172     35174     35174     35172     35175
     35176     35172     35175     35176     35172     35174     35176     35172     35173
     35178     35182     35183     35179     35178     35181     35179     35178     35180
     35180     35178     35181     35182     35178     35181     35182     35178     35180
     35182     35178     35179     35184     35188     35189     35185     35184     35187
     35185     35184     35186     35186     35184     35187     35188     35184     35187
     35188     35184     35186     35188     35184     35185     35190     35194     35195
     35191     35190     35193     35191     35190     35192     35192     35190     35193
     35194     35190     35193     35194     35190     35192     35194     35190     35191
     35196     35200     35201     35197     35196     35199     35197     35196     35198
     35198     35196     35199     35200     35196     35199     35200     35196     35198
     35200     35196     35197     35202     35206     35207     35203     35202     35205
     35203     35202     35204     35204     35202     35205     35206     35202     35205
     35206     35202     35204     35206     35202     35203     35208     35212     35213
     35209     35208     35211     35209     35208     35210     35210     35208     35211
     35212     35208     35211     35212     35208     35210     35212     35208     35209
     35214     35218     35219     35215     35214     35217     35215     35214     35216
     35216     35214     35217     35218     35214     35217     35218     35214     35216
     35218     35214     35215     35220     35224     35225     35221     35220     35223
     35221     35220     35222     35222     35220     35223     35224     35220     35223
     35224     35220     35222     35224     35220     35221     35226     35230     35231
     35227     35226     35229     35227     35226     35228     35228     35226     35229
     35230     35226     35229     35230     35226     35228     35230     35226     35227
     35232     35236     35237     35233     35232     35235     35233     35232     35234
     35234     35232     35235     35236     35232     35235     35236     35232     35234
     35236     35232     35233     35238     35242     35243     35239     35238     35241
     35239     35238     35240     35240     35238     35241     35242     35238     35241
     35242     35238     35240     35242     35238     35239     35244     35248     35249
     35245     35244     35247     35245     35244     35246     35246     35244     35247
     35248     35244     35247     35248     35244     35246     35248     35244     35245
     35250     35254     35255     35251     35250     35253     35251     35250     35252
     35252     35250     35253     35254     35250     35253     35254     35250     35252
     35254     35250     35251     35256     35260     35261     35257     35256     35259
     35257     35256     35258     35258     35256     35259     35260     35256     35259
     35260     35256     35258     35260     35256     35257     35262     35266     35267
     35263     35262     35265     35263     35262     35264     35264     35262     35265
     35266     35262     35265     35266     35262     35264     35266     35262     35263
     35268     35272     35273     35269     35268     35271     35269     35268     35270
     35270     35268     35271     35272     35268     35271     35272     35268     35270
     35272     35268     35269     35274     35278     35279     35275     35274     35277
     35275     35274     35276     35276     35274     35277     35278     35274     35277
     35278     35274     35276     35278     35274     35275     35280     35284     35285
     35281     35280     35283     35281     35280     35282     35282     35280     35283
     35284     35280     35283     35284     35280     35282     35284     35280     35281
     35286     35290     35291     35287     35286     35289     35287     35286     35288
     35288     35286     35289     35290     35286     35289     35290     35286     35288
     35290     35286     35287     35292     35296     35297     35293     35292     35295
     35293     35292     35294     35294     35292     35295     35296     35292     35295
     35296     35292     35294     35296     35292     35293     35298     35302     35303
     35299     35298     35301     35299     35298     35300     35300     35298     35301
     35302     35298     35301     35302     35298     35300     35302     35298     35299
     35304     35308     35309     35305     35304     35307     35305     35304     35306
     35306     35304     35307     35308     35304     35307     35308     35304     35306
     35308     35304     35305     35310     35314     35315     35311     35310     35313
     35311     35310     35312     35312     35310     35313     35314     35310     35313
     35314     35310     35312     35314     35310     35311     35316     35320     35321
     35317     35316     35319     35317     35316     35318     35318     35316     35319
     35320     35316     35319     35320     35316     35318     35320     35316     35317
     35322     35326     35327     35323     35322     35325     35323     35322     35324
     35324     35322     35325     35326     35322     35325     35326     35322     35324
     35326     35322     35323     35328     35332     35333     35329     35328     35331
     35329     35328     35330     35330     35328     35331     35332     35328     35331
     35332     35328     35330     35332     35328     35329     35334     35338     35339
     35335     35334     35337     35335     35334     35336     35336     35334     35337
     35338     35334     35337     35338     35334     35336     35338     35334     35335
     35340     35344     35345     35341     35340     35343     35341     35340     35342
     35342     35340     35343     35344     35340     35343     35344     35340     35342
     35344     35340     35341     35346     35350     35351     35347     35346     35349
     35347     35346     35348     35348     35346     35349     35350     35346     35349
     35350     35346     35348     35350     35346     35347     35352     35356     35357
     35353     35352     35355     35353     35352     35354     35354     35352     35355
     35356     35352     35355     35356     35352     35354     35356     35352     35353
     35358     35362     35363     35359     35358     35361     35359     35358     35360
     35360     35358     35361     35362     35358     35361     35362     35358     35360
     35362     35358     35359     35364     35368     35369     35365     35364     35367
     35365     35364     35366     35366     35364     35367     35368     35364     35367
     35368     35364     35366     35368     35364     35365     35370     35374     35375
     35371     35370     35373     35371     35370     35372     35372     35370     35373
     35374     35370     35373     35374     35370     35372     35374     35370     35371
     35376     35380     35381     35377     35376     35379     35377     35376     35378
     35378     35376     35379     35380     35376     35379     35380     35376     35378
     35380     35376     35377     35382     35386     35387     35383     35382     35385
     35383     35382     35384     35384     35382     35385     35386     35382     35385
     35386     35382     35384     35386     35382     35383     35388     35392     35393
     35389     35388     35391     35389     35388     35390     35390     35388     35391
     35392     35388     35391     35392     35388     35390     35392     35388     35389
     35394     35398     35399     35395     35394     35397     35395     35394     35396
     35396     35394     35397     35398     35394     35397     35398     35394     35396
     35398     35394     35395     35400     35404     35405     35401     35400     35403
     35401     35400     35402     35402     35400     35403     35404     35400     35403
     35404     35400     35402     35404     35400     35401     35406     35410     35411
     35407     35406     35409     35407     35406     35408     35408     35406     35409
     35410     35406     35409     35410     35406     35408     35410     35406     35407
     35412     35416     35417     35413     35412     35415     35413     35412     35414
     35414     35412     35415     35416     35412     35415     35416     35412     35414
     35416     35412     35413     35418     35422     35423     35419     35418     35421
     35419     35418     35420     35420     35418     35421     35422     35418     35421
     35422     35418     35420     35422     35418     35419     35424     35428     35429
     35425     35424     35427     35425     35424     35426     35426     35424     35427
     35428     35424     35427     35428     35424     35426     35428     35424     35425
     35430     35434     35435     35431     35430     35433     35431     35430     35432
     35432     35430     35433     35434     35430     35433     35434     35430     35432
     35434     35430     35431     35436     35440     35441     35437     35436     35439
     35437     35436     35438     35438     35436     35439     35440     35436     35439
     35440     35436     35438     35440     35436     35437     35442     35446     35447
     35443     35442     35445     35443     35442     35444     35444     35442     35445
     35446     35442     35445     35446     35442     35444     35446     35442     35443
     35448     35452     35453     35449     35448     35451     35449     35448     35450
     35450     35448     35451     35452     35448     35451     35452     35448     35450
     35452     35448     35449     35454     35458     35459     35455     35454     35457
     35455     35454     35456     35456     35454     35457     35458     35454     35457
     35458     35454     35456     35458     35454     35455     35460     35464     35465
     35461     35460     35463     35461     35460     35462     35462     35460     35463
     35464     35460     35463     35464     35460     35462     35464     35460     35461
     35466     35470     35471     35467     35466     35469     35467     35466     35468
     35468     35466     35469     35470     35466     35469     35470     35466     35468
     35470     35466     35467     35472     35476     35477     35473     35472     35475
     35473     35472     35474     35474     35472     35475     35476     35472     35475
     35476     35472     35474     35476     35472     35473     35478     35482     35483
     35479     35478     35481     35479     35478     35480     35480     35478     35481
     35482     35478     35481     35482     35478     35480     35482     35478     35479
     35484     35488     35489     35485     35484     35487     35485     35484     35486
     35486     35484     35487     35488     35484     35487     35488     35484     35486
     35488     35484     35485     35490     35494     35495     35491     35490     35493
     35491     35490     35492     35492     35490     35493     35494     35490     35493
     35494     35490     35492     35494     35490     35491     35496     35500     35501
     35497     35496     35499     35497     35496     35498     35498     35496     35499
     35500     35496     35499     35500     35496     35498     35500     35496     35497
     35502     35506     35507     35503     35502     35505     35503     35502     35504
     35504     35502     35505     35506     35502     35505     35506     35502     35504
     35506     35502     35503     35508     35512     35513     35509     35508     35511
     35509     35508     35510     35510     35508     35511     35512     35508     35511
     35512     35508     35510     35512     35508     35509     35514     35518     35519
     35515     35514     35517     35515     35514     35516     35516     35514     35517
     35518     35514     35517     35518     35514     35516     35518     35514     35515
     35520     35524     35525     35521     35520     35523     35521     35520     35522
     35522     35520     35523     35524     35520     35523     35524     35520     35522
     35524     35520     35521     35526     35530     35531     35527     35526     35529
     35527     35526     35528     35528     35526     35529     35530     35526     35529
     35530     35526     35528     35530     35526     35527     35532     35536     35537
     35533     35532     35535     35533     35532     35534     35534     35532     35535
     35536     35532     35535     35536     35532     35534     35536     35532     35533
     35538     35542     35543     35539     35538     35541     35539     35538     35540
     35540     35538     35541     35542     35538     35541     35542     35538     35540
     35542     35538     35539     35544     35548     35549     35545     35544     35547
     35545     35544     35546     35546     35544     35547     35548     35544     35547
     35548     35544     35546     35548     35544     35545     35550     35554     35555
     35551     35550     35553     35551     35550     35552     35552     35550     35553
     35554     35550     35553     35554     35550     35552     35554     35550     35551
     35556     35560     35561     35557     35556     35559     35557     35556     35558
     35558     35556     35559     35560     35556     35559     35560     35556     35558
     35560     35556     35557     35562     35566     35567     35563     35562     35565
     35563     35562     35564     35564     35562     35565     35566     35562     35565
     35566     35562     35564     35566     35562     35563     35568     35572     35573
     35569     35568     35571     35569     35568     35570     35570     35568     35571
     35572     35568     35571     35572     35568     35570     35572     35568     35569
     35574     35578     35579     35575     35574     35577     35575     35574     35576
     35576     35574     35577     35578     35574     35577     35578     35574     35576
     35578     35574     35575     35580     35584     35585     35581     35580     35583
     35581     35580     35582     35582     35580     35583     35584     35580     35583
     35584     35580     35582     35584     35580     35581     35586     35590     35591
     35587     35586     35589     35587     35586     35588     35588     35586     35589
     35590     35586     35589     35590     35586     35588     35590     35586     35587
     35592     35596     35597     35593     35592     35595     35593     35592     35594
     35594     35592     35595     35596     35592     35595     35596     35592     35594
     35596     35592     35593     35598     35602     35603     35599     35598     35601
     35599     35598     35600     35600     35598     35601     35602     35598     35601
     35602     35598     35600     35602     35598     35599     35604     35608     35609
     35605     35604     35607     35605     35604     35606     35606     35604     35607
     35608     35604     35607     35608     35604     35606     35608     35604     35605
     35610     35614     35615     35611     35610     35613     35611     35610     35612
     35612     35610     35613     35614     35610     35613     35614     35610     35612
     35614     35610     35611     35616     35620     35621     35617     35616     35619
     35617     35616     35618     35618     35616     35619     35620     35616     35619
     35620     35616     35618     35620     35616     35617     35622     35626     35627
     35623     35622     35625     35623     35622     35624     35624     35622     35625
     35626     35622     35625     35626     35622     35624     35626     35622     35623
     35628     35632     35633     35629     35628     35631     35629     35628     35630
     35630     35628     35631     35632     35628     35631     35632     35628     35630
     35632     35628     35629     35634     35638     35639     35635     35634     35637
     35635     35634     35636     35636     35634     35637     35638     35634     35637
     35638     35634     35636     35638     35634     35635     35640     35644     35645
     35641     35640     35643     35641     35640     35642     35642     35640     35643
     35644     35640     35643     35644     35640     35642     35644     35640     35641
     35646     35650     35651     35647     35646     35649     35647     35646     35648
     35648     35646     35649     35650     35646     35649     35650     35646     35648
     35650     35646     35647     35652     35656     35657     35653     35652     35655
     35653     35652     35654     35654     35652     35655     35656     35652     35655
     35656     35652     35654     35656     35652     35653     35658     35662     35663
     35659     35658     35661     35659     35658     35660     35660     35658     35661
     35662     35658     35661     35662     35658     35660     35662     35658     35659
     35664     35668     35669     35665     35664     35667     35665     35664     35666
     35666     35664     35667     35668     35664     35667     35668     35664     35666
     35668     35664     35665     35670     35674     35675     35671     35670     35673
     35671     35670     35672     35672     35670     35673     35674     35670     35673
     35674     35670     35672     35674     35670     35671     35676     35680     35681
     35677     35676     35679     35677     35676     35678     35678     35676     35679
     35680     35676     35679     35680     35676     35678     35680     35676     35677
     35682     35686     35687     35683     35682     35685     35683     35682     35684
     35684     35682     35685     35686     35682     35685     35686     35682     35684
     35686     35682     35683     35688     35692     35693     35689     35688     35691
     35689     35688     35690     35690     35688     35691     35692     35688     35691
     35692     35688     35690     35692     35688     35689     35694     35698     35699
     35695     35694     35697     35695     35694     35696     35696     35694     35697
     35698     35694     35697     35698     35694     35696     35698     35694     35695
     35700     35704     35705     35701     35700     35703     35701     35700     35702
     35702     35700     35703     35704     35700     35703     35704     35700     35702
     35704     35700     35701     35706     35710     35711     35707     35706     35709
     35707     35706     35708     35708     35706     35709     35710     35706     35709
     35710     35706     35708     35710     35706     35707     35712     35716     35717
     35713     35712     35715     35713     35712     35714     35714     35712     35715
     35716     35712     35715     35716     35712     35714     35716     35712     35713
     35718     35722     35723     35719     35718     35721     35719     35718     35720
     35720     35718     35721     35722     35718     35721     35722     35718     35720
     35722     35718     35719     35724     35728     35729     35725     35724     35727
     35725     35724     35726     35726     35724     35727     35728     35724     35727
     35728     35724     35726     35728     35724     35725     35730     35734     35735
     35731     35730     35733     35731     35730     35732     35732     35730     35733
     35734     35730     35733     35734     35730     35732     35734     35730     35731
     35736     35740     35741     35737     35736     35739     35737     35736     35738
     35738     35736     35739     35740     35736     35739     35740     35736     35738
     35740     35736     35737     35742     35746     35747     35743     35742     35745
     35743     35742     35744     35744     35742     35745     35746     35742     35745
     35746     35742     35744     35746     35742     35743     35748     35752     35753
     35749     35748     35751     35749     35748     35750     35750     35748     35751
     35752     35748     35751     35752     35748     35750     35752     35748     35749
     35754     35758     35759     35755     35754     35757     35755     35754     35756
     35756     35754     35757     35758     35754     35757     35758     35754     35756
     35758     35754     35755     35760     35764     35765     35761     35760     35763
     35761     35760     35762     35762     35760     35763     35764     35760     35763
     35764     35760     35762     35764     35760     35761     35766     35770     35771
     35767     35766     35769     35767     35766     35768     35768     35766     35769
     35770     35766     35769     35770     35766     35768     35770     35766     35767
     35772     35776     35777     35773     35772     35775     35773     35772     35774
     35774     35772     35775     35776     35772     35775     35776     35772     35774
     35776     35772     35773     35778     35782     35783     35779     35778     35781
     35779     35778     35780     35780     35778     35781     35782     35778     35781
     35782     35778     35780     35782     35778     35779     35784     35788     35789
     35785     35784     35787     35785     35784     35786     35786     35784     35787
     35788     35784     35787     35788     35784     35786     35788     35784     35785
     35790     35794     35795     35791     35790     35793     35791     35790     35792
     35792     35790     35793     35794     35790     35793     35794     35790     35792
     35794     35790     35791     35796     35800     35801     35797     35796     35799
     35797     35796     35798     35798     35796     35799     35800     35796     35799
     35800     35796     35798     35800     35796     35797     35802     35806     35807
     35803     35802     35805     35803     35802     35804     35804     35802     35805
     35806     35802     35805     35806     35802     35804     35806     35802     35803
     35808     35812     35813     35809     35808     35811     35809     35808     35810
     35810     35808     35811     35812     35808     35811     35812     35808     35810
     35812     35808     35809     35814     35818     35819     35815     35814     35817
     35815     35814     35816     35816     35814     35817     35818     35814     35817
     35818     35814     35816     35818     35814     35815     35820     35824     35825
     35821     35820     35823     35821     35820     35822     35822     35820     35823
     35824     35820     35823     35824     35820     35822     35824     35820     35821
     35826     35830     35831     35827     35826     35829     35827     35826     35828
     35828     35826     35829     35830     35826     35829     35830     35826     35828
     35830     35826     35827     35832     35836     35837     35833     35832     35835
     35833     35832     35834     35834     35832     35835     35836     35832     35835
     35836     35832     35834     35836     35832     35833     35838     35842     35843
     35839     35838     35841     35839     35838     35840     35840     35838     35841
     35842     35838     35841     35842     35838     35840     35842     35838     35839
     35844     35848     35849     35845     35844     35847     35845     35844     35846
     35846     35844     35847     35848     35844     35847     35848     35844     35846
     35848     35844     35845     35850     35854     35855     35851     35850     35853
     35851     35850     35852     35852     35850     35853     35854     35850     35853
     35854     35850     35852     35854     35850     35851     35856     35860     35861
     35857     35856     35859     35857     35856     35858     35858     35856     35859
     35860     35856     35859     35860     35856     35858     35860     35856     35857
     35862     35866     35867     35863     35862     35865     35863     35862     35864
     35864     35862     35865     35866     35862     35865     35866     35862     35864
     35866     35862     35863     35868     35872     35873     35869     35868     35871
     35869     35868     35870     35870     35868     35871     35872     35868     35871
     35872     35868     35870     35872     35868     35869     35874     35878     35879
     35875     35874     35877     35875     35874     35876     35876     35874     35877
     35878     35874     35877     35878     35874     35876     35878     35874     35875
     35880     35884     35885     35881     35880     35883     35881     35880     35882
     35882     35880     35883     35884     35880     35883     35884     35880     35882
     35884     35880     35881     35886     35890     35891     35887     35886     35889
     35887     35886     35888     35888     35886     35889     35890     35886     35889
     35890     35886     35888     35890     35886     35887     35892     35896     35897
     35893     35892     35895     35893     35892     35894     35894     35892     35895
     35896     35892     35895     35896     35892     35894     35896     35892     35893
     35898     35902     35903     35899     35898     35901     35899     35898     35900
     35900     35898     35901     35902     35898     35901     35902     35898     35900
     35902     35898     35899     35904     35908     35909     35905     35904     35907
     35905     35904     35906     35906     35904     35907     35908     35904     35907
     35908     35904     35906     35908     35904     35905     35910     35914     35915
     35911     35910     35913     35911     35910     35912     35912     35910     35913
     35914     35910     35913     35914     35910     35912     35914     35910     35911
     35916     35920     35921     35917     35916     35919     35917     35916     35918
     35918     35916     35919     35920     35916     35919     35920     35916     35918
     35920     35916     35917     35922     35926     35927     35923     35922     35925
     35923     35922     35924     35924     35922     35925     35926     35922     35925
     35926     35922     35924     35926     35922     35923     35928     35932     35933
     35929     35928     35931     35929     35928     35930     35930     35928     35931
     35932     35928     35931     35932     35928     35930     35932     35928     35929
     35934     35938     35939     35935     35934     35937     35935     35934     35936
     35936     35934     35937     35938     35934     35937     35938     35934     35936
     35938     35934     35935     35940     35944     35945     35941     35940     35943
     35941     35940     35942     35942     35940     35943     35944     35940     35943
     35944     35940     35942     35944     35940     35941     35946     35950     35951
     35947     35946     35949     35947     35946     35948     35948     35946     35949
     35950     35946     35949     35950     35946     35948     35950     35946     35947
     35952     35956     35957     35953     35952     35955     35953     35952     35954
     35954     35952     35955     35956     35952     35955     35956     35952     35954
     35956     35952     35953     35958     35962     35963     35959     35958     35961
     35959     35958     35960     35960     35958     35961     35962     35958     35961
     35962     35958     35960     35962     35958     35959     35964     35968     35969
     35965     35964     35967     35965     35964     35966     35966     35964     35967
     35968     35964     35967     35968     35964     35966     35968     35964     35965
     35970     35974     35975     35971     35970     35973     35971     35970     35972
     35972     35970     35973     35974     35970     35973     35974     35970     35972
     35974     35970     35971     35976     35980     35981     35977     35976     35979
     35977     35976     35978     35978     35976     35979     35980     35976     35979
     35980     35976     35978     35980     35976     35977     35982     35986     35987
     35983     35982     35985     35983     35982     35984     35984     35982     35985
     35986     35982     35985     35986     35982     35984     35986     35982     35983
     35988     35992     35993     35989     35988     35991     35989     35988     35990
     35990     35988     35991     35992     35988     35991     35992     35988     35990
     35992     35988     35989     35994     35998     35999     35995     35994     35997
     35995     35994     35996     35996     35994     35997     35998     35994     35997
     35998     35994     35996     35998     35994     35995     36000     36004     36005
     36001     36000     36003     36001     36000     36002     36002     36000     36003
     36004     36000     36003     36004     36000     36002     36004     36000     36001
     36006     36010     36011     36007     36006     36009     36007     36006     36008
     36008     36006     36009     36010     36006     36009     36010     36006     36008
     36010     36006     36007     36012     36016     36017     36013     36012     36015
     36013     36012     36014     36014     36012     36015     36016     36012     36015
     36016     36012     36014     36016     36012     36013     36018     36022     36023
     36019     36018     36021     36019     36018     36020     36020     36018     36021
     36022     36018     36021     36022     36018     36020     36022     36018     36019
     36024     36028     36029     36025     36024     36027     36025     36024     36026
     36026     36024     36027     36028     36024     36027     36028     36024     36026
     36028     36024     36025     36030     36034     36035     36031     36030     36033
     36031     36030     36032     36032     36030     36033     36034     36030     36033
     36034     36030     36032     36034     36030     36031     36036     36040     36041
     36037     36036     36039     36037     36036     36038     36038     36036     36039
     36040     36036     36039     36040     36036     36038     36040     36036     36037
     36042     36046     36047     36043     36042     36045     36043     36042     36044
     36044     36042     36045     36046     36042     36045     36046     36042     36044
     36046     36042     36043     36048     36052     36053     36049     36048     36051
     36049     36048     36050     36050     36048     36051     36052     36048     36051
     36052     36048     36050     36052     36048     36049     36054     36058     36059
     36055     36054     36057     36055     36054     36056     36056     36054     36057
     36058     36054     36057     36058     36054     36056     36058     36054     36055
     36060     36064     36065     36061     36060     36063     36061     36060     36062
     36062     36060     36063     36064     36060     36063     36064     36060     36062
     36064     36060     36061     36066     36070     36071     36067     36066     36069
     36067     36066     36068     36068     36066     36069     36070     36066     36069
     36070     36066     36068     36070     36066     36067     36072     36076     36077
     36073     36072     36075     36073     36072     36074     36074     36072     36075
     36076     36072     36075     36076     36072     36074     36076     36072     36073
     36078     36082     36083     36079     36078     36081     36079     36078     36080
     36080     36078     36081     36082     36078     36081     36082     36078     36080
     36082     36078     36079     36084     36088     36089     36085     36084     36087
     36085     36084     36086     36086     36084     36087     36088     36084     36087
     36088     36084     36086     36088     36084     36085     36090     36094     36095
     36091     36090     36093     36091     36090     36092     36092     36090     36093
     36094     36090     36093     36094     36090     36092     36094     36090     36091
     36096     36100     36101     36097     36096     36099     36097     36096     36098
     36098     36096     36099     36100     36096     36099     36100     36096     36098
     36100     36096     36097     36102     36106     36107     36103     36102     36105
     36103     36102     36104     36104     36102     36105     36106     36102     36105
     36106     36102     36104     36106     36102     36103     36108     36112     36113
     36109     36108     36111     36109     36108     36110     36110     36108     36111
     36112     36108     36111     36112     36108     36110     36112     36108     36109
     36114     36118     36119     36115     36114     36117     36115     36114     36116
     36116     36114     36117     36118     36114     36117     36118     36114     36116
     36118     36114     36115     36120     36124     36125     36121     36120     36123
     36121     36120     36122     36122     36120     36123     36124     36120     36123
     36124     36120     36122     36124     36120     36121     36126     36130     36131
     36127     36126     36129     36127     36126     36128     36128     36126     36129
     36130     36126     36129     36130     36126     36128     36130     36126     36127
     36132     36136     36137     36133     36132     36135     36133     36132     36134
     36134     36132     36135     36136     36132     36135     36136     36132     36134
     36136     36132     36133     36138     36142     36143     36139     36138     36141
     36139     36138     36140     36140     36138     36141     36142     36138     36141
     36142     36138     36140     36142     36138     36139     36144     36148     36149
     36145     36144     36147     36145     36144     36146     36146     36144     36147
     36148     36144     36147     36148     36144     36146     36148     36144     36145
     36150     36154     36155     36151     36150     36153     36151     36150     36152
     36152     36150     36153     36154     36150     36153     36154     36150     36152
     36154     36150     36151     36156     36160     36161     36157     36156     36159
     36157     36156     36158     36158     36156     36159     36160     36156     36159
     36160     36156     36158     36160     36156     36157     36162     36166     36167
     36163     36162     36165     36163     36162     36164     36164     36162     36165
     36166     36162     36165     36166     36162     36164     36166     36162     36163
     36168     36172     36173     36169     36168     36171     36169     36168     36170
     36170     36168     36171     36172     36168     36171     36172     36168     36170
     36172     36168     36169     36174     36178     36179     36175     36174     36177
     36175     36174     36176     36176     36174     36177     36178     36174     36177
     36178     36174     36176     36178     36174     36175     36180     36184     36185
     36181     36180     36183     36181     36180     36182     36182     36180     36183
     36184     36180     36183     36184     36180     36182     36184     36180     36181
     36186     36190     36191     36187     36186     36189     36187     36186     36188
     36188     36186     36189     36190     36186     36189     36190     36186     36188
     36190     36186     36187     36192     36196     36197     36193     36192     36195
     36193     36192     36194     36194     36192     36195     36196     36192     36195
     36196     36192     36194     36196     36192     36193     36198     36202     36203
     36199     36198     36201     36199     36198     36200     36200     36198     36201
     36202     36198     36201     36202     36198     36200     36202     36198     36199
     36204     36208     36209     36205     36204     36207     36205     36204     36206
     36206     36204     36207     36208     36204     36207     36208     36204     36206
     36208     36204     36205     36210     36214     36215     36211     36210     36213
     36211     36210     36212     36212     36210     36213     36214     36210     36213
     36214     36210     36212     36214     36210     36211     36216     36220     36221
     36217     36216     36219     36217     36216     36218     36218     36216     36219
     36220     36216     36219     36220     36216     36218     36220     36216     36217
     36222     36226     36227     36223     36222     36225     36223     36222     36224
     36224     36222     36225     36226     36222     36225     36226     36222     36224
     36226     36222     36223     36228     36232     36233     36229     36228     36231
     36229     36228     36230     36230     36228     36231     36232     36228     36231
     36232     36228     36230     36232     36228     36229     36234     36238     36239
     36235     36234     36237     36235     36234     36236     36236     36234     36237
     36238     36234     36237     36238     36234     36236     36238     36234     36235
     36240     36244     36245     36241     36240     36243     36241     36240     36242
     36242     36240     36243     36244     36240     36243     36244     36240     36242
     36244     36240     36241     36246     36250     36251     36247     36246     36249
     36247     36246     36248     36248     36246     36249     36250     36246     36249
     36250     36246     36248     36250     36246     36247     36252     36256     36257
     36253     36252     36255     36253     36252     36254     36254     36252     36255
     36256     36252     36255     36256     36252     36254     36256     36252     36253
     36258     36262     36263     36259     36258     36261     36259     36258     36260
     36260     36258     36261     36262     36258     36261     36262     36258     36260
     36262     36258     36259     36264     36268     36269     36265     36264     36267
     36265     36264     36266     36266     36264     36267     36268     36264     36267
     36268     36264     36266     36268     36264     36265     36270     36274     36275
     36271     36270     36273     36271     36270     36272     36272     36270     36273
     36274     36270     36273     36274     36270     36272     36274     36270     36271
     36276     36280     36281     36277     36276     36279     36277     36276     36278
     36278     36276     36279     36280     36276     36279     36280     36276     36278
     36280     36276     36277     36282     36286     36287     36283     36282     36285
     36283     36282     36284     36284     36282     36285     36286     36282     36285
     36286     36282     36284     36286     36282     36283     36288     36292     36293
     36289     36288     36291     36289     36288     36290     36290     36288     36291
     36292     36288     36291     36292     36288     36290     36292     36288     36289
     36294     36298     36299     36295     36294     36297     36295     36294     36296
     36296     36294     36297     36298     36294     36297     36298     36294     36296
     36298     36294     36295     36300     36304     36305     36301     36300     36303
     36301     36300     36302     36302     36300     36303     36304     36300     36303
     36304     36300     36302     36304     36300     36301     36306     36310     36311
     36307     36306     36309     36307     36306     36308     36308     36306     36309
     36310     36306     36309     36310     36306     36308     36310     36306     36307
     36312     36316     36317     36313     36312     36315     36313     36312     36314
     36314     36312     36315     36316     36312     36315     36316     36312     36314
     36316     36312     36313     36318     36322     36323     36319     36318     36321
     36319     36318     36320     36320     36318     36321     36322     36318     36321
     36322     36318     36320     36322     36318     36319     36324     36328     36329
     36325     36324     36327     36325     36324     36326     36326     36324     36327
     36328     36324     36327     36328     36324     36326     36328     36324     36325
     36330     36334     36335     36331     36330     36333     36331     36330     36332
     36332     36330     36333     36334     36330     36333     36334     36330     36332
     36334     36330     36331     36336     36340     36341     36337     36336     36339
     36337     36336     36338     36338     36336     36339     36340     36336     36339
     36340     36336     36338     36340     36336     36337     36342     36346     36347
     36343     36342     36345     36343     36342     36344     36344     36342     36345
     36346     36342     36345     36346     36342     36344     36346     36342     36343
     36348     36352     36353     36349     36348     36351     36349     36348     36350
     36350     36348     36351     36352     36348     36351     36352     36348     36350
     36352     36348     36349     36354     36358     36359     36355     36354     36357
     36355     36354     36356     36356     36354     36357     36358     36354     36357
     36358     36354     36356     36358     36354     36355     36360     36364     36365
     36361     36360     36363     36361     36360     36362     36362     36360     36363
     36364     36360     36363     36364     36360     36362     36364     36360     36361
     36366     36370     36371     36367     36366     36369     36367     36366     36368
     36368     36366     36369     36370     36366     36369     36370     36366     36368
     36370     36366     36367     36372     36376     36377     36373     36372     36375
     36373     36372     36374     36374     36372     36375     36376     36372     36375
     36376     36372     36374     36376     36372     36373     36378     36382     36383
     36379     36378     36381     36379     36378     36380     36380     36378     36381
     36382     36378     36381     36382     36378     36380     36382     36378     36379
     36384     36388     36389     36385     36384     36387     36385     36384     36386
     36386     36384     36387     36388     36384     36387     36388     36384     36386
     36388     36384     36385     36390     36394     36395     36391     36390     36393
     36391     36390     36392     36392     36390     36393     36394     36390     36393
     36394     36390     36392     36394     36390     36391     36396     36400     36401
     36397     36396     36399     36397     36396     36398     36398     36396     36399
     36400     36396     36399     36400     36396     36398     36400     36396     36397
     36402     36406     36407     36403     36402     36405     36403     36402     36404
     36404     36402     36405     36406     36402     36405     36406     36402     36404
     36406     36402     36403     36408     36412     36413     36409     36408     36411
     36409     36408     36410     36410     36408     36411     36412     36408     36411
     36412     36408     36410     36412     36408     36409     36414     36418     36419
     36415     36414     36417     36415     36414     36416     36416     36414     36417
     36418     36414     36417     36418     36414     36416     36418     36414     36415
     36420     36424     36425     36421     36420     36423     36421     36420     36422
     36422     36420     36423     36424     36420     36423     36424     36420     36422
     36424     36420     36421     36426     36430     36431     36427     36426     36429
     36427     36426     36428     36428     36426     36429     36430     36426     36429
     36430     36426     36428     36430     36426     36427     36432     36436     36437
     36433     36432     36435     36433     36432     36434     36434     36432     36435
     36436     36432     36435     36436     36432     36434     36436     36432     36433
     36438     36442     36443     36439     36438     36441     36439     36438     36440
     36440     36438     36441     36442     36438     36441     36442     36438     36440
     36442     36438     36439     36444     36448     36449     36445     36444     36447
     36445     36444     36446     36446     36444     36447     36448     36444     36447
     36448     36444     36446     36448     36444     36445     36450     36454     36455
     36451     36450     36453     36451     36450     36452     36452     36450     36453
     36454     36450     36453     36454     36450     36452     36454     36450     36451
     36456     36460     36461     36457     36456     36459     36457     36456     36458
     36458     36456     36459     36460     36456     36459     36460     36456     36458
     36460     36456     36457     36462     36466     36467     36463     36462     36465
     36463     36462     36464     36464     36462     36465     36466     36462     36465
     36466     36462     36464     36466     36462     36463     36468     36472     36473
     36469     36468     36471     36469     36468     36470     36470     36468     36471
     36472     36468     36471     36472     36468     36470     36472     36468     36469
     36474     36478     36479     36475     36474     36477     36475     36474     36476
     36476     36474     36477     36478     36474     36477     36478     36474     36476
     36478     36474     36475     36480     36484     36485     36481     36480     36483
     36481     36480     36482     36482     36480     36483     36484     36480     36483
     36484     36480     36482     36484     36480     36481     36486     36490     36491
     36487     36486     36489     36487     36486     36488     36488     36486     36489
     36490     36486     36489     36490     36486     36488     36490     36486     36487
     36492     36496     36497     36493     36492     36495     36493     36492     36494
     36494     36492     36495     36496     36492     36495     36496     36492     36494
     36496     36492     36493     36498     36502     36503     36499     36498     36501
     36499     36498     36500     36500     36498     36501     36502     36498     36501
     36502     36498     36500     36502     36498     36499     36504     36508     36509
     36505     36504     36507     36505     36504     36506     36506     36504     36507
     36508     36504     36507     36508     36504     36506     36508     36504     36505
     36510     36514     36515     36511     36510     36513     36511     36510     36512
     36512     36510     36513     36514     36510     36513     36514     36510     36512
     36514     36510     36511     36516     36520     36521     36517     36516     36519
     36517     36516     36518     36518     36516     36519     36520     36516     36519
     36520     36516     36518     36520     36516     36517     36522     36526     36527
     36523     36522     36525     36523     36522     36524     36524     36522     36525
     36526     36522     36525     36526     36522     36524     36526     36522     36523
     36528     36532     36533     36529     36528     36531     36529     36528     36530
     36530     36528     36531     36532     36528     36531     36532     36528     36530
     36532     36528     36529     36534     36538     36539     36535     36534     36537
     36535     36534     36536     36536     36534     36537     36538     36534     36537
     36538     36534     36536     36538     36534     36535     36540     36544     36545
     36541     36540     36543     36541     36540     36542     36542     36540     36543
     36544     36540     36543     36544     36540     36542     36544     36540     36541
     36546     36550     36551     36547     36546     36549     36547     36546     36548
     36548     36546     36549     36550     36546     36549     36550     36546     36548
     36550     36546     36547     36552     36556     36557     36553     36552     36555
     36553     36552     36554     36554     36552     36555     36556     36552     36555
     36556     36552     36554     36556     36552     36553     36558     36562     36563
     36559     36558     36561     36559     36558     36560     36560     36558     36561
     36562     36558     36561     36562     36558     36560     36562     36558     36559
     36564     36568     36569     36565     36564     36567     36565     36564     36566
     36566     36564     36567     36568     36564     36567     36568     36564     36566
     36568     36564     36565     36570     36574     36575     36571     36570     36573
     36571     36570     36572     36572     36570     36573     36574     36570     36573
     36574     36570     36572     36574     36570     36571     36576     36580     36581
     36577     36576     36579     36577     36576     36578     36578     36576     36579
     36580     36576     36579     36580     36576     36578     36580     36576     36577
     36582     36586     36587     36583     36582     36585     36583     36582     36584
     36584     36582     36585     36586     36582     36585     36586     36582     36584
     36586     36582     36583     36588     36592     36593     36589     36588     36591
     36589     36588     36590     36590     36588     36591     36592     36588     36591
     36592     36588     36590     36592     36588     36589     36594     36598     36599
     36595     36594     36597     36595     36594     36596     36596     36594     36597
     36598     36594     36597     36598     36594     36596     36598     36594     36595
     36600     36604     36605     36601     36600     36603     36601     36600     36602
     36602     36600     36603     36604     36600     36603     36604     36600     36602
     36604     36600     36601     36606     36610     36611     36607     36606     36609
     36607     36606     36608     36608     36606     36609     36610     36606     36609
     36610     36606     36608     36610     36606     36607     36612     36616     36617
     36613     36612     36615     36613     36612     36614     36614     36612     36615
     36616     36612     36615     36616     36612     36614     36616     36612     36613
     36618     36622     36623     36619     36618     36621     36619     36618     36620
     36620     36618     36621     36622     36618     36621     36622     36618     36620
     36622     36618     36619     36624     36628     36629     36625     36624     36627
     36625     36624     36626     36626     36624     36627     36628     36624     36627
     36628     36624     36626     36628     36624     36625     36630     36634     36635
     36631     36630     36633     36631     36630     36632     36632     36630     36633
     36634     36630     36633     36634     36630     36632     36634     36630     36631
     36636     36640     36641     36637     36636     36639     36637     36636     36638
     36638     36636     36639     36640     36636     36639     36640     36636     36638
     36640     36636     36637     36642     36646     36647     36643     36642     36645
     36643     36642     36644     36644     36642     36645     36646     36642     36645
     36646     36642     36644     36646     36642     36643     36648     36652     36653
     36649     36648     36651     36649     36648     36650     36650     36648     36651
     36652     36648     36651     36652     36648     36650     36652     36648     36649
     36654     36658     36659     36655     36654     36657     36655     36654     36656
     36656     36654     36657     36658     36654     36657     36658     36654     36656
     36658     36654     36655     36660     36664     36665     36661     36660     36663
     36661     36660     36662     36662     36660     36663     36664     36660     36663
     36664     36660     36662     36664     36660     36661     36666     36670     36671
     36667     36666     36669     36667     36666     36668     36668     36666     36669
     36670     36666     36669     36670     36666     36668     36670     36666     36667
     36672     36676     36677     36673     36672     36675     36673     36672     36674
     36674     36672     36675     36676     36672     36675     36676     36672     36674
     36676     36672     36673     36678     36682     36683     36679     36678     36681
     36679     36678     36680     36680     36678     36681     36682     36678     36681
     36682     36678     36680     36682     36678     36679     36684     36688     36689
     36685     36684     36687     36685     36684     36686     36686     36684     36687
     36688     36684     36687     36688     36684     36686     36688     36684     36685
     36690     36694     36695     36691     36690     36693     36691     36690     36692
     36692     36690     36693     36694     36690     36693     36694     36690     36692
     36694     36690     36691     36696     36700     36701     36697     36696     36699
     36697     36696     36698     36698     36696     36699     36700     36696     36699
     36700     36696     36698     36700     36696     36697     36702     36706     36707
     36703     36702     36705     36703     36702     36704     36704     36702     36705
     36706     36702     36705     36706     36702     36704     36706     36702     36703
     36708     36712     36713     36709     36708     36711     36709     36708     36710
     36710     36708     36711     36712     36708     36711     36712     36708     36710
     36712     36708     36709     36714     36718     36719     36715     36714     36717
     36715     36714     36716     36716     36714     36717     36718     36714     36717
     36718     36714     36716     36718     36714     36715     36720     36724     36725
     36721     36720     36723     36721     36720     36722     36722     36720     36723
     36724     36720     36723     36724     36720     36722     36724     36720     36721
     36726     36730     36731     36727     36726     36729     36727     36726     36728
     36728     36726     36729     36730     36726     36729     36730     36726     36728
     36730     36726     36727     36732     36736     36737     36733     36732     36735
     36733     36732     36734     36734     36732     36735     36736     36732     36735
     36736     36732     36734     36736     36732     36733     36738     36742     36743
     36739     36738     36741     36739     36738     36740     36740     36738     36741
     36742     36738     36741     36742     36738     36740     36742     36738     36739
     36744     36748     36749     36745     36744     36747     36745     36744     36746
     36746     36744     36747     36748     36744     36747     36748     36744     36746
     36748     36744     36745     36750     36754     36755     36751     36750     36753
     36751     36750     36752     36752     36750     36753     36754     36750     36753
     36754     36750     36752     36754     36750     36751     36756     36760     36761
     36757     36756     36759     36757     36756     36758     36758     36756     36759
     36760     36756     36759     36760     36756     36758     36760     36756     36757
     36762     36766     36767     36763     36762     36765     36763     36762     36764
     36764     36762     36765     36766     36762     36765     36766     36762     36764
     36766     36762     36763     36768     36772     36773     36769     36768     36771
     36769     36768     36770     36770     36768     36771     36772     36768     36771
     36772     36768     36770     36772     36768     36769     36774     36778     36779
     36775     36774     36777     36775     36774     36776     36776     36774     36777
     36778     36774     36777     36778     36774     36776     36778     36774     36775
     36780     36784     36785     36781     36780     36783     36781     36780     36782
     36782     36780     36783     36784     36780     36783     36784     36780     36782
     36784     36780     36781     36786     36790     36791     36787     36786     36789
     36787     36786     36788     36788     36786     36789     36790     36786     36789
     36790     36786     36788     36790     36786     36787     36792     36796     36797
     36793     36792     36795     36793     36792     36794     36794     36792     36795
     36796     36792     36795     36796     36792     36794     36796     36792     36793
     36798     36802     36803     36799     36798     36801     36799     36798     36800
     36800     36798     36801     36802     36798     36801     36802     36798     36800
     36802     36798     36799     36804     36808     36809     36805     36804     36807
     36805     36804     36806     36806     36804     36807     36808     36804     36807
     36808     36804     36806     36808     36804     36805     36810     36814     36815
     36811     36810     36813     36811     36810     36812     36812     36810     36813
     36814     36810     36813     36814     36810     36812     36814     36810     36811
     36816     36820     36821     36817     36816     36819     36817     36816     36818
     36818     36816     36819     36820     36816     36819     36820     36816     36818
     36820     36816     36817     36822     36826     36827     36823     36822     36825
     36823     36822     36824     36824     36822     36825     36826     36822     36825
     36826     36822     36824     36826     36822     36823     36828     36832     36833
     36829     36828     36831     36829     36828     36830     36830     36828     36831
     36832     36828     36831     36832     36828     36830     36832     36828     36829
     36834     36838     36839     36835     36834     36837     36835     36834     36836
     36836     36834     36837     36838     36834     36837     36838     36834     36836
     36838     36834     36835     36840     36844     36845     36841     36840     36843
     36841     36840     36842     36842     36840     36843     36844     36840     36843
     36844     36840     36842     36844     36840     36841     36846     36850     36851
     36847     36846     36849     36847     36846     36848     36848     36846     36849
     36850     36846     36849     36850     36846     36848     36850     36846     36847
     36852     36856     36857     36853     36852     36855     36853     36852     36854
     36854     36852     36855     36856     36852     36855     36856     36852     36854
     36856     36852     36853     36858     36862     36863     36859     36858     36861
     36859     36858     36860     36860     36858     36861     36862     36858     36861
     36862     36858     36860     36862     36858     36859     36864     36868     36869
     36865     36864     36867     36865     36864     36866     36866     36864     36867
     36868     36864     36867     36868     36864     36866     36868     36864     36865
     36870     36874     36875     36871     36870     36873     36871     36870     36872
     36872     36870     36873     36874     36870     36873     36874     36870     36872
     36874     36870     36871     36876     36880     36881     36877     36876     36879
     36877     36876     36878     36878     36876     36879     36880     36876     36879
     36880     36876     36878     36880     36876     36877     36882     36886     36887
     36883     36882     36885     36883     36882     36884     36884     36882     36885
     36886     36882     36885     36886     36882     36884     36886     36882     36883
     36888     36892     36893     36889     36888     36891     36889     36888     36890
     36890     36888     36891     36892     36888     36891     36892     36888     36890
     36892     36888     36889     36894     36898     36899     36895     36894     36897
     36895     36894     36896     36896     36894     36897     36898     36894     36897
     36898     36894     36896     36898     36894     36895     36900     36904     36905
     36901     36900     36903     36901     36900     36902     36902     36900     36903
     36904     36900     36903     36904     36900     36902     36904     36900     36901
     36906     36910     36911     36907     36906     36909     36907     36906     36908
     36908     36906     36909     36910     36906     36909     36910     36906     36908
     36910     36906     36907     36912     36916     36917     36913     36912     36915
     36913     36912     36914     36914     36912     36915     36916     36912     36915
     36916     36912     36914     36916     36912     36913     36918     36922     36923
     36919     36918     36921     36919     36918     36920     36920     36918     36921
     36922     36918     36921     36922     36918     36920     36922     36918     36919
     36924     36928     36929     36925     36924     36927     36925     36924     36926
     36926     36924     36927     36928     36924     36927     36928     36924     36926
     36928     36924     36925     36930     36934     36935     36931     36930     36933
     36931     36930     36932     36932     36930     36933     36934     36930     36933
     36934     36930     36932     36934     36930     36931     36936     36940     36941
     36937     36936     36939     36937     36936     36938     36938     36936     36939
     36940     36936     36939     36940     36936     36938     36940     36936     36937
     36942     36946     36947     36943     36942     36945     36943     36942     36944
     36944     36942     36945     36946     36942     36945     36946     36942     36944
     36946     36942     36943     36948     36952     36953     36949     36948     36951
     36949     36948     36950     36950     36948     36951     36952     36948     36951
     36952     36948     36950     36952     36948     36949     36954     36958     36959
     36955     36954     36957     36955     36954     36956     36956     36954     36957
     36958     36954     36957     36958     36954     36956     36958     36954     36955
     36960     36964     36965     36961     36960     36963     36961     36960     36962
     36962     36960     36963     36964     36960     36963     36964     36960     36962
     36964     36960     36961     36966     36970     36971     36967     36966     36969
     36967     36966     36968     36968     36966     36969     36970     36966     36969
     36970     36966     36968     36970     36966     36967     36972     36976     36977
     36973     36972     36975     36973     36972     36974     36974     36972     36975
     36976     36972     36975     36976     36972     36974     36976     36972     36973
     36978     36982     36983     36979     36978     36981     36979     36978     36980
     36980     36978     36981     36982     36978     36981     36982     36978     36980
     36982     36978     36979     36984     36988     36989     36985     36984     36987
     36985     36984     36986     36986     36984     36987     36988     36984     36987
     36988     36984     36986     36988     36984     36985     36990     36994     36995
     36991     36990     36993     36991     36990     36992     36992     36990     36993
     36994     36990     36993     36994     36990     36992     36994     36990     36991
     36996     37000     37001     36997     36996     36999     36997     36996     36998
     36998     36996     36999     37000     36996     36999     37000     36996     36998
     37000     36996     36997     37002     37006     37007     37003     37002     37005
     37003     37002     37004     37004     37002     37005     37006     37002     37005
     37006     37002     37004     37006     37002     37003     37008     37012     37013
     37009     37008     37011     37009     37008     37010     37010     37008     37011
     37012     37008     37011     37012     37008     37010     37012     37008     37009
     37014     37018     37019     37015     37014     37017     37015     37014     37016
     37016     37014     37017     37018     37014     37017     37018     37014     37016
     37018     37014     37015     37020     37024     37025     37021     37020     37023
     37021     37020     37022     37022     37020     37023     37024     37020     37023
     37024     37020     37022     37024     37020     37021     37026     37030     37031
     37027     37026     37029     37027     37026     37028     37028     37026     37029
     37030     37026     37029     37030     37026     37028     37030     37026     37027
     37032     37036     37037     37033     37032     37035     37033     37032     37034
     37034     37032     37035     37036     37032     37035     37036     37032     37034
     37036     37032     37033     37038     37042     37043     37039     37038     37041
     37039     37038     37040     37040     37038     37041     37042     37038     37041
     37042     37038     37040     37042     37038     37039     37044     37048     37049
     37045     37044     37047     37045     37044     37046     37046     37044     37047
     37048     37044     37047     37048     37044     37046     37048     37044     37045
     37050     37054     37055     37051     37050     37053     37051     37050     37052
     37052     37050     37053     37054     37050     37053     37054     37050     37052
     37054     37050     37051     37056     37060     37061     37057     37056     37059
     37057     37056     37058     37058     37056     37059     37060     37056     37059
     37060     37056     37058     37060     37056     37057     37062     37066     37067
     37063     37062     37065     37063     37062     37064     37064     37062     37065
     37066     37062     37065     37066     37062     37064     37066     37062     37063
     37068     37072     37073     37069     37068     37071     37069     37068     37070
     37070     37068     37071     37072     37068     37071     37072     37068     37070
     37072     37068     37069     37074     37078     37079     37075     37074     37077
     37075     37074     37076     37076     37074     37077     37078     37074     37077
     37078     37074     37076     37078     37074     37075     37080     37084     37085
     37081     37080     37083     37081     37080     37082     37082     37080     37083
     37084     37080     37083     37084     37080     37082     37084     37080     37081
     37086     37090     37091     37087     37086     37089     37087     37086     37088
     37088     37086     37089     37090     37086     37089     37090     37086     37088
     37090     37086     37087     37092     37096     37097     37093     37092     37095
     37093     37092     37094     37094     37092     37095     37096     37092     37095
     37096     37092     37094     37096     37092     37093     37098     37102     37103
     37099     37098     37101     37099     37098     37100     37100     37098     37101
     37102     37098     37101     37102     37098     37100     37102     37098     37099
     37104     37108     37109     37105     37104     37107     37105     37104     37106
     37106     37104     37107     37108     37104     37107     37108     37104     37106
     37108     37104     37105     37110     37114     37115     37111     37110     37113
     37111     37110     37112     37112     37110     37113     37114     37110     37113
     37114     37110     37112     37114     37110     37111     37116     37120     37121
     37117     37116     37119     37117     37116     37118     37118     37116     37119
     37120     37116     37119     37120     37116     37118     37120     37116     37117
     37122     37126     37127     37123     37122     37125     37123     37122     37124
     37124     37122     37125     37126     37122     37125     37126     37122     37124
     37126     37122     37123     37128     37132     37133     37129     37128     37131
     37129     37128     37130     37130     37128     37131     37132     37128     37131
     37132     37128     37130     37132     37128     37129     37134     37138     37139
     37135     37134     37137     37135     37134     37136     37136     37134     37137
     37138     37134     37137     37138     37134     37136     37138     37134     37135
     37140     37144     37145     37141     37140     37143     37141     37140     37142
     37142     37140     37143     37144     37140     37143     37144     37140     37142
     37144     37140     37141     37146     37150     37151     37147     37146     37149
     37147     37146     37148     37148     37146     37149     37150     37146     37149
     37150     37146     37148     37150     37146     37147     37152     37156     37157
     37153     37152     37155     37153     37152     37154     37154     37152     37155
     37156     37152     37155     37156     37152     37154     37156     37152     37153
     37158     37162     37163     37159     37158     37161     37159     37158     37160
     37160     37158     37161     37162     37158     37161     37162     37158     37160
     37162     37158     37159     37164     37168     37169     37165     37164     37167
     37165     37164     37166     37166     37164     37167     37168     37164     37167
     37168     37164     37166     37168     37164     37165     37170     37174     37175
     37171     37170     37173     37171     37170     37172     37172     37170     37173
     37174     37170     37173     37174     37170     37172     37174     37170     37171
     37176     37180     37181     37177     37176     37179     37177     37176     37178
     37178     37176     37179     37180     37176     37179     37180     37176     37178
     37180     37176     37177     37182     37186     37187     37183     37182     37185
     37183     37182     37184     37184     37182     37185     37186     37182     37185
     37186     37182     37184     37186     37182     37183     37188     37192     37193
     37189     37188     37191     37189     37188     37190     37190     37188     37191
     37192     37188     37191     37192     37188     37190     37192     37188     37189
     37194     37198     37199     37195     37194     37197     37195     37194     37196
     37196     37194     37197     37198     37194     37197     37198     37194     37196
     37198     37194     37195     37200     37204     37205     37201     37200     37203
     37201     37200     37202     37202     37200     37203     37204     37200     37203
     37204     37200     37202     37204     37200     37201     37206     37210     37211
     37207     37206     37209     37207     37206     37208     37208     37206     37209
     37210     37206     37209     37210     37206     37208     37210     37206     37207
     37212     37216     37217     37213     37212     37215     37213     37212     37214
     37214     37212     37215     37216     37212     37215     37216     37212     37214
     37216     37212     37213     37218     37222     37223     37219     37218     37221
     37219     37218     37220     37220     37218     37221     37222     37218     37221
     37222     37218     37220     37222     37218     37219     37224     37228     37229
     37225     37224     37227     37225     37224     37226     37226     37224     37227
     37228     37224     37227     37228     37224     37226     37228     37224     37225
     37230     37234     37235     37231     37230     37233     37231     37230     37232
     37232     37230     37233     37234     37230     37233     37234     37230     37232
     37234     37230     37231     37236     37240     37241     37237     37236     37239
     37237     37236     37238     37238     37236     37239     37240     37236     37239
     37240     37236     37238     37240     37236     37237     37242     37246     37247
     37243     37242     37245     37243     37242     37244     37244     37242     37245
     37246     37242     37245     37246     37242     37244     37246     37242     37243
     37248     37252     37253     37249     37248     37251     37249     37248     37250
     37250     37248     37251     37252     37248     37251     37252     37248     37250
     37252     37248     37249     37254     37258     37259     37255     37254     37257
     37255     37254     37256     37256     37254     37257     37258     37254     37257
     37258     37254     37256     37258     37254     37255     37260     37264     37265
     37261     37260     37263     37261     37260     37262     37262     37260     37263
     37264     37260     37263     37264     37260     37262     37264     37260     37261
     37266     37270     37271     37267     37266     37269     37267     37266     37268
     37268     37266     37269     37270     37266     37269     37270     37266     37268
     37270     37266     37267     37272     37276     37277     37273     37272     37275
     37273     37272     37274     37274     37272     37275     37276     37272     37275
     37276     37272     37274     37276     37272     37273     37278     37282     37283
     37279     37278     37281     37279     37278     37280     37280     37278     37281
     37282     37278     37281     37282     37278     37280     37282     37278     37279
     37284     37288     37289     37285     37284     37287     37285     37284     37286
     37286     37284     37287     37288     37284     37287     37288     37284     37286
     37288     37284     37285     37290     37294     37295     37291     37290     37293
     37291     37290     37292     37292     37290     37293     37294     37290     37293
     37294     37290     37292     37294     37290     37291     37296     37300     37301
     37297     37296     37299     37297     37296     37298     37298     37296     37299
     37300     37296     37299     37300     37296     37298     37300     37296     37297
     37302     37306     37307     37303     37302     37305     37303     37302     37304
     37304     37302     37305     37306     37302     37305     37306     37302     37304
     37306     37302     37303     37308     37312     37313     37309     37308     37311
     37309     37308     37310     37310     37308     37311     37312     37308     37311
     37312     37308     37310     37312     37308     37309     37314     37318     37319
     37315     37314     37317     37315     37314     37316     37316     37314     37317
     37318     37314     37317     37318     37314     37316     37318     37314     37315
     37320     37324     37325     37321     37320     37323     37321     37320     37322
     37322     37320     37323     37324     37320     37323     37324     37320     37322
     37324     37320     37321     37326     37330     37331     37327     37326     37329
     37327     37326     37328     37328     37326     37329     37330     37326     37329
     37330     37326     37328     37330     37326     37327     37332     37336     37337
     37333     37332     37335     37333     37332     37334     37334     37332     37335
     37336     37332     37335     37336     37332     37334     37336     37332     37333
     37338     37342     37343     37339     37338     37341     37339     37338     37340
     37340     37338     37341     37342     37338     37341     37342     37338     37340
     37342     37338     37339     37344     37348     37349     37345     37344     37347
     37345     37344     37346     37346     37344     37347     37348     37344     37347
     37348     37344     37346     37348     37344     37345     37350     37354     37355
     37351     37350     37353     37351     37350     37352     37352     37350     37353
     37354     37350     37353     37354     37350     37352     37354     37350     37351
     37356     37360     37361     37357     37356     37359     37357     37356     37358
     37358     37356     37359     37360     37356     37359     37360     37356     37358
     37360     37356     37357     37362     37366     37367     37363     37362     37365
     37363     37362     37364     37364     37362     37365     37366     37362     37365
     37366     37362     37364     37366     37362     37363     37368     37372     37373
     37369     37368     37371     37369     37368     37370     37370     37368     37371
     37372     37368     37371     37372     37368     37370     37372     37368     37369
     37374     37378     37379     37375     37374     37377     37375     37374     37376
     37376     37374     37377     37378     37374     37377     37378     37374     37376
     37378     37374     37375     37380     37384     37385     37381     37380     37383
     37381     37380     37382     37382     37380     37383     37384     37380     37383
     37384     37380     37382     37384     37380     37381     37386     37390     37391
     37387     37386     37389     37387     37386     37388     37388     37386     37389
     37390     37386     37389     37390     37386     37388     37390     37386     37387
     37392     37396     37397     37393     37392     37395     37393     37392     37394
     37394     37392     37395     37396     37392     37395     37396     37392     37394
     37396     37392     37393     37398     37402     37403     37399     37398     37401
     37399     37398     37400     37400     37398     37401     37402     37398     37401
     37402     37398     37400     37402     37398     37399     37404     37408     37409
     37405     37404     37407     37405     37404     37406     37406     37404     37407
     37408     37404     37407     37408     37404     37406     37408     37404     37405
     37410     37414     37415     37411     37410     37413     37411     37410     37412
     37412     37410     37413     37414     37410     37413     37414     37410     37412
     37414     37410     37411     37416     37420     37421     37417     37416     37419
     37417     37416     37418     37418     37416     37419     37420     37416     37419
     37420     37416     37418     37420     37416     37417     37422     37426     37427
     37423     37422     37425     37423     37422     37424     37424     37422     37425
     37426     37422     37425     37426     37422     37424     37426     37422     37423
     37428     37432     37433     37429     37428     37431     37429     37428     37430
     37430     37428     37431     37432     37428     37431     37432     37428     37430
     37432     37428     37429     37434     37438     37439     37435     37434     37437
     37435     37434     37436     37436     37434     37437     37438     37434     37437
     37438     37434     37436     37438     37434     37435     37440     37444     37445
     37441     37440     37443     37441     37440     37442     37442     37440     37443
     37444     37440     37443     37444     37440     37442     37444     37440     37441
     37446     37450     37451     37447     37446     37449     37447     37446     37448
     37448     37446     37449     37450     37446     37449     37450     37446     37448
     37450     37446     37447     37452     37456     37457     37453     37452     37455
     37453     37452     37454     37454     37452     37455     37456     37452     37455
     37456     37452     37454     37456     37452     37453     37458     37462     37463
     37459     37458     37461     37459     37458     37460     37460     37458     37461
     37462     37458     37461     37462     37458     37460     37462     37458     37459
     37464     37468     37469     37465     37464     37467     37465     37464     37466
     37466     37464     37467     37468     37464     37467     37468     37464     37466
     37468     37464     37465     37470     37474     37475     37471     37470     37473
     37471     37470     37472     37472     37470     37473     37474     37470     37473
     37474     37470     37472     37474     37470     37471     37476     37480     37481
     37477     37476     37479     37477     37476     37478     37478     37476     37479
     37480     37476     37479     37480     37476     37478     37480     37476     37477
     37482     37486     37487     37483     37482     37485     37483     37482     37484
     37484     37482     37485     37486     37482     37485     37486     37482     37484
     37486     37482     37483     37488     37492     37493     37489     37488     37491
     37489     37488     37490     37490     37488     37491     37492     37488     37491
     37492     37488     37490     37492     37488     37489     37494     37498     37499
     37495     37494     37497     37495     37494     37496     37496     37494     37497
     37498     37494     37497     37498     37494     37496     37498     37494     37495
     37500     37504     37505     37501     37500     37503     37501     37500     37502
     37502     37500     37503     37504     37500     37503     37504     37500     37502
     37504     37500     37501     37506     37510     37511     37507     37506     37509
     37507     37506     37508     37508     37506     37509     37510     37506     37509
     37510     37506     37508     37510     37506     37507     37512     37516     37517
     37513     37512     37515     37513     37512     37514     37514     37512     37515
     37516     37512     37515     37516     37512     37514     37516     37512     37513
     37518     37522     37523     37519     37518     37521     37519     37518     37520
     37520     37518     37521     37522     37518     37521     37522     37518     37520
     37522     37518     37519     37524     37528     37529     37525     37524     37527
     37525     37524     37526     37526     37524     37527     37528     37524     37527
     37528     37524     37526     37528     37524     37525     37530     37534     37535
     37531     37530     37533     37531     37530     37532     37532     37530     37533
     37534     37530     37533     37534     37530     37532     37534     37530     37531
     37536     37540     37541     37537     37536     37539     37537     37536     37538
     37538     37536     37539     37540     37536     37539     37540     37536     37538
     37540     37536     37537     37542     37546     37547     37543     37542     37545
     37543     37542     37544     37544     37542     37545     37546     37542     37545
     37546     37542     37544     37546     37542     37543     37548     37552     37553
     37549     37548     37551     37549     37548     37550     37550     37548     37551
     37552     37548     37551     37552     37548     37550     37552     37548     37549
     37554     37558     37559     37555     37554     37557     37555     37554     37556
     37556     37554     37557     37558     37554     37557     37558     37554     37556
     37558     37554     37555     37560     37564     37565     37561     37560     37563
     37561     37560     37562     37562     37560     37563     37564     37560     37563
     37564     37560     37562     37564     37560     37561     37566     37570     37571
     37567     37566     37569     37567     37566     37568     37568     37566     37569
     37570     37566     37569     37570     37566     37568     37570     37566     37567
     37572     37576     37577     37573     37572     37575     37573     37572     37574
     37574     37572     37575     37576     37572     37575     37576     37572     37574
     37576     37572     37573     37578     37582     37583     37579     37578     37581
     37579     37578     37580     37580     37578     37581     37582     37578     37581
     37582     37578     37580     37582     37578     37579     37584     37588     37589
     37585     37584     37587     37585     37584     37586     37586     37584     37587
     37588     37584     37587     37588     37584     37586     37588     37584     37585
     37590     37594     37595     37591     37590     37593     37591     37590     37592
     37592     37590     37593     37594     37590     37593     37594     37590     37592
     37594     37590     37591     37596     37600     37601     37597     37596     37599
     37597     37596     37598     37598     37596     37599     37600     37596     37599
     37600     37596     37598     37600     37596     37597     37602     37606     37607
     37603     37602     37605     37603     37602     37604     37604     37602     37605
     37606     37602     37605     37606     37602     37604     37606     37602     37603
     37608     37612     37613     37609     37608     37611     37609     37608     37610
     37610     37608     37611     37612     37608     37611     37612     37608     37610
     37612     37608     37609     37614     37618     37619     37615     37614     37617
     37615     37614     37616     37616     37614     37617     37618     37614     37617
     37618     37614     37616     37618     37614     37615     37620     37624     37625
     37621     37620     37623     37621     37620     37622     37622     37620     37623
     37624     37620     37623     37624     37620     37622     37624     37620     37621
     37626     37630     37631     37627     37626     37629     37627     37626     37628
     37628     37626     37629     37630     37626     37629     37630     37626     37628
     37630     37626     37627     37632     37636     37637     37633     37632     37635
     37633     37632     37634     37634     37632     37635     37636     37632     37635
     37636     37632     37634     37636     37632     37633     37638     37642     37643
     37639     37638     37641     37639     37638     37640     37640     37638     37641
     37642     37638     37641     37642     37638     37640     37642     37638     37639
     37644     37648     37649     37645     37644     37647     37645     37644     37646
     37646     37644     37647     37648     37644     37647     37648     37644     37646
     37648     37644     37645     37650     37654     37655     37651     37650     37653
     37651     37650     37652     37652     37650     37653     37654     37650     37653
     37654     37650     37652     37654     37650     37651     37656     37660     37661
     37657     37656     37659     37657     37656     37658     37658     37656     37659
     37660     37656     37659     37660     37656     37658     37660     37656     37657
     37662     37666     37667     37663     37662     37665     37663     37662     37664
     37664     37662     37665     37666     37662     37665     37666     37662     37664
     37666     37662     37663     37668     37672     37673     37669     37668     37671
     37669     37668     37670     37670     37668     37671     37672     37668     37671
     37672     37668     37670     37672     37668     37669     37674     37678     37679
     37675     37674     37677     37675     37674     37676     37676     37674     37677
     37678     37674     37677     37678     37674     37676     37678     37674     37675
     37680     37684     37685     37681     37680     37683     37681     37680     37682
     37682     37680     37683     37684     37680     37683     37684     37680     37682
     37684     37680     37681     37686     37690     37691     37687     37686     37689
     37687     37686     37688     37688     37686     37689     37690     37686     37689
     37690     37686     37688     37690     37686     37687     37692     37696     37697
     37693     37692     37695     37693     37692     37694     37694     37692     37695
     37696     37692     37695     37696     37692     37694     37696     37692     37693
     37698     37702     37703     37699     37698     37701     37699     37698     37700
     37700     37698     37701     37702     37698     37701     37702     37698     37700
     37702     37698     37699     37704     37708     37709     37705     37704     37707
     37705     37704     37706     37706     37704     37707     37708     37704     37707
     37708     37704     37706     37708     37704     37705     37710     37714     37715
     37711     37710     37713     37711     37710     37712     37712     37710     37713
     37714     37710     37713     37714     37710     37712     37714     37710     37711
     37716     37720     37721     37717     37716     37719     37717     37716     37718
     37718     37716     37719     37720     37716     37719     37720     37716     37718
     37720     37716     37717     37722     37726     37727     37723     37722     37725
     37723     37722     37724     37724     37722     37725     37726     37722     37725
     37726     37722     37724     37726     37722     37723     37728     37732     37733
     37729     37728     37731     37729     37728     37730     37730     37728     37731
     37732     37728     37731     37732     37728     37730     37732     37728     37729
     37734     37738     37739     37735     37734     37737     37735     37734     37736
     37736     37734     37737     37738     37734     37737     37738     37734     37736
     37738     37734     37735     37740     37744     37745     37741     37740     37743
     37741     37740     37742     37742     37740     37743     37744     37740     37743
     37744     37740     37742     37744     37740     37741     37746     37750     37751
     37747     37746     37749     37747     37746     37748     37748     37746     37749
     37750     37746     37749     37750     37746     37748     37750     37746     37747
     37752     37756     37757     37753     37752     37755     37753     37752     37754
     37754     37752     37755     37756     37752     37755     37756     37752     37754
     37756     37752     37753     37758     37762     37763     37759     37758     37761
     37759     37758     37760     37760     37758     37761     37762     37758     37761
     37762     37758     37760     37762     37758     37759     37764     37768     37769
     37765     37764     37767     37765     37764     37766     37766     37764     37767
     37768     37764     37767     37768     37764     37766     37768     37764     37765
     37770     37774     37775     37771     37770     37773     37771     37770     37772
     37772     37770     37773     37774     37770     37773     37774     37770     37772
     37774     37770     37771     37776     37780     37781     37777     37776     37779
     37777     37776     37778     37778     37776     37779     37780     37776     37779
     37780     37776     37778     37780     37776     37777     37782     37786     37787
     37783     37782     37785     37783     37782     37784     37784     37782     37785
     37786     37782     37785     37786     37782     37784     37786     37782     37783
     37788     37792     37793     37789     37788     37791     37789     37788     37790
     37790     37788     37791     37792     37788     37791     37792     37788     37790
     37792     37788     37789     37794     37798     37799     37795     37794     37797
     37795     37794     37796     37796     37794     37797     37798     37794     37797
     37798     37794     37796     37798     37794     37795     37800     37804     37805
     37801     37800     37803     37801     37800     37802     37802     37800     37803
     37804     37800     37803     37804     37800     37802     37804     37800     37801
     37806     37810     37811     37807     37806     37809     37807     37806     37808
     37808     37806     37809     37810     37806     37809     37810     37806     37808
     37810     37806     37807     37812     37816     37817     37813     37812     37815
     37813     37812     37814     37814     37812     37815     37816     37812     37815
     37816     37812     37814     37816     37812     37813     37818     37822     37823
     37819     37818     37821     37819     37818     37820     37820     37818     37821
     37822     37818     37821     37822     37818     37820     37822     37818     37819
     37824     37828     37829     37825     37824     37827     37825     37824     37826
     37826     37824     37827     37828     37824     37827     37828     37824     37826
     37828     37824     37825     37830     37834     37835     37831     37830     37833
     37831     37830     37832     37832     37830     37833     37834     37830     37833
     37834     37830     37832     37834     37830     37831     37836     37840     37841
     37837     37836     37839     37837     37836     37838     37838     37836     37839
     37840     37836     37839     37840     37836     37838     37840     37836     37837
     37842     37846     37847     37843     37842     37845     37843     37842     37844
     37844     37842     37845     37846     37842     37845     37846     37842     37844
     37846     37842     37843     37848     37852     37853     37849     37848     37851
     37849     37848     37850     37850     37848     37851     37852     37848     37851
     37852     37848     37850     37852     37848     37849     37854     37858     37859
     37855     37854     37857     37855     37854     37856     37856     37854     37857
     37858     37854     37857     37858     37854     37856     37858     37854     37855
     37860     37864     37865     37861     37860     37863     37861     37860     37862
     37862     37860     37863     37864     37860     37863     37864     37860     37862
     37864     37860     37861     37866     37870     37871     37867     37866     37869
     37867     37866     37868     37868     37866     37869     37870     37866     37869
     37870     37866     37868     37870     37866     37867     37872     37876     37877
     37873     37872     37875     37873     37872     37874     37874     37872     37875
     37876     37872     37875     37876     37872     37874     37876     37872     37873
     37878     37882     37883     37879     37878     37881     37879     37878     37880
     37880     37878     37881     37882     37878     37881     37882     37878     37880
     37882     37878     37879     37884     37888     37889     37885     37884     37887
     37885     37884     37886     37886     37884     37887     37888     37884     37887
     37888     37884     37886     37888     37884     37885     37890     37894     37895
     37891     37890     37893     37891     37890     37892     37892     37890     37893
     37894     37890     37893     37894     37890     37892     37894     37890     37891
     37896     37900     37901     37897     37896     37899     37897     37896     37898
     37898     37896     37899     37900     37896     37899     37900     37896     37898
     37900     37896     37897     37902     37906     37907     37903     37902     37905
     37903     37902     37904     37904     37902     37905     37906     37902     37905
     37906     37902     37904     37906     37902     37903     37908     37912     37913
     37909     37908     37911     37909     37908     37910     37910     37908     37911
     37912     37908     37911     37912     37908     37910     37912     37908     37909
     37914     37918     37919     37915     37914     37917     37915     37914     37916
     37916     37914     37917     37918     37914     37917     37918     37914     37916
     37918     37914     37915     37920     37924     37925     37921     37920     37923
     37921     37920     37922     37922     37920     37923     37924     37920     37923
     37924     37920     37922     37924     37920     37921     37926     37930     37931
     37927     37926     37929     37927     37926     37928     37928     37926     37929
     37930     37926     37929     37930     37926     37928     37930     37926     37927
     37932     37936     37937     37933     37932     37935     37933     37932     37934
     37934     37932     37935     37936     37932     37935     37936     37932     37934
     37936     37932     37933     37938     37942     37943     37939     37938     37941
     37939     37938     37940     37940     37938     37941     37942     37938     37941
     37942     37938     37940     37942     37938     37939     37944     37948     37949
     37945     37944     37947     37945     37944     37946     37946     37944     37947
     37948     37944     37947     37948     37944     37946     37948     37944     37945
     37950     37954     37955     37951     37950     37953     37951     37950     37952
     37952     37950     37953     37954     37950     37953     37954     37950     37952
     37954     37950     37951     37956     37960     37961     37957     37956     37959
     37957     37956     37958     37958     37956     37959     37960     37956     37959
     37960     37956     37958     37960     37956     37957     37962     37966     37967
     37963     37962     37965     37963     37962     37964     37964     37962     37965
     37966     37962     37965     37966     37962     37964     37966     37962     37963
     37968     37972     37973     37969     37968     37971     37969     37968     37970
     37970     37968     37971     37972     37968     37971     37972     37968     37970
     37972     37968     37969     37974     37978     37979     37975     37974     37977
     37975     37974     37976     37976     37974     37977     37978     37974     37977
     37978     37974     37976     37978     37974     37975     37980     37984     37985
     37981     37980     37983     37981     37980     37982     37982     37980     37983
     37984     37980     37983     37984     37980     37982     37984     37980     37981
     37986     37990     37991     37987     37986     37989     37987     37986     37988
     37988     37986     37989     37990     37986     37989     37990     37986     37988
     37990     37986     37987     37992     37996     37997     37993     37992     37995
     37993     37992     37994     37994     37992     37995     37996     37992     37995
     37996     37992     37994     37996     37992     37993     37998     38002     38003
     37999     37998     38001     37999     37998     38000     38000     37998     38001
     38002     37998     38001     38002     37998     38000     38002     37998     37999
     38004     38008     38009     38005     38004     38007     38005     38004     38006
     38006     38004     38007     38008     38004     38007     38008     38004     38006
     38008     38004     38005     38010     38014     38015     38011     38010     38013
     38011     38010     38012     38012     38010     38013     38014     38010     38013
     38014     38010     38012     38014     38010     38011     38016     38020     38021
     38017     38016     38019     38017     38016     38018     38018     38016     38019
     38020     38016     38019     38020     38016     38018     38020     38016     38017
     38022     38026     38027     38023     38022     38025     38023     38022     38024
     38024     38022     38025     38026     38022     38025     38026     38022     38024
     38026     38022     38023     38028     38032     38033     38029     38028     38031
     38029     38028     38030     38030     38028     38031     38032     38028     38031
     38032     38028     38030     38032     38028     38029     38034     38038     38039
     38035     38034     38037     38035     38034     38036     38036     38034     38037
     38038     38034     38037     38038     38034     38036     38038     38034     38035
     38040     38044     38045     38041     38040     38043     38041     38040     38042
     38042     38040     38043     38044     38040     38043     38044     38040     38042
     38044     38040     38041     38046     38050     38051     38047     38046     38049
     38047     38046     38048     38048     38046     38049     38050     38046     38049
     38050     38046     38048     38050     38046     38047     38052     38056     38057
     38053     38052     38055     38053     38052     38054     38054     38052     38055
     38056     38052     38055     38056     38052     38054     38056     38052     38053
     38058     38062     38063     38059     38058     38061     38059     38058     38060
     38060     38058     38061     38062     38058     38061     38062     38058     38060
     38062     38058     38059     38064     38068     38069     38065     38064     38067
     38065     38064     38066     38066     38064     38067     38068     38064     38067
     38068     38064     38066     38068     38064     38065     38070     38074     38075
     38071     38070     38073     38071     38070     38072     38072     38070     38073
     38074     38070     38073     38074     38070     38072     38074     38070     38071
     38076     38080     38081     38077     38076     38079     38077     38076     38078
     38078     38076     38079     38080     38076     38079     38080     38076     38078
     38080     38076     38077     38082     38086     38087     38083     38082     38085
     38083     38082     38084     38084     38082     38085     38086     38082     38085
     38086     38082     38084     38086     38082     38083     38088     38092     38093
     38089     38088     38091     38089     38088     38090     38090     38088     38091
     38092     38088     38091     38092     38088     38090     38092     38088     38089
     38094     38098     38099     38095     38094     38097     38095     38094     38096
     38096     38094     38097     38098     38094     38097     38098     38094     38096
     38098     38094     38095     38100     38104     38105     38101     38100     38103
     38101     38100     38102     38102     38100     38103     38104     38100     38103
     38104     38100     38102     38104     38100     38101     38106     38110     38111
     38107     38106     38109     38107     38106     38108     38108     38106     38109
     38110     38106     38109     38110     38106     38108     38110     38106     38107
     38112     38116     38117     38113     38112     38115     38113     38112     38114
     38114     38112     38115     38116     38112     38115     38116     38112     38114
     38116     38112     38113     38118     38122     38123     38119     38118     38121
     38119     38118     38120     38120     38118     38121     38122     38118     38121
     38122     38118     38120     38122     38118     38119     38124     38128     38129
     38125     38124     38127     38125     38124     38126     38126     38124     38127
     38128     38124     38127     38128     38124     38126     38128     38124     38125
     38130     38134     38135     38131     38130     38133     38131     38130     38132
     38132     38130     38133     38134     38130     38133     38134     38130     38132
     38134     38130     38131     38136     38140     38141     38137     38136     38139
     38137     38136     38138     38138     38136     38139     38140     38136     38139
     38140     38136     38138     38140     38136     38137     38142     38146     38147
     38143     38142     38145     38143     38142     38144     38144     38142     38145
     38146     38142     38145     38146     38142     38144     38146     38142     38143
     38148     38152     38153     38149     38148     38151     38149     38148     38150
     38150     38148     38151     38152     38148     38151     38152     38148     38150
     38152     38148     38149     38154     38158     38159     38155     38154     38157
     38155     38154     38156     38156     38154     38157     38158     38154     38157
     38158     38154     38156     38158     38154     38155     38160     38164     38165
     38161     38160     38163     38161     38160     38162     38162     38160     38163
     38164     38160     38163     38164     38160     38162     38164     38160     38161
     38166     38170     38171     38167     38166     38169     38167     38166     38168
     38168     38166     38169     38170     38166     38169     38170     38166     38168
     38170     38166     38167     38172     38176     38177     38173     38172     38175
     38173     38172     38174     38174     38172     38175     38176     38172     38175
     38176     38172     38174     38176     38172     38173     38178     38182     38183
     38179     38178     38181     38179     38178     38180     38180     38178     38181
     38182     38178     38181     38182     38178     38180     38182     38178     38179
     38184     38188     38189     38185     38184     38187     38185     38184     38186
     38186     38184     38187     38188     38184     38187     38188     38184     38186
     38188     38184     38185     38190     38194     38195     38191     38190     38193
     38191     38190     38192     38192     38190     38193     38194     38190     38193
     38194     38190     38192     38194     38190     38191     38196     38200     38201
     38197     38196     38199     38197     38196     38198     38198     38196     38199
     38200     38196     38199     38200     38196     38198     38200     38196     38197
     38202     38206     38207     38203     38202     38205     38203     38202     38204
     38204     38202     38205     38206     38202     38205     38206     38202     38204
     38206     38202     38203     38208     38212     38213     38209     38208     38211
     38209     38208     38210     38210     38208     38211     38212     38208     38211
     38212     38208     38210     38212     38208     38209     38214     38218     38219
     38215     38214     38217     38215     38214     38216     38216     38214     38217
     38218     38214     38217     38218     38214     38216     38218     38214     38215
     38220     38224     38225     38221     38220     38223     38221     38220     38222
     38222     38220     38223     38224     38220     38223     38224     38220     38222
     38224     38220     38221     38226     38230     38231     38227     38226     38229
     38227     38226     38228     38228     38226     38229     38230     38226     38229
     38230     38226     38228     38230     38226     38227     38232     38236     38237
     38233     38232     38235     38233     38232     38234     38234     38232     38235
     38236     38232     38235     38236     38232     38234     38236     38232     38233
     38238     38242     38243     38239     38238     38241     38239     38238     38240
     38240     38238     38241     38242     38238     38241     38242     38238     38240
     38242     38238     38239     38244     38248     38249     38245     38244     38247
     38245     38244     38246     38246     38244     38247     38248     38244     38247
     38248     38244     38246     38248     38244     38245     38250     38254     38255
     38251     38250     38253     38251     38250     38252     38252     38250     38253
     38254     38250     38253     38254     38250     38252     38254     38250     38251
     38256     38260     38261     38257     38256     38259     38257     38256     38258
     38258     38256     38259     38260     38256     38259     38260     38256     38258
     38260     38256     38257     38262     38266     38267     38263     38262     38265
     38263     38262     38264     38264     38262     38265     38266     38262     38265
     38266     38262     38264     38266     38262     38263     38268     38272     38273
     38269     38268     38271     38269     38268     38270     38270     38268     38271
     38272     38268     38271     38272     38268     38270     38272     38268     38269
     38274     38278     38279     38275     38274     38277     38275     38274     38276
     38276     38274     38277     38278     38274     38277     38278     38274     38276
     38278     38274     38275     38280     38284     38285     38281     38280     38283
     38281     38280     38282     38282     38280     38283     38284     38280     38283
     38284     38280     38282     38284     38280     38281     38286     38290     38291
     38287     38286     38289     38287     38286     38288     38288     38286     38289
     38290     38286     38289     38290     38286     38288     38290     38286     38287
     38292     38296     38297     38293     38292     38295     38293     38292     38294
     38294     38292     38295     38296     38292     38295     38296     38292     38294
     38296     38292     38293     38298     38302     38303     38299     38298     38301
     38299     38298     38300     38300     38298     38301     38302     38298     38301
     38302     38298     38300     38302     38298     38299     38304     38308     38309
     38305     38304     38307     38305     38304     38306     38306     38304     38307
     38308     38304     38307     38308     38304     38306     38308     38304     38305
     38310     38314     38315     38311     38310     38313     38311     38310     38312
     38312     38310     38313     38314     38310     38313     38314     38310     38312
     38314     38310     38311     38316     38320     38321     38317     38316     38319
     38317     38316     38318     38318     38316     38319     38320     38316     38319
     38320     38316     38318     38320     38316     38317     38322     38326     38327
     38323     38322     38325     38323     38322     38324     38324     38322     38325
     38326     38322     38325     38326     38322     38324     38326     38322     38323
     38328     38332     38333     38329     38328     38331     38329     38328     38330
     38330     38328     38331     38332     38328     38331     38332     38328     38330
     38332     38328     38329     38334     38338     38339     38335     38334     38337
     38335     38334     38336     38336     38334     38337     38338     38334     38337
     38338     38334     38336     38338     38334     38335     38340     38344     38345
     38341     38340     38343     38341     38340     38342     38342     38340     38343
     38344     38340     38343     38344     38340     38342     38344     38340     38341
     38346     38350     38351     38347     38346     38349     38347     38346     38348
     38348     38346     38349     38350     38346     38349     38350     38346     38348
     38350     38346     38347     38352     38356     38357     38353     38352     38355
     38353     38352     38354     38354     38352     38355     38356     38352     38355
     38356     38352     38354     38356     38352     38353     38358     38362     38363
     38359     38358     38361     38359     38358     38360     38360     38358     38361
     38362     38358     38361     38362     38358     38360     38362     38358     38359
     38364     38368     38369     38365     38364     38367     38365     38364     38366
     38366     38364     38367     38368     38364     38367     38368     38364     38366
     38368     38364     38365     38370     38374     38375     38371     38370     38373
     38371     38370     38372     38372     38370     38373     38374     38370     38373
     38374     38370     38372     38374     38370     38371     38376     38380     38381
     38377     38376     38379     38377     38376     38378     38378     38376     38379
     38380     38376     38379     38380     38376     38378     38380     38376     38377
     38382     38386     38387     38383     38382     38385     38383     38382     38384
     38384     38382     38385     38386     38382     38385     38386     38382     38384
     38386     38382     38383     38388     38392     38393     38389     38388     38391
     38389     38388     38390     38390     38388     38391     38392     38388     38391
     38392     38388     38390     38392     38388     38389     38394     38398     38399
     38395     38394     38397     38395     38394     38396     38396     38394     38397
     38398     38394     38397     38398     38394     38396     38398     38394     38395
     38400     38404     38405     38401     38400     38403     38401     38400     38402
     38402     38400     38403     38404     38400     38403     38404     38400     38402
     38404     38400     38401     38406     38410     38411     38407     38406     38409
     38407     38406     38408     38408     38406     38409     38410     38406     38409
     38410     38406     38408     38410     38406     38407     38412     38416     38417
     38413     38412     38415     38413     38412     38414     38414     38412     38415
     38416     38412     38415     38416     38412     38414     38416     38412     38413
     38418     38422     38423     38419     38418     38421     38419     38418     38420
     38420     38418     38421     38422     38418     38421     38422     38418     38420
     38422     38418     38419     38424     38428     38429     38425     38424     38427
     38425     38424     38426     38426     38424     38427     38428     38424     38427
     38428     38424     38426     38428     38424     38425     38430     38434     38435
     38431     38430     38433     38431     38430     38432     38432     38430     38433
     38434     38430     38433     38434     38430     38432     38434     38430     38431
     38436     38440     38441     38437     38436     38439     38437     38436     38438
     38438     38436     38439     38440     38436     38439     38440     38436     38438
     38440     38436     38437     38442     38446     38447     38443     38442     38445
     38443     38442     38444     38444     38442     38445     38446     38442     38445
     38446     38442     38444     38446     38442     38443     38448     38452     38453
     38449     38448     38451     38449     38448     38450     38450     38448     38451
     38452     38448     38451     38452     38448     38450     38452     38448     38449
     38454     38458     38459     38455     38454     38457     38455     38454     38456
     38456     38454     38457     38458     38454     38457     38458     38454     38456
     38458     38454     38455     38460     38464     38465     38461     38460     38463
     38461     38460     38462     38462     38460     38463     38464     38460     38463
     38464     38460     38462     38464     38460     38461     38466     38470     38471
     38467     38466     38469     38467     38466     38468     38468     38466     38469
     38470     38466     38469     38470     38466     38468     38470     38466     38467
     38472     38476     38477     38473     38472     38475     38473     38472     38474
     38474     38472     38475     38476     38472     38475     38476     38472     38474
     38476     38472     38473     38478     38482     38483     38479     38478     38481
     38479     38478     38480     38480     38478     38481     38482     38478     38481
     38482     38478     38480     38482     38478     38479     38484     38488     38489
     38485     38484     38487     38485     38484     38486     38486     38484     38487
     38488     38484     38487     38488     38484     38486     38488     38484     38485
     38490     38494     38495     38491     38490     38493     38491     38490     38492
     38492     38490     38493     38494     38490     38493     38494     38490     38492
     38494     38490     38491     38496     38500     38501     38497     38496     38499
     38497     38496     38498     38498     38496     38499     38500     38496     38499
     38500     38496     38498     38500     38496     38497     38502     38506     38507
     38503     38502     38505     38503     38502     38504     38504     38502     38505
     38506     38502     38505     38506     38502     38504     38506     38502     38503
     38508     38512     38513     38509     38508     38511     38509     38508     38510
     38510     38508     38511     38512     38508     38511     38512     38508     38510
     38512     38508     38509     38514     38518     38519     38515     38514     38517
     38515     38514     38516     38516     38514     38517     38518     38514     38517
     38518     38514     38516     38518     38514     38515     38520     38524     38525
     38521     38520     38523     38521     38520     38522     38522     38520     38523
     38524     38520     38523     38524     38520     38522     38524     38520     38521
     38526     38530     38531     38527     38526     38529     38527     38526     38528
     38528     38526     38529     38530     38526     38529     38530     38526     38528
     38530     38526     38527     38532     38536     38537     38533     38532     38535
     38533     38532     38534     38534     38532     38535     38536     38532     38535
     38536     38532     38534     38536     38532     38533     38538     38542     38543
     38539     38538     38541     38539     38538     38540     38540     38538     38541
     38542     38538     38541     38542     38538     38540     38542     38538     38539
     38544     38548     38549     38545     38544     38547     38545     38544     38546
     38546     38544     38547     38548     38544     38547     38548     38544     38546
     38548     38544     38545     38550     38554     38555     38551     38550     38553
     38551     38550     38552     38552     38550     38553     38554     38550     38553
     38554     38550     38552     38554     38550     38551     38556     38560     38561
     38557     38556     38559     38557     38556     38558     38558     38556     38559
     38560     38556     38559     38560     38556     38558     38560     38556     38557
     38562     38566     38567     38563     38562     38565     38563     38562     38564
     38564     38562     38565     38566     38562     38565     38566     38562     38564
     38566     38562     38563     38568     38572     38573     38569     38568     38571
     38569     38568     38570     38570     38568     38571     38572     38568     38571
     38572     38568     38570     38572     38568     38569     38574     38578     38579
     38575     38574     38577     38575     38574     38576     38576     38574     38577
     38578     38574     38577     38578     38574     38576     38578     38574     38575
     38580     38584     38585     38581     38580     38583     38581     38580     38582
     38582     38580     38583     38584     38580     38583     38584     38580     38582
     38584     38580     38581     38586     38590     38591     38587     38586     38589
     38587     38586     38588     38588     38586     38589     38590     38586     38589
     38590     38586     38588     38590     38586     38587     38592     38596     38597
     38593     38592     38595     38593     38592     38594     38594     38592     38595
     38596     38592     38595     38596     38592     38594     38596     38592     38593
     38598     38602     38603     38599     38598     38601     38599     38598     38600
     38600     38598     38601     38602     38598     38601     38602     38598     38600
     38602     38598     38599     38604     38608     38609     38605     38604     38607
     38605     38604     38606     38606     38604     38607     38608     38604     38607
     38608     38604     38606     38608     38604     38605     38610     38614     38615
     38611     38610     38613     38611     38610     38612     38612     38610     38613
     38614     38610     38613     38614     38610     38612     38614     38610     38611
     38616     38620     38621     38617     38616     38619     38617     38616     38618
     38618     38616     38619     38620     38616     38619     38620     38616     38618
     38620     38616     38617     38622     38626     38627     38623     38622     38625
     38623     38622     38624     38624     38622     38625     38626     38622     38625
     38626     38622     38624     38626     38622     38623     38628     38632     38633
     38629     38628     38631     38629     38628     38630     38630     38628     38631
     38632     38628     38631     38632     38628     38630     38632     38628     38629
     38634     38638     38639     38635     38634     38637     38635     38634     38636
     38636     38634     38637     38638     38634     38637     38638     38634     38636
     38638     38634     38635     38640     38644     38645     38641     38640     38643
     38641     38640     38642     38642     38640     38643     38644     38640     38643
     38644     38640     38642     38644     38640     38641     38646     38650     38651
     38647     38646     38649     38647     38646     38648     38648     38646     38649
     38650     38646     38649     38650     38646     38648     38650     38646     38647
     38652     38656     38657     38653     38652     38655     38653     38652     38654
     38654     38652     38655     38656     38652     38655     38656     38652     38654
     38656     38652     38653     38658     38662     38663     38659     38658     38661
     38659     38658     38660     38660     38658     38661     38662     38658     38661
     38662     38658     38660     38662     38658     38659     38664     38668     38669
     38665     38664     38667     38665     38664     38666     38666     38664     38667
     38668     38664     38667     38668     38664     38666     38668     38664     38665
     38670     38674     38675     38671     38670     38673     38671     38670     38672
     38672     38670     38673     38674     38670     38673     38674     38670     38672
     38674     38670     38671     38676     38680     38681     38677     38676     38679
     38677     38676     38678     38678     38676     38679     38680     38676     38679
     38680     38676     38678     38680     38676     38677     38682     38686     38687
     38683     38682     38685     38683     38682     38684     38684     38682     38685
     38686     38682     38685     38686     38682     38684     38686     38682     38683
     38688     38692     38693     38689     38688     38691     38689     38688     38690
     38690     38688     38691     38692     38688     38691     38692     38688     38690
     38692     38688     38689     38694     38698     38699     38695     38694     38697
     38695     38694     38696     38696     38694     38697     38698     38694     38697
     38698     38694     38696     38698     38694     38695     38700     38704     38705
     38701     38700     38703     38701     38700     38702     38702     38700     38703
     38704     38700     38703     38704     38700     38702     38704     38700     38701
     38706     38710     38711     38707     38706     38709     38707     38706     38708
     38708     38706     38709     38710     38706     38709     38710     38706     38708
     38710     38706     38707     38712     38716     38717     38713     38712     38715
     38713     38712     38714     38714     38712     38715     38716     38712     38715
     38716     38712     38714     38716     38712     38713     38718     38722     38723
     38719     38718     38721     38719     38718     38720     38720     38718     38721
     38722     38718     38721     38722     38718     38720     38722     38718     38719
     38724     38728     38729     38725     38724     38727     38725     38724     38726
     38726     38724     38727     38728     38724     38727     38728     38724     38726
     38728     38724     38725     38730     38734     38735     38731     38730     38733
     38731     38730     38732     38732     38730     38733     38734     38730     38733
     38734     38730     38732     38734     38730     38731     38736     38740     38741
     38737     38736     38739     38737     38736     38738     38738     38736     38739
     38740     38736     38739     38740     38736     38738     38740     38736     38737
     38742     38746     38747     38743     38742     38745     38743     38742     38744
     38744     38742     38745     38746     38742     38745     38746     38742     38744
     38746     38742     38743     38748     38752     38753     38749     38748     38751
     38749     38748     38750     38750     38748     38751     38752     38748     38751
     38752     38748     38750     38752     38748     38749     38754     38758     38759
     38755     38754     38757     38755     38754     38756     38756     38754     38757
     38758     38754     38757     38758     38754     38756     38758     38754     38755
     38760     38764     38765     38761     38760     38763     38761     38760     38762
     38762     38760     38763     38764     38760     38763     38764     38760     38762
     38764     38760     38761     38766     38770     38771     38767     38766     38769
     38767     38766     38768     38768     38766     38769     38770     38766     38769
     38770     38766     38768     38770     38766     38767     38772     38776     38777
     38773     38772     38775     38773     38772     38774     38774     38772     38775
     38776     38772     38775     38776     38772     38774     38776     38772     38773
     38778     38782     38783     38779     38778     38781     38779     38778     38780
     38780     38778     38781     38782     38778     38781     38782     38778     38780
     38782     38778     38779     38784     38788     38789     38785     38784     38787
     38785     38784     38786     38786     38784     38787     38788     38784     38787
     38788     38784     38786     38788     38784     38785     38790     38794     38795
     38791     38790     38793     38791     38790     38792     38792     38790     38793
     38794     38790     38793     38794     38790     38792     38794     38790     38791
     38796     38800     38801     38797     38796     38799     38797     38796     38798
     38798     38796     38799     38800     38796     38799     38800     38796     38798
     38800     38796     38797     38802     38806     38807     38803     38802     38805
     38803     38802     38804     38804     38802     38805     38806     38802     38805
     38806     38802     38804     38806     38802     38803     38808     38812     38813
     38809     38808     38811     38809     38808     38810     38810     38808     38811
     38812     38808     38811     38812     38808     38810     38812     38808     38809
     38814     38818     38819     38815     38814     38817     38815     38814     38816
     38816     38814     38817     38818     38814     38817     38818     38814     38816
     38818     38814     38815     38820     38824     38825     38821     38820     38823
     38821     38820     38822     38822     38820     38823     38824     38820     38823
     38824     38820     38822     38824     38820     38821     38826     38830     38831
     38827     38826     38829     38827     38826     38828     38828     38826     38829
     38830     38826     38829     38830     38826     38828     38830     38826     38827
     38832     38836     38837     38833     38832     38835     38833     38832     38834
     38834     38832     38835     38836     38832     38835     38836     38832     38834
     38836     38832     38833     38838     38842     38843     38839     38838     38841
     38839     38838     38840     38840     38838     38841     38842     38838     38841
     38842     38838     38840     38842     38838     38839     38844     38848     38849
     38845     38844     38847     38845     38844     38846     38846     38844     38847
     38848     38844     38847     38848     38844     38846     38848     38844     38845
     38850     38854     38855     38851     38850     38853     38851     38850     38852
     38852     38850     38853     38854     38850     38853     38854     38850     38852
     38854     38850     38851     38856     38860     38861     38857     38856     38859
     38857     38856     38858     38858     38856     38859     38860     38856     38859
     38860     38856     38858     38860     38856     38857     38862     38866     38867
     38863     38862     38865     38863     38862     38864     38864     38862     38865
     38866     38862     38865     38866     38862     38864     38866     38862     38863
     38868     38872     38873     38869     38868     38871     38869     38868     38870
     38870     38868     38871     38872     38868     38871     38872     38868     38870
     38872     38868     38869     38874     38878     38879     38875     38874     38877
     38875     38874     38876     38876     38874     38877     38878     38874     38877
     38878     38874     38876     38878     38874     38875     38880     38884     38885
     38881     38880     38883     38881     38880     38882     38882     38880     38883
     38884     38880     38883     38884     38880     38882     38884     38880     38881
     38886     38890     38891     38887     38886     38889     38887     38886     38888
     38888     38886     38889     38890     38886     38889     38890     38886     38888
     38890     38886     38887     38892     38896     38897     38893     38892     38895
     38893     38892     38894     38894     38892     38895     38896     38892     38895
     38896     38892     38894     38896     38892     38893     38898     38902     38903
     38899     38898     38901     38899     38898     38900     38900     38898     38901
     38902     38898     38901     38902     38898     38900     38902     38898     38899
     38904     38908     38909     38905     38904     38907     38905     38904     38906
     38906     38904     38907     38908     38904     38907     38908     38904     38906
     38908     38904     38905     38910     38914     38915     38911     38910     38913
     38911     38910     38912     38912     38910     38913     38914     38910     38913
     38914     38910     38912     38914     38910     38911     38916     38920     38921
     38917     38916     38919     38917     38916     38918     38918     38916     38919
     38920     38916     38919     38920     38916     38918     38920     38916     38917
     38922     38926     38927     38923     38922     38925     38923     38922     38924
     38924     38922     38925     38926     38922     38925     38926     38922     38924
     38926     38922     38923     38928     38932     38933     38929     38928     38931
     38929     38928     38930     38930     38928     38931     38932     38928     38931
     38932     38928     38930     38932     38928     38929     38934     38938     38939
     38935     38934     38937     38935     38934     38936     38936     38934     38937
     38938     38934     38937     38938     38934     38936     38938     38934     38935
     38940     38944     38945     38941     38940     38943     38941     38940     38942
     38942     38940     38943     38944     38940     38943     38944     38940     38942
     38944     38940     38941     38946     38950     38951     38947     38946     38949
     38947     38946     38948     38948     38946     38949     38950     38946     38949
     38950     38946     38948     38950     38946     38947     38952     38956     38957
     38953     38952     38955     38953     38952     38954     38954     38952     38955
     38956     38952     38955     38956     38952     38954     38956     38952     38953
     38958     38962     38963     38959     38958     38961     38959     38958     38960
     38960     38958     38961     38962     38958     38961     38962     38958     38960
     38962     38958     38959     38964     38968     38969     38965     38964     38967
     38965     38964     38966     38966     38964     38967     38968     38964     38967
     38968     38964     38966     38968     38964     38965     38970     38974     38975
     38971     38970     38973     38971     38970     38972     38972     38970     38973
     38974     38970     38973     38974     38970     38972     38974     38970     38971
     38976     38980     38981     38977     38976     38979     38977     38976     38978
     38978     38976     38979     38980     38976     38979     38980     38976     38978
     38980     38976     38977     38982     38986     38987     38983     38982     38985
     38983     38982     38984     38984     38982     38985     38986     38982     38985
     38986     38982     38984     38986     38982     38983     38988     38992     38993
     38989     38988     38991     38989     38988     38990     38990     38988     38991
     38992     38988     38991     38992     38988     38990     38992     38988     38989
     38994     38998     38999     38995     38994     38997     38995     38994     38996
     38996     38994     38997     38998     38994     38997     38998     38994     38996
     38998     38994     38995     39000     39004     39005     39001     39000     39003
     39001     39000     39002     39002     39000     39003     39004     39000     39003
     39004     39000     39002     39004     39000     39001     39006     39010     39011
     39007     39006     39009     39007     39006     39008     39008     39006     39009
     39010     39006     39009     39010     39006     39008     39010     39006     39007
     39012     39016     39017     39013     39012     39015     39013     39012     39014
     39014     39012     39015     39016     39012     39015     39016     39012     39014
     39016     39012     39013     39018     39022     39023     39019     39018     39021
     39019     39018     39020     39020     39018     39021     39022     39018     39021
     39022     39018     39020     39022     39018     39019     39024     39028     39029
     39025     39024     39027     39025     39024     39026     39026     39024     39027
     39028     39024     39027     39028     39024     39026     39028     39024     39025
     39030     39034     39035     39031     39030     39033     39031     39030     39032
     39032     39030     39033     39034     39030     39033     39034     39030     39032
     39034     39030     39031     39036     39040     39041     39037     39036     39039
     39037     39036     39038     39038     39036     39039     39040     39036     39039
     39040     39036     39038     39040     39036     39037     39042     39046     39047
     39043     39042     39045     39043     39042     39044     39044     39042     39045
     39046     39042     39045     39046     39042     39044     39046     39042     39043
     39048     39052     39053     39049     39048     39051     39049     39048     39050
     39050     39048     39051     39052     39048     39051     39052     39048     39050
     39052     39048     39049     39054     39058     39059     39055     39054     39057
     39055     39054     39056     39056     39054     39057     39058     39054     39057
     39058     39054     39056     39058     39054     39055     39060     39064     39065
     39061     39060     39063     39061     39060     39062     39062     39060     39063
     39064     39060     39063     39064     39060     39062     39064     39060     39061
     39066     39070     39071     39067     39066     39069     39067     39066     39068
     39068     39066     39069     39070     39066     39069     39070     39066     39068
     39070     39066     39067     39072     39076     39077     39073     39072     39075
     39073     39072     39074     39074     39072     39075     39076     39072     39075
     39076     39072     39074     39076     39072     39073     39078     39082     39083
     39079     39078     39081     39079     39078     39080     39080     39078     39081
     39082     39078     39081     39082     39078     39080     39082     39078     39079
     39084     39088     39089     39085     39084     39087     39085     39084     39086
     39086     39084     39087     39088     39084     39087     39088     39084     39086
     39088     39084     39085     39090     39094     39095     39091     39090     39093
     39091     39090     39092     39092     39090     39093     39094     39090     39093
     39094     39090     39092     39094     39090     39091     39096     39100     39101
     39097     39096     39099     39097     39096     39098     39098     39096     39099
     39100     39096     39099     39100     39096     39098     39100     39096     39097
     39102     39106     39107     39103     39102     39105     39103     39102     39104
     39104     39102     39105     39106     39102     39105     39106     39102     39104
     39106     39102     39103     39108     39112     39113     39109     39108     39111
     39109     39108     39110     39110     39108     39111     39112     39108     39111
     39112     39108     39110     39112     39108     39109     39114     39118     39119
     39115     39114     39117     39115     39114     39116     39116     39114     39117
     39118     39114     39117     39118     39114     39116     39118     39114     39115
     39120     39124     39125     39121     39120     39123     39121     39120     39122
     39122     39120     39123     39124     39120     39123     39124     39120     39122
     39124     39120     39121     39126     39130     39131     39127     39126     39129
     39127     39126     39128     39128     39126     39129     39130     39126     39129
     39130     39126     39128     39130     39126     39127     39132     39136     39137
     39133     39132     39135     39133     39132     39134     39134     39132     39135
     39136     39132     39135     39136     39132     39134     39136     39132     39133
     39138     39142     39143     39139     39138     39141     39139     39138     39140
     39140     39138     39141     39142     39138     39141     39142     39138     39140
     39142     39138     39139     39144     39148     39149     39145     39144     39147
     39145     39144     39146     39146     39144     39147     39148     39144     39147
     39148     39144     39146     39148     39144     39145     39150     39154     39155
     39151     39150     39153     39151     39150     39152     39152     39150     39153
     39154     39150     39153     39154     39150     39152     39154     39150     39151
     39156     39160     39161     39157     39156     39159     39157     39156     39158
     39158     39156     39159     39160     39156     39159     39160     39156     39158
     39160     39156     39157     39162     39166     39167     39163     39162     39165
     39163     39162     39164     39164     39162     39165     39166     39162     39165
     39166     39162     39164     39166     39162     39163     39168     39172     39173
     39169     39168     39171     39169     39168     39170     39170     39168     39171
     39172     39168     39171     39172     39168     39170     39172     39168     39169
     39174     39178     39179     39175     39174     39177     39175     39174     39176
     39176     39174     39177     39178     39174     39177     39178     39174     39176
     39178     39174     39175     39180     39184     39185     39181     39180     39183
     39181     39180     39182     39182     39180     39183     39184     39180     39183
     39184     39180     39182     39184     39180     39181     39186     39190     39191
     39187     39186     39189     39187     39186     39188     39188     39186     39189
     39190     39186     39189     39190     39186     39188     39190     39186     39187
     39192     39196     39197     39193     39192     39195     39193     39192     39194
     39194     39192     39195     39196     39192     39195     39196     39192     39194
     39196     39192     39193     39198     39202     39203     39199     39198     39201
     39199     39198     39200     39200     39198     39201     39202     39198     39201
     39202     39198     39200     39202     39198     39199     39204     39208     39209
     39205     39204     39207     39205     39204     39206     39206     39204     39207
     39208     39204     39207     39208     39204     39206     39208     39204     39205
     39210     39214     39215     39211     39210     39213     39211     39210     39212
     39212     39210     39213     39214     39210     39213     39214     39210     39212
     39214     39210     39211     39216     39220     39221     39217     39216     39219
     39217     39216     39218     39218     39216     39219     39220     39216     39219
     39220     39216     39218     39220     39216     39217     39222     39226     39227
     39223     39222     39225     39223     39222     39224     39224     39222     39225
     39226     39222     39225     39226     39222     39224     39226     39222     39223
     39228     39232     39233     39229     39228     39231     39229     39228     39230
     39230     39228     39231     39232     39228     39231     39232     39228     39230
     39232     39228     39229     39234     39238     39239     39235     39234     39237
     39235     39234     39236     39236     39234     39237     39238     39234     39237
     39238     39234     39236     39238     39234     39235     39240     39244     39245
     39241     39240     39243     39241     39240     39242     39242     39240     39243
     39244     39240     39243     39244     39240     39242     39244     39240     39241
     39246     39250     39251     39247     39246     39249     39247     39246     39248
     39248     39246     39249     39250     39246     39249     39250     39246     39248
     39250     39246     39247     39252     39256     39257     39253     39252     39255
     39253     39252     39254     39254     39252     39255     39256     39252     39255
     39256     39252     39254     39256     39252     39253     39258     39262     39263
     39259     39258     39261     39259     39258     39260     39260     39258     39261
     39262     39258     39261     39262     39258     39260     39262     39258     39259
     39264     39268     39269     39265     39264     39267     39265     39264     39266
     39266     39264     39267     39268     39264     39267     39268     39264     39266
     39268     39264     39265     39270     39274     39275     39271     39270     39273
     39271     39270     39272     39272     39270     39273     39274     39270     39273
     39274     39270     39272     39274     39270     39271     39276     39280     39281
     39277     39276     39279     39277     39276     39278     39278     39276     39279
     39280     39276     39279     39280     39276     39278     39280     39276     39277
     39282     39286     39287     39283     39282     39285     39283     39282     39284
     39284     39282     39285     39286     39282     39285     39286     39282     39284
     39286     39282     39283     39288     39292     39293     39289     39288     39291
     39289     39288     39290     39290     39288     39291     39292     39288     39291
     39292     39288     39290     39292     39288     39289     39294     39298     39299
     39295     39294     39297     39295     39294     39296     39296     39294     39297
     39298     39294     39297     39298     39294     39296     39298     39294     39295
     39300     39304     39305     39301     39300     39303     39301     39300     39302
     39302     39300     39303     39304     39300     39303     39304     39300     39302
     39304     39300     39301     39306     39310     39311     39307     39306     39309
     39307     39306     39308     39308     39306     39309     39310     39306     39309
     39310     39306     39308     39310     39306     39307     39312     39316     39317
     39313     39312     39315     39313     39312     39314     39314     39312     39315
     39316     39312     39315     39316     39312     39314     39316     39312     39313
     39318     39322     39323     39319     39318     39321     39319     39318     39320
     39320     39318     39321     39322     39318     39321     39322     39318     39320
     39322     39318     39319     39324     39328     39329     39325     39324     39327
     39325     39324     39326     39326     39324     39327     39328     39324     39327
     39328     39324     39326     39328     39324     39325     39330     39334     39335
     39331     39330     39333     39331     39330     39332     39332     39330     39333
     39334     39330     39333     39334     39330     39332     39334     39330     39331
     39336     39340     39341     39337     39336     39339     39337     39336     39338
     39338     39336     39339     39340     39336     39339     39340     39336     39338
     39340     39336     39337     39342     39346     39347     39343     39342     39345
     39343     39342     39344     39344     39342     39345     39346     39342     39345
     39346     39342     39344     39346     39342     39343     39348     39352     39353
     39349     39348     39351     39349     39348     39350     39350     39348     39351
     39352     39348     39351     39352     39348     39350     39352     39348     39349
     39354     39358     39359     39355     39354     39357     39355     39354     39356
     39356     39354     39357     39358     39354     39357     39358     39354     39356
     39358     39354     39355     39360     39364     39365     39361     39360     39363
     39361     39360     39362     39362     39360     39363     39364     39360     39363
     39364     39360     39362     39364     39360     39361     39366     39370     39371
     39367     39366     39369     39367     39366     39368     39368     39366     39369
     39370     39366     39369     39370     39366     39368     39370     39366     39367
     39372     39376     39377     39373     39372     39375     39373     39372     39374
     39374     39372     39375     39376     39372     39375     39376     39372     39374
     39376     39372     39373     39378     39382     39383     39379     39378     39381
     39379     39378     39380     39380     39378     39381     39382     39378     39381
     39382     39378     39380     39382     39378     39379     39384     39388     39389
     39385     39384     39387     39385     39384     39386     39386     39384     39387
     39388     39384     39387     39388     39384     39386     39388     39384     39385
     39390     39394     39395     39391     39390     39393     39391     39390     39392
     39392     39390     39393     39394     39390     39393     39394     39390     39392
     39394     39390     39391     39396     39400     39401     39397     39396     39399
     39397     39396     39398     39398     39396     39399     39400     39396     39399
     39400     39396     39398     39400     39396     39397     39402     39406     39407
     39403     39402     39405     39403     39402     39404     39404     39402     39405
     39406     39402     39405     39406     39402     39404     39406     39402     39403
     39408     39412     39413     39409     39408     39411     39409     39408     39410
     39410     39408     39411     39412     39408     39411     39412     39408     39410
     39412     39408     39409     39414     39418     39419     39415     39414     39417
     39415     39414     39416     39416     39414     39417     39418     39414     39417
     39418     39414     39416     39418     39414     39415     39420     39424     39425
     39421     39420     39423     39421     39420     39422     39422     39420     39423
     39424     39420     39423     39424     39420     39422     39424     39420     39421
     39426     39430     39431     39427     39426     39429     39427     39426     39428
     39428     39426     39429     39430     39426     39429     39430     39426     39428
     39430     39426     39427     39432     39436     39437     39433     39432     39435
     39433     39432     39434     39434     39432     39435     39436     39432     39435
     39436     39432     39434     39436     39432     39433     39438     39442     39443
     39439     39438     39441     39439     39438     39440     39440     39438     39441
     39442     39438     39441     39442     39438     39440     39442     39438     39439
     39444     39448     39449     39445     39444     39447     39445     39444     39446
     39446     39444     39447     39448     39444     39447     39448     39444     39446
     39448     39444     39445     39450     39454     39455     39451     39450     39453
     39451     39450     39452     39452     39450     39453     39454     39450     39453
     39454     39450     39452     39454     39450     39451     39456     39460     39461
     39457     39456     39459     39457     39456     39458     39458     39456     39459
     39460     39456     39459     39460     39456     39458     39460     39456     39457
     39462     39466     39467     39463     39462     39465     39463     39462     39464
     39464     39462     39465     39466     39462     39465     39466     39462     39464
     39466     39462     39463     39468     39472     39473     39469     39468     39471
     39469     39468     39470     39470     39468     39471     39472     39468     39471
     39472     39468     39470     39472     39468     39469     39474     39478     39479
     39475     39474     39477     39475     39474     39476     39476     39474     39477
     39478     39474     39477     39478     39474     39476     39478     39474     39475
     39480     39484     39485     39481     39480     39483     39481     39480     39482
     39482     39480     39483     39484     39480     39483     39484     39480     39482
     39484     39480     39481     39486     39490     39491     39487     39486     39489
     39487     39486     39488     39488     39486     39489     39490     39486     39489
     39490     39486     39488     39490     39486     39487     39492     39496     39497
     39493     39492     39495     39493     39492     39494     39494     39492     39495
     39496     39492     39495     39496     39492     39494     39496     39492     39493
     39498     39502     39503     39499     39498     39501     39499     39498     39500
     39500     39498     39501     39502     39498     39501     39502     39498     39500
     39502     39498     39499     39504     39508     39509     39505     39504     39507
     39505     39504     39506     39506     39504     39507     39508     39504     39507
     39508     39504     39506     39508     39504     39505     39510     39514     39515
     39511     39510     39513     39511     39510     39512     39512     39510     39513
     39514     39510     39513     39514     39510     39512     39514     39510     39511
     39516     39520     39521     39517     39516     39519     39517     39516     39518
     39518     39516     39519     39520     39516     39519     39520     39516     39518
     39520     39516     39517     39522     39526     39527     39523     39522     39525
     39523     39522     39524     39524     39522     39525     39526     39522     39525
     39526     39522     39524     39526     39522     39523     39528     39532     39533
     39529     39528     39531     39529     39528     39530     39530     39528     39531
     39532     39528     39531     39532     39528     39530     39532     39528     39529
     39534     39538     39539     39535     39534     39537     39535     39534     39536
     39536     39534     39537     39538     39534     39537     39538     39534     39536
     39538     39534     39535     39540     39544     39545     39541     39540     39543
     39541     39540     39542     39542     39540     39543     39544     39540     39543
     39544     39540     39542     39544     39540     39541     39546     39550     39551
     39547     39546     39549     39547     39546     39548     39548     39546     39549
     39550     39546     39549     39550     39546     39548     39550     39546     39547
     39552     39556     39557     39553     39552     39555     39553     39552     39554
     39554     39552     39555     39556     39552     39555     39556     39552     39554
     39556     39552     39553     39558     39562     39563     39559     39558     39561
     39559     39558     39560     39560     39558     39561     39562     39558     39561
     39562     39558     39560     39562     39558     39559     39564     39568     39569
     39565     39564     39567     39565     39564     39566     39566     39564     39567
     39568     39564     39567     39568     39564     39566     39568     39564     39565
     39570     39574     39575     39571     39570     39573     39571     39570     39572
     39572     39570     39573     39574     39570     39573     39574     39570     39572
     39574     39570     39571     39576     39580     39581     39577     39576     39579
     39577     39576     39578     39578     39576     39579     39580     39576     39579
     39580     39576     39578     39580     39576     39577     39582     39586     39587
     39583     39582     39585     39583     39582     39584     39584     39582     39585
     39586     39582     39585     39586     39582     39584     39586     39582     39583
     39588     39592     39593     39589     39588     39591     39589     39588     39590
     39590     39588     39591     39592     39588     39591     39592     39588     39590
     39592     39588     39589     39594     39598     39599     39595     39594     39597
     39595     39594     39596     39596     39594     39597     39598     39594     39597
     39598     39594     39596     39598     39594     39595     39600     39604     39605
     39601     39600     39603     39601     39600     39602     39602     39600     39603
     39604     39600     39603     39604     39600     39602     39604     39600     39601
     39606     39610     39611     39607     39606     39609     39607     39606     39608
     39608     39606     39609     39610     39606     39609     39610     39606     39608
     39610     39606     39607     39612     39616     39617     39613     39612     39615
     39613     39612     39614     39614     39612     39615     39616     39612     39615
     39616     39612     39614     39616     39612     39613     39618     39622     39623
     39619     39618     39621     39619     39618     39620     39620     39618     39621
     39622     39618     39621     39622     39618     39620     39622     39618     39619
     39624     39628     39629     39625     39624     39627     39625     39624     39626
     39626     39624     39627     39628     39624     39627     39628     39624     39626
     39628     39624     39625     39630     39634     39635     39631     39630     39633
     39631     39630     39632     39632     39630     39633     39634     39630     39633
     39634     39630     39632     39634     39630     39631     39636     39640     39641
     39637     39636     39639     39637     39636     39638     39638     39636     39639
     39640     39636     39639     39640     39636     39638     39640     39636     39637
     39642     39646     39647     39643     39642     39645     39643     39642     39644
     39644     39642     39645     39646     39642     39645     39646     39642     39644
     39646     39642     39643     39648     39652     39653     39649     39648     39651
     39649     39648     39650     39650     39648     39651     39652     39648     39651
     39652     39648     39650     39652     39648     39649     39654     39658     39659
     39655     39654     39657     39655     39654     39656     39656     39654     39657
     39658     39654     39657     39658     39654     39656     39658     39654     39655
     39660     39664     39665     39661     39660     39663     39661     39660     39662
     39662     39660     39663     39664     39660     39663     39664     39660     39662
     39664     39660     39661     39666     39670     39671     39667     39666     39669
     39667     39666     39668     39668     39666     39669     39670     39666     39669
     39670     39666     39668     39670     39666     39667     39672     39676     39677
     39673     39672     39675     39673     39672     39674     39674     39672     39675
     39676     39672     39675     39676     39672     39674     39676     39672     39673
     39678     39682     39683     39679     39678     39681     39679     39678     39680
     39680     39678     39681     39682     39678     39681     39682     39678     39680
     39682     39678     39679     39684     39688     39689     39685     39684     39687
     39685     39684     39686     39686     39684     39687     39688     39684     39687
     39688     39684     39686     39688     39684     39685     39690     39694     39695
     39691     39690     39693     39691     39690     39692     39692     39690     39693
     39694     39690     39693     39694     39690     39692     39694     39690     39691
     39696     39700     39701     39697     39696     39699     39697     39696     39698
     39698     39696     39699     39700     39696     39699     39700     39696     39698
     39700     39696     39697     39702     39706     39707     39703     39702     39705
     39703     39702     39704     39704     39702     39705     39706     39702     39705
     39706     39702     39704     39706     39702     39703     39708     39712     39713
     39709     39708     39711     39709     39708     39710     39710     39708     39711
     39712     39708     39711     39712     39708     39710     39712     39708     39709
     39714     39718     39719     39715     39714     39717     39715     39714     39716
     39716     39714     39717     39718     39714     39717     39718     39714     39716
     39718     39714     39715     39720     39724     39725     39721     39720     39723
     39721     39720     39722     39722     39720     39723     39724     39720     39723
     39724     39720     39722     39724     39720     39721     39726     39730     39731
     39727     39726     39729     39727     39726     39728     39728     39726     39729
     39730     39726     39729     39730     39726     39728     39730     39726     39727
     39732     39736     39737     39733     39732     39735     39733     39732     39734
     39734     39732     39735     39736     39732     39735     39736     39732     39734
     39736     39732     39733     39738     39742     39743     39739     39738     39741
     39739     39738     39740     39740     39738     39741     39742     39738     39741
     39742     39738     39740     39742     39738     39739     39744     39748     39749
     39745     39744     39747     39745     39744     39746     39746     39744     39747
     39748     39744     39747     39748     39744     39746     39748     39744     39745
     39750     39754     39755     39751     39750     39753     39751     39750     39752
     39752     39750     39753     39754     39750     39753     39754     39750     39752
     39754     39750     39751     39756     39760     39761     39757     39756     39759
     39757     39756     39758     39758     39756     39759     39760     39756     39759
     39760     39756     39758     39760     39756     39757     39762     39766     39767
     39763     39762     39765     39763     39762     39764     39764     39762     39765
     39766     39762     39765     39766     39762     39764     39766     39762     39763
     39768     39772     39773     39769     39768     39771     39769     39768     39770
     39770     39768     39771     39772     39768     39771     39772     39768     39770
     39772     39768     39769     39774     39778     39779     39775     39774     39777
     39775     39774     39776     39776     39774     39777     39778     39774     39777
     39778     39774     39776     39778     39774     39775     39780     39784     39785
     39781     39780     39783     39781     39780     39782     39782     39780     39783
     39784     39780     39783     39784     39780     39782     39784     39780     39781
     39786     39790     39791     39787     39786     39789     39787     39786     39788
     39788     39786     39789     39790     39786     39789     39790     39786     39788
     39790     39786     39787     39792     39796     39797     39793     39792     39795
     39793     39792     39794     39794     39792     39795     39796     39792     39795
     39796     39792     39794     39796     39792     39793     39798     39802     39803
     39799     39798     39801     39799     39798     39800     39800     39798     39801
     39802     39798     39801     39802     39798     39800     39802     39798     39799
     39804     39808     39809     39805     39804     39807     39805     39804     39806
     39806     39804     39807     39808     39804     39807     39808     39804     39806
     39808     39804     39805     39810     39814     39815     39811     39810     39813
     39811     39810     39812     39812     39810     39813     39814     39810     39813
     39814     39810     39812     39814     39810     39811     39816     39820     39821
     39817     39816     39819     39817     39816     39818     39818     39816     39819
     39820     39816     39819     39820     39816     39818     39820     39816     39817
     39822     39826     39827     39823     39822     39825     39823     39822     39824
     39824     39822     39825     39826     39822     39825     39826     39822     39824
     39826     39822     39823     39828     39832     39833     39829     39828     39831
     39829     39828     39830     39830     39828     39831     39832     39828     39831
     39832     39828     39830     39832     39828     39829     39834     39838     39839
     39835     39834     39837     39835     39834     39836     39836     39834     39837
     39838     39834     39837     39838     39834     39836     39838     39834     39835
     39840     39844     39845     39841     39840     39843     39841     39840     39842
     39842     39840     39843     39844     39840     39843     39844     39840     39842
     39844     39840     39841     39846     39850     39851     39847     39846     39849
     39847     39846     39848     39848     39846     39849     39850     39846     39849
     39850     39846     39848     39850     39846     39847     39852     39856     39857
     39853     39852     39855     39853     39852     39854     39854     39852     39855
     39856     39852     39855     39856     39852     39854     39856     39852     39853
     39858     39862     39863     39859     39858     39861     39859     39858     39860
     39860     39858     39861     39862     39858     39861     39862     39858     39860
     39862     39858     39859     39864     39868     39869     39865     39864     39867
     39865     39864     39866     39866     39864     39867     39868     39864     39867
     39868     39864     39866     39868     39864     39865     39870     39874     39875
     39871     39870     39873     39871     39870     39872     39872     39870     39873
     39874     39870     39873     39874     39870     39872     39874     39870     39871
     39876     39880     39881     39877     39876     39879     39877     39876     39878
     39878     39876     39879     39880     39876     39879     39880     39876     39878
     39880     39876     39877     39882     39886     39887     39883     39882     39885
     39883     39882     39884     39884     39882     39885     39886     39882     39885
     39886     39882     39884     39886     39882     39883     39888     39892     39893
     39889     39888     39891     39889     39888     39890     39890     39888     39891
     39892     39888     39891     39892     39888     39890     39892     39888     39889
     39894     39898     39899     39895     39894     39897     39895     39894     39896
     39896     39894     39897     39898     39894     39897     39898     39894     39896
     39898     39894     39895     39900     39904     39905     39901     39900     39903
     39901     39900     39902     39902     39900     39903     39904     39900     39903
     39904     39900     39902     39904     39900     39901     39906     39910     39911
     39907     39906     39909     39907     39906     39908     39908     39906     39909
     39910     39906     39909     39910     39906     39908     39910     39906     39907
     39912     39916     39917     39913     39912     39915     39913     39912     39914
     39914     39912     39915     39916     39912     39915     39916     39912     39914
     39916     39912     39913     39918     39922     39923     39919     39918     39921
     39919     39918     39920     39920     39918     39921     39922     39918     39921
     39922     39918     39920     39922     39918     39919     39924     39928     39929
     39925     39924     39927     39925     39924     39926     39926     39924     39927
     39928     39924     39927     39928     39924     39926     39928     39924     39925
     39930     39934     39935     39931     39930     39933     39931     39930     39932
     39932     39930     39933     39934     39930     39933     39934     39930     39932
     39934     39930     39931     39936     39940     39941     39937     39936     39939
     39937     39936     39938     39938     39936     39939     39940     39936     39939
     39940     39936     39938     39940     39936     39937     39942     39946     39947
     39943     39942     39945     39943     39942     39944     39944     39942     39945
     39946     39942     39945     39946     39942     39944     39946     39942     39943
     39948     39952     39953     39949     39948     39951     39949     39948     39950
     39950     39948     39951     39952     39948     39951     39952     39948     39950
     39952     39948     39949     39954     39958     39959     39955     39954     39957
     39955     39954     39956     39956     39954     39957     39958     39954     39957
     39958     39954     39956     39958     39954     39955     39960     39964     39965
     39961     39960     39963     39961     39960     39962     39962     39960     39963
     39964     39960     39963     39964     39960     39962     39964     39960     39961
     39966     39970     39971     39967     39966     39969     39967     39966     39968
     39968     39966     39969     39970     39966     39969     39970     39966     39968
     39970     39966     39967     39972     39976     39977     39973     39972     39975
     39973     39972     39974     39974     39972     39975     39976     39972     39975
     39976     39972     39974     39976     39972     39973     39978     39982     39983
     39979     39978     39981     39979     39978     39980     39980     39978     39981
     39982     39978     39981     39982     39978     39980     39982     39978     39979
     39984     39988     39989     39985     39984     39987     39985     39984     39986
     39986     39984     39987     39988     39984     39987     39988     39984     39986
     39988     39984     39985     39990     39994     39995     39991     39990     39993
     39991     39990     39992     39992     39990     39993     39994     39990     39993
     39994     39990     39992     39994     39990     39991     39996     40000     40001
     39997     39996     39999     39997     39996     39998     39998     39996     39999
     40000     39996     39999     40000     39996     39998     40000     39996     39997
     40002     40006     40007     40003     40002     40005     40003     40002     40004
     40004     40002     40005     40006     40002     40005     40006     40002     40004
     40006     40002     40003     40008     40012     40013     40009     40008     40011
     40009     40008     40010     40010     40008     40011     40012     40008     40011
     40012     40008     40010     40012     40008     40009     40014     40018     40019
     40015     40014     40017     40015     40014     40016     40016     40014     40017
     40018     40014     40017     40018     40014     40016     40018     40014     40015
     40020     40024     40025     40021     40020     40023     40021     40020     40022
     40022     40020     40023     40024     40020     40023     40024     40020     40022
     40024     40020     40021     40026     40030     40031     40027     40026     40029
     40027     40026     40028     40028     40026     40029     40030     40026     40029
     40030     40026     40028     40030     40026     40027     40032     40036     40037
     40033     40032     40035     40033     40032     40034     40034     40032     40035
     40036     40032     40035     40036     40032     40034     40036     40032     40033
     40038     40042     40043     40039     40038     40041     40039     40038     40040
     40040     40038     40041     40042     40038     40041     40042     40038     40040
     40042     40038     40039     40044     40048     40049     40045     40044     40047
     40045     40044     40046     40046     40044     40047     40048     40044     40047
     40048     40044     40046     40048     40044     40045     40050     40054     40055
     40051     40050     40053     40051     40050     40052     40052     40050     40053
     40054     40050     40053     40054     40050     40052     40054     40050     40051
     40056     40060     40061     40057     40056     40059     40057     40056     40058
     40058     40056     40059     40060     40056     40059     40060     40056     40058
     40060     40056     40057     40062     40066     40067     40063     40062     40065
     40063     40062     40064     40064     40062     40065     40066     40062     40065
     40066     40062     40064     40066     40062     40063     40068     40072     40073
     40069     40068     40071     40069     40068     40070     40070     40068     40071
     40072     40068     40071     40072     40068     40070     40072     40068     40069
     40074     40078     40079     40075     40074     40077     40075     40074     40076
     40076     40074     40077     40078     40074     40077     40078     40074     40076
     40078     40074     40075     40080     40084     40085     40081     40080     40083
     40081     40080     40082     40082     40080     40083     40084     40080     40083
     40084     40080     40082     40084     40080     40081     40086     40090     40091
     40087     40086     40089     40087     40086     40088     40088     40086     40089
     40090     40086     40089     40090     40086     40088     40090     40086     40087
     40092     40096     40097     40093     40092     40095     40093     40092     40094
     40094     40092     40095     40096     40092     40095     40096     40092     40094
     40096     40092     40093     40098     40102     40103     40099     40098     40101
     40099     40098     40100     40100     40098     40101     40102     40098     40101
     40102     40098     40100     40102     40098     40099     40104     40108     40109
     40105     40104     40107     40105     40104     40106     40106     40104     40107
     40108     40104     40107     40108     40104     40106     40108     40104     40105
     40110     40114     40115     40111     40110     40113     40111     40110     40112
     40112     40110     40113     40114     40110     40113     40114     40110     40112
     40114     40110     40111     40116     40120     40121     40117     40116     40119
     40117     40116     40118     40118     40116     40119     40120     40116     40119
     40120     40116     40118     40120     40116     40117     40122     40126     40127
     40123     40122     40125     40123     40122     40124     40124     40122     40125
     40126     40122     40125     40126     40122     40124     40126     40122     40123
     40128     40132     40133     40129     40128     40131     40129     40128     40130
     40130     40128     40131     40132     40128     40131     40132     40128     40130
     40132     40128     40129     40134     40138     40139     40135     40134     40137
     40135     40134     40136     40136     40134     40137     40138     40134     40137
     40138     40134     40136     40138     40134     40135     40140     40144     40145
     40141     40140     40143     40141     40140     40142     40142     40140     40143
     40144     40140     40143     40144     40140     40142     40144     40140     40141
     40146     40150     40151     40147     40146     40149     40147     40146     40148
     40148     40146     40149     40150     40146     40149     40150     40146     40148
     40150     40146     40147     40152     40156     40157     40153     40152     40155
     40153     40152     40154     40154     40152     40155     40156     40152     40155
     40156     40152     40154     40156     40152     40153     40158     40162     40163
     40159     40158     40161     40159     40158     40160     40160     40158     40161
     40162     40158     40161     40162     40158     40160     40162     40158     40159
     40164     40168     40169     40165     40164     40167     40165     40164     40166
     40166     40164     40167     40168     40164     40167     40168     40164     40166
     40168     40164     40165     40170     40174     40175     40171     40170     40173
     40171     40170     40172     40172     40170     40173     40174     40170     40173
     40174     40170     40172     40174     40170     40171     40176     40180     40181
     40177     40176     40179     40177     40176     40178     40178     40176     40179
     40180     40176     40179     40180     40176     40178     40180     40176     40177
     40182     40186     40187     40183     40182     40185     40183     40182     40184
     40184     40182     40185     40186     40182     40185     40186     40182     40184
     40186     40182     40183     40188     40192     40193     40189     40188     40191
     40189     40188     40190     40190     40188     40191     40192     40188     40191
     40192     40188     40190     40192     40188     40189     40194     40198     40199
     40195     40194     40197     40195     40194     40196     40196     40194     40197
     40198     40194     40197     40198     40194     40196     40198     40194     40195
     40200     40204     40205     40201     40200     40203     40201     40200     40202
     40202     40200     40203     40204     40200     40203     40204     40200     40202
     40204     40200     40201     40206     40210     40211     40207     40206     40209
     40207     40206     40208     40208     40206     40209     40210     40206     40209
     40210     40206     40208     40210     40206     40207     40212     40216     40217
     40213     40212     40215     40213     40212     40214     40214     40212     40215
     40216     40212     40215     40216     40212     40214     40216     40212     40213
     40218     40222     40223     40219     40218     40221     40219     40218     40220
     40220     40218     40221     40222     40218     40221     40222     40218     40220
     40222     40218     40219     40224     40228     40229     40225     40224     40227
     40225     40224     40226     40226     40224     40227     40228     40224     40227
     40228     40224     40226     40228     40224     40225     40230     40234     40235
     40231     40230     40233     40231     40230     40232     40232     40230     40233
     40234     40230     40233     40234     40230     40232     40234     40230     40231
     40236     40240     40241     40237     40236     40239     40237     40236     40238
     40238     40236     40239     40240     40236     40239     40240     40236     40238
     40240     40236     40237     40242     40246     40247     40243     40242     40245
     40243     40242     40244     40244     40242     40245     40246     40242     40245
     40246     40242     40244     40246     40242     40243     40248     40252     40253
     40249     40248     40251     40249     40248     40250     40250     40248     40251
     40252     40248     40251     40252     40248     40250     40252     40248     40249
     40254     40258     40259     40255     40254     40257     40255     40254     40256
     40256     40254     40257     40258     40254     40257     40258     40254     40256
     40258     40254     40255     40260     40264     40265     40261     40260     40263
     40261     40260     40262     40262     40260     40263     40264     40260     40263
     40264     40260     40262     40264     40260     40261     40266     40270     40271
     40267     40266     40269     40267     40266     40268     40268     40266     40269
     40270     40266     40269     40270     40266     40268     40270     40266     40267
     40272     40276     40277     40273     40272     40275     40273     40272     40274
     40274     40272     40275     40276     40272     40275     40276     40272     40274
     40276     40272     40273     40278     40282     40283     40279     40278     40281
     40279     40278     40280     40280     40278     40281     40282     40278     40281
     40282     40278     40280     40282     40278     40279     40284     40288     40289
     40285     40284     40287     40285     40284     40286     40286     40284     40287
     40288     40284     40287     40288     40284     40286     40288     40284     40285
     40290     40294     40295     40291     40290     40293     40291     40290     40292
     40292     40290     40293     40294     40290     40293     40294     40290     40292
     40294     40290     40291     40296     40300     40301     40297     40296     40299
     40297     40296     40298     40298     40296     40299     40300     40296     40299
     40300     40296     40298     40300     40296     40297     40302     40306     40307
     40303     40302     40305     40303     40302     40304     40304     40302     40305
     40306     40302     40305     40306     40302     40304     40306     40302     40303
     40308     40312     40313     40309     40308     40311     40309     40308     40310
     40310     40308     40311     40312     40308     40311     40312     40308     40310
     40312     40308     40309     40314     40318     40319     40315     40314     40317
     40315     40314     40316     40316     40314     40317     40318     40314     40317
     40318     40314     40316     40318     40314     40315     40320     40324     40325
     40321     40320     40323     40321     40320     40322     40322     40320     40323
     40324     40320     40323     40324     40320     40322     40324     40320     40321
     40326     40330     40331     40327     40326     40329     40327     40326     40328
     40328     40326     40329     40330     40326     40329     40330     40326     40328
     40330     40326     40327     40332     40336     40337     40333     40332     40335
     40333     40332     40334     40334     40332     40335     40336     40332     40335
     40336     40332     40334     40336     40332     40333     40338     40342     40343
     40339     40338     40341     40339     40338     40340     40340     40338     40341
     40342     40338     40341     40342     40338     40340     40342     40338     40339
     40344     40348     40349     40345     40344     40347     40345     40344     40346
     40346     40344     40347     40348     40344     40347     40348     40344     40346
     40348     40344     40345     40350     40354     40355     40351     40350     40353
     40351     40350     40352     40352     40350     40353     40354     40350     40353
     40354     40350     40352     40354     40350     40351     40356     40360     40361
     40357     40356     40359     40357     40356     40358     40358     40356     40359
     40360     40356     40359     40360     40356     40358     40360     40356     40357
     40362     40366     40367     40363     40362     40365     40363     40362     40364
     40364     40362     40365     40366     40362     40365     40366     40362     40364
     40366     40362     40363     40368     40372     40373     40369     40368     40371
     40369     40368     40370     40370     40368     40371     40372     40368     40371
     40372     40368     40370     40372     40368     40369     40374     40378     40379
     40375     40374     40377     40375     40374     40376     40376     40374     40377
     40378     40374     40377     40378     40374     40376     40378     40374     40375
     40380     40384     40385     40381     40380     40383     40381     40380     40382
     40382     40380     40383     40384     40380     40383     40384     40380     40382
     40384     40380     40381     40386     40390     40391     40387     40386     40389
     40387     40386     40388     40388     40386     40389     40390     40386     40389
     40390     40386     40388     40390     40386     40387     40392     40396     40397
     40393     40392     40395     40393     40392     40394     40394     40392     40395
     40396     40392     40395     40396     40392     40394     40396     40392     40393
     40398     40402     40403     40399     40398     40401     40399     40398     40400
     40400     40398     40401     40402     40398     40401     40402     40398     40400
     40402     40398     40399     40404     40408     40409     40405     40404     40407
     40405     40404     40406     40406     40404     40407     40408     40404     40407
     40408     40404     40406     40408     40404     40405     40410     40414     40415
     40411     40410     40413     40411     40410     40412     40412     40410     40413
     40414     40410     40413     40414     40410     40412     40414     40410     40411
     40416     40420     40421     40417     40416     40419     40417     40416     40418
     40418     40416     40419     40420     40416     40419     40420     40416     40418
     40420     40416     40417     40422     40426     40427     40423     40422     40425
     40423     40422     40424     40424     40422     40425     40426     40422     40425
     40426     40422     40424     40426     40422     40423     40428     40432     40433
     40429     40428     40431     40429     40428     40430     40430     40428     40431
     40432     40428     40431     40432     40428     40430     40432     40428     40429
     40434     40438     40439     40435     40434     40437     40435     40434     40436
     40436     40434     40437     40438     40434     40437     40438     40434     40436
     40438     40434     40435     40440     40444     40445     40441     40440     40443
     40441     40440     40442     40442     40440     40443     40444     40440     40443
     40444     40440     40442     40444     40440     40441     40446     40450     40451
     40447     40446     40449     40447     40446     40448     40448     40446     40449
     40450     40446     40449     40450     40446     40448     40450     40446     40447
     40452     40456     40457     40453     40452     40455     40453     40452     40454
     40454     40452     40455     40456     40452     40455     40456     40452     40454
     40456     40452     40453     40458     40462     40463     40459     40458     40461
     40459     40458     40460     40460     40458     40461     40462     40458     40461
     40462     40458     40460     40462     40458     40459     40464     40468     40469
     40465     40464     40467     40465     40464     40466     40466     40464     40467
     40468     40464     40467     40468     40464     40466     40468     40464     40465
     40470     40474     40475     40471     40470     40473     40471     40470     40472
     40472     40470     40473     40474     40470     40473     40474     40470     40472
     40474     40470     40471     40476     40480     40481     40477     40476     40479
     40477     40476     40478     40478     40476     40479     40480     40476     40479
     40480     40476     40478     40480     40476     40477     40482     40486     40487
     40483     40482     40485     40483     40482     40484     40484     40482     40485
     40486     40482     40485     40486     40482     40484     40486     40482     40483
     40488     40492     40493     40489     40488     40491     40489     40488     40490
     40490     40488     40491     40492     40488     40491     40492     40488     40490
     40492     40488     40489     40494     40498     40499     40495     40494     40497
     40495     40494     40496     40496     40494     40497     40498     40494     40497
     40498     40494     40496     40498     40494     40495     40500     40504     40505
     40501     40500     40503     40501     40500     40502     40502     40500     40503
     40504     40500     40503     40504     40500     40502     40504     40500     40501
     40506     40510     40511     40507     40506     40509     40507     40506     40508
     40508     40506     40509     40510     40506     40509     40510     40506     40508
     40510     40506     40507     40512     40516     40517     40513     40512     40515
     40513     40512     40514     40514     40512     40515     40516     40512     40515
     40516     40512     40514     40516     40512     40513     40518     40522     40523
     40519     40518     40521     40519     40518     40520     40520     40518     40521
     40522     40518     40521     40522     40518     40520     40522     40518     40519
     40524     40528     40529     40525     40524     40527     40525     40524     40526
     40526     40524     40527     40528     40524     40527     40528     40524     40526
     40528     40524     40525     40530     40534     40535     40531     40530     40533
     40531     40530     40532     40532     40530     40533     40534     40530     40533
     40534     40530     40532     40534     40530     40531     40536     40540     40541
     40537     40536     40539     40537     40536     40538     40538     40536     40539
     40540     40536     40539     40540     40536     40538     40540     40536     40537
     40542     40546     40547     40543     40542     40545     40543     40542     40544
     40544     40542     40545     40546     40542     40545     40546     40542     40544
     40546     40542     40543     40548     40552     40553     40549     40548     40551
     40549     40548     40550     40550     40548     40551     40552     40548     40551
     40552     40548     40550     40552     40548     40549     40554     40558     40559
     40555     40554     40557     40555     40554     40556     40556     40554     40557
     40558     40554     40557     40558     40554     40556     40558     40554     40555
     40560     40564     40565     40561     40560     40563     40561     40560     40562
     40562     40560     40563     40564     40560     40563     40564     40560     40562
     40564     40560     40561     40566     40570     40571     40567     40566     40569
     40567     40566     40568     40568     40566     40569     40570     40566     40569
     40570     40566     40568     40570     40566     40567     40572     40576     40577
     40573     40572     40575     40573     40572     40574     40574     40572     40575
     40576     40572     40575     40576     40572     40574     40576     40572     40573
     40578     40582     40583     40579     40578     40581     40579     40578     40580
     40580     40578     40581     40582     40578     40581     40582     40578     40580
     40582     40578     40579     40584     40588     40589     40585     40584     40587
     40585     40584     40586     40586     40584     40587     40588     40584     40587
     40588     40584     40586     40588     40584     40585     40590     40594     40595
     40591     40590     40593     40591     40590     40592     40592     40590     40593
     40594     40590     40593     40594     40590     40592     40594     40590     40591
     40596     40600     40601     40597     40596     40599     40597     40596     40598
     40598     40596     40599     40600     40596     40599     40600     40596     40598
     40600     40596     40597     40602     40606     40607     40603     40602     40605
     40603     40602     40604     40604     40602     40605     40606     40602     40605
     40606     40602     40604     40606     40602     40603     40608     40612     40613
     40609     40608     40611     40609     40608     40610     40610     40608     40611
     40612     40608     40611     40612     40608     40610     40612     40608     40609
     40614     40618     40619     40615     40614     40617     40615     40614     40616
     40616     40614     40617     40618     40614     40617     40618     40614     40616
     40618     40614     40615     40620     40624     40625     40621     40620     40623
     40621     40620     40622     40622     40620     40623     40624     40620     40623
     40624     40620     40622     40624     40620     40621     40626     40630     40631
     40627     40626     40629     40627     40626     40628     40628     40626     40629
     40630     40626     40629     40630     40626     40628     40630     40626     40627
     40632     40636     40637     40633     40632     40635     40633     40632     40634
     40634     40632     40635     40636     40632     40635     40636     40632     40634
     40636     40632     40633     40638     40642     40643     40639     40638     40641
     40639     40638     40640     40640     40638     40641     40642     40638     40641
     40642     40638     40640     40642     40638     40639     40644     40648     40649
     40645     40644     40647     40645     40644     40646     40646     40644     40647
     40648     40644     40647     40648     40644     40646     40648     40644     40645
     40650     40654     40655     40651     40650     40653     40651     40650     40652
     40652     40650     40653     40654     40650     40653     40654     40650     40652
     40654     40650     40651     40656     40660     40661     40657     40656     40659
     40657     40656     40658     40658     40656     40659     40660     40656     40659
     40660     40656     40658     40660     40656     40657     40662     40666     40667
     40663     40662     40665     40663     40662     40664     40664     40662     40665
     40666     40662     40665     40666     40662     40664     40666     40662     40663
     40668     40672     40673     40669     40668     40671     40669     40668     40670
     40670     40668     40671     40672     40668     40671     40672     40668     40670
     40672     40668     40669     40674     40678     40679     40675     40674     40677
     40675     40674     40676     40676     40674     40677     40678     40674     40677
     40678     40674     40676     40678     40674     40675     40680     40684     40685
     40681     40680     40683     40681     40680     40682     40682     40680     40683
     40684     40680     40683     40684     40680     40682     40684     40680     40681
     40686     40690     40691     40687     40686     40689     40687     40686     40688
     40688     40686     40689     40690     40686     40689     40690     40686     40688
     40690     40686     40687     40692     40696     40697     40693     40692     40695
     40693     40692     40694     40694     40692     40695     40696     40692     40695
     40696     40692     40694     40696     40692     40693     40698     40702     40703
     40699     40698     40701     40699     40698     40700     40700     40698     40701
     40702     40698     40701     40702     40698     40700     40702     40698     40699
     40704     40708     40709     40705     40704     40707     40705     40704     40706
     40706     40704     40707     40708     40704     40707     40708     40704     40706
     40708     40704     40705     40710     40714     40715     40711     40710     40713
     40711     40710     40712     40712     40710     40713     40714     40710     40713
     40714     40710     40712     40714     40710     40711     40716     40720     40721
     40717     40716     40719     40717     40716     40718     40718     40716     40719
     40720     40716     40719     40720     40716     40718     40720     40716     40717
     40722     40726     40727     40723     40722     40725     40723     40722     40724
     40724     40722     40725     40726     40722     40725     40726     40722     40724
     40726     40722     40723     40728     40732     40733     40729     40728     40731
     40729     40728     40730     40730     40728     40731     40732     40728     40731
     40732     40728     40730     40732     40728     40729     40734     40738     40739
     40735     40734     40737     40735     40734     40736     40736     40734     40737
     40738     40734     40737     40738     40734     40736     40738     40734     40735
     40740     40744     40745     40741     40740     40743     40741     40740     40742
     40742     40740     40743     40744     40740     40743     40744     40740     40742
     40744     40740     40741     40746     40750     40751     40747     40746     40749
     40747     40746     40748     40748     40746     40749     40750     40746     40749
     40750     40746     40748     40750     40746     40747     40752     40756     40757
     40753     40752     40755     40753     40752     40754     40754     40752     40755
     40756     40752     40755     40756     40752     40754     40756     40752     40753
     40758     40762     40763     40759     40758     40761     40759     40758     40760
     40760     40758     40761     40762     40758     40761     40762     40758     40760
     40762     40758     40759     40764     40768     40769     40765     40764     40767
     40765     40764     40766     40766     40764     40767     40768     40764     40767
     40768     40764     40766     40768     40764     40765     40770     40774     40775
     40771     40770     40773     40771     40770     40772     40772     40770     40773
     40774     40770     40773     40774     40770     40772     40774     40770     40771
     40776     40780     40781     40777     40776     40779     40777     40776     40778
     40778     40776     40779     40780     40776     40779     40780     40776     40778
     40780     40776     40777     40782     40786     40787     40783     40782     40785
     40783     40782     40784     40784     40782     40785     40786     40782     40785
     40786     40782     40784     40786     40782     40783     40788     40792     40793
     40789     40788     40791     40789     40788     40790     40790     40788     40791
     40792     40788     40791     40792     40788     40790     40792     40788     40789
     40794     40798     40799     40795     40794     40797     40795     40794     40796
     40796     40794     40797     40798     40794     40797     40798     40794     40796
     40798     40794     40795     40800     40804     40805     40801     40800     40803
     40801     40800     40802     40802     40800     40803     40804     40800     40803
     40804     40800     40802     40804     40800     40801     40806     40810     40811
     40807     40806     40809     40807     40806     40808     40808     40806     40809
     40810     40806     40809     40810     40806     40808     40810     40806     40807
     40812     40816     40817     40813     40812     40815     40813     40812     40814
     40814     40812     40815     40816     40812     40815     40816     40812     40814
     40816     40812     40813     40818     40822     40823     40819     40818     40821
     40819     40818     40820     40820     40818     40821     40822     40818     40821
     40822     40818     40820     40822     40818     40819     40824     40828     40829
     40825     40824     40827     40825     40824     40826     40826     40824     40827
     40828     40824     40827     40828     40824     40826     40828     40824     40825
     40830     40834     40835     40831     40830     40833     40831     40830     40832
     40832     40830     40833     40834     40830     40833     40834     40830     40832
     40834     40830     40831     40836     40840     40841     40837     40836     40839
     40837     40836     40838     40838     40836     40839     40840     40836     40839
     40840     40836     40838     40840     40836     40837     40842     40846     40847
     40843     40842     40845     40843     40842     40844     40844     40842     40845
     40846     40842     40845     40846     40842     40844     40846     40842     40843
     40848     40852     40853     40849     40848     40851     40849     40848     40850
     40850     40848     40851     40852     40848     40851     40852     40848     40850
     40852     40848     40849     40854     40858     40859     40855     40854     40857
     40855     40854     40856     40856     40854     40857     40858     40854     40857
     40858     40854     40856     40858     40854     40855     40860     40864     40865
     40861     40860     40863     40861     40860     40862     40862     40860     40863
     40864     40860     40863     40864     40860     40862     40864     40860     40861
     40866     40870     40871     40867     40866     40869     40867     40866     40868
     40868     40866     40869     40870     40866     40869     40870     40866     40868
     40870     40866     40867     40872     40876     40877     40873     40872     40875
     40873     40872     40874     40874     40872     40875     40876     40872     40875
     40876     40872     40874     40876     40872     40873     40878     40882     40883
     40879     40878     40881     40879     40878     40880     40880     40878     40881
     40882     40878     40881     40882     40878     40880     40882     40878     40879
     40884     40888     40889     40885     40884     40887     40885     40884     40886
     40886     40884     40887     40888     40884     40887     40888     40884     40886
     40888     40884     40885     40890     40894     40895     40891     40890     40893
     40891     40890     40892     40892     40890     40893     40894     40890     40893
     40894     40890     40892     40894     40890     40891     40896     40900     40901
     40897     40896     40899     40897     40896     40898     40898     40896     40899
     40900     40896     40899     40900     40896     40898     40900     40896     40897
     40902     40906     40907     40903     40902     40905     40903     40902     40904
     40904     40902     40905     40906     40902     40905     40906     40902     40904
     40906     40902     40903     40908     40912     40913     40909     40908     40911
     40909     40908     40910     40910     40908     40911     40912     40908     40911
     40912     40908     40910     40912     40908     40909     40914     40918     40919
     40915     40914     40917     40915     40914     40916     40916     40914     40917
     40918     40914     40917     40918     40914     40916     40918     40914     40915
     40920     40924     40925     40921     40920     40923     40921     40920     40922
     40922     40920     40923     40924     40920     40923     40924     40920     40922
     40924     40920     40921     40926     40930     40931     40927     40926     40929
     40927     40926     40928     40928     40926     40929     40930     40926     40929
     40930     40926     40928     40930     40926     40927     40932     40936     40937
     40933     40932     40935     40933     40932     40934     40934     40932     40935
     40936     40932     40935     40936     40932     40934     40936     40932     40933
     40938     40942     40943     40939     40938     40941     40939     40938     40940
     40940     40938     40941     40942     40938     40941     40942     40938     40940
     40942     40938     40939     40944     40948     40949     40945     40944     40947
     40945     40944     40946     40946     40944     40947     40948     40944     40947
     40948     40944     40946     40948     40944     40945     40950     40954     40955
     40951     40950     40953     40951     40950     40952     40952     40950     40953
     40954     40950     40953     40954     40950     40952     40954     40950     40951
     40956     40960     40961     40957     40956     40959     40957     40956     40958
     40958     40956     40959     40960     40956     40959     40960     40956     40958
     40960     40956     40957     40962     40966     40967     40963     40962     40965
     40963     40962     40964     40964     40962     40965     40966     40962     40965
     40966     40962     40964     40966     40962     40963     40968     40972     40973
     40969     40968     40971     40969     40968     40970     40970     40968     40971
     40972     40968     40971     40972     40968     40970     40972     40968     40969
     40974     40978     40979     40975     40974     40977     40975     40974     40976
     40976     40974     40977     40978     40974     40977     40978     40974     40976
     40978     40974     40975     40980     40984     40985     40981     40980     40983
     40981     40980     40982     40982     40980     40983     40984     40980     40983
     40984     40980     40982     40984     40980     40981     40986     40990     40991
     40987     40986     40989     40987     40986     40988     40988     40986     40989
     40990     40986     40989     40990     40986     40988     40990     40986     40987
     40992     40996     40997     40993     40992     40995     40993     40992     40994
     40994     40992     40995     40996     40992     40995     40996     40992     40994
     40996     40992     40993     40998     41002     41003     40999     40998     41001
     40999     40998     41000     41000     40998     41001     41002     40998     41001
     41002     40998     41000     41002     40998     40999     41004     41008     41009
     41005     41004     41007     41005     41004     41006     41006     41004     41007
     41008     41004     41007     41008     41004     41006     41008     41004     41005
     41010     41014     41015     41011     41010     41013     41011     41010     41012
     41012     41010     41013     41014     41010     41013     41014     41010     41012
     41014     41010     41011     41016     41020     41021     41017     41016     41019
     41017     41016     41018     41018     41016     41019     41020     41016     41019
     41020     41016     41018     41020     41016     41017     41022     41026     41027
     41023     41022     41025     41023     41022     41024     41024     41022     41025
     41026     41022     41025     41026     41022     41024     41026     41022     41023
     41028     41032     41033     41029     41028     41031     41029     41028     41030
     41030     41028     41031     41032     41028     41031     41032     41028     41030
     41032     41028     41029     41034     41038     41039     41035     41034     41037
     41035     41034     41036     41036     41034     41037     41038     41034     41037
     41038     41034     41036     41038     41034     41035     41040     41044     41045
     41041     41040     41043     41041     41040     41042     41042     41040     41043
     41044     41040     41043     41044     41040     41042     41044     41040     41041
     41046     41050     41051     41047     41046     41049     41047     41046     41048
     41048     41046     41049     41050     41046     41049     41050     41046     41048
     41050     41046     41047     41052     41056     41057     41053     41052     41055
     41053     41052     41054     41054     41052     41055     41056     41052     41055
     41056     41052     41054     41056     41052     41053     41058     41062     41063
     41059     41058     41061     41059     41058     41060     41060     41058     41061
     41062     41058     41061     41062     41058     41060     41062     41058     41059
     41064     41068     41069     41065     41064     41067     41065     41064     41066
     41066     41064     41067     41068     41064     41067     41068     41064     41066
     41068     41064     41065     41070     41074     41075     41071     41070     41073
     41071     41070     41072     41072     41070     41073     41074     41070     41073
     41074     41070     41072     41074     41070     41071     41076     41080     41081
     41077     41076     41079     41077     41076     41078     41078     41076     41079
     41080     41076     41079     41080     41076     41078     41080     41076     41077
     41082     41086     41087     41083     41082     41085     41083     41082     41084
     41084     41082     41085     41086     41082     41085     41086     41082     41084
     41086     41082     41083     41088     41092     41093     41089     41088     41091
     41089     41088     41090     41090     41088     41091     41092     41088     41091
     41092     41088     41090     41092     41088     41089     41094     41098     41099
     41095     41094     41097     41095     41094     41096     41096     41094     41097
     41098     41094     41097     41098     41094     41096     41098     41094     41095
     41100     41104     41105     41101     41100     41103     41101     41100     41102
     41102     41100     41103     41104     41100     41103     41104     41100     41102
     41104     41100     41101     41106     41110     41111     41107     41106     41109
     41107     41106     41108     41108     41106     41109     41110     41106     41109
     41110     41106     41108     41110     41106     41107     41112     41116     41117
     41113     41112     41115     41113     41112     41114     41114     41112     41115
     41116     41112     41115     41116     41112     41114     41116     41112     41113
     41118     41122     41123     41119     41118     41121     41119     41118     41120
     41120     41118     41121     41122     41118     41121     41122     41118     41120
     41122     41118     41119     41124     41128     41129     41125     41124     41127
     41125     41124     41126     41126     41124     41127     41128     41124     41127
     41128     41124     41126     41128     41124     41125     41130     41134     41135
     41131     41130     41133     41131     41130     41132     41132     41130     41133
     41134     41130     41133     41134     41130     41132     41134     41130     41131
     41136     41140     41141     41137     41136     41139     41137     41136     41138
     41138     41136     41139     41140     41136     41139     41140     41136     41138
     41140     41136     41137     41142     41146     41147     41143     41142     41145
     41143     41142     41144     41144     41142     41145     41146     41142     41145
     41146     41142     41144     41146     41142     41143     41148     41152     41153
     41149     41148     41151     41149     41148     41150     41150     41148     41151
     41152     41148     41151     41152     41148     41150     41152     41148     41149
     41154     41158     41159     41155     41154     41157     41155     41154     41156
     41156     41154     41157     41158     41154     41157     41158     41154     41156
     41158     41154     41155     41160     41164     41165     41161     41160     41163
     41161     41160     41162     41162     41160     41163     41164     41160     41163
     41164     41160     41162     41164     41160     41161     41166     41170     41171
     41167     41166     41169     41167     41166     41168     41168     41166     41169
     41170     41166     41169     41170     41166     41168     41170     41166     41167
     41172     41176     41177     41173     41172     41175     41173     41172     41174
     41174     41172     41175     41176     41172     41175     41176     41172     41174
     41176     41172     41173     41178     41182     41183     41179     41178     41181
     41179     41178     41180     41180     41178     41181     41182     41178     41181
     41182     41178     41180     41182     41178     41179     41184     41188     41189
     41185     41184     41187     41185     41184     41186     41186     41184     41187
     41188     41184     41187     41188     41184     41186     41188     41184     41185
     41190     41194     41195     41191     41190     41193     41191     41190     41192
     41192     41190     41193     41194     41190     41193     41194     41190     41192
     41194     41190     41191     41196     41200     41201     41197     41196     41199
     41197     41196     41198     41198     41196     41199     41200     41196     41199
     41200     41196     41198     41200     41196     41197     41202     41206     41207
     41203     41202     41205     41203     41202     41204     41204     41202     41205
     41206     41202     41205     41206     41202     41204     41206     41202     41203
     41208     41212     41213     41209     41208     41211     41209     41208     41210
     41210     41208     41211     41212     41208     41211     41212     41208     41210
     41212     41208     41209     41214     41218     41219     41215     41214     41217
     41215     41214     41216     41216     41214     41217     41218     41214     41217
     41218     41214     41216     41218     41214     41215     41220     41224     41225
     41221     41220     41223     41221     41220     41222     41222     41220     41223
     41224     41220     41223     41224     41220     41222     41224     41220     41221
     41226     41230     41231     41227     41226     41229     41227     41226     41228
     41228     41226     41229     41230     41226     41229     41230     41226     41228
     41230     41226     41227     41232     41236     41237     41233     41232     41235
     41233     41232     41234     41234     41232     41235     41236     41232     41235
     41236     41232     41234     41236     41232     41233     41238     41242     41243
     41239     41238     41241     41239     41238     41240     41240     41238     41241
     41242     41238     41241     41242     41238     41240     41242     41238     41239
     41244     41248     41249     41245     41244     41247     41245     41244     41246
     41246     41244     41247     41248     41244     41247     41248     41244     41246
     41248     41244     41245     41250     41254     41255     41251     41250     41253
     41251     41250     41252     41252     41250     41253     41254     41250     41253
     41254     41250     41252     41254     41250     41251     41256     41260     41261
     41257     41256     41259     41257     41256     41258     41258     41256     41259
     41260     41256     41259     41260     41256     41258     41260     41256     41257
     41262     41266     41267     41263     41262     41265     41263     41262     41264
     41264     41262     41265     41266     41262     41265     41266     41262     41264
     41266     41262     41263     41268     41272     41273     41269     41268     41271
     41269     41268     41270     41270     41268     41271     41272     41268     41271
     41272     41268     41270     41272     41268     41269     41274     41278     41279
     41275     41274     41277     41275     41274     41276     41276     41274     41277
     41278     41274     41277     41278     41274     41276     41278     41274     41275
     41280     41284     41285     41281     41280     41283     41281     41280     41282
     41282     41280     41283     41284     41280     41283     41284     41280     41282
     41284     41280     41281     41286     41290     41291     41287     41286     41289
     41287     41286     41288     41288     41286     41289     41290     41286     41289
     41290     41286     41288     41290     41286     41287     41292     41296     41297
     41293     41292     41295     41293     41292     41294     41294     41292     41295
     41296     41292     41295     41296     41292     41294     41296     41292     41293
     41298     41302     41303     41299     41298     41301     41299     41298     41300
     41300     41298     41301     41302     41298     41301     41302     41298     41300
     41302     41298     41299     41304     41308     41309     41305     41304     41307
     41305     41304     41306     41306     41304     41307     41308     41304     41307
     41308     41304     41306     41308     41304     41305     41310     41314     41315
     41311     41310     41313     41311     41310     41312     41312     41310     41313
     41314     41310     41313     41314     41310     41312     41314     41310     41311
     41316     41320     41321     41317     41316     41319     41317     41316     41318
     41318     41316     41319     41320     41316     41319     41320     41316     41318
     41320     41316     41317     41322     41326     41327     41323     41322     41325
     41323     41322     41324     41324     41322     41325     41326     41322     41325
     41326     41322     41324     41326     41322     41323     41328     41332     41333
     41329     41328     41331     41329     41328     41330     41330     41328     41331
     41332     41328     41331     41332     41328     41330     41332     41328     41329
     41334     41338     41339     41335     41334     41337     41335     41334     41336
     41336     41334     41337     41338     41334     41337     41338     41334     41336
     41338     41334     41335     41340     41344     41345     41341     41340     41343
     41341     41340     41342     41342     41340     41343     41344     41340     41343
     41344     41340     41342     41344     41340     41341     41346     41350     41351
     41347     41346     41349     41347     41346     41348     41348     41346     41349
     41350     41346     41349     41350     41346     41348     41350     41346     41347
     41352     41356     41357     41353     41352     41355     41353     41352     41354
     41354     41352     41355     41356     41352     41355     41356     41352     41354
     41356     41352     41353     41358     41362     41363     41359     41358     41361
     41359     41358     41360     41360     41358     41361     41362     41358     41361
     41362     41358     41360     41362     41358     41359     41364     41368     41369
     41365     41364     41367     41365     41364     41366     41366     41364     41367
     41368     41364     41367     41368     41364     41366     41368     41364     41365
     41370     41374     41375     41371     41370     41373     41371     41370     41372
     41372     41370     41373     41374     41370     41373     41374     41370     41372
     41374     41370     41371     41376     41380     41381     41377     41376     41379
     41377     41376     41378     41378     41376     41379     41380     41376     41379
     41380     41376     41378     41380     41376     41377     41382     41386     41387
     41383     41382     41385     41383     41382     41384     41384     41382     41385
     41386     41382     41385     41386     41382     41384     41386     41382     41383
     41388     41392     41393     41389     41388     41391     41389     41388     41390
     41390     41388     41391     41392     41388     41391     41392     41388     41390
     41392     41388     41389     41394     41398     41399     41395     41394     41397
     41395     41394     41396     41396     41394     41397     41398     41394     41397
     41398     41394     41396     41398     41394     41395     41400     41404     41405
     41401     41400     41403     41401     41400     41402     41402     41400     41403
     41404     41400     41403     41404     41400     41402     41404     41400     41401
     41406     41410     41411     41407     41406     41409     41407     41406     41408
     41408     41406     41409     41410     41406     41409     41410     41406     41408
     41410     41406     41407     41412     41416     41417     41413     41412     41415
     41413     41412     41414     41414     41412     41415     41416     41412     41415
     41416     41412     41414     41416     41412     41413     41418     41422     41423
     41419     41418     41421     41419     41418     41420     41420     41418     41421
     41422     41418     41421     41422     41418     41420     41422     41418     41419
     41424     41428     41429     41425     41424     41427     41425     41424     41426
     41426     41424     41427     41428     41424     41427     41428     41424     41426
     41428     41424     41425     41430     41434     41435     41431     41430     41433
     41431     41430     41432     41432     41430     41433     41434     41430     41433
     41434     41430     41432     41434     41430     41431     41436     41440     41441
     41437     41436     41439     41437     41436     41438     41438     41436     41439
     41440     41436     41439     41440     41436     41438     41440     41436     41437
     41442     41446     41447     41443     41442     41445     41443     41442     41444
     41444     41442     41445     41446     41442     41445     41446     41442     41444
     41446     41442     41443     41448     41452     41453     41449     41448     41451
     41449     41448     41450     41450     41448     41451     41452     41448     41451
     41452     41448     41450     41452     41448     41449     41454     41458     41459
     41455     41454     41457     41455     41454     41456     41456     41454     41457
     41458     41454     41457     41458     41454     41456     41458     41454     41455
     41460     41464     41465     41461     41460     41463     41461     41460     41462
     41462     41460     41463     41464     41460     41463     41464     41460     41462
     41464     41460     41461     41466     41470     41471     41467     41466     41469
     41467     41466     41468     41468     41466     41469     41470     41466     41469
     41470     41466     41468     41470     41466     41467     41472     41476     41477
     41473     41472     41475     41473     41472     41474     41474     41472     41475
     41476     41472     41475     41476     41472     41474     41476     41472     41473
     41478     41482     41483     41479     41478     41481     41479     41478     41480
     41480     41478     41481     41482     41478     41481     41482     41478     41480
     41482     41478     41479     41484     41488     41489     41485     41484     41487
     41485     41484     41486     41486     41484     41487     41488     41484     41487
     41488     41484     41486     41488     41484     41485     41490     41494     41495
     41491     41490     41493     41491     41490     41492     41492     41490     41493
     41494     41490     41493     41494     41490     41492     41494     41490     41491
     41496     41500     41501     41497     41496     41499     41497     41496     41498
     41498     41496     41499     41500     41496     41499     41500     41496     41498
     41500     41496     41497     41502     41506     41507     41503     41502     41505
     41503     41502     41504     41504     41502     41505     41506     41502     41505
     41506     41502     41504     41506     41502     41503     41508     41512     41513
     41509     41508     41511     41509     41508     41510     41510     41508     41511
     41512     41508     41511     41512     41508     41510     41512     41508     41509
     41514     41518     41519     41515     41514     41517     41515     41514     41516
     41516     41514     41517     41518     41514     41517     41518     41514     41516
     41518     41514     41515     41520     41524     41525     41521     41520     41523
     41521     41520     41522     41522     41520     41523     41524     41520     41523
     41524     41520     41522     41524     41520     41521     41526     41530     41531
     41527     41526     41529     41527     41526     41528     41528     41526     41529
     41530     41526     41529     41530     41526     41528     41530     41526     41527
     41532     41536     41537     41533     41532     41535     41533     41532     41534
     41534     41532     41535     41536     41532     41535     41536     41532     41534
     41536     41532     41533     41538     41542     41543     41539     41538     41541
     41539     41538     41540     41540     41538     41541     41542     41538     41541
     41542     41538     41540     41542     41538     41539     41544     41548     41549
     41545     41544     41547     41545     41544     41546     41546     41544     41547
     41548     41544     41547     41548     41544     41546     41548     41544     41545
     41550     41554     41555     41551     41550     41553     41551     41550     41552
     41552     41550     41553     41554     41550     41553     41554     41550     41552
     41554     41550     41551     41556     41560     41561     41557     41556     41559
     41557     41556     41558     41558     41556     41559     41560     41556     41559
     41560     41556     41558     41560     41556     41557     41562     41566     41567
     41563     41562     41565     41563     41562     41564     41564     41562     41565
     41566     41562     41565     41566     41562     41564     41566     41562     41563
     41568     41572     41573     41569     41568     41571     41569     41568     41570
     41570     41568     41571     41572     41568     41571     41572     41568     41570
     41572     41568     41569     41574     41578     41579     41575     41574     41577
     41575     41574     41576     41576     41574     41577     41578     41574     41577
     41578     41574     41576     41578     41574     41575     41580     41584     41585
     41581     41580     41583     41581     41580     41582     41582     41580     41583
     41584     41580     41583     41584     41580     41582     41584     41580     41581
     41586     41590     41591     41587     41586     41589     41587     41586     41588
     41588     41586     41589     41590     41586     41589     41590     41586     41588
     41590     41586     41587     41592     41596     41597     41593     41592     41595
     41593     41592     41594     41594     41592     41595     41596     41592     41595
     41596     41592     41594     41596     41592     41593     41598     41602     41603
     41599     41598     41601     41599     41598     41600     41600     41598     41601
     41602     41598     41601     41602     41598     41600     41602     41598     41599
     41604     41608     41609     41605     41604     41607     41605     41604     41606
     41606     41604     41607     41608     41604     41607     41608     41604     41606
     41608     41604     41605     41610     41614     41615     41611     41610     41613
     41611     41610     41612     41612     41610     41613     41614     41610     41613
     41614     41610     41612     41614     41610     41611     41616     41620     41621
     41617     41616     41619     41617     41616     41618     41618     41616     41619
     41620     41616     41619     41620     41616     41618     41620     41616     41617
     41622     41626     41627     41623     41622     41625     41623     41622     41624
     41624     41622     41625     41626     41622     41625     41626     41622     41624
     41626     41622     41623     41628     41632     41633     41629     41628     41631
     41629     41628     41630     41630     41628     41631     41632     41628     41631
     41632     41628     41630     41632     41628     41629     41634     41638     41639
     41635     41634     41637     41635     41634     41636     41636     41634     41637
     41638     41634     41637     41638     41634     41636     41638     41634     41635
     41640     41644     41645     41641     41640     41643     41641     41640     41642
     41642     41640     41643     41644     41640     41643     41644     41640     41642
     41644     41640     41641     41646     41650     41651     41647     41646     41649
     41647     41646     41648     41648     41646     41649     41650     41646     41649
     41650     41646     41648     41650     41646     41647     41652     41656     41657
     41653     41652     41655     41653     41652     41654     41654     41652     41655
     41656     41652     41655     41656     41652     41654     41656     41652     41653
     41658     41662     41663     41659     41658     41661     41659     41658     41660
     41660     41658     41661     41662     41658     41661     41662     41658     41660
     41662     41658     41659     41664     41668     41669     41665     41664     41667
     41665     41664     41666     41666     41664     41667     41668     41664     41667
     41668     41664     41666     41668     41664     41665     41670     41674     41675
     41671     41670     41673     41671     41670     41672     41672     41670     41673
     41674     41670     41673     41674     41670     41672     41674     41670     41671
     41676     41680     41681     41677     41676     41679     41677     41676     41678
     41678     41676     41679     41680     41676     41679     41680     41676     41678
     41680     41676     41677     41682     41686     41687     41683     41682     41685
     41683     41682     41684     41684     41682     41685     41686     41682     41685
     41686     41682     41684     41686     41682     41683     41688     41692     41693
     41689     41688     41691     41689     41688     41690     41690     41688     41691
     41692     41688     41691     41692     41688     41690     41692     41688     41689
     41694     41698     41699     41695     41694     41697     41695     41694     41696
     41696     41694     41697     41698     41694     41697     41698     41694     41696
     41698     41694     41695     41700     41704     41705     41701     41700     41703
     41701     41700     41702     41702     41700     41703     41704     41700     41703
     41704     41700     41702     41704     41700     41701     41706     41710     41711
     41707     41706     41709     41707     41706     41708     41708     41706     41709
     41710     41706     41709     41710     41706     41708     41710     41706     41707
     41712     41716     41717     41713     41712     41715     41713     41712     41714
     41714     41712     41715     41716     41712     41715     41716     41712     41714
     41716     41712     41713     41718     41722     41723     41719     41718     41721
     41719     41718     41720     41720     41718     41721     41722     41718     41721
     41722     41718     41720     41722     41718     41719     41724     41728     41729
     41725     41724     41727     41725     41724     41726     41726     41724     41727
     41728     41724     41727     41728     41724     41726     41728     41724     41725
     41730     41734     41735     41731     41730     41733     41731     41730     41732
     41732     41730     41733     41734     41730     41733     41734     41730     41732
     41734     41730     41731     41736     41740     41741     41737     41736     41739
     41737     41736     41738     41738     41736     41739     41740     41736     41739
     41740     41736     41738     41740     41736     41737     41742     41746     41747
     41743     41742     41745     41743     41742     41744     41744     41742     41745
     41746     41742     41745     41746     41742     41744     41746     41742     41743
     41748     41752     41753     41749     41748     41751     41749     41748     41750
     41750     41748     41751     41752     41748     41751     41752     41748     41750
     41752     41748     41749     41754     41758     41759     41755     41754     41757
     41755     41754     41756     41756     41754     41757     41758     41754     41757
     41758     41754     41756     41758     41754     41755     41760     41764     41765
     41761     41760     41763     41761     41760     41762     41762     41760     41763
     41764     41760     41763     41764     41760     41762     41764     41760     41761
     41766     41770     41771     41767     41766     41769     41767     41766     41768
     41768     41766     41769     41770     41766     41769     41770     41766     41768
     41770     41766     41767     41772     41776     41777     41773     41772     41775
     41773     41772     41774     41774     41772     41775     41776     41772     41775
     41776     41772     41774     41776     41772     41773     41778     41782     41783
     41779     41778     41781     41779     41778     41780     41780     41778     41781
     41782     41778     41781     41782     41778     41780     41782     41778     41779
     41784     41788     41789     41785     41784     41787     41785     41784     41786
     41786     41784     41787     41788     41784     41787     41788     41784     41786
     41788     41784     41785     41790     41794     41795     41791     41790     41793
     41791     41790     41792     41792     41790     41793     41794     41790     41793
     41794     41790     41792     41794     41790     41791     41796     41800     41801
     41797     41796     41799     41797     41796     41798     41798     41796     41799
     41800     41796     41799     41800     41796     41798     41800     41796     41797
     41802     41806     41807     41803     41802     41805     41803     41802     41804
     41804     41802     41805     41806     41802     41805     41806     41802     41804
     41806     41802     41803     41808     41812     41813     41809     41808     41811
     41809     41808     41810     41810     41808     41811     41812     41808     41811
     41812     41808     41810     41812     41808     41809     41814     41818     41819
     41815     41814     41817     41815     41814     41816     41816     41814     41817
     41818     41814     41817     41818     41814     41816     41818     41814     41815
     41820     41824     41825     41821     41820     41823     41821     41820     41822
     41822     41820     41823     41824     41820     41823     41824     41820     41822
     41824     41820     41821     41826     41830     41831     41827     41826     41829
     41827     41826     41828     41828     41826     41829     41830     41826     41829
     41830     41826     41828     41830     41826     41827     41832     41836     41837
     41833     41832     41835     41833     41832     41834     41834     41832     41835
     41836     41832     41835     41836     41832     41834     41836     41832     41833
     41838     41842     41843     41839     41838     41841     41839     41838     41840
     41840     41838     41841     41842     41838     41841     41842     41838     41840
     41842     41838     41839     41844     41848     41849     41845     41844     41847
     41845     41844     41846     41846     41844     41847     41848     41844     41847
     41848     41844     41846     41848     41844     41845     41850     41854     41855
     41851     41850     41853     41851     41850     41852     41852     41850     41853
     41854     41850     41853     41854     41850     41852     41854     41850     41851
     41856     41860     41861     41857     41856     41859     41857     41856     41858
     41858     41856     41859     41860     41856     41859     41860     41856     41858
     41860     41856     41857     41862     41866     41867     41863     41862     41865
     41863     41862     41864     41864     41862     41865     41866     41862     41865
     41866     41862     41864     41866     41862     41863     41868     41872     41873
     41869     41868     41871     41869     41868     41870     41870     41868     41871
     41872     41868     41871     41872     41868     41870     41872     41868     41869
     41874     41878     41879     41875     41874     41877     41875     41874     41876
     41876     41874     41877     41878     41874     41877     41878     41874     41876
     41878     41874     41875     41880     41884     41885     41881     41880     41883
     41881     41880     41882     41882     41880     41883     41884     41880     41883
     41884     41880     41882     41884     41880     41881     41886     41890     41891
     41887     41886     41889     41887     41886     41888     41888     41886     41889
     41890     41886     41889     41890     41886     41888     41890     41886     41887
     41892     41896     41897     41893     41892     41895     41893     41892     41894
     41894     41892     41895     41896     41892     41895     41896     41892     41894
     41896     41892     41893     41898     41902     41903     41899     41898     41901
     41899     41898     41900     41900     41898     41901     41902     41898     41901
     41902     41898     41900     41902     41898     41899     41904     41908     41909
     41905     41904     41907     41905     41904     41906     41906     41904     41907
     41908     41904     41907     41908     41904     41906     41908     41904     41905
     41910     41914     41915     41911     41910     41913     41911     41910     41912
     41912     41910     41913     41914     41910     41913     41914     41910     41912
     41914     41910     41911     41916     41920     41921     41917     41916     41919
     41917     41916     41918     41918     41916     41919     41920     41916     41919
     41920     41916     41918     41920     41916     41917     41922     41926     41927
     41923     41922     41925     41923     41922     41924     41924     41922     41925
     41926     41922     41925     41926     41922     41924     41926     41922     41923
     41928     41932     41933     41929     41928     41931     41929     41928     41930
     41930     41928     41931     41932     41928     41931     41932     41928     41930
     41932     41928     41929     41934     41938     41939     41935     41934     41937
     41935     41934     41936     41936     41934     41937     41938     41934     41937
     41938     41934     41936     41938     41934     41935     41940     41944     41945
     41941     41940     41943     41941     41940     41942     41942     41940     41943
     41944     41940     41943     41944     41940     41942     41944     41940     41941
     41946     41950     41951     41947     41946     41949     41947     41946     41948
     41948     41946     41949     41950     41946     41949     41950     41946     41948
     41950     41946     41947     41952     41956     41957     41953     41952     41955
     41953     41952     41954     41954     41952     41955     41956     41952     41955
     41956     41952     41954     41956     41952     41953     41958     41962     41963
     41959     41958     41961     41959     41958     41960     41960     41958     41961
     41962     41958     41961     41962     41958     41960     41962     41958     41959
     41964     41968     41969     41965     41964     41967     41965     41964     41966
     41966     41964     41967     41968     41964     41967     41968     41964     41966
     41968     41964     41965     41970     41974     41975     41971     41970     41973
     41971     41970     41972     41972     41970     41973     41974     41970     41973
     41974     41970     41972     41974     41970     41971     41976     41980     41981
     41977     41976     41979     41977     41976     41978     41978     41976     41979
     41980     41976     41979     41980     41976     41978     41980     41976     41977
     41982     41986     41987     41983     41982     41985     41983     41982     41984
     41984     41982     41985     41986     41982     41985     41986     41982     41984
     41986     41982     41983     41988     41992     41993     41989     41988     41991
     41989     41988     41990     41990     41988     41991     41992     41988     41991
     41992     41988     41990     41992     41988     41989     41994     41998     41999
     41995     41994     41997     41995     41994     41996     41996     41994     41997
     41998     41994     41997     41998     41994     41996     41998     41994     41995
     42000     42004     42005     42001     42000     42003     42001     42000     42002
     42002     42000     42003     42004     42000     42003     42004     42000     42002
     42004     42000     42001     42006     42010     42011     42007     42006     42009
     42007     42006     42008     42008     42006     42009     42010     42006     42009
     42010     42006     42008     42010     42006     42007     42012     42016     42017
     42013     42012     42015     42013     42012     42014     42014     42012     42015
     42016     42012     42015     42016     42012     42014     42016     42012     42013
     42018     42022     42023     42019     42018     42021     42019     42018     42020
     42020     42018     42021     42022     42018     42021     42022     42018     42020
     42022     42018     42019     42024     42028     42029     42025     42024     42027
     42025     42024     42026     42026     42024     42027     42028     42024     42027
     42028     42024     42026     42028     42024     42025     42030     42034     42035
     42031     42030     42033     42031     42030     42032     42032     42030     42033
     42034     42030     42033     42034     42030     42032     42034     42030     42031
     42036     42040     42041     42037     42036     42039     42037     42036     42038
     42038     42036     42039     42040     42036     42039     42040     42036     42038
     42040     42036     42037     42042     42046     42047     42043     42042     42045
     42043     42042     42044     42044     42042     42045     42046     42042     42045
     42046     42042     42044     42046     42042     42043     42048     42052     42053
     42049     42048     42051     42049     42048     42050     42050     42048     42051
     42052     42048     42051     42052     42048     42050     42052     42048     42049
     42054     42058     42059     42055     42054     42057     42055     42054     42056
     42056     42054     42057     42058     42054     42057     42058     42054     42056
     42058     42054     42055     42060     42064     42065     42061     42060     42063
     42061     42060     42062     42062     42060     42063     42064     42060     42063
     42064     42060     42062     42064     42060     42061     42066     42070     42071
     42067     42066     42069     42067     42066     42068     42068     42066     42069
     42070     42066     42069     42070     42066     42068     42070     42066     42067
     42072     42076     42077     42073     42072     42075     42073     42072     42074
     42074     42072     42075     42076     42072     42075     42076     42072     42074
     42076     42072     42073     42078     42082     42083     42079     42078     42081
     42079     42078     42080     42080     42078     42081     42082     42078     42081
     42082     42078     42080     42082     42078     42079     42084     42088     42089
     42085     42084     42087     42085     42084     42086     42086     42084     42087
     42088     42084     42087     42088     42084     42086     42088     42084     42085
     42090     42094     42095     42091     42090     42093     42091     42090     42092
     42092     42090     42093     42094     42090     42093     42094     42090     42092
     42094     42090     42091     42096     42100     42101     42097     42096     42099
     42097     42096     42098     42098     42096     42099     42100     42096     42099
     42100     42096     42098     42100     42096     42097     42102     42106     42107
     42103     42102     42105     42103     42102     42104     42104     42102     42105
     42106     42102     42105     42106     42102     42104     42106     42102     42103
     42108     42112     42113     42109     42108     42111     42109     42108     42110
     42110     42108     42111     42112     42108     42111     42112     42108     42110
     42112     42108     42109     42114     42118     42119     42115     42114     42117
     42115     42114     42116     42116     42114     42117     42118     42114     42117
     42118     42114     42116     42118     42114     42115     42120     42124     42125
     42121     42120     42123     42121     42120     42122     42122     42120     42123
     42124     42120     42123     42124     42120     42122     42124     42120     42121
     42126     42130     42131     42127     42126     42129     42127     42126     42128
     42128     42126     42129     42130     42126     42129     42130     42126     42128
     42130     42126     42127     42132     42136     42137     42133     42132     42135
     42133     42132     42134     42134     42132     42135     42136     42132     42135
     42136     42132     42134     42136     42132     42133     42138     42142     42143
     42139     42138     42141     42139     42138     42140     42140     42138     42141
     42142     42138     42141     42142     42138     42140     42142     42138     42139
     42144     42148     42149     42145     42144     42147     42145     42144     42146
     42146     42144     42147     42148     42144     42147     42148     42144     42146
     42148     42144     42145     42150     42154     42155     42151     42150     42153
     42151     42150     42152     42152     42150     42153     42154     42150     42153
     42154     42150     42152     42154     42150     42151     42156     42160     42161
     42157     42156     42159     42157     42156     42158     42158     42156     42159
     42160     42156     42159     42160     42156     42158     42160     42156     42157
     42162     42166     42167     42163     42162     42165     42163     42162     42164
     42164     42162     42165     42166     42162     42165     42166     42162     42164
     42166     42162     42163     42168     42172     42173     42169     42168     42171
     42169     42168     42170     42170     42168     42171     42172     42168     42171
     42172     42168     42170     42172     42168     42169     42174     42178     42179
     42175     42174     42177     42175     42174     42176     42176     42174     42177
     42178     42174     42177     42178     42174     42176     42178     42174     42175
     42180     42184     42185     42181     42180     42183     42181     42180     42182
     42182     42180     42183     42184     42180     42183     42184     42180     42182
     42184     42180     42181     42186     42190     42191     42187     42186     42189
     42187     42186     42188     42188     42186     42189     42190     42186     42189
     42190     42186     42188     42190     42186     42187     42192     42196     42197
     42193     42192     42195     42193     42192     42194     42194     42192     42195
     42196     42192     42195     42196     42192     42194     42196     42192     42193
     42198     42202     42203     42199     42198     42201     42199     42198     42200
     42200     42198     42201     42202     42198     42201     42202     42198     42200
     42202     42198     42199     42204     42208     42209     42205     42204     42207
     42205     42204     42206     42206     42204     42207     42208     42204     42207
     42208     42204     42206     42208     42204     42205     42210     42214     42215
     42211     42210     42213     42211     42210     42212     42212     42210     42213
     42214     42210     42213     42214     42210     42212     42214     42210     42211
     42216     42220     42221     42217     42216     42219     42217     42216     42218
     42218     42216     42219     42220     42216     42219     42220     42216     42218
     42220     42216     42217     42222     42226     42227     42223     42222     42225
     42223     42222     42224     42224     42222     42225     42226     42222     42225
     42226     42222     42224     42226     42222     42223     42228     42232     42233
     42229     42228     42231     42229     42228     42230     42230     42228     42231
     42232     42228     42231     42232     42228     42230     42232     42228     42229
     42234     42238     42239     42235     42234     42237     42235     42234     42236
     42236     42234     42237     42238     42234     42237     42238     42234     42236
     42238     42234     42235     42240     42244     42245     42241     42240     42243
     42241     42240     42242     42242     42240     42243     42244     42240     42243
     42244     42240     42242     42244     42240     42241     42246     42250     42251
     42247     42246     42249     42247     42246     42248     42248     42246     42249
     42250     42246     42249     42250     42246     42248     42250     42246     42247
     42252     42256     42257     42253     42252     42255     42253     42252     42254
     42254     42252     42255     42256     42252     42255     42256     42252     42254
     42256     42252     42253     42258     42262     42263     42259     42258     42261
     42259     42258     42260     42260     42258     42261     42262     42258     42261
     42262     42258     42260     42262     42258     42259     42264     42268     42269
     42265     42264     42267     42265     42264     42266     42266     42264     42267
     42268     42264     42267     42268     42264     42266     42268     42264     42265
     42270     42274     42275     42271     42270     42273     42271     42270     42272
     42272     42270     42273     42274     42270     42273     42274     42270     42272
     42274     42270     42271     42276     42280     42281     42277     42276     42279
     42277     42276     42278     42278     42276     42279     42280     42276     42279
     42280     42276     42278     42280     42276     42277     42282     42286     42287
     42283     42282     42285     42283     42282     42284     42284     42282     42285
     42286     42282     42285     42286     42282     42284     42286     42282     42283
     42288     42292     42293     42289     42288     42291     42289     42288     42290
     42290     42288     42291     42292     42288     42291     42292     42288     42290
     42292     42288     42289     42294     42298     42299     42295     42294     42297
     42295     42294     42296     42296     42294     42297     42298     42294     42297
     42298     42294     42296     42298     42294     42295     42300     42304     42305
     42301     42300     42303     42301     42300     42302     42302     42300     42303
     42304     42300     42303     42304     42300     42302     42304     42300     42301
     42306     42310     42311     42307     42306     42309     42307     42306     42308
     42308     42306     42309     42310     42306     42309     42310     42306     42308
     42310     42306     42307     42312     42316     42317     42313     42312     42315
     42313     42312     42314     42314     42312     42315     42316     42312     42315
     42316     42312     42314     42316     42312     42313     42318     42322     42323
     42319     42318     42321     42319     42318     42320     42320     42318     42321
     42322     42318     42321     42322     42318     42320     42322     42318     42319
     42324     42328     42329     42325     42324     42327     42325     42324     42326
     42326     42324     42327     42328     42324     42327     42328     42324     42326
     42328     42324     42325     42330     42334     42335     42331     42330     42333
     42331     42330     42332     42332     42330     42333     42334     42330     42333
     42334     42330     42332     42334     42330     42331     42336     42340     42341
     42337     42336     42339     42337     42336     42338     42338     42336     42339
     42340     42336     42339     42340     42336     42338     42340     42336     42337
     42342     42346     42347     42343     42342     42345     42343     42342     42344
     42344     42342     42345     42346     42342     42345     42346     42342     42344
     42346     42342     42343     42348     42352     42353     42349     42348     42351
     42349     42348     42350     42350     42348     42351     42352     42348     42351
     42352     42348     42350     42352     42348     42349     42354     42358     42359
     42355     42354     42357     42355     42354     42356     42356     42354     42357
     42358     42354     42357     42358     42354     42356     42358     42354     42355
     42360     42364     42365     42361     42360     42363     42361     42360     42362
     42362     42360     42363     42364     42360     42363     42364     42360     42362
     42364     42360     42361     42366     42370     42371     42367     42366     42369
     42367     42366     42368     42368     42366     42369     42370     42366     42369
     42370     42366     42368     42370     42366     42367     42372     42376     42377
     42373     42372     42375     42373     42372     42374     42374     42372     42375
     42376     42372     42375     42376     42372     42374     42376     42372     42373
     42378     42382     42383     42379     42378     42381     42379     42378     42380
     42380     42378     42381     42382     42378     42381     42382     42378     42380
     42382     42378     42379     42384     42388     42389     42385     42384     42387
     42385     42384     42386     42386     42384     42387     42388     42384     42387
     42388     42384     42386     42388     42384     42385     42390     42394     42395
     42391     42390     42393     42391     42390     42392     42392     42390     42393
     42394     42390     42393     42394     42390     42392     42394     42390     42391
     42396     42400     42401     42397     42396     42399     42397     42396     42398
     42398     42396     42399     42400     42396     42399     42400     42396     42398
     42400     42396     42397     42402     42406     42407     42403     42402     42405
     42403     42402     42404     42404     42402     42405     42406     42402     42405
     42406     42402     42404     42406     42402     42403     42408     42412     42413
     42409     42408     42411     42409     42408     42410     42410     42408     42411
     42412     42408     42411     42412     42408     42410     42412     42408     42409
     42414     42418     42419     42415     42414     42417     42415     42414     42416
     42416     42414     42417     42418     42414     42417     42418     42414     42416
     42418     42414     42415     42420     42424     42425     42421     42420     42423
     42421     42420     42422     42422     42420     42423     42424     42420     42423
     42424     42420     42422     42424     42420     42421     42426     42430     42431
     42427     42426     42429     42427     42426     42428     42428     42426     42429
     42430     42426     42429     42430     42426     42428     42430     42426     42427
     42432     42436     42437     42433     42432     42435     42433     42432     42434
     42434     42432     42435     42436     42432     42435     42436     42432     42434
     42436     42432     42433     42438     42442     42443     42439     42438     42441
     42439     42438     42440     42440     42438     42441     42442     42438     42441
     42442     42438     42440     42442     42438     42439     42444     42448     42449
     42445     42444     42447     42445     42444     42446     42446     42444     42447
     42448     42444     42447     42448     42444     42446     42448     42444     42445
     42450     42454     42455     42451     42450     42453     42451     42450     42452
     42452     42450     42453     42454     42450     42453     42454     42450     42452
     42454     42450     42451     42456     42460     42461     42457     42456     42459
     42457     42456     42458     42458     42456     42459     42460     42456     42459
     42460     42456     42458     42460     42456     42457     42462     42466     42467
     42463     42462     42465     42463     42462     42464     42464     42462     42465
     42466     42462     42465     42466     42462     42464     42466     42462     42463
     42468     42472     42473     42469     42468     42471     42469     42468     42470
     42470     42468     42471     42472     42468     42471     42472     42468     42470
     42472     42468     42469     42474     42478     42479     42475     42474     42477
     42475     42474     42476     42476     42474     42477     42478     42474     42477
     42478     42474     42476     42478     42474     42475     42480     42484     42485
     42481     42480     42483     42481     42480     42482     42482     42480     42483
     42484     42480     42483     42484     42480     42482     42484     42480     42481
     42486     42490     42491     42487     42486     42489     42487     42486     42488
     42488     42486     42489     42490     42486     42489     42490     42486     42488
     42490     42486     42487     42492     42496     42497     42493     42492     42495
     42493     42492     42494     42494     42492     42495     42496     42492     42495
     42496     42492     42494     42496     42492     42493     42498     42502     42503
     42499     42498     42501     42499     42498     42500     42500     42498     42501
     42502     42498     42501     42502     42498     42500     42502     42498     42499
     42504     42508     42509     42505     42504     42507     42505     42504     42506
     42506     42504     42507     42508     42504     42507     42508     42504     42506
     42508     42504     42505     42510     42514     42515     42511     42510     42513
     42511     42510     42512     42512     42510     42513     42514     42510     42513
     42514     42510     42512     42514     42510     42511     42516     42520     42521
     42517     42516     42519     42517     42516     42518     42518     42516     42519
     42520     42516     42519     42520     42516     42518     42520     42516     42517
     42522     42526     42527     42523     42522     42525     42523     42522     42524
     42524     42522     42525     42526     42522     42525     42526     42522     42524
     42526     42522     42523     42528     42532     42533     42529     42528     42531
     42529     42528     42530     42530     42528     42531     42532     42528     42531
     42532     42528     42530     42532     42528     42529     42534     42538     42539
     42535     42534     42537     42535     42534     42536     42536     42534     42537
     42538     42534     42537     42538     42534     42536     42538     42534     42535
     42540     42544     42545     42541     42540     42543     42541     42540     42542
     42542     42540     42543     42544     42540     42543     42544     42540     42542
     42544     42540     42541     42546     42550     42551     42547     42546     42549
     42547     42546     42548     42548     42546     42549     42550     42546     42549
     42550     42546     42548     42550     42546     42547     42552     42556     42557
     42553     42552     42555     42553     42552     42554     42554     42552     42555
     42556     42552     42555     42556     42552     42554     42556     42552     42553
     42558     42562     42563     42559     42558     42561     42559     42558     42560
     42560     42558     42561     42562     42558     42561     42562     42558     42560
     42562     42558     42559     42564     42568     42569     42565     42564     42567
     42565     42564     42566     42566     42564     42567     42568     42564     42567
     42568     42564     42566     42568     42564     42565     42570     42574     42575
     42571     42570     42573     42571     42570     42572     42572     42570     42573
     42574     42570     42573     42574     42570     42572     42574     42570     42571
     42576     42580     42581     42577     42576     42579     42577     42576     42578
     42578     42576     42579     42580     42576     42579     42580     42576     42578
     42580     42576     42577     42582     42586     42587     42583     42582     42585
     42583     42582     42584     42584     42582     42585     42586     42582     42585
     42586     42582     42584     42586     42582     42583     42588     42592     42593
     42589     42588     42591     42589     42588     42590     42590     42588     42591
     42592     42588     42591     42592     42588     42590     42592     42588     42589
     42594     42598     42599     42595     42594     42597     42595     42594     42596
     42596     42594     42597     42598     42594     42597     42598     42594     42596
     42598     42594     42595     42600     42604     42605     42601     42600     42603
     42601     42600     42602     42602     42600     42603     42604     42600     42603
     42604     42600     42602     42604     42600     42601     42606     42610     42611
     42607     42606     42609     42607     42606     42608     42608     42606     42609
     42610     42606     42609     42610     42606     42608     42610     42606     42607
     42612     42616     42617     42613     42612     42615     42613     42612     42614
     42614     42612     42615     42616     42612     42615     42616     42612     42614
     42616     42612     42613     42618     42622     42623     42619     42618     42621
     42619     42618     42620     42620     42618     42621     42622     42618     42621
     42622     42618     42620     42622     42618     42619     42624     42628     42629
     42625     42624     42627     42625     42624     42626     42626     42624     42627
     42628     42624     42627     42628     42624     42626     42628     42624     42625
     42630     42634     42635     42631     42630     42633     42631     42630     42632
     42632     42630     42633     42634     42630     42633     42634     42630     42632
     42634     42630     42631     42636     42640     42641     42637     42636     42639
     42637     42636     42638     42638     42636     42639     42640     42636     42639
     42640     42636     42638     42640     42636     42637     42642     42646     42647
     42643     42642     42645     42643     42642     42644     42644     42642     42645
     42646     42642     42645     42646     42642     42644     42646     42642     42643
     42648     42652     42653     42649     42648     42651     42649     42648     42650
     42650     42648     42651     42652     42648     42651     42652     42648     42650
     42652     42648     42649     42654     42658     42659     42655     42654     42657
     42655     42654     42656     42656     42654     42657     42658     42654     42657
     42658     42654     42656     42658     42654     42655     42660     42664     42665
     42661     42660     42663     42661     42660     42662     42662     42660     42663
     42664     42660     42663     42664     42660     42662     42664     42660     42661
     42666     42670     42671     42667     42666     42669     42667     42666     42668
     42668     42666     42669     42670     42666     42669     42670     42666     42668
     42670     42666     42667     42672     42676     42677     42673     42672     42675
     42673     42672     42674     42674     42672     42675     42676     42672     42675
     42676     42672     42674     42676     42672     42673     42678     42682     42683
     42679     42678     42681     42679     42678     42680     42680     42678     42681
     42682     42678     42681     42682     42678     42680     42682     42678     42679
     42684     42688     42689     42685     42684     42687     42685     42684     42686
     42686     42684     42687     42688     42684     42687     42688     42684     42686
     42688     42684     42685     42690     42694     42695     42691     42690     42693
     42691     42690     42692     42692     42690     42693     42694     42690     42693
     42694     42690     42692     42694     42690     42691     42696     42700     42701
     42697     42696     42699     42697     42696     42698     42698     42696     42699
     42700     42696     42699     42700     42696     42698     42700     42696     42697
     42702     42706     42707     42703     42702     42705     42703     42702     42704
     42704     42702     42705     42706     42702     42705     42706     42702     42704
     42706     42702     42703     42708     42712     42713     42709     42708     42711
     42709     42708     42710     42710     42708     42711     42712     42708     42711
     42712     42708     42710     42712     42708     42709     42714     42718     42719
     42715     42714     42717     42715     42714     42716     42716     42714     42717
     42718     42714     42717     42718     42714     42716     42718     42714     42715
     42720     42724     42725     42721     42720     42723     42721     42720     42722
     42722     42720     42723     42724     42720     42723     42724     42720     42722
     42724     42720     42721     42726     42730     42731     42727     42726     42729
     42727     42726     42728     42728     42726     42729     42730     42726     42729
     42730     42726     42728     42730     42726     42727     42732     42736     42737
     42733     42732     42735     42733     42732     42734     42734     42732     42735
     42736     42732     42735     42736     42732     42734     42736     42732     42733
     42738     42742     42743     42739     42738     42741     42739     42738     42740
     42740     42738     42741     42742     42738     42741     42742     42738     42740
     42742     42738     42739     42744     42748     42749     42745     42744     42747
     42745     42744     42746     42746     42744     42747     42748     42744     42747
     42748     42744     42746     42748     42744     42745     42750     42754     42755
     42751     42750     42753     42751     42750     42752     42752     42750     42753
     42754     42750     42753     42754     42750     42752     42754     42750     42751
     42756     42760     42761     42757     42756     42759     42757     42756     42758
     42758     42756     42759     42760     42756     42759     42760     42756     42758
     42760     42756     42757     42762     42766     42767     42763     42762     42765
     42763     42762     42764     42764     42762     42765     42766     42762     42765
     42766     42762     42764     42766     42762     42763     42768     42772     42773
     42769     42768     42771     42769     42768     42770     42770     42768     42771
     42772     42768     42771     42772     42768     42770     42772     42768     42769
     42774     42778     42779     42775     42774     42777     42775     42774     42776
     42776     42774     42777     42778     42774     42777     42778     42774     42776
     42778     42774     42775     42780     42784     42785     42781     42780     42783
     42781     42780     42782     42782     42780     42783     42784     42780     42783
     42784     42780     42782     42784     42780     42781     42786     42790     42791
     42787     42786     42789     42787     42786     42788     42788     42786     42789
     42790     42786     42789     42790     42786     42788     42790     42786     42787
     42792     42796     42797     42793     42792     42795     42793     42792     42794
     42794     42792     42795     42796     42792     42795     42796     42792     42794
     42796     42792     42793     42798     42802     42803     42799     42798     42801
     42799     42798     42800     42800     42798     42801     42802     42798     42801
     42802     42798     42800     42802     42798     42799     42804     42808     42809
     42805     42804     42807     42805     42804     42806     42806     42804     42807
     42808     42804     42807     42808     42804     42806     42808     42804     42805
     42810     42814     42815     42811     42810     42813     42811     42810     42812
     42812     42810     42813     42814     42810     42813     42814     42810     42812
     42814     42810     42811     42816     42820     42821     42817     42816     42819
     42817     42816     42818     42818     42816     42819     42820     42816     42819
     42820     42816     42818     42820     42816     42817     42822     42826     42827
     42823     42822     42825     42823     42822     42824     42824     42822     42825
     42826     42822     42825     42826     42822     42824     42826     42822     42823
     42828     42832     42833     42829     42828     42831     42829     42828     42830
     42830     42828     42831     42832     42828     42831     42832     42828     42830
     42832     42828     42829     42834     42838     42839     42835     42834     42837
     42835     42834     42836     42836     42834     42837     42838     42834     42837
     42838     42834     42836     42838     42834     42835     42840     42844     42845
     42841     42840     42843     42841     42840     42842     42842     42840     42843
     42844     42840     42843     42844     42840     42842     42844     42840     42841
     42846     42850     42851     42847     42846     42849     42847     42846     42848
     42848     42846     42849     42850     42846     42849     42850     42846     42848
     42850     42846     42847     42852     42856     42857     42853     42852     42855
     42853     42852     42854     42854     42852     42855     42856     42852     42855
     42856     42852     42854     42856     42852     42853     42858     42862     42863
     42859     42858     42861     42859     42858     42860     42860     42858     42861
     42862     42858     42861     42862     42858     42860     42862     42858     42859
     42864     42868     42869     42865     42864     42867     42865     42864     42866
     42866     42864     42867     42868     42864     42867     42868     42864     42866
     42868     42864     42865     42870     42874     42875     42871     42870     42873
     42871     42870     42872     42872     42870     42873     42874     42870     42873
     42874     42870     42872     42874     42870     42871     42876     42880     42881
     42877     42876     42879     42877     42876     42878     42878     42876     42879
     42880     42876     42879     42880     42876     42878     42880     42876     42877
     42882     42886     42887     42883     42882     42885     42883     42882     42884
     42884     42882     42885     42886     42882     42885     42886     42882     42884
     42886     42882     42883     42888     42892     42893     42889     42888     42891
     42889     42888     42890     42890     42888     42891     42892     42888     42891
     42892     42888     42890     42892     42888     42889     42894     42898     42899
     42895     42894     42897     42895     42894     42896     42896     42894     42897
     42898     42894     42897     42898     42894     42896     42898     42894     42895
     42900     42904     42905     42901     42900     42903     42901     42900     42902
     42902     42900     42903     42904     42900     42903     42904     42900     42902
     42904     42900     42901     42906     42910     42911     42907     42906     42909
     42907     42906     42908     42908     42906     42909     42910     42906     42909
     42910     42906     42908     42910     42906     42907     42912     42916     42917
     42913     42912     42915     42913     42912     42914     42914     42912     42915
     42916     42912     42915     42916     42912     42914     42916     42912     42913
     42918     42922     42923     42919     42918     42921     42919     42918     42920
     42920     42918     42921     42922     42918     42921     42922     42918     42920
     42922     42918     42919     42924     42928     42929     42925     42924     42927
     42925     42924     42926     42926     42924     42927     42928     42924     42927
     42928     42924     42926     42928     42924     42925     42930     42934     42935
     42931     42930     42933     42931     42930     42932     42932     42930     42933
     42934     42930     42933     42934     42930     42932     42934     42930     42931
     42936     42940     42941     42937     42936     42939     42937     42936     42938
     42938     42936     42939     42940     42936     42939     42940     42936     42938
     42940     42936     42937     42942     42946     42947     42943     42942     42945
     42943     42942     42944     42944     42942     42945     42946     42942     42945
     42946     42942     42944     42946     42942     42943     42948     42952     42953
     42949     42948     42951     42949     42948     42950     42950     42948     42951
     42952     42948     42951     42952     42948     42950     42952     42948     42949
     42954     42958     42959     42955     42954     42957     42955     42954     42956
     42956     42954     42957     42958     42954     42957     42958     42954     42956
     42958     42954     42955     42960     42964     42965     42961     42960     42963
     42961     42960     42962     42962     42960     42963     42964     42960     42963
     42964     42960     42962     42964     42960     42961     42966     42970     42971
     42967     42966     42969     42967     42966     42968     42968     42966     42969
     42970     42966     42969     42970     42966     42968     42970     42966     42967
     42972     42976     42977     42973     42972     42975     42973     42972     42974
     42974     42972     42975     42976     42972     42975     42976     42972     42974
     42976     42972     42973     42978     42982     42983     42979     42978     42981
     42979     42978     42980     42980     42978     42981     42982     42978     42981
     42982     42978     42980     42982     42978     42979     42984     42988     42989
     42985     42984     42987     42985     42984     42986     42986     42984     42987
     42988     42984     42987     42988     42984     42986     42988     42984     42985
     42990     42994     42995     42991     42990     42993     42991     42990     42992
     42992     42990     42993     42994     42990     42993     42994     42990     42992
     42994     42990     42991     42996     43000     43001     42997     42996     42999
     42997     42996     42998     42998     42996     42999     43000     42996     42999
     43000     42996     42998     43000     42996     42997     43002     43006     43007
     43003     43002     43005     43003     43002     43004     43004     43002     43005
     43006     43002     43005     43006     43002     43004     43006     43002     43003
     43008     43012     43013     43009     43008     43011     43009     43008     43010
     43010     43008     43011     43012     43008     43011     43012     43008     43010
     43012     43008     43009     43014     43018     43019     43015     43014     43017
     43015     43014     43016     43016     43014     43017     43018     43014     43017
     43018     43014     43016     43018     43014     43015     43020     43024     43025
     43021     43020     43023     43021     43020     43022     43022     43020     43023
     43024     43020     43023     43024     43020     43022     43024     43020     43021
     43026     43030     43031     43027     43026     43029     43027     43026     43028
     43028     43026     43029     43030     43026     43029     43030     43026     43028
     43030     43026     43027     43032     43036     43037     43033     43032     43035
     43033     43032     43034     43034     43032     43035     43036     43032     43035
     43036     43032     43034     43036     43032     43033     43038     43042     43043
     43039     43038     43041     43039     43038     43040     43040     43038     43041
     43042     43038     43041     43042     43038     43040     43042     43038     43039
     43044     43048     43049     43045     43044     43047     43045     43044     43046
     43046     43044     43047     43048     43044     43047     43048     43044     43046
     43048     43044     43045     43050     43054     43055     43051     43050     43053
     43051     43050     43052     43052     43050     43053     43054     43050     43053
     43054     43050     43052     43054     43050     43051     43056     43060     43061
     43057     43056     43059     43057     43056     43058     43058     43056     43059
     43060     43056     43059     43060     43056     43058     43060     43056     43057
     43062     43066     43067     43063     43062     43065     43063     43062     43064
     43064     43062     43065     43066     43062     43065     43066     43062     43064
     43066     43062     43063     43068     43072     43073     43069     43068     43071
     43069     43068     43070     43070     43068     43071     43072     43068     43071
     43072     43068     43070     43072     43068     43069     43074     43078     43079
     43075     43074     43077     43075     43074     43076     43076     43074     43077
     43078     43074     43077     43078     43074     43076     43078     43074     43075
     43080     43084     43085     43081     43080     43083     43081     43080     43082
     43082     43080     43083     43084     43080     43083     43084     43080     43082
     43084     43080     43081     43086     43090     43091     43087     43086     43089
     43087     43086     43088     43088     43086     43089     43090     43086     43089
     43090     43086     43088     43090     43086     43087     43092     43096     43097
     43093     43092     43095     43093     43092     43094     43094     43092     43095
     43096     43092     43095     43096     43092     43094     43096     43092     43093
     43098     43102     43103     43099     43098     43101     43099     43098     43100
     43100     43098     43101     43102     43098     43101     43102     43098     43100
     43102     43098     43099     43104     43108     43109     43105     43104     43107
     43105     43104     43106     43106     43104     43107     43108     43104     43107
     43108     43104     43106     43108     43104     43105     43110     43114     43115
     43111     43110     43113     43111     43110     43112     43112     43110     43113
     43114     43110     43113     43114     43110     43112     43114     43110     43111
     43116     43120     43121     43117     43116     43119     43117     43116     43118
     43118     43116     43119     43120     43116     43119     43120     43116     43118
     43120     43116     43117     43122     43126     43127     43123     43122     43125
     43123     43122     43124     43124     43122     43125     43126     43122     43125
     43126     43122     43124     43126     43122     43123     43128     43132     43133
     43129     43128     43131     43129     43128     43130     43130     43128     43131
     43132     43128     43131     43132     43128     43130     43132     43128     43129
     43134     43138     43139     43135     43134     43137     43135     43134     43136
     43136     43134     43137     43138     43134     43137     43138     43134     43136
     43138     43134     43135     43140     43144     43145     43141     43140     43143
     43141     43140     43142     43142     43140     43143     43144     43140     43143
     43144     43140     43142     43144     43140     43141     43146     43150     43151
     43147     43146     43149     43147     43146     43148     43148     43146     43149
     43150     43146     43149     43150     43146     43148     43150     43146     43147
     43152     43156     43157     43153     43152     43155     43153     43152     43154
     43154     43152     43155     43156     43152     43155     43156     43152     43154
     43156     43152     43153     43158     43162     43163     43159     43158     43161
     43159     43158     43160     43160     43158     43161     43162     43158     43161
     43162     43158     43160     43162     43158     43159     43164     43168     43169
     43165     43164     43167     43165     43164     43166     43166     43164     43167
     43168     43164     43167     43168     43164     43166     43168     43164     43165
     43170     43174     43175     43171     43170     43173     43171     43170     43172
     43172     43170     43173     43174     43170     43173     43174     43170     43172
     43174     43170     43171     43176     43180     43181     43177     43176     43179
     43177     43176     43178     43178     43176     43179     43180     43176     43179
     43180     43176     43178     43180     43176     43177     43182     43186     43187
     43183     43182     43185     43183     43182     43184     43184     43182     43185
     43186     43182     43185     43186     43182     43184     43186     43182     43183
     43188     43192     43193     43189     43188     43191     43189     43188     43190
     43190     43188     43191     43192     43188     43191     43192     43188     43190
     43192     43188     43189     43194     43198     43199     43195     43194     43197
     43195     43194     43196     43196     43194     43197     43198     43194     43197
     43198     43194     43196     43198     43194     43195     43200     43204     43205
     43201     43200     43203     43201     43200     43202     43202     43200     43203
     43204     43200     43203     43204     43200     43202     43204     43200     43201
     43206     43210     43211     43207     43206     43209     43207     43206     43208
     43208     43206     43209     43210     43206     43209     43210     43206     43208
     43210     43206     43207     43212     43216     43217     43213     43212     43215
     43213     43212     43214     43214     43212     43215     43216     43212     43215
     43216     43212     43214     43216     43212     43213     43218     43222     43223
     43219     43218     43221     43219     43218     43220     43220     43218     43221
     43222     43218     43221     43222     43218     43220     43222     43218     43219
     43224     43228     43229     43225     43224     43227     43225     43224     43226
     43226     43224     43227     43228     43224     43227     43228     43224     43226
     43228     43224     43225     43230     43234     43235     43231     43230     43233
     43231     43230     43232     43232     43230     43233     43234     43230     43233
     43234     43230     43232     43234     43230     43231     43236     43240     43241
     43237     43236     43239     43237     43236     43238     43238     43236     43239
     43240     43236     43239     43240     43236     43238     43240     43236     43237
     43242     43246     43247     43243     43242     43245     43243     43242     43244
     43244     43242     43245     43246     43242     43245     43246     43242     43244
     43246     43242     43243     43248     43252     43253     43249     43248     43251
     43249     43248     43250     43250     43248     43251     43252     43248     43251
     43252     43248     43250     43252     43248     43249     43254     43258     43259
     43255     43254     43257     43255     43254     43256     43256     43254     43257
     43258     43254     43257     43258     43254     43256     43258     43254     43255
     43260     43264     43265     43261     43260     43263     43261     43260     43262
     43262     43260     43263     43264     43260     43263     43264     43260     43262
     43264     43260     43261     43266     43270     43271     43267     43266     43269
     43267     43266     43268     43268     43266     43269     43270     43266     43269
     43270     43266     43268     43270     43266     43267     43272     43276     43277
     43273     43272     43275     43273     43272     43274     43274     43272     43275
     43276     43272     43275     43276     43272     43274     43276     43272     43273
     43278     43282     43283     43279     43278     43281     43279     43278     43280
     43280     43278     43281     43282     43278     43281     43282     43278     43280
     43282     43278     43279     43284     43288     43289     43285     43284     43287
     43285     43284     43286     43286     43284     43287     43288     43284     43287
     43288     43284     43286     43288     43284     43285     43290     43294     43295
     43291     43290     43293     43291     43290     43292     43292     43290     43293
     43294     43290     43293     43294     43290     43292     43294     43290     43291
     43296     43300     43301     43297     43296     43299     43297     43296     43298
     43298     43296     43299     43300     43296     43299     43300     43296     43298
     43300     43296     43297     43302     43306     43307     43303     43302     43305
     43303     43302     43304     43304     43302     43305     43306     43302     43305
     43306     43302     43304     43306     43302     43303     43308     43312     43313
     43309     43308     43311     43309     43308     43310     43310     43308     43311
     43312     43308     43311     43312     43308     43310     43312     43308     43309
     43314     43318     43319     43315     43314     43317     43315     43314     43316
     43316     43314     43317     43318     43314     43317     43318     43314     43316
     43318     43314     43315     43320     43324     43325     43321     43320     43323
     43321     43320     43322     43322     43320     43323     43324     43320     43323
     43324     43320     43322     43324     43320     43321     43326     43330     43331
     43327     43326     43329     43327     43326     43328     43328     43326     43329
     43330     43326     43329     43330     43326     43328     43330     43326     43327
     43332     43336     43337     43333     43332     43335     43333     43332     43334
     43334     43332     43335     43336     43332     43335     43336     43332     43334
     43336     43332     43333     43338     43342     43343     43339     43338     43341
     43339     43338     43340     43340     43338     43341     43342     43338     43341
     43342     43338     43340     43342     43338     43339     43344     43348     43349
     43345     43344     43347     43345     43344     43346     43346     43344     43347
     43348     43344     43347     43348     43344     43346     43348     43344     43345
     43350     43354     43355     43351     43350     43353     43351     43350     43352
     43352     43350     43353     43354     43350     43353     43354     43350     43352
     43354     43350     43351     43356     43360     43361     43357     43356     43359
     43357     43356     43358     43358     43356     43359     43360     43356     43359
     43360     43356     43358     43360     43356     43357     43362     43366     43367
     43363     43362     43365     43363     43362     43364     43364     43362     43365
     43366     43362     43365     43366     43362     43364     43366     43362     43363
     43368     43372     43373     43369     43368     43371     43369     43368     43370
     43370     43368     43371     43372     43368     43371     43372     43368     43370
     43372     43368     43369     43374     43378     43379     43375     43374     43377
     43375     43374     43376     43376     43374     43377     43378     43374     43377
     43378     43374     43376     43378     43374     43375     43380     43384     43385
     43381     43380     43383     43381     43380     43382     43382     43380     43383
     43384     43380     43383     43384     43380     43382     43384     43380     43381
     43386     43390     43391     43387     43386     43389     43387     43386     43388
     43388     43386     43389     43390     43386     43389     43390     43386     43388
     43390     43386     43387     43392     43396     43397     43393     43392     43395
     43393     43392     43394     43394     43392     43395     43396     43392     43395
     43396     43392     43394     43396     43392     43393     43398     43402     43403
     43399     43398     43401     43399     43398     43400     43400     43398     43401
     43402     43398     43401     43402     43398     43400     43402     43398     43399
     43404     43408     43409     43405     43404     43407     43405     43404     43406
     43406     43404     43407     43408     43404     43407     43408     43404     43406
     43408     43404     43405     43410     43414     43415     43411     43410     43413
     43411     43410     43412     43412     43410     43413     43414     43410     43413
     43414     43410     43412     43414     43410     43411     43416     43420     43421
     43417     43416     43419     43417     43416     43418     43418     43416     43419
     43420     43416     43419     43420     43416     43418     43420     43416     43417
     43422     43426     43427     43423     43422     43425     43423     43422     43424
     43424     43422     43425     43426     43422     43425     43426     43422     43424
     43426     43422     43423     43428     43432     43433     43429     43428     43431
     43429     43428     43430     43430     43428     43431     43432     43428     43431
     43432     43428     43430     43432     43428     43429     43434     43438     43439
     43435     43434     43437     43435     43434     43436     43436     43434     43437
     43438     43434     43437     43438     43434     43436     43438     43434     43435
     43440     43444     43445     43441     43440     43443     43441     43440     43442
     43442     43440     43443     43444     43440     43443     43444     43440     43442
     43444     43440     43441     43446     43450     43451     43447     43446     43449
     43447     43446     43448     43448     43446     43449     43450     43446     43449
     43450     43446     43448     43450     43446     43447     43452     43456     43457
     43453     43452     43455     43453     43452     43454     43454     43452     43455
     43456     43452     43455     43456     43452     43454     43456     43452     43453
     43458     43462     43463     43459     43458     43461     43459     43458     43460
     43460     43458     43461     43462     43458     43461     43462     43458     43460
     43462     43458     43459     43464     43468     43469     43465     43464     43467
     43465     43464     43466     43466     43464     43467     43468     43464     43467
     43468     43464     43466     43468     43464     43465     43470     43474     43475
     43471     43470     43473     43471     43470     43472     43472     43470     43473
     43474     43470     43473     43474     43470     43472     43474     43470     43471
     43476     43480     43481     43477     43476     43479     43477     43476     43478
     43478     43476     43479     43480     43476     43479     43480     43476     43478
     43480     43476     43477     43482     43486     43487     43483     43482     43485
     43483     43482     43484     43484     43482     43485     43486     43482     43485
     43486     43482     43484     43486     43482     43483     43488     43492     43493
     43489     43488     43491     43489     43488     43490     43490     43488     43491
     43492     43488     43491     43492     43488     43490     43492     43488     43489
     43494     43498     43499     43495     43494     43497     43495     43494     43496
     43496     43494     43497     43498     43494     43497     43498     43494     43496
     43498     43494     43495     43500     43504     43505     43501     43500     43503
     43501     43500     43502     43502     43500     43503     43504     43500     43503
     43504     43500     43502     43504     43500     43501     43506     43510     43511
     43507     43506     43509     43507     43506     43508     43508     43506     43509
     43510     43506     43509     43510     43506     43508     43510     43506     43507
     43512     43516     43517     43513     43512     43515     43513     43512     43514
     43514     43512     43515     43516     43512     43515     43516     43512     43514
     43516     43512     43513     43518     43522     43523     43519     43518     43521
     43519     43518     43520     43520     43518     43521     43522     43518     43521
     43522     43518     43520     43522     43518     43519     43524     43528     43529
     43525     43524     43527     43525     43524     43526     43526     43524     43527
     43528     43524     43527     43528     43524     43526     43528     43524     43525
     43530     43534     43535     43531     43530     43533     43531     43530     43532
     43532     43530     43533     43534     43530     43533     43534     43530     43532
     43534     43530     43531     43536     43540     43541     43537     43536     43539
     43537     43536     43538     43538     43536     43539     43540     43536     43539
     43540     43536     43538     43540     43536     43537     43542     43546     43547
     43543     43542     43545     43543     43542     43544     43544     43542     43545
     43546     43542     43545     43546     43542     43544     43546     43542     43543
     43548     43552     43553     43549     43548     43551     43549     43548     43550
     43550     43548     43551     43552     43548     43551     43552     43548     43550
     43552     43548     43549     43554     43558     43559     43555     43554     43557
     43555     43554     43556     43556     43554     43557     43558     43554     43557
     43558     43554     43556     43558     43554     43555     43560     43564     43565
     43561     43560     43563     43561     43560     43562     43562     43560     43563
     43564     43560     43563     43564     43560     43562     43564     43560     43561
     43566     43570     43571     43567     43566     43569     43567     43566     43568
     43568     43566     43569     43570     43566     43569     43570     43566     43568
     43570     43566     43567     43572     43576     43577     43573     43572     43575
     43573     43572     43574     43574     43572     43575     43576     43572     43575
     43576     43572     43574     43576     43572     43573     43578     43582     43583
     43579     43578     43581     43579     43578     43580     43580     43578     43581
     43582     43578     43581     43582     43578     43580     43582     43578     43579
     43584     43588     43589     43585     43584     43587     43585     43584     43586
     43586     43584     43587     43588     43584     43587     43588     43584     43586
     43588     43584     43585     43590     43594     43595     43591     43590     43593
     43591     43590     43592     43592     43590     43593     43594     43590     43593
     43594     43590     43592     43594     43590     43591     43596     43600     43601
     43597     43596     43599     43597     43596     43598     43598     43596     43599
     43600     43596     43599     43600     43596     43598     43600     43596     43597
     43602     43606     43607     43603     43602     43605     43603     43602     43604
     43604     43602     43605     43606     43602     43605     43606     43602     43604
     43606     43602     43603     43608     43612     43613     43609     43608     43611
     43609     43608     43610     43610     43608     43611     43612     43608     43611
     43612     43608     43610     43612     43608     43609     43614     43618     43619
     43615     43614     43617     43615     43614     43616     43616     43614     43617
     43618     43614     43617     43618     43614     43616     43618     43614     43615
     43620     43624     43625     43621     43620     43623     43621     43620     43622
     43622     43620     43623     43624     43620     43623     43624     43620     43622
     43624     43620     43621     43626     43630     43631     43627     43626     43629
     43627     43626     43628     43628     43626     43629     43630     43626     43629
     43630     43626     43628     43630     43626     43627     43632     43636     43637
     43633     43632     43635     43633     43632     43634     43634     43632     43635
     43636     43632     43635     43636     43632     43634     43636     43632     43633
     43638     43642     43643     43639     43638     43641     43639     43638     43640
     43640     43638     43641     43642     43638     43641     43642     43638     43640
     43642     43638     43639     43644     43648     43649     43645     43644     43647
     43645     43644     43646     43646     43644     43647     43648     43644     43647
     43648     43644     43646     43648     43644     43645     43650     43654     43655
     43651     43650     43653     43651     43650     43652     43652     43650     43653
     43654     43650     43653     43654     43650     43652     43654     43650     43651
     43656     43660     43661     43657     43656     43659     43657     43656     43658
     43658     43656     43659     43660     43656     43659     43660     43656     43658
     43660     43656     43657     43662     43666     43667     43663     43662     43665
     43663     43662     43664     43664     43662     43665     43666     43662     43665
     43666     43662     43664     43666     43662     43663     43668     43672     43673
     43669     43668     43671     43669     43668     43670     43670     43668     43671
     43672     43668     43671     43672     43668     43670     43672     43668     43669
     43674     43678     43679     43675     43674     43677     43675     43674     43676
     43676     43674     43677     43678     43674     43677     43678     43674     43676
     43678     43674     43675     43680     43684     43685     43681     43680     43683
     43681     43680     43682     43682     43680     43683     43684     43680     43683
     43684     43680     43682     43684     43680     43681     43686     43690     43691
     43687     43686     43689     43687     43686     43688     43688     43686     43689
     43690     43686     43689     43690     43686     43688     43690     43686     43687
     43692     43696     43697     43693     43692     43695     43693     43692     43694
     43694     43692     43695     43696     43692     43695     43696     43692     43694
     43696     43692     43693     43698     43702     43703     43699     43698     43701
     43699     43698     43700     43700     43698     43701     43702     43698     43701
     43702     43698     43700     43702     43698     43699     43704     43708     43709
     43705     43704     43707     43705     43704     43706     43706     43704     43707
     43708     43704     43707     43708     43704     43706     43708     43704     43705
     43710     43714     43715     43711     43710     43713     43711     43710     43712
     43712     43710     43713     43714     43710     43713     43714     43710     43712
     43714     43710     43711     43716     43720     43721     43717     43716     43719
     43717     43716     43718     43718     43716     43719     43720     43716     43719
     43720     43716     43718     43720     43716     43717     43722     43726     43727
     43723     43722     43725     43723     43722     43724     43724     43722     43725
     43726     43722     43725     43726     43722     43724     43726     43722     43723
     43728     43732     43733     43729     43728     43731     43729     43728     43730
     43730     43728     43731     43732     43728     43731     43732     43728     43730
     43732     43728     43729     43734     43738     43739     43735     43734     43737
     43735     43734     43736     43736     43734     43737     43738     43734     43737
     43738     43734     43736     43738     43734     43735     43740     43744     43745
     43741     43740     43743     43741     43740     43742     43742     43740     43743
     43744     43740     43743     43744     43740     43742     43744     43740     43741
     43746     43750     43751     43747     43746     43749     43747     43746     43748
     43748     43746     43749     43750     43746     43749     43750     43746     43748
     43750     43746     43747     43752     43756     43757     43753     43752     43755
     43753     43752     43754     43754     43752     43755     43756     43752     43755
     43756     43752     43754     43756     43752     43753     43758     43762     43763
     43759     43758     43761     43759     43758     43760     43760     43758     43761
     43762     43758     43761     43762     43758     43760     43762     43758     43759
     43764     43768     43769     43765     43764     43767     43765     43764     43766
     43766     43764     43767     43768     43764     43767     43768     43764     43766
     43768     43764     43765     43770     43774     43775     43771     43770     43773
     43771     43770     43772     43772     43770     43773     43774     43770     43773
     43774     43770     43772     43774     43770     43771     43776     43780     43781
     43777     43776     43779     43777     43776     43778     43778     43776     43779
     43780     43776     43779     43780     43776     43778     43780     43776     43777
     43782     43786     43787     43783     43782     43785     43783     43782     43784
     43784     43782     43785     43786     43782     43785     43786     43782     43784
     43786     43782     43783     43788     43792     43793     43789     43788     43791
     43789     43788     43790     43790     43788     43791     43792     43788     43791
     43792     43788     43790     43792     43788     43789     43794     43798     43799
     43795     43794     43797     43795     43794     43796     43796     43794     43797
     43798     43794     43797     43798     43794     43796     43798     43794     43795
     43800     43804     43805     43801     43800     43803     43801     43800     43802
     43802     43800     43803     43804     43800     43803     43804     43800     43802
     43804     43800     43801     43806     43810     43811     43807     43806     43809
     43807     43806     43808     43808     43806     43809     43810     43806     43809
     43810     43806     43808     43810     43806     43807     43812     43816     43817
     43813     43812     43815     43813     43812     43814     43814     43812     43815
     43816     43812     43815     43816     43812     43814     43816     43812     43813
     43818     43822     43823     43819     43818     43821     43819     43818     43820
     43820     43818     43821     43822     43818     43821     43822     43818     43820
     43822     43818     43819     43824     43828     43829     43825     43824     43827
     43825     43824     43826     43826     43824     43827     43828     43824     43827
     43828     43824     43826     43828     43824     43825     43830     43834     43835
     43831     43830     43833     43831     43830     43832     43832     43830     43833
     43834     43830     43833     43834     43830     43832     43834     43830     43831
     43836     43840     43841     43837     43836     43839     43837     43836     43838
     43838     43836     43839     43840     43836     43839     43840     43836     43838
     43840     43836     43837     43842     43846     43847     43843     43842     43845
     43843     43842     43844     43844     43842     43845     43846     43842     43845
     43846     43842     43844     43846     43842     43843     43848     43852     43853
     43849     43848     43851     43849     43848     43850     43850     43848     43851
     43852     43848     43851     43852     43848     43850     43852     43848     43849
     43854     43858     43859     43855     43854     43857     43855     43854     43856
     43856     43854     43857     43858     43854     43857     43858     43854     43856
     43858     43854     43855     43860     43864     43865     43861     43860     43863
     43861     43860     43862     43862     43860     43863     43864     43860     43863
     43864     43860     43862     43864     43860     43861     43866     43870     43871
     43867     43866     43869     43867     43866     43868     43868     43866     43869
     43870     43866     43869     43870     43866     43868     43870     43866     43867
     43872     43876     43877     43873     43872     43875     43873     43872     43874
     43874     43872     43875     43876     43872     43875     43876     43872     43874
     43876     43872     43873     43878     43882     43883     43879     43878     43881
     43879     43878     43880     43880     43878     43881     43882     43878     43881
     43882     43878     43880     43882     43878     43879     43884     43888     43889
     43885     43884     43887     43885     43884     43886     43886     43884     43887
     43888     43884     43887     43888     43884     43886     43888     43884     43885
     43890     43894     43895     43891     43890     43893     43891     43890     43892
     43892     43890     43893     43894     43890     43893     43894     43890     43892
     43894     43890     43891     43896     43900     43901     43897     43896     43899
     43897     43896     43898     43898     43896     43899     43900     43896     43899
     43900     43896     43898     43900     43896     43897     43902     43906     43907
     43903     43902     43905     43903     43902     43904     43904     43902     43905
     43906     43902     43905     43906     43902     43904     43906     43902     43903
     43908     43912     43913     43909     43908     43911     43909     43908     43910
     43910     43908     43911     43912     43908     43911     43912     43908     43910
     43912     43908     43909     43914     43918     43919     43915     43914     43917
     43915     43914     43916     43916     43914     43917     43918     43914     43917
     43918     43914     43916     43918     43914     43915     43920     43924     43925
     43921     43920     43923     43921     43920     43922     43922     43920     43923
     43924     43920     43923     43924     43920     43922     43924     43920     43921
     43926     43930     43931     43927     43926     43929     43927     43926     43928
     43928     43926     43929     43930     43926     43929     43930     43926     43928
     43930     43926     43927     43932     43936     43937     43933     43932     43935
     43933     43932     43934     43934     43932     43935     43936     43932     43935
     43936     43932     43934     43936     43932     43933     43938     43942     43943
     43939     43938     43941     43939     43938     43940     43940     43938     43941
     43942     43938     43941     43942     43938     43940     43942     43938     43939
     43944     43948     43949     43945     43944     43947     43945     43944     43946
     43946     43944     43947     43948     43944     43947     43948     43944     43946
     43948     43944     43945     43950     43954     43955     43951     43950     43953
     43951     43950     43952     43952     43950     43953     43954     43950     43953
     43954     43950     43952     43954     43950     43951     43956     43960     43961
     43957     43956     43959     43957     43956     43958     43958     43956     43959
     43960     43956     43959     43960     43956     43958     43960     43956     43957
     43962     43966     43967     43963     43962     43965     43963     43962     43964
     43964     43962     43965     43966     43962     43965     43966     43962     43964
     43966     43962     43963     43968     43972     43973     43969     43968     43971
     43969     43968     43970     43970     43968     43971     43972     43968     43971
     43972     43968     43970     43972     43968     43969     43974     43978     43979
     43975     43974     43977     43975     43974     43976     43976     43974     43977
     43978     43974     43977     43978     43974     43976     43978     43974     43975
     43980     43984     43985     43981     43980     43983     43981     43980     43982
     43982     43980     43983     43984     43980     43983     43984     43980     43982
     43984     43980     43981     43986     43990     43991     43987     43986     43989
     43987     43986     43988     43988     43986     43989     43990     43986     43989
     43990     43986     43988     43990     43986     43987     43992     43996     43997
     43993     43992     43995     43993     43992     43994     43994     43992     43995
     43996     43992     43995     43996     43992     43994     43996     43992     43993
     43998     44002     44003     43999     43998     44001     43999     43998     44000
     44000     43998     44001     44002     43998     44001     44002     43998     44000
     44002     43998     43999     44004     44008     44009     44005     44004     44007
     44005     44004     44006     44006     44004     44007     44008     44004     44007
     44008     44004     44006     44008     44004     44005     44010     44014     44015
     44011     44010     44013     44011     44010     44012     44012     44010     44013
     44014     44010     44013     44014     44010     44012     44014     44010     44011
     44016     44020     44021     44017     44016     44019     44017     44016     44018
     44018     44016     44019     44020     44016     44019     44020     44016     44018
     44020     44016     44017     44022     44026     44027     44023     44022     44025
     44023     44022     44024     44024     44022     44025     44026     44022     44025
     44026     44022     44024     44026     44022     44023     44028     44032     44033
     44029     44028     44031     44029     44028     44030     44030     44028     44031
     44032     44028     44031     44032     44028     44030     44032     44028     44029
     44034     44038     44039     44035     44034     44037     44035     44034     44036
     44036     44034     44037     44038     44034     44037     44038     44034     44036
     44038     44034     44035     44040     44044     44045     44041     44040     44043
     44041     44040     44042     44042     44040     44043     44044     44040     44043
     44044     44040     44042     44044     44040     44041     44046     44050     44051
     44047     44046     44049     44047     44046     44048     44048     44046     44049
     44050     44046     44049     44050     44046     44048     44050     44046     44047
     44052     44056     44057     44053     44052     44055     44053     44052     44054
     44054     44052     44055     44056     44052     44055     44056     44052     44054
     44056     44052     44053     44058     44062     44063     44059     44058     44061
     44059     44058     44060     44060     44058     44061     44062     44058     44061
     44062     44058     44060     44062     44058     44059     44064     44068     44069
     44065     44064     44067     44065     44064     44066     44066     44064     44067
     44068     44064     44067     44068     44064     44066     44068     44064     44065
     44070     44074     44075     44071     44070     44073     44071     44070     44072
     44072     44070     44073     44074     44070     44073     44074     44070     44072
     44074     44070     44071     44076     44080     44081     44077     44076     44079
     44077     44076     44078     44078     44076     44079     44080     44076     44079
     44080     44076     44078     44080     44076     44077     44082     44086     44087
     44083     44082     44085     44083     44082     44084     44084     44082     44085
     44086     44082     44085     44086     44082     44084     44086     44082     44083
     44088     44092     44093     44089     44088     44091     44089     44088     44090
     44090     44088     44091     44092     44088     44091     44092     44088     44090
     44092     44088     44089     44094     44098     44099     44095     44094     44097
     44095     44094     44096     44096     44094     44097     44098     44094     44097
     44098     44094     44096     44098     44094     44095     44100     44104     44105
     44101     44100     44103     44101     44100     44102     44102     44100     44103
     44104     44100     44103     44104     44100     44102     44104     44100     44101
     44106     44110     44111     44107     44106     44109     44107     44106     44108
     44108     44106     44109     44110     44106     44109     44110     44106     44108
     44110     44106     44107     44112     44116     44117     44113     44112     44115
     44113     44112     44114     44114     44112     44115     44116     44112     44115
     44116     44112     44114     44116     44112     44113     44118     44122     44123
     44119     44118     44121     44119     44118     44120     44120     44118     44121
     44122     44118     44121     44122     44118     44120     44122     44118     44119
     44124     44128     44129     44125     44124     44127     44125     44124     44126
     44126     44124     44127     44128     44124     44127     44128     44124     44126
     44128     44124     44125     44130     44134     44135     44131     44130     44133
     44131     44130     44132     44132     44130     44133     44134     44130     44133
     44134     44130     44132     44134     44130     44131     44136     44140     44141
     44137     44136     44139     44137     44136     44138     44138     44136     44139
     44140     44136     44139     44140     44136     44138     44140     44136     44137
     44142     44146     44147     44143     44142     44145     44143     44142     44144
     44144     44142     44145     44146     44142     44145     44146     44142     44144
     44146     44142     44143     44148     44152     44153     44149     44148     44151
     44149     44148     44150     44150     44148     44151     44152     44148     44151
     44152     44148     44150     44152     44148     44149     44154     44158     44159
     44155     44154     44157     44155     44154     44156     44156     44154     44157
     44158     44154     44157     44158     44154     44156     44158     44154     44155
     44160     44164     44165     44161     44160     44163     44161     44160     44162
     44162     44160     44163     44164     44160     44163     44164     44160     44162
     44164     44160     44161     44166     44170     44171     44167     44166     44169
     44167     44166     44168     44168     44166     44169     44170     44166     44169
     44170     44166     44168     44170     44166     44167     44172     44176     44177
     44173     44172     44175     44173     44172     44174     44174     44172     44175
     44176     44172     44175     44176     44172     44174     44176     44172     44173
     44178     44182     44183     44179     44178     44181     44179     44178     44180
     44180     44178     44181     44182     44178     44181     44182     44178     44180
     44182     44178     44179     44184     44188     44189     44185     44184     44187
     44185     44184     44186     44186     44184     44187     44188     44184     44187
     44188     44184     44186     44188     44184     44185     44190     44194     44195
     44191     44190     44193     44191     44190     44192     44192     44190     44193
     44194     44190     44193     44194     44190     44192     44194     44190     44191
     44196     44200     44201     44197     44196     44199     44197     44196     44198
     44198     44196     44199     44200     44196     44199     44200     44196     44198
     44200     44196     44197     44202     44206     44207     44203     44202     44205
     44203     44202     44204     44204     44202     44205     44206     44202     44205
     44206     44202     44204     44206     44202     44203     44208     44212     44213
     44209     44208     44211     44209     44208     44210     44210     44208     44211
     44212     44208     44211     44212     44208     44210     44212     44208     44209
     44214     44218     44219     44215     44214     44217     44215     44214     44216
     44216     44214     44217     44218     44214     44217     44218     44214     44216
     44218     44214     44215     44220     44224     44225     44221     44220     44223
     44221     44220     44222     44222     44220     44223     44224     44220     44223
     44224     44220     44222     44224     44220     44221     44226     44230     44231
     44227     44226     44229     44227     44226     44228     44228     44226     44229
     44230     44226     44229     44230     44226     44228     44230     44226     44227
     44232     44236     44237     44233     44232     44235     44233     44232     44234
     44234     44232     44235     44236     44232     44235     44236     44232     44234
     44236     44232     44233     44238     44242     44243     44239     44238     44241
     44239     44238     44240     44240     44238     44241     44242     44238     44241
     44242     44238     44240     44242     44238     44239     44244     44248     44249
     44245     44244     44247     44245     44244     44246     44246     44244     44247
     44248     44244     44247     44248     44244     44246     44248     44244     44245
     44250     44254     44255     44251     44250     44253     44251     44250     44252
     44252     44250     44253     44254     44250     44253     44254     44250     44252
     44254     44250     44251     44256     44260     44261     44257     44256     44259
     44257     44256     44258     44258     44256     44259     44260     44256     44259
     44260     44256     44258     44260     44256     44257     44262     44266     44267
     44263     44262     44265     44263     44262     44264     44264     44262     44265
     44266     44262     44265     44266     44262     44264     44266     44262     44263
     44268     44272     44273     44269     44268     44271     44269     44268     44270
     44270     44268     44271     44272     44268     44271     44272     44268     44270
     44272     44268     44269     44274     44278     44279     44275     44274     44277
     44275     44274     44276     44276     44274     44277     44278     44274     44277
     44278     44274     44276     44278     44274     44275     44280     44284     44285
     44281     44280     44283     44281     44280     44282     44282     44280     44283
     44284     44280     44283     44284     44280     44282     44284     44280     44281
     44286     44290     44291     44287     44286     44289     44287     44286     44288
     44288     44286     44289     44290     44286     44289     44290     44286     44288
     44290     44286     44287     44292     44296     44297     44293     44292     44295
     44293     44292     44294     44294     44292     44295     44296     44292     44295
     44296     44292     44294     44296     44292     44293     44298     44302     44303
     44299     44298     44301     44299     44298     44300     44300     44298     44301
     44302     44298     44301     44302     44298     44300     44302     44298     44299
     44304     44308     44309     44305     44304     44307     44305     44304     44306
     44306     44304     44307     44308     44304     44307     44308     44304     44306
     44308     44304     44305     44310     44314     44315     44311     44310     44313
     44311     44310     44312     44312     44310     44313     44314     44310     44313
     44314     44310     44312     44314     44310     44311     44316     44320     44321
     44317     44316     44319     44317     44316     44318     44318     44316     44319
     44320     44316     44319     44320     44316     44318     44320     44316     44317
     44322     44326     44327     44323     44322     44325     44323     44322     44324
     44324     44322     44325     44326     44322     44325     44326     44322     44324
     44326     44322     44323     44328     44332     44333     44329     44328     44331
     44329     44328     44330     44330     44328     44331     44332     44328     44331
     44332     44328     44330     44332     44328     44329     44334     44338     44339
     44335     44334     44337     44335     44334     44336     44336     44334     44337
     44338     44334     44337     44338     44334     44336     44338     44334     44335
     44340     44344     44345     44341     44340     44343     44341     44340     44342
     44342     44340     44343     44344     44340     44343     44344     44340     44342
     44344     44340     44341     44346     44350     44351     44347     44346     44349
     44347     44346     44348     44348     44346     44349     44350     44346     44349
     44350     44346     44348     44350     44346     44347     44352     44356     44357
     44353     44352     44355     44353     44352     44354     44354     44352     44355
     44356     44352     44355     44356     44352     44354     44356     44352     44353
     44358     44362     44363     44359     44358     44361     44359     44358     44360
     44360     44358     44361     44362     44358     44361     44362     44358     44360
     44362     44358     44359     44364     44368     44369     44365     44364     44367
     44365     44364     44366     44366     44364     44367     44368     44364     44367
     44368     44364     44366     44368     44364     44365     44370     44374     44375
     44371     44370     44373     44371     44370     44372     44372     44370     44373
     44374     44370     44373     44374     44370     44372     44374     44370     44371
     44376     44380     44381     44377     44376     44379     44377     44376     44378
     44378     44376     44379     44380     44376     44379     44380     44376     44378
     44380     44376     44377     44382     44386     44387     44383     44382     44385
     44383     44382     44384     44384     44382     44385     44386     44382     44385
     44386     44382     44384     44386     44382     44383     44388     44392     44393
     44389     44388     44391     44389     44388     44390     44390     44388     44391
     44392     44388     44391     44392     44388     44390     44392     44388     44389
     44394     44398     44399     44395     44394     44397     44395     44394     44396
     44396     44394     44397     44398     44394     44397     44398     44394     44396
     44398     44394     44395     44400     44404     44405     44401     44400     44403
     44401     44400     44402     44402     44400     44403     44404     44400     44403
     44404     44400     44402     44404     44400     44401     44406     44410     44411
     44407     44406     44409     44407     44406     44408     44408     44406     44409
     44410     44406     44409     44410     44406     44408     44410     44406     44407
     44412     44416     44417     44413     44412     44415     44413     44412     44414
     44414     44412     44415     44416     44412     44415     44416     44412     44414
     44416     44412     44413     44418     44422     44423     44419     44418     44421
     44419     44418     44420     44420     44418     44421     44422     44418     44421
     44422     44418     44420     44422     44418     44419     44424     44428     44429
     44425     44424     44427     44425     44424     44426     44426     44424     44427
     44428     44424     44427     44428     44424     44426     44428     44424     44425
     44430     44434     44435     44431     44430     44433     44431     44430     44432
     44432     44430     44433     44434     44430     44433     44434     44430     44432
     44434     44430     44431     44436     44440     44441     44437     44436     44439
     44437     44436     44438     44438     44436     44439     44440     44436     44439
     44440     44436     44438     44440     44436     44437     44442     44446     44447
     44443     44442     44445     44443     44442     44444     44444     44442     44445
     44446     44442     44445     44446     44442     44444     44446     44442     44443
     44448     44452     44453     44449     44448     44451     44449     44448     44450
     44450     44448     44451     44452     44448     44451     44452     44448     44450
     44452     44448     44449     44454     44458     44459     44455     44454     44457
     44455     44454     44456     44456     44454     44457     44458     44454     44457
     44458     44454     44456     44458     44454     44455     44460     44464     44465
     44461     44460     44463     44461     44460     44462     44462     44460     44463
     44464     44460     44463     44464     44460     44462     44464     44460     44461
     44466     44470     44471     44467     44466     44469     44467     44466     44468
     44468     44466     44469     44470     44466     44469     44470     44466     44468
     44470     44466     44467     44472     44476     44477     44473     44472     44475
     44473     44472     44474     44474     44472     44475     44476     44472     44475
     44476     44472     44474     44476     44472     44473     44478     44482     44483
     44479     44478     44481     44479     44478     44480     44480     44478     44481
     44482     44478     44481     44482     44478     44480     44482     44478     44479
     44484     44488     44489     44485     44484     44487     44485     44484     44486
     44486     44484     44487     44488     44484     44487     44488     44484     44486
     44488     44484     44485     44490     44494     44495     44491     44490     44493
     44491     44490     44492     44492     44490     44493     44494     44490     44493
     44494     44490     44492     44494     44490     44491     44496     44500     44501
     44497     44496     44499     44497     44496     44498     44498     44496     44499
     44500     44496     44499     44500     44496     44498     44500     44496     44497
     44502     44506     44507     44503     44502     44505     44503     44502     44504
     44504     44502     44505     44506     44502     44505     44506     44502     44504
     44506     44502     44503     44508     44512     44513     44509     44508     44511
     44509     44508     44510     44510     44508     44511     44512     44508     44511
     44512     44508     44510     44512     44508     44509     44514     44518     44519
     44515     44514     44517     44515     44514     44516     44516     44514     44517
     44518     44514     44517     44518     44514     44516     44518     44514     44515
     44520     44524     44525     44521     44520     44523     44521     44520     44522
     44522     44520     44523     44524     44520     44523     44524     44520     44522
     44524     44520     44521     44526     44530     44531     44527     44526     44529
     44527     44526     44528     44528     44526     44529     44530     44526     44529
     44530     44526     44528     44530     44526     44527     44532     44536     44537
     44533     44532     44535     44533     44532     44534     44534     44532     44535
     44536     44532     44535     44536     44532     44534     44536     44532     44533
     44538     44542     44543     44539     44538     44541     44539     44538     44540
     44540     44538     44541     44542     44538     44541     44542     44538     44540
     44542     44538     44539     44544     44548     44549     44545     44544     44547
     44545     44544     44546     44546     44544     44547     44548     44544     44547
     44548     44544     44546     44548     44544     44545     44550     44554     44555
     44551     44550     44553     44551     44550     44552     44552     44550     44553
     44554     44550     44553     44554     44550     44552     44554     44550     44551
     44556     44560     44561     44557     44556     44559     44557     44556     44558
     44558     44556     44559     44560     44556     44559     44560     44556     44558
     44560     44556     44557     44562     44566     44567     44563     44562     44565
     44563     44562     44564     44564     44562     44565     44566     44562     44565
     44566     44562     44564     44566     44562     44563     44568     44572     44573
     44569     44568     44571     44569     44568     44570     44570     44568     44571
     44572     44568     44571     44572     44568     44570     44572     44568     44569
     44574     44578     44579     44575     44574     44577     44575     44574     44576
     44576     44574     44577     44578     44574     44577     44578     44574     44576
     44578     44574     44575     44580     44584     44585     44581     44580     44583
     44581     44580     44582     44582     44580     44583     44584     44580     44583
     44584     44580     44582     44584     44580     44581     44586     44590     44591
     44587     44586     44589     44587     44586     44588     44588     44586     44589
     44590     44586     44589     44590     44586     44588     44590     44586     44587
     44592     44596     44597     44593     44592     44595     44593     44592     44594
     44594     44592     44595     44596     44592     44595     44596     44592     44594
     44596     44592     44593     44598     44602     44603     44599     44598     44601
     44599     44598     44600     44600     44598     44601     44602     44598     44601
     44602     44598     44600     44602     44598     44599     44604     44608     44609
     44605     44604     44607     44605     44604     44606     44606     44604     44607
     44608     44604     44607     44608     44604     44606     44608     44604     44605
     44610     44614     44615     44611     44610     44613     44611     44610     44612
     44612     44610     44613     44614     44610     44613     44614     44610     44612
     44614     44610     44611     44616     44620     44621     44617     44616     44619
     44617     44616     44618     44618     44616     44619     44620     44616     44619
     44620     44616     44618     44620     44616     44617     44622     44626     44627
     44623     44622     44625     44623     44622     44624     44624     44622     44625
     44626     44622     44625     44626     44622     44624     44626     44622     44623
     44628     44632     44633     44629     44628     44631     44629     44628     44630
     44630     44628     44631     44632     44628     44631     44632     44628     44630
     44632     44628     44629     44634     44638     44639     44635     44634     44637
     44635     44634     44636     44636     44634     44637     44638     44634     44637
     44638     44634     44636     44638     44634     44635     44640     44644     44645
     44641     44640     44643     44641     44640     44642     44642     44640     44643
     44644     44640     44643     44644     44640     44642     44644     44640     44641
     44646     44650     44651     44647     44646     44649     44647     44646     44648
     44648     44646     44649     44650     44646     44649     44650     44646     44648
     44650     44646     44647     44652     44656     44657     44653     44652     44655
     44653     44652     44654     44654     44652     44655     44656     44652     44655
     44656     44652     44654     44656     44652     44653     44658     44662     44663
     44659     44658     44661     44659     44658     44660     44660     44658     44661
     44662     44658     44661     44662     44658     44660     44662     44658     44659
     44664     44668     44669     44665     44664     44667     44665     44664     44666
     44666     44664     44667     44668     44664     44667     44668     44664     44666
     44668     44664     44665     44670     44674     44675     44671     44670     44673
     44671     44670     44672     44672     44670     44673     44674     44670     44673
     44674     44670     44672     44674     44670     44671     44676     44680     44681
     44677     44676     44679     44677     44676     44678     44678     44676     44679
     44680     44676     44679     44680     44676     44678     44680     44676     44677
     44682     44686     44687     44683     44682     44685     44683     44682     44684
     44684     44682     44685     44686     44682     44685     44686     44682     44684
     44686     44682     44683     44688     44692     44693     44689     44688     44691
     44689     44688     44690     44690     44688     44691     44692     44688     44691
     44692     44688     44690     44692     44688     44689     44694     44698     44699
     44695     44694     44697     44695     44694     44696     44696     44694     44697
     44698     44694     44697     44698     44694     44696     44698     44694     44695
     44700     44704     44705     44701     44700     44703     44701     44700     44702
     44702     44700     44703     44704     44700     44703     44704     44700     44702
     44704     44700     44701     44706     44710     44711     44707     44706     44709
     44707     44706     44708     44708     44706     44709     44710     44706     44709
     44710     44706     44708     44710     44706     44707     44712     44716     44717
     44713     44712     44715     44713     44712     44714     44714     44712     44715
     44716     44712     44715     44716     44712     44714     44716     44712     44713
     44718     44722     44723     44719     44718     44721     44719     44718     44720
     44720     44718     44721     44722     44718     44721     44722     44718     44720
     44722     44718     44719     44724     44728     44729     44725     44724     44727
     44725     44724     44726     44726     44724     44727     44728     44724     44727
     44728     44724     44726     44728     44724     44725     44730     44734     44735
     44731     44730     44733     44731     44730     44732     44732     44730     44733
     44734     44730     44733     44734     44730     44732     44734     44730     44731
     44736     44740     44741     44737     44736     44739     44737     44736     44738
     44738     44736     44739     44740     44736     44739     44740     44736     44738
     44740     44736     44737     44742     44746     44747     44743     44742     44745
     44743     44742     44744     44744     44742     44745     44746     44742     44745
     44746     44742     44744     44746     44742     44743     44748     44752     44753
     44749     44748     44751     44749     44748     44750     44750     44748     44751
     44752     44748     44751     44752     44748     44750     44752     44748     44749
     44754     44758     44759     44755     44754     44757     44755     44754     44756
     44756     44754     44757     44758     44754     44757     44758     44754     44756
     44758     44754     44755     44760     44764     44765     44761     44760     44763
     44761     44760     44762     44762     44760     44763     44764     44760     44763
     44764     44760     44762     44764     44760     44761     44766     44770     44771
     44767     44766     44769     44767     44766     44768     44768     44766     44769
     44770     44766     44769     44770     44766     44768     44770     44766     44767
     44772     44776     44777     44773     44772     44775     44773     44772     44774
     44774     44772     44775     44776     44772     44775     44776     44772     44774
     44776     44772     44773     44778     44782     44783     44779     44778     44781
     44779     44778     44780     44780     44778     44781     44782     44778     44781
     44782     44778     44780     44782     44778     44779     44784     44788     44789
     44785     44784     44787     44785     44784     44786     44786     44784     44787
     44788     44784     44787     44788     44784     44786     44788     44784     44785
     44790     44794     44795     44791     44790     44793     44791     44790     44792
     44792     44790     44793     44794     44790     44793     44794     44790     44792
     44794     44790     44791     44796     44800     44801     44797     44796     44799
     44797     44796     44798     44798     44796     44799     44800     44796     44799
     44800     44796     44798     44800     44796     44797     44802     44806     44807
     44803     44802     44805     44803     44802     44804     44804     44802     44805
     44806     44802     44805     44806     44802     44804     44806     44802     44803
     44808     44812     44813     44809     44808     44811     44809     44808     44810
     44810     44808     44811     44812     44808     44811     44812     44808     44810
     44812     44808     44809     44814     44818     44819     44815     44814     44817
     44815     44814     44816     44816     44814     44817     44818     44814     44817
     44818     44814     44816     44818     44814     44815     44820     44824     44825
     44821     44820     44823     44821     44820     44822     44822     44820     44823
     44824     44820     44823     44824     44820     44822     44824     44820     44821
     44826     44830     44831     44827     44826     44829     44827     44826     44828
     44828     44826     44829     44830     44826     44829     44830     44826     44828
     44830     44826     44827     44832     44836     44837     44833     44832     44835
     44833     44832     44834     44834     44832     44835     44836     44832     44835
     44836     44832     44834     44836     44832     44833     44838     44842     44843
     44839     44838     44841     44839     44838     44840     44840     44838     44841
     44842     44838     44841     44842     44838     44840     44842     44838     44839
     44844     44848     44849     44845     44844     44847     44845     44844     44846
     44846     44844     44847     44848     44844     44847     44848     44844     44846
     44848     44844     44845     44850     44854     44855     44851     44850     44853
     44851     44850     44852     44852     44850     44853     44854     44850     44853
     44854     44850     44852     44854     44850     44851     44856     44860     44861
     44857     44856     44859     44857     44856     44858     44858     44856     44859
     44860     44856     44859     44860     44856     44858     44860     44856     44857
     44862     44866     44867     44863     44862     44865     44863     44862     44864
     44864     44862     44865     44866     44862     44865     44866     44862     44864
     44866     44862     44863     44868     44872     44873     44869     44868     44871
     44869     44868     44870     44870     44868     44871     44872     44868     44871
     44872     44868     44870     44872     44868     44869     44874     44878     44879
     44875     44874     44877     44875     44874     44876     44876     44874     44877
     44878     44874     44877     44878     44874     44876     44878     44874     44875
     44880     44884     44885     44881     44880     44883     44881     44880     44882
     44882     44880     44883     44884     44880     44883     44884     44880     44882
     44884     44880     44881     44886     44890     44891     44887     44886     44889
     44887     44886     44888     44888     44886     44889     44890     44886     44889
     44890     44886     44888     44890     44886     44887     44892     44896     44897
     44893     44892     44895     44893     44892     44894     44894     44892     44895
     44896     44892     44895     44896     44892     44894     44896     44892     44893
     44898     44902     44903     44899     44898     44901     44899     44898     44900
     44900     44898     44901     44902     44898     44901     44902     44898     44900
     44902     44898     44899     44904     44908     44909     44905     44904     44907
     44905     44904     44906     44906     44904     44907     44908     44904     44907
     44908     44904     44906     44908     44904     44905     44910     44914     44915
     44911     44910     44913     44911     44910     44912     44912     44910     44913
     44914     44910     44913     44914     44910     44912     44914     44910     44911
     44916     44920     44921     44917     44916     44919     44917     44916     44918
     44918     44916     44919     44920     44916     44919     44920     44916     44918
     44920     44916     44917     44922     44926     44927     44923     44922     44925
     44923     44922     44924     44924     44922     44925     44926     44922     44925
     44926     44922     44924     44926     44922     44923     44928     44932     44933
     44929     44928     44931     44929     44928     44930     44930     44928     44931
     44932     44928     44931     44932     44928     44930     44932     44928     44929
     44934     44938     44939     44935     44934     44937     44935     44934     44936
     44936     44934     44937     44938     44934     44937     44938     44934     44936
     44938     44934     44935     44940     44944     44945     44941     44940     44943
     44941     44940     44942     44942     44940     44943     44944     44940     44943
     44944     44940     44942     44944     44940     44941     44946     44950     44951
     44947     44946     44949     44947     44946     44948     44948     44946     44949
     44950     44946     44949     44950     44946     44948     44950     44946     44947
     44952     44956     44957     44953     44952     44955     44953     44952     44954
     44954     44952     44955     44956     44952     44955     44956     44952     44954
     44956     44952     44953     44958     44962     44963     44959     44958     44961
     44959     44958     44960     44960     44958     44961     44962     44958     44961
     44962     44958     44960     44962     44958     44959     44964     44968     44969
     44965     44964     44967     44965     44964     44966     44966     44964     44967
     44968     44964     44967     44968     44964     44966     44968     44964     44965
     44970     44974     44975     44971     44970     44973     44971     44970     44972
     44972     44970     44973     44974     44970     44973     44974     44970     44972
     44974     44970     44971     44976     44980     44981     44977     44976     44979
     44977     44976     44978     44978     44976     44979     44980     44976     44979
     44980     44976     44978     44980     44976     44977     44982     44986     44987
     44983     44982     44985     44983     44982     44984     44984     44982     44985
     44986     44982     44985     44986     44982     44984     44986     44982     44983
     44988     44992     44993     44989     44988     44991     44989     44988     44990
     44990     44988     44991     44992     44988     44991     44992     44988     44990
     44992     44988     44989     44994     44998     44999     44995     44994     44997
     44995     44994     44996     44996     44994     44997     44998     44994     44997
     44998     44994     44996     44998     44994     44995     45000     45004     45005
     45001     45000     45003     45001     45000     45002     45002     45000     45003
     45004     45000     45003     45004     45000     45002     45004     45000     45001
     45006     45010     45011     45007     45006     45009     45007     45006     45008
     45008     45006     45009     45010     45006     45009     45010     45006     45008
     45010     45006     45007     45012     45016     45017     45013     45012     45015
     45013     45012     45014     45014     45012     45015     45016     45012     45015
     45016     45012     45014     45016     45012     45013     45018     45022     45023
     45019     45018     45021     45019     45018     45020     45020     45018     45021
     45022     45018     45021     45022     45018     45020     45022     45018     45019
     45024     45028     45029     45025     45024     45027     45025     45024     45026
     45026     45024     45027     45028     45024     45027     45028     45024     45026
     45028     45024     45025     45030     45034     45035     45031     45030     45033
     45031     45030     45032     45032     45030     45033     45034     45030     45033
     45034     45030     45032     45034     45030     45031     45036     45040     45041
     45037     45036     45039     45037     45036     45038     45038     45036     45039
     45040     45036     45039     45040     45036     45038     45040     45036     45037
     45042     45046     45047     45043     45042     45045     45043     45042     45044
     45044     45042     45045     45046     45042     45045     45046     45042     45044
     45046     45042     45043     45048     45052     45053     45049     45048     45051
     45049     45048     45050     45050     45048     45051     45052     45048     45051
     45052     45048     45050     45052     45048     45049     45054     45058     45059
     45055     45054     45057     45055     45054     45056     45056     45054     45057
     45058     45054     45057     45058     45054     45056     45058     45054     45055
     45060     45064     45065     45061     45060     45063     45061     45060     45062
     45062     45060     45063     45064     45060     45063     45064     45060     45062
     45064     45060     45061     45066     45070     45071     45067     45066     45069
     45067     45066     45068     45068     45066     45069     45070     45066     45069
     45070     45066     45068     45070     45066     45067     45072     45076     45077
     45073     45072     45075     45073     45072     45074     45074     45072     45075
     45076     45072     45075     45076     45072     45074     45076     45072     45073
     45078     45082     45083     45079     45078     45081     45079     45078     45080
     45080     45078     45081     45082     45078     45081     45082     45078     45080
     45082     45078     45079     45084     45088     45089     45085     45084     45087
     45085     45084     45086     45086     45084     45087     45088     45084     45087
     45088     45084     45086     45088     45084     45085     45090     45094     45095
     45091     45090     45093     45091     45090     45092     45092     45090     45093
     45094     45090     45093     45094     45090     45092     45094     45090     45091
     45096     45100     45101     45097     45096     45099     45097     45096     45098
     45098     45096     45099     45100     45096     45099     45100     45096     45098
     45100     45096     45097     45102     45106     45107     45103     45102     45105
     45103     45102     45104     45104     45102     45105     45106     45102     45105
     45106     45102     45104     45106     45102     45103     45108     45112     45113
     45109     45108     45111     45109     45108     45110     45110     45108     45111
     45112     45108     45111     45112     45108     45110     45112     45108     45109
     45114     45118     45119     45115     45114     45117     45115     45114     45116
     45116     45114     45117     45118     45114     45117     45118     45114     45116
     45118     45114     45115     45120     45124     45125     45121     45120     45123
     45121     45120     45122     45122     45120     45123     45124     45120     45123
     45124     45120     45122     45124     45120     45121     45126     45130     45131
     45127     45126     45129     45127     45126     45128     45128     45126     45129
     45130     45126     45129     45130     45126     45128     45130     45126     45127
     45132     45136     45137     45133     45132     45135     45133     45132     45134
     45134     45132     45135     45136     45132     45135     45136     45132     45134
     45136     45132     45133     45138     45142     45143     45139     45138     45141
     45139     45138     45140     45140     45138     45141     45142     45138     45141
     45142     45138     45140     45142     45138     45139     45144     45148     45149
     45145     45144     45147     45145     45144     45146     45146     45144     45147
     45148     45144     45147     45148     45144     45146     45148     45144     45145
     45150     45154     45155     45151     45150     45153     45151     45150     45152
     45152     45150     45153     45154     45150     45153     45154     45150     45152
     45154     45150     45151     45156     45160     45161     45157     45156     45159
     45157     45156     45158     45158     45156     45159     45160     45156     45159
     45160     45156     45158     45160     45156     45157     45162     45166     45167
     45163     45162     45165     45163     45162     45164     45164     45162     45165
     45166     45162     45165     45166     45162     45164     45166     45162     45163
     45168     45172     45173     45169     45168     45171     45169     45168     45170
     45170     45168     45171     45172     45168     45171     45172     45168     45170
     45172     45168     45169     45174     45178     45179     45175     45174     45177
     45175     45174     45176     45176     45174     45177     45178     45174     45177
     45178     45174     45176     45178     45174     45175     45180     45184     45185
     45181     45180     45183     45181     45180     45182     45182     45180     45183
     45184     45180     45183     45184     45180     45182     45184     45180     45181
     45186     45190     45191     45187     45186     45189     45187     45186     45188
     45188     45186     45189     45190     45186     45189     45190     45186     45188
     45190     45186     45187     45192     45196     45197     45193     45192     45195
     45193     45192     45194     45194     45192     45195     45196     45192     45195
     45196     45192     45194     45196     45192     45193     45198     45202     45203
     45199     45198     45201     45199     45198     45200     45200     45198     45201
     45202     45198     45201     45202     45198     45200     45202     45198     45199
     45204     45208     45209     45205     45204     45207     45205     45204     45206
     45206     45204     45207     45208     45204     45207     45208     45204     45206
     45208     45204     45205     45210     45214     45215     45211     45210     45213
     45211     45210     45212     45212     45210     45213     45214     45210     45213
     45214     45210     45212     45214     45210     45211     45216     45220     45221
     45217     45216     45219     45217     45216     45218     45218     45216     45219
     45220     45216     45219     45220     45216     45218     45220     45216     45217
     45222     45226     45227     45223     45222     45225     45223     45222     45224
     45224     45222     45225     45226     45222     45225     45226     45222     45224
     45226     45222     45223     45228     45232     45233     45229     45228     45231
     45229     45228     45230     45230     45228     45231     45232     45228     45231
     45232     45228     45230     45232     45228     45229     45234     45238     45239
     45235     45234     45237     45235     45234     45236     45236     45234     45237
     45238     45234     45237     45238     45234     45236     45238     45234     45235
     45240     45244     45245     45241     45240     45243     45241     45240     45242
     45242     45240     45243     45244     45240     45243     45244     45240     45242
     45244     45240     45241     45246     45250     45251     45247     45246     45249
     45247     45246     45248     45248     45246     45249     45250     45246     45249
     45250     45246     45248     45250     45246     45247     45252     45256     45257
     45253     45252     45255     45253     45252     45254     45254     45252     45255
     45256     45252     45255     45256     45252     45254     45256     45252     45253
     45258     45262     45263     45259     45258     45261     45259     45258     45260
     45260     45258     45261     45262     45258     45261     45262     45258     45260
     45262     45258     45259     45264     45268     45269     45265     45264     45267
     45265     45264     45266     45266     45264     45267     45268     45264     45267
     45268     45264     45266     45268     45264     45265     45270     45274     45275
     45271     45270     45273     45271     45270     45272     45272     45270     45273
     45274     45270     45273     45274     45270     45272     45274     45270     45271
     45276     45280     45281     45277     45276     45279     45277     45276     45278
     45278     45276     45279     45280     45276     45279     45280     45276     45278
     45280     45276     45277     45282     45286     45287     45283     45282     45285
     45283     45282     45284     45284     45282     45285     45286     45282     45285
     45286     45282     45284     45286     45282     45283     45288     45292     45293
     45289     45288     45291     45289     45288     45290     45290     45288     45291
     45292     45288     45291     45292     45288     45290     45292     45288     45289
     45294     45298     45299     45295     45294     45297     45295     45294     45296
     45296     45294     45297     45298     45294     45297     45298     45294     45296
     45298     45294     45295     45300     45304     45305     45301     45300     45303
     45301     45300     45302     45302     45300     45303     45304     45300     45303
     45304     45300     45302     45304     45300     45301     45306     45310     45311
     45307     45306     45309     45307     45306     45308     45308     45306     45309
     45310     45306     45309     45310     45306     45308     45310     45306     45307
     45312     45316     45317     45313     45312     45315     45313     45312     45314
     45314     45312     45315     45316     45312     45315     45316     45312     45314
     45316     45312     45313     45318     45322     45323     45319     45318     45321
     45319     45318     45320     45320     45318     45321     45322     45318     45321
     45322     45318     45320     45322     45318     45319     45324     45328     45329
     45325     45324     45327     45325     45324     45326     45326     45324     45327
     45328     45324     45327     45328     45324     45326     45328     45324     45325
     45330     45334     45335     45331     45330     45333     45331     45330     45332
     45332     45330     45333     45334     45330     45333     45334     45330     45332
     45334     45330     45331     45336     45340     45341     45337     45336     45339
     45337     45336     45338     45338     45336     45339     45340     45336     45339
     45340     45336     45338     45340     45336     45337     45342     45346     45347
     45343     45342     45345     45343     45342     45344     45344     45342     45345
     45346     45342     45345     45346     45342     45344     45346     45342     45343
     45348     45352     45353     45349     45348     45351     45349     45348     45350
     45350     45348     45351     45352     45348     45351     45352     45348     45350
     45352     45348     45349     45354     45358     45359     45355     45354     45357
     45355     45354     45356     45356     45354     45357     45358     45354     45357
     45358     45354     45356     45358     45354     45355     45360     45364     45365
     45361     45360     45363     45361     45360     45362     45362     45360     45363
     45364     45360     45363     45364     45360     45362     45364     45360     45361
     45366     45370     45371     45367     45366     45369     45367     45366     45368
     45368     45366     45369     45370     45366     45369     45370     45366     45368
     45370     45366     45367     45372     45376     45377     45373     45372     45375
     45373     45372     45374     45374     45372     45375     45376     45372     45375
     45376     45372     45374     45376     45372     45373     45378     45382     45383
     45379     45378     45381     45379     45378     45380     45380     45378     45381
     45382     45378     45381     45382     45378     45380     45382     45378     45379
     45384     45388     45389     45385     45384     45387     45385     45384     45386
     45386     45384     45387     45388     45384     45387     45388     45384     45386
     45388     45384     45385     45390     45394     45395     45391     45390     45393
     45391     45390     45392     45392     45390     45393     45394     45390     45393
     45394     45390     45392     45394     45390     45391     45396     45400     45401
     45397     45396     45399     45397     45396     45398     45398     45396     45399
     45400     45396     45399     45400     45396     45398     45400     45396     45397
     45402     45406     45407     45403     45402     45405     45403     45402     45404
     45404     45402     45405     45406     45402     45405     45406     45402     45404
     45406     45402     45403     45408     45412     45413     45409     45408     45411
     45409     45408     45410     45410     45408     45411     45412     45408     45411
     45412     45408     45410     45412     45408     45409     45414     45418     45419
     45415     45414     45417     45415     45414     45416     45416     45414     45417
     45418     45414     45417     45418     45414     45416     45418     45414     45415
     45420     45424     45425     45421     45420     45423     45421     45420     45422
     45422     45420     45423     45424     45420     45423     45424     45420     45422
     45424     45420     45421     45426     45430     45431     45427     45426     45429
     45427     45426     45428     45428     45426     45429     45430     45426     45429
     45430     45426     45428     45430     45426     45427     45432     45436     45437
     45433     45432     45435     45433     45432     45434     45434     45432     45435
     45436     45432     45435     45436     45432     45434     45436     45432     45433
     45438     45442     45443     45439     45438     45441     45439     45438     45440
     45440     45438     45441     45442     45438     45441     45442     45438     45440
     45442     45438     45439     45444     45448     45449     45445     45444     45447
     45445     45444     45446     45446     45444     45447     45448     45444     45447
     45448     45444     45446     45448     45444     45445     45450     45454     45455
     45451     45450     45453     45451     45450     45452     45452     45450     45453
     45454     45450     45453     45454     45450     45452     45454     45450     45451
     45456     45460     45461     45457     45456     45459     45457     45456     45458
     45458     45456     45459     45460     45456     45459     45460     45456     45458
     45460     45456     45457     45462     45466     45467     45463     45462     45465
     45463     45462     45464     45464     45462     45465     45466     45462     45465
     45466     45462     45464     45466     45462     45463     45468     45472     45473
     45469     45468     45471     45469     45468     45470     45470     45468     45471
     45472     45468     45471     45472     45468     45470     45472     45468     45469
     45474     45478     45479     45475     45474     45477     45475     45474     45476
     45476     45474     45477     45478     45474     45477     45478     45474     45476
     45478     45474     45475     45480     45484     45485     45481     45480     45483
     45481     45480     45482     45482     45480     45483     45484     45480     45483
     45484     45480     45482     45484     45480     45481     45486     45490     45491
     45487     45486     45489     45487     45486     45488     45488     45486     45489
     45490     45486     45489     45490     45486     45488     45490     45486     45487
     45492     45496     45497     45493     45492     45495     45493     45492     45494
     45494     45492     45495     45496     45492     45495     45496     45492     45494
     45496     45492     45493     45498     45502     45503     45499     45498     45501
     45499     45498     45500     45500     45498     45501     45502     45498     45501
     45502     45498     45500     45502     45498     45499     45504     45508     45509
     45505     45504     45507     45505     45504     45506     45506     45504     45507
     45508     45504     45507     45508     45504     45506     45508     45504     45505
     45510     45514     45515     45511     45510     45513     45511     45510     45512
     45512     45510     45513     45514     45510     45513     45514     45510     45512
     45514     45510     45511     45516     45520     45521     45517     45516     45519
     45517     45516     45518     45518     45516     45519     45520     45516     45519
     45520     45516     45518     45520     45516     45517     45522     45526     45527
     45523     45522     45525     45523     45522     45524     45524     45522     45525
     45526     45522     45525     45526     45522     45524     45526     45522     45523
     45528     45532     45533     45529     45528     45531     45529     45528     45530
     45530     45528     45531     45532     45528     45531     45532     45528     45530
     45532     45528     45529     45534     45538     45539     45535     45534     45537
     45535     45534     45536     45536     45534     45537     45538     45534     45537
     45538     45534     45536     45538     45534     45535     45540     45544     45545
     45541     45540     45543     45541     45540     45542     45542     45540     45543
     45544     45540     45543     45544     45540     45542     45544     45540     45541
     45546     45550     45551     45547     45546     45549     45547     45546     45548
     45548     45546     45549     45550     45546     45549     45550     45546     45548
     45550     45546     45547     45552     45556     45557     45553     45552     45555
     45553     45552     45554     45554     45552     45555     45556     45552     45555
     45556     45552     45554     45556     45552     45553     45558     45562     45563
     45559     45558     45561     45559     45558     45560     45560     45558     45561
     45562     45558     45561     45562     45558     45560     45562     45558     45559
     45564     45568     45569     45565     45564     45567     45565     45564     45566
     45566     45564     45567     45568     45564     45567     45568     45564     45566
     45568     45564     45565     45570     45574     45575     45571     45570     45573
     45571     45570     45572     45572     45570     45573     45574     45570     45573
     45574     45570     45572     45574     45570     45571     45576     45580     45581
     45577     45576     45579     45577     45576     45578     45578     45576     45579
     45580     45576     45579     45580     45576     45578     45580     45576     45577
     45582     45586     45587     45583     45582     45585     45583     45582     45584
     45584     45582     45585     45586     45582     45585     45586     45582     45584
     45586     45582     45583     45588     45592     45593     45589     45588     45591
     45589     45588     45590     45590     45588     45591     45592     45588     45591
     45592     45588     45590     45592     45588     45589     45594     45598     45599
     45595     45594     45597     45595     45594     45596     45596     45594     45597
     45598     45594     45597     45598     45594     45596     45598     45594     45595
     45600     45604     45605     45601     45600     45603     45601     45600     45602
     45602     45600     45603     45604     45600     45603     45604     45600     45602
     45604     45600     45601     45606     45610     45611     45607     45606     45609
     45607     45606     45608     45608     45606     45609     45610     45606     45609
     45610     45606     45608     45610     45606     45607     45612     45616     45617
     45613     45612     45615     45613     45612     45614     45614     45612     45615
     45616     45612     45615     45616     45612     45614     45616     45612     45613
     45618     45622     45623     45619     45618     45621     45619     45618     45620
     45620     45618     45621     45622     45618     45621     45622     45618     45620
     45622     45618     45619     45624     45628     45629     45625     45624     45627
     45625     45624     45626     45626     45624     45627     45628     45624     45627
     45628     45624     45626     45628     45624     45625     45630     45634     45635
     45631     45630     45633     45631     45630     45632     45632     45630     45633
     45634     45630     45633     45634     45630     45632     45634     45630     45631
     45636     45640     45641     45637     45636     45639     45637     45636     45638
     45638     45636     45639     45640     45636     45639     45640     45636     45638
     45640     45636     45637     45642     45646     45647     45643     45642     45645
     45643     45642     45644     45644     45642     45645     45646     45642     45645
     45646     45642     45644     45646     45642     45643     45648     45652     45653
     45649     45648     45651     45649     45648     45650     45650     45648     45651
     45652     45648     45651     45652     45648     45650     45652     45648     45649
     45654     45658     45659     45655     45654     45657     45655     45654     45656
     45656     45654     45657     45658     45654     45657     45658     45654     45656
     45658     45654     45655     45660     45664     45665     45661     45660     45663
     45661     45660     45662     45662     45660     45663     45664     45660     45663
     45664     45660     45662     45664     45660     45661     45666     45670     45671
     45667     45666     45669     45667     45666     45668     45668     45666     45669
     45670     45666     45669     45670     45666     45668     45670     45666     45667
     45672     45676     45677     45673     45672     45675     45673     45672     45674
     45674     45672     45675     45676     45672     45675     45676     45672     45674
     45676     45672     45673     45678     45682     45683     45679     45678     45681
     45679     45678     45680     45680     45678     45681     45682     45678     45681
     45682     45678     45680     45682     45678     45679     45684     45688     45689
     45685     45684     45687     45685     45684     45686     45686     45684     45687
     45688     45684     45687     45688     45684     45686     45688     45684     45685
     45690     45694     45695     45691     45690     45693     45691     45690     45692
     45692     45690     45693     45694     45690     45693     45694     45690     45692
     45694     45690     45691     45696     45700     45701     45697     45696     45699
     45697     45696     45698     45698     45696     45699     45700     45696     45699
     45700     45696     45698     45700     45696     45697     45702     45706     45707
     45703     45702     45705     45703     45702     45704     45704     45702     45705
     45706     45702     45705     45706     45702     45704     45706     45702     45703
     45708     45712     45713     45709     45708     45711     45709     45708     45710
     45710     45708     45711     45712     45708     45711     45712     45708     45710
     45712     45708     45709     45714     45718     45719     45715     45714     45717
     45715     45714     45716     45716     45714     45717     45718     45714     45717
     45718     45714     45716     45718     45714     45715     45720     45724     45725
     45721     45720     45723     45721     45720     45722     45722     45720     45723
     45724     45720     45723     45724     45720     45722     45724     45720     45721
     45726     45730     45731     45727     45726     45729     45727     45726     45728
     45728     45726     45729     45730     45726     45729     45730     45726     45728
     45730     45726     45727     45732     45736     45737     45733     45732     45735
     45733     45732     45734     45734     45732     45735     45736     45732     45735
     45736     45732     45734     45736     45732     45733     45738     45742     45743
     45739     45738     45741     45739     45738     45740     45740     45738     45741
     45742     45738     45741     45742     45738     45740     45742     45738     45739
     45744     45748     45749     45745     45744     45747     45745     45744     45746
     45746     45744     45747     45748     45744     45747     45748     45744     45746
     45748     45744     45745     45750     45754     45755     45751     45750     45753
     45751     45750     45752     45752     45750     45753     45754     45750     45753
     45754     45750     45752     45754     45750     45751     45756     45760     45761
     45757     45756     45759     45757     45756     45758     45758     45756     45759
     45760     45756     45759     45760     45756     45758     45760     45756     45757
     45762     45766     45767     45763     45762     45765     45763     45762     45764
     45764     45762     45765     45766     45762     45765     45766     45762     45764
     45766     45762     45763     45768     45772     45773     45769     45768     45771
     45769     45768     45770     45770     45768     45771     45772     45768     45771
     45772     45768     45770     45772     45768     45769     45774     45778     45779
     45775     45774     45777     45775     45774     45776     45776     45774     45777
     45778     45774     45777     45778     45774     45776     45778     45774     45775
     45780     45784     45785     45781     45780     45783     45781     45780     45782
     45782     45780     45783     45784     45780     45783     45784     45780     45782
     45784     45780     45781     45786     45790     45791     45787     45786     45789
     45787     45786     45788     45788     45786     45789     45790     45786     45789
     45790     45786     45788     45790     45786     45787     45792     45796     45797
     45793     45792     45795     45793     45792     45794     45794     45792     45795
     45796     45792     45795     45796     45792     45794     45796     45792     45793
     45798     45802     45803     45799     45798     45801     45799     45798     45800
     45800     45798     45801     45802     45798     45801     45802     45798     45800
     45802     45798     45799     45804     45808     45809     45805     45804     45807
     45805     45804     45806     45806     45804     45807     45808     45804     45807
     45808     45804     45806     45808     45804     45805     45810     45814     45815
     45811     45810     45813     45811     45810     45812     45812     45810     45813
     45814     45810     45813     45814     45810     45812     45814     45810     45811
     45816     45820     45821     45817     45816     45819     45817     45816     45818
     45818     45816     45819     45820     45816     45819     45820     45816     45818
     45820     45816     45817     45822     45826     45827     45823     45822     45825
     45823     45822     45824     45824     45822     45825     45826     45822     45825
     45826     45822     45824     45826     45822     45823     45828     45832     45833
     45829     45828     45831     45829     45828     45830     45830     45828     45831
     45832     45828     45831     45832     45828     45830     45832     45828     45829
     45834     45838     45839     45835     45834     45837     45835     45834     45836
     45836     45834     45837     45838     45834     45837     45838     45834     45836
     45838     45834     45835     45840     45844     45845     45841     45840     45843
     45841     45840     45842     45842     45840     45843     45844     45840     45843
     45844     45840     45842     45844     45840     45841     45846     45850     45851
     45847     45846     45849     45847     45846     45848     45848     45846     45849
     45850     45846     45849     45850     45846     45848     45850     45846     45847
     45852     45856     45857     45853     45852     45855     45853     45852     45854
     45854     45852     45855     45856     45852     45855     45856     45852     45854
     45856     45852     45853     45858     45862     45863     45859     45858     45861
     45859     45858     45860     45860     45858     45861     45862     45858     45861
     45862     45858     45860     45862     45858     45859     45864     45868     45869
     45865     45864     45867     45865     45864     45866     45866     45864     45867
     45868     45864     45867     45868     45864     45866     45868     45864     45865
     45870     45874     45875     45871     45870     45873     45871     45870     45872
     45872     45870     45873     45874     45870     45873     45874     45870     45872
     45874     45870     45871     45876     45880     45881     45877     45876     45879
     45877     45876     45878     45878     45876     45879     45880     45876     45879
     45880     45876     45878     45880     45876     45877     45882     45886     45887
     45883     45882     45885     45883     45882     45884     45884     45882     45885
     45886     45882     45885     45886     45882     45884     45886     45882     45883
     45888     45892     45893     45889     45888     45891     45889     45888     45890
     45890     45888     45891     45892     45888     45891     45892     45888     45890
     45892     45888     45889     45894     45898     45899     45895     45894     45897
     45895     45894     45896     45896     45894     45897     45898     45894     45897
     45898     45894     45896     45898     45894     45895     45900     45904     45905
     45901     45900     45903     45901     45900     45902     45902     45900     45903
     45904     45900     45903     45904     45900     45902     45904     45900     45901
     45906     45910     45911     45907     45906     45909     45907     45906     45908
     45908     45906     45909     45910     45906     45909     45910     45906     45908
     45910     45906     45907     45912     45916     45917     45913     45912     45915
     45913     45912     45914     45914     45912     45915     45916     45912     45915
     45916     45912     45914     45916     45912     45913     45918     45922     45923
     45919     45918     45921     45919     45918     45920     45920     45918     45921
     45922     45918     45921     45922     45918     45920     45922     45918     45919
     45924     45928     45929     45925     45924     45927     45925     45924     45926
     45926     45924     45927     45928     45924     45927     45928     45924     45926
     45928     45924     45925     45930     45934     45935     45931     45930     45933
     45931     45930     45932     45932     45930     45933     45934     45930     45933
     45934     45930     45932     45934     45930     45931     45936     45940     45941
     45937     45936     45939     45937     45936     45938     45938     45936     45939
     45940     45936     45939     45940     45936     45938     45940     45936     45937
     45942     45946     45947     45943     45942     45945     45943     45942     45944
     45944     45942     45945     45946     45942     45945     45946     45942     45944
     45946     45942     45943     45948     45952     45953     45949     45948     45951
     45949     45948     45950     45950     45948     45951     45952     45948     45951
     45952     45948     45950     45952     45948     45949     45954     45958     45959
     45955     45954     45957     45955     45954     45956     45956     45954     45957
     45958     45954     45957     45958     45954     45956     45958     45954     45955
     45960     45964     45965     45961     45960     45963     45961     45960     45962
     45962     45960     45963     45964     45960     45963     45964     45960     45962
     45964     45960     45961     45966     45970     45971     45967     45966     45969
     45967     45966     45968     45968     45966     45969     45970     45966     45969
     45970     45966     45968     45970     45966     45967     45972     45976     45977
     45973     45972     45975     45973     45972     45974     45974     45972     45975
     45976     45972     45975     45976     45972     45974     45976     45972     45973
     45978     45982     45983     45979     45978     45981     45979     45978     45980
     45980     45978     45981     45982     45978     45981     45982     45978     45980
     45982     45978     45979     45984     45988     45989     45985     45984     45987
     45985     45984     45986     45986     45984     45987     45988     45984     45987
     45988     45984     45986     45988     45984     45985     45990     45994     45995
     45991     45990     45993     45991     45990     45992     45992     45990     45993
     45994     45990     45993     45994     45990     45992     45994     45990     45991
     45996     46000     46001     45997     45996     45999     45997     45996     45998
     45998     45996     45999     46000     45996     45999     46000     45996     45998
     46000     45996     45997     46002     46006     46007     46003     46002     46005
     46003     46002     46004     46004     46002     46005     46006     46002     46005
     46006     46002     46004     46006     46002     46003     46008     46012     46013
     46009     46008     46011     46009     46008     46010     46010     46008     46011
     46012     46008     46011     46012     46008     46010     46012     46008     46009
     46014     46018     46019     46015     46014     46017     46015     46014     46016
     46016     46014     46017     46018     46014     46017     46018     46014     46016
     46018     46014     46015     46020     46024     46025     46021     46020     46023
     46021     46020     46022     46022     46020     46023     46024     46020     46023
     46024     46020     46022     46024     46020     46021     46026     46030     46031
     46027     46026     46029     46027     46026     46028     46028     46026     46029
     46030     46026     46029     46030     46026     46028     46030     46026     46027
     46032     46036     46037     46033     46032     46035     46033     46032     46034
     46034     46032     46035     46036     46032     46035     46036     46032     46034
     46036     46032     46033     46038     46042     46043     46039     46038     46041
     46039     46038     46040     46040     46038     46041     46042     46038     46041
     46042     46038     46040     46042     46038     46039     46044     46048     46049
     46045     46044     46047     46045     46044     46046     46046     46044     46047
     46048     46044     46047     46048     46044     46046     46048     46044     46045
     46050     46054     46055     46051     46050     46053     46051     46050     46052
     46052     46050     46053     46054     46050     46053     46054     46050     46052
     46054     46050     46051     46056     46060     46061     46057     46056     46059
     46057     46056     46058     46058     46056     46059     46060     46056     46059
     46060     46056     46058     46060     46056     46057     46062     46066     46067
     46063     46062     46065     46063     46062     46064     46064     46062     46065
     46066     46062     46065     46066     46062     46064     46066     46062     46063
     46068     46072     46073     46069     46068     46071     46069     46068     46070
     46070     46068     46071     46072     46068     46071     46072     46068     46070
     46072     46068     46069     46074     46078     46079     46075     46074     46077
     46075     46074     46076     46076     46074     46077     46078     46074     46077
     46078     46074     46076     46078     46074     46075     46080     46084     46085
     46081     46080     46083     46081     46080     46082     46082     46080     46083
     46084     46080     46083     46084     46080     46082     46084     46080     46081
     46086     46090     46091     46087     46086     46089     46087     46086     46088
     46088     46086     46089     46090     46086     46089     46090     46086     46088
     46090     46086     46087     46092     46096     46097     46093     46092     46095
     46093     46092     46094     46094     46092     46095     46096     46092     46095
     46096     46092     46094     46096     46092     46093     46098     46102     46103
     46099     46098     46101     46099     46098     46100     46100     46098     46101
     46102     46098     46101     46102     46098     46100     46102     46098     46099
     46104     46108     46109     46105     46104     46107     46105     46104     46106
     46106     46104     46107     46108     46104     46107     46108     46104     46106
     46108     46104     46105     46110     46114     46115     46111     46110     46113
     46111     46110     46112     46112     46110     46113     46114     46110     46113
     46114     46110     46112     46114     46110     46111     46116     46120     46121
     46117     46116     46119     46117     46116     46118     46118     46116     46119
     46120     46116     46119     46120     46116     46118     46120     46116     46117
     46122     46126     46127     46123     46122     46125     46123     46122     46124
     46124     46122     46125     46126     46122     46125     46126     46122     46124
     46126     46122     46123     46128     46132     46133     46129     46128     46131
     46129     46128     46130     46130     46128     46131     46132     46128     46131
     46132     46128     46130     46132     46128     46129     46134     46138     46139
     46135     46134     46137     46135     46134     46136     46136     46134     46137
     46138     46134     46137     46138     46134     46136     46138     46134     46135
     46140     46144     46145     46141     46140     46143     46141     46140     46142
     46142     46140     46143     46144     46140     46143     46144     46140     46142
     46144     46140     46141     46146     46150     46151     46147     46146     46149
     46147     46146     46148     46148     46146     46149     46150     46146     46149
     46150     46146     46148     46150     46146     46147     46152     46156     46157
     46153     46152     46155     46153     46152     46154     46154     46152     46155
     46156     46152     46155     46156     46152     46154     46156     46152     46153
     46158     46162     46163     46159     46158     46161     46159     46158     46160
     46160     46158     46161     46162     46158     46161     46162     46158     46160
     46162     46158     46159     46164     46168     46169     46165     46164     46167
     46165     46164     46166     46166     46164     46167     46168     46164     46167
     46168     46164     46166     46168     46164     46165     46170     46174     46175
     46171     46170     46173     46171     46170     46172     46172     46170     46173
     46174     46170     46173     46174     46170     46172     46174     46170     46171
     46176     46180     46181     46177     46176     46179     46177     46176     46178
     46178     46176     46179     46180     46176     46179     46180     46176     46178
     46180     46176     46177     46182     46186     46187     46183     46182     46185
     46183     46182     46184     46184     46182     46185     46186     46182     46185
     46186     46182     46184     46186     46182     46183     46188     46192     46193
     46189     46188     46191     46189     46188     46190     46190     46188     46191
     46192     46188     46191     46192     46188     46190     46192     46188     46189
     46194     46198     46199     46195     46194     46197     46195     46194     46196
     46196     46194     46197     46198     46194     46197     46198     46194     46196
     46198     46194     46195     46200     46204     46205     46201     46200     46203
     46201     46200     46202     46202     46200     46203     46204     46200     46203
     46204     46200     46202     46204     46200     46201     46206     46210     46211
     46207     46206     46209     46207     46206     46208     46208     46206     46209
     46210     46206     46209     46210     46206     46208     46210     46206     46207
     46212     46216     46217     46213     46212     46215     46213     46212     46214
     46214     46212     46215     46216     46212     46215     46216     46212     46214
     46216     46212     46213     46218     46222     46223     46219     46218     46221
     46219     46218     46220     46220     46218     46221     46222     46218     46221
     46222     46218     46220     46222     46218     46219     46224     46228     46229
     46225     46224     46227     46225     46224     46226     46226     46224     46227
     46228     46224     46227     46228     46224     46226     46228     46224     46225
     46230     46234     46235     46231     46230     46233     46231     46230     46232
     46232     46230     46233     46234     46230     46233     46234     46230     46232
     46234     46230     46231     46236     46240     46241     46237     46236     46239
     46237     46236     46238     46238     46236     46239     46240     46236     46239
     46240     46236     46238     46240     46236     46237     46242     46246     46247
     46243     46242     46245     46243     46242     46244     46244     46242     46245
     46246     46242     46245     46246     46242     46244     46246     46242     46243
     46248     46252     46253     46249     46248     46251     46249     46248     46250
     46250     46248     46251     46252     46248     46251     46252     46248     46250
     46252     46248     46249     46254     46258     46259     46255     46254     46257
     46255     46254     46256     46256     46254     46257     46258     46254     46257
     46258     46254     46256     46258     46254     46255     46260     46264     46265
     46261     46260     46263     46261     46260     46262     46262     46260     46263
     46264     46260     46263     46264     46260     46262     46264     46260     46261
     46266     46270     46271     46267     46266     46269     46267     46266     46268
     46268     46266     46269     46270     46266     46269     46270     46266     46268
     46270     46266     46267     46272     46276     46277     46273     46272     46275
     46273     46272     46274     46274     46272     46275     46276     46272     46275
     46276     46272     46274     46276     46272     46273     46278     46282     46283
     46279     46278     46281     46279     46278     46280     46280     46278     46281
     46282     46278     46281     46282     46278     46280     46282     46278     46279
     46284     46288     46289     46285     46284     46287     46285     46284     46286
     46286     46284     46287     46288     46284     46287     46288     46284     46286
     46288     46284     46285     46290     46294     46295     46291     46290     46293
     46291     46290     46292     46292     46290     46293     46294     46290     46293
     46294     46290     46292     46294     46290     46291     46296     46300     46301
     46297     46296     46299     46297     46296     46298     46298     46296     46299
     46300     46296     46299     46300     46296     46298     46300     46296     46297
     46302     46306     46307     46303     46302     46305     46303     46302     46304
     46304     46302     46305     46306     46302     46305     46306     46302     46304
     46306     46302     46303     46308     46312     46313     46309     46308     46311
     46309     46308     46310     46310     46308     46311     46312     46308     46311
     46312     46308     46310     46312     46308     46309     46314     46318     46319
     46315     46314     46317     46315     46314     46316     46316     46314     46317
     46318     46314     46317     46318     46314     46316     46318     46314     46315
     46320     46324     46325     46321     46320     46323     46321     46320     46322
     46322     46320     46323     46324     46320     46323     46324     46320     46322
     46324     46320     46321     46326     46330     46331     46327     46326     46329
     46327     46326     46328     46328     46326     46329     46330     46326     46329
     46330     46326     46328     46330     46326     46327     46332     46336     46337
     46333     46332     46335     46333     46332     46334     46334     46332     46335
     46336     46332     46335     46336     46332     46334     46336     46332     46333
     46338     46342     46343     46339     46338     46341     46339     46338     46340
     46340     46338     46341     46342     46338     46341     46342     46338     46340
     46342     46338     46339     46344     46348     46349     46345     46344     46347
     46345     46344     46346     46346     46344     46347     46348     46344     46347
     46348     46344     46346     46348     46344     46345     46350     46354     46355
     46351     46350     46353     46351     46350     46352     46352     46350     46353
     46354     46350     46353     46354     46350     46352     46354     46350     46351
     46356     46360     46361     46357     46356     46359     46357     46356     46358
     46358     46356     46359     46360     46356     46359     46360     46356     46358
     46360     46356     46357     46362     46366     46367     46363     46362     46365
     46363     46362     46364     46364     46362     46365     46366     46362     46365
     46366     46362     46364     46366     46362     46363     46368     46372     46373
     46369     46368     46371     46369     46368     46370     46370     46368     46371
     46372     46368     46371     46372     46368     46370     46372     46368     46369
     46374     46378     46379     46375     46374     46377     46375     46374     46376
     46376     46374     46377     46378     46374     46377     46378     46374     46376
     46378     46374     46375     46380     46384     46385     46381     46380     46383
     46381     46380     46382     46382     46380     46383     46384     46380     46383
     46384     46380     46382     46384     46380     46381     46386     46390     46391
     46387     46386     46389     46387     46386     46388     46388     46386     46389
     46390     46386     46389     46390     46386     46388     46390     46386     46387
     46392     46396     46397     46393     46392     46395     46393     46392     46394
     46394     46392     46395     46396     46392     46395     46396     46392     46394
     46396     46392     46393     46398     46402     46403     46399     46398     46401
     46399     46398     46400     46400     46398     46401     46402     46398     46401
     46402     46398     46400     46402     46398     46399     46404     46408     46409
     46405     46404     46407     46405     46404     46406     46406     46404     46407
     46408     46404     46407     46408     46404     46406     46408     46404     46405
     46410     46414     46415     46411     46410     46413     46411     46410     46412
     46412     46410     46413     46414     46410     46413     46414     46410     46412
     46414     46410     46411     46416     46420     46421     46417     46416     46419
     46417     46416     46418     46418     46416     46419     46420     46416     46419
     46420     46416     46418     46420     46416     46417     46422     46426     46427
     46423     46422     46425     46423     46422     46424     46424     46422     46425
     46426     46422     46425     46426     46422     46424     46426     46422     46423
     46428     46432     46433     46429     46428     46431     46429     46428     46430
     46430     46428     46431     46432     46428     46431     46432     46428     46430
     46432     46428     46429     46434     46438     46439     46435     46434     46437
     46435     46434     46436     46436     46434     46437     46438     46434     46437
     46438     46434     46436     46438     46434     46435     46440     46444     46445
     46441     46440     46443     46441     46440     46442     46442     46440     46443
     46444     46440     46443     46444     46440     46442     46444     46440     46441
     46446     46450     46451     46447     46446     46449     46447     46446     46448
     46448     46446     46449     46450     46446     46449     46450     46446     46448
     46450     46446     46447     46452     46456     46457     46453     46452     46455
     46453     46452     46454     46454     46452     46455     46456     46452     46455
     46456     46452     46454     46456     46452     46453     46458     46462     46463
     46459     46458     46461     46459     46458     46460     46460     46458     46461
     46462     46458     46461     46462     46458     46460     46462     46458     46459
     46464     46468     46469     46465     46464     46467     46465     46464     46466
     46466     46464     46467     46468     46464     46467     46468     46464     46466
     46468     46464     46465     46470     46474     46475     46471     46470     46473
     46471     46470     46472     46472     46470     46473     46474     46470     46473
     46474     46470     46472     46474     46470     46471     46476     46480     46481
     46477     46476     46479     46477     46476     46478     46478     46476     46479
     46480     46476     46479     46480     46476     46478     46480     46476     46477
     46482     46486     46487     46483     46482     46485     46483     46482     46484
     46484     46482     46485     46486     46482     46485     46486     46482     46484
     46486     46482     46483     46488     46492     46493     46489     46488     46491
     46489     46488     46490     46490     46488     46491     46492     46488     46491
     46492     46488     46490     46492     46488     46489     46494     46498     46499
     46495     46494     46497     46495     46494     46496     46496     46494     46497
     46498     46494     46497     46498     46494     46496     46498     46494     46495
     46500     46504     46505     46501     46500     46503     46501     46500     46502
     46502     46500     46503     46504     46500     46503     46504     46500     46502
     46504     46500     46501     46506     46510     46511     46507     46506     46509
     46507     46506     46508     46508     46506     46509     46510     46506     46509
     46510     46506     46508     46510     46506     46507     46512     46516     46517
     46513     46512     46515     46513     46512     46514     46514     46512     46515
     46516     46512     46515     46516     46512     46514     46516     46512     46513
     46518     46522     46523     46519     46518     46521     46519     46518     46520
     46520     46518     46521     46522     46518     46521     46522     46518     46520
     46522     46518     46519     46524     46528     46529     46525     46524     46527
     46525     46524     46526     46526     46524     46527     46528     46524     46527
     46528     46524     46526     46528     46524     46525     46530     46534     46535
     46531     46530     46533     46531     46530     46532     46532     46530     46533
     46534     46530     46533     46534     46530     46532     46534     46530     46531
     46536     46540     46541     46537     46536     46539     46537     46536     46538
     46538     46536     46539     46540     46536     46539     46540     46536     46538
     46540     46536     46537     46542     46546     46547     46543     46542     46545
     46543     46542     46544     46544     46542     46545     46546     46542     46545
     46546     46542     46544     46546     46542     46543     46548     46552     46553
     46549     46548     46551     46549     46548     46550     46550     46548     46551
     46552     46548     46551     46552     46548     46550     46552     46548     46549
     46554     46558     46559     46555     46554     46557     46555     46554     46556
     46556     46554     46557     46558     46554     46557     46558     46554     46556
     46558     46554     46555     46560     46564     46565     46561     46560     46563
     46561     46560     46562     46562     46560     46563     46564     46560     46563
     46564     46560     46562     46564     46560     46561     46566     46570     46571
     46567     46566     46569     46567     46566     46568     46568     46566     46569
     46570     46566     46569     46570     46566     46568     46570     46566     46567
     46572     46576     46577     46573     46572     46575     46573     46572     46574
     46574     46572     46575     46576     46572     46575     46576     46572     46574
     46576     46572     46573     46578     46582     46583     46579     46578     46581
     46579     46578     46580     46580     46578     46581     46582     46578     46581
     46582     46578     46580     46582     46578     46579     46584     46588     46589
     46585     46584     46587     46585     46584     46586     46586     46584     46587
     46588     46584     46587     46588     46584     46586     46588     46584     46585
     46590     46594     46595     46591     46590     46593     46591     46590     46592
     46592     46590     46593     46594     46590     46593     46594     46590     46592
     46594     46590     46591     46596     46600     46601     46597     46596     46599
     46597     46596     46598     46598     46596     46599     46600     46596     46599
     46600     46596     46598     46600     46596     46597     46602     46606     46607
     46603     46602     46605     46603     46602     46604     46604     46602     46605
     46606     46602     46605     46606     46602     46604     46606     46602     46603
     46608     46612     46613     46609     46608     46611     46609     46608     46610
     46610     46608     46611     46612     46608     46611     46612     46608     46610
     46612     46608     46609     46614     46618     46619     46615     46614     46617
     46615     46614     46616     46616     46614     46617     46618     46614     46617
     46618     46614     46616     46618     46614     46615     46620     46624     46625
     46621     46620     46623     46621     46620     46622     46622     46620     46623
     46624     46620     46623     46624     46620     46622     46624     46620     46621
     46626     46630     46631     46627     46626     46629     46627     46626     46628
     46628     46626     46629     46630     46626     46629     46630     46626     46628
     46630     46626     46627     46632     46636     46637     46633     46632     46635
     46633     46632     46634     46634     46632     46635     46636     46632     46635
     46636     46632     46634     46636     46632     46633     46638     46642     46643
     46639     46638     46641     46639     46638     46640     46640     46638     46641
     46642     46638     46641     46642     46638     46640     46642     46638     46639
     46644     46648     46649     46645     46644     46647     46645     46644     46646
     46646     46644     46647     46648     46644     46647     46648     46644     46646
     46648     46644     46645     46650     46654     46655     46651     46650     46653
     46651     46650     46652     46652     46650     46653     46654     46650     46653
     46654     46650     46652     46654     46650     46651     46656     46660     46661
     46657     46656     46659     46657     46656     46658     46658     46656     46659
     46660     46656     46659     46660     46656     46658     46660     46656     46657
     46662     46666     46667     46663     46662     46665     46663     46662     46664
     46664     46662     46665     46666     46662     46665     46666     46662     46664
     46666     46662     46663     46668     46672     46673     46669     46668     46671
     46669     46668     46670     46670     46668     46671     46672     46668     46671
     46672     46668     46670     46672     46668     46669     46674     46678     46679
     46675     46674     46677     46675     46674     46676     46676     46674     46677
     46678     46674     46677     46678     46674     46676     46678     46674     46675
     46680     46684     46685     46681     46680     46683     46681     46680     46682
     46682     46680     46683     46684     46680     46683     46684     46680     46682
     46684     46680     46681     46686     46690     46691     46687     46686     46689
     46687     46686     46688     46688     46686     46689     46690     46686     46689
     46690     46686     46688     46690     46686     46687     46692     46696     46697
     46693     46692     46695     46693     46692     46694     46694     46692     46695
     46696     46692     46695     46696     46692     46694     46696     46692     46693
     46698     46702     46703     46699     46698     46701     46699     46698     46700
     46700     46698     46701     46702     46698     46701     46702     46698     46700
     46702     46698     46699     46704     46708     46709     46705     46704     46707
     46705     46704     46706     46706     46704     46707     46708     46704     46707
     46708     46704     46706     46708     46704     46705     46710     46714     46715
     46711     46710     46713     46711     46710     46712     46712     46710     46713
     46714     46710     46713     46714     46710     46712     46714     46710     46711
     46716     46720     46721     46717     46716     46719     46717     46716     46718
     46718     46716     46719     46720     46716     46719     46720     46716     46718
     46720     46716     46717     46722     46726     46727     46723     46722     46725
     46723     46722     46724     46724     46722     46725     46726     46722     46725
     46726     46722     46724     46726     46722     46723     46728     46732     46733
     46729     46728     46731     46729     46728     46730     46730     46728     46731
     46732     46728     46731     46732     46728     46730     46732     46728     46729
     46734     46738     46739     46735     46734     46737     46735     46734     46736
     46736     46734     46737     46738     46734     46737     46738     46734     46736
     46738     46734     46735     46740     46744     46745     46741     46740     46743
     46741     46740     46742     46742     46740     46743     46744     46740     46743
     46744     46740     46742     46744     46740     46741     46746     46750     46751
     46747     46746     46749     46747     46746     46748     46748     46746     46749
     46750     46746     46749     46750     46746     46748     46750     46746     46747
     46752     46756     46757     46753     46752     46755     46753     46752     46754
     46754     46752     46755     46756     46752     46755     46756     46752     46754
     46756     46752     46753     46758     46762     46763     46759     46758     46761
     46759     46758     46760     46760     46758     46761     46762     46758     46761
     46762     46758     46760     46762     46758     46759     46764     46768     46769
     46765     46764     46767     46765     46764     46766     46766     46764     46767
     46768     46764     46767     46768     46764     46766     46768     46764     46765
     46770     46774     46775     46771     46770     46773     46771     46770     46772
     46772     46770     46773     46774     46770     46773     46774     46770     46772
     46774     46770     46771     46776     46780     46781     46777     46776     46779
     46777     46776     46778     46778     46776     46779     46780     46776     46779
     46780     46776     46778     46780     46776     46777     46782     46786     46787
     46783     46782     46785     46783     46782     46784     46784     46782     46785
     46786     46782     46785     46786     46782     46784     46786     46782     46783
     46788     46792     46793     46789     46788     46791     46789     46788     46790
     46790     46788     46791     46792     46788     46791     46792     46788     46790
     46792     46788     46789     46794     46798     46799     46795     46794     46797
     46795     46794     46796     46796     46794     46797     46798     46794     46797
     46798     46794     46796     46798     46794     46795     46800     46804     46805
     46801     46800     46803     46801     46800     46802     46802     46800     46803
     46804     46800     46803     46804     46800     46802     46804     46800     46801
     46806     46810     46811     46807     46806     46809     46807     46806     46808
     46808     46806     46809     46810     46806     46809     46810     46806     46808
     46810     46806     46807     46812     46816     46817     46813     46812     46815
     46813     46812     46814     46814     46812     46815     46816     46812     46815
     46816     46812     46814     46816     46812     46813     46818     46822     46823
     46819     46818     46821     46819     46818     46820     46820     46818     46821
     46822     46818     46821     46822     46818     46820     46822     46818     46819
     46824     46828     46829     46825     46824     46827     46825     46824     46826
     46826     46824     46827     46828     46824     46827     46828     46824     46826
     46828     46824     46825     46830     46834     46835     46831     46830     46833
     46831     46830     46832     46832     46830     46833     46834     46830     46833
     46834     46830     46832     46834     46830     46831     46836     46840     46841
     46837     46836     46839     46837     46836     46838     46838     46836     46839
     46840     46836     46839     46840     46836     46838     46840     46836     46837
     46842     46846     46847     46843     46842     46845     46843     46842     46844
     46844     46842     46845     46846     46842     46845     46846     46842     46844
     46846     46842     46843     46848     46852     46853     46849     46848     46851
     46849     46848     46850     46850     46848     46851     46852     46848     46851
     46852     46848     46850     46852     46848     46849     46854     46858     46859
     46855     46854     46857     46855     46854     46856     46856     46854     46857
     46858     46854     46857     46858     46854     46856     46858     46854     46855
     46860     46864     46865     46861     46860     46863     46861     46860     46862
     46862     46860     46863     46864     46860     46863     46864     46860     46862
     46864     46860     46861     46866     46870     46871     46867     46866     46869
     46867     46866     46868     46868     46866     46869     46870     46866     46869
     46870     46866     46868     46870     46866     46867     46872     46876     46877
     46873     46872     46875     46873     46872     46874     46874     46872     46875
     46876     46872     46875     46876     46872     46874     46876     46872     46873
     46878     46882     46883     46879     46878     46881     46879     46878     46880
     46880     46878     46881     46882     46878     46881     46882     46878     46880
     46882     46878     46879     46884     46888     46889     46885     46884     46887
     46885     46884     46886     46886     46884     46887     46888     46884     46887
     46888     46884     46886     46888     46884     46885     46890     46894     46895
     46891     46890     46893     46891     46890     46892     46892     46890     46893
     46894     46890     46893     46894     46890     46892     46894     46890     46891
     46896     46900     46901     46897     46896     46899     46897     46896     46898
     46898     46896     46899     46900     46896     46899     46900     46896     46898
     46900     46896     46897     46902     46906     46907     46903     46902     46905
     46903     46902     46904     46904     46902     46905     46906     46902     46905
     46906     46902     46904     46906     46902     46903     46908     46912     46913
     46909     46908     46911     46909     46908     46910     46910     46908     46911
     46912     46908     46911     46912     46908     46910     46912     46908     46909
     46914     46918     46919     46915     46914     46917     46915     46914     46916
     46916     46914     46917     46918     46914     46917     46918     46914     46916
     46918     46914     46915     46920     46924     46925     46921     46920     46923
     46921     46920     46922     46922     46920     46923     46924     46920     46923
     46924     46920     46922     46924     46920     46921     46926     46930     46931
     46927     46926     46929     46927     46926     46928     46928     46926     46929
     46930     46926     46929     46930     46926     46928     46930     46926     46927
     46932     46936     46937     46933     46932     46935     46933     46932     46934
     46934     46932     46935     46936     46932     46935     46936     46932     46934
     46936     46932     46933     46938     46942     46943     46939     46938     46941
     46939     46938     46940     46940     46938     46941     46942     46938     46941
     46942     46938     46940     46942     46938     46939     46944     46948     46949
     46945     46944     46947     46945     46944     46946     46946     46944     46947
     46948     46944     46947     46948     46944     46946     46948     46944     46945
     46950     46954     46955     46951     46950     46953     46951     46950     46952
     46952     46950     46953     46954     46950     46953     46954     46950     46952
     46954     46950     46951     46956     46960     46961     46957     46956     46959
     46957     46956     46958     46958     46956     46959     46960     46956     46959
     46960     46956     46958     46960     46956     46957     46962     46966     46967
     46963     46962     46965     46963     46962     46964     46964     46962     46965
     46966     46962     46965     46966     46962     46964     46966     46962     46963
     46968     46972     46973     46969     46968     46971     46969     46968     46970
     46970     46968     46971     46972     46968     46971     46972     46968     46970
     46972     46968     46969     46974     46978     46979     46975     46974     46977
     46975     46974     46976     46976     46974     46977     46978     46974     46977
     46978     46974     46976     46978     46974     46975     46980     46984     46985
     46981     46980     46983     46981     46980     46982     46982     46980     46983
     46984     46980     46983     46984     46980     46982     46984     46980     46981
     46986     46990     46991     46987     46986     46989     46987     46986     46988
     46988     46986     46989     46990     46986     46989     46990     46986     46988
     46990     46986     46987     46992     46996     46997     46993     46992     46995
     46993     46992     46994     46994     46992     46995     46996     46992     46995
     46996     46992     46994     46996     46992     46993     46998     47002     47003
     46999     46998     47001     46999     46998     47000     47000     46998     47001
     47002     46998     47001     47002     46998     47000     47002     46998     46999
     47004     47008     47009     47005     47004     47007     47005     47004     47006
     47006     47004     47007     47008     47004     47007     47008     47004     47006
     47008     47004     47005     47010     47014     47015     47011     47010     47013
     47011     47010     47012     47012     47010     47013     47014     47010     47013
     47014     47010     47012     47014     47010     47011     47016     47020     47021
     47017     47016     47019     47017     47016     47018     47018     47016     47019
     47020     47016     47019     47020     47016     47018     47020     47016     47017
     47022     47026     47027     47023     47022     47025     47023     47022     47024
     47024     47022     47025     47026     47022     47025     47026     47022     47024
     47026     47022     47023     47028     47032     47033     47029     47028     47031
     47029     47028     47030     47030     47028     47031     47032     47028     47031
     47032     47028     47030     47032     47028     47029     47034     47038     47039
     47035     47034     47037     47035     47034     47036     47036     47034     47037
     47038     47034     47037     47038     47034     47036     47038     47034     47035
     47040     47044     47045     47041     47040     47043     47041     47040     47042
     47042     47040     47043     47044     47040     47043     47044     47040     47042
     47044     47040     47041     47046     47050     47051     47047     47046     47049
     47047     47046     47048     47048     47046     47049     47050     47046     47049
     47050     47046     47048     47050     47046     47047     47052     47056     47057
     47053     47052     47055     47053     47052     47054     47054     47052     47055
     47056     47052     47055     47056     47052     47054     47056     47052     47053
     47058     47062     47063     47059     47058     47061     47059     47058     47060
     47060     47058     47061     47062     47058     47061     47062     47058     47060
     47062     47058     47059     47064     47068     47069     47065     47064     47067
     47065     47064     47066     47066     47064     47067     47068     47064     47067
     47068     47064     47066     47068     47064     47065     47070     47074     47075
     47071     47070     47073     47071     47070     47072     47072     47070     47073
     47074     47070     47073     47074     47070     47072     47074     47070     47071
     47076     47080     47081     47077     47076     47079     47077     47076     47078
     47078     47076     47079     47080     47076     47079     47080     47076     47078
     47080     47076     47077     47082     47086     47087     47083     47082     47085
     47083     47082     47084     47084     47082     47085     47086     47082     47085
     47086     47082     47084     47086     47082     47083     47088     47092     47093
     47089     47088     47091     47089     47088     47090     47090     47088     47091
     47092     47088     47091     47092     47088     47090     47092     47088     47089
     47094     47098     47099     47095     47094     47097     47095     47094     47096
     47096     47094     47097     47098     47094     47097     47098     47094     47096
     47098     47094     47095     47100     47104     47105     47101     47100     47103
     47101     47100     47102     47102     47100     47103     47104     47100     47103
     47104     47100     47102     47104     47100     47101     47106     47110     47111
     47107     47106     47109     47107     47106     47108     47108     47106     47109
     47110     47106     47109     47110     47106     47108     47110     47106     47107
     47112     47116     47117     47113     47112     47115     47113     47112     47114
     47114     47112     47115     47116     47112     47115     47116     47112     47114
     47116     47112     47113     47118     47122     47123     47119     47118     47121
     47119     47118     47120     47120     47118     47121     47122     47118     47121
     47122     47118     47120     47122     47118     47119     47124     47128     47129
     47125     47124     47127     47125     47124     47126     47126     47124     47127
     47128     47124     47127     47128     47124     47126     47128     47124     47125
     47130     47134     47135     47131     47130     47133     47131     47130     47132
     47132     47130     47133     47134     47130     47133     47134     47130     47132
     47134     47130     47131     47136     47140     47141     47137     47136     47139
     47137     47136     47138     47138     47136     47139     47140     47136     47139
     47140     47136     47138     47140     47136     47137     47142     47146     47147
     47143     47142     47145     47143     47142     47144     47144     47142     47145
     47146     47142     47145     47146     47142     47144     47146     47142     47143
     47148     47152     47153     47149     47148     47151     47149     47148     47150
     47150     47148     47151     47152     47148     47151     47152     47148     47150
     47152     47148     47149     47154     47158     47159     47155     47154     47157
     47155     47154     47156     47156     47154     47157     47158     47154     47157
     47158     47154     47156     47158     47154     47155     47160     47164     47165
     47161     47160     47163     47161     47160     47162     47162     47160     47163
     47164     47160     47163     47164     47160     47162     47164     47160     47161
     47166     47170     47171     47167     47166     47169     47167     47166     47168
     47168     47166     47169     47170     47166     47169     47170     47166     47168
     47170     47166     47167     47172     47176     47177     47173     47172     47175
     47173     47172     47174     47174     47172     47175     47176     47172     47175
     47176     47172     47174     47176     47172     47173     47178     47182     47183
     47179     47178     47181     47179     47178     47180     47180     47178     47181
     47182     47178     47181     47182     47178     47180     47182     47178     47179
     47184     47188     47189     47185     47184     47187     47185     47184     47186
     47186     47184     47187     47188     47184     47187     47188     47184     47186
     47188     47184     47185     47190     47194     47195     47191     47190     47193
     47191     47190     47192     47192     47190     47193     47194     47190     47193
     47194     47190     47192     47194     47190     47191     47196     47200     47201
     47197     47196     47199     47197     47196     47198     47198     47196     47199
     47200     47196     47199     47200     47196     47198     47200     47196     47197
     47202     47206     47207     47203     47202     47205     47203     47202     47204
     47204     47202     47205     47206     47202     47205     47206     47202     47204
     47206     47202     47203     47208     47212     47213     47209     47208     47211
     47209     47208     47210     47210     47208     47211     47212     47208     47211
     47212     47208     47210     47212     47208     47209     47214     47218     47219
     47215     47214     47217     47215     47214     47216     47216     47214     47217
     47218     47214     47217     47218     47214     47216     47218     47214     47215
     47220     47224     47225     47221     47220     47223     47221     47220     47222
     47222     47220     47223     47224     47220     47223     47224     47220     47222
     47224     47220     47221     47226     47230     47231     47227     47226     47229
     47227     47226     47228     47228     47226     47229     47230     47226     47229
     47230     47226     47228     47230     47226     47227     47232     47236     47237
     47233     47232     47235     47233     47232     47234     47234     47232     47235
     47236     47232     47235     47236     47232     47234     47236     47232     47233
     47238     47242     47243     47239     47238     47241     47239     47238     47240
     47240     47238     47241     47242     47238     47241     47242     47238     47240
     47242     47238     47239     47244     47248     47249     47245     47244     47247
     47245     47244     47246     47246     47244     47247     47248     47244     47247
     47248     47244     47246     47248     47244     47245     47250     47254     47255
     47251     47250     47253     47251     47250     47252     47252     47250     47253
     47254     47250     47253     47254     47250     47252     47254     47250     47251
     47256     47260     47261     47257     47256     47259     47257     47256     47258
     47258     47256     47259     47260     47256     47259     47260     47256     47258
     47260     47256     47257     47262     47266     47267     47263     47262     47265
     47263     47262     47264     47264     47262     47265     47266     47262     47265
     47266     47262     47264     47266     47262     47263     47268     47272     47273
     47269     47268     47271     47269     47268     47270     47270     47268     47271
     47272     47268     47271     47272     47268     47270     47272     47268     47269
     47274     47278     47279     47275     47274     47277     47275     47274     47276
     47276     47274     47277     47278     47274     47277     47278     47274     47276
     47278     47274     47275     47280     47284     47285     47281     47280     47283
     47281     47280     47282     47282     47280     47283     47284     47280     47283
     47284     47280     47282     47284     47280     47281     47286     47290     47291
     47287     47286     47289     47287     47286     47288     47288     47286     47289
     47290     47286     47289     47290     47286     47288     47290     47286     47287
     47292     47296     47297     47293     47292     47295     47293     47292     47294
     47294     47292     47295     47296     47292     47295     47296     47292     47294
     47296     47292     47293     47298     47302     47303     47299     47298     47301
     47299     47298     47300     47300     47298     47301     47302     47298     47301
     47302     47298     47300     47302     47298     47299     47304     47308     47309
     47305     47304     47307     47305     47304     47306     47306     47304     47307
     47308     47304     47307     47308     47304     47306     47308     47304     47305
     47310     47314     47315     47311     47310     47313     47311     47310     47312
     47312     47310     47313     47314     47310     47313     47314     47310     47312
     47314     47310     47311     47316     47320     47321     47317     47316     47319
     47317     47316     47318     47318     47316     47319     47320     47316     47319
     47320     47316     47318     47320     47316     47317     47322     47326     47327
     47323     47322     47325     47323     47322     47324     47324     47322     47325
     47326     47322     47325     47326     47322     47324     47326     47322     47323
     47328     47332     47333     47329     47328     47331     47329     47328     47330
     47330     47328     47331     47332     47328     47331     47332     47328     47330
     47332     47328     47329     47334     47338     47339     47335     47334     47337
     47335     47334     47336     47336     47334     47337     47338     47334     47337
     47338     47334     47336     47338     47334     47335     47340     47344     47345
     47341     47340     47343     47341     47340     47342     47342     47340     47343
     47344     47340     47343     47344     47340     47342     47344     47340     47341
     47346     47350     47351     47347     47346     47349     47347     47346     47348
     47348     47346     47349     47350     47346     47349     47350     47346     47348
     47350     47346     47347     47352     47356     47357     47353     47352     47355
     47353     47352     47354     47354     47352     47355     47356     47352     47355
     47356     47352     47354     47356     47352     47353     47358     47362     47363
     47359     47358     47361     47359     47358     47360     47360     47358     47361
     47362     47358     47361     47362     47358     47360     47362     47358     47359
     47364     47368     47369     47365     47364     47367     47365     47364     47366
     47366     47364     47367     47368     47364     47367     47368     47364     47366
     47368     47364     47365     47370     47374     47375     47371     47370     47373
     47371     47370     47372     47372     47370     47373     47374     47370     47373
     47374     47370     47372     47374     47370     47371     47376     47380     47381
     47377     47376     47379     47377     47376     47378     47378     47376     47379
     47380     47376     47379     47380     47376     47378     47380     47376     47377
     47382     47386     47387     47383     47382     47385     47383     47382     47384
     47384     47382     47385     47386     47382     47385     47386     47382     47384
     47386     47382     47383     47388     47392     47393     47389     47388     47391
     47389     47388     47390     47390     47388     47391     47392     47388     47391
     47392     47388     47390     47392     47388     47389     47394     47398     47399
     47395     47394     47397     47395     47394     47396     47396     47394     47397
     47398     47394     47397     47398     47394     47396     47398     47394     47395
     47400     47404     47405     47401     47400     47403     47401     47400     47402
     47402     47400     47403     47404     47400     47403     47404     47400     47402
     47404     47400     47401     47406     47410     47411     47407     47406     47409
     47407     47406     47408     47408     47406     47409     47410     47406     47409
     47410     47406     47408     47410     47406     47407     47412     47416     47417
     47413     47412     47415     47413     47412     47414     47414     47412     47415
     47416     47412     47415     47416     47412     47414     47416     47412     47413
     47418     47422     47423     47419     47418     47421     47419     47418     47420
     47420     47418     47421     47422     47418     47421     47422     47418     47420
     47422     47418     47419     47424     47428     47429     47425     47424     47427
     47425     47424     47426     47426     47424     47427     47428     47424     47427
     47428     47424     47426     47428     47424     47425     47430     47434     47435
     47431     47430     47433     47431     47430     47432     47432     47430     47433
     47434     47430     47433     47434     47430     47432     47434     47430     47431
     47436     47440     47441     47437     47436     47439     47437     47436     47438
     47438     47436     47439     47440     47436     47439     47440     47436     47438
     47440     47436     47437     47442     47446     47447     47443     47442     47445
     47443     47442     47444     47444     47442     47445     47446     47442     47445
     47446     47442     47444     47446     47442     47443     47448     47452     47453
     47449     47448     47451     47449     47448     47450     47450     47448     47451
     47452     47448     47451     47452     47448     47450     47452     47448     47449
     47454     47458     47459     47455     47454     47457     47455     47454     47456
     47456     47454     47457     47458     47454     47457     47458     47454     47456
     47458     47454     47455     47460     47464     47465     47461     47460     47463
     47461     47460     47462     47462     47460     47463     47464     47460     47463
     47464     47460     47462     47464     47460     47461     47466     47470     47471
     47467     47466     47469     47467     47466     47468     47468     47466     47469
     47470     47466     47469     47470     47466     47468     47470     47466     47467
     47472     47476     47477     47473     47472     47475     47473     47472     47474
     47474     47472     47475     47476     47472     47475     47476     47472     47474
     47476     47472     47473     47478     47482     47483     47479     47478     47481
     47479     47478     47480     47480     47478     47481     47482     47478     47481
     47482     47478     47480     47482     47478     47479     47484     47488     47489
     47485     47484     47487     47485     47484     47486     47486     47484     47487
     47488     47484     47487     47488     47484     47486     47488     47484     47485
     47490     47494     47495     47491     47490     47493     47491     47490     47492
     47492     47490     47493     47494     47490     47493     47494     47490     47492
     47494     47490     47491     47496     47500     47501     47497     47496     47499
     47497     47496     47498     47498     47496     47499     47500     47496     47499
     47500     47496     47498     47500     47496     47497     47502     47506     47507
     47503     47502     47505     47503     47502     47504     47504     47502     47505
     47506     47502     47505     47506     47502     47504     47506     47502     47503
     47508     47512     47513     47509     47508     47511     47509     47508     47510
     47510     47508     47511     47512     47508     47511     47512     47508     47510
     47512     47508     47509     47514     47518     47519     47515     47514     47517
     47515     47514     47516     47516     47514     47517     47518     47514     47517
     47518     47514     47516     47518     47514     47515     47520     47524     47525
     47521     47520     47523     47521     47520     47522     47522     47520     47523
     47524     47520     47523     47524     47520     47522     47524     47520     47521
     47526     47530     47531     47527     47526     47529     47527     47526     47528
     47528     47526     47529     47530     47526     47529     47530     47526     47528
     47530     47526     47527     47532     47536     47537     47533     47532     47535
     47533     47532     47534     47534     47532     47535     47536     47532     47535
     47536     47532     47534     47536     47532     47533     47538     47542     47543
     47539     47538     47541     47539     47538     47540     47540     47538     47541
     47542     47538     47541     47542     47538     47540     47542     47538     47539
     47544     47548     47549     47545     47544     47547     47545     47544     47546
     47546     47544     47547     47548     47544     47547     47548     47544     47546
     47548     47544     47545     47550     47554     47555     47551     47550     47553
     47551     47550     47552     47552     47550     47553     47554     47550     47553
     47554     47550     47552     47554     47550     47551     47556     47560     47561
     47557     47556     47559     47557     47556     47558     47558     47556     47559
     47560     47556     47559     47560     47556     47558     47560     47556     47557
     47562     47566     47567     47563     47562     47565     47563     47562     47564
     47564     47562     47565     47566     47562     47565     47566     47562     47564
     47566     47562     47563     47568     47572     47573     47569     47568     47571
     47569     47568     47570     47570     47568     47571     47572     47568     47571
     47572     47568     47570     47572     47568     47569     47574     47578     47579
     47575     47574     47577     47575     47574     47576     47576     47574     47577
     47578     47574     47577     47578     47574     47576     47578     47574     47575
     47580     47584     47585     47581     47580     47583     47581     47580     47582
     47582     47580     47583     47584     47580     47583     47584     47580     47582
     47584     47580     47581     47586     47590     47591     47587     47586     47589
     47587     47586     47588     47588     47586     47589     47590     47586     47589
     47590     47586     47588     47590     47586     47587     47592     47596     47597
     47593     47592     47595     47593     47592     47594     47594     47592     47595
     47596     47592     47595     47596     47592     47594     47596     47592     47593
     47598     47602     47603     47599     47598     47601     47599     47598     47600
     47600     47598     47601     47602     47598     47601     47602     47598     47600
     47602     47598     47599     47604     47608     47609     47605     47604     47607
     47605     47604     47606     47606     47604     47607     47608     47604     47607
     47608     47604     47606     47608     47604     47605     47610     47614     47615
     47611     47610     47613     47611     47610     47612     47612     47610     47613
     47614     47610     47613     47614     47610     47612     47614     47610     47611
     47616     47620     47621     47617     47616     47619     47617     47616     47618
     47618     47616     47619     47620     47616     47619     47620     47616     47618
     47620     47616     47617     47622     47626     47627     47623     47622     47625
     47623     47622     47624     47624     47622     47625     47626     47622     47625
     47626     47622     47624     47626     47622     47623     47628     47632     47633
     47629     47628     47631     47629     47628     47630     47630     47628     47631
     47632     47628     47631     47632     47628     47630     47632     47628     47629
     47634     47638     47639     47635     47634     47637     47635     47634     47636
     47636     47634     47637     47638     47634     47637     47638     47634     47636
     47638     47634     47635     47640     47644     47645     47641     47640     47643
     47641     47640     47642     47642     47640     47643     47644     47640     47643
     47644     47640     47642     47644     47640     47641     47646     47650     47651
     47647     47646     47649     47647     47646     47648     47648     47646     47649
     47650     47646     47649     47650     47646     47648     47650     47646     47647
     47652     47656     47657     47653     47652     47655     47653     47652     47654
     47654     47652     47655     47656     47652     47655     47656     47652     47654
     47656     47652     47653     47658     47662     47663     47659     47658     47661
     47659     47658     47660     47660     47658     47661     47662     47658     47661
     47662     47658     47660     47662     47658     47659     47664     47668     47669
     47665     47664     47667     47665     47664     47666     47666     47664     47667
     47668     47664     47667     47668     47664     47666     47668     47664     47665
     47670     47674     47675     47671     47670     47673     47671     47670     47672
     47672     47670     47673     47674     47670     47673     47674     47670     47672
     47674     47670     47671     47676     47680     47681     47677     47676     47679
     47677     47676     47678     47678     47676     47679     47680     47676     47679
     47680     47676     47678     47680     47676     47677     47682     47686     47687
     47683     47682     47685     47683     47682     47684     47684     47682     47685
     47686     47682     47685     47686     47682     47684     47686     47682     47683
     47688     47692     47693     47689     47688     47691     47689     47688     47690
     47690     47688     47691     47692     47688     47691     47692     47688     47690
     47692     47688     47689     47694     47698     47699     47695     47694     47697
     47695     47694     47696     47696     47694     47697     47698     47694     47697
     47698     47694     47696     47698     47694     47695     47700     47704     47705
     47701     47700     47703     47701     47700     47702     47702     47700     47703
     47704     47700     47703     47704     47700     47702     47704     47700     47701
     47706     47710     47711     47707     47706     47709     47707     47706     47708
     47708     47706     47709     47710     47706     47709     47710     47706     47708
     47710     47706     47707     47712     47716     47717     47713     47712     47715
     47713     47712     47714     47714     47712     47715     47716     47712     47715
     47716     47712     47714     47716     47712     47713     47718     47722     47723
     47719     47718     47721     47719     47718     47720     47720     47718     47721
     47722     47718     47721     47722     47718     47720     47722     47718     47719
     47724     47728     47729     47725     47724     47727     47725     47724     47726
     47726     47724     47727     47728     47724     47727     47728     47724     47726
     47728     47724     47725     47730     47734     47735     47731     47730     47733
     47731     47730     47732     47732     47730     47733     47734     47730     47733
     47734     47730     47732     47734     47730     47731     47736     47740     47741
     47737     47736     47739     47737     47736     47738     47738     47736     47739
     47740     47736     47739     47740     47736     47738     47740     47736     47737
     47742     47746     47747     47743     47742     47745     47743     47742     47744
     47744     47742     47745     47746     47742     47745     47746     47742     47744
     47746     47742     47743     47748     47752     47753     47749     47748     47751
     47749     47748     47750     47750     47748     47751     47752     47748     47751
     47752     47748     47750     47752     47748     47749     47754     47758     47759
     47755     47754     47757     47755     47754     47756     47756     47754     47757
     47758     47754     47757     47758     47754     47756     47758     47754     47755
     47760     47764     47765     47761     47760     47763     47761     47760     47762
     47762     47760     47763     47764     47760     47763     47764     47760     47762
     47764     47760     47761     47766     47770     47771     47767     47766     47769
     47767     47766     47768     47768     47766     47769     47770     47766     47769
     47770     47766     47768     47770     47766     47767     47772     47776     47777
     47773     47772     47775     47773     47772     47774     47774     47772     47775
     47776     47772     47775     47776     47772     47774     47776     47772     47773
     47778     47782     47783     47779     47778     47781     47779     47778     47780
     47780     47778     47781     47782     47778     47781     47782     47778     47780
     47782     47778     47779     47784     47788     47789     47785     47784     47787
     47785     47784     47786     47786     47784     47787     47788     47784     47787
     47788     47784     47786     47788     47784     47785     47790     47794     47795
     47791     47790     47793     47791     47790     47792     47792     47790     47793
     47794     47790     47793     47794     47790     47792     47794     47790     47791
     47796     47800     47801     47797     47796     47799     47797     47796     47798
     47798     47796     47799     47800     47796     47799     47800     47796     47798
     47800     47796     47797     47802     47806     47807     47803     47802     47805
     47803     47802     47804     47804     47802     47805     47806     47802     47805
     47806     47802     47804     47806     47802     47803     47808     47812     47813
     47809     47808     47811     47809     47808     47810     47810     47808     47811
     47812     47808     47811     47812     47808     47810     47812     47808     47809
     47814     47818     47819     47815     47814     47817     47815     47814     47816
     47816     47814     47817     47818     47814     47817     47818     47814     47816
     47818     47814     47815     47820     47824     47825     47821     47820     47823
     47821     47820     47822     47822     47820     47823     47824     47820     47823
     47824     47820     47822     47824     47820     47821     47826     47830     47831
     47827     47826     47829     47827     47826     47828     47828     47826     47829
     47830     47826     47829     47830     47826     47828     47830     47826     47827
     47832     47836     47837     47833     47832     47835     47833     47832     47834
     47834     47832     47835     47836     47832     47835     47836     47832     47834
     47836     47832     47833     47838     47842     47843     47839     47838     47841
     47839     47838     47840     47840     47838     47841     47842     47838     47841
     47842     47838     47840     47842     47838     47839     47844     47848     47849
     47845     47844     47847     47845     47844     47846     47846     47844     47847
     47848     47844     47847     47848     47844     47846     47848     47844     47845
     47850     47854     47855     47851     47850     47853     47851     47850     47852
     47852     47850     47853     47854     47850     47853     47854     47850     47852
     47854     47850     47851     47856     47860     47861     47857     47856     47859
     47857     47856     47858     47858     47856     47859     47860     47856     47859
     47860     47856     47858     47860     47856     47857     47862     47866     47867
     47863     47862     47865     47863     47862     47864     47864     47862     47865
     47866     47862     47865     47866     47862     47864     47866     47862     47863
     47868     47872     47873     47869     47868     47871     47869     47868     47870
     47870     47868     47871     47872     47868     47871     47872     47868     47870
     47872     47868     47869     47874     47878     47879     47875     47874     47877
     47875     47874     47876     47876     47874     47877     47878     47874     47877
     47878     47874     47876     47878     47874     47875     47880     47884     47885
     47881     47880     47883     47881     47880     47882     47882     47880     47883
     47884     47880     47883     47884     47880     47882     47884     47880     47881
     47886     47890     47891     47887     47886     47889     47887     47886     47888
     47888     47886     47889     47890     47886     47889     47890     47886     47888
     47890     47886     47887     47892     47896     47897     47893     47892     47895
     47893     47892     47894     47894     47892     47895     47896     47892     47895
     47896     47892     47894     47896     47892     47893     47898     47902     47903
     47899     47898     47901     47899     47898     47900     47900     47898     47901
     47902     47898     47901     47902     47898     47900     47902     47898     47899
     47904     47908     47909     47905     47904     47907     47905     47904     47906
     47906     47904     47907     47908     47904     47907     47908     47904     47906
     47908     47904     47905     47910     47914     47915     47911     47910     47913
     47911     47910     47912     47912     47910     47913     47914     47910     47913
     47914     47910     47912     47914     47910     47911     47916     47920     47921
     47917     47916     47919     47917     47916     47918     47918     47916     47919
     47920     47916     47919     47920     47916     47918     47920     47916     47917
     47922     47926     47927     47923     47922     47925     47923     47922     47924
     47924     47922     47925     47926     47922     47925     47926     47922     47924
     47926     47922     47923     47928     47932     47933     47929     47928     47931
     47929     47928     47930     47930     47928     47931     47932     47928     47931
     47932     47928     47930     47932     47928     47929     47934     47938     47939
     47935     47934     47937     47935     47934     47936     47936     47934     47937
     47938     47934     47937     47938     47934     47936     47938     47934     47935
     47940     47944     47945     47941     47940     47943     47941     47940     47942
     47942     47940     47943     47944     47940     47943     47944     47940     47942
     47944     47940     47941     47946     47950     47951     47947     47946     47949
     47947     47946     47948     47948     47946     47949     47950     47946     47949
     47950     47946     47948     47950     47946     47947     47952     47956     47957
     47953     47952     47955     47953     47952     47954     47954     47952     47955
     47956     47952     47955     47956     47952     47954     47956     47952     47953
     47958     47962     47963     47959     47958     47961     47959     47958     47960
     47960     47958     47961     47962     47958     47961     47962     47958     47960
     47962     47958     47959     47964     47968     47969     47965     47964     47967
     47965     47964     47966     47966     47964     47967     47968     47964     47967
     47968     47964     47966     47968     47964     47965     47970     47974     47975
     47971     47970     47973     47971     47970     47972     47972     47970     47973
     47974     47970     47973     47974     47970     47972     47974     47970     47971
     47976     47980     47981     47977     47976     47979     47977     47976     47978
     47978     47976     47979     47980     47976     47979     47980     47976     47978
     47980     47976     47977     47982     47986     47987     47983     47982     47985
     47983     47982     47984     47984     47982     47985     47986     47982     47985
     47986     47982     47984     47986     47982     47983     47988     47992     47993
     47989     47988     47991     47989     47988     47990     47990     47988     47991
     47992     47988     47991     47992     47988     47990     47992     47988     47989
     47994     47998     47999     47995     47994     47997     47995     47994     47996
     47996     47994     47997     47998     47994     47997     47998     47994     47996
     47998     47994     47995     48000     48004     48005     48001     48000     48003
     48001     48000     48002     48002     48000     48003     48004     48000     48003
     48004     48000     48002     48004     48000     48001     48006     48010     48011
     48007     48006     48009     48007     48006     48008     48008     48006     48009
     48010     48006     48009     48010     48006     48008     48010     48006     48007
     48012     48016     48017     48013     48012     48015     48013     48012     48014
     48014     48012     48015     48016     48012     48015     48016     48012     48014
     48016     48012     48013     48018     48022     48023     48019     48018     48021
     48019     48018     48020     48020     48018     48021     48022     48018     48021
     48022     48018     48020     48022     48018     48019     48024     48028     48029
     48025     48024     48027     48025     48024     48026     48026     48024     48027
     48028     48024     48027     48028     48024     48026     48028     48024     48025
     48030     48034     48035     48031     48030     48033     48031     48030     48032
     48032     48030     48033     48034     48030     48033     48034     48030     48032
     48034     48030     48031     48036     48040     48041     48037     48036     48039
     48037     48036     48038     48038     48036     48039     48040     48036     48039
     48040     48036     48038     48040     48036     48037     48042     48046     48047
     48043     48042     48045     48043     48042     48044     48044     48042     48045
     48046     48042     48045     48046     48042     48044     48046     48042     48043
     48048     48052     48053     48049     48048     48051     48049     48048     48050
     48050     48048     48051     48052     48048     48051     48052     48048     48050
     48052     48048     48049     48054     48058     48059     48055     48054     48057
     48055     48054     48056     48056     48054     48057     48058     48054     48057
     48058     48054     48056     48058     48054     48055     48060     48064     48065
     48061     48060     48063     48061     48060     48062     48062     48060     48063
     48064     48060     48063     48064     48060     48062     48064     48060     48061
     48066     48070     48071     48067     48066     48069     48067     48066     48068
     48068     48066     48069     48070     48066     48069     48070     48066     48068
     48070     48066     48067     48072     48076     48077     48073     48072     48075
     48073     48072     48074     48074     48072     48075     48076     48072     48075
     48076     48072     48074     48076     48072     48073     48078     48082     48083
     48079     48078     48081     48079     48078     48080     48080     48078     48081
     48082     48078     48081     48082     48078     48080     48082     48078     48079
     48084     48088     48089     48085     48084     48087     48085     48084     48086
     48086     48084     48087     48088     48084     48087     48088     48084     48086
     48088     48084     48085     48090     48094     48095     48091     48090     48093
     48091     48090     48092     48092     48090     48093     48094     48090     48093
     48094     48090     48092     48094     48090     48091     48096     48100     48101
     48097     48096     48099     48097     48096     48098     48098     48096     48099
     48100     48096     48099     48100     48096     48098     48100     48096     48097
     48102     48106     48107     48103     48102     48105     48103     48102     48104
     48104     48102     48105     48106     48102     48105     48106     48102     48104
     48106     48102     48103     48108     48112     48113     48109     48108     48111
     48109     48108     48110     48110     48108     48111     48112     48108     48111
     48112     48108     48110     48112     48108     48109     48114     48118     48119
     48115     48114     48117     48115     48114     48116     48116     48114     48117
     48118     48114     48117     48118     48114     48116     48118     48114     48115
     48120     48124     48125     48121     48120     48123     48121     48120     48122
     48122     48120     48123     48124     48120     48123     48124     48120     48122
     48124     48120     48121     48126     48130     48131     48127     48126     48129
     48127     48126     48128     48128     48126     48129     48130     48126     48129
     48130     48126     48128     48130     48126     48127     48132     48136     48137
     48133     48132     48135     48133     48132     48134     48134     48132     48135
     48136     48132     48135     48136     48132     48134     48136     48132     48133
     48138     48142     48143     48139     48138     48141     48139     48138     48140
     48140     48138     48141     48142     48138     48141     48142     48138     48140
     48142     48138     48139     48144     48148     48149     48145     48144     48147
     48145     48144     48146     48146     48144     48147     48148     48144     48147
     48148     48144     48146     48148     48144     48145     48150     48154     48155
     48151     48150     48153     48151     48150     48152     48152     48150     48153
     48154     48150     48153     48154     48150     48152     48154     48150     48151
     48156     48160     48161     48157     48156     48159     48157     48156     48158
     48158     48156     48159     48160     48156     48159     48160     48156     48158
     48160     48156     48157     48162     48166     48167     48163     48162     48165
     48163     48162     48164     48164     48162     48165     48166     48162     48165
     48166     48162     48164     48166     48162     48163     48168     48172     48173
     48169     48168     48171     48169     48168     48170     48170     48168     48171
     48172     48168     48171     48172     48168     48170     48172     48168     48169
     48174     48178     48179     48175     48174     48177     48175     48174     48176
     48176     48174     48177     48178     48174     48177     48178     48174     48176
     48178     48174     48175     48180     48184     48185     48181     48180     48183
     48181     48180     48182     48182     48180     48183     48184     48180     48183
     48184     48180     48182     48184     48180     48181     48186     48190     48191
     48187     48186     48189     48187     48186     48188     48188     48186     48189
     48190     48186     48189     48190     48186     48188     48190     48186     48187
     48192     48196     48197     48193     48192     48195     48193     48192     48194
     48194     48192     48195     48196     48192     48195     48196     48192     48194
     48196     48192     48193     48198     48202     48203     48199     48198     48201
     48199     48198     48200     48200     48198     48201     48202     48198     48201
     48202     48198     48200     48202     48198     48199     48204     48208     48209
     48205     48204     48207     48205     48204     48206     48206     48204     48207
     48208     48204     48207     48208     48204     48206     48208     48204     48205
     48210     48214     48215     48211     48210     48213     48211     48210     48212
     48212     48210     48213     48214     48210     48213     48214     48210     48212
     48214     48210     48211     48216     48220     48221     48217     48216     48219
     48217     48216     48218     48218     48216     48219     48220     48216     48219
     48220     48216     48218     48220     48216     48217     48222     48226     48227
     48223     48222     48225     48223     48222     48224     48224     48222     48225
     48226     48222     48225     48226     48222     48224     48226     48222     48223
     48228     48232     48233     48229     48228     48231     48229     48228     48230
     48230     48228     48231     48232     48228     48231     48232     48228     48230
     48232     48228     48229     48234     48238     48239     48235     48234     48237
     48235     48234     48236     48236     48234     48237     48238     48234     48237
     48238     48234     48236     48238     48234     48235     48240     48244     48245
     48241     48240     48243     48241     48240     48242     48242     48240     48243
     48244     48240     48243     48244     48240     48242     48244     48240     48241
     48246     48250     48251     48247     48246     48249     48247     48246     48248
     48248     48246     48249     48250     48246     48249     48250     48246     48248
     48250     48246     48247     48252     48256     48257     48253     48252     48255
     48253     48252     48254     48254     48252     48255     48256     48252     48255
     48256     48252     48254     48256     48252     48253     48258     48262     48263
     48259     48258     48261     48259     48258     48260     48260     48258     48261
     48262     48258     48261     48262     48258     48260     48262     48258     48259
     48264     48268     48269     48265     48264     48267     48265     48264     48266
     48266     48264     48267     48268     48264     48267     48268     48264     48266
     48268     48264     48265     48270     48274     48275     48271     48270     48273
     48271     48270     48272     48272     48270     48273     48274     48270     48273
     48274     48270     48272     48274     48270     48271     48276     48280     48281
     48277     48276     48279     48277     48276     48278     48278     48276     48279
     48280     48276     48279     48280     48276     48278     48280     48276     48277
     48282     48286     48287     48283     48282     48285     48283     48282     48284
     48284     48282     48285     48286     48282     48285     48286     48282     48284
     48286     48282     48283     48288     48292     48293     48289     48288     48291
     48289     48288     48290     48290     48288     48291     48292     48288     48291
     48292     48288     48290     48292     48288     48289     48294     48298     48299
     48295     48294     48297     48295     48294     48296     48296     48294     48297
     48298     48294     48297     48298     48294     48296     48298     48294     48295
     48300     48304     48305     48301     48300     48303     48301     48300     48302
     48302     48300     48303     48304     48300     48303     48304     48300     48302
     48304     48300     48301     48306     48310     48311     48307     48306     48309
     48307     48306     48308     48308     48306     48309     48310     48306     48309
     48310     48306     48308     48310     48306     48307     48312     48316     48317
     48313     48312     48315     48313     48312     48314     48314     48312     48315
     48316     48312     48315     48316     48312     48314     48316     48312     48313
     48318     48322     48323     48319     48318     48321     48319     48318     48320
     48320     48318     48321     48322     48318     48321     48322     48318     48320
     48322     48318     48319     48324     48328     48329     48325     48324     48327
     48325     48324     48326     48326     48324     48327     48328     48324     48327
     48328     48324     48326     48328     48324     48325     48330     48334     48335
     48331     48330     48333     48331     48330     48332     48332     48330     48333
     48334     48330     48333     48334     48330     48332     48334     48330     48331
     48336     48340     48341     48337     48336     48339     48337     48336     48338
     48338     48336     48339     48340     48336     48339     48340     48336     48338
     48340     48336     48337     48342     48346     48347     48343     48342     48345
     48343     48342     48344     48344     48342     48345     48346     48342     48345
     48346     48342     48344     48346     48342     48343     48348     48352     48353
     48349     48348     48351     48349     48348     48350     48350     48348     48351
     48352     48348     48351     48352     48348     48350     48352     48348     48349
     48354     48358     48359     48355     48354     48357     48355     48354     48356
     48356     48354     48357     48358     48354     48357     48358     48354     48356
     48358     48354     48355     48360     48364     48365     48361     48360     48363
     48361     48360     48362     48362     48360     48363     48364     48360     48363
     48364     48360     48362     48364     48360     48361     48366     48370     48371
     48367     48366     48369     48367     48366     48368     48368     48366     48369
     48370     48366     48369     48370     48366     48368     48370     48366     48367
     48372     48376     48377     48373     48372     48375     48373     48372     48374
     48374     48372     48375     48376     48372     48375     48376     48372     48374
     48376     48372     48373     48378     48382     48383     48379     48378     48381
     48379     48378     48380     48380     48378     48381     48382     48378     48381
     48382     48378     48380     48382     48378     48379     48384     48388     48389
     48385     48384     48387     48385     48384     48386     48386     48384     48387
     48388     48384     48387     48388     48384     48386     48388     48384     48385
     48390     48394     48395     48391     48390     48393     48391     48390     48392
     48392     48390     48393     48394     48390     48393     48394     48390     48392
     48394     48390     48391     48396     48400     48401     48397     48396     48399
     48397     48396     48398     48398     48396     48399     48400     48396     48399
     48400     48396     48398     48400     48396     48397     48402     48406     48407
     48403     48402     48405     48403     48402     48404     48404     48402     48405
     48406     48402     48405     48406     48402     48404     48406     48402     48403
     48408     48412     48413     48409     48408     48411     48409     48408     48410
     48410     48408     48411     48412     48408     48411     48412     48408     48410
     48412     48408     48409     48414     48418     48419     48415     48414     48417
     48415     48414     48416     48416     48414     48417     48418     48414     48417
     48418     48414     48416     48418     48414     48415     48420     48424     48425
     48421     48420     48423     48421     48420     48422     48422     48420     48423
     48424     48420     48423     48424     48420     48422     48424     48420     48421
     48426     48430     48431     48427     48426     48429     48427     48426     48428
     48428     48426     48429     48430     48426     48429     48430     48426     48428
     48430     48426     48427     48432     48436     48437     48433     48432     48435
     48433     48432     48434     48434     48432     48435     48436     48432     48435
     48436     48432     48434     48436     48432     48433     48438     48442     48443
     48439     48438     48441     48439     48438     48440     48440     48438     48441
     48442     48438     48441     48442     48438     48440     48442     48438     48439
     48444     48448     48449     48445     48444     48447     48445     48444     48446
     48446     48444     48447     48448     48444     48447     48448     48444     48446
     48448     48444     48445     48450     48454     48455     48451     48450     48453
     48451     48450     48452     48452     48450     48453     48454     48450     48453
     48454     48450     48452     48454     48450     48451     48456     48460     48461
     48457     48456     48459     48457     48456     48458     48458     48456     48459
     48460     48456     48459     48460     48456     48458     48460     48456     48457
     48462     48466     48467     48463     48462     48465     48463     48462     48464
     48464     48462     48465     48466     48462     48465     48466     48462     48464
     48466     48462     48463     48468     48472     48473     48469     48468     48471
     48469     48468     48470     48470     48468     48471     48472     48468     48471
     48472     48468     48470     48472     48468     48469     48474     48478     48479
     48475     48474     48477     48475     48474     48476     48476     48474     48477
     48478     48474     48477     48478     48474     48476     48478     48474     48475
     48480     48484     48485     48481     48480     48483     48481     48480     48482
     48482     48480     48483     48484     48480     48483     48484     48480     48482
     48484     48480     48481     48486     48490     48491     48487     48486     48489
     48487     48486     48488     48488     48486     48489     48490     48486     48489
     48490     48486     48488     48490     48486     48487     48492     48496     48497
     48493     48492     48495     48493     48492     48494     48494     48492     48495
     48496     48492     48495     48496     48492     48494     48496     48492     48493
     48498     48502     48503     48499     48498     48501     48499     48498     48500
     48500     48498     48501     48502     48498     48501     48502     48498     48500
     48502     48498     48499     48504     48508     48509     48505     48504     48507
     48505     48504     48506     48506     48504     48507     48508     48504     48507
     48508     48504     48506     48508     48504     48505     48510     48514     48515
     48511     48510     48513     48511     48510     48512     48512     48510     48513
     48514     48510     48513     48514     48510     48512     48514     48510     48511
     48516     48520     48521     48517     48516     48519     48517     48516     48518
     48518     48516     48519     48520     48516     48519     48520     48516     48518
     48520     48516     48517     48522     48526     48527     48523     48522     48525
     48523     48522     48524     48524     48522     48525     48526     48522     48525
     48526     48522     48524     48526     48522     48523     48528     48532     48533
     48529     48528     48531     48529     48528     48530     48530     48528     48531
     48532     48528     48531     48532     48528     48530     48532     48528     48529
     48534     48538     48539     48535     48534     48537     48535     48534     48536
     48536     48534     48537     48538     48534     48537     48538     48534     48536
     48538     48534     48535     48540     48544     48545     48541     48540     48543
     48541     48540     48542     48542     48540     48543     48544     48540     48543
     48544     48540     48542     48544     48540     48541     48546     48550     48551
     48547     48546     48549     48547     48546     48548     48548     48546     48549
     48550     48546     48549     48550     48546     48548     48550     48546     48547
     48552     48556     48557     48553     48552     48555     48553     48552     48554
     48554     48552     48555     48556     48552     48555     48556     48552     48554
     48556     48552     48553     48558     48562     48563     48559     48558     48561
     48559     48558     48560     48560     48558     48561     48562     48558     48561
     48562     48558     48560     48562     48558     48559     48564     48568     48569
     48565     48564     48567     48565     48564     48566     48566     48564     48567
     48568     48564     48567     48568     48564     48566     48568     48564     48565
     48570     48574     48575     48571     48570     48573     48571     48570     48572
     48572     48570     48573     48574     48570     48573     48574     48570     48572
     48574     48570     48571     48576     48580     48581     48577     48576     48579
     48577     48576     48578     48578     48576     48579     48580     48576     48579
     48580     48576     48578     48580     48576     48577     48582     48586     48587
     48583     48582     48585     48583     48582     48584     48584     48582     48585
     48586     48582     48585     48586     48582     48584     48586     48582     48583
     48588     48592     48593     48589     48588     48591     48589     48588     48590
     48590     48588     48591     48592     48588     48591     48592     48588     48590
     48592     48588     48589     48594     48598     48599     48595     48594     48597
     48595     48594     48596     48596     48594     48597     48598     48594     48597
     48598     48594     48596     48598     48594     48595     48600     48604     48605
     48601     48600     48603     48601     48600     48602     48602     48600     48603
     48604     48600     48603     48604     48600     48602     48604     48600     48601
     48606     48610     48611     48607     48606     48609     48607     48606     48608
     48608     48606     48609     48610     48606     48609     48610     48606     48608
     48610     48606     48607     48612     48616     48617     48613     48612     48615
     48613     48612     48614     48614     48612     48615     48616     48612     48615
     48616     48612     48614     48616     48612     48613     48618     48622     48623
     48619     48618     48621     48619     48618     48620     48620     48618     48621
     48622     48618     48621     48622     48618     48620     48622     48618     48619
     48624     48628     48629     48625     48624     48627     48625     48624     48626
     48626     48624     48627     48628     48624     48627     48628     48624     48626
     48628     48624     48625     48630     48634     48635     48631     48630     48633
     48631     48630     48632     48632     48630     48633     48634     48630     48633
     48634     48630     48632     48634     48630     48631     48636     48640     48641
     48637     48636     48639     48637     48636     48638     48638     48636     48639
     48640     48636     48639     48640     48636     48638     48640     48636     48637
     48642     48646     48647     48643     48642     48645     48643     48642     48644
     48644     48642     48645     48646     48642     48645     48646     48642     48644
     48646     48642     48643     48648     48652     48653     48649     48648     48651
     48649     48648     48650     48650     48648     48651     48652     48648     48651
     48652     48648     48650     48652     48648     48649     48654     48658     48659
     48655     48654     48657     48655     48654     48656     48656     48654     48657
     48658     48654     48657     48658     48654     48656     48658     48654     48655
     48660     48664     48665     48661     48660     48663     48661     48660     48662
     48662     48660     48663     48664     48660     48663     48664     48660     48662
     48664     48660     48661     48666     48670     48671     48667     48666     48669
     48667     48666     48668     48668     48666     48669     48670     48666     48669
     48670     48666     48668     48670     48666     48667     48672     48676     48677
     48673     48672     48675     48673     48672     48674     48674     48672     48675
     48676     48672     48675     48676     48672     48674     48676     48672     48673
     48678     48682     48683     48679     48678     48681     48679     48678     48680
     48680     48678     48681     48682     48678     48681     48682     48678     48680
     48682     48678     48679     48684     48688     48689     48685     48684     48687
     48685     48684     48686     48686     48684     48687     48688     48684     48687
     48688     48684     48686     48688     48684     48685     48690     48694     48695
     48691     48690     48693     48691     48690     48692     48692     48690     48693
     48694     48690     48693     48694     48690     48692     48694     48690     48691
     48696     48700     48701     48697     48696     48699     48697     48696     48698
     48698     48696     48699     48700     48696     48699     48700     48696     48698
     48700     48696     48697     48702     48706     48707     48703     48702     48705
     48703     48702     48704     48704     48702     48705     48706     48702     48705
     48706     48702     48704     48706     48702     48703     48708     48712     48713
     48709     48708     48711     48709     48708     48710     48710     48708     48711
     48712     48708     48711     48712     48708     48710     48712     48708     48709
     48714     48718     48719     48715     48714     48717     48715     48714     48716
     48716     48714     48717     48718     48714     48717     48718     48714     48716
     48718     48714     48715     48720     48724     48725     48721     48720     48723
     48721     48720     48722     48722     48720     48723     48724     48720     48723
     48724     48720     48722     48724     48720     48721     48726     48730     48731
     48727     48726     48729     48727     48726     48728     48728     48726     48729
     48730     48726     48729     48730     48726     48728     48730     48726     48727
     48732     48736     48737     48733     48732     48735     48733     48732     48734
     48734     48732     48735     48736     48732     48735     48736     48732     48734
     48736     48732     48733     48738     48742     48743     48739     48738     48741
     48739     48738     48740     48740     48738     48741     48742     48738     48741
     48742     48738     48740     48742     48738     48739     48744     48748     48749
     48745     48744     48747     48745     48744     48746     48746     48744     48747
     48748     48744     48747     48748     48744     48746     48748     48744     48745
     48750     48754     48755     48751     48750     48753     48751     48750     48752
     48752     48750     48753     48754     48750     48753     48754     48750     48752
     48754     48750     48751     48756     48760     48761     48757     48756     48759
     48757     48756     48758     48758     48756     48759     48760     48756     48759
     48760     48756     48758     48760     48756     48757     48762     48766     48767
     48763     48762     48765     48763     48762     48764     48764     48762     48765
     48766     48762     48765     48766     48762     48764     48766     48762     48763
     48768     48772     48773     48769     48768     48771     48769     48768     48770
     48770     48768     48771     48772     48768     48771     48772     48768     48770
     48772     48768     48769     48774     48778     48779     48775     48774     48777
     48775     48774     48776     48776     48774     48777     48778     48774     48777
     48778     48774     48776     48778     48774     48775     48780     48784     48785
     48781     48780     48783     48781     48780     48782     48782     48780     48783
     48784     48780     48783     48784     48780     48782     48784     48780     48781
     48786     48790     48791     48787     48786     48789     48787     48786     48788
     48788     48786     48789     48790     48786     48789     48790     48786     48788
     48790     48786     48787     48792     48796     48797     48793     48792     48795
     48793     48792     48794     48794     48792     48795     48796     48792     48795
     48796     48792     48794     48796     48792     48793     48798     48802     48803
     48799     48798     48801     48799     48798     48800     48800     48798     48801
     48802     48798     48801     48802     48798     48800     48802     48798     48799
     48804     48808     48809     48805     48804     48807     48805     48804     48806
     48806     48804     48807     48808     48804     48807     48808     48804     48806
     48808     48804     48805     48810     48814     48815     48811     48810     48813
     48811     48810     48812     48812     48810     48813     48814     48810     48813
     48814     48810     48812     48814     48810     48811     48816     48820     48821
     48817     48816     48819     48817     48816     48818     48818     48816     48819
     48820     48816     48819     48820     48816     48818     48820     48816     48817
     48822     48826     48827     48823     48822     48825     48823     48822     48824
     48824     48822     48825     48826     48822     48825     48826     48822     48824
     48826     48822     48823     48828     48832     48833     48829     48828     48831
     48829     48828     48830     48830     48828     48831     48832     48828     48831
     48832     48828     48830     48832     48828     48829     48834     48838     48839
     48835     48834     48837     48835     48834     48836     48836     48834     48837
     48838     48834     48837     48838     48834     48836     48838     48834     48835
     48840     48844     48845     48841     48840     48843     48841     48840     48842
     48842     48840     48843     48844     48840     48843     48844     48840     48842
     48844     48840     48841     48846     48850     48851     48847     48846     48849
     48847     48846     48848     48848     48846     48849     48850     48846     48849
     48850     48846     48848     48850     48846     48847     48852     48856     48857
     48853     48852     48855     48853     48852     48854     48854     48852     48855
     48856     48852     48855     48856     48852     48854     48856     48852     48853
     48858     48862     48863     48859     48858     48861     48859     48858     48860
     48860     48858     48861     48862     48858     48861     48862     48858     48860
     48862     48858     48859     48864     48868     48869     48865     48864     48867
     48865     48864     48866     48866     48864     48867     48868     48864     48867
     48868     48864     48866     48868     48864     48865     48870     48874     48875
     48871     48870     48873     48871     48870     48872     48872     48870     48873
     48874     48870     48873     48874     48870     48872     48874     48870     48871
     48876     48880     48881     48877     48876     48879     48877     48876     48878
     48878     48876     48879     48880     48876     48879     48880     48876     48878
     48880     48876     48877     48882     48886     48887     48883     48882     48885
     48883     48882     48884     48884     48882     48885     48886     48882     48885
     48886     48882     48884     48886     48882     48883     48888     48892     48893
     48889     48888     48891     48889     48888     48890     48890     48888     48891
     48892     48888     48891     48892     48888     48890     48892     48888     48889
     48894     48898     48899     48895     48894     48897     48895     48894     48896
     48896     48894     48897     48898     48894     48897     48898     48894     48896
     48898     48894     48895     48900     48904     48905     48901     48900     48903
     48901     48900     48902     48902     48900     48903     48904     48900     48903
     48904     48900     48902     48904     48900     48901     48906     48910     48911
     48907     48906     48909     48907     48906     48908     48908     48906     48909
     48910     48906     48909     48910     48906     48908     48910     48906     48907
     48912     48916     48917     48913     48912     48915     48913     48912     48914
     48914     48912     48915     48916     48912     48915     48916     48912     48914
     48916     48912     48913     48918     48922     48923     48919     48918     48921
     48919     48918     48920     48920     48918     48921     48922     48918     48921
     48922     48918     48920     48922     48918     48919     48924     48928     48929
     48925     48924     48927     48925     48924     48926     48926     48924     48927
     48928     48924     48927     48928     48924     48926     48928     48924     48925
     48930     48934     48935     48931     48930     48933     48931     48930     48932
     48932     48930     48933     48934     48930     48933     48934     48930     48932
     48934     48930     48931     48936     48940     48941     48937     48936     48939
     48937     48936     48938     48938     48936     48939     48940     48936     48939
     48940     48936     48938     48940     48936     48937     48942     48946     48947
     48943     48942     48945     48943     48942     48944     48944     48942     48945
     48946     48942     48945     48946     48942     48944     48946     48942     48943
     48948     48952     48953     48949     48948     48951     48949     48948     48950
     48950     48948     48951     48952     48948     48951     48952     48948     48950
     48952     48948     48949     48954     48958     48959     48955     48954     48957
     48955     48954     48956     48956     48954     48957     48958     48954     48957
     48958     48954     48956     48958     48954     48955     48960     48964     48965
     48961     48960     48963     48961     48960     48962     48962     48960     48963
     48964     48960     48963     48964     48960     48962     48964     48960     48961
     48966     48970     48971     48967     48966     48969     48967     48966     48968
     48968     48966     48969     48970     48966     48969     48970     48966     48968
     48970     48966     48967     48972     48976     48977     48973     48972     48975
     48973     48972     48974     48974     48972     48975     48976     48972     48975
     48976     48972     48974     48976     48972     48973     48978     48982     48983
     48979     48978     48981     48979     48978     48980     48980     48978     48981
     48982     48978     48981     48982     48978     48980     48982     48978     48979
     48984     48988     48989     48985     48984     48987     48985     48984     48986
     48986     48984     48987     48988     48984     48987     48988     48984     48986
     48988     48984     48985     48990     48994     48995     48991     48990     48993
     48991     48990     48992     48992     48990     48993     48994     48990     48993
     48994     48990     48992     48994     48990     48991     48996     49000     49001
     48997     48996     48999     48997     48996     48998     48998     48996     48999
     49000     48996     48999     49000     48996     48998     49000     48996     48997
     49002     49006     49007     49003     49002     49005     49003     49002     49004
     49004     49002     49005     49006     49002     49005     49006     49002     49004
     49006     49002     49003     49008     49012     49013     49009     49008     49011
     49009     49008     49010     49010     49008     49011     49012     49008     49011
     49012     49008     49010     49012     49008     49009     49014     49018     49019
     49015     49014     49017     49015     49014     49016     49016     49014     49017
     49018     49014     49017     49018     49014     49016     49018     49014     49015
     49020     49024     49025     49021     49020     49023     49021     49020     49022
     49022     49020     49023     49024     49020     49023     49024     49020     49022
     49024     49020     49021     49026     49030     49031     49027     49026     49029
     49027     49026     49028     49028     49026     49029     49030     49026     49029
     49030     49026     49028     49030     49026     49027     49032     49036     49037
     49033     49032     49035     49033     49032     49034     49034     49032     49035
     49036     49032     49035     49036     49032     49034     49036     49032     49033
     49038     49042     49043     49039     49038     49041     49039     49038     49040
     49040     49038     49041     49042     49038     49041     49042     49038     49040
     49042     49038     49039     49044     49048     49049     49045     49044     49047
     49045     49044     49046     49046     49044     49047     49048     49044     49047
     49048     49044     49046     49048     49044     49045     49050     49054     49055
     49051     49050     49053     49051     49050     49052     49052     49050     49053
     49054     49050     49053     49054     49050     49052     49054     49050     49051
     49056     49060     49061     49057     49056     49059     49057     49056     49058
     49058     49056     49059     49060     49056     49059     49060     49056     49058
     49060     49056     49057     49062     49066     49067     49063     49062     49065
     49063     49062     49064     49064     49062     49065     49066     49062     49065
     49066     49062     49064     49066     49062     49063     49068     49072     49073
     49069     49068     49071     49069     49068     49070     49070     49068     49071
     49072     49068     49071     49072     49068     49070     49072     49068     49069
     49074     49078     49079     49075     49074     49077     49075     49074     49076
     49076     49074     49077     49078     49074     49077     49078     49074     49076
     49078     49074     49075     49080     49084     49085     49081     49080     49083
     49081     49080     49082     49082     49080     49083     49084     49080     49083
     49084     49080     49082     49084     49080     49081     49086     49090     49091
     49087     49086     49089     49087     49086     49088     49088     49086     49089
     49090     49086     49089     49090     49086     49088     49090     49086     49087
     49092     49096     49097     49093     49092     49095     49093     49092     49094
     49094     49092     49095     49096     49092     49095     49096     49092     49094
     49096     49092     49093     49098     49102     49103     49099     49098     49101
     49099     49098     49100     49100     49098     49101     49102     49098     49101
     49102     49098     49100     49102     49098     49099     49104     49108     49109
     49105     49104     49107     49105     49104     49106     49106     49104     49107
     49108     49104     49107     49108     49104     49106     49108     49104     49105
     49110     49114     49115     49111     49110     49113     49111     49110     49112
     49112     49110     49113     49114     49110     49113     49114     49110     49112
     49114     49110     49111     49116     49120     49121     49117     49116     49119
     49117     49116     49118     49118     49116     49119     49120     49116     49119
     49120     49116     49118     49120     49116     49117     49122     49126     49127
     49123     49122     49125     49123     49122     49124     49124     49122     49125
     49126     49122     49125     49126     49122     49124     49126     49122     49123
     49128     49132     49133     49129     49128     49131     49129     49128     49130
     49130     49128     49131     49132     49128     49131     49132     49128     49130
     49132     49128     49129     49134     49138     49139     49135     49134     49137
     49135     49134     49136     49136     49134     49137     49138     49134     49137
     49138     49134     49136     49138     49134     49135     49140     49144     49145
     49141     49140     49143     49141     49140     49142     49142     49140     49143
     49144     49140     49143     49144     49140     49142     49144     49140     49141
     49146     49150     49151     49147     49146     49149     49147     49146     49148
     49148     49146     49149     49150     49146     49149     49150     49146     49148
     49150     49146     49147     49152     49156     49157     49153     49152     49155
     49153     49152     49154     49154     49152     49155     49156     49152     49155
     49156     49152     49154     49156     49152     49153     49158     49162     49163
     49159     49158     49161     49159     49158     49160     49160     49158     49161
     49162     49158     49161     49162     49158     49160     49162     49158     49159
     49164     49168     49169     49165     49164     49167     49165     49164     49166
     49166     49164     49167     49168     49164     49167     49168     49164     49166
     49168     49164     49165     49170     49174     49175     49171     49170     49173
     49171     49170     49172     49172     49170     49173     49174     49170     49173
     49174     49170     49172     49174     49170     49171     49176     49180     49181
     49177     49176     49179     49177     49176     49178     49178     49176     49179
     49180     49176     49179     49180     49176     49178     49180     49176     49177
     49182     49186     49187     49183     49182     49185     49183     49182     49184
     49184     49182     49185     49186     49182     49185     49186     49182     49184
     49186     49182     49183     49188     49192     49193     49189     49188     49191
     49189     49188     49190     49190     49188     49191     49192     49188     49191
     49192     49188     49190     49192     49188     49189     49194     49198     49199
     49195     49194     49197     49195     49194     49196     49196     49194     49197
     49198     49194     49197     49198     49194     49196     49198     49194     49195
     49200     49204     49205     49201     49200     49203     49201     49200     49202
     49202     49200     49203     49204     49200     49203     49204     49200     49202
     49204     49200     49201     49206     49210     49211     49207     49206     49209
     49207     49206     49208     49208     49206     49209     49210     49206     49209
     49210     49206     49208     49210     49206     49207     49212     49216     49217
     49213     49212     49215     49213     49212     49214     49214     49212     49215
     49216     49212     49215     49216     49212     49214     49216     49212     49213
     49218     49222     49223     49219     49218     49221     49219     49218     49220
     49220     49218     49221     49222     49218     49221     49222     49218     49220
     49222     49218     49219     49224     49228     49229     49225     49224     49227
     49225     49224     49226     49226     49224     49227     49228     49224     49227
     49228     49224     49226     49228     49224     49225     49230     49234     49235
     49231     49230     49233     49231     49230     49232     49232     49230     49233
     49234     49230     49233     49234     49230     49232     49234     49230     49231
     49236     49240     49241     49237     49236     49239     49237     49236     49238
     49238     49236     49239     49240     49236     49239     49240     49236     49238
     49240     49236     49237     49242     49246     49247     49243     49242     49245
     49243     49242     49244     49244     49242     49245     49246     49242     49245
     49246     49242     49244     49246     49242     49243     49248     49252     49253
     49249     49248     49251     49249     49248     49250     49250     49248     49251
     49252     49248     49251     49252     49248     49250     49252     49248     49249
     49254     49258     49259     49255     49254     49257     49255     49254     49256
     49256     49254     49257     49258     49254     49257     49258     49254     49256
     49258     49254     49255     49260     49264     49265     49261     49260     49263
     49261     49260     49262     49262     49260     49263     49264     49260     49263
     49264     49260     49262     49264     49260     49261     49266     49270     49271
     49267     49266     49269     49267     49266     49268     49268     49266     49269
     49270     49266     49269     49270     49266     49268     49270     49266     49267
     49272     49276     49277     49273     49272     49275     49273     49272     49274
     49274     49272     49275     49276     49272     49275     49276     49272     49274
     49276     49272     49273     49278     49282     49283     49279     49278     49281
     49279     49278     49280     49280     49278     49281     49282     49278     49281
     49282     49278     49280     49282     49278     49279     49284     49288     49289
     49285     49284     49287     49285     49284     49286     49286     49284     49287
     49288     49284     49287     49288     49284     49286     49288     49284     49285
     49290     49294     49295     49291     49290     49293     49291     49290     49292
     49292     49290     49293     49294     49290     49293     49294     49290     49292
     49294     49290     49291     49296     49300     49301     49297     49296     49299
     49297     49296     49298     49298     49296     49299     49300     49296     49299
     49300     49296     49298     49300     49296     49297     49302     49306     49307
     49303     49302     49305     49303     49302     49304     49304     49302     49305
     49306     49302     49305     49306     49302     49304     49306     49302     49303
     49308     49312     49313     49309     49308     49311     49309     49308     49310
     49310     49308     49311     49312     49308     49311     49312     49308     49310
     49312     49308     49309     49314     49318     49319     49315     49314     49317
     49315     49314     49316     49316     49314     49317     49318     49314     49317
     49318     49314     49316     49318     49314     49315     49320     49324     49325
     49321     49320     49323     49321     49320     49322     49322     49320     49323
     49324     49320     49323     49324     49320     49322     49324     49320     49321
     49326     49330     49331     49327     49326     49329     49327     49326     49328
     49328     49326     49329     49330     49326     49329     49330     49326     49328
     49330     49326     49327     49332     49336     49337     49333     49332     49335
     49333     49332     49334     49334     49332     49335     49336     49332     49335
     49336     49332     49334     49336     49332     49333     49338     49342     49343
     49339     49338     49341     49339     49338     49340     49340     49338     49341
     49342     49338     49341     49342     49338     49340     49342     49338     49339
     49344     49348     49349     49345     49344     49347     49345     49344     49346
     49346     49344     49347     49348     49344     49347     49348     49344     49346
     49348     49344     49345     49350     49354     49355     49351     49350     49353
     49351     49350     49352     49352     49350     49353     49354     49350     49353
     49354     49350     49352     49354     49350     49351     49356     49360     49361
     49357     49356     49359     49357     49356     49358     49358     49356     49359
     49360     49356     49359     49360     49356     49358     49360     49356     49357
     49362     49366     49367     49363     49362     49365     49363     49362     49364
     49364     49362     49365     49366     49362     49365     49366     49362     49364
     49366     49362     49363     49368     49372     49373     49369     49368     49371
     49369     49368     49370     49370     49368     49371     49372     49368     49371
     49372     49368     49370     49372     49368     49369     49374     49378     49379
     49375     49374     49377     49375     49374     49376     49376     49374     49377
     49378     49374     49377     49378     49374     49376     49378     49374     49375
     49380     49384     49385     49381     49380     49383     49381     49380     49382
     49382     49380     49383     49384     49380     49383     49384     49380     49382
     49384     49380     49381     49386     49390     49391     49387     49386     49389
     49387     49386     49388     49388     49386     49389     49390     49386     49389
     49390     49386     49388     49390     49386     49387     49392     49396     49397
     49393     49392     49395     49393     49392     49394     49394     49392     49395
     49396     49392     49395     49396     49392     49394     49396     49392     49393
     49398     49402     49403     49399     49398     49401     49399     49398     49400
     49400     49398     49401     49402     49398     49401     49402     49398     49400
     49402     49398     49399     49404     49408     49409     49405     49404     49407
     49405     49404     49406     49406     49404     49407     49408     49404     49407
     49408     49404     49406     49408     49404     49405     49410     49414     49415
     49411     49410     49413     49411     49410     49412     49412     49410     49413
     49414     49410     49413     49414     49410     49412     49414     49410     49411
     49416     49420     49421     49417     49416     49419     49417     49416     49418
     49418     49416     49419     49420     49416     49419     49420     49416     49418
     49420     49416     49417     49422     49426     49427     49423     49422     49425
     49423     49422     49424     49424     49422     49425     49426     49422     49425
     49426     49422     49424     49426     49422     49423     49428     49432     49433
     49429     49428     49431     49429     49428     49430     49430     49428     49431
     49432     49428     49431     49432     49428     49430     49432     49428     49429
     49434     49438     49439     49435     49434     49437     49435     49434     49436
     49436     49434     49437     49438     49434     49437     49438     49434     49436
     49438     49434     49435     49440     49444     49445     49441     49440     49443
     49441     49440     49442     49442     49440     49443     49444     49440     49443
     49444     49440     49442     49444     49440     49441     49446     49450     49451
     49447     49446     49449     49447     49446     49448     49448     49446     49449
     49450     49446     49449     49450     49446     49448     49450     49446     49447
     49452     49456     49457     49453     49452     49455     49453     49452     49454
     49454     49452     49455     49456     49452     49455     49456     49452     49454
     49456     49452     49453     49458     49462     49463     49459     49458     49461
     49459     49458     49460     49460     49458     49461     49462     49458     49461
     49462     49458     49460     49462     49458     49459     49464     49468     49469
     49465     49464     49467     49465     49464     49466     49466     49464     49467
     49468     49464     49467     49468     49464     49466     49468     49464     49465
     49470     49474     49475     49471     49470     49473     49471     49470     49472
     49472     49470     49473     49474     49470     49473     49474     49470     49472
     49474     49470     49471     49476     49480     49481     49477     49476     49479
     49477     49476     49478     49478     49476     49479     49480     49476     49479
     49480     49476     49478     49480     49476     49477     49482     49486     49487
     49483     49482     49485     49483     49482     49484     49484     49482     49485
     49486     49482     49485     49486     49482     49484     49486     49482     49483
     49488     49492     49493     49489     49488     49491     49489     49488     49490
     49490     49488     49491     49492     49488     49491     49492     49488     49490
     49492     49488     49489     49494     49498     49499     49495     49494     49497
     49495     49494     49496     49496     49494     49497     49498     49494     49497
     49498     49494     49496     49498     49494     49495     49500     49504     49505
     49501     49500     49503     49501     49500     49502     49502     49500     49503
     49504     49500     49503     49504     49500     49502     49504     49500     49501
     49506     49510     49511     49507     49506     49509     49507     49506     49508
     49508     49506     49509     49510     49506     49509     49510     49506     49508
     49510     49506     49507     49512     49516     49517     49513     49512     49515
     49513     49512     49514     49514     49512     49515     49516     49512     49515
     49516     49512     49514     49516     49512     49513     49518     49522     49523
     49519     49518     49521     49519     49518     49520     49520     49518     49521
     49522     49518     49521     49522     49518     49520     49522     49518     49519
     49524     49528     49529     49525     49524     49527     49525     49524     49526
     49526     49524     49527     49528     49524     49527     49528     49524     49526
     49528     49524     49525     49530     49534     49535     49531     49530     49533
     49531     49530     49532     49532     49530     49533     49534     49530     49533
     49534     49530     49532     49534     49530     49531     49536     49540     49541
     49537     49536     49539     49537     49536     49538     49538     49536     49539
     49540     49536     49539     49540     49536     49538     49540     49536     49537
     49542     49546     49547     49543     49542     49545     49543     49542     49544
     49544     49542     49545     49546     49542     49545     49546     49542     49544
     49546     49542     49543     49548     49552     49553     49549     49548     49551
     49549     49548     49550     49550     49548     49551     49552     49548     49551
     49552     49548     49550     49552     49548     49549     49554     49558     49559
     49555     49554     49557     49555     49554     49556     49556     49554     49557
     49558     49554     49557     49558     49554     49556     49558     49554     49555
     49560     49564     49565     49561     49560     49563     49561     49560     49562
     49562     49560     49563     49564     49560     49563     49564     49560     49562
     49564     49560     49561     49566     49570     49571     49567     49566     49569
     49567     49566     49568     49568     49566     49569     49570     49566     49569
     49570     49566     49568     49570     49566     49567     49572     49576     49577
     49573     49572     49575     49573     49572     49574     49574     49572     49575
     49576     49572     49575     49576     49572     49574     49576     49572     49573
     49578     49582     49583     49579     49578     49581     49579     49578     49580
     49580     49578     49581     49582     49578     49581     49582     49578     49580
     49582     49578     49579     49584     49588     49589     49585     49584     49587
     49585     49584     49586     49586     49584     49587     49588     49584     49587
     49588     49584     49586     49588     49584     49585     49590     49594     49595
     49591     49590     49593     49591     49590     49592     49592     49590     49593
     49594     49590     49593     49594     49590     49592     49594     49590     49591
     49596     49600     49601     49597     49596     49599     49597     49596     49598
     49598     49596     49599     49600     49596     49599     49600     49596     49598
     49600     49596     49597     49602     49606     49607     49603     49602     49605
     49603     49602     49604     49604     49602     49605     49606     49602     49605
     49606     49602     49604     49606     49602     49603     49608     49612     49613
     49609     49608     49611     49609     49608     49610     49610     49608     49611
     49612     49608     49611     49612     49608     49610     49612     49608     49609
     49614     49618     49619     49615     49614     49617     49615     49614     49616
     49616     49614     49617     49618     49614     49617     49618     49614     49616
     49618     49614     49615     49620     49624     49625     49621     49620     49623
     49621     49620     49622     49622     49620     49623     49624     49620     49623
     49624     49620     49622     49624     49620     49621     49626     49630     49631
     49627     49626     49629     49627     49626     49628     49628     49626     49629
     49630     49626     49629     49630     49626     49628     49630     49626     49627
     49632     49636     49637     49633     49632     49635     49633     49632     49634
     49634     49632     49635     49636     49632     49635     49636     49632     49634
     49636     49632     49633     49638     49642     49643     49639     49638     49641
     49639     49638     49640     49640     49638     49641     49642     49638     49641
     49642     49638     49640     49642     49638     49639     49644     49648     49649
     49645     49644     49647     49645     49644     49646     49646     49644     49647
     49648     49644     49647     49648     49644     49646     49648     49644     49645
     49650     49654     49655     49651     49650     49653     49651     49650     49652
     49652     49650     49653     49654     49650     49653     49654     49650     49652
     49654     49650     49651     49656     49660     49661     49657     49656     49659
     49657     49656     49658     49658     49656     49659     49660     49656     49659
     49660     49656     49658     49660     49656     49657     49662     49666     49667
     49663     49662     49665     49663     49662     49664     49664     49662     49665
     49666     49662     49665     49666     49662     49664     49666     49662     49663
     49668     49672     49673     49669     49668     49671     49669     49668     49670
     49670     49668     49671     49672     49668     49671     49672     49668     49670
     49672     49668     49669     49674     49678     49679     49675     49674     49677
     49675     49674     49676     49676     49674     49677     49678     49674     49677
     49678     49674     49676     49678     49674     49675     49680     49684     49685
     49681     49680     49683     49681     49680     49682     49682     49680     49683
     49684     49680     49683     49684     49680     49682     49684     49680     49681
     49686     49690     49691     49687     49686     49689     49687     49686     49688
     49688     49686     49689     49690     49686     49689     49690     49686     49688
     49690     49686     49687     49692     49696     49697     49693     49692     49695
     49693     49692     49694     49694     49692     49695     49696     49692     49695
     49696     49692     49694     49696     49692     49693     49698     49702     49703
     49699     49698     49701     49699     49698     49700     49700     49698     49701
     49702     49698     49701     49702     49698     49700     49702     49698     49699
     49704     49708     49709     49705     49704     49707     49705     49704     49706
     49706     49704     49707     49708     49704     49707     49708     49704     49706
     49708     49704     49705     49710     49714     49715     49711     49710     49713
     49711     49710     49712     49712     49710     49713     49714     49710     49713
     49714     49710     49712     49714     49710     49711     49716     49720     49721
     49717     49716     49719     49717     49716     49718     49718     49716     49719
     49720     49716     49719     49720     49716     49718     49720     49716     49717
     49722     49726     49727     49723     49722     49725     49723     49722     49724
     49724     49722     49725     49726     49722     49725     49726     49722     49724
     49726     49722     49723     49728     49732     49733     49729     49728     49731
     49729     49728     49730     49730     49728     49731     49732     49728     49731
     49732     49728     49730     49732     49728     49729     49734     49738     49739
     49735     49734     49737     49735     49734     49736     49736     49734     49737
     49738     49734     49737     49738     49734     49736     49738     49734     49735
     49740     49744     49745     49741     49740     49743     49741     49740     49742
     49742     49740     49743     49744     49740     49743     49744     49740     49742
     49744     49740     49741     49746     49750     49751     49747     49746     49749
     49747     49746     49748     49748     49746     49749     49750     49746     49749
     49750     49746     49748     49750     49746     49747     49752     49756     49757
     49753     49752     49755     49753     49752     49754     49754     49752     49755
     49756     49752     49755     49756     49752     49754     49756     49752     49753
     49758     49762     49763     49759     49758     49761     49759     49758     49760
     49760     49758     49761     49762     49758     49761     49762     49758     49760
     49762     49758     49759     49764     49768     49769     49765     49764     49767
     49765     49764     49766     49766     49764     49767     49768     49764     49767
     49768     49764     49766     49768     49764     49765     49770     49774     49775
     49771     49770     49773     49771     49770     49772     49772     49770     49773
     49774     49770     49773     49774     49770     49772     49774     49770     49771
     49776     49780     49781     49777     49776     49779     49777     49776     49778
     49778     49776     49779     49780     49776     49779     49780     49776     49778
     49780     49776     49777     49782     49786     49787     49783     49782     49785
     49783     49782     49784     49784     49782     49785     49786     49782     49785
     49786     49782     49784     49786     49782     49783     49788     49792     49793
     49789     49788     49791     49789     49788     49790     49790     49788     49791
     49792     49788     49791     49792     49788     49790     49792     49788     49789
     49794     49798     49799     49795     49794     49797     49795     49794     49796
     49796     49794     49797     49798     49794     49797     49798     49794     49796
     49798     49794     49795     49800     49804     49805     49801     49800     49803
     49801     49800     49802     49802     49800     49803     49804     49800     49803
     49804     49800     49802     49804     49800     49801     49806     49810     49811
     49807     49806     49809     49807     49806     49808     49808     49806     49809
     49810     49806     49809     49810     49806     49808     49810     49806     49807
     49812     49816     49817     49813     49812     49815     49813     49812     49814
     49814     49812     49815     49816     49812     49815     49816     49812     49814
     49816     49812     49813     49818     49822     49823     49819     49818     49821
     49819     49818     49820     49820     49818     49821     49822     49818     49821
     49822     49818     49820     49822     49818     49819     49824     49828     49829
     49825     49824     49827     49825     49824     49826     49826     49824     49827
     49828     49824     49827     49828     49824     49826     49828     49824     49825
     49830     49834     49835     49831     49830     49833     49831     49830     49832
     49832     49830     49833     49834     49830     49833     49834     49830     49832
     49834     49830     49831     49836     49840     49841     49837     49836     49839
     49837     49836     49838     49838     49836     49839     49840     49836     49839
     49840     49836     49838     49840     49836     49837     49842     49846     49847
     49843     49842     49845     49843     49842     49844     49844     49842     49845
     49846     49842     49845     49846     49842     49844     49846     49842     49843
     49848     49852     49853     49849     49848     49851     49849     49848     49850
     49850     49848     49851     49852     49848     49851     49852     49848     49850
     49852     49848     49849     49854     49858     49859     49855     49854     49857
     49855     49854     49856     49856     49854     49857     49858     49854     49857
     49858     49854     49856     49858     49854     49855     49860     49864     49865
     49861     49860     49863     49861     49860     49862     49862     49860     49863
     49864     49860     49863     49864     49860     49862     49864     49860     49861
     49866     49870     49871     49867     49866     49869     49867     49866     49868
     49868     49866     49869     49870     49866     49869     49870     49866     49868
     49870     49866     49867     49872     49876     49877     49873     49872     49875
     49873     49872     49874     49874     49872     49875     49876     49872     49875
     49876     49872     49874     49876     49872     49873     49878     49882     49883
     49879     49878     49881     49879     49878     49880     49880     49878     49881
     49882     49878     49881     49882     49878     49880     49882     49878     49879
     49884     49888     49889     49885     49884     49887     49885     49884     49886
     49886     49884     49887     49888     49884     49887     49888     49884     49886
     49888     49884     49885     49890     49894     49895     49891     49890     49893
     49891     49890     49892     49892     49890     49893     49894     49890     49893
     49894     49890     49892     49894     49890     49891     49896     49900     49901
     49897     49896     49899     49897     49896     49898     49898     49896     49899
     49900     49896     49899     49900     49896     49898     49900     49896     49897
     49902     49906     49907     49903     49902     49905     49903     49902     49904
     49904     49902     49905     49906     49902     49905     49906     49902     49904
     49906     49902     49903     49908     49912     49913     49909     49908     49911
     49909     49908     49910     49910     49908     49911     49912     49908     49911
     49912     49908     49910     49912     49908     49909     49914     49918     49919
     49915     49914     49917     49915     49914     49916     49916     49914     49917
     49918     49914     49917     49918     49914     49916     49918     49914     49915
     49920     49924     49925     49921     49920     49923     49921     49920     49922
     49922     49920     49923     49924     49920     49923     49924     49920     49922
     49924     49920     49921     49926     49930     49931     49927     49926     49929
     49927     49926     49928     49928     49926     49929     49930     49926     49929
     49930     49926     49928     49930     49926     49927     49932     49936     49937
     49933     49932     49935     49933     49932     49934     49934     49932     49935
     49936     49932     49935     49936     49932     49934     49936     49932     49933
     49938     49942     49943     49939     49938     49941     49939     49938     49940
     49940     49938     49941     49942     49938     49941     49942     49938     49940
     49942     49938     49939     49944     49948     49949     49945     49944     49947
     49945     49944     49946     49946     49944     49947     49948     49944     49947
     49948     49944     49946     49948     49944     49945     49950     49954     49955
     49951     49950     49953     49951     49950     49952     49952     49950     49953
     49954     49950     49953     49954     49950     49952     49954     49950     49951
     49956     49960     49961     49957     49956     49959     49957     49956     49958
     49958     49956     49959     49960     49956     49959     49960     49956     49958
     49960     49956     49957     49962     49966     49967     49963     49962     49965
     49963     49962     49964     49964     49962     49965     49966     49962     49965
     49966     49962     49964     49966     49962     49963     49968     49972     49973
     49969     49968     49971     49969     49968     49970     49970     49968     49971
     49972     49968     49971     49972     49968     49970     49972     49968     49969
     49974     49978     49979     49975     49974     49977     49975     49974     49976
     49976     49974     49977     49978     49974     49977     49978     49974     49976
     49978     49974     49975     49980     49984     49985     49981     49980     49983
     49981     49980     49982     49982     49980     49983     49984     49980     49983
     49984     49980     49982     49984     49980     49981     49986     49990     49991
     49987     49986     49989     49987     49986     49988     49988     49986     49989
     49990     49986     49989     49990     49986     49988     49990     49986     49987
     49992     49996     49997     49993     49992     49995     49993     49992     49994
     49994     49992     49995     49996     49992     49995     49996     49992     49994
     49996     49992     49993     49998     50002     50003     49999     49998     50001
     49999     49998     50000     50000     49998     50001     50002     49998     50001
     50002     49998     50000     50002     49998     49999     50004     50008     50009
     50005     50004     50007     50005     50004     50006     50006     50004     50007
     50008     50004     50007     50008     50004     50006     50008     50004     50005
     50010     50014     50015     50011     50010     50013     50011     50010     50012
     50012     50010     50013     50014     50010     50013     50014     50010     50012
     50014     50010     50011     50016     50020     50021     50017     50016     50019
     50017     50016     50018     50018     50016     50019     50020     50016     50019
     50020     50016     50018     50020     50016     50017     50022     50026     50027
     50023     50022     50025     50023     50022     50024     50024     50022     50025
     50026     50022     50025     50026     50022     50024     50026     50022     50023
     50028     50032     50033     50029     50028     50031     50029     50028     50030
     50030     50028     50031     50032     50028     50031     50032     50028     50030
     50032     50028     50029     50034     50038     50039     50035     50034     50037
     50035     50034     50036     50036     50034     50037     50038     50034     50037
     50038     50034     50036     50038     50034     50035     50040     50044     50045
     50041     50040     50043     50041     50040     50042     50042     50040     50043
     50044     50040     50043     50044     50040     50042     50044     50040     50041
     50046     50050     50051     50047     50046     50049     50047     50046     50048
     50048     50046     50049     50050     50046     50049     50050     50046     50048
     50050     50046     50047     50052     50056     50057     50053     50052     50055
     50053     50052     50054     50054     50052     50055     50056     50052     50055
     50056     50052     50054     50056     50052     50053     50058     50062     50063
     50059     50058     50061     50059     50058     50060     50060     50058     50061
     50062     50058     50061     50062     50058     50060     50062     50058     50059
     50064     50068     50069     50065     50064     50067     50065     50064     50066
     50066     50064     50067     50068     50064     50067     50068     50064     50066
     50068     50064     50065     50070     50074     50075     50071     50070     50073
     50071     50070     50072     50072     50070     50073     50074     50070     50073
     50074     50070     50072     50074     50070     50071     50076     50080     50081
     50077     50076     50079     50077     50076     50078     50078     50076     50079
     50080     50076     50079     50080     50076     50078     50080     50076     50077
     50082     50086     50087     50083     50082     50085     50083     50082     50084
     50084     50082     50085     50086     50082     50085     50086     50082     50084
     50086     50082     50083     50088     50092     50093     50089     50088     50091
     50089     50088     50090     50090     50088     50091     50092     50088     50091
     50092     50088     50090     50092     50088     50089     50094     50098     50099
     50095     50094     50097     50095     50094     50096     50096     50094     50097
     50098     50094     50097     50098     50094     50096     50098     50094     50095
     50100     50104     50105     50101     50100     50103     50101     50100     50102
     50102     50100     50103     50104     50100     50103     50104     50100     50102
     50104     50100     50101     50106     50110     50111     50107     50106     50109
     50107     50106     50108     50108     50106     50109     50110     50106     50109
     50110     50106     50108     50110     50106     50107     50112     50116     50117
     50113     50112     50115     50113     50112     50114     50114     50112     50115
     50116     50112     50115     50116     50112     50114     50116     50112     50113
     50118     50122     50123     50119     50118     50121     50119     50118     50120
     50120     50118     50121     50122     50118     50121     50122     50118     50120
     50122     50118     50119     50124     50128     50129     50125     50124     50127
     50125     50124     50126     50126     50124     50127     50128     50124     50127
     50128     50124     50126     50128     50124     50125     50130     50134     50135
     50131     50130     50133     50131     50130     50132     50132     50130     50133
     50134     50130     50133     50134     50130     50132     50134     50130     50131
     50136     50140     50141     50137     50136     50139     50137     50136     50138
     50138     50136     50139     50140     50136     50139     50140     50136     50138
     50140     50136     50137     50142     50146     50147     50143     50142     50145
     50143     50142     50144     50144     50142     50145     50146     50142     50145
     50146     50142     50144     50146     50142     50143     50148     50152     50153
     50149     50148     50151     50149     50148     50150     50150     50148     50151
     50152     50148     50151     50152     50148     50150     50152     50148     50149
     50154     50158     50159     50155     50154     50157     50155     50154     50156
     50156     50154     50157     50158     50154     50157     50158     50154     50156
     50158     50154     50155     50160     50164     50165     50161     50160     50163
     50161     50160     50162     50162     50160     50163     50164     50160     50163
     50164     50160     50162     50164     50160     50161     50166     50170     50171
     50167     50166     50169     50167     50166     50168     50168     50166     50169
     50170     50166     50169     50170     50166     50168     50170     50166     50167
     50172     50176     50177     50173     50172     50175     50173     50172     50174
     50174     50172     50175     50176     50172     50175     50176     50172     50174
     50176     50172     50173     50178     50182     50183     50179     50178     50181
     50179     50178     50180     50180     50178     50181     50182     50178     50181
     50182     50178     50180     50182     50178     50179     50184     50188     50189
     50185     50184     50187     50185     50184     50186     50186     50184     50187
     50188     50184     50187     50188     50184     50186     50188     50184     50185
     50190     50194     50195     50191     50190     50193     50191     50190     50192
     50192     50190     50193     50194     50190     50193     50194     50190     50192
     50194     50190     50191     50196     50200     50201     50197     50196     50199
     50197     50196     50198     50198     50196     50199     50200     50196     50199
     50200     50196     50198     50200     50196     50197     50202     50206     50207
     50203     50202     50205     50203     50202     50204     50204     50202     50205
     50206     50202     50205     50206     50202     50204     50206     50202     50203
     50208     50212     50213     50209     50208     50211     50209     50208     50210
     50210     50208     50211     50212     50208     50211     50212     50208     50210
     50212     50208     50209     50214     50218     50219     50215     50214     50217
     50215     50214     50216     50216     50214     50217     50218     50214     50217
     50218     50214     50216     50218     50214     50215     50220     50224     50225
     50221     50220     50223     50221     50220     50222     50222     50220     50223
     50224     50220     50223     50224     50220     50222     50224     50220     50221
     50226     50230     50231     50227     50226     50229     50227     50226     50228
     50228     50226     50229     50230     50226     50229     50230     50226     50228
     50230     50226     50227     50232     50236     50237     50233     50232     50235
     50233     50232     50234     50234     50232     50235     50236     50232     50235
     50236     50232     50234     50236     50232     50233     50238     50242     50243
     50239     50238     50241     50239     50238     50240     50240     50238     50241
     50242     50238     50241     50242     50238     50240     50242     50238     50239
     50244     50248     50249     50245     50244     50247     50245     50244     50246
     50246     50244     50247     50248     50244     50247     50248     50244     50246
     50248     50244     50245     50250     50254     50255     50251     50250     50253
     50251     50250     50252     50252     50250     50253     50254     50250     50253
     50254     50250     50252     50254     50250     50251     50256     50260     50261
     50257     50256     50259     50257     50256     50258     50258     50256     50259
     50260     50256     50259     50260     50256     50258     50260     50256     50257
     50262     50266     50267     50263     50262     50265     50263     50262     50264
     50264     50262     50265     50266     50262     50265     50266     50262     50264
     50266     50262     50263     50268     50272     50273     50269     50268     50271
     50269     50268     50270     50270     50268     50271     50272     50268     50271
     50272     50268     50270     50272     50268     50269     50274     50278     50279
     50275     50274     50277     50275     50274     50276     50276     50274     50277
     50278     50274     50277     50278     50274     50276     50278     50274     50275
     50280     50284     50285     50281     50280     50283     50281     50280     50282
     50282     50280     50283     50284     50280     50283     50284     50280     50282
     50284     50280     50281     50286     50290     50291     50287     50286     50289
     50287     50286     50288     50288     50286     50289     50290     50286     50289
     50290     50286     50288     50290     50286     50287     50292     50296     50297
     50293     50292     50295     50293     50292     50294     50294     50292     50295
     50296     50292     50295     50296     50292     50294     50296     50292     50293
     50298     50302     50303     50299     50298     50301     50299     50298     50300
     50300     50298     50301     50302     50298     50301     50302     50298     50300
     50302     50298     50299     50304     50308     50309     50305     50304     50307
     50305     50304     50306     50306     50304     50307     50308     50304     50307
     50308     50304     50306     50308     50304     50305     50310     50314     50315
     50311     50310     50313     50311     50310     50312     50312     50310     50313
     50314     50310     50313     50314     50310     50312     50314     50310     50311
     50316     50320     50321     50317     50316     50319     50317     50316     50318
     50318     50316     50319     50320     50316     50319     50320     50316     50318
     50320     50316     50317     50322     50326     50327     50323     50322     50325
     50323     50322     50324     50324     50322     50325     50326     50322     50325
     50326     50322     50324     50326     50322     50323     50328     50332     50333
     50329     50328     50331     50329     50328     50330     50330     50328     50331
     50332     50328     50331     50332     50328     50330     50332     50328     50329
     50334     50338     50339     50335     50334     50337     50335     50334     50336
     50336     50334     50337     50338     50334     50337     50338     50334     50336
     50338     50334     50335     50340     50344     50345     50341     50340     50343
     50341     50340     50342     50342     50340     50343     50344     50340     50343
     50344     50340     50342     50344     50340     50341     50346     50350     50351
     50347     50346     50349     50347     50346     50348     50348     50346     50349
     50350     50346     50349     50350     50346     50348     50350     50346     50347
     50352     50356     50357     50353     50352     50355     50353     50352     50354
     50354     50352     50355     50356     50352     50355     50356     50352     50354
     50356     50352     50353     50358     50362     50363     50359     50358     50361
     50359     50358     50360     50360     50358     50361     50362     50358     50361
     50362     50358     50360     50362     50358     50359     50364     50368     50369
     50365     50364     50367     50365     50364     50366     50366     50364     50367
     50368     50364     50367     50368     50364     50366     50368     50364     50365
     50370     50374     50375     50371     50370     50373     50371     50370     50372
     50372     50370     50373     50374     50370     50373     50374     50370     50372
     50374     50370     50371     50376     50380     50381     50377     50376     50379
     50377     50376     50378     50378     50376     50379     50380     50376     50379
     50380     50376     50378     50380     50376     50377     50382     50386     50387
     50383     50382     50385     50383     50382     50384     50384     50382     50385
     50386     50382     50385     50386     50382     50384     50386     50382     50383
     50388     50392     50393     50389     50388     50391     50389     50388     50390
     50390     50388     50391     50392     50388     50391     50392     50388     50390
     50392     50388     50389     50394     50398     50399     50395     50394     50397
     50395     50394     50396     50396     50394     50397     50398     50394     50397
     50398     50394     50396     50398     50394     50395     50400     50404     50405
     50401     50400     50403     50401     50400     50402     50402     50400     50403
     50404     50400     50403     50404     50400     50402     50404     50400     50401
     50406     50410     50411     50407     50406     50409     50407     50406     50408
     50408     50406     50409     50410     50406     50409     50410     50406     50408
     50410     50406     50407     50412     50416     50417     50413     50412     50415
     50413     50412     50414     50414     50412     50415     50416     50412     50415
     50416     50412     50414     50416     50412     50413     50418     50422     50423
     50419     50418     50421     50419     50418     50420     50420     50418     50421
     50422     50418     50421     50422     50418     50420     50422     50418     50419
     50424     50428     50429     50425     50424     50427     50425     50424     50426
     50426     50424     50427     50428     50424     50427     50428     50424     50426
     50428     50424     50425     50430     50434     50435     50431     50430     50433
     50431     50430     50432     50432     50430     50433     50434     50430     50433
     50434     50430     50432     50434     50430     50431     50436     50440     50441
     50437     50436     50439     50437     50436     50438     50438     50436     50439
     50440     50436     50439     50440     50436     50438     50440     50436     50437
     50442     50446     50447     50443     50442     50445     50443     50442     50444
     50444     50442     50445     50446     50442     50445     50446     50442     50444
     50446     50442     50443     50448     50452     50453     50449     50448     50451
     50449     50448     50450     50450     50448     50451     50452     50448     50451
     50452     50448     50450     50452     50448     50449     50454     50458     50459
     50455     50454     50457     50455     50454     50456     50456     50454     50457
     50458     50454     50457     50458     50454     50456     50458     50454     50455
     50460     50464     50465     50461     50460     50463     50461     50460     50462
     50462     50460     50463     50464     50460     50463     50464     50460     50462
     50464     50460     50461     50466     50470     50471     50467     50466     50469
     50467     50466     50468     50468     50466     50469     50470     50466     50469
     50470     50466     50468     50470     50466     50467     50472     50476     50477
     50473     50472     50475     50473     50472     50474     50474     50472     50475
     50476     50472     50475     50476     50472     50474     50476     50472     50473
     50478     50482     50483     50479     50478     50481     50479     50478     50480
     50480     50478     50481     50482     50478     50481     50482     50478     50480
     50482     50478     50479     50484     50488     50489     50485     50484     50487
     50485     50484     50486     50486     50484     50487     50488     50484     50487
     50488     50484     50486     50488     50484     50485     50490     50494     50495
     50491     50490     50493     50491     50490     50492     50492     50490     50493
     50494     50490     50493     50494     50490     50492     50494     50490     50491
     50496     50500     50501     50497     50496     50499     50497     50496     50498
     50498     50496     50499     50500     50496     50499     50500     50496     50498
     50500     50496     50497     50502     50506     50507     50503     50502     50505
     50503     50502     50504     50504     50502     50505     50506     50502     50505
     50506     50502     50504     50506     50502     50503     50508     50512     50513
     50509     50508     50511     50509     50508     50510     50510     50508     50511
     50512     50508     50511     50512     50508     50510     50512     50508     50509
     50514     50518     50519     50515     50514     50517     50515     50514     50516
     50516     50514     50517     50518     50514     50517     50518     50514     50516
     50518     50514     50515     50520     50524     50525     50521     50520     50523
     50521     50520     50522     50522     50520     50523     50524     50520     50523
     50524     50520     50522     50524     50520     50521     50526     50530     50531
     50527     50526     50529     50527     50526     50528     50528     50526     50529
     50530     50526     50529     50530     50526     50528     50530     50526     50527
     50532     50536     50537     50533     50532     50535     50533     50532     50534
     50534     50532     50535     50536     50532     50535     50536     50532     50534
     50536     50532     50533     50538     50542     50543     50539     50538     50541
     50539     50538     50540     50540     50538     50541     50542     50538     50541
     50542     50538     50540     50542     50538     50539     50544     50548     50549
     50545     50544     50547     50545     50544     50546     50546     50544     50547
     50548     50544     50547     50548     50544     50546     50548     50544     50545
     50550     50554     50555     50551     50550     50553     50551     50550     50552
     50552     50550     50553     50554     50550     50553     50554     50550     50552
     50554     50550     50551     50556     50560     50561     50557     50556     50559
     50557     50556     50558     50558     50556     50559     50560     50556     50559
     50560     50556     50558     50560     50556     50557     50562     50566     50567
     50563     50562     50565     50563     50562     50564     50564     50562     50565
     50566     50562     50565     50566     50562     50564     50566     50562     50563
     50568     50572     50573     50569     50568     50571     50569     50568     50570
     50570     50568     50571     50572     50568     50571     50572     50568     50570
     50572     50568     50569     50574     50578     50579     50575     50574     50577
     50575     50574     50576     50576     50574     50577     50578     50574     50577
     50578     50574     50576     50578     50574     50575     50580     50584     50585
     50581     50580     50583     50581     50580     50582     50582     50580     50583
     50584     50580     50583     50584     50580     50582     50584     50580     50581
     50586     50590     50591     50587     50586     50589     50587     50586     50588
     50588     50586     50589     50590     50586     50589     50590     50586     50588
     50590     50586     50587     50592     50596     50597     50593     50592     50595
     50593     50592     50594     50594     50592     50595     50596     50592     50595
     50596     50592     50594     50596     50592     50593     50598     50602     50603
     50599     50598     50601     50599     50598     50600     50600     50598     50601
     50602     50598     50601     50602     50598     50600     50602     50598     50599
     50604     50608     50609     50605     50604     50607     50605     50604     50606
     50606     50604     50607     50608     50604     50607     50608     50604     50606
     50608     50604     50605     50610     50614     50615     50611     50610     50613
     50611     50610     50612     50612     50610     50613     50614     50610     50613
     50614     50610     50612     50614     50610     50611     50616     50620     50621
     50617     50616     50619     50617     50616     50618     50618     50616     50619
     50620     50616     50619     50620     50616     50618     50620     50616     50617
     50622     50626     50627     50623     50622     50625     50623     50622     50624
     50624     50622     50625     50626     50622     50625     50626     50622     50624
     50626     50622     50623     50628     50632     50633     50629     50628     50631
     50629     50628     50630     50630     50628     50631     50632     50628     50631
     50632     50628     50630     50632     50628     50629     50634     50638     50639
     50635     50634     50637     50635     50634     50636     50636     50634     50637
     50638     50634     50637     50638     50634     50636     50638     50634     50635
     50640     50644     50645     50641     50640     50643     50641     50640     50642
     50642     50640     50643     50644     50640     50643     50644     50640     50642
     50644     50640     50641     50646     50650     50651     50647     50646     50649
     50647     50646     50648     50648     50646     50649     50650     50646     50649
     50650     50646     50648     50650     50646     50647     50652     50656     50657
     50653     50652     50655     50653     50652     50654     50654     50652     50655
     50656     50652     50655     50656     50652     50654     50656     50652     50653
     50658     50662     50663     50659     50658     50661     50659     50658     50660
     50660     50658     50661     50662     50658     50661     50662     50658     50660
     50662     50658     50659     50664     50668     50669     50665     50664     50667
     50665     50664     50666     50666     50664     50667     50668     50664     50667
     50668     50664     50666     50668     50664     50665     50670     50674     50675
     50671     50670     50673     50671     50670     50672     50672     50670     50673
     50674     50670     50673     50674     50670     50672     50674     50670     50671
     50676     50680     50681     50677     50676     50679     50677     50676     50678
     50678     50676     50679     50680     50676     50679     50680     50676     50678
     50680     50676     50677     50682     50686     50687     50683     50682     50685
     50683     50682     50684     50684     50682     50685     50686     50682     50685
     50686     50682     50684     50686     50682     50683     50688     50692     50693
     50689     50688     50691     50689     50688     50690     50690     50688     50691
     50692     50688     50691     50692     50688     50690     50692     50688     50689
     50694     50698     50699     50695     50694     50697     50695     50694     50696
     50696     50694     50697     50698     50694     50697     50698     50694     50696
     50698     50694     50695     50700     50704     50705     50701     50700     50703
     50701     50700     50702     50702     50700     50703     50704     50700     50703
     50704     50700     50702     50704     50700     50701     50706     50710     50711
     50707     50706     50709     50707     50706     50708     50708     50706     50709
     50710     50706     50709     50710     50706     50708     50710     50706     50707
     50712     50716     50717     50713     50712     50715     50713     50712     50714
     50714     50712     50715     50716     50712     50715     50716     50712     50714
     50716     50712     50713     50718     50722     50723     50719     50718     50721
     50719     50718     50720     50720     50718     50721     50722     50718     50721
     50722     50718     50720     50722     50718     50719     50724     50728     50729
     50725     50724     50727     50725     50724     50726     50726     50724     50727
     50728     50724     50727     50728     50724     50726     50728     50724     50725
     50730     50734     50735     50731     50730     50733     50731     50730     50732
     50732     50730     50733     50734     50730     50733     50734     50730     50732
     50734     50730     50731     50736     50740     50741     50737     50736     50739
     50737     50736     50738     50738     50736     50739     50740     50736     50739
     50740     50736     50738     50740     50736     50737     50742     50746     50747
     50743     50742     50745     50743     50742     50744     50744     50742     50745
     50746     50742     50745     50746     50742     50744     50746     50742     50743
     50748     50752     50753     50749     50748     50751     50749     50748     50750
     50750     50748     50751     50752     50748     50751     50752     50748     50750
     50752     50748     50749     50754     50758     50759     50755     50754     50757
     50755     50754     50756     50756     50754     50757     50758     50754     50757
     50758     50754     50756     50758     50754     50755     50760     50764     50765
     50761     50760     50763     50761     50760     50762     50762     50760     50763
     50764     50760     50763     50764     50760     50762     50764     50760     50761
     50766     50770     50771     50767     50766     50769     50767     50766     50768
     50768     50766     50769     50770     50766     50769     50770     50766     50768
     50770     50766     50767     50772     50776     50777     50773     50772     50775
     50773     50772     50774     50774     50772     50775     50776     50772     50775
     50776     50772     50774     50776     50772     50773     50778     50782     50783
     50779     50778     50781     50779     50778     50780     50780     50778     50781
     50782     50778     50781     50782     50778     50780     50782     50778     50779
     50784     50788     50789     50785     50784     50787     50785     50784     50786
     50786     50784     50787     50788     50784     50787     50788     50784     50786
     50788     50784     50785     50790     50794     50795     50791     50790     50793
     50791     50790     50792     50792     50790     50793     50794     50790     50793
     50794     50790     50792     50794     50790     50791     50796     50800     50801
     50797     50796     50799     50797     50796     50798     50798     50796     50799
     50800     50796     50799     50800     50796     50798     50800     50796     50797
     50802     50806     50807     50803     50802     50805     50803     50802     50804
     50804     50802     50805     50806     50802     50805     50806     50802     50804
     50806     50802     50803     50808     50812     50813     50809     50808     50811
     50809     50808     50810     50810     50808     50811     50812     50808     50811
     50812     50808     50810     50812     50808     50809     50814     50818     50819
     50815     50814     50817     50815     50814     50816     50816     50814     50817
     50818     50814     50817     50818     50814     50816     50818     50814     50815
     50820     50824     50825     50821     50820     50823     50821     50820     50822
     50822     50820     50823     50824     50820     50823     50824     50820     50822
     50824     50820     50821     50826     50830     50831     50827     50826     50829
     50827     50826     50828     50828     50826     50829     50830     50826     50829
     50830     50826     50828     50830     50826     50827     50832     50836     50837
     50833     50832     50835     50833     50832     50834     50834     50832     50835
     50836     50832     50835     50836     50832     50834     50836     50832     50833
     50838     50842     50843     50839     50838     50841     50839     50838     50840
     50840     50838     50841     50842     50838     50841     50842     50838     50840
     50842     50838     50839     50844     50848     50849     50845     50844     50847
     50845     50844     50846     50846     50844     50847     50848     50844     50847
     50848     50844     50846     50848     50844     50845     50850     50854     50855
     50851     50850     50853     50851     50850     50852     50852     50850     50853
     50854     50850     50853     50854     50850     50852     50854     50850     50851
     50856     50860     50861     50857     50856     50859     50857     50856     50858
     50858     50856     50859     50860     50856     50859     50860     50856     50858
     50860     50856     50857     50862     50866     50867     50863     50862     50865
     50863     50862     50864     50864     50862     50865     50866     50862     50865
     50866     50862     50864     50866     50862     50863     50868     50872     50873
     50869     50868     50871     50869     50868     50870     50870     50868     50871
     50872     50868     50871     50872     50868     50870     50872     50868     50869
     50874     50878     50879     50875     50874     50877     50875     50874     50876
     50876     50874     50877     50878     50874     50877     50878     50874     50876
     50878     50874     50875     50880     50884     50885     50881     50880     50883
     50881     50880     50882     50882     50880     50883     50884     50880     50883
     50884     50880     50882     50884     50880     50881     50886     50890     50891
     50887     50886     50889     50887     50886     50888     50888     50886     50889
     50890     50886     50889     50890     50886     50888     50890     50886     50887
     50892     50896     50897     50893     50892     50895     50893     50892     50894
     50894     50892     50895     50896     50892     50895     50896     50892     50894
     50896     50892     50893     50898     50902     50903     50899     50898     50901
     50899     50898     50900     50900     50898     50901     50902     50898     50901
     50902     50898     50900     50902     50898     50899     50904     50908     50909
     50905     50904     50907     50905     50904     50906     50906     50904     50907
     50908     50904     50907     50908     50904     50906     50908     50904     50905
     50910     50914     50915     50911     50910     50913     50911     50910     50912
     50912     50910     50913     50914     50910     50913     50914     50910     50912
     50914     50910     50911     50916     50920     50921     50917     50916     50919
     50917     50916     50918     50918     50916     50919     50920     50916     50919
     50920     50916     50918     50920     50916     50917     50922     50926     50927
     50923     50922     50925     50923     50922     50924     50924     50922     50925
     50926     50922     50925     50926     50922     50924     50926     50922     50923
     50928     50932     50933     50929     50928     50931     50929     50928     50930
     50930     50928     50931     50932     50928     50931     50932     50928     50930
     50932     50928     50929     50934     50938     50939     50935     50934     50937
     50935     50934     50936     50936     50934     50937     50938     50934     50937
     50938     50934     50936     50938     50934     50935     50940     50944     50945
     50941     50940     50943     50941     50940     50942     50942     50940     50943
     50944     50940     50943     50944     50940     50942     50944     50940     50941
     50946     50950     50951     50947     50946     50949     50947     50946     50948
     50948     50946     50949     50950     50946     50949     50950     50946     50948
     50950     50946     50947     50952     50956     50957     50953     50952     50955
     50953     50952     50954     50954     50952     50955     50956     50952     50955
     50956     50952     50954     50956     50952     50953     50958     50962     50963
     50959     50958     50961     50959     50958     50960     50960     50958     50961
     50962     50958     50961     50962     50958     50960     50962     50958     50959
     50964     50968     50969     50965     50964     50967     50965     50964     50966
     50966     50964     50967     50968     50964     50967     50968     50964     50966
     50968     50964     50965     50970     50974     50975     50971     50970     50973
     50971     50970     50972     50972     50970     50973     50974     50970     50973
     50974     50970     50972     50974     50970     50971     50976     50980     50981
     50977     50976     50979     50977     50976     50978     50978     50976     50979
     50980     50976     50979     50980     50976     50978     50980     50976     50977
     50982     50986     50987     50983     50982     50985     50983     50982     50984
     50984     50982     50985     50986     50982     50985     50986     50982     50984
     50986     50982     50983     50988     50992     50993     50989     50988     50991
     50989     50988     50990     50990     50988     50991     50992     50988     50991
     50992     50988     50990     50992     50988     50989     50994     50998     50999
     50995     50994     50997     50995     50994     50996     50996     50994     50997
     50998     50994     50997     50998     50994     50996     50998     50994     50995
     51000     51004     51005     51001     51000     51003     51001     51000     51002
     51002     51000     51003     51004     51000     51003     51004     51000     51002
     51004     51000     51001     51006     51010     51011     51007     51006     51009
     51007     51006     51008     51008     51006     51009     51010     51006     51009
     51010     51006     51008     51010     51006     51007     51012     51016     51017
     51013     51012     51015     51013     51012     51014     51014     51012     51015
     51016     51012     51015     51016     51012     51014     51016     51012     51013
     51018     51022     51023     51019     51018     51021     51019     51018     51020
     51020     51018     51021     51022     51018     51021     51022     51018     51020
     51022     51018     51019     51024     51028     51029     51025     51024     51027
     51025     51024     51026     51026     51024     51027     51028     51024     51027
     51028     51024     51026     51028     51024     51025     51030     51034     51035
     51031     51030     51033     51031     51030     51032     51032     51030     51033
     51034     51030     51033     51034     51030     51032     51034     51030     51031
     51036     51040     51041     51037     51036     51039     51037     51036     51038
     51038     51036     51039     51040     51036     51039     51040     51036     51038
     51040     51036     51037     51042     51046     51047     51043     51042     51045
     51043     51042     51044     51044     51042     51045     51046     51042     51045
     51046     51042     51044     51046     51042     51043     51048     51052     51053
     51049     51048     51051     51049     51048     51050     51050     51048     51051
     51052     51048     51051     51052     51048     51050     51052     51048     51049
     51054     51058     51059     51055     51054     51057     51055     51054     51056
     51056     51054     51057     51058     51054     51057     51058     51054     51056
     51058     51054     51055     51060     51064     51065     51061     51060     51063
     51061     51060     51062     51062     51060     51063     51064     51060     51063
     51064     51060     51062     51064     51060     51061     51066     51070     51071
     51067     51066     51069     51067     51066     51068     51068     51066     51069
     51070     51066     51069     51070     51066     51068     51070     51066     51067
     51072     51076     51077     51073     51072     51075     51073     51072     51074
     51074     51072     51075     51076     51072     51075     51076     51072     51074
     51076     51072     51073     51078     51082     51083     51079     51078     51081
     51079     51078     51080     51080     51078     51081     51082     51078     51081
     51082     51078     51080     51082     51078     51079     51084     51088     51089
     51085     51084     51087     51085     51084     51086     51086     51084     51087
     51088     51084     51087     51088     51084     51086     51088     51084     51085
     51090     51094     51095     51091     51090     51093     51091     51090     51092
     51092     51090     51093     51094     51090     51093     51094     51090     51092
     51094     51090     51091     51096     51100     51101     51097     51096     51099
     51097     51096     51098     51098     51096     51099     51100     51096     51099
     51100     51096     51098     51100     51096     51097     51102     51106     51107
     51103     51102     51105     51103     51102     51104     51104     51102     51105
     51106     51102     51105     51106     51102     51104     51106     51102     51103
     51108     51112     51113     51109     51108     51111     51109     51108     51110
     51110     51108     51111     51112     51108     51111     51112     51108     51110
     51112     51108     51109     51114     51118     51119     51115     51114     51117
     51115     51114     51116     51116     51114     51117     51118     51114     51117
     51118     51114     51116     51118     51114     51115     51120     51124     51125
     51121     51120     51123     51121     51120     51122     51122     51120     51123
     51124     51120     51123     51124     51120     51122     51124     51120     51121
     51126     51130     51131     51127     51126     51129     51127     51126     51128
     51128     51126     51129     51130     51126     51129     51130     51126     51128
     51130     51126     51127     51132     51136     51137     51133     51132     51135
     51133     51132     51134     51134     51132     51135     51136     51132     51135
     51136     51132     51134     51136     51132     51133     51138     51142     51143
     51139     51138     51141     51139     51138     51140     51140     51138     51141
     51142     51138     51141     51142     51138     51140     51142     51138     51139
     51144     51148     51149     51145     51144     51147     51145     51144     51146
     51146     51144     51147     51148     51144     51147     51148     51144     51146
     51148     51144     51145     51150     51154     51155     51151     51150     51153
     51151     51150     51152     51152     51150     51153     51154     51150     51153
     51154     51150     51152     51154     51150     51151     51156     51160     51161
     51157     51156     51159     51157     51156     51158     51158     51156     51159
     51160     51156     51159     51160     51156     51158     51160     51156     51157
     51162     51166     51167     51163     51162     51165     51163     51162     51164
     51164     51162     51165     51166     51162     51165     51166     51162     51164
     51166     51162     51163     51168     51172     51173     51169     51168     51171
     51169     51168     51170     51170     51168     51171     51172     51168     51171
     51172     51168     51170     51172     51168     51169     51174     51178     51179
     51175     51174     51177     51175     51174     51176     51176     51174     51177
     51178     51174     51177     51178     51174     51176     51178     51174     51175
     51180     51184     51185     51181     51180     51183     51181     51180     51182
     51182     51180     51183     51184     51180     51183     51184     51180     51182
     51184     51180     51181     51186     51190     51191     51187     51186     51189
     51187     51186     51188     51188     51186     51189     51190     51186     51189
     51190     51186     51188     51190     51186     51187     51192     51196     51197
     51193     51192     51195     51193     51192     51194     51194     51192     51195
     51196     51192     51195     51196     51192     51194     51196     51192     51193
     51198     51202     51203     51199     51198     51201     51199     51198     51200
     51200     51198     51201     51202     51198     51201     51202     51198     51200
     51202     51198     51199     51204     51208     51209     51205     51204     51207
     51205     51204     51206     51206     51204     51207     51208     51204     51207
     51208     51204     51206     51208     51204     51205     51210     51214     51215
     51211     51210     51213     51211     51210     51212     51212     51210     51213
     51214     51210     51213     51214     51210     51212     51214     51210     51211
     51216     51220     51221     51217     51216     51219     51217     51216     51218
     51218     51216     51219     51220     51216     51219     51220     51216     51218
     51220     51216     51217     51222     51226     51227     51223     51222     51225
     51223     51222     51224     51224     51222     51225     51226     51222     51225
     51226     51222     51224     51226     51222     51223     51228     51232     51233
     51229     51228     51231     51229     51228     51230     51230     51228     51231
     51232     51228     51231     51232     51228     51230     51232     51228     51229
     51234     51238     51239     51235     51234     51237     51235     51234     51236
     51236     51234     51237     51238     51234     51237     51238     51234     51236
     51238     51234     51235     51240     51244     51245     51241     51240     51243
     51241     51240     51242     51242     51240     51243     51244     51240     51243
     51244     51240     51242     51244     51240     51241     51246     51250     51251
     51247     51246     51249     51247     51246     51248     51248     51246     51249
     51250     51246     51249     51250     51246     51248     51250     51246     51247
     51252     51256     51257     51253     51252     51255     51253     51252     51254
     51254     51252     51255     51256     51252     51255     51256     51252     51254
     51256     51252     51253     51258     51262     51263     51259     51258     51261
     51259     51258     51260     51260     51258     51261     51262     51258     51261
     51262     51258     51260     51262     51258     51259     51264     51268     51269
     51265     51264     51267     51265     51264     51266     51266     51264     51267
     51268     51264     51267     51268     51264     51266     51268     51264     51265
     51270     51274     51275     51271     51270     51273     51271     51270     51272
     51272     51270     51273     51274     51270     51273     51274     51270     51272
     51274     51270     51271     51276     51280     51281     51277     51276     51279
     51277     51276     51278     51278     51276     51279     51280     51276     51279
     51280     51276     51278     51280     51276     51277     51282     51286     51287
     51283     51282     51285     51283     51282     51284     51284     51282     51285
     51286     51282     51285     51286     51282     51284     51286     51282     51283
     51288     51292     51293     51289     51288     51291     51289     51288     51290
     51290     51288     51291     51292     51288     51291     51292     51288     51290
     51292     51288     51289     51294     51298     51299     51295     51294     51297
     51295     51294     51296     51296     51294     51297     51298     51294     51297
     51298     51294     51296     51298     51294     51295     51300     51304     51305
     51301     51300     51303     51301     51300     51302     51302     51300     51303
     51304     51300     51303     51304     51300     51302     51304     51300     51301
     51306     51310     51311     51307     51306     51309     51307     51306     51308
     51308     51306     51309     51310     51306     51309     51310     51306     51308
     51310     51306     51307     51312     51316     51317     51313     51312     51315
     51313     51312     51314     51314     51312     51315     51316     51312     51315
     51316     51312     51314     51316     51312     51313     51318     51322     51323
     51319     51318     51321     51319     51318     51320     51320     51318     51321
     51322     51318     51321     51322     51318     51320     51322     51318     51319
     51324     51328     51329     51325     51324     51327     51325     51324     51326
     51326     51324     51327     51328     51324     51327     51328     51324     51326
     51328     51324     51325     51330     51334     51335     51331     51330     51333
     51331     51330     51332     51332     51330     51333     51334     51330     51333
     51334     51330     51332     51334     51330     51331     51336     51340     51341
     51337     51336     51339     51337     51336     51338     51338     51336     51339
     51340     51336     51339     51340     51336     51338     51340     51336     51337
     51342     51346     51347     51343     51342     51345     51343     51342     51344
     51344     51342     51345     51346     51342     51345     51346     51342     51344
     51346     51342     51343     51348     51352     51353     51349     51348     51351
     51349     51348     51350     51350     51348     51351     51352     51348     51351
     51352     51348     51350     51352     51348     51349     51354     51358     51359
     51355     51354     51357     51355     51354     51356     51356     51354     51357
     51358     51354     51357     51358     51354     51356     51358     51354     51355
     51360     51364     51365     51361     51360     51363     51361     51360     51362
     51362     51360     51363     51364     51360     51363     51364     51360     51362
     51364     51360     51361     51366     51370     51371     51367     51366     51369
     51367     51366     51368     51368     51366     51369     51370     51366     51369
     51370     51366     51368     51370     51366     51367     51372     51376     51377
     51373     51372     51375     51373     51372     51374     51374     51372     51375
     51376     51372     51375     51376     51372     51374     51376     51372     51373
     51378     51382     51383     51379     51378     51381     51379     51378     51380
     51380     51378     51381     51382     51378     51381     51382     51378     51380
     51382     51378     51379     51384     51388     51389     51385     51384     51387
     51385     51384     51386     51386     51384     51387     51388     51384     51387
     51388     51384     51386     51388     51384     51385     51390     51394     51395
     51391     51390     51393     51391     51390     51392     51392     51390     51393
     51394     51390     51393     51394     51390     51392     51394     51390     51391
     51396     51400     51401     51397     51396     51399     51397     51396     51398
     51398     51396     51399     51400     51396     51399     51400     51396     51398
     51400     51396     51397     51402     51406     51407     51403     51402     51405
     51403     51402     51404     51404     51402     51405     51406     51402     51405
     51406     51402     51404     51406     51402     51403     51408     51412     51413
     51409     51408     51411     51409     51408     51410     51410     51408     51411
     51412     51408     51411     51412     51408     51410     51412     51408     51409
     51414     51418     51419     51415     51414     51417     51415     51414     51416
     51416     51414     51417     51418     51414     51417     51418     51414     51416
     51418     51414     51415     51420     51424     51425     51421     51420     51423
     51421     51420     51422     51422     51420     51423     51424     51420     51423
     51424     51420     51422     51424     51420     51421     51426     51430     51431
     51427     51426     51429     51427     51426     51428     51428     51426     51429
     51430     51426     51429     51430     51426     51428     51430     51426     51427
     51432     51436     51437     51433     51432     51435     51433     51432     51434
     51434     51432     51435     51436     51432     51435     51436     51432     51434
     51436     51432     51433     51438     51442     51443     51439     51438     51441
     51439     51438     51440     51440     51438     51441     51442     51438     51441
     51442     51438     51440     51442     51438     51439     51444     51448     51449
     51445     51444     51447     51445     51444     51446     51446     51444     51447
     51448     51444     51447     51448     51444     51446     51448     51444     51445
     51450     51454     51455     51451     51450     51453     51451     51450     51452
     51452     51450     51453     51454     51450     51453     51454     51450     51452
     51454     51450     51451     51456     51460     51461     51457     51456     51459
     51457     51456     51458     51458     51456     51459     51460     51456     51459
     51460     51456     51458     51460     51456     51457     51462     51466     51467
     51463     51462     51465     51463     51462     51464     51464     51462     51465
     51466     51462     51465     51466     51462     51464     51466     51462     51463
     51468     51472     51473     51469     51468     51471     51469     51468     51470
     51470     51468     51471     51472     51468     51471     51472     51468     51470
     51472     51468     51469     51474     51478     51479     51475     51474     51477
     51475     51474     51476     51476     51474     51477     51478     51474     51477
     51478     51474     51476     51478     51474     51475     51480     51484     51485
     51481     51480     51483     51481     51480     51482     51482     51480     51483
     51484     51480     51483     51484     51480     51482     51484     51480     51481
     51486     51490     51491     51487     51486     51489     51487     51486     51488
     51488     51486     51489     51490     51486     51489     51490     51486     51488
     51490     51486     51487     51492     51496     51497     51493     51492     51495
     51493     51492     51494     51494     51492     51495     51496     51492     51495
     51496     51492     51494     51496     51492     51493     51498     51502     51503
     51499     51498     51501     51499     51498     51500     51500     51498     51501
     51502     51498     51501     51502     51498     51500     51502     51498     51499
     51504     51508     51509     51505     51504     51507     51505     51504     51506
     51506     51504     51507     51508     51504     51507     51508     51504     51506
     51508     51504     51505     51510     51514     51515     51511     51510     51513
     51511     51510     51512     51512     51510     51513     51514     51510     51513
     51514     51510     51512     51514     51510     51511     51516     51520     51521
     51517     51516     51519     51517     51516     51518     51518     51516     51519
     51520     51516     51519     51520     51516     51518     51520     51516     51517
     51522     51526     51527     51523     51522     51525     51523     51522     51524
     51524     51522     51525     51526     51522     51525     51526     51522     51524
     51526     51522     51523     51528     51532     51533     51529     51528     51531
     51529     51528     51530     51530     51528     51531     51532     51528     51531
     51532     51528     51530     51532     51528     51529     51534     51538     51539
     51535     51534     51537     51535     51534     51536     51536     51534     51537
     51538     51534     51537     51538     51534     51536     51538     51534     51535
     51540     51544     51545     51541     51540     51543     51541     51540     51542
     51542     51540     51543     51544     51540     51543     51544     51540     51542
     51544     51540     51541     51546     51550     51551     51547     51546     51549
     51547     51546     51548     51548     51546     51549     51550     51546     51549
     51550     51546     51548     51550     51546     51547     51552     51556     51557
     51553     51552     51555     51553     51552     51554     51554     51552     51555
     51556     51552     51555     51556     51552     51554     51556     51552     51553
     51558     51562     51563     51559     51558     51561     51559     51558     51560
     51560     51558     51561     51562     51558     51561     51562     51558     51560
     51562     51558     51559     51564     51568     51569     51565     51564     51567
     51565     51564     51566     51566     51564     51567     51568     51564     51567
     51568     51564     51566     51568     51564     51565     51570     51574     51575
     51571     51570     51573     51571     51570     51572     51572     51570     51573
     51574     51570     51573     51574     51570     51572     51574     51570     51571
     51576     51580     51581     51577     51576     51579     51577     51576     51578
     51578     51576     51579     51580     51576     51579     51580     51576     51578
     51580     51576     51577     51582     51586     51587     51583     51582     51585
     51583     51582     51584     51584     51582     51585     51586     51582     51585
     51586     51582     51584     51586     51582     51583     51588     51592     51593
     51589     51588     51591     51589     51588     51590     51590     51588     51591
     51592     51588     51591     51592     51588     51590     51592     51588     51589
     51594     51598     51599     51595     51594     51597     51595     51594     51596
     51596     51594     51597     51598     51594     51597     51598     51594     51596
     51598     51594     51595     51600     51604     51605     51601     51600     51603
     51601     51600     51602     51602     51600     51603     51604     51600     51603
     51604     51600     51602     51604     51600     51601     51606     51610     51611
     51607     51606     51609     51607     51606     51608     51608     51606     51609
     51610     51606     51609     51610     51606     51608     51610     51606     51607
     51612     51616     51617     51613     51612     51615     51613     51612     51614
     51614     51612     51615     51616     51612     51615     51616     51612     51614
     51616     51612     51613     51618     51622     51623     51619     51618     51621
     51619     51618     51620     51620     51618     51621     51622     51618     51621
     51622     51618     51620     51622     51618     51619     51624     51628     51629
     51625     51624     51627     51625     51624     51626     51626     51624     51627
     51628     51624     51627     51628     51624     51626     51628     51624     51625
     51630     51634     51635     51631     51630     51633     51631     51630     51632
     51632     51630     51633     51634     51630     51633     51634     51630     51632
     51634     51630     51631     51636     51640     51641     51637     51636     51639
     51637     51636     51638     51638     51636     51639     51640     51636     51639
     51640     51636     51638     51640     51636     51637     51642     51646     51647
     51643     51642     51645     51643     51642     51644     51644     51642     51645
     51646     51642     51645     51646     51642     51644     51646     51642     51643
     51648     51652     51653     51649     51648     51651     51649     51648     51650
     51650     51648     51651     51652     51648     51651     51652     51648     51650
     51652     51648     51649     51654     51658     51659     51655     51654     51657
     51655     51654     51656     51656     51654     51657     51658     51654     51657
     51658     51654     51656     51658     51654     51655     51660     51664     51665
     51661     51660     51663     51661     51660     51662     51662     51660     51663
     51664     51660     51663     51664     51660     51662     51664     51660     51661
     51666     51670     51671     51667     51666     51669     51667     51666     51668
     51668     51666     51669     51670     51666     51669     51670     51666     51668
     51670     51666     51667     51672     51676     51677     51673     51672     51675
     51673     51672     51674     51674     51672     51675     51676     51672     51675
     51676     51672     51674     51676     51672     51673     51678     51682     51683
     51679     51678     51681     51679     51678     51680     51680     51678     51681
     51682     51678     51681     51682     51678     51680     51682     51678     51679
     51684     51688     51689     51685     51684     51687     51685     51684     51686
     51686     51684     51687     51688     51684     51687     51688     51684     51686
     51688     51684     51685     51690     51694     51695     51691     51690     51693
     51691     51690     51692     51692     51690     51693     51694     51690     51693
     51694     51690     51692     51694     51690     51691     51696     51700     51701
     51697     51696     51699     51697     51696     51698     51698     51696     51699
     51700     51696     51699     51700     51696     51698     51700     51696     51697
     51702     51706     51707     51703     51702     51705     51703     51702     51704
     51704     51702     51705     51706     51702     51705     51706     51702     51704
     51706     51702     51703     51708     51712     51713     51709     51708     51711
     51709     51708     51710     51710     51708     51711     51712     51708     51711
     51712     51708     51710     51712     51708     51709     51714     51718     51719
     51715     51714     51717     51715     51714     51716     51716     51714     51717
     51718     51714     51717     51718     51714     51716     51718     51714     51715
     51720     51724     51725     51721     51720     51723     51721     51720     51722
     51722     51720     51723     51724     51720     51723     51724     51720     51722
     51724     51720     51721     51726     51730     51731     51727     51726     51729
     51727     51726     51728     51728     51726     51729     51730     51726     51729
     51730     51726     51728     51730     51726     51727     51732     51736     51737
     51733     51732     51735     51733     51732     51734     51734     51732     51735
     51736     51732     51735     51736     51732     51734     51736     51732     51733
     51738     51742     51743     51739     51738     51741     51739     51738     51740
     51740     51738     51741     51742     51738     51741     51742     51738     51740
     51742     51738     51739     51744     51748     51749     51745     51744     51747
     51745     51744     51746     51746     51744     51747     51748     51744     51747
     51748     51744     51746     51748     51744     51745     51750     51754     51755
     51751     51750     51753     51751     51750     51752     51752     51750     51753
     51754     51750     51753     51754     51750     51752     51754     51750     51751
     51756     51760     51761     51757     51756     51759     51757     51756     51758
     51758     51756     51759     51760     51756     51759     51760     51756     51758
     51760     51756     51757     51762     51766     51767     51763     51762     51765
     51763     51762     51764     51764     51762     51765     51766     51762     51765
     51766     51762     51764     51766     51762     51763     51768     51772     51773
     51769     51768     51771     51769     51768     51770     51770     51768     51771
     51772     51768     51771     51772     51768     51770     51772     51768     51769
     51774     51778     51779     51775     51774     51777     51775     51774     51776
     51776     51774     51777     51778     51774     51777     51778     51774     51776
     51778     51774     51775     51780     51784     51785     51781     51780     51783
     51781     51780     51782     51782     51780     51783     51784     51780     51783
     51784     51780     51782     51784     51780     51781     51786     51790     51791
     51787     51786     51789     51787     51786     51788     51788     51786     51789
     51790     51786     51789     51790     51786     51788     51790     51786     51787
     51792     51796     51797     51793     51792     51795     51793     51792     51794
     51794     51792     51795     51796     51792     51795     51796     51792     51794
     51796     51792     51793     51798     51802     51803     51799     51798     51801
     51799     51798     51800     51800     51798     51801     51802     51798     51801
     51802     51798     51800     51802     51798     51799     51804     51808     51809
     51805     51804     51807     51805     51804     51806     51806     51804     51807
     51808     51804     51807     51808     51804     51806     51808     51804     51805
     51810     51814     51815     51811     51810     51813     51811     51810     51812
     51812     51810     51813     51814     51810     51813     51814     51810     51812
     51814     51810     51811     51816     51820     51821     51817     51816     51819
     51817     51816     51818     51818     51816     51819     51820     51816     51819
     51820     51816     51818     51820     51816     51817     51822     51826     51827
     51823     51822     51825     51823     51822     51824     51824     51822     51825
     51826     51822     51825     51826     51822     51824     51826     51822     51823
     51828     51832     51833     51829     51828     51831     51829     51828     51830
     51830     51828     51831     51832     51828     51831     51832     51828     51830
     51832     51828     51829     51834     51838     51839     51835     51834     51837
     51835     51834     51836     51836     51834     51837     51838     51834     51837
     51838     51834     51836     51838     51834     51835     51840     51844     51845
     51841     51840     51843     51841     51840     51842     51842     51840     51843
     51844     51840     51843     51844     51840     51842     51844     51840     51841
     51846     51850     51851     51847     51846     51849     51847     51846     51848
     51848     51846     51849     51850     51846     51849     51850     51846     51848
     51850     51846     51847     51852     51856     51857     51853     51852     51855
     51853     51852     51854     51854     51852     51855     51856     51852     51855
     51856     51852     51854     51856     51852     51853     51858     51862     51863
     51859     51858     51861     51859     51858     51860     51860     51858     51861
     51862     51858     51861     51862     51858     51860     51862     51858     51859
     51864     51868     51869     51865     51864     51867     51865     51864     51866
     51866     51864     51867     51868     51864     51867     51868     51864     51866
     51868     51864     51865     51870     51874     51875     51871     51870     51873
     51871     51870     51872     51872     51870     51873     51874     51870     51873
     51874     51870     51872     51874     51870     51871     51876     51880     51881
     51877     51876     51879     51877     51876     51878     51878     51876     51879
     51880     51876     51879     51880     51876     51878     51880     51876     51877
     51882     51886     51887     51883     51882     51885     51883     51882     51884
     51884     51882     51885     51886     51882     51885     51886     51882     51884
     51886     51882     51883     51888     51892     51893     51889     51888     51891
     51889     51888     51890     51890     51888     51891     51892     51888     51891
     51892     51888     51890     51892     51888     51889     51894     51898     51899
     51895     51894     51897     51895     51894     51896     51896     51894     51897
     51898     51894     51897     51898     51894     51896     51898     51894     51895
     51900     51904     51905     51901     51900     51903     51901     51900     51902
     51902     51900     51903     51904     51900     51903     51904     51900     51902
     51904     51900     51901     51906     51910     51911     51907     51906     51909
     51907     51906     51908     51908     51906     51909     51910     51906     51909
     51910     51906     51908     51910     51906     51907     51912     51916     51917
     51913     51912     51915     51913     51912     51914     51914     51912     51915
     51916     51912     51915     51916     51912     51914     51916     51912     51913
     51918     51922     51923     51919     51918     51921     51919     51918     51920
     51920     51918     51921     51922     51918     51921     51922     51918     51920
     51922     51918     51919     51924     51928     51929     51925     51924     51927
     51925     51924     51926     51926     51924     51927     51928     51924     51927
     51928     51924     51926     51928     51924     51925     51930     51934     51935
     51931     51930     51933     51931     51930     51932     51932     51930     51933
     51934     51930     51933     51934     51930     51932     51934     51930     51931
     51936     51940     51941     51937     51936     51939     51937     51936     51938
     51938     51936     51939     51940     51936     51939     51940     51936     51938
     51940     51936     51937     51942     51946     51947     51943     51942     51945
     51943     51942     51944     51944     51942     51945     51946     51942     51945
     51946     51942     51944     51946     51942     51943     51948     51952     51953
     51949     51948     51951     51949     51948     51950     51950     51948     51951
     51952     51948     51951     51952     51948     51950     51952     51948     51949
     51954     51958     51959     51955     51954     51957     51955     51954     51956
     51956     51954     51957     51958     51954     51957     51958     51954     51956
     51958     51954     51955     51960     51964     51965     51961     51960     51963
     51961     51960     51962     51962     51960     51963     51964     51960     51963
     51964     51960     51962     51964     51960     51961     51966     51970     51971
     51967     51966     51969     51967     51966     51968     51968     51966     51969
     51970     51966     51969     51970     51966     51968     51970     51966     51967
     51972     51976     51977     51973     51972     51975     51973     51972     51974
     51974     51972     51975     51976     51972     51975     51976     51972     51974
     51976     51972     51973     51978     51982     51983     51979     51978     51981
     51979     51978     51980     51980     51978     51981     51982     51978     51981
     51982     51978     51980     51982     51978     51979     51984     51988     51989
     51985     51984     51987     51985     51984     51986     51986     51984     51987
     51988     51984     51987     51988     51984     51986     51988     51984     51985
     51990     51994     51995     51991     51990     51993     51991     51990     51992
     51992     51990     51993     51994     51990     51993     51994     51990     51992
     51994     51990     51991     51996     52000     52001     51997     51996     51999
     51997     51996     51998     51998     51996     51999     52000     51996     51999
     52000     51996     51998     52000     51996     51997     52002     52006     52007
     52003     52002     52005     52003     52002     52004     52004     52002     52005
     52006     52002     52005     52006     52002     52004     52006     52002     52003
     52008     52012     52013     52009     52008     52011     52009     52008     52010
     52010     52008     52011     52012     52008     52011     52012     52008     52010
     52012     52008     52009     52014     52018     52019     52015     52014     52017
     52015     52014     52016     52016     52014     52017     52018     52014     52017
     52018     52014     52016     52018     52014     52015     52020     52024     52025
     52021     52020     52023     52021     52020     52022     52022     52020     52023
     52024     52020     52023     52024     52020     52022     52024     52020     52021
     52026     52030     52031     52027     52026     52029     52027     52026     52028
     52028     52026     52029     52030     52026     52029     52030     52026     52028
     52030     52026     52027     52032     52036     52037     52033     52032     52035
     52033     52032     52034     52034     52032     52035     52036     52032     52035
     52036     52032     52034     52036     52032     52033     52038     52042     52043
     52039     52038     52041     52039     52038     52040     52040     52038     52041
     52042     52038     52041     52042     52038     52040     52042     52038     52039
     52044     52048     52049     52045     52044     52047     52045     52044     52046
     52046     52044     52047     52048     52044     52047     52048     52044     52046
     52048     52044     52045     52050     52054     52055     52051     52050     52053
     52051     52050     52052     52052     52050     52053     52054     52050     52053
     52054     52050     52052     52054     52050     52051     52056     52060     52061
     52057     52056     52059     52057     52056     52058     52058     52056     52059
     52060     52056     52059     52060     52056     52058     52060     52056     52057
     52062     52066     52067     52063     52062     52065     52063     52062     52064
     52064     52062     52065     52066     52062     52065     52066     52062     52064
     52066     52062     52063     52068     52072     52073     52069     52068     52071
     52069     52068     52070     52070     52068     52071     52072     52068     52071
     52072     52068     52070     52072     52068     52069     52074     52078     52079
     52075     52074     52077     52075     52074     52076     52076     52074     52077
     52078     52074     52077     52078     52074     52076     52078     52074     52075
     52080     52084     52085     52081     52080     52083     52081     52080     52082
     52082     52080     52083     52084     52080     52083     52084     52080     52082
     52084     52080     52081     52086     52090     52091     52087     52086     52089
     52087     52086     52088     52088     52086     52089     52090     52086     52089
     52090     52086     52088     52090     52086     52087     52092     52096     52097
     52093     52092     52095     52093     52092     52094     52094     52092     52095
     52096     52092     52095     52096     52092     52094     52096     52092     52093
     52098     52102     52103     52099     52098     52101     52099     52098     52100
     52100     52098     52101     52102     52098     52101     52102     52098     52100
     52102     52098     52099     52104     52108     52109     52105     52104     52107
     52105     52104     52106     52106     52104     52107     52108     52104     52107
     52108     52104     52106     52108     52104     52105     52110     52114     52115
     52111     52110     52113     52111     52110     52112     52112     52110     52113
     52114     52110     52113     52114     52110     52112     52114     52110     52111
     52116     52120     52121     52117     52116     52119     52117     52116     52118
     52118     52116     52119     52120     52116     52119     52120     52116     52118
     52120     52116     52117     52122     52126     52127     52123     52122     52125
     52123     52122     52124     52124     52122     52125     52126     52122     52125
     52126     52122     52124     52126     52122     52123     52128     52132     52133
     52129     52128     52131     52129     52128     52130     52130     52128     52131
     52132     52128     52131     52132     52128     52130     52132     52128     52129
     52134     52138     52139     52135     52134     52137     52135     52134     52136
     52136     52134     52137     52138     52134     52137     52138     52134     52136
     52138     52134     52135     52140     52144     52145     52141     52140     52143
     52141     52140     52142     52142     52140     52143     52144     52140     52143
     52144     52140     52142     52144     52140     52141     52146     52150     52151
     52147     52146     52149     52147     52146     52148     52148     52146     52149
     52150     52146     52149     52150     52146     52148     52150     52146     52147
     52152     52156     52157     52153     52152     52155     52153     52152     52154
     52154     52152     52155     52156     52152     52155     52156     52152     52154
     52156     52152     52153     52158     52162     52163     52159     52158     52161
     52159     52158     52160     52160     52158     52161     52162     52158     52161
     52162     52158     52160     52162     52158     52159     52164     52168     52169
     52165     52164     52167     52165     52164     52166     52166     52164     52167
     52168     52164     52167     52168     52164     52166     52168     52164     52165
     52170     52174     52175     52171     52170     52173     52171     52170     52172
     52172     52170     52173     52174     52170     52173     52174     52170     52172
     52174     52170     52171     52176     52180     52181     52177     52176     52179
     52177     52176     52178     52178     52176     52179     52180     52176     52179
     52180     52176     52178     52180     52176     52177     52182     52186     52187
     52183     52182     52185     52183     52182     52184     52184     52182     52185
     52186     52182     52185     52186     52182     52184     52186     52182     52183
     52188     52192     52193     52189     52188     52191     52189     52188     52190
     52190     52188     52191     52192     52188     52191     52192     52188     52190
     52192     52188     52189     52194     52198     52199     52195     52194     52197
     52195     52194     52196     52196     52194     52197     52198     52194     52197
     52198     52194     52196     52198     52194     52195     52200     52204     52205
     52201     52200     52203     52201     52200     52202     52202     52200     52203
     52204     52200     52203     52204     52200     52202     52204     52200     52201
     52206     52210     52211     52207     52206     52209     52207     52206     52208
     52208     52206     52209     52210     52206     52209     52210     52206     52208
     52210     52206     52207     52212     52216     52217     52213     52212     52215
     52213     52212     52214     52214     52212     52215     52216     52212     52215
     52216     52212     52214     52216     52212     52213     52218     52222     52223
     52219     52218     52221     52219     52218     52220     52220     52218     52221
     52222     52218     52221     52222     52218     52220     52222     52218     52219
     52224     52228     52229     52225     52224     52227     52225     52224     52226
     52226     52224     52227     52228     52224     52227     52228     52224     52226
     52228     52224     52225     52230     52234     52235     52231     52230     52233
     52231     52230     52232     52232     52230     52233     52234     52230     52233
     52234     52230     52232     52234     52230     52231     52236     52240     52241
     52237     52236     52239     52237     52236     52238     52238     52236     52239
     52240     52236     52239     52240     52236     52238     52240     52236     52237
     52242     52246     52247     52243     52242     52245     52243     52242     52244
     52244     52242     52245     52246     52242     52245     52246     52242     52244
     52246     52242     52243     52248     52252     52253     52249     52248     52251
     52249     52248     52250     52250     52248     52251     52252     52248     52251
     52252     52248     52250     52252     52248     52249     52254     52258     52259
     52255     52254     52257     52255     52254     52256     52256     52254     52257
     52258     52254     52257     52258     52254     52256     52258     52254     52255
     52260     52264     52265     52261     52260     52263     52261     52260     52262
     52262     52260     52263     52264     52260     52263     52264     52260     52262
     52264     52260     52261     52266     52270     52271     52267     52266     52269
     52267     52266     52268     52268     52266     52269     52270     52266     52269
     52270     52266     52268     52270     52266     52267     52272     52276     52277
     52273     52272     52275     52273     52272     52274     52274     52272     52275
     52276     52272     52275     52276     52272     52274     52276     52272     52273
     52278     52282     52283     52279     52278     52281     52279     52278     52280
     52280     52278     52281     52282     52278     52281     52282     52278     52280
     52282     52278     52279     52284     52288     52289     52285     52284     52287
     52285     52284     52286     52286     52284     52287     52288     52284     52287
     52288     52284     52286     52288     52284     52285     52290     52294     52295
     52291     52290     52293     52291     52290     52292     52292     52290     52293
     52294     52290     52293     52294     52290     52292     52294     52290     52291
     52296     52300     52301     52297     52296     52299     52297     52296     52298
     52298     52296     52299     52300     52296     52299     52300     52296     52298
     52300     52296     52297     52302     52306     52307     52303     52302     52305
     52303     52302     52304     52304     52302     52305     52306     52302     52305
     52306     52302     52304     52306     52302     52303     52308     52312     52313
     52309     52308     52311     52309     52308     52310     52310     52308     52311
     52312     52308     52311     52312     52308     52310     52312     52308     52309
     52314     52318     52319     52315     52314     52317     52315     52314     52316
     52316     52314     52317     52318     52314     52317     52318     52314     52316
     52318     52314     52315     52320     52324     52325     52321     52320     52323
     52321     52320     52322     52322     52320     52323     52324     52320     52323
     52324     52320     52322     52324     52320     52321     52326     52330     52331
     52327     52326     52329     52327     52326     52328     52328     52326     52329
     52330     52326     52329     52330     52326     52328     52330     52326     52327
     52332     52336     52337     52333     52332     52335     52333     52332     52334
     52334     52332     52335     52336     52332     52335     52336     52332     52334
     52336     52332     52333     52338     52342     52343     52339     52338     52341
     52339     52338     52340     52340     52338     52341     52342     52338     52341
     52342     52338     52340     52342     52338     52339     52344     52348     52349
     52345     52344     52347     52345     52344     52346     52346     52344     52347
     52348     52344     52347     52348     52344     52346     52348     52344     52345
     52350     52354     52355     52351     52350     52353     52351     52350     52352
     52352     52350     52353     52354     52350     52353     52354     52350     52352
     52354     52350     52351     52356     52360     52361     52357     52356     52359
     52357     52356     52358     52358     52356     52359     52360     52356     52359
     52360     52356     52358     52360     52356     52357     52362     52366     52367
     52363     52362     52365     52363     52362     52364     52364     52362     52365
     52366     52362     52365     52366     52362     52364     52366     52362     52363
     52368     52372     52373     52369     52368     52371     52369     52368     52370
     52370     52368     52371     52372     52368     52371     52372     52368     52370
     52372     52368     52369     52374     52378     52379     52375     52374     52377
     52375     52374     52376     52376     52374     52377     52378     52374     52377
     52378     52374     52376     52378     52374     52375     52380     52384     52385
     52381     52380     52383     52381     52380     52382     52382     52380     52383
     52384     52380     52383     52384     52380     52382     52384     52380     52381
     52386     52390     52391     52387     52386     52389     52387     52386     52388
     52388     52386     52389     52390     52386     52389     52390     52386     52388
     52390     52386     52387     52392     52396     52397     52393     52392     52395
     52393     52392     52394     52394     52392     52395     52396     52392     52395
     52396     52392     52394     52396     52392     52393     52398     52402     52403
     52399     52398     52401     52399     52398     52400     52400     52398     52401
     52402     52398     52401     52402     52398     52400     52402     52398     52399
     52404     52408     52409     52405     52404     52407     52405     52404     52406
     52406     52404     52407     52408     52404     52407     52408     52404     52406
     52408     52404     52405     52410     52414     52415     52411     52410     52413
     52411     52410     52412     52412     52410     52413     52414     52410     52413
     52414     52410     52412     52414     52410     52411     52416     52420     52421
     52417     52416     52419     52417     52416     52418     52418     52416     52419
     52420     52416     52419     52420     52416     52418     52420     52416     52417
     52422     52426     52427     52423     52422     52425     52423     52422     52424
     52424     52422     52425     52426     52422     52425     52426     52422     52424
     52426     52422     52423     52428     52432     52433     52429     52428     52431
     52429     52428     52430     52430     52428     52431     52432     52428     52431
     52432     52428     52430     52432     52428     52429     52434     52438     52439
     52435     52434     52437     52435     52434     52436     52436     52434     52437
     52438     52434     52437     52438     52434     52436     52438     52434     52435
     52440     52444     52445     52441     52440     52443     52441     52440     52442
     52442     52440     52443     52444     52440     52443     52444     52440     52442
     52444     52440     52441     52446     52450     52451     52447     52446     52449
     52447     52446     52448     52448     52446     52449     52450     52446     52449
     52450     52446     52448     52450     52446     52447     52452     52456     52457
     52453     52452     52455     52453     52452     52454     52454     52452     52455
     52456     52452     52455     52456     52452     52454     52456     52452     52453
     52458     52462     52463     52459     52458     52461     52459     52458     52460
     52460     52458     52461     52462     52458     52461     52462     52458     52460
     52462     52458     52459     52464     52468     52469     52465     52464     52467
     52465     52464     52466     52466     52464     52467     52468     52464     52467
     52468     52464     52466     52468     52464     52465     52470     52474     52475
     52471     52470     52473     52471     52470     52472     52472     52470     52473
     52474     52470     52473     52474     52470     52472     52474     52470     52471
     52476     52480     52481     52477     52476     52479     52477     52476     52478
     52478     52476     52479     52480     52476     52479     52480     52476     52478
     52480     52476     52477     52482     52486     52487     52483     52482     52485
     52483     52482     52484     52484     52482     52485     52486     52482     52485
     52486     52482     52484     52486     52482     52483     52488     52492     52493
     52489     52488     52491     52489     52488     52490     52490     52488     52491
     52492     52488     52491     52492     52488     52490     52492     52488     52489
     52494     52498     52499     52495     52494     52497     52495     52494     52496
     52496     52494     52497     52498     52494     52497     52498     52494     52496
     52498     52494     52495     52500     52504     52505     52501     52500     52503
     52501     52500     52502     52502     52500     52503     52504     52500     52503
     52504     52500     52502     52504     52500     52501     52506     52510     52511
     52507     52506     52509     52507     52506     52508     52508     52506     52509
     52510     52506     52509     52510     52506     52508     52510     52506     52507
     52512     52516     52517     52513     52512     52515     52513     52512     52514
     52514     52512     52515     52516     52512     52515     52516     52512     52514
     52516     52512     52513     52518     52522     52523     52519     52518     52521
     52519     52518     52520     52520     52518     52521     52522     52518     52521
     52522     52518     52520     52522     52518     52519     52524     52528     52529
     52525     52524     52527     52525     52524     52526     52526     52524     52527
     52528     52524     52527     52528     52524     52526     52528     52524     52525
     52530     52534     52535     52531     52530     52533     52531     52530     52532
     52532     52530     52533     52534     52530     52533     52534     52530     52532
     52534     52530     52531     52536     52540     52541     52537     52536     52539
     52537     52536     52538     52538     52536     52539     52540     52536     52539
     52540     52536     52538     52540     52536     52537     52542     52546     52547
     52543     52542     52545     52543     52542     52544     52544     52542     52545
     52546     52542     52545     52546     52542     52544     52546     52542     52543
     52548     52552     52553     52549     52548     52551     52549     52548     52550
     52550     52548     52551     52552     52548     52551     52552     52548     52550
     52552     52548     52549     52554     52558     52559     52555     52554     52557
     52555     52554     52556     52556     52554     52557     52558     52554     52557
     52558     52554     52556     52558     52554     52555     52560     52564     52565
     52561     52560     52563     52561     52560     52562     52562     52560     52563
     52564     52560     52563     52564     52560     52562     52564     52560     52561
     52566     52570     52571     52567     52566     52569     52567     52566     52568
     52568     52566     52569     52570     52566     52569     52570     52566     52568
     52570     52566     52567     52572     52576     52577     52573     52572     52575
     52573     52572     52574     52574     52572     52575     52576     52572     52575
     52576     52572     52574     52576     52572     52573     52578     52582     52583
     52579     52578     52581     52579     52578     52580     52580     52578     52581
     52582     52578     52581     52582     52578     52580     52582     52578     52579
     52584     52588     52589     52585     52584     52587     52585     52584     52586
     52586     52584     52587     52588     52584     52587     52588     52584     52586
     52588     52584     52585     52590     52594     52595     52591     52590     52593
     52591     52590     52592     52592     52590     52593     52594     52590     52593
     52594     52590     52592     52594     52590     52591     52596     52600     52601
     52597     52596     52599     52597     52596     52598     52598     52596     52599
     52600     52596     52599     52600     52596     52598     52600     52596     52597
     52602     52606     52607     52603     52602     52605     52603     52602     52604
     52604     52602     52605     52606     52602     52605     52606     52602     52604
     52606     52602     52603     52608     52612     52613     52609     52608     52611
     52609     52608     52610     52610     52608     52611     52612     52608     52611
     52612     52608     52610     52612     52608     52609     52614     52618     52619
     52615     52614     52617     52615     52614     52616     52616     52614     52617
     52618     52614     52617     52618     52614     52616     52618     52614     52615
     52620     52624     52625     52621     52620     52623     52621     52620     52622
     52622     52620     52623     52624     52620     52623     52624     52620     52622
     52624     52620     52621     52626     52630     52631     52627     52626     52629
     52627     52626     52628     52628     52626     52629     52630     52626     52629
     52630     52626     52628     52630     52626     52627     52632     52636     52637
     52633     52632     52635     52633     52632     52634     52634     52632     52635
     52636     52632     52635     52636     52632     52634     52636     52632     52633
     52638     52642     52643     52639     52638     52641     52639     52638     52640
     52640     52638     52641     52642     52638     52641     52642     52638     52640
     52642     52638     52639     52644     52648     52649     52645     52644     52647
     52645     52644     52646     52646     52644     52647     52648     52644     52647
     52648     52644     52646     52648     52644     52645     52650     52654     52655
     52651     52650     52653     52651     52650     52652     52652     52650     52653
     52654     52650     52653     52654     52650     52652     52654     52650     52651
     52656     52660     52661     52657     52656     52659     52657     52656     52658
     52658     52656     52659     52660     52656     52659     52660     52656     52658
     52660     52656     52657     52662     52666     52667     52663     52662     52665
     52663     52662     52664     52664     52662     52665     52666     52662     52665
     52666     52662     52664     52666     52662     52663     52668     52672     52673
     52669     52668     52671     52669     52668     52670     52670     52668     52671
     52672     52668     52671     52672     52668     52670     52672     52668     52669
     52674     52678     52679     52675     52674     52677     52675     52674     52676
     52676     52674     52677     52678     52674     52677     52678     52674     52676
     52678     52674     52675     52680     52684     52685     52681     52680     52683
     52681     52680     52682     52682     52680     52683     52684     52680     52683
     52684     52680     52682     52684     52680     52681     52686     52690     52691
     52687     52686     52689     52687     52686     52688     52688     52686     52689
     52690     52686     52689     52690     52686     52688     52690     52686     52687
     52692     52696     52697     52693     52692     52695     52693     52692     52694
     52694     52692     52695     52696     52692     52695     52696     52692     52694
     52696     52692     52693     52698     52702     52703     52699     52698     52701
     52699     52698     52700     52700     52698     52701     52702     52698     52701
     52702     52698     52700     52702     52698     52699     52704     52708     52709
     52705     52704     52707     52705     52704     52706     52706     52704     52707
     52708     52704     52707     52708     52704     52706     52708     52704     52705
     52710     52714     52715     52711     52710     52713     52711     52710     52712
     52712     52710     52713     52714     52710     52713     52714     52710     52712
     52714     52710     52711     52716     52720     52721     52717     52716     52719
     52717     52716     52718     52718     52716     52719     52720     52716     52719
     52720     52716     52718     52720     52716     52717     52722     52726     52727
     52723     52722     52725     52723     52722     52724     52724     52722     52725
     52726     52722     52725     52726     52722     52724     52726     52722     52723
     52728     52732     52733     52729     52728     52731     52729     52728     52730
     52730     52728     52731     52732     52728     52731     52732     52728     52730
     52732     52728     52729     52734     52738     52739     52735     52734     52737
     52735     52734     52736     52736     52734     52737     52738     52734     52737
     52738     52734     52736     52738     52734     52735     52740     52744     52745
     52741     52740     52743     52741     52740     52742     52742     52740     52743
     52744     52740     52743     52744     52740     52742     52744     52740     52741
     52746     52750     52751     52747     52746     52749     52747     52746     52748
     52748     52746     52749     52750     52746     52749     52750     52746     52748
     52750     52746     52747     52752     52756     52757     52753     52752     52755
     52753     52752     52754     52754     52752     52755     52756     52752     52755
     52756     52752     52754     52756     52752     52753     52758     52762     52763
     52759     52758     52761     52759     52758     52760     52760     52758     52761
     52762     52758     52761     52762     52758     52760     52762     52758     52759
     52764     52768     52769     52765     52764     52767     52765     52764     52766
     52766     52764     52767     52768     52764     52767     52768     52764     52766
     52768     52764     52765     52770     52774     52775     52771     52770     52773
     52771     52770     52772     52772     52770     52773     52774     52770     52773
     52774     52770     52772     52774     52770     52771     52776     52780     52781
     52777     52776     52779     52777     52776     52778     52778     52776     52779
     52780     52776     52779     52780     52776     52778     52780     52776     52777
     52782     52786     52787     52783     52782     52785     52783     52782     52784
     52784     52782     52785     52786     52782     52785     52786     52782     52784
     52786     52782     52783     52788     52792     52793     52789     52788     52791
     52789     52788     52790     52790     52788     52791     52792     52788     52791
     52792     52788     52790     52792     52788     52789     52794     52798     52799
     52795     52794     52797     52795     52794     52796     52796     52794     52797
     52798     52794     52797     52798     52794     52796     52798     52794     52795
     52800     52804     52805     52801     52800     52803     52801     52800     52802
     52802     52800     52803     52804     52800     52803     52804     52800     52802
     52804     52800     52801     52806     52810     52811     52807     52806     52809
     52807     52806     52808     52808     52806     52809     52810     52806     52809
     52810     52806     52808     52810     52806     52807     52812     52816     52817
     52813     52812     52815     52813     52812     52814     52814     52812     52815
     52816     52812     52815     52816     52812     52814     52816     52812     52813
     52818     52822     52823     52819     52818     52821     52819     52818     52820
     52820     52818     52821     52822     52818     52821     52822     52818     52820
     52822     52818     52819     52824     52828     52829     52825     52824     52827
     52825     52824     52826     52826     52824     52827     52828     52824     52827
     52828     52824     52826     52828     52824     52825     52830     52834     52835
     52831     52830     52833     52831     52830     52832     52832     52830     52833
     52834     52830     52833     52834     52830     52832     52834     52830     52831
     52836     52840     52841     52837     52836     52839     52837     52836     52838
     52838     52836     52839     52840     52836     52839     52840     52836     52838
     52840     52836     52837     52842     52846     52847     52843     52842     52845
     52843     52842     52844     52844     52842     52845     52846     52842     52845
     52846     52842     52844     52846     52842     52843     52848     52852     52853
     52849     52848     52851     52849     52848     52850     52850     52848     52851
     52852     52848     52851     52852     52848     52850     52852     52848     52849
     52854     52858     52859     52855     52854     52857     52855     52854     52856
     52856     52854     52857     52858     52854     52857     52858     52854     52856
     52858     52854     52855     52860     52864     52865     52861     52860     52863
     52861     52860     52862     52862     52860     52863     52864     52860     52863
     52864     52860     52862     52864     52860     52861     52866     52870     52871
     52867     52866     52869     52867     52866     52868     52868     52866     52869
     52870     52866     52869     52870     52866     52868     52870     52866     52867
     52872     52876     52877     52873     52872     52875     52873     52872     52874
     52874     52872     52875     52876     52872     52875     52876     52872     52874
     52876     52872     52873     52878     52882     52883     52879     52878     52881
     52879     52878     52880     52880     52878     52881     52882     52878     52881
     52882     52878     52880     52882     52878     52879     52884     52888     52889
     52885     52884     52887     52885     52884     52886     52886     52884     52887
     52888     52884     52887     52888     52884     52886     52888     52884     52885
     52890     52894     52895     52891     52890     52893     52891     52890     52892
     52892     52890     52893     52894     52890     52893     52894     52890     52892
     52894     52890     52891     52896     52900     52901     52897     52896     52899
     52897     52896     52898     52898     52896     52899     52900     52896     52899
     52900     52896     52898     52900     52896     52897     52902     52906     52907
     52903     52902     52905     52903     52902     52904     52904     52902     52905
     52906     52902     52905     52906     52902     52904     52906     52902     52903
     52908     52912     52913     52909     52908     52911     52909     52908     52910
     52910     52908     52911     52912     52908     52911     52912     52908     52910
     52912     52908     52909     52914     52918     52919     52915     52914     52917
     52915     52914     52916     52916     52914     52917     52918     52914     52917
     52918     52914     52916     52918     52914     52915     52920     52924     52925
     52921     52920     52923     52921     52920     52922     52922     52920     52923
     52924     52920     52923     52924     52920     52922     52924     52920     52921
     52926     52930     52931     52927     52926     52929     52927     52926     52928
     52928     52926     52929     52930     52926     52929     52930     52926     52928
     52930     52926     52927     52932     52936     52937     52933     52932     52935
     52933     52932     52934     52934     52932     52935     52936     52932     52935
     52936     52932     52934     52936     52932     52933     52938     52942     52943
     52939     52938     52941     52939     52938     52940     52940     52938     52941
     52942     52938     52941     52942     52938     52940     52942     52938     52939
     52944     52948     52949     52945     52944     52947     52945     52944     52946
     52946     52944     52947     52948     52944     52947     52948     52944     52946
     52948     52944     52945     52950     52954     52955     52951     52950     52953
     52951     52950     52952     52952     52950     52953     52954     52950     52953
     52954     52950     52952     52954     52950     52951     52956     52960     52961
     52957     52956     52959     52957     52956     52958     52958     52956     52959
     52960     52956     52959     52960     52956     52958     52960     52956     52957
     52962     52966     52967     52963     52962     52965     52963     52962     52964
     52964     52962     52965     52966     52962     52965     52966     52962     52964
     52966     52962     52963     52968     52972     52973     52969     52968     52971
     52969     52968     52970     52970     52968     52971     52972     52968     52971
     52972     52968     52970     52972     52968     52969     52974     52978     52979
     52975     52974     52977     52975     52974     52976     52976     52974     52977
     52978     52974     52977     52978     52974     52976     52978     52974     52975
     52980     52984     52985     52981     52980     52983     52981     52980     52982
     52982     52980     52983     52984     52980     52983     52984     52980     52982
     52984     52980     52981     52986     52990     52991     52987     52986     52989
     52987     52986     52988     52988     52986     52989     52990     52986     52989
     52990     52986     52988     52990     52986     52987     52992     52996     52997
     52993     52992     52995     52993     52992     52994     52994     52992     52995
     52996     52992     52995     52996     52992     52994     52996     52992     52993
     52998     53002     53003     52999     52998     53001     52999     52998     53000
     53000     52998     53001     53002     52998     53001     53002     52998     53000
     53002     52998     52999     53004     53008     53009     53005     53004     53007
     53005     53004     53006     53006     53004     53007     53008     53004     53007
     53008     53004     53006     53008     53004     53005     53010     53014     53015
     53011     53010     53013     53011     53010     53012     53012     53010     53013
     53014     53010     53013     53014     53010     53012     53014     53010     53011
     53016     53020     53021     53017     53016     53019     53017     53016     53018
     53018     53016     53019     53020     53016     53019     53020     53016     53018
     53020     53016     53017     53022     53026     53027     53023     53022     53025
     53023     53022     53024     53024     53022     53025     53026     53022     53025
     53026     53022     53024     53026     53022     53023     53028     53032     53033
     53029     53028     53031     53029     53028     53030     53030     53028     53031
     53032     53028     53031     53032     53028     53030     53032     53028     53029
     53034     53038     53039     53035     53034     53037     53035     53034     53036
     53036     53034     53037     53038     53034     53037     53038     53034     53036
     53038     53034     53035     53040     53044     53045     53041     53040     53043
     53041     53040     53042     53042     53040     53043     53044     53040     53043
     53044     53040     53042     53044     53040     53041     53046     53050     53051
     53047     53046     53049     53047     53046     53048     53048     53046     53049
     53050     53046     53049     53050     53046     53048     53050     53046     53047
     53052     53056     53057     53053     53052     53055     53053     53052     53054
     53054     53052     53055     53056     53052     53055     53056     53052     53054
     53056     53052     53053     53058     53062     53063     53059     53058     53061
     53059     53058     53060     53060     53058     53061     53062     53058     53061
     53062     53058     53060     53062     53058     53059     53064     53068     53069
     53065     53064     53067     53065     53064     53066     53066     53064     53067
     53068     53064     53067     53068     53064     53066     53068     53064     53065
     53070     53074     53075     53071     53070     53073     53071     53070     53072
     53072     53070     53073     53074     53070     53073     53074     53070     53072
     53074     53070     53071     53076     53080     53081     53077     53076     53079
     53077     53076     53078     53078     53076     53079     53080     53076     53079
     53080     53076     53078     53080     53076     53077     53082     53086     53087
     53083     53082     53085     53083     53082     53084     53084     53082     53085
     53086     53082     53085     53086     53082     53084     53086     53082     53083
     53088     53092     53093     53089     53088     53091     53089     53088     53090
     53090     53088     53091     53092     53088     53091     53092     53088     53090
     53092     53088     53089     53094     53098     53099     53095     53094     53097
     53095     53094     53096     53096     53094     53097     53098     53094     53097
     53098     53094     53096     53098     53094     53095     53100     53104     53105
     53101     53100     53103     53101     53100     53102     53102     53100     53103
     53104     53100     53103     53104     53100     53102     53104     53100     53101
     53106     53110     53111     53107     53106     53109     53107     53106     53108
     53108     53106     53109     53110     53106     53109     53110     53106     53108
     53110     53106     53107     53112     53116     53117     53113     53112     53115
     53113     53112     53114     53114     53112     53115     53116     53112     53115
     53116     53112     53114     53116     53112     53113     53118     53122     53123
     53119     53118     53121     53119     53118     53120     53120     53118     53121
     53122     53118     53121     53122     53118     53120     53122     53118     53119
     53124     53128     53129     53125     53124     53127     53125     53124     53126
     53126     53124     53127     53128     53124     53127     53128     53124     53126
     53128     53124     53125     53130     53134     53135     53131     53130     53133
     53131     53130     53132     53132     53130     53133     53134     53130     53133
     53134     53130     53132     53134     53130     53131     53136     53140     53141
     53137     53136     53139     53137     53136     53138     53138     53136     53139
     53140     53136     53139     53140     53136     53138     53140     53136     53137
     53142     53146     53147     53143     53142     53145     53143     53142     53144
     53144     53142     53145     53146     53142     53145     53146     53142     53144
     53146     53142     53143     53148     53152     53153     53149     53148     53151
     53149     53148     53150     53150     53148     53151     53152     53148     53151
     53152     53148     53150     53152     53148     53149     53154     53158     53159
     53155     53154     53157     53155     53154     53156     53156     53154     53157
     53158     53154     53157     53158     53154     53156     53158     53154     53155
     53160     53164     53165     53161     53160     53163     53161     53160     53162
     53162     53160     53163     53164     53160     53163     53164     53160     53162
     53164     53160     53161     53166     53170     53171     53167     53166     53169
     53167     53166     53168     53168     53166     53169     53170     53166     53169
     53170     53166     53168     53170     53166     53167     53172     53176     53177
     53173     53172     53175     53173     53172     53174     53174     53172     53175
     53176     53172     53175     53176     53172     53174     53176     53172     53173
     53178     53182     53183     53179     53178     53181     53179     53178     53180
     53180     53178     53181     53182     53178     53181     53182     53178     53180
     53182     53178     53179     53184     53188     53189     53185     53184     53187
     53185     53184     53186     53186     53184     53187     53188     53184     53187
     53188     53184     53186     53188     53184     53185     53190     53194     53195
     53191     53190     53193     53191     53190     53192     53192     53190     53193
     53194     53190     53193     53194     53190     53192     53194     53190     53191
     53196     53200     53201     53197     53196     53199     53197     53196     53198
     53198     53196     53199     53200     53196     53199     53200     53196     53198
     53200     53196     53197     53202     53206     53207     53203     53202     53205
     53203     53202     53204     53204     53202     53205     53206     53202     53205
     53206     53202     53204     53206     53202     53203     53208     53212     53213
     53209     53208     53211     53209     53208     53210     53210     53208     53211
     53212     53208     53211     53212     53208     53210     53212     53208     53209
     53214     53218     53219     53215     53214     53217     53215     53214     53216
     53216     53214     53217     53218     53214     53217     53218     53214     53216
     53218     53214     53215     53220     53224     53225     53221     53220     53223
     53221     53220     53222     53222     53220     53223     53224     53220     53223
     53224     53220     53222     53224     53220     53221     53226     53230     53231
     53227     53226     53229     53227     53226     53228     53228     53226     53229
     53230     53226     53229     53230     53226     53228     53230     53226     53227
     53232     53236     53237     53233     53232     53235     53233     53232     53234
     53234     53232     53235     53236     53232     53235     53236     53232     53234
     53236     53232     53233     53238     53242     53243     53239     53238     53241
     53239     53238     53240     53240     53238     53241     53242     53238     53241
     53242     53238     53240     53242     53238     53239     53244     53248     53249
     53245     53244     53247     53245     53244     53246     53246     53244     53247
     53248     53244     53247     53248     53244     53246     53248     53244     53245
     53250     53254     53255     53251     53250     53253     53251     53250     53252
     53252     53250     53253     53254     53250     53253     53254     53250     53252
     53254     53250     53251     53256     53260     53261     53257     53256     53259
     53257     53256     53258     53258     53256     53259     53260     53256     53259
     53260     53256     53258     53260     53256     53257     53262     53266     53267
     53263     53262     53265     53263     53262     53264     53264     53262     53265
     53266     53262     53265     53266     53262     53264     53266     53262     53263
     53268     53272     53273     53269     53268     53271     53269     53268     53270
     53270     53268     53271     53272     53268     53271     53272     53268     53270
     53272     53268     53269     53274     53278     53279     53275     53274     53277
     53275     53274     53276     53276     53274     53277     53278     53274     53277
     53278     53274     53276     53278     53274     53275     53280     53284     53285
     53281     53280     53283     53281     53280     53282     53282     53280     53283
     53284     53280     53283     53284     53280     53282     53284     53280     53281
     53286     53290     53291     53287     53286     53289     53287     53286     53288
     53288     53286     53289     53290     53286     53289     53290     53286     53288
     53290     53286     53287     53292     53296     53297     53293     53292     53295
     53293     53292     53294     53294     53292     53295     53296     53292     53295
     53296     53292     53294     53296     53292     53293     53298     53302     53303
     53299     53298     53301     53299     53298     53300     53300     53298     53301
     53302     53298     53301     53302     53298     53300     53302     53298     53299
     53304     53308     53309     53305     53304     53307     53305     53304     53306
     53306     53304     53307     53308     53304     53307     53308     53304     53306
     53308     53304     53305     53310     53314     53315     53311     53310     53313
     53311     53310     53312     53312     53310     53313     53314     53310     53313
     53314     53310     53312     53314     53310     53311     53316     53320     53321
     53317     53316     53319     53317     53316     53318     53318     53316     53319
     53320     53316     53319     53320     53316     53318     53320     53316     53317
     53322     53326     53327     53323     53322     53325     53323     53322     53324
     53324     53322     53325     53326     53322     53325     53326     53322     53324
     53326     53322     53323     53328     53332     53333     53329     53328     53331
     53329     53328     53330     53330     53328     53331     53332     53328     53331
     53332     53328     53330     53332     53328     53329     53334     53338     53339
     53335     53334     53337     53335     53334     53336     53336     53334     53337
     53338     53334     53337     53338     53334     53336     53338     53334     53335
     53340     53344     53345     53341     53340     53343     53341     53340     53342
     53342     53340     53343     53344     53340     53343     53344     53340     53342
     53344     53340     53341     53346     53350     53351     53347     53346     53349
     53347     53346     53348     53348     53346     53349     53350     53346     53349
     53350     53346     53348     53350     53346     53347     53352     53356     53357
     53353     53352     53355     53353     53352     53354     53354     53352     53355
     53356     53352     53355     53356     53352     53354     53356     53352     53353
     53358     53362     53363     53359     53358     53361     53359     53358     53360
     53360     53358     53361     53362     53358     53361     53362     53358     53360
     53362     53358     53359     53364     53368     53369     53365     53364     53367
     53365     53364     53366     53366     53364     53367     53368     53364     53367
     53368     53364     53366     53368     53364     53365     53370     53374     53375
     53371     53370     53373     53371     53370     53372     53372     53370     53373
     53374     53370     53373     53374     53370     53372     53374     53370     53371
     53376     53380     53381     53377     53376     53379     53377     53376     53378
     53378     53376     53379     53380     53376     53379     53380     53376     53378
     53380     53376     53377     53382     53386     53387     53383     53382     53385
     53383     53382     53384     53384     53382     53385     53386     53382     53385
     53386     53382     53384     53386     53382     53383     53388     53392     53393
     53389     53388     53391     53389     53388     53390     53390     53388     53391
     53392     53388     53391     53392     53388     53390     53392     53388     53389
     53394     53398     53399     53395     53394     53397     53395     53394     53396
     53396     53394     53397     53398     53394     53397     53398     53394     53396
     53398     53394     53395     53400     53404     53405     53401     53400     53403
     53401     53400     53402     53402     53400     53403     53404     53400     53403
     53404     53400     53402     53404     53400     53401     53406     53410     53411
     53407     53406     53409     53407     53406     53408     53408     53406     53409
     53410     53406     53409     53410     53406     53408     53410     53406     53407
     53412     53416     53417     53413     53412     53415     53413     53412     53414
     53414     53412     53415     53416     53412     53415     53416     53412     53414
     53416     53412     53413     53418     53422     53423     53419     53418     53421
     53419     53418     53420     53420     53418     53421     53422     53418     53421
     53422     53418     53420     53422     53418     53419     53424     53428     53429
     53425     53424     53427     53425     53424     53426     53426     53424     53427
     53428     53424     53427     53428     53424     53426     53428     53424     53425
     53430     53434     53435     53431     53430     53433     53431     53430     53432
     53432     53430     53433     53434     53430     53433     53434     53430     53432
     53434     53430     53431     53436     53440     53441     53437     53436     53439
     53437     53436     53438     53438     53436     53439     53440     53436     53439
     53440     53436     53438     53440     53436     53437     53442     53446     53447
     53443     53442     53445     53443     53442     53444     53444     53442     53445
     53446     53442     53445     53446     53442     53444     53446     53442     53443
     53448     53452     53453     53449     53448     53451     53449     53448     53450
     53450     53448     53451     53452     53448     53451     53452     53448     53450
     53452     53448     53449     53454     53458     53459     53455     53454     53457
     53455     53454     53456     53456     53454     53457     53458     53454     53457
     53458     53454     53456     53458     53454     53455     53460     53464     53465
     53461     53460     53463     53461     53460     53462     53462     53460     53463
     53464     53460     53463     53464     53460     53462     53464     53460     53461
     53466     53470     53471     53467     53466     53469     53467     53466     53468
     53468     53466     53469     53470     53466     53469     53470     53466     53468
     53470     53466     53467     53472     53476     53477     53473     53472     53475
     53473     53472     53474     53474     53472     53475     53476     53472     53475
     53476     53472     53474     53476     53472     53473     53478     53482     53483
     53479     53478     53481     53479     53478     53480     53480     53478     53481
     53482     53478     53481     53482     53478     53480     53482     53478     53479
     53484     53488     53489     53485     53484     53487     53485     53484     53486
     53486     53484     53487     53488     53484     53487     53488     53484     53486
     53488     53484     53485     53490     53494     53495     53491     53490     53493
     53491     53490     53492     53492     53490     53493     53494     53490     53493
     53494     53490     53492     53494     53490     53491     53496     53500     53501
     53497     53496     53499     53497     53496     53498     53498     53496     53499
     53500     53496     53499     53500     53496     53498     53500     53496     53497
     53502     53506     53507     53503     53502     53505     53503     53502     53504
     53504     53502     53505     53506     53502     53505     53506     53502     53504
     53506     53502     53503     53508     53512     53513     53509     53508     53511
     53509     53508     53510     53510     53508     53511     53512     53508     53511
     53512     53508     53510     53512     53508     53509     53514     53518     53519
     53515     53514     53517     53515     53514     53516     53516     53514     53517
     53518     53514     53517     53518     53514     53516     53518     53514     53515
     53520     53524     53525     53521     53520     53523     53521     53520     53522
     53522     53520     53523     53524     53520     53523     53524     53520     53522
     53524     53520     53521     53526     53530     53531     53527     53526     53529
     53527     53526     53528     53528     53526     53529     53530     53526     53529
     53530     53526     53528     53530     53526     53527     53532     53536     53537
     53533     53532     53535     53533     53532     53534     53534     53532     53535
     53536     53532     53535     53536     53532     53534     53536     53532     53533
     53538     53542     53543     53539     53538     53541     53539     53538     53540
     53540     53538     53541     53542     53538     53541     53542     53538     53540
     53542     53538     53539     53544     53548     53549     53545     53544     53547
     53545     53544     53546     53546     53544     53547     53548     53544     53547
     53548     53544     53546     53548     53544     53545     53550     53554     53555
     53551     53550     53553     53551     53550     53552     53552     53550     53553
     53554     53550     53553     53554     53550     53552     53554     53550     53551
     53556     53560     53561     53557     53556     53559     53557     53556     53558
     53558     53556     53559     53560     53556     53559     53560     53556     53558
     53560     53556     53557     53562     53566     53567     53563     53562     53565
     53563     53562     53564     53564     53562     53565     53566     53562     53565
     53566     53562     53564     53566     53562     53563     53568     53572     53573
     53569     53568     53571     53569     53568     53570     53570     53568     53571
     53572     53568     53571     53572     53568     53570     53572     53568     53569
     53574     53578     53579     53575     53574     53577     53575     53574     53576
     53576     53574     53577     53578     53574     53577     53578     53574     53576
     53578     53574     53575     53580     53584     53585     53581     53580     53583
     53581     53580     53582     53582     53580     53583     53584     53580     53583
     53584     53580     53582     53584     53580     53581     53586     53590     53591
     53587     53586     53589     53587     53586     53588     53588     53586     53589
     53590     53586     53589     53590     53586     53588     53590     53586     53587
     53592     53596     53597     53593     53592     53595     53593     53592     53594
     53594     53592     53595     53596     53592     53595     53596     53592     53594
     53596     53592     53593     53598     53602     53603     53599     53598     53601
     53599     53598     53600     53600     53598     53601     53602     53598     53601
     53602     53598     53600     53602     53598     53599     53604     53608     53609
     53605     53604     53607     53605     53604     53606     53606     53604     53607
     53608     53604     53607     53608     53604     53606     53608     53604     53605
     53610     53614     53615     53611     53610     53613     53611     53610     53612
     53612     53610     53613     53614     53610     53613     53614     53610     53612
     53614     53610     53611     53616     53620     53621     53617     53616     53619
     53617     53616     53618     53618     53616     53619     53620     53616     53619
     53620     53616     53618     53620     53616     53617     53622     53626     53627
     53623     53622     53625     53623     53622     53624     53624     53622     53625
     53626     53622     53625     53626     53622     53624     53626     53622     53623
     53628     53632     53633     53629     53628     53631     53629     53628     53630
     53630     53628     53631     53632     53628     53631     53632     53628     53630
     53632     53628     53629     53634     53638     53639     53635     53634     53637
     53635     53634     53636     53636     53634     53637     53638     53634     53637
     53638     53634     53636     53638     53634     53635     53640     53644     53645
     53641     53640     53643     53641     53640     53642     53642     53640     53643
     53644     53640     53643     53644     53640     53642     53644     53640     53641
     53646     53650     53651     53647     53646     53649     53647     53646     53648
     53648     53646     53649     53650     53646     53649     53650     53646     53648
     53650     53646     53647     53652     53656     53657     53653     53652     53655
     53653     53652     53654     53654     53652     53655     53656     53652     53655
     53656     53652     53654     53656     53652     53653     53658     53662     53663
     53659     53658     53661     53659     53658     53660     53660     53658     53661
     53662     53658     53661     53662     53658     53660     53662     53658     53659
     53664     53668     53669     53665     53664     53667     53665     53664     53666
     53666     53664     53667     53668     53664     53667     53668     53664     53666
     53668     53664     53665     53670     53674     53675     53671     53670     53673
     53671     53670     53672     53672     53670     53673     53674     53670     53673
     53674     53670     53672     53674     53670     53671     53676     53680     53681
     53677     53676     53679     53677     53676     53678     53678     53676     53679
     53680     53676     53679     53680     53676     53678     53680     53676     53677
     53682     53686     53687     53683     53682     53685     53683     53682     53684
     53684     53682     53685     53686     53682     53685     53686     53682     53684
     53686     53682     53683     53688     53692     53693     53689     53688     53691
     53689     53688     53690     53690     53688     53691     53692     53688     53691
     53692     53688     53690     53692     53688     53689     53694     53698     53699
     53695     53694     53697     53695     53694     53696     53696     53694     53697
     53698     53694     53697     53698     53694     53696     53698     53694     53695
     53700     53704     53705     53701     53700     53703     53701     53700     53702
     53702     53700     53703     53704     53700     53703     53704     53700     53702
     53704     53700     53701     53706     53710     53711     53707     53706     53709
     53707     53706     53708     53708     53706     53709     53710     53706     53709
     53710     53706     53708     53710     53706     53707     53712     53716     53717
     53713     53712     53715     53713     53712     53714     53714     53712     53715
     53716     53712     53715     53716     53712     53714     53716     53712     53713
     53718     53722     53723     53719     53718     53721     53719     53718     53720
     53720     53718     53721     53722     53718     53721     53722     53718     53720
     53722     53718     53719     53724     53728     53729     53725     53724     53727
     53725     53724     53726     53726     53724     53727     53728     53724     53727
     53728     53724     53726     53728     53724     53725     53730     53734     53735
     53731     53730     53733     53731     53730     53732     53732     53730     53733
     53734     53730     53733     53734     53730     53732     53734     53730     53731
     53736     53740     53741     53737     53736     53739     53737     53736     53738
     53738     53736     53739     53740     53736     53739     53740     53736     53738
     53740     53736     53737     53742     53746     53747     53743     53742     53745
     53743     53742     53744     53744     53742     53745     53746     53742     53745
     53746     53742     53744     53746     53742     53743     53748     53752     53753
     53749     53748     53751     53749     53748     53750     53750     53748     53751
     53752     53748     53751     53752     53748     53750     53752     53748     53749
     53754     53758     53759     53755     53754     53757     53755     53754     53756
     53756     53754     53757     53758     53754     53757     53758     53754     53756
     53758     53754     53755     53760     53764     53765     53761     53760     53763
     53761     53760     53762     53762     53760     53763     53764     53760     53763
     53764     53760     53762     53764     53760     53761     53766     53770     53771
     53767     53766     53769     53767     53766     53768     53768     53766     53769
     53770     53766     53769     53770     53766     53768     53770     53766     53767
     53772     53776     53777     53773     53772     53775     53773     53772     53774
     53774     53772     53775     53776     53772     53775     53776     53772     53774
     53776     53772     53773     53778     53782     53783     53779     53778     53781
     53779     53778     53780     53780     53778     53781     53782     53778     53781
     53782     53778     53780     53782     53778     53779     53784     53788     53789
     53785     53784     53787     53785     53784     53786     53786     53784     53787
     53788     53784     53787     53788     53784     53786     53788     53784     53785
     53790     53794     53795     53791     53790     53793     53791     53790     53792
     53792     53790     53793     53794     53790     53793     53794     53790     53792
     53794     53790     53791     53796     53800     53801     53797     53796     53799
     53797     53796     53798     53798     53796     53799     53800     53796     53799
     53800     53796     53798     53800     53796     53797     53802     53806     53807
     53803     53802     53805     53803     53802     53804     53804     53802     53805
     53806     53802     53805     53806     53802     53804     53806     53802     53803
     53808     53812     53813     53809     53808     53811     53809     53808     53810
     53810     53808     53811     53812     53808     53811     53812     53808     53810
     53812     53808     53809     53814     53818     53819     53815     53814     53817
     53815     53814     53816     53816     53814     53817     53818     53814     53817
     53818     53814     53816     53818     53814     53815     53820     53824     53825
     53821     53820     53823     53821     53820     53822     53822     53820     53823
     53824     53820     53823     53824     53820     53822     53824     53820     53821
     53826     53830     53831     53827     53826     53829     53827     53826     53828
     53828     53826     53829     53830     53826     53829     53830     53826     53828
     53830     53826     53827     53832     53836     53837     53833     53832     53835
     53833     53832     53834     53834     53832     53835     53836     53832     53835
     53836     53832     53834     53836     53832     53833     53838     53842     53843
     53839     53838     53841     53839     53838     53840     53840     53838     53841
     53842     53838     53841     53842     53838     53840     53842     53838     53839
     53844     53848     53849     53845     53844     53847     53845     53844     53846
     53846     53844     53847     53848     53844     53847     53848     53844     53846
     53848     53844     53845     53850     53854     53855     53851     53850     53853
     53851     53850     53852     53852     53850     53853     53854     53850     53853
     53854     53850     53852     53854     53850     53851     53856     53860     53861
     53857     53856     53859     53857     53856     53858     53858     53856     53859
     53860     53856     53859     53860     53856     53858     53860     53856     53857
     53862     53866     53867     53863     53862     53865     53863     53862     53864
     53864     53862     53865     53866     53862     53865     53866     53862     53864
     53866     53862     53863     53868     53872     53873     53869     53868     53871
     53869     53868     53870     53870     53868     53871     53872     53868     53871
     53872     53868     53870     53872     53868     53869     53874     53878     53879
     53875     53874     53877     53875     53874     53876     53876     53874     53877
     53878     53874     53877     53878     53874     53876     53878     53874     53875
     53880     53884     53885     53881     53880     53883     53881     53880     53882
     53882     53880     53883     53884     53880     53883     53884     53880     53882
     53884     53880     53881     53886     53890     53891     53887     53886     53889
     53887     53886     53888     53888     53886     53889     53890     53886     53889
     53890     53886     53888     53890     53886     53887     53892     53896     53897
     53893     53892     53895     53893     53892     53894     53894     53892     53895
     53896     53892     53895     53896     53892     53894     53896     53892     53893
     53898     53902     53903     53899     53898     53901     53899     53898     53900
     53900     53898     53901     53902     53898     53901     53902     53898     53900
     53902     53898     53899     53904     53908     53909     53905     53904     53907
     53905     53904     53906     53906     53904     53907     53908     53904     53907
     53908     53904     53906     53908     53904     53905     53910     53914     53915
     53911     53910     53913     53911     53910     53912     53912     53910     53913
     53914     53910     53913     53914     53910     53912     53914     53910     53911
     53916     53920     53921     53917     53916     53919     53917     53916     53918
     53918     53916     53919     53920     53916     53919     53920     53916     53918
     53920     53916     53917     53922     53926     53927     53923     53922     53925
     53923     53922     53924     53924     53922     53925     53926     53922     53925
     53926     53922     53924     53926     53922     53923     53928     53932     53933
     53929     53928     53931     53929     53928     53930     53930     53928     53931
     53932     53928     53931     53932     53928     53930     53932     53928     53929
     53934     53938     53939     53935     53934     53937     53935     53934     53936
     53936     53934     53937     53938     53934     53937     53938     53934     53936
     53938     53934     53935     53940     53944     53945     53941     53940     53943
     53941     53940     53942     53942     53940     53943     53944     53940     53943
     53944     53940     53942     53944     53940     53941     53946     53950     53951
     53947     53946     53949     53947     53946     53948     53948     53946     53949
     53950     53946     53949     53950     53946     53948     53950     53946     53947
     53952     53956     53957     53953     53952     53955     53953     53952     53954
     53954     53952     53955     53956     53952     53955     53956     53952     53954
     53956     53952     53953     53958     53962     53963     53959     53958     53961
     53959     53958     53960     53960     53958     53961     53962     53958     53961
     53962     53958     53960     53962     53958     53959     53964     53968     53969
     53965     53964     53967     53965     53964     53966     53966     53964     53967
     53968     53964     53967     53968     53964     53966     53968     53964     53965
     53970     53974     53975     53971     53970     53973     53971     53970     53972
     53972     53970     53973     53974     53970     53973     53974     53970     53972
     53974     53970     53971     53976     53980     53981     53977     53976     53979
     53977     53976     53978     53978     53976     53979     53980     53976     53979
     53980     53976     53978     53980     53976     53977     53982     53986     53987
     53983     53982     53985     53983     53982     53984     53984     53982     53985
     53986     53982     53985     53986     53982     53984     53986     53982     53983
     53988     53992     53993     53989     53988     53991     53989     53988     53990
     53990     53988     53991     53992     53988     53991     53992     53988     53990
     53992     53988     53989     53994     53998     53999     53995     53994     53997
     53995     53994     53996     53996     53994     53997     53998     53994     53997
     53998     53994     53996     53998     53994     53995     54000     54004     54005
     54001     54000     54003     54001     54000     54002     54002     54000     54003
     54004     54000     54003     54004     54000     54002     54004     54000     54001
     54006     54010     54011     54007     54006     54009     54007     54006     54008
     54008     54006     54009     54010     54006     54009     54010     54006     54008
     54010     54006     54007     54012     54016     54017     54013     54012     54015
     54013     54012     54014     54014     54012     54015     54016     54012     54015
     54016     54012     54014     54016     54012     54013     54018     54022     54023
     54019     54018     54021     54019     54018     54020     54020     54018     54021
     54022     54018     54021     54022     54018     54020     54022     54018     54019
     54024     54028     54029     54025     54024     54027     54025     54024     54026
     54026     54024     54027     54028     54024     54027     54028     54024     54026
     54028     54024     54025     54030     54034     54035     54031     54030     54033
     54031     54030     54032     54032     54030     54033     54034     54030     54033
     54034     54030     54032     54034     54030     54031     54036     54040     54041
     54037     54036     54039     54037     54036     54038     54038     54036     54039
     54040     54036     54039     54040     54036     54038     54040     54036     54037
     54042     54046     54047     54043     54042     54045     54043     54042     54044
     54044     54042     54045     54046     54042     54045     54046     54042     54044
     54046     54042     54043     54048     54052     54053     54049     54048     54051
     54049     54048     54050     54050     54048     54051     54052     54048     54051
     54052     54048     54050     54052     54048     54049     54054     54058     54059
     54055     54054     54057     54055     54054     54056     54056     54054     54057
     54058     54054     54057     54058     54054     54056     54058     54054     54055
     54060     54064     54065     54061     54060     54063     54061     54060     54062
     54062     54060     54063     54064     54060     54063     54064     54060     54062
     54064     54060     54061     54066     54070     54071     54067     54066     54069
     54067     54066     54068     54068     54066     54069     54070     54066     54069
     54070     54066     54068     54070     54066     54067     54072     54076     54077
     54073     54072     54075     54073     54072     54074     54074     54072     54075
     54076     54072     54075     54076     54072     54074     54076     54072     54073
     54078     54082     54083     54079     54078     54081     54079     54078     54080
     54080     54078     54081     54082     54078     54081     54082     54078     54080
     54082     54078     54079     54084     54088     54089     54085     54084     54087
     54085     54084     54086     54086     54084     54087     54088     54084     54087
     54088     54084     54086     54088     54084     54085     54090     54094     54095
     54091     54090     54093     54091     54090     54092     54092     54090     54093
     54094     54090     54093     54094     54090     54092     54094     54090     54091
     54096     54100     54101     54097     54096     54099     54097     54096     54098
     54098     54096     54099     54100     54096     54099     54100     54096     54098
     54100     54096     54097     54102     54106     54107     54103     54102     54105
     54103     54102     54104     54104     54102     54105     54106     54102     54105
     54106     54102     54104     54106     54102     54103     54108     54112     54113
     54109     54108     54111     54109     54108     54110     54110     54108     54111
     54112     54108     54111     54112     54108     54110     54112     54108     54109
     54114     54118     54119     54115     54114     54117     54115     54114     54116
     54116     54114     54117     54118     54114     54117     54118     54114     54116
     54118     54114     54115     54120     54124     54125     54121     54120     54123
     54121     54120     54122     54122     54120     54123     54124     54120     54123
     54124     54120     54122     54124     54120     54121     54126     54130     54131
     54127     54126     54129     54127     54126     54128     54128     54126     54129
     54130     54126     54129     54130     54126     54128     54130     54126     54127
     54132     54136     54137     54133     54132     54135     54133     54132     54134
     54134     54132     54135     54136     54132     54135     54136     54132     54134
     54136     54132     54133     54138     54142     54143     54139     54138     54141
     54139     54138     54140     54140     54138     54141     54142     54138     54141
     54142     54138     54140     54142     54138     54139     54144     54148     54149
     54145     54144     54147     54145     54144     54146     54146     54144     54147
     54148     54144     54147     54148     54144     54146     54148     54144     54145
     54150     54154     54155     54151     54150     54153     54151     54150     54152
     54152     54150     54153     54154     54150     54153     54154     54150     54152
     54154     54150     54151     54156     54160     54161     54157     54156     54159
     54157     54156     54158     54158     54156     54159     54160     54156     54159
     54160     54156     54158     54160     54156     54157     54162     54166     54167
     54163     54162     54165     54163     54162     54164     54164     54162     54165
     54166     54162     54165     54166     54162     54164     54166     54162     54163
     54168     54172     54173     54169     54168     54171     54169     54168     54170
     54170     54168     54171     54172     54168     54171     54172     54168     54170
     54172     54168     54169     54174     54178     54179     54175     54174     54177
     54175     54174     54176     54176     54174     54177     54178     54174     54177
     54178     54174     54176     54178     54174     54175     54180     54184     54185
     54181     54180     54183     54181     54180     54182     54182     54180     54183
     54184     54180     54183     54184     54180     54182     54184     54180     54181
     54186     54190     54191     54187     54186     54189     54187     54186     54188
     54188     54186     54189     54190     54186     54189     54190     54186     54188
     54190     54186     54187     54192     54196     54197     54193     54192     54195
     54193     54192     54194     54194     54192     54195     54196     54192     54195
     54196     54192     54194     54196     54192     54193     54198     54202     54203
     54199     54198     54201     54199     54198     54200     54200     54198     54201
     54202     54198     54201     54202     54198     54200     54202     54198     54199
     54204     54208     54209     54205     54204     54207     54205     54204     54206
     54206     54204     54207     54208     54204     54207     54208     54204     54206
     54208     54204     54205     54210     54214     54215     54211     54210     54213
     54211     54210     54212     54212     54210     54213     54214     54210     54213
     54214     54210     54212     54214     54210     54211     54216     54220     54221
     54217     54216     54219     54217     54216     54218     54218     54216     54219
     54220     54216     54219     54220     54216     54218     54220     54216     54217
     54222     54226     54227     54223     54222     54225     54223     54222     54224
     54224     54222     54225     54226     54222     54225     54226     54222     54224
     54226     54222     54223     54228     54232     54233     54229     54228     54231
     54229     54228     54230     54230     54228     54231     54232     54228     54231
     54232     54228     54230     54232     54228     54229     54234     54238     54239
     54235     54234     54237     54235     54234     54236     54236     54234     54237
     54238     54234     54237     54238     54234     54236     54238     54234     54235
     54240     54244     54245     54241     54240     54243     54241     54240     54242
     54242     54240     54243     54244     54240     54243     54244     54240     54242
     54244     54240     54241     54246     54250     54251     54247     54246     54249
     54247     54246     54248     54248     54246     54249     54250     54246     54249
     54250     54246     54248     54250     54246     54247     54252     54256     54257
     54253     54252     54255     54253     54252     54254     54254     54252     54255
     54256     54252     54255     54256     54252     54254     54256     54252     54253
     54258     54262     54263     54259     54258     54261     54259     54258     54260
     54260     54258     54261     54262     54258     54261     54262     54258     54260
     54262     54258     54259     54264     54268     54269     54265     54264     54267
     54265     54264     54266     54266     54264     54267     54268     54264     54267
     54268     54264     54266     54268     54264     54265     54270     54274     54275
     54271     54270     54273     54271     54270     54272     54272     54270     54273
     54274     54270     54273     54274     54270     54272     54274     54270     54271
     54276     54280     54281     54277     54276     54279     54277     54276     54278
     54278     54276     54279     54280     54276     54279     54280     54276     54278
     54280     54276     54277     54282     54286     54287     54283     54282     54285
     54283     54282     54284     54284     54282     54285     54286     54282     54285
     54286     54282     54284     54286     54282     54283     54288     54292     54293
     54289     54288     54291     54289     54288     54290     54290     54288     54291
     54292     54288     54291     54292     54288     54290     54292     54288     54289
     54294     54298     54299     54295     54294     54297     54295     54294     54296
     54296     54294     54297     54298     54294     54297     54298     54294     54296
     54298     54294     54295     54300     54304     54305     54301     54300     54303
     54301     54300     54302     54302     54300     54303     54304     54300     54303
     54304     54300     54302     54304     54300     54301     54306     54310     54311
     54307     54306     54309     54307     54306     54308     54308     54306     54309
     54310     54306     54309     54310     54306     54308     54310     54306     54307
     54312     54316     54317     54313     54312     54315     54313     54312     54314
     54314     54312     54315     54316     54312     54315     54316     54312     54314
     54316     54312     54313     54318     54322     54323     54319     54318     54321
     54319     54318     54320     54320     54318     54321     54322     54318     54321
     54322     54318     54320     54322     54318     54319     54324     54328     54329
     54325     54324     54327     54325     54324     54326     54326     54324     54327
     54328     54324     54327     54328     54324     54326     54328     54324     54325
     54330     54334     54335     54331     54330     54333     54331     54330     54332
     54332     54330     54333     54334     54330     54333     54334     54330     54332
     54334     54330     54331     54336     54340     54341     54337     54336     54339
     54337     54336     54338     54338     54336     54339     54340     54336     54339
     54340     54336     54338     54340     54336     54337     54342     54346     54347
     54343     54342     54345     54343     54342     54344     54344     54342     54345
     54346     54342     54345     54346     54342     54344     54346     54342     54343
     54348     54352     54353     54349     54348     54351     54349     54348     54350
     54350     54348     54351     54352     54348     54351     54352     54348     54350
     54352     54348     54349     54354     54358     54359     54355     54354     54357
     54355     54354     54356     54356     54354     54357     54358     54354     54357
     54358     54354     54356     54358     54354     54355     54360     54364     54365
     54361     54360     54363     54361     54360     54362     54362     54360     54363
     54364     54360     54363     54364     54360     54362     54364     54360     54361
     54366     54370     54371     54367     54366     54369     54367     54366     54368
     54368     54366     54369     54370     54366     54369     54370     54366     54368
     54370     54366     54367     54372     54376     54377     54373     54372     54375
     54373     54372     54374     54374     54372     54375     54376     54372     54375
     54376     54372     54374     54376     54372     54373     54378     54382     54383
     54379     54378     54381     54379     54378     54380     54380     54378     54381
     54382     54378     54381     54382     54378     54380     54382     54378     54379
     54384     54388     54389     54385     54384     54387     54385     54384     54386
     54386     54384     54387     54388     54384     54387     54388     54384     54386
     54388     54384     54385     54390     54394     54395     54391     54390     54393
     54391     54390     54392     54392     54390     54393     54394     54390     54393
     54394     54390     54392     54394     54390     54391     54396     54400     54401
     54397     54396     54399     54397     54396     54398     54398     54396     54399
     54400     54396     54399     54400     54396     54398     54400     54396     54397
     54402     54406     54407     54403     54402     54405     54403     54402     54404
     54404     54402     54405     54406     54402     54405     54406     54402     54404
     54406     54402     54403     54408     54412     54413     54409     54408     54411
     54409     54408     54410     54410     54408     54411     54412     54408     54411
     54412     54408     54410     54412     54408     54409     54414     54418     54419
     54415     54414     54417     54415     54414     54416     54416     54414     54417
     54418     54414     54417     54418     54414     54416     54418     54414     54415
     54420     54424     54425     54421     54420     54423     54421     54420     54422
     54422     54420     54423     54424     54420     54423     54424     54420     54422
     54424     54420     54421     54426     54430     54431     54427     54426     54429
     54427     54426     54428     54428     54426     54429     54430     54426     54429
     54430     54426     54428     54430     54426     54427     54432     54436     54437
     54433     54432     54435     54433     54432     54434     54434     54432     54435
     54436     54432     54435     54436     54432     54434     54436     54432     54433
     54438     54442     54443     54439     54438     54441     54439     54438     54440
     54440     54438     54441     54442     54438     54441     54442     54438     54440
     54442     54438     54439     54444     54448     54449     54445     54444     54447
     54445     54444     54446     54446     54444     54447     54448     54444     54447
     54448     54444     54446     54448     54444     54445     54450     54454     54455
     54451     54450     54453     54451     54450     54452     54452     54450     54453
     54454     54450     54453     54454     54450     54452     54454     54450     54451
     54456     54460     54461     54457     54456     54459     54457     54456     54458
     54458     54456     54459     54460     54456     54459     54460     54456     54458
     54460     54456     54457     54462     54466     54467     54463     54462     54465
     54463     54462     54464     54464     54462     54465     54466     54462     54465
     54466     54462     54464     54466     54462     54463     54468     54472     54473
     54469     54468     54471     54469     54468     54470     54470     54468     54471
     54472     54468     54471     54472     54468     54470     54472     54468     54469
     54474     54478     54479     54475     54474     54477     54475     54474     54476
     54476     54474     54477     54478     54474     54477     54478     54474     54476
     54478     54474     54475     54480     54484     54485     54481     54480     54483
     54481     54480     54482     54482     54480     54483     54484     54480     54483
     54484     54480     54482     54484     54480     54481     54486     54490     54491
     54487     54486     54489     54487     54486     54488     54488     54486     54489
     54490     54486     54489     54490     54486     54488     54490     54486     54487
     54492     54496     54497     54493     54492     54495     54493     54492     54494
     54494     54492     54495     54496     54492     54495     54496     54492     54494
     54496     54492     54493     54498     54502     54503     54499     54498     54501
     54499     54498     54500     54500     54498     54501     54502     54498     54501
     54502     54498     54500     54502     54498     54499     54504     54508     54509
     54505     54504     54507     54505     54504     54506     54506     54504     54507
     54508     54504     54507     54508     54504     54506     54508     54504     54505
     54510     54514     54515     54511     54510     54513     54511     54510     54512
     54512     54510     54513     54514     54510     54513     54514     54510     54512
     54514     54510     54511     54516     54520     54521     54517     54516     54519
     54517     54516     54518     54518     54516     54519     54520     54516     54519
     54520     54516     54518     54520     54516     54517     54522     54526     54527
     54523     54522     54525     54523     54522     54524     54524     54522     54525
     54526     54522     54525     54526     54522     54524     54526     54522     54523
     54528     54532     54533     54529     54528     54531     54529     54528     54530
     54530     54528     54531     54532     54528     54531     54532     54528     54530
     54532     54528     54529     54534     54538     54539     54535     54534     54537
     54535     54534     54536     54536     54534     54537     54538     54534     54537
     54538     54534     54536     54538     54534     54535     54540     54544     54545
     54541     54540     54543     54541     54540     54542     54542     54540     54543
     54544     54540     54543     54544     54540     54542     54544     54540     54541
     54546     54550     54551     54547     54546     54549     54547     54546     54548
     54548     54546     54549     54550     54546     54549     54550     54546     54548
     54550     54546     54547     54552     54556     54557     54553     54552     54555
     54553     54552     54554     54554     54552     54555     54556     54552     54555
     54556     54552     54554     54556     54552     54553     54558     54562     54563
     54559     54558     54561     54559     54558     54560     54560     54558     54561
     54562     54558     54561     54562     54558     54560     54562     54558     54559
     54564     54568     54569     54565     54564     54567     54565     54564     54566
     54566     54564     54567     54568     54564     54567     54568     54564     54566
     54568     54564     54565     54570     54574     54575     54571     54570     54573
     54571     54570     54572     54572     54570     54573     54574     54570     54573
     54574     54570     54572     54574     54570     54571     54576     54580     54581
     54577     54576     54579     54577     54576     54578     54578     54576     54579
     54580     54576     54579     54580     54576     54578     54580     54576     54577
     54582     54586     54587     54583     54582     54585     54583     54582     54584
     54584     54582     54585     54586     54582     54585     54586     54582     54584
     54586     54582     54583     54588     54592     54593     54589     54588     54591
     54589     54588     54590     54590     54588     54591     54592     54588     54591
     54592     54588     54590     54592     54588     54589     54594     54598     54599
     54595     54594     54597     54595     54594     54596     54596     54594     54597
     54598     54594     54597     54598     54594     54596     54598     54594     54595
     54600     54604     54605     54601     54600     54603     54601     54600     54602
     54602     54600     54603     54604     54600     54603     54604     54600     54602
     54604     54600     54601     54606     54610     54611     54607     54606     54609
     54607     54606     54608     54608     54606     54609     54610     54606     54609
     54610     54606     54608     54610     54606     54607     54612     54616     54617
     54613     54612     54615     54613     54612     54614     54614     54612     54615
     54616     54612     54615     54616     54612     54614     54616     54612     54613
     54618     54622     54623     54619     54618     54621     54619     54618     54620
     54620     54618     54621     54622     54618     54621     54622     54618     54620
     54622     54618     54619     54624     54628     54629     54625     54624     54627
     54625     54624     54626     54626     54624     54627     54628     54624     54627
     54628     54624     54626     54628     54624     54625     54630     54634     54635
     54631     54630     54633     54631     54630     54632     54632     54630     54633
     54634     54630     54633     54634     54630     54632     54634     54630     54631
     54636     54640     54641     54637     54636     54639     54637     54636     54638
     54638     54636     54639     54640     54636     54639     54640     54636     54638
     54640     54636     54637     54642     54646     54647     54643     54642     54645
     54643     54642     54644     54644     54642     54645     54646     54642     54645
     54646     54642     54644     54646     54642     54643     54648     54652     54653
     54649     54648     54651     54649     54648     54650     54650     54648     54651
     54652     54648     54651     54652     54648     54650     54652     54648     54649
     54654     54658     54659     54655     54654     54657     54655     54654     54656
     54656     54654     54657     54658     54654     54657     54658     54654     54656
     54658     54654     54655     54660     54664     54665     54661     54660     54663
     54661     54660     54662     54662     54660     54663     54664     54660     54663
     54664     54660     54662     54664     54660     54661     54666     54670     54671
     54667     54666     54669     54667     54666     54668     54668     54666     54669
     54670     54666     54669     54670     54666     54668     54670     54666     54667
     54672     54676     54677     54673     54672     54675     54673     54672     54674
     54674     54672     54675     54676     54672     54675     54676     54672     54674
     54676     54672     54673     54678     54682     54683     54679     54678     54681
     54679     54678     54680     54680     54678     54681     54682     54678     54681
     54682     54678     54680     54682     54678     54679     54684     54688     54689
     54685     54684     54687     54685     54684     54686     54686     54684     54687
     54688     54684     54687     54688     54684     54686     54688     54684     54685
     54690     54694     54695     54691     54690     54693     54691     54690     54692
     54692     54690     54693     54694     54690     54693     54694     54690     54692
     54694     54690     54691     54696     54700     54701     54697     54696     54699
     54697     54696     54698     54698     54696     54699     54700     54696     54699
     54700     54696     54698     54700     54696     54697     54702     54706     54707
     54703     54702     54705     54703     54702     54704     54704     54702     54705
     54706     54702     54705     54706     54702     54704     54706     54702     54703
     54708     54712     54713     54709     54708     54711     54709     54708     54710
     54710     54708     54711     54712     54708     54711     54712     54708     54710
     54712     54708     54709     54714     54718     54719     54715     54714     54717
     54715     54714     54716     54716     54714     54717     54718     54714     54717
     54718     54714     54716     54718     54714     54715     54720     54724     54725
     54721     54720     54723     54721     54720     54722     54722     54720     54723
     54724     54720     54723     54724     54720     54722     54724     54720     54721
     54726     54730     54731     54727     54726     54729     54727     54726     54728
     54728     54726     54729     54730     54726     54729     54730     54726     54728
     54730     54726     54727     54732     54736     54737     54733     54732     54735
     54733     54732     54734     54734     54732     54735     54736     54732     54735
     54736     54732     54734     54736     54732     54733     54738     54742     54743
     54739     54738     54741     54739     54738     54740     54740     54738     54741
     54742     54738     54741     54742     54738     54740     54742     54738     54739
     54744     54748     54749     54745     54744     54747     54745     54744     54746
     54746     54744     54747     54748     54744     54747     54748     54744     54746
     54748     54744     54745     54750     54754     54755     54751     54750     54753
     54751     54750     54752     54752     54750     54753     54754     54750     54753
     54754     54750     54752     54754     54750     54751     54756     54760     54761
     54757     54756     54759     54757     54756     54758     54758     54756     54759
     54760     54756     54759     54760     54756     54758     54760     54756     54757
     54762     54766     54767     54763     54762     54765     54763     54762     54764
     54764     54762     54765     54766     54762     54765     54766     54762     54764
     54766     54762     54763     54768     54772     54773     54769     54768     54771
     54769     54768     54770     54770     54768     54771     54772     54768     54771
     54772     54768     54770     54772     54768     54769     54774     54778     54779
     54775     54774     54777     54775     54774     54776     54776     54774     54777
     54778     54774     54777     54778     54774     54776     54778     54774     54775
     54780     54784     54785     54781     54780     54783     54781     54780     54782
     54782     54780     54783     54784     54780     54783     54784     54780     54782
     54784     54780     54781     54786     54790     54791     54787     54786     54789
     54787     54786     54788     54788     54786     54789     54790     54786     54789
     54790     54786     54788     54790     54786     54787     54792     54796     54797
     54793     54792     54795     54793     54792     54794     54794     54792     54795
     54796     54792     54795     54796     54792     54794     54796     54792     54793
     54798     54802     54803     54799     54798     54801     54799     54798     54800
     54800     54798     54801     54802     54798     54801     54802     54798     54800
     54802     54798     54799     54804     54808     54809     54805     54804     54807
     54805     54804     54806     54806     54804     54807     54808     54804     54807
     54808     54804     54806     54808     54804     54805     54810     54814     54815
     54811     54810     54813     54811     54810     54812     54812     54810     54813
     54814     54810     54813     54814     54810     54812     54814     54810     54811
     54816     54820     54821     54817     54816     54819     54817     54816     54818
     54818     54816     54819     54820     54816     54819     54820     54816     54818
     54820     54816     54817     54822     54826     54827     54823     54822     54825
     54823     54822     54824     54824     54822     54825     54826     54822     54825
     54826     54822     54824     54826     54822     54823     54828     54832     54833
     54829     54828     54831     54829     54828     54830     54830     54828     54831
     54832     54828     54831     54832     54828     54830     54832     54828     54829
     54834     54838     54839     54835     54834     54837     54835     54834     54836
     54836     54834     54837     54838     54834     54837     54838     54834     54836
     54838     54834     54835     54840     54844     54845     54841     54840     54843
     54841     54840     54842     54842     54840     54843     54844     54840     54843
     54844     54840     54842     54844     54840     54841     54846     54850     54851
     54847     54846     54849     54847     54846     54848     54848     54846     54849
     54850     54846     54849     54850     54846     54848     54850     54846     54847
     54852     54856     54857     54853     54852     54855     54853     54852     54854
     54854     54852     54855     54856     54852     54855     54856     54852     54854
     54856     54852     54853     54858     54862     54863     54859     54858     54861
     54859     54858     54860     54860     54858     54861     54862     54858     54861
     54862     54858     54860     54862     54858     54859     54864     54868     54869
     54865     54864     54867     54865     54864     54866     54866     54864     54867
     54868     54864     54867     54868     54864     54866     54868     54864     54865
     54870     54874     54875     54871     54870     54873     54871     54870     54872
     54872     54870     54873     54874     54870     54873     54874     54870     54872
     54874     54870     54871     54876     54880     54881     54877     54876     54879
     54877     54876     54878     54878     54876     54879     54880     54876     54879
     54880     54876     54878     54880     54876     54877     54882     54886     54887
     54883     54882     54885     54883     54882     54884     54884     54882     54885
     54886     54882     54885     54886     54882     54884     54886     54882     54883
     54888     54892     54893     54889     54888     54891     54889     54888     54890
     54890     54888     54891     54892     54888     54891     54892     54888     54890
     54892     54888     54889     54894     54898     54899     54895     54894     54897
     54895     54894     54896     54896     54894     54897     54898     54894     54897
     54898     54894     54896     54898     54894     54895     54900     54904     54905
     54901     54900     54903     54901     54900     54902     54902     54900     54903
     54904     54900     54903     54904     54900     54902     54904     54900     54901
     54906     54910     54911     54907     54906     54909     54907     54906     54908
     54908     54906     54909     54910     54906     54909     54910     54906     54908
     54910     54906     54907     54912     54916     54917     54913     54912     54915
     54913     54912     54914     54914     54912     54915     54916     54912     54915
     54916     54912     54914     54916     54912     54913     54918     54922     54923
     54919     54918     54921     54919     54918     54920     54920     54918     54921
     54922     54918     54921     54922     54918     54920     54922     54918     54919
     54924     54928     54929     54925     54924     54927     54925     54924     54926
     54926     54924     54927     54928     54924     54927     54928     54924     54926
     54928     54924     54925     54930     54934     54935     54931     54930     54933
     54931     54930     54932     54932     54930     54933     54934     54930     54933
     54934     54930     54932     54934     54930     54931     54936     54940     54941
     54937     54936     54939     54937     54936     54938     54938     54936     54939
     54940     54936     54939     54940     54936     54938     54940     54936     54937
     54942     54946     54947     54943     54942     54945     54943     54942     54944
     54944     54942     54945     54946     54942     54945     54946     54942     54944
     54946     54942     54943     54948     54952     54953     54949     54948     54951
     54949     54948     54950     54950     54948     54951     54952     54948     54951
     54952     54948     54950     54952     54948     54949     54954     54958     54959
     54955     54954     54957     54955     54954     54956     54956     54954     54957
     54958     54954     54957     54958     54954     54956     54958     54954     54955
     54960     54964     54965     54961     54960     54963     54961     54960     54962
     54962     54960     54963     54964     54960     54963     54964     54960     54962
     54964     54960     54961     54966     54970     54971     54967     54966     54969
     54967     54966     54968     54968     54966     54969     54970     54966     54969
     54970     54966     54968     54970     54966     54967     54972     54976     54977
     54973     54972     54975     54973     54972     54974     54974     54972     54975
     54976     54972     54975     54976     54972     54974     54976     54972     54973
     54978     54982     54983     54979     54978     54981     54979     54978     54980
     54980     54978     54981     54982     54978     54981     54982     54978     54980
     54982     54978     54979     54984     54988     54989     54985     54984     54987
     54985     54984     54986     54986     54984     54987     54988     54984     54987
     54988     54984     54986     54988     54984     54985     54990     54994     54995
     54991     54990     54993     54991     54990     54992     54992     54990     54993
     54994     54990     54993     54994     54990     54992     54994     54990     54991
     54996     55000     55001     54997     54996     54999     54997     54996     54998
     54998     54996     54999     55000     54996     54999     55000     54996     54998
     55000     54996     54997     55002     55006     55007     55003     55002     55005
     55003     55002     55004     55004     55002     55005     55006     55002     55005
     55006     55002     55004     55006     55002     55003     55008     55012     55013
     55009     55008     55011     55009     55008     55010     55010     55008     55011
     55012     55008     55011     55012     55008     55010     55012     55008     55009
     55014     55018     55019     55015     55014     55017     55015     55014     55016
     55016     55014     55017     55018     55014     55017     55018     55014     55016
     55018     55014     55015     55020     55024     55025     55021     55020     55023
     55021     55020     55022     55022     55020     55023     55024     55020     55023
     55024     55020     55022     55024     55020     55021     55026     55030     55031
     55027     55026     55029     55027     55026     55028     55028     55026     55029
     55030     55026     55029     55030     55026     55028     55030     55026     55027
     55032     55036     55037     55033     55032     55035     55033     55032     55034
     55034     55032     55035     55036     55032     55035     55036     55032     55034
     55036     55032     55033     55038     55042     55043     55039     55038     55041
     55039     55038     55040     55040     55038     55041     55042     55038     55041
     55042     55038     55040     55042     55038     55039     55044     55048     55049
     55045     55044     55047     55045     55044     55046     55046     55044     55047
     55048     55044     55047     55048     55044     55046     55048     55044     55045
     55050     55054     55055     55051     55050     55053     55051     55050     55052
     55052     55050     55053     55054     55050     55053     55054     55050     55052
     55054     55050     55051     55056     55060     55061     55057     55056     55059
     55057     55056     55058     55058     55056     55059     55060     55056     55059
     55060     55056     55058     55060     55056     55057     55062     55066     55067
     55063     55062     55065     55063     55062     55064     55064     55062     55065
     55066     55062     55065     55066     55062     55064     55066     55062     55063
     55068     55072     55073     55069     55068     55071     55069     55068     55070
     55070     55068     55071     55072     55068     55071     55072     55068     55070
     55072     55068     55069     55074     55078     55079     55075     55074     55077
     55075     55074     55076     55076     55074     55077     55078     55074     55077
     55078     55074     55076     55078     55074     55075     55080     55084     55085
     55081     55080     55083     55081     55080     55082     55082     55080     55083
     55084     55080     55083     55084     55080     55082     55084     55080     55081
     55086     55090     55091     55087     55086     55089     55087     55086     55088
     55088     55086     55089     55090     55086     55089     55090     55086     55088
     55090     55086     55087     55092     55096     55097     55093     55092     55095
     55093     55092     55094     55094     55092     55095     55096     55092     55095
     55096     55092     55094     55096     55092     55093     55098     55102     55103
     55099     55098     55101     55099     55098     55100     55100     55098     55101
     55102     55098     55101     55102     55098     55100     55102     55098     55099
     55104     55108     55109     55105     55104     55107     55105     55104     55106
     55106     55104     55107     55108     55104     55107     55108     55104     55106
     55108     55104     55105     55110     55114     55115     55111     55110     55113
     55111     55110     55112     55112     55110     55113     55114     55110     55113
     55114     55110     55112     55114     55110     55111     55116     55120     55121
     55117     55116     55119     55117     55116     55118     55118     55116     55119
     55120     55116     55119     55120     55116     55118     55120     55116     55117
     55122     55126     55127     55123     55122     55125     55123     55122     55124
     55124     55122     55125     55126     55122     55125     55126     55122     55124
     55126     55122     55123     55128     55132     55133     55129     55128     55131
     55129     55128     55130     55130     55128     55131     55132     55128     55131
     55132     55128     55130     55132     55128     55129     55134     55138     55139
     55135     55134     55137     55135     55134     55136     55136     55134     55137
     55138     55134     55137     55138     55134     55136     55138     55134     55135
     55140     55144     55145     55141     55140     55143     55141     55140     55142
     55142     55140     55143     55144     55140     55143     55144     55140     55142
     55144     55140     55141     55146     55150     55151     55147     55146     55149
     55147     55146     55148     55148     55146     55149     55150     55146     55149
     55150     55146     55148     55150     55146     55147     55152     55156     55157
     55153     55152     55155     55153     55152     55154     55154     55152     55155
     55156     55152     55155     55156     55152     55154     55156     55152     55153
     55158     55162     55163     55159     55158     55161     55159     55158     55160
     55160     55158     55161     55162     55158     55161     55162     55158     55160
     55162     55158     55159     55164     55168     55169     55165     55164     55167
     55165     55164     55166     55166     55164     55167     55168     55164     55167
     55168     55164     55166     55168     55164     55165     55170     55174     55175
     55171     55170     55173     55171     55170     55172     55172     55170     55173
     55174     55170     55173     55174     55170     55172     55174     55170     55171
     55176     55180     55181     55177     55176     55179     55177     55176     55178
     55178     55176     55179     55180     55176     55179     55180     55176     55178
     55180     55176     55177     55182     55186     55187     55183     55182     55185
     55183     55182     55184     55184     55182     55185     55186     55182     55185
     55186     55182     55184     55186     55182     55183     55188     55192     55193
     55189     55188     55191     55189     55188     55190     55190     55188     55191
     55192     55188     55191     55192     55188     55190     55192     55188     55189
     55194     55198     55199     55195     55194     55197     55195     55194     55196
     55196     55194     55197     55198     55194     55197     55198     55194     55196
     55198     55194     55195     55200     55204     55205     55201     55200     55203
     55201     55200     55202     55202     55200     55203     55204     55200     55203
     55204     55200     55202     55204     55200     55201     55206     55210     55211
     55207     55206     55209     55207     55206     55208     55208     55206     55209
     55210     55206     55209     55210     55206     55208     55210     55206     55207
     55212     55216     55217     55213     55212     55215     55213     55212     55214
     55214     55212     55215     55216     55212     55215     55216     55212     55214
     55216     55212     55213     55218     55222     55223     55219     55218     55221
     55219     55218     55220     55220     55218     55221     55222     55218     55221
     55222     55218     55220     55222     55218     55219     55224     55228     55229
     55225     55224     55227     55225     55224     55226     55226     55224     55227
     55228     55224     55227     55228     55224     55226     55228     55224     55225
     55230     55234     55235     55231     55230     55233     55231     55230     55232
     55232     55230     55233     55234     55230     55233     55234     55230     55232
     55234     55230     55231     55236     55240     55241     55237     55236     55239
     55237     55236     55238     55238     55236     55239     55240     55236     55239
     55240     55236     55238     55240     55236     55237     55242     55246     55247
     55243     55242     55245     55243     55242     55244     55244     55242     55245
     55246     55242     55245     55246     55242     55244     55246     55242     55243
     55248     55252     55253     55249     55248     55251     55249     55248     55250
     55250     55248     55251     55252     55248     55251     55252     55248     55250
     55252     55248     55249     55254     55258     55259     55255     55254     55257
     55255     55254     55256     55256     55254     55257     55258     55254     55257
     55258     55254     55256     55258     55254     55255     55260     55264     55265
     55261     55260     55263     55261     55260     55262     55262     55260     55263
     55264     55260     55263     55264     55260     55262     55264     55260     55261
     55266     55270     55271     55267     55266     55269     55267     55266     55268
     55268     55266     55269     55270     55266     55269     55270     55266     55268
     55270     55266     55267     55272     55276     55277     55273     55272     55275
     55273     55272     55274     55274     55272     55275     55276     55272     55275
     55276     55272     55274     55276     55272     55273     55278     55282     55283
     55279     55278     55281     55279     55278     55280     55280     55278     55281
     55282     55278     55281     55282     55278     55280     55282     55278     55279
     55284     55288     55289     55285     55284     55287     55285     55284     55286
     55286     55284     55287     55288     55284     55287     55288     55284     55286
     55288     55284     55285     55290     55294     55295     55291     55290     55293
     55291     55290     55292     55292     55290     55293     55294     55290     55293
     55294     55290     55292     55294     55290     55291     55296     55300     55301
     55297     55296     55299     55297     55296     55298     55298     55296     55299
     55300     55296     55299     55300     55296     55298     55300     55296     55297
     55302     55306     55307     55303     55302     55305     55303     55302     55304
     55304     55302     55305     55306     55302     55305     55306     55302     55304
     55306     55302     55303     55308     55312     55313     55309     55308     55311
     55309     55308     55310     55310     55308     55311     55312     55308     55311
     55312     55308     55310     55312     55308     55309     55314     55318     55319
     55315     55314     55317     55315     55314     55316     55316     55314     55317
     55318     55314     55317     55318     55314     55316     55318     55314     55315
     55320     55324     55325     55321     55320     55323     55321     55320     55322
     55322     55320     55323     55324     55320     55323     55324     55320     55322
     55324     55320     55321     55326     55330     55331     55327     55326     55329
     55327     55326     55328     55328     55326     55329     55330     55326     55329
     55330     55326     55328     55330     55326     55327     55332     55336     55337
     55333     55332     55335     55333     55332     55334     55334     55332     55335
     55336     55332     55335     55336     55332     55334     55336     55332     55333
     55338     55342     55343     55339     55338     55341     55339     55338     55340
     55340     55338     55341     55342     55338     55341     55342     55338     55340
     55342     55338     55339     55344     55348     55349     55345     55344     55347
     55345     55344     55346     55346     55344     55347     55348     55344     55347
     55348     55344     55346     55348     55344     55345     55350     55354     55355
     55351     55350     55353     55351     55350     55352     55352     55350     55353
     55354     55350     55353     55354     55350     55352     55354     55350     55351
     55356     55360     55361     55357     55356     55359     55357     55356     55358
     55358     55356     55359     55360     55356     55359     55360     55356     55358
     55360     55356     55357     55362     55366     55367     55363     55362     55365
     55363     55362     55364     55364     55362     55365     55366     55362     55365
     55366     55362     55364     55366     55362     55363     55368     55372     55373
     55369     55368     55371     55369     55368     55370     55370     55368     55371
     55372     55368     55371     55372     55368     55370     55372     55368     55369
     55374     55378     55379     55375     55374     55377     55375     55374     55376
     55376     55374     55377     55378     55374     55377     55378     55374     55376
     55378     55374     55375     55380     55384     55385     55381     55380     55383
     55381     55380     55382     55382     55380     55383     55384     55380     55383
     55384     55380     55382     55384     55380     55381     55386     55390     55391
     55387     55386     55389     55387     55386     55388     55388     55386     55389
     55390     55386     55389     55390     55386     55388     55390     55386     55387
     55392     55396     55397     55393     55392     55395     55393     55392     55394
     55394     55392     55395     55396     55392     55395     55396     55392     55394
     55396     55392     55393     55398     55402     55403     55399     55398     55401
     55399     55398     55400     55400     55398     55401     55402     55398     55401
     55402     55398     55400     55402     55398     55399     55404     55408     55409
     55405     55404     55407     55405     55404     55406     55406     55404     55407
     55408     55404     55407     55408     55404     55406     55408     55404     55405
     55410     55414     55415     55411     55410     55413     55411     55410     55412
     55412     55410     55413     55414     55410     55413     55414     55410     55412
     55414     55410     55411     55416     55420     55421     55417     55416     55419
     55417     55416     55418     55418     55416     55419     55420     55416     55419
     55420     55416     55418     55420     55416     55417     55422     55426     55427
     55423     55422     55425     55423     55422     55424     55424     55422     55425
     55426     55422     55425     55426     55422     55424     55426     55422     55423
     55428     55432     55433     55429     55428     55431     55429     55428     55430
     55430     55428     55431     55432     55428     55431     55432     55428     55430
     55432     55428     55429     55434     55438     55439     55435     55434     55437
     55435     55434     55436     55436     55434     55437     55438     55434     55437
     55438     55434     55436     55438     55434     55435     55440     55444     55445
     55441     55440     55443     55441     55440     55442     55442     55440     55443
     55444     55440     55443     55444     55440     55442     55444     55440     55441
     55446     55450     55451     55447     55446     55449     55447     55446     55448
     55448     55446     55449     55450     55446     55449     55450     55446     55448
     55450     55446     55447     55452     55456     55457     55453     55452     55455
     55453     55452     55454     55454     55452     55455     55456     55452     55455
     55456     55452     55454     55456     55452     55453     55458     55462     55463
     55459     55458     55461     55459     55458     55460     55460     55458     55461
     55462     55458     55461     55462     55458     55460     55462     55458     55459
     55464     55468     55469     55465     55464     55467     55465     55464     55466
     55466     55464     55467     55468     55464     55467     55468     55464     55466
     55468     55464     55465     55470     55474     55475     55471     55470     55473
     55471     55470     55472     55472     55470     55473     55474     55470     55473
     55474     55470     55472     55474     55470     55471     55476     55480     55481
     55477     55476     55479     55477     55476     55478     55478     55476     55479
     55480     55476     55479     55480     55476     55478     55480     55476     55477
     55482     55486     55487     55483     55482     55485     55483     55482     55484
     55484     55482     55485     55486     55482     55485     55486     55482     55484
     55486     55482     55483     55488     55492     55493     55489     55488     55491
     55489     55488     55490     55490     55488     55491     55492     55488     55491
     55492     55488     55490     55492     55488     55489     55494     55498     55499
     55495     55494     55497     55495     55494     55496     55496     55494     55497
     55498     55494     55497     55498     55494     55496     55498     55494     55495
     55500     55504     55505     55501     55500     55503     55501     55500     55502
     55502     55500     55503     55504     55500     55503     55504     55500     55502
     55504     55500     55501     55506     55510     55511     55507     55506     55509
     55507     55506     55508     55508     55506     55509     55510     55506     55509
     55510     55506     55508     55510     55506     55507     55512     55516     55517
     55513     55512     55515     55513     55512     55514     55514     55512     55515
     55516     55512     55515     55516     55512     55514     55516     55512     55513
     55518     55522     55523     55519     55518     55521     55519     55518     55520
     55520     55518     55521     55522     55518     55521     55522     55518     55520
     55522     55518     55519     55524     55528     55529     55525     55524     55527
     55525     55524     55526     55526     55524     55527     55528     55524     55527
     55528     55524     55526     55528     55524     55525     55530     55534     55535
     55531     55530     55533     55531     55530     55532     55532     55530     55533
     55534     55530     55533     55534     55530     55532     55534     55530     55531
     55536     55540     55541     55537     55536     55539     55537     55536     55538
     55538     55536     55539     55540     55536     55539     55540     55536     55538
     55540     55536     55537     55542     55546     55547     55543     55542     55545
     55543     55542     55544     55544     55542     55545     55546     55542     55545
     55546     55542     55544     55546     55542     55543     55548     55552     55553
     55549     55548     55551     55549     55548     55550     55550     55548     55551
     55552     55548     55551     55552     55548     55550     55552     55548     55549
     55554     55558     55559     55555     55554     55557     55555     55554     55556
     55556     55554     55557     55558     55554     55557     55558     55554     55556
     55558     55554     55555     55560     55564     55565     55561     55560     55563
     55561     55560     55562     55562     55560     55563     55564     55560     55563
     55564     55560     55562     55564     55560     55561     55566     55570     55571
     55567     55566     55569     55567     55566     55568     55568     55566     55569
     55570     55566     55569     55570     55566     55568     55570     55566     55567
     55572     55576     55577     55573     55572     55575     55573     55572     55574
     55574     55572     55575     55576     55572     55575     55576     55572     55574
     55576     55572     55573     55578     55582     55583     55579     55578     55581
     55579     55578     55580     55580     55578     55581     55582     55578     55581
     55582     55578     55580     55582     55578     55579     55584     55588     55589
     55585     55584     55587     55585     55584     55586     55586     55584     55587
     55588     55584     55587     55588     55584     55586     55588     55584     55585
     55590     55594     55595     55591     55590     55593     55591     55590     55592
     55592     55590     55593     55594     55590     55593     55594     55590     55592
     55594     55590     55591     55596     55600     55601     55597     55596     55599
     55597     55596     55598     55598     55596     55599     55600     55596     55599
     55600     55596     55598     55600     55596     55597     55602     55606     55607
     55603     55602     55605     55603     55602     55604     55604     55602     55605
     55606     55602     55605     55606     55602     55604     55606     55602     55603
     55608     55612     55613     55609     55608     55611     55609     55608     55610
     55610     55608     55611     55612     55608     55611     55612     55608     55610
     55612     55608     55609     55614     55618     55619     55615     55614     55617
     55615     55614     55616     55616     55614     55617     55618     55614     55617
     55618     55614     55616     55618     55614     55615     55620     55624     55625
     55621     55620     55623     55621     55620     55622     55622     55620     55623
     55624     55620     55623     55624     55620     55622     55624     55620     55621
     55626     55630     55631     55627     55626     55629     55627     55626     55628
     55628     55626     55629     55630     55626     55629     55630     55626     55628
     55630     55626     55627     55632     55636     55637     55633     55632     55635
     55633     55632     55634     55634     55632     55635     55636     55632     55635
     55636     55632     55634     55636     55632     55633     55638     55642     55643
     55639     55638     55641     55639     55638     55640     55640     55638     55641
     55642     55638     55641     55642     55638     55640     55642     55638     55639
     55644     55648     55649     55645     55644     55647     55645     55644     55646
     55646     55644     55647     55648     55644     55647     55648     55644     55646
     55648     55644     55645     55650     55654     55655     55651     55650     55653
     55651     55650     55652     55652     55650     55653     55654     55650     55653
     55654     55650     55652     55654     55650     55651     55656     55660     55661
     55657     55656     55659     55657     55656     55658     55658     55656     55659
     55660     55656     55659     55660     55656     55658     55660     55656     55657
     55662     55666     55667     55663     55662     55665     55663     55662     55664
     55664     55662     55665     55666     55662     55665     55666     55662     55664
     55666     55662     55663     55668     55672     55673     55669     55668     55671
     55669     55668     55670     55670     55668     55671     55672     55668     55671
     55672     55668     55670     55672     55668     55669     55674     55678     55679
     55675     55674     55677     55675     55674     55676     55676     55674     55677
     55678     55674     55677     55678     55674     55676     55678     55674     55675
     55680     55684     55685     55681     55680     55683     55681     55680     55682
     55682     55680     55683     55684     55680     55683     55684     55680     55682
     55684     55680     55681     55686     55690     55691     55687     55686     55689
     55687     55686     55688     55688     55686     55689     55690     55686     55689
     55690     55686     55688     55690     55686     55687     55692     55696     55697
     55693     55692     55695     55693     55692     55694     55694     55692     55695
     55696     55692     55695     55696     55692     55694     55696     55692     55693
     55698     55702     55703     55699     55698     55701     55699     55698     55700
     55700     55698     55701     55702     55698     55701     55702     55698     55700
     55702     55698     55699     55704     55708     55709     55705     55704     55707
     55705     55704     55706     55706     55704     55707     55708     55704     55707
     55708     55704     55706     55708     55704     55705     55710     55714     55715
     55711     55710     55713     55711     55710     55712     55712     55710     55713
     55714     55710     55713     55714     55710     55712     55714     55710     55711
     55716     55720     55721     55717     55716     55719     55717     55716     55718
     55718     55716     55719     55720     55716     55719     55720     55716     55718
     55720     55716     55717     55722     55726     55727     55723     55722     55725
     55723     55722     55724     55724     55722     55725     55726     55722     55725
     55726     55722     55724     55726     55722     55723     55728     55732     55733
     55729     55728     55731     55729     55728     55730     55730     55728     55731
     55732     55728     55731     55732     55728     55730     55732     55728     55729
     55734     55738     55739     55735     55734     55737     55735     55734     55736
     55736     55734     55737     55738     55734     55737     55738     55734     55736
     55738     55734     55735     55740     55744     55745     55741     55740     55743
     55741     55740     55742     55742     55740     55743     55744     55740     55743
     55744     55740     55742     55744     55740     55741     55746     55750     55751
     55747     55746     55749     55747     55746     55748     55748     55746     55749
     55750     55746     55749     55750     55746     55748     55750     55746     55747
     55752     55756     55757     55753     55752     55755     55753     55752     55754
     55754     55752     55755     55756     55752     55755     55756     55752     55754
     55756     55752     55753     55758     55762     55763     55759     55758     55761
     55759     55758     55760     55760     55758     55761     55762     55758     55761
     55762     55758     55760     55762     55758     55759     55764     55768     55769
     55765     55764     55767     55765     55764     55766     55766     55764     55767
     55768     55764     55767     55768     55764     55766     55768     55764     55765
     55770     55774     55775     55771     55770     55773     55771     55770     55772
     55772     55770     55773     55774     55770     55773     55774     55770     55772
     55774     55770     55771     55776     55780     55781     55777     55776     55779
     55777     55776     55778     55778     55776     55779     55780     55776     55779
     55780     55776     55778     55780     55776     55777     55782     55786     55787
     55783     55782     55785     55783     55782     55784     55784     55782     55785
     55786     55782     55785     55786     55782     55784     55786     55782     55783
     55788     55792     55793     55789     55788     55791     55789     55788     55790
     55790     55788     55791     55792     55788     55791     55792     55788     55790
     55792     55788     55789     55794     55798     55799     55795     55794     55797
     55795     55794     55796     55796     55794     55797     55798     55794     55797
     55798     55794     55796     55798     55794     55795     55800     55804     55805
     55801     55800     55803     55801     55800     55802     55802     55800     55803
     55804     55800     55803     55804     55800     55802     55804     55800     55801
     55806     55810     55811     55807     55806     55809     55807     55806     55808
     55808     55806     55809     55810     55806     55809     55810     55806     55808
     55810     55806     55807     55812     55816     55817     55813     55812     55815
     55813     55812     55814     55814     55812     55815     55816     55812     55815
     55816     55812     55814     55816     55812     55813     55818     55822     55823
     55819     55818     55821     55819     55818     55820     55820     55818     55821
     55822     55818     55821     55822     55818     55820     55822     55818     55819
     55824     55828     55829     55825     55824     55827     55825     55824     55826
     55826     55824     55827     55828     55824     55827     55828     55824     55826
     55828     55824     55825     55830     55834     55835     55831     55830     55833
     55831     55830     55832     55832     55830     55833     55834     55830     55833
     55834     55830     55832     55834     55830     55831     55836     55840     55841
     55837     55836     55839     55837     55836     55838     55838     55836     55839
     55840     55836     55839     55840     55836     55838     55840     55836     55837
     55842     55846     55847     55843     55842     55845     55843     55842     55844
     55844     55842     55845     55846     55842     55845     55846     55842     55844
     55846     55842     55843     55848     55852     55853     55849     55848     55851
     55849     55848     55850     55850     55848     55851     55852     55848     55851
     55852     55848     55850     55852     55848     55849     55854     55858     55859
     55855     55854     55857     55855     55854     55856     55856     55854     55857
     55858     55854     55857     55858     55854     55856     55858     55854     55855
     55860     55864     55865     55861     55860     55863     55861     55860     55862
     55862     55860     55863     55864     55860     55863     55864     55860     55862
     55864     55860     55861     55866     55870     55871     55867     55866     55869
     55867     55866     55868     55868     55866     55869     55870     55866     55869
     55870     55866     55868     55870     55866     55867     55872     55876     55877
     55873     55872     55875     55873     55872     55874     55874     55872     55875
     55876     55872     55875     55876     55872     55874     55876     55872     55873
     55878     55882     55883     55879     55878     55881     55879     55878     55880
     55880     55878     55881     55882     55878     55881     55882     55878     55880
     55882     55878     55879     55884     55888     55889     55885     55884     55887
     55885     55884     55886     55886     55884     55887     55888     55884     55887
     55888     55884     55886     55888     55884     55885     55890     55894     55895
     55891     55890     55893     55891     55890     55892     55892     55890     55893
     55894     55890     55893     55894     55890     55892     55894     55890     55891
     55896     55900     55901     55897     55896     55899     55897     55896     55898
     55898     55896     55899     55900     55896     55899     55900     55896     55898
     55900     55896     55897     55902     55906     55907     55903     55902     55905
     55903     55902     55904     55904     55902     55905     55906     55902     55905
     55906     55902     55904     55906     55902     55903     55908     55912     55913
     55909     55908     55911     55909     55908     55910     55910     55908     55911
     55912     55908     55911     55912     55908     55910     55912     55908     55909
     55914     55918     55919     55915     55914     55917     55915     55914     55916
     55916     55914     55917     55918     55914     55917     55918     55914     55916
     55918     55914     55915     55920     55924     55925     55921     55920     55923
     55921     55920     55922     55922     55920     55923     55924     55920     55923
     55924     55920     55922     55924     55920     55921     55926     55930     55931
     55927     55926     55929     55927     55926     55928     55928     55926     55929
     55930     55926     55929     55930     55926     55928     55930     55926     55927
     55932     55936     55937     55933     55932     55935     55933     55932     55934
     55934     55932     55935     55936     55932     55935     55936     55932     55934
     55936     55932     55933     55938     55942     55943     55939     55938     55941
     55939     55938     55940     55940     55938     55941     55942     55938     55941
     55942     55938     55940     55942     55938     55939     55944     55948     55949
     55945     55944     55947     55945     55944     55946     55946     55944     55947
     55948     55944     55947     55948     55944     55946     55948     55944     55945
     55950     55954     55955     55951     55950     55953     55951     55950     55952
     55952     55950     55953     55954     55950     55953     55954     55950     55952
     55954     55950     55951     55956     55960     55961     55957     55956     55959
     55957     55956     55958     55958     55956     55959     55960     55956     55959
     55960     55956     55958     55960     55956     55957     55962     55966     55967
     55963     55962     55965     55963     55962     55964     55964     55962     55965
     55966     55962     55965     55966     55962     55964     55966     55962     55963
     55968     55972     55973     55969     55968     55971     55969     55968     55970
     55970     55968     55971     55972     55968     55971     55972     55968     55970
     55972     55968     55969     55974     55978     55979     55975     55974     55977
     55975     55974     55976     55976     55974     55977     55978     55974     55977
     55978     55974     55976     55978     55974     55975     55980     55984     55985
     55981     55980     55983     55981     55980     55982     55982     55980     55983
     55984     55980     55983     55984     55980     55982     55984     55980     55981
     55986     55990     55991     55987     55986     55989     55987     55986     55988
     55988     55986     55989     55990     55986     55989     55990     55986     55988
     55990     55986     55987     55992     55996     55997     55993     55992     55995
     55993     55992     55994     55994     55992     55995     55996     55992     55995
     55996     55992     55994     55996     55992     55993     55998     56002     56003
     55999     55998     56001     55999     55998     56000     56000     55998     56001
     56002     55998     56001     56002     55998     56000     56002     55998     55999
     56004     56008     56009     56005     56004     56007     56005     56004     56006
     56006     56004     56007     56008     56004     56007     56008     56004     56006
     56008     56004     56005     56010     56014     56015     56011     56010     56013
     56011     56010     56012     56012     56010     56013     56014     56010     56013
     56014     56010     56012     56014     56010     56011     56016     56020     56021
     56017     56016     56019     56017     56016     56018     56018     56016     56019
     56020     56016     56019     56020     56016     56018     56020     56016     56017
     56022     56026     56027     56023     56022     56025     56023     56022     56024
     56024     56022     56025     56026     56022     56025     56026     56022     56024
     56026     56022     56023     56028     56032     56033     56029     56028     56031
     56029     56028     56030     56030     56028     56031     56032     56028     56031
     56032     56028     56030     56032     56028     56029     56034     56038     56039
     56035     56034     56037     56035     56034     56036     56036     56034     56037
     56038     56034     56037     56038     56034     56036     56038     56034     56035
     56040     56044     56045     56041     56040     56043     56041     56040     56042
     56042     56040     56043     56044     56040     56043     56044     56040     56042
     56044     56040     56041     56046     56050     56051     56047     56046     56049
     56047     56046     56048     56048     56046     56049     56050     56046     56049
     56050     56046     56048     56050     56046     56047     56052     56056     56057
     56053     56052     56055     56053     56052     56054     56054     56052     56055
     56056     56052     56055     56056     56052     56054     56056     56052     56053
     56058     56062     56063     56059     56058     56061     56059     56058     56060
     56060     56058     56061     56062     56058     56061     56062     56058     56060
     56062     56058     56059     56064     56068     56069     56065     56064     56067
     56065     56064     56066     56066     56064     56067     56068     56064     56067
     56068     56064     56066     56068     56064     56065     56070     56074     56075
     56071     56070     56073     56071     56070     56072     56072     56070     56073
     56074     56070     56073     56074     56070     56072     56074     56070     56071
     56076     56080     56081     56077     56076     56079     56077     56076     56078
     56078     56076     56079     56080     56076     56079     56080     56076     56078
     56080     56076     56077     56082     56086     56087     56083     56082     56085
     56083     56082     56084     56084     56082     56085     56086     56082     56085
     56086     56082     56084     56086     56082     56083     56088     56092     56093
     56089     56088     56091     56089     56088     56090     56090     56088     56091
     56092     56088     56091     56092     56088     56090     56092     56088     56089
     56094     56098     56099     56095     56094     56097     56095     56094     56096
     56096     56094     56097     56098     56094     56097     56098     56094     56096
     56098     56094     56095     56100     56104     56105     56101     56100     56103
     56101     56100     56102     56102     56100     56103     56104     56100     56103
     56104     56100     56102     56104     56100     56101     56106     56110     56111
     56107     56106     56109     56107     56106     56108     56108     56106     56109
     56110     56106     56109     56110     56106     56108     56110     56106     56107
     56112     56116     56117     56113     56112     56115     56113     56112     56114
     56114     56112     56115     56116     56112     56115     56116     56112     56114
     56116     56112     56113     56118     56122     56123     56119     56118     56121
     56119     56118     56120     56120     56118     56121     56122     56118     56121
     56122     56118     56120     56122     56118     56119     56124     56128     56129
     56125     56124     56127     56125     56124     56126     56126     56124     56127
     56128     56124     56127     56128     56124     56126     56128     56124     56125
     56130     56134     56135     56131     56130     56133     56131     56130     56132
     56132     56130     56133     56134     56130     56133     56134     56130     56132
     56134     56130     56131     56136     56140     56141     56137     56136     56139
     56137     56136     56138     56138     56136     56139     56140     56136     56139
     56140     56136     56138     56140     56136     56137     56142     56146     56147
     56143     56142     56145     56143     56142     56144     56144     56142     56145
     56146     56142     56145     56146     56142     56144     56146     56142     56143
     56148     56152     56153     56149     56148     56151     56149     56148     56150
     56150     56148     56151     56152     56148     56151     56152     56148     56150
     56152     56148     56149     56154     56158     56159     56155     56154     56157
     56155     56154     56156     56156     56154     56157     56158     56154     56157
     56158     56154     56156     56158     56154     56155     56160     56164     56165
     56161     56160     56163     56161     56160     56162     56162     56160     56163
     56164     56160     56163     56164     56160     56162     56164     56160     56161
     56166     56170     56171     56167     56166     56169     56167     56166     56168
     56168     56166     56169     56170     56166     56169     56170     56166     56168
     56170     56166     56167     56172     56176     56177     56173     56172     56175
     56173     56172     56174     56174     56172     56175     56176     56172     56175
     56176     56172     56174     56176     56172     56173     56178     56182     56183
     56179     56178     56181     56179     56178     56180     56180     56178     56181
     56182     56178     56181     56182     56178     56180     56182     56178     56179
     56184     56188     56189     56185     56184     56187     56185     56184     56186
     56186     56184     56187     56188     56184     56187     56188     56184     56186
     56188     56184     56185     56190     56194     56195     56191     56190     56193
     56191     56190     56192     56192     56190     56193     56194     56190     56193
     56194     56190     56192     56194     56190     56191     56196     56200     56201
     56197     56196     56199     56197     56196     56198     56198     56196     56199
     56200     56196     56199     56200     56196     56198     56200     56196     56197
     56202     56206     56207     56203     56202     56205     56203     56202     56204
     56204     56202     56205     56206     56202     56205     56206     56202     56204
     56206     56202     56203     56208     56212     56213     56209     56208     56211
     56209     56208     56210     56210     56208     56211     56212     56208     56211
     56212     56208     56210     56212     56208     56209     56214     56218     56219
     56215     56214     56217     56215     56214     56216     56216     56214     56217
     56218     56214     56217     56218     56214     56216     56218     56214     56215
     56220     56224     56225     56221     56220     56223     56221     56220     56222
     56222     56220     56223     56224     56220     56223     56224     56220     56222
     56224     56220     56221     56226     56230     56231     56227     56226     56229
     56227     56226     56228     56228     56226     56229     56230     56226     56229
     56230     56226     56228     56230     56226     56227     56232     56236     56237
     56233     56232     56235     56233     56232     56234     56234     56232     56235
     56236     56232     56235     56236     56232     56234     56236     56232     56233
     56238     56242     56243     56239     56238     56241     56239     56238     56240
     56240     56238     56241     56242     56238     56241     56242     56238     56240
     56242     56238     56239     56244     56248     56249     56245     56244     56247
     56245     56244     56246     56246     56244     56247     56248     56244     56247
     56248     56244     56246     56248     56244     56245     56250     56254     56255
     56251     56250     56253     56251     56250     56252     56252     56250     56253
     56254     56250     56253     56254     56250     56252     56254     56250     56251
     56256     56260     56261     56257     56256     56259     56257     56256     56258
     56258     56256     56259     56260     56256     56259     56260     56256     56258
     56260     56256     56257     56262     56266     56267     56263     56262     56265
     56263     56262     56264     56264     56262     56265     56266     56262     56265
     56266     56262     56264     56266     56262     56263     56268     56272     56273
     56269     56268     56271     56269     56268     56270     56270     56268     56271
     56272     56268     56271     56272     56268     56270     56272     56268     56269
     56274     56278     56279     56275     56274     56277     56275     56274     56276
     56276     56274     56277     56278     56274     56277     56278     56274     56276
     56278     56274     56275     56280     56284     56285     56281     56280     56283
     56281     56280     56282     56282     56280     56283     56284     56280     56283
     56284     56280     56282     56284     56280     56281     56286     56290     56291
     56287     56286     56289     56287     56286     56288     56288     56286     56289
     56290     56286     56289     56290     56286     56288     56290     56286     56287
     56292     56296     56297     56293     56292     56295     56293     56292     56294
     56294     56292     56295     56296     56292     56295     56296     56292     56294
     56296     56292     56293     56298     56302     56303     56299     56298     56301
     56299     56298     56300     56300     56298     56301     56302     56298     56301
     56302     56298     56300     56302     56298     56299     56304     56308     56309
     56305     56304     56307     56305     56304     56306     56306     56304     56307
     56308     56304     56307     56308     56304     56306     56308     56304     56305
     56310     56314     56315     56311     56310     56313     56311     56310     56312
     56312     56310     56313     56314     56310     56313     56314     56310     56312
     56314     56310     56311     56316     56320     56321     56317     56316     56319
     56317     56316     56318     56318     56316     56319     56320     56316     56319
     56320     56316     56318     56320     56316     56317     56322     56326     56327
     56323     56322     56325     56323     56322     56324     56324     56322     56325
     56326     56322     56325     56326     56322     56324     56326     56322     56323
     56328     56332     56333     56329     56328     56331     56329     56328     56330
     56330     56328     56331     56332     56328     56331     56332     56328     56330
     56332     56328     56329     56334     56338     56339     56335     56334     56337
     56335     56334     56336     56336     56334     56337     56338     56334     56337
     56338     56334     56336     56338     56334     56335     56340     56344     56345
     56341     56340     56343     56341     56340     56342     56342     56340     56343
     56344     56340     56343     56344     56340     56342     56344     56340     56341
     56346     56350     56351     56347     56346     56349     56347     56346     56348
     56348     56346     56349     56350     56346     56349     56350     56346     56348
     56350     56346     56347     56352     56356     56357     56353     56352     56355
     56353     56352     56354     56354     56352     56355     56356     56352     56355
     56356     56352     56354     56356     56352     56353     56358     56362     56363
     56359     56358     56361     56359     56358     56360     56360     56358     56361
     56362     56358     56361     56362     56358     56360     56362     56358     56359
     56364     56368     56369     56365     56364     56367     56365     56364     56366
     56366     56364     56367     56368     56364     56367     56368     56364     56366
     56368     56364     56365     56370     56374     56375     56371     56370     56373
     56371     56370     56372     56372     56370     56373     56374     56370     56373
     56374     56370     56372     56374     56370     56371     56376     56380     56381
     56377     56376     56379     56377     56376     56378     56378     56376     56379
     56380     56376     56379     56380     56376     56378     56380     56376     56377
     56382     56386     56387     56383     56382     56385     56383     56382     56384
     56384     56382     56385     56386     56382     56385     56386     56382     56384
     56386     56382     56383     56388     56392     56393     56389     56388     56391
     56389     56388     56390     56390     56388     56391     56392     56388     56391
     56392     56388     56390     56392     56388     56389     56394     56398     56399
     56395     56394     56397     56395     56394     56396     56396     56394     56397
     56398     56394     56397     56398     56394     56396     56398     56394     56395
     56400     56404     56405     56401     56400     56403     56401     56400     56402
     56402     56400     56403     56404     56400     56403     56404     56400     56402
     56404     56400     56401     56406     56410     56411     56407     56406     56409
     56407     56406     56408     56408     56406     56409     56410     56406     56409
     56410     56406     56408     56410     56406     56407     56412     56416     56417
     56413     56412     56415     56413     56412     56414     56414     56412     56415
     56416     56412     56415     56416     56412     56414     56416     56412     56413
     56418     56422     56423     56419     56418     56421     56419     56418     56420
     56420     56418     56421     56422     56418     56421     56422     56418     56420
     56422     56418     56419     56424     56428     56429     56425     56424     56427
     56425     56424     56426     56426     56424     56427     56428     56424     56427
     56428     56424     56426     56428     56424     56425     56430     56434     56435
     56431     56430     56433     56431     56430     56432     56432     56430     56433
     56434     56430     56433     56434     56430     56432     56434     56430     56431
     56436     56440     56441     56437     56436     56439     56437     56436     56438
     56438     56436     56439     56440     56436     56439     56440     56436     56438
     56440     56436     56437     56442     56446     56447     56443     56442     56445
     56443     56442     56444     56444     56442     56445     56446     56442     56445
     56446     56442     56444     56446     56442     56443     56448     56452     56453
     56449     56448     56451     56449     56448     56450     56450     56448     56451
     56452     56448     56451     56452     56448     56450     56452     56448     56449
     56454     56458     56459     56455     56454     56457     56455     56454     56456
     56456     56454     56457     56458     56454     56457     56458     56454     56456
     56458     56454     56455     56460     56464     56465     56461     56460     56463
     56461     56460     56462     56462     56460     56463     56464     56460     56463
     56464     56460     56462     56464     56460     56461     56466     56470     56471
     56467     56466     56469     56467     56466     56468     56468     56466     56469
     56470     56466     56469     56470     56466     56468     56470     56466     56467
     56472     56476     56477     56473     56472     56475     56473     56472     56474
     56474     56472     56475     56476     56472     56475     56476     56472     56474
     56476     56472     56473     56478     56482     56483     56479     56478     56481
     56479     56478     56480     56480     56478     56481     56482     56478     56481
     56482     56478     56480     56482     56478     56479     56484     56488     56489
     56485     56484     56487     56485     56484     56486     56486     56484     56487
     56488     56484     56487     56488     56484     56486     56488     56484     56485
     56490     56494     56495     56491     56490     56493     56491     56490     56492
     56492     56490     56493     56494     56490     56493     56494     56490     56492
     56494     56490     56491     56496     56500     56501     56497     56496     56499
     56497     56496     56498     56498     56496     56499     56500     56496     56499
     56500     56496     56498     56500     56496     56497     56502     56506     56507
     56503     56502     56505     56503     56502     56504     56504     56502     56505
     56506     56502     56505     56506     56502     56504     56506     56502     56503
     56508     56512     56513     56509     56508     56511     56509     56508     56510
     56510     56508     56511     56512     56508     56511     56512     56508     56510
     56512     56508     56509     56514     56518     56519     56515     56514     56517
     56515     56514     56516     56516     56514     56517     56518     56514     56517
     56518     56514     56516     56518     56514     56515     56520     56524     56525
     56521     56520     56523     56521     56520     56522     56522     56520     56523
     56524     56520     56523     56524     56520     56522     56524     56520     56521
     56526     56530     56531     56527     56526     56529     56527     56526     56528
     56528     56526     56529     56530     56526     56529     56530     56526     56528
     56530     56526     56527     56532     56536     56537     56533     56532     56535
     56533     56532     56534     56534     56532     56535     56536     56532     56535
     56536     56532     56534     56536     56532     56533     56538     56542     56543
     56539     56538     56541     56539     56538     56540     56540     56538     56541
     56542     56538     56541     56542     56538     56540     56542     56538     56539
     56544     56548     56549     56545     56544     56547     56545     56544     56546
     56546     56544     56547     56548     56544     56547     56548     56544     56546
     56548     56544     56545     56550     56554     56555     56551     56550     56553
     56551     56550     56552     56552     56550     56553     56554     56550     56553
     56554     56550     56552     56554     56550     56551     56556     56560     56561
     56557     56556     56559     56557     56556     56558     56558     56556     56559
     56560     56556     56559     56560     56556     56558     56560     56556     56557
     56562     56566     56567     56563     56562     56565     56563     56562     56564
     56564     56562     56565     56566     56562     56565     56566     56562     56564
     56566     56562     56563     56568     56572     56573     56569     56568     56571
     56569     56568     56570     56570     56568     56571     56572     56568     56571
     56572     56568     56570     56572     56568     56569     56574     56578     56579
     56575     56574     56577     56575     56574     56576     56576     56574     56577
     56578     56574     56577     56578     56574     56576     56578     56574     56575
     56580     56584     56585     56581     56580     56583     56581     56580     56582
     56582     56580     56583     56584     56580     56583     56584     56580     56582
     56584     56580     56581     56586     56590     56591     56587     56586     56589
     56587     56586     56588     56588     56586     56589     56590     56586     56589
     56590     56586     56588     56590     56586     56587     56592     56596     56597
     56593     56592     56595     56593     56592     56594     56594     56592     56595
     56596     56592     56595     56596     56592     56594     56596     56592     56593
     56598     56602     56603     56599     56598     56601     56599     56598     56600
     56600     56598     56601     56602     56598     56601     56602     56598     56600
     56602     56598     56599     56604     56608     56609     56605     56604     56607
     56605     56604     56606     56606     56604     56607     56608     56604     56607
     56608     56604     56606     56608     56604     56605     56610     56614     56615
     56611     56610     56613     56611     56610     56612     56612     56610     56613
     56614     56610     56613     56614     56610     56612     56614     56610     56611
     56616     56620     56621     56617     56616     56619     56617     56616     56618
     56618     56616     56619     56620     56616     56619     56620     56616     56618
     56620     56616     56617     56622     56626     56627     56623     56622     56625
     56623     56622     56624     56624     56622     56625     56626     56622     56625
     56626     56622     56624     56626     56622     56623     56628     56632     56633
     56629     56628     56631     56629     56628     56630     56630     56628     56631
     56632     56628     56631     56632     56628     56630     56632     56628     56629
     56634     56638     56639     56635     56634     56637     56635     56634     56636
     56636     56634     56637     56638     56634     56637     56638     56634     56636
     56638     56634     56635     56640     56644     56645     56641     56640     56643
     56641     56640     56642     56642     56640     56643     56644     56640     56643
     56644     56640     56642     56644     56640     56641     56646     56650     56651
     56647     56646     56649     56647     56646     56648     56648     56646     56649
     56650     56646     56649     56650     56646     56648     56650     56646     56647
     56652     56656     56657     56653     56652     56655     56653     56652     56654
     56654     56652     56655     56656     56652     56655     56656     56652     56654
     56656     56652     56653     56658     56662     56663     56659     56658     56661
     56659     56658     56660     56660     56658     56661     56662     56658     56661
     56662     56658     56660     56662     56658     56659     56664     56668     56669
     56665     56664     56667     56665     56664     56666     56666     56664     56667
     56668     56664     56667     56668     56664     56666     56668     56664     56665
     56670     56674     56675     56671     56670     56673     56671     56670     56672
     56672     56670     56673     56674     56670     56673     56674     56670     56672
     56674     56670     56671     56676     56680     56681     56677     56676     56679
     56677     56676     56678     56678     56676     56679     56680     56676     56679
     56680     56676     56678     56680     56676     56677     56682     56686     56687
     56683     56682     56685     56683     56682     56684     56684     56682     56685
     56686     56682     56685     56686     56682     56684     56686     56682     56683
     56688     56692     56693     56689     56688     56691     56689     56688     56690
     56690     56688     56691     56692     56688     56691     56692     56688     56690
     56692     56688     56689     56694     56698     56699     56695     56694     56697
     56695     56694     56696     56696     56694     56697     56698     56694     56697
     56698     56694     56696     56698     56694     56695     56700     56704     56705
     56701     56700     56703     56701     56700     56702     56702     56700     56703
     56704     56700     56703     56704     56700     56702     56704     56700     56701
     56706     56710     56711     56707     56706     56709     56707     56706     56708
     56708     56706     56709     56710     56706     56709     56710     56706     56708
     56710     56706     56707     56712     56716     56717     56713     56712     56715
     56713     56712     56714     56714     56712     56715     56716     56712     56715
     56716     56712     56714     56716     56712     56713     56718     56722     56723
     56719     56718     56721     56719     56718     56720     56720     56718     56721
     56722     56718     56721     56722     56718     56720     56722     56718     56719
     56724     56728     56729     56725     56724     56727     56725     56724     56726
     56726     56724     56727     56728     56724     56727     56728     56724     56726
     56728     56724     56725     56730     56734     56735     56731     56730     56733
     56731     56730     56732     56732     56730     56733     56734     56730     56733
     56734     56730     56732     56734     56730     56731     56736     56740     56741
     56737     56736     56739     56737     56736     56738     56738     56736     56739
     56740     56736     56739     56740     56736     56738     56740     56736     56737
     56742     56746     56747     56743     56742     56745     56743     56742     56744
     56744     56742     56745     56746     56742     56745     56746     56742     56744
     56746     56742     56743     56748     56752     56753     56749     56748     56751
     56749     56748     56750     56750     56748     56751     56752     56748     56751
     56752     56748     56750     56752     56748     56749     56754     56758     56759
     56755     56754     56757     56755     56754     56756     56756     56754     56757
     56758     56754     56757     56758     56754     56756     56758     56754     56755
     56760     56764     56765     56761     56760     56763     56761     56760     56762
     56762     56760     56763     56764     56760     56763     56764     56760     56762
     56764     56760     56761     56766     56770     56771     56767     56766     56769
     56767     56766     56768     56768     56766     56769     56770     56766     56769
     56770     56766     56768     56770     56766     56767     56772     56776     56777
     56773     56772     56775     56773     56772     56774     56774     56772     56775
     56776     56772     56775     56776     56772     56774     56776     56772     56773
     56778     56782     56783     56779     56778     56781     56779     56778     56780
     56780     56778     56781     56782     56778     56781     56782     56778     56780
     56782     56778     56779     56784     56788     56789     56785     56784     56787
     56785     56784     56786     56786     56784     56787     56788     56784     56787
     56788     56784     56786     56788     56784     56785     56790     56794     56795
     56791     56790     56793     56791     56790     56792     56792     56790     56793
     56794     56790     56793     56794     56790     56792     56794     56790     56791
     56796     56800     56801     56797     56796     56799     56797     56796     56798
     56798     56796     56799     56800     56796     56799     56800     56796     56798
     56800     56796     56797     56802     56806     56807     56803     56802     56805
     56803     56802     56804     56804     56802     56805     56806     56802     56805
     56806     56802     56804     56806     56802     56803     56808     56812     56813
     56809     56808     56811     56809     56808     56810     56810     56808     56811
     56812     56808     56811     56812     56808     56810     56812     56808     56809
     56814     56818     56819     56815     56814     56817     56815     56814     56816
     56816     56814     56817     56818     56814     56817     56818     56814     56816
     56818     56814     56815     56820     56824     56825     56821     56820     56823
     56821     56820     56822     56822     56820     56823     56824     56820     56823
     56824     56820     56822     56824     56820     56821     56826     56830     56831
     56827     56826     56829     56827     56826     56828     56828     56826     56829
     56830     56826     56829     56830     56826     56828     56830     56826     56827
     56832     56836     56837     56833     56832     56835     56833     56832     56834
     56834     56832     56835     56836     56832     56835     56836     56832     56834
     56836     56832     56833     56838     56842     56843     56839     56838     56841
     56839     56838     56840     56840     56838     56841     56842     56838     56841
     56842     56838     56840     56842     56838     56839     56844     56848     56849
     56845     56844     56847     56845     56844     56846     56846     56844     56847
     56848     56844     56847     56848     56844     56846     56848     56844     56845
     56850     56854     56855     56851     56850     56853     56851     56850     56852
     56852     56850     56853     56854     56850     56853     56854     56850     56852
     56854     56850     56851     56856     56860     56861     56857     56856     56859
     56857     56856     56858     56858     56856     56859     56860     56856     56859
     56860     56856     56858     56860     56856     56857     56862     56866     56867
     56863     56862     56865     56863     56862     56864     56864     56862     56865
     56866     56862     56865     56866     56862     56864     56866     56862     56863
     56868     56872     56873     56869     56868     56871     56869     56868     56870
     56870     56868     56871     56872     56868     56871     56872     56868     56870
     56872     56868     56869     56874     56878     56879     56875     56874     56877
     56875     56874     56876     56876     56874     56877     56878     56874     56877
     56878     56874     56876     56878     56874     56875     56880     56884     56885
     56881     56880     56883     56881     56880     56882     56882     56880     56883
     56884     56880     56883     56884     56880     56882     56884     56880     56881
     56886     56890     56891     56887     56886     56889     56887     56886     56888
     56888     56886     56889     56890     56886     56889     56890     56886     56888
     56890     56886     56887     56892     56896     56897     56893     56892     56895
     56893     56892     56894     56894     56892     56895     56896     56892     56895
     56896     56892     56894     56896     56892     56893     56898     56902     56903
     56899     56898     56901     56899     56898     56900     56900     56898     56901
     56902     56898     56901     56902     56898     56900     56902     56898     56899
     56904     56908     56909     56905     56904     56907     56905     56904     56906
     56906     56904     56907     56908     56904     56907     56908     56904     56906
     56908     56904     56905     56910     56914     56915     56911     56910     56913
     56911     56910     56912     56912     56910     56913     56914     56910     56913
     56914     56910     56912     56914     56910     56911     56916     56920     56921
     56917     56916     56919     56917     56916     56918     56918     56916     56919
     56920     56916     56919     56920     56916     56918     56920     56916     56917
     56922     56926     56927     56923     56922     56925     56923     56922     56924
     56924     56922     56925     56926     56922     56925     56926     56922     56924
     56926     56922     56923     56928     56932     56933     56929     56928     56931
     56929     56928     56930     56930     56928     56931     56932     56928     56931
     56932     56928     56930     56932     56928     56929     56934     56938     56939
     56935     56934     56937     56935     56934     56936     56936     56934     56937
     56938     56934     56937     56938     56934     56936     56938     56934     56935
     56940     56944     56945     56941     56940     56943     56941     56940     56942
     56942     56940     56943     56944     56940     56943     56944     56940     56942
     56944     56940     56941     56946     56950     56951     56947     56946     56949
     56947     56946     56948     56948     56946     56949     56950     56946     56949
     56950     56946     56948     56950     56946     56947     56952     56956     56957
     56953     56952     56955     56953     56952     56954     56954     56952     56955
     56956     56952     56955     56956     56952     56954     56956     56952     56953
     56958     56962     56963     56959     56958     56961     56959     56958     56960
     56960     56958     56961     56962     56958     56961     56962     56958     56960
     56962     56958     56959     56964     56968     56969     56965     56964     56967
     56965     56964     56966     56966     56964     56967     56968     56964     56967
     56968     56964     56966     56968     56964     56965     56970     56974     56975
     56971     56970     56973     56971     56970     56972     56972     56970     56973
     56974     56970     56973     56974     56970     56972     56974     56970     56971
     56976     56980     56981     56977     56976     56979     56977     56976     56978
     56978     56976     56979     56980     56976     56979     56980     56976     56978
     56980     56976     56977     56982     56986     56987     56983     56982     56985
     56983     56982     56984     56984     56982     56985     56986     56982     56985
     56986     56982     56984     56986     56982     56983     56988     56992     56993
     56989     56988     56991     56989     56988     56990     56990     56988     56991
     56992     56988     56991     56992     56988     56990     56992     56988     56989
     56994     56998     56999     56995     56994     56997     56995     56994     56996
     56996     56994     56997     56998     56994     56997     56998     56994     56996
     56998     56994     56995     57000     57004     57005     57001     57000     57003
     57001     57000     57002     57002     57000     57003     57004     57000     57003
     57004     57000     57002     57004     57000     57001     57006     57010     57011
     57007     57006     57009     57007     57006     57008     57008     57006     57009
     57010     57006     57009     57010     57006     57008     57010     57006     57007
     57012     57016     57017     57013     57012     57015     57013     57012     57014
     57014     57012     57015     57016     57012     57015     57016     57012     57014
     57016     57012     57013     57018     57022     57023     57019     57018     57021
     57019     57018     57020     57020     57018     57021     57022     57018     57021
     57022     57018     57020     57022     57018     57019     57024     57028     57029
     57025     57024     57027     57025     57024     57026     57026     57024     57027
     57028     57024     57027     57028     57024     57026     57028     57024     57025
     57030     57034     57035     57031     57030     57033     57031     57030     57032
     57032     57030     57033     57034     57030     57033     57034     57030     57032
     57034     57030     57031     57036     57040     57041     57037     57036     57039
     57037     57036     57038     57038     57036     57039     57040     57036     57039
     57040     57036     57038     57040     57036     57037     57042     57046     57047
     57043     57042     57045     57043     57042     57044     57044     57042     57045
     57046     57042     57045     57046     57042     57044     57046     57042     57043
     57048     57052     57053     57049     57048     57051     57049     57048     57050
     57050     57048     57051     57052     57048     57051     57052     57048     57050
     57052     57048     57049     57054     57058     57059     57055     57054     57057
     57055     57054     57056     57056     57054     57057     57058     57054     57057
     57058     57054     57056     57058     57054     57055     57060     57064     57065
     57061     57060     57063     57061     57060     57062     57062     57060     57063
     57064     57060     57063     57064     57060     57062     57064     57060     57061
     57066     57070     57071     57067     57066     57069     57067     57066     57068
     57068     57066     57069     57070     57066     57069     57070     57066     57068
     57070     57066     57067     57072     57076     57077     57073     57072     57075
     57073     57072     57074     57074     57072     57075     57076     57072     57075
     57076     57072     57074     57076     57072     57073     57078     57082     57083
     57079     57078     57081     57079     57078     57080     57080     57078     57081
     57082     57078     57081     57082     57078     57080     57082     57078     57079
     57084     57088     57089     57085     57084     57087     57085     57084     57086
     57086     57084     57087     57088     57084     57087     57088     57084     57086
     57088     57084     57085     57090     57094     57095     57091     57090     57093
     57091     57090     57092     57092     57090     57093     57094     57090     57093
     57094     57090     57092     57094     57090     57091     57096     57100     57101
     57097     57096     57099     57097     57096     57098     57098     57096     57099
     57100     57096     57099     57100     57096     57098     57100     57096     57097
     57102     57106     57107     57103     57102     57105     57103     57102     57104
     57104     57102     57105     57106     57102     57105     57106     57102     57104
     57106     57102     57103     57108     57112     57113     57109     57108     57111
     57109     57108     57110     57110     57108     57111     57112     57108     57111
     57112     57108     57110     57112     57108     57109     57114     57118     57119
     57115     57114     57117     57115     57114     57116     57116     57114     57117
     57118     57114     57117     57118     57114     57116     57118     57114     57115
     57120     57124     57125     57121     57120     57123     57121     57120     57122
     57122     57120     57123     57124     57120     57123     57124     57120     57122
     57124     57120     57121     57126     57130     57131     57127     57126     57129
     57127     57126     57128     57128     57126     57129     57130     57126     57129
     57130     57126     57128     57130     57126     57127     57132     57136     57137
     57133     57132     57135     57133     57132     57134     57134     57132     57135
     57136     57132     57135     57136     57132     57134     57136     57132     57133
     57138     57142     57143     57139     57138     57141     57139     57138     57140
     57140     57138     57141     57142     57138     57141     57142     57138     57140
     57142     57138     57139     57144     57148     57149     57145     57144     57147
     57145     57144     57146     57146     57144     57147     57148     57144     57147
     57148     57144     57146     57148     57144     57145     57150     57154     57155
     57151     57150     57153     57151     57150     57152     57152     57150     57153
     57154     57150     57153     57154     57150     57152     57154     57150     57151
     57156     57160     57161     57157     57156     57159     57157     57156     57158
     57158     57156     57159     57160     57156     57159     57160     57156     57158
     57160     57156     57157     57162     57166     57167     57163     57162     57165
     57163     57162     57164     57164     57162     57165     57166     57162     57165
     57166     57162     57164     57166     57162     57163     57168     57172     57173
     57169     57168     57171     57169     57168     57170     57170     57168     57171
     57172     57168     57171     57172     57168     57170     57172     57168     57169
     57174     57178     57179     57175     57174     57177     57175     57174     57176
     57176     57174     57177     57178     57174     57177     57178     57174     57176
     57178     57174     57175     57180     57184     57185     57181     57180     57183
     57181     57180     57182     57182     57180     57183     57184     57180     57183
     57184     57180     57182     57184     57180     57181     57186     57190     57191
     57187     57186     57189     57187     57186     57188     57188     57186     57189
     57190     57186     57189     57190     57186     57188     57190     57186     57187
     57192     57196     57197     57193     57192     57195     57193     57192     57194
     57194     57192     57195     57196     57192     57195     57196     57192     57194
     57196     57192     57193     57198     57202     57203     57199     57198     57201
     57199     57198     57200     57200     57198     57201     57202     57198     57201
     57202     57198     57200     57202     57198     57199     57204     57208     57209
     57205     57204     57207     57205     57204     57206     57206     57204     57207
     57208     57204     57207     57208     57204     57206     57208     57204     57205
     57210     57214     57215     57211     57210     57213     57211     57210     57212
     57212     57210     57213     57214     57210     57213     57214     57210     57212
     57214     57210     57211     57216     57220     57221     57217     57216     57219
     57217     57216     57218     57218     57216     57219     57220     57216     57219
     57220     57216     57218     57220     57216     57217     57222     57226     57227
     57223     57222     57225     57223     57222     57224     57224     57222     57225
     57226     57222     57225     57226     57222     57224     57226     57222     57223
     57228     57232     57233     57229     57228     57231     57229     57228     57230
     57230     57228     57231     57232     57228     57231     57232     57228     57230
     57232     57228     57229     57234     57238     57239     57235     57234     57237
     57235     57234     57236     57236     57234     57237     57238     57234     57237
     57238     57234     57236     57238     57234     57235     57240     57244     57245
     57241     57240     57243     57241     57240     57242     57242     57240     57243
     57244     57240     57243     57244     57240     57242     57244     57240     57241
     57246     57250     57251     57247     57246     57249     57247     57246     57248
     57248     57246     57249     57250     57246     57249     57250     57246     57248
     57250     57246     57247     57252     57256     57257     57253     57252     57255
     57253     57252     57254     57254     57252     57255     57256     57252     57255
     57256     57252     57254     57256     57252     57253     57258     57262     57263
     57259     57258     57261     57259     57258     57260     57260     57258     57261
     57262     57258     57261     57262     57258     57260     57262     57258     57259
     57264     57268     57269     57265     57264     57267     57265     57264     57266
     57266     57264     57267     57268     57264     57267     57268     57264     57266
     57268     57264     57265     57270     57274     57275     57271     57270     57273
     57271     57270     57272     57272     57270     57273     57274     57270     57273
     57274     57270     57272     57274     57270     57271     57276     57280     57281
     57277     57276     57279     57277     57276     57278     57278     57276     57279
     57280     57276     57279     57280     57276     57278     57280     57276     57277
     57282     57286     57287     57283     57282     57285     57283     57282     57284
     57284     57282     57285     57286     57282     57285     57286     57282     57284
     57286     57282     57283     57288     57292     57293     57289     57288     57291
     57289     57288     57290     57290     57288     57291     57292     57288     57291
     57292     57288     57290     57292     57288     57289     57294     57298     57299
     57295     57294     57297     57295     57294     57296     57296     57294     57297
     57298     57294     57297     57298     57294     57296     57298     57294     57295
     57300     57304     57305     57301     57300     57303     57301     57300     57302
     57302     57300     57303     57304     57300     57303     57304     57300     57302
     57304     57300     57301     57306     57310     57311     57307     57306     57309
     57307     57306     57308     57308     57306     57309     57310     57306     57309
     57310     57306     57308     57310     57306     57307     57312     57316     57317
     57313     57312     57315     57313     57312     57314     57314     57312     57315
     57316     57312     57315     57316     57312     57314     57316     57312     57313
     57318     57322     57323     57319     57318     57321     57319     57318     57320
     57320     57318     57321     57322     57318     57321     57322     57318     57320
     57322     57318     57319     57324     57328     57329     57325     57324     57327
     57325     57324     57326     57326     57324     57327     57328     57324     57327
     57328     57324     57326     57328     57324     57325     57330     57334     57335
     57331     57330     57333     57331     57330     57332     57332     57330     57333
     57334     57330     57333     57334     57330     57332     57334     57330     57331
     57336     57340     57341     57337     57336     57339     57337     57336     57338
     57338     57336     57339     57340     57336     57339     57340     57336     57338
     57340     57336     57337     57342     57346     57347     57343     57342     57345
     57343     57342     57344     57344     57342     57345     57346     57342     57345
     57346     57342     57344     57346     57342     57343     57348     57352     57353
     57349     57348     57351     57349     57348     57350     57350     57348     57351
     57352     57348     57351     57352     57348     57350     57352     57348     57349
     57354     57358     57359     57355     57354     57357     57355     57354     57356
     57356     57354     57357     57358     57354     57357     57358     57354     57356
     57358     57354     57355     57360     57364     57365     57361     57360     57363
     57361     57360     57362     57362     57360     57363     57364     57360     57363
     57364     57360     57362     57364     57360     57361     57366     57370     57371
     57367     57366     57369     57367     57366     57368     57368     57366     57369
     57370     57366     57369     57370     57366     57368     57370     57366     57367
     57372     57376     57377     57373     57372     57375     57373     57372     57374
     57374     57372     57375     57376     57372     57375     57376     57372     57374
     57376     57372     57373     57378     57382     57383     57379     57378     57381
     57379     57378     57380     57380     57378     57381     57382     57378     57381
     57382     57378     57380     57382     57378     57379     57384     57388     57389
     57385     57384     57387     57385     57384     57386     57386     57384     57387
     57388     57384     57387     57388     57384     57386     57388     57384     57385
     57390     57394     57395     57391     57390     57393     57391     57390     57392
     57392     57390     57393     57394     57390     57393     57394     57390     57392
     57394     57390     57391     57396     57400     57401     57397     57396     57399
     57397     57396     57398     57398     57396     57399     57400     57396     57399
     57400     57396     57398     57400     57396     57397     57402     57406     57407
     57403     57402     57405     57403     57402     57404     57404     57402     57405
     57406     57402     57405     57406     57402     57404     57406     57402     57403
     57408     57412     57413     57409     57408     57411     57409     57408     57410
     57410     57408     57411     57412     57408     57411     57412     57408     57410
     57412     57408     57409     57414     57418     57419     57415     57414     57417
     57415     57414     57416     57416     57414     57417     57418     57414     57417
     57418     57414     57416     57418     57414     57415     57420     57424     57425
     57421     57420     57423     57421     57420     57422     57422     57420     57423
     57424     57420     57423     57424     57420     57422     57424     57420     57421
     57426     57430     57431     57427     57426     57429     57427     57426     57428
     57428     57426     57429     57430     57426     57429     57430     57426     57428
     57430     57426     57427     57432     57436     57437     57433     57432     57435
     57433     57432     57434     57434     57432     57435     57436     57432     57435
     57436     57432     57434     57436     57432     57433     57438     57442     57443
     57439     57438     57441     57439     57438     57440     57440     57438     57441
     57442     57438     57441     57442     57438     57440     57442     57438     57439
     57444     57448     57449     57445     57444     57447     57445     57444     57446
     57446     57444     57447     57448     57444     57447     57448     57444     57446
     57448     57444     57445     57450     57454     57455     57451     57450     57453
     57451     57450     57452     57452     57450     57453     57454     57450     57453
     57454     57450     57452     57454     57450     57451     57456     57460     57461
     57457     57456     57459     57457     57456     57458     57458     57456     57459
     57460     57456     57459     57460     57456     57458     57460     57456     57457
     57462     57466     57467     57463     57462     57465     57463     57462     57464
     57464     57462     57465     57466     57462     57465     57466     57462     57464
     57466     57462     57463     57468     57472     57473     57469     57468     57471
     57469     57468     57470     57470     57468     57471     57472     57468     57471
     57472     57468     57470     57472     57468     57469     57474     57478     57479
     57475     57474     57477     57475     57474     57476     57476     57474     57477
     57478     57474     57477     57478     57474     57476     57478     57474     57475
     57480     57484     57485     57481     57480     57483     57481     57480     57482
     57482     57480     57483     57484     57480     57483     57484     57480     57482
     57484     57480     57481     57486     57490     57491     57487     57486     57489
     57487     57486     57488     57488     57486     57489     57490     57486     57489
     57490     57486     57488     57490     57486     57487     57492     57496     57497
     57493     57492     57495     57493     57492     57494     57494     57492     57495
     57496     57492     57495     57496     57492     57494     57496     57492     57493
     57498     57502     57503     57499     57498     57501     57499     57498     57500
     57500     57498     57501     57502     57498     57501     57502     57498     57500
     57502     57498     57499     57504     57508     57509     57505     57504     57507
     57505     57504     57506     57506     57504     57507     57508     57504     57507
     57508     57504     57506     57508     57504     57505     57510     57514     57515
     57511     57510     57513     57511     57510     57512     57512     57510     57513
     57514     57510     57513     57514     57510     57512     57514     57510     57511
     57516     57520     57521     57517     57516     57519     57517     57516     57518
     57518     57516     57519     57520     57516     57519     57520     57516     57518
     57520     57516     57517     57522     57526     57527     57523     57522     57525
     57523     57522     57524     57524     57522     57525     57526     57522     57525
     57526     57522     57524     57526     57522     57523     57528     57532     57533
     57529     57528     57531     57529     57528     57530     57530     57528     57531
     57532     57528     57531     57532     57528     57530     57532     57528     57529
     57534     57538     57539     57535     57534     57537     57535     57534     57536
     57536     57534     57537     57538     57534     57537     57538     57534     57536
     57538     57534     57535     57540     57544     57545     57541     57540     57543
     57541     57540     57542     57542     57540     57543     57544     57540     57543
     57544     57540     57542     57544     57540     57541     57546     57550     57551
     57547     57546     57549     57547     57546     57548     57548     57546     57549
     57550     57546     57549     57550     57546     57548     57550     57546     57547
     57552     57556     57557     57553     57552     57555     57553     57552     57554
     57554     57552     57555     57556     57552     57555     57556     57552     57554
     57556     57552     57553     57558     57562     57563     57559     57558     57561
     57559     57558     57560     57560     57558     57561     57562     57558     57561
     57562     57558     57560     57562     57558     57559     57564     57568     57569
     57565     57564     57567     57565     57564     57566     57566     57564     57567
     57568     57564     57567     57568     57564     57566     57568     57564     57565
     57570     57574     57575     57571     57570     57573     57571     57570     57572
     57572     57570     57573     57574     57570     57573     57574     57570     57572
     57574     57570     57571     57576     57580     57581     57577     57576     57579
     57577     57576     57578     57578     57576     57579     57580     57576     57579
     57580     57576     57578     57580     57576     57577     57582     57586     57587
     57583     57582     57585     57583     57582     57584     57584     57582     57585
     57586     57582     57585     57586     57582     57584     57586     57582     57583
     57588     57592     57593     57589     57588     57591     57589     57588     57590
     57590     57588     57591     57592     57588     57591     57592     57588     57590
     57592     57588     57589     57594     57598     57599     57595     57594     57597
     57595     57594     57596     57596     57594     57597     57598     57594     57597
     57598     57594     57596     57598     57594     57595     57600     57604     57605
     57601     57600     57603     57601     57600     57602     57602     57600     57603
     57604     57600     57603     57604     57600     57602     57604     57600     57601
     57606     57610     57611     57607     57606     57609     57607     57606     57608
     57608     57606     57609     57610     57606     57609     57610     57606     57608
     57610     57606     57607     57612     57616     57617     57613     57612     57615
     57613     57612     57614     57614     57612     57615     57616     57612     57615
     57616     57612     57614     57616     57612     57613     57618     57622     57623
     57619     57618     57621     57619     57618     57620     57620     57618     57621
     57622     57618     57621     57622     57618     57620     57622     57618     57619
     57624     57628     57629     57625     57624     57627     57625     57624     57626
     57626     57624     57627     57628     57624     57627     57628     57624     57626
     57628     57624     57625     57630     57634     57635     57631     57630     57633
     57631     57630     57632     57632     57630     57633     57634     57630     57633
     57634     57630     57632     57634     57630     57631     57636     57640     57641
     57637     57636     57639     57637     57636     57638     57638     57636     57639
     57640     57636     57639     57640     57636     57638     57640     57636     57637
     57642     57646     57647     57643     57642     57645     57643     57642     57644
     57644     57642     57645     57646     57642     57645     57646     57642     57644
     57646     57642     57643     57648     57652     57653     57649     57648     57651
     57649     57648     57650     57650     57648     57651     57652     57648     57651
     57652     57648     57650     57652     57648     57649     57654     57658     57659
     57655     57654     57657     57655     57654     57656     57656     57654     57657
     57658     57654     57657     57658     57654     57656     57658     57654     57655
     57660     57664     57665     57661     57660     57663     57661     57660     57662
     57662     57660     57663     57664     57660     57663     57664     57660     57662
     57664     57660     57661     57666     57670     57671     57667     57666     57669
     57667     57666     57668     57668     57666     57669     57670     57666     57669
     57670     57666     57668     57670     57666     57667     57672     57676     57677
     57673     57672     57675     57673     57672     57674     57674     57672     57675
     57676     57672     57675     57676     57672     57674     57676     57672     57673
     57678     57682     57683     57679     57678     57681     57679     57678     57680
     57680     57678     57681     57682     57678     57681     57682     57678     57680
     57682     57678     57679     57684     57688     57689     57685     57684     57687
     57685     57684     57686     57686     57684     57687     57688     57684     57687
     57688     57684     57686     57688     57684     57685     57690     57694     57695
     57691     57690     57693     57691     57690     57692     57692     57690     57693
     57694     57690     57693     57694     57690     57692     57694     57690     57691
     57696     57700     57701     57697     57696     57699     57697     57696     57698
     57698     57696     57699     57700     57696     57699     57700     57696     57698
     57700     57696     57697     57702     57706     57707     57703     57702     57705
     57703     57702     57704     57704     57702     57705     57706     57702     57705
     57706     57702     57704     57706     57702     57703     57708     57712     57713
     57709     57708     57711     57709     57708     57710     57710     57708     57711
     57712     57708     57711     57712     57708     57710     57712     57708     57709
     57714     57718     57719     57715     57714     57717     57715     57714     57716
     57716     57714     57717     57718     57714     57717     57718     57714     57716
     57718     57714     57715     57720     57724     57725     57721     57720     57723
     57721     57720     57722     57722     57720     57723     57724     57720     57723
     57724     57720     57722     57724     57720     57721     57726     57730     57731
     57727     57726     57729     57727     57726     57728     57728     57726     57729
     57730     57726     57729     57730     57726     57728     57730     57726     57727
     57732     57736     57737     57733     57732     57735     57733     57732     57734
     57734     57732     57735     57736     57732     57735     57736     57732     57734
     57736     57732     57733     57738     57742     57743     57739     57738     57741
     57739     57738     57740     57740     57738     57741     57742     57738     57741
     57742     57738     57740     57742     57738     57739     57744     57748     57749
     57745     57744     57747     57745     57744     57746     57746     57744     57747
     57748     57744     57747     57748     57744     57746     57748     57744     57745
     57750     57754     57755     57751     57750     57753     57751     57750     57752
     57752     57750     57753     57754     57750     57753     57754     57750     57752
     57754     57750     57751     57756     57760     57761     57757     57756     57759
     57757     57756     57758     57758     57756     57759     57760     57756     57759
     57760     57756     57758     57760     57756     57757     57762     57766     57767
     57763     57762     57765     57763     57762     57764     57764     57762     57765
     57766     57762     57765     57766     57762     57764     57766     57762     57763
     57768     57772     57773     57769     57768     57771     57769     57768     57770
     57770     57768     57771     57772     57768     57771     57772     57768     57770
     57772     57768     57769     57774     57778     57779     57775     57774     57777
     57775     57774     57776     57776     57774     57777     57778     57774     57777
     57778     57774     57776     57778     57774     57775     57780     57784     57785
     57781     57780     57783     57781     57780     57782     57782     57780     57783
     57784     57780     57783     57784     57780     57782     57784     57780     57781
     57786     57790     57791     57787     57786     57789     57787     57786     57788
     57788     57786     57789     57790     57786     57789     57790     57786     57788
     57790     57786     57787     57792     57796     57797     57793     57792     57795
     57793     57792     57794     57794     57792     57795     57796     57792     57795
     57796     57792     57794     57796     57792     57793     57798     57802     57803
     57799     57798     57801     57799     57798     57800     57800     57798     57801
     57802     57798     57801     57802     57798     57800     57802     57798     57799
     57804     57808     57809     57805     57804     57807     57805     57804     57806
     57806     57804     57807     57808     57804     57807     57808     57804     57806
     57808     57804     57805     57810     57814     57815     57811     57810     57813
     57811     57810     57812     57812     57810     57813     57814     57810     57813
     57814     57810     57812     57814     57810     57811     57816     57820     57821
     57817     57816     57819     57817     57816     57818     57818     57816     57819
     57820     57816     57819     57820     57816     57818     57820     57816     57817
     57822     57826     57827     57823     57822     57825     57823     57822     57824
     57824     57822     57825     57826     57822     57825     57826     57822     57824
     57826     57822     57823     57828     57832     57833     57829     57828     57831
     57829     57828     57830     57830     57828     57831     57832     57828     57831
     57832     57828     57830     57832     57828     57829     57834     57838     57839
     57835     57834     57837     57835     57834     57836     57836     57834     57837
     57838     57834     57837     57838     57834     57836     57838     57834     57835
     57840     57844     57845     57841     57840     57843     57841     57840     57842
     57842     57840     57843     57844     57840     57843     57844     57840     57842
     57844     57840     57841     57846     57850     57851     57847     57846     57849
     57847     57846     57848     57848     57846     57849     57850     57846     57849
     57850     57846     57848     57850     57846     57847     57852     57856     57857
     57853     57852     57855     57853     57852     57854     57854     57852     57855
     57856     57852     57855     57856     57852     57854     57856     57852     57853
     57858     57862     57863     57859     57858     57861     57859     57858     57860
     57860     57858     57861     57862     57858     57861     57862     57858     57860
     57862     57858     57859     57864     57868     57869     57865     57864     57867
     57865     57864     57866     57866     57864     57867     57868     57864     57867
     57868     57864     57866     57868     57864     57865     57870     57874     57875
     57871     57870     57873     57871     57870     57872     57872     57870     57873
     57874     57870     57873     57874     57870     57872     57874     57870     57871
     57876     57880     57881     57877     57876     57879     57877     57876     57878
     57878     57876     57879     57880     57876     57879     57880     57876     57878
     57880     57876     57877     57882     57886     57887     57883     57882     57885
     57883     57882     57884     57884     57882     57885     57886     57882     57885
     57886     57882     57884     57886     57882     57883     57888     57892     57893
     57889     57888     57891     57889     57888     57890     57890     57888     57891
     57892     57888     57891     57892     57888     57890     57892     57888     57889
     57894     57898     57899     57895     57894     57897     57895     57894     57896
     57896     57894     57897     57898     57894     57897     57898     57894     57896
     57898     57894     57895     57900     57904     57905     57901     57900     57903
     57901     57900     57902     57902     57900     57903     57904     57900     57903
     57904     57900     57902     57904     57900     57901     57906     57910     57911
     57907     57906     57909     57907     57906     57908     57908     57906     57909
     57910     57906     57909     57910     57906     57908     57910     57906     57907
     57912     57916     57917     57913     57912     57915     57913     57912     57914
     57914     57912     57915     57916     57912     57915     57916     57912     57914
     57916     57912     57913     57918     57922     57923     57919     57918     57921
     57919     57918     57920     57920     57918     57921     57922     57918     57921
     57922     57918     57920     57922     57918     57919     57924     57928     57929
     57925     57924     57927     57925     57924     57926     57926     57924     57927
     57928     57924     57927     57928     57924     57926     57928     57924     57925
     57930     57934     57935     57931     57930     57933     57931     57930     57932
     57932     57930     57933     57934     57930     57933     57934     57930     57932
     57934     57930     57931     57936     57940     57941     57937     57936     57939
     57937     57936     57938     57938     57936     57939     57940     57936     57939
     57940     57936     57938     57940     57936     57937     57942     57946     57947
     57943     57942     57945     57943     57942     57944     57944     57942     57945
     57946     57942     57945     57946     57942     57944     57946     57942     57943
     57948     57952     57953     57949     57948     57951     57949     57948     57950
     57950     57948     57951     57952     57948     57951     57952     57948     57950
     57952     57948     57949     57954     57958     57959     57955     57954     57957
     57955     57954     57956     57956     57954     57957     57958     57954     57957
     57958     57954     57956     57958     57954     57955     57960     57964     57965
     57961     57960     57963     57961     57960     57962     57962     57960     57963
     57964     57960     57963     57964     57960     57962     57964     57960     57961
     57966     57970     57971     57967     57966     57969     57967     57966     57968
     57968     57966     57969     57970     57966     57969     57970     57966     57968
     57970     57966     57967     57972     57976     57977     57973     57972     57975
     57973     57972     57974     57974     57972     57975     57976     57972     57975
     57976     57972     57974     57976     57972     57973     57978     57982     57983
     57979     57978     57981     57979     57978     57980     57980     57978     57981
     57982     57978     57981     57982     57978     57980     57982     57978     57979
     57984     57988     57989     57985     57984     57987     57985     57984     57986
     57986     57984     57987     57988     57984     57987     57988     57984     57986
     57988     57984     57985     57990     57994     57995     57991     57990     57993
     57991     57990     57992     57992     57990     57993     57994     57990     57993
     57994     57990     57992     57994     57990     57991     57996     58000     58001
     57997     57996     57999     57997     57996     57998     57998     57996     57999
     58000     57996     57999     58000     57996     57998     58000     57996     57997
     58002     58006     58007     58003     58002     58005     58003     58002     58004
     58004     58002     58005     58006     58002     58005     58006     58002     58004
     58006     58002     58003     58008     58012     58013     58009     58008     58011
     58009     58008     58010     58010     58008     58011     58012     58008     58011
     58012     58008     58010     58012     58008     58009     58014     58018     58019
     58015     58014     58017     58015     58014     58016     58016     58014     58017
     58018     58014     58017     58018     58014     58016     58018     58014     58015
     58020     58024     58025     58021     58020     58023     58021     58020     58022
     58022     58020     58023     58024     58020     58023     58024     58020     58022
     58024     58020     58021     58026     58030     58031     58027     58026     58029
     58027     58026     58028     58028     58026     58029     58030     58026     58029
     58030     58026     58028     58030     58026     58027     58032     58036     58037
     58033     58032     58035     58033     58032     58034     58034     58032     58035
     58036     58032     58035     58036     58032     58034     58036     58032     58033
     58038     58042     58043     58039     58038     58041     58039     58038     58040
     58040     58038     58041     58042     58038     58041     58042     58038     58040
     58042     58038     58039     58044     58048     58049     58045     58044     58047
     58045     58044     58046     58046     58044     58047     58048     58044     58047
     58048     58044     58046     58048     58044     58045     58050     58054     58055
     58051     58050     58053     58051     58050     58052     58052     58050     58053
     58054     58050     58053     58054     58050     58052     58054     58050     58051
     58056     58060     58061     58057     58056     58059     58057     58056     58058
     58058     58056     58059     58060     58056     58059     58060     58056     58058
     58060     58056     58057     58062     58066     58067     58063     58062     58065
     58063     58062     58064     58064     58062     58065     58066     58062     58065
     58066     58062     58064     58066     58062     58063     58068     58072     58073
     58069     58068     58071     58069     58068     58070     58070     58068     58071
     58072     58068     58071     58072     58068     58070     58072     58068     58069
     58074     58078     58079     58075     58074     58077     58075     58074     58076
     58076     58074     58077     58078     58074     58077     58078     58074     58076
     58078     58074     58075     58080     58084     58085     58081     58080     58083
     58081     58080     58082     58082     58080     58083     58084     58080     58083
     58084     58080     58082     58084     58080     58081     58086     58090     58091
     58087     58086     58089     58087     58086     58088     58088     58086     58089
     58090     58086     58089     58090     58086     58088     58090     58086     58087
     58092     58096     58097     58093     58092     58095     58093     58092     58094
     58094     58092     58095     58096     58092     58095     58096     58092     58094
     58096     58092     58093     58098     58102     58103     58099     58098     58101
     58099     58098     58100     58100     58098     58101     58102     58098     58101
     58102     58098     58100     58102     58098     58099     58104     58108     58109
     58105     58104     58107     58105     58104     58106     58106     58104     58107
     58108     58104     58107     58108     58104     58106     58108     58104     58105
     58110     58114     58115     58111     58110     58113     58111     58110     58112
     58112     58110     58113     58114     58110     58113     58114     58110     58112
     58114     58110     58111     58116     58120     58121     58117     58116     58119
     58117     58116     58118     58118     58116     58119     58120     58116     58119
     58120     58116     58118     58120     58116     58117     58122     58126     58127
     58123     58122     58125     58123     58122     58124     58124     58122     58125
     58126     58122     58125     58126     58122     58124     58126     58122     58123
     58128     58132     58133     58129     58128     58131     58129     58128     58130
     58130     58128     58131     58132     58128     58131     58132     58128     58130
     58132     58128     58129     58134     58138     58139     58135     58134     58137
     58135     58134     58136     58136     58134     58137     58138     58134     58137
     58138     58134     58136     58138     58134     58135     58140     58144     58145
     58141     58140     58143     58141     58140     58142     58142     58140     58143
     58144     58140     58143     58144     58140     58142     58144     58140     58141
     58146     58150     58151     58147     58146     58149     58147     58146     58148
     58148     58146     58149     58150     58146     58149     58150     58146     58148
     58150     58146     58147     58152     58156     58157     58153     58152     58155
     58153     58152     58154     58154     58152     58155     58156     58152     58155
     58156     58152     58154     58156     58152     58153     58158     58162     58163
     58159     58158     58161     58159     58158     58160     58160     58158     58161
     58162     58158     58161     58162     58158     58160     58162     58158     58159
     58164     58168     58169     58165     58164     58167     58165     58164     58166
     58166     58164     58167     58168     58164     58167     58168     58164     58166
     58168     58164     58165     58170     58174     58175     58171     58170     58173
     58171     58170     58172     58172     58170     58173     58174     58170     58173
     58174     58170     58172     58174     58170     58171     58176     58180     58181
     58177     58176     58179     58177     58176     58178     58178     58176     58179
     58180     58176     58179     58180     58176     58178     58180     58176     58177
     58182     58186     58187     58183     58182     58185     58183     58182     58184
     58184     58182     58185     58186     58182     58185     58186     58182     58184
     58186     58182     58183     58188     58192     58193     58189     58188     58191
     58189     58188     58190     58190     58188     58191     58192     58188     58191
     58192     58188     58190     58192     58188     58189     58194     58198     58199
     58195     58194     58197     58195     58194     58196     58196     58194     58197
     58198     58194     58197     58198     58194     58196     58198     58194     58195
     58200     58204     58205     58201     58200     58203     58201     58200     58202
     58202     58200     58203     58204     58200     58203     58204     58200     58202
     58204     58200     58201     58206     58210     58211     58207     58206     58209
     58207     58206     58208     58208     58206     58209     58210     58206     58209
     58210     58206     58208     58210     58206     58207     58212     58216     58217
     58213     58212     58215     58213     58212     58214     58214     58212     58215
     58216     58212     58215     58216     58212     58214     58216     58212     58213
     58218     58222     58223     58219     58218     58221     58219     58218     58220
     58220     58218     58221     58222     58218     58221     58222     58218     58220
     58222     58218     58219     58224     58228     58229     58225     58224     58227
     58225     58224     58226     58226     58224     58227     58228     58224     58227
     58228     58224     58226     58228     58224     58225     58230     58234     58235
     58231     58230     58233     58231     58230     58232     58232     58230     58233
     58234     58230     58233     58234     58230     58232     58234     58230     58231
     58236     58240     58241     58237     58236     58239     58237     58236     58238
     58238     58236     58239     58240     58236     58239     58240     58236     58238
     58240     58236     58237     58242     58246     58247     58243     58242     58245
     58243     58242     58244     58244     58242     58245     58246     58242     58245
     58246     58242     58244     58246     58242     58243     58248     58252     58253
     58249     58248     58251     58249     58248     58250     58250     58248     58251
     58252     58248     58251     58252     58248     58250     58252     58248     58249
     58254     58258     58259     58255     58254     58257     58255     58254     58256
     58256     58254     58257     58258     58254     58257     58258     58254     58256
     58258     58254     58255     58260     58264     58265     58261     58260     58263
     58261     58260     58262     58262     58260     58263     58264     58260     58263
     58264     58260     58262     58264     58260     58261     58266     58270     58271
     58267     58266     58269     58267     58266     58268     58268     58266     58269
     58270     58266     58269     58270     58266     58268     58270     58266     58267
     58272     58276     58277     58273     58272     58275     58273     58272     58274
     58274     58272     58275     58276     58272     58275     58276     58272     58274
     58276     58272     58273     58278     58282     58283     58279     58278     58281
     58279     58278     58280     58280     58278     58281     58282     58278     58281
     58282     58278     58280     58282     58278     58279     58284     58288     58289
     58285     58284     58287     58285     58284     58286     58286     58284     58287
     58288     58284     58287     58288     58284     58286     58288     58284     58285
     58290     58294     58295     58291     58290     58293     58291     58290     58292
     58292     58290     58293     58294     58290     58293     58294     58290     58292
     58294     58290     58291     58296     58300     58301     58297     58296     58299
     58297     58296     58298     58298     58296     58299     58300     58296     58299
     58300     58296     58298     58300     58296     58297     58302     58306     58307
     58303     58302     58305     58303     58302     58304     58304     58302     58305
     58306     58302     58305     58306     58302     58304     58306     58302     58303
     58308     58312     58313     58309     58308     58311     58309     58308     58310
     58310     58308     58311     58312     58308     58311     58312     58308     58310
     58312     58308     58309     58314     58318     58319     58315     58314     58317
     58315     58314     58316     58316     58314     58317     58318     58314     58317
     58318     58314     58316     58318     58314     58315     58320     58324     58325
     58321     58320     58323     58321     58320     58322     58322     58320     58323
     58324     58320     58323     58324     58320     58322     58324     58320     58321
     58326     58330     58331     58327     58326     58329     58327     58326     58328
     58328     58326     58329     58330     58326     58329     58330     58326     58328
     58330     58326     58327     58332     58336     58337     58333     58332     58335
     58333     58332     58334     58334     58332     58335     58336     58332     58335
     58336     58332     58334     58336     58332     58333     58338     58342     58343
     58339     58338     58341     58339     58338     58340     58340     58338     58341
     58342     58338     58341     58342     58338     58340     58342     58338     58339
     58344     58348     58349     58345     58344     58347     58345     58344     58346
     58346     58344     58347     58348     58344     58347     58348     58344     58346
     58348     58344     58345     58350     58354     58355     58351     58350     58353
     58351     58350     58352     58352     58350     58353     58354     58350     58353
     58354     58350     58352     58354     58350     58351     58356     58360     58361
     58357     58356     58359     58357     58356     58358     58358     58356     58359
     58360     58356     58359     58360     58356     58358     58360     58356     58357
     58362     58366     58367     58363     58362     58365     58363     58362     58364
     58364     58362     58365     58366     58362     58365     58366     58362     58364
     58366     58362     58363     58368     58372     58373     58369     58368     58371
     58369     58368     58370     58370     58368     58371     58372     58368     58371
     58372     58368     58370     58372     58368     58369     58374     58378     58379
     58375     58374     58377     58375     58374     58376     58376     58374     58377
     58378     58374     58377     58378     58374     58376     58378     58374     58375
     58380     58384     58385     58381     58380     58383     58381     58380     58382
     58382     58380     58383     58384     58380     58383     58384     58380     58382
     58384     58380     58381     58386     58390     58391     58387     58386     58389
     58387     58386     58388     58388     58386     58389     58390     58386     58389
     58390     58386     58388     58390     58386     58387     58392     58396     58397
     58393     58392     58395     58393     58392     58394     58394     58392     58395
     58396     58392     58395     58396     58392     58394     58396     58392     58393
     58398     58402     58403     58399     58398     58401     58399     58398     58400
     58400     58398     58401     58402     58398     58401     58402     58398     58400
     58402     58398     58399     58404     58408     58409     58405     58404     58407
     58405     58404     58406     58406     58404     58407     58408     58404     58407
     58408     58404     58406     58408     58404     58405     58410     58414     58415
     58411     58410     58413     58411     58410     58412     58412     58410     58413
     58414     58410     58413     58414     58410     58412     58414     58410     58411
     58416     58420     58421     58417     58416     58419     58417     58416     58418
     58418     58416     58419     58420     58416     58419     58420     58416     58418
     58420     58416     58417     58422     58426     58427     58423     58422     58425
     58423     58422     58424     58424     58422     58425     58426     58422     58425
     58426     58422     58424     58426     58422     58423     58428     58432     58433
     58429     58428     58431     58429     58428     58430     58430     58428     58431
     58432     58428     58431     58432     58428     58430     58432     58428     58429
     58434     58438     58439     58435     58434     58437     58435     58434     58436
     58436     58434     58437     58438     58434     58437     58438     58434     58436
     58438     58434     58435     58440     58444     58445     58441     58440     58443
     58441     58440     58442     58442     58440     58443     58444     58440     58443
     58444     58440     58442     58444     58440     58441     58446     58450     58451
     58447     58446     58449     58447     58446     58448     58448     58446     58449
     58450     58446     58449     58450     58446     58448     58450     58446     58447
     58452     58456     58457     58453     58452     58455     58453     58452     58454
     58454     58452     58455     58456     58452     58455     58456     58452     58454
     58456     58452     58453     58458     58462     58463     58459     58458     58461
     58459     58458     58460     58460     58458     58461     58462     58458     58461
     58462     58458     58460     58462     58458     58459     58464     58468     58469
     58465     58464     58467     58465     58464     58466     58466     58464     58467
     58468     58464     58467     58468     58464     58466     58468     58464     58465
     58470     58474     58475     58471     58470     58473     58471     58470     58472
     58472     58470     58473     58474     58470     58473     58474     58470     58472
     58474     58470     58471     58476     58480     58481     58477     58476     58479
     58477     58476     58478     58478     58476     58479     58480     58476     58479
     58480     58476     58478     58480     58476     58477     58482     58486     58487
     58483     58482     58485     58483     58482     58484     58484     58482     58485
     58486     58482     58485     58486     58482     58484     58486     58482     58483
     58488     58492     58493     58489     58488     58491     58489     58488     58490
     58490     58488     58491     58492     58488     58491     58492     58488     58490
     58492     58488     58489     58494     58498     58499     58495     58494     58497
     58495     58494     58496     58496     58494     58497     58498     58494     58497
     58498     58494     58496     58498     58494     58495     58500     58504     58505
     58501     58500     58503     58501     58500     58502     58502     58500     58503
     58504     58500     58503     58504     58500     58502     58504     58500     58501
     58506     58510     58511     58507     58506     58509     58507     58506     58508
     58508     58506     58509     58510     58506     58509     58510     58506     58508
     58510     58506     58507     58512     58516     58517     58513     58512     58515
     58513     58512     58514     58514     58512     58515     58516     58512     58515
     58516     58512     58514     58516     58512     58513     58518     58522     58523
     58519     58518     58521     58519     58518     58520     58520     58518     58521
     58522     58518     58521     58522     58518     58520     58522     58518     58519
     58524     58528     58529     58525     58524     58527     58525     58524     58526
     58526     58524     58527     58528     58524     58527     58528     58524     58526
     58528     58524     58525     58530     58534     58535     58531     58530     58533
     58531     58530     58532     58532     58530     58533     58534     58530     58533
     58534     58530     58532     58534     58530     58531     58536     58540     58541
     58537     58536     58539     58537     58536     58538     58538     58536     58539
     58540     58536     58539     58540     58536     58538     58540     58536     58537
     58542     58546     58547     58543     58542     58545     58543     58542     58544
     58544     58542     58545     58546     58542     58545     58546     58542     58544
     58546     58542     58543     58548     58552     58553     58549     58548     58551
     58549     58548     58550     58550     58548     58551     58552     58548     58551
     58552     58548     58550     58552     58548     58549     58554     58558     58559
     58555     58554     58557     58555     58554     58556     58556     58554     58557
     58558     58554     58557     58558     58554     58556     58558     58554     58555
     58560     58564     58565     58561     58560     58563     58561     58560     58562
     58562     58560     58563     58564     58560     58563     58564     58560     58562
     58564     58560     58561     58566     58570     58571     58567     58566     58569
     58567     58566     58568     58568     58566     58569     58570     58566     58569
     58570     58566     58568     58570     58566     58567     58572     58576     58577
     58573     58572     58575     58573     58572     58574     58574     58572     58575
     58576     58572     58575     58576     58572     58574     58576     58572     58573
     58578     58582     58583     58579     58578     58581     58579     58578     58580
     58580     58578     58581     58582     58578     58581     58582     58578     58580
     58582     58578     58579     58584     58588     58589     58585     58584     58587
     58585     58584     58586     58586     58584     58587     58588     58584     58587
     58588     58584     58586     58588     58584     58585     58590     58594     58595
     58591     58590     58593     58591     58590     58592     58592     58590     58593
     58594     58590     58593     58594     58590     58592     58594     58590     58591
     58596     58600     58601     58597     58596     58599     58597     58596     58598
     58598     58596     58599     58600     58596     58599     58600     58596     58598
     58600     58596     58597     58602     58606     58607     58603     58602     58605
     58603     58602     58604     58604     58602     58605     58606     58602     58605
     58606     58602     58604     58606     58602     58603     58608     58612     58613
     58609     58608     58611     58609     58608     58610     58610     58608     58611
     58612     58608     58611     58612     58608     58610     58612     58608     58609
     58614     58618     58619     58615     58614     58617     58615     58614     58616
     58616     58614     58617     58618     58614     58617     58618     58614     58616
     58618     58614     58615     58620     58624     58625     58621     58620     58623
     58621     58620     58622     58622     58620     58623     58624     58620     58623
     58624     58620     58622     58624     58620     58621     58626     58630     58631
     58627     58626     58629     58627     58626     58628     58628     58626     58629
     58630     58626     58629     58630     58626     58628     58630     58626     58627
     58632     58636     58637     58633     58632     58635     58633     58632     58634
     58634     58632     58635     58636     58632     58635     58636     58632     58634
     58636     58632     58633     58638     58642     58643     58639     58638     58641
     58639     58638     58640     58640     58638     58641     58642     58638     58641
     58642     58638     58640     58642     58638     58639     58644     58648     58649
     58645     58644     58647     58645     58644     58646     58646     58644     58647
     58648     58644     58647     58648     58644     58646     58648     58644     58645
     58650     58654     58655     58651     58650     58653     58651     58650     58652
     58652     58650     58653     58654     58650     58653     58654     58650     58652
     58654     58650     58651     58656     58660     58661     58657     58656     58659
     58657     58656     58658     58658     58656     58659     58660     58656     58659
     58660     58656     58658     58660     58656     58657     58662     58666     58667
     58663     58662     58665     58663     58662     58664     58664     58662     58665
     58666     58662     58665     58666     58662     58664     58666     58662     58663
     58668     58672     58673     58669     58668     58671     58669     58668     58670
     58670     58668     58671     58672     58668     58671     58672     58668     58670
     58672     58668     58669     58674     58678     58679     58675     58674     58677
     58675     58674     58676     58676     58674     58677     58678     58674     58677
     58678     58674     58676     58678     58674     58675     58680     58684     58685
     58681     58680     58683     58681     58680     58682     58682     58680     58683
     58684     58680     58683     58684     58680     58682     58684     58680     58681
     58686     58690     58691     58687     58686     58689     58687     58686     58688
     58688     58686     58689     58690     58686     58689     58690     58686     58688
     58690     58686     58687     58692     58696     58697     58693     58692     58695
     58693     58692     58694     58694     58692     58695     58696     58692     58695
     58696     58692     58694     58696     58692     58693     58698     58702     58703
     58699     58698     58701     58699     58698     58700     58700     58698     58701
     58702     58698     58701     58702     58698     58700     58702     58698     58699
     58704     58708     58709     58705     58704     58707     58705     58704     58706
     58706     58704     58707     58708     58704     58707     58708     58704     58706
     58708     58704     58705     58710     58714     58715     58711     58710     58713
     58711     58710     58712     58712     58710     58713     58714     58710     58713
     58714     58710     58712     58714     58710     58711     58716     58720     58721
     58717     58716     58719     58717     58716     58718     58718     58716     58719
     58720     58716     58719     58720     58716     58718     58720     58716     58717
     58722     58726     58727     58723     58722     58725     58723     58722     58724
     58724     58722     58725     58726     58722     58725     58726     58722     58724
     58726     58722     58723     58728     58732     58733     58729     58728     58731
     58729     58728     58730     58730     58728     58731     58732     58728     58731
     58732     58728     58730     58732     58728     58729     58734     58738     58739
     58735     58734     58737     58735     58734     58736     58736     58734     58737
     58738     58734     58737     58738     58734     58736     58738     58734     58735
     58740     58744     58745     58741     58740     58743     58741     58740     58742
     58742     58740     58743     58744     58740     58743     58744     58740     58742
     58744     58740     58741     58746     58750     58751     58747     58746     58749
     58747     58746     58748     58748     58746     58749     58750     58746     58749
     58750     58746     58748     58750     58746     58747     58752     58756     58757
     58753     58752     58755     58753     58752     58754     58754     58752     58755
     58756     58752     58755     58756     58752     58754     58756     58752     58753
     58758     58762     58763     58759     58758     58761     58759     58758     58760
     58760     58758     58761     58762     58758     58761     58762     58758     58760
     58762     58758     58759     58764     58768     58769     58765     58764     58767
     58765     58764     58766     58766     58764     58767     58768     58764     58767
     58768     58764     58766     58768     58764     58765     58770     58774     58775
     58771     58770     58773     58771     58770     58772     58772     58770     58773
     58774     58770     58773     58774     58770     58772     58774     58770     58771
     58776     58780     58781     58777     58776     58779     58777     58776     58778
     58778     58776     58779     58780     58776     58779     58780     58776     58778
     58780     58776     58777     58782     58786     58787     58783     58782     58785
     58783     58782     58784     58784     58782     58785     58786     58782     58785
     58786     58782     58784     58786     58782     58783     58788     58792     58793
     58789     58788     58791     58789     58788     58790     58790     58788     58791
     58792     58788     58791     58792     58788     58790     58792     58788     58789
     58794     58798     58799     58795     58794     58797     58795     58794     58796
     58796     58794     58797     58798     58794     58797     58798     58794     58796
     58798     58794     58795     58800     58804     58805     58801     58800     58803
     58801     58800     58802     58802     58800     58803     58804     58800     58803
     58804     58800     58802     58804     58800     58801     58806     58810     58811
     58807     58806     58809     58807     58806     58808     58808     58806     58809
     58810     58806     58809     58810     58806     58808     58810     58806     58807
     58812     58816     58817     58813     58812     58815     58813     58812     58814
     58814     58812     58815     58816     58812     58815     58816     58812     58814
     58816     58812     58813     58818     58822     58823     58819     58818     58821
     58819     58818     58820     58820     58818     58821     58822     58818     58821
     58822     58818     58820     58822     58818     58819     58824     58828     58829
     58825     58824     58827     58825     58824     58826     58826     58824     58827
     58828     58824     58827     58828     58824     58826     58828     58824     58825
     58830     58834     58835     58831     58830     58833     58831     58830     58832
     58832     58830     58833     58834     58830     58833     58834     58830     58832
     58834     58830     58831     58836     58840     58841     58837     58836     58839
     58837     58836     58838     58838     58836     58839     58840     58836     58839
     58840     58836     58838     58840     58836     58837     58842     58846     58847
     58843     58842     58845     58843     58842     58844     58844     58842     58845
     58846     58842     58845     58846     58842     58844     58846     58842     58843
     58848     58852     58853     58849     58848     58851     58849     58848     58850
     58850     58848     58851     58852     58848     58851     58852     58848     58850
     58852     58848     58849     58854     58858     58859     58855     58854     58857
     58855     58854     58856     58856     58854     58857     58858     58854     58857
     58858     58854     58856     58858     58854     58855     58860     58864     58865
     58861     58860     58863     58861     58860     58862     58862     58860     58863
     58864     58860     58863     58864     58860     58862     58864     58860     58861
     58866     58870     58871     58867     58866     58869     58867     58866     58868
     58868     58866     58869     58870     58866     58869     58870     58866     58868
     58870     58866     58867     58872     58876     58877     58873     58872     58875
     58873     58872     58874     58874     58872     58875     58876     58872     58875
     58876     58872     58874     58876     58872     58873     58878     58882     58883
     58879     58878     58881     58879     58878     58880     58880     58878     58881
     58882     58878     58881     58882     58878     58880     58882     58878     58879
     58884     58888     58889     58885     58884     58887     58885     58884     58886
     58886     58884     58887     58888     58884     58887     58888     58884     58886
     58888     58884     58885     58890     58894     58895     58891     58890     58893
     58891     58890     58892     58892     58890     58893     58894     58890     58893
     58894     58890     58892     58894     58890     58891     58896     58900     58901
     58897     58896     58899     58897     58896     58898     58898     58896     58899
     58900     58896     58899     58900     58896     58898     58900     58896     58897
     58902     58906     58907     58903     58902     58905     58903     58902     58904
     58904     58902     58905     58906     58902     58905     58906     58902     58904
     58906     58902     58903     58908     58912     58913     58909     58908     58911
     58909     58908     58910     58910     58908     58911     58912     58908     58911
     58912     58908     58910     58912     58908     58909     58914     58918     58919
     58915     58914     58917     58915     58914     58916     58916     58914     58917
     58918     58914     58917     58918     58914     58916     58918     58914     58915
     58920     58924     58925     58921     58920     58923     58921     58920     58922
     58922     58920     58923     58924     58920     58923     58924     58920     58922
     58924     58920     58921     58926     58930     58931     58927     58926     58929
     58927     58926     58928     58928     58926     58929     58930     58926     58929
     58930     58926     58928     58930     58926     58927     58932     58936     58937
     58933     58932     58935     58933     58932     58934     58934     58932     58935
     58936     58932     58935     58936     58932     58934     58936     58932     58933
     58938     58942     58943     58939     58938     58941     58939     58938     58940
     58940     58938     58941     58942     58938     58941     58942     58938     58940
     58942     58938     58939     58944     58948     58949     58945     58944     58947
     58945     58944     58946     58946     58944     58947     58948     58944     58947
     58948     58944     58946     58948     58944     58945     58950     58954     58955
     58951     58950     58953     58951     58950     58952     58952     58950     58953
     58954     58950     58953     58954     58950     58952     58954     58950     58951
     58956     58960     58961     58957     58956     58959     58957     58956     58958
     58958     58956     58959     58960     58956     58959     58960     58956     58958
     58960     58956     58957     58962     58966     58967     58963     58962     58965
     58963     58962     58964     58964     58962     58965     58966     58962     58965
     58966     58962     58964     58966     58962     58963     58968     58972     58973
     58969     58968     58971     58969     58968     58970     58970     58968     58971
     58972     58968     58971     58972     58968     58970     58972     58968     58969
     58974     58978     58979     58975     58974     58977     58975     58974     58976
     58976     58974     58977     58978     58974     58977     58978     58974     58976
     58978     58974     58975     58980     58984     58985     58981     58980     58983
     58981     58980     58982     58982     58980     58983     58984     58980     58983
     58984     58980     58982     58984     58980     58981     58986     58990     58991
     58987     58986     58989     58987     58986     58988     58988     58986     58989
     58990     58986     58989     58990     58986     58988     58990     58986     58987
     58992     58996     58997     58993     58992     58995     58993     58992     58994
     58994     58992     58995     58996     58992     58995     58996     58992     58994
     58996     58992     58993     58998     59002     59003     58999     58998     59001
     58999     58998     59000     59000     58998     59001     59002     58998     59001
     59002     58998     59000     59002     58998     58999     59004     59008     59009
     59005     59004     59007     59005     59004     59006     59006     59004     59007
     59008     59004     59007     59008     59004     59006     59008     59004     59005
     59010     59014     59015     59011     59010     59013     59011     59010     59012
     59012     59010     59013     59014     59010     59013     59014     59010     59012
     59014     59010     59011     59016     59020     59021     59017     59016     59019
     59017     59016     59018     59018     59016     59019     59020     59016     59019
     59020     59016     59018     59020     59016     59017     59022     59026     59027
     59023     59022     59025     59023     59022     59024     59024     59022     59025
     59026     59022     59025     59026     59022     59024     59026     59022     59023
     59028     59032     59033     59029     59028     59031     59029     59028     59030
     59030     59028     59031     59032     59028     59031     59032     59028     59030
     59032     59028     59029     59034     59038     59039     59035     59034     59037
     59035     59034     59036     59036     59034     59037     59038     59034     59037
     59038     59034     59036     59038     59034     59035     59040     59044     59045
     59041     59040     59043     59041     59040     59042     59042     59040     59043
     59044     59040     59043     59044     59040     59042     59044     59040     59041
     59046     59050     59051     59047     59046     59049     59047     59046     59048
     59048     59046     59049     59050     59046     59049     59050     59046     59048
     59050     59046     59047     59052     59056     59057     59053     59052     59055
     59053     59052     59054     59054     59052     59055     59056     59052     59055
     59056     59052     59054     59056     59052     59053     59058     59062     59063
     59059     59058     59061     59059     59058     59060     59060     59058     59061
     59062     59058     59061     59062     59058     59060     59062     59058     59059
     59064     59068     59069     59065     59064     59067     59065     59064     59066
     59066     59064     59067     59068     59064     59067     59068     59064     59066
     59068     59064     59065     59070     59074     59075     59071     59070     59073
     59071     59070     59072     59072     59070     59073     59074     59070     59073
     59074     59070     59072     59074     59070     59071     59076     59080     59081
     59077     59076     59079     59077     59076     59078     59078     59076     59079
     59080     59076     59079     59080     59076     59078     59080     59076     59077
     59082     59086     59087     59083     59082     59085     59083     59082     59084
     59084     59082     59085     59086     59082     59085     59086     59082     59084
     59086     59082     59083     59088     59092     59093     59089     59088     59091
     59089     59088     59090     59090     59088     59091     59092     59088     59091
     59092     59088     59090     59092     59088     59089     59094     59098     59099
     59095     59094     59097     59095     59094     59096     59096     59094     59097
     59098     59094     59097     59098     59094     59096     59098     59094     59095
     59100     59104     59105     59101     59100     59103     59101     59100     59102
     59102     59100     59103     59104     59100     59103     59104     59100     59102
     59104     59100     59101     59106     59110     59111     59107     59106     59109
     59107     59106     59108     59108     59106     59109     59110     59106     59109
     59110     59106     59108     59110     59106     59107     59112     59116     59117
     59113     59112     59115     59113     59112     59114     59114     59112     59115
     59116     59112     59115     59116     59112     59114     59116     59112     59113
     59118     59122     59123     59119     59118     59121     59119     59118     59120
     59120     59118     59121     59122     59118     59121     59122     59118     59120
     59122     59118     59119     59124     59128     59129     59125     59124     59127
     59125     59124     59126     59126     59124     59127     59128     59124     59127
     59128     59124     59126     59128     59124     59125     59130     59134     59135
     59131     59130     59133     59131     59130     59132     59132     59130     59133
     59134     59130     59133     59134     59130     59132     59134     59130     59131
     59136     59140     59141     59137     59136     59139     59137     59136     59138
     59138     59136     59139     59140     59136     59139     59140     59136     59138
     59140     59136     59137     59142     59146     59147     59143     59142     59145
     59143     59142     59144     59144     59142     59145     59146     59142     59145
     59146     59142     59144     59146     59142     59143     59148     59152     59153
     59149     59148     59151     59149     59148     59150     59150     59148     59151
     59152     59148     59151     59152     59148     59150     59152     59148     59149
     59154     59158     59159     59155     59154     59157     59155     59154     59156
     59156     59154     59157     59158     59154     59157     59158     59154     59156
     59158     59154     59155     59160     59164     59165     59161     59160     59163
     59161     59160     59162     59162     59160     59163     59164     59160     59163
     59164     59160     59162     59164     59160     59161     59166     59170     59171
     59167     59166     59169     59167     59166     59168     59168     59166     59169
     59170     59166     59169     59170     59166     59168     59170     59166     59167
     59172     59176     59177     59173     59172     59175     59173     59172     59174
     59174     59172     59175     59176     59172     59175     59176     59172     59174
     59176     59172     59173     59178     59182     59183     59179     59178     59181
     59179     59178     59180     59180     59178     59181     59182     59178     59181
     59182     59178     59180     59182     59178     59179     59184     59188     59189
     59185     59184     59187     59185     59184     59186     59186     59184     59187
     59188     59184     59187     59188     59184     59186     59188     59184     59185
     59190     59194     59195     59191     59190     59193     59191     59190     59192
     59192     59190     59193     59194     59190     59193     59194     59190     59192
     59194     59190     59191     59196     59200     59201     59197     59196     59199
     59197     59196     59198     59198     59196     59199     59200     59196     59199
     59200     59196     59198     59200     59196     59197     59202     59206     59207
     59203     59202     59205     59203     59202     59204     59204     59202     59205
     59206     59202     59205     59206     59202     59204     59206     59202     59203
     59208     59212     59213     59209     59208     59211     59209     59208     59210
     59210     59208     59211     59212     59208     59211     59212     59208     59210
     59212     59208     59209     59214     59218     59219     59215     59214     59217
     59215     59214     59216     59216     59214     59217     59218     59214     59217
     59218     59214     59216     59218     59214     59215     59220     59224     59225
     59221     59220     59223     59221     59220     59222     59222     59220     59223
     59224     59220     59223     59224     59220     59222     59224     59220     59221
     59226     59230     59231     59227     59226     59229     59227     59226     59228
     59228     59226     59229     59230     59226     59229     59230     59226     59228
     59230     59226     59227     59232     59236     59237     59233     59232     59235
     59233     59232     59234     59234     59232     59235     59236     59232     59235
     59236     59232     59234     59236     59232     59233     59238     59242     59243
     59239     59238     59241     59239     59238     59240     59240     59238     59241
     59242     59238     59241     59242     59238     59240     59242     59238     59239
     59244     59248     59249     59245     59244     59247     59245     59244     59246
     59246     59244     59247     59248     59244     59247     59248     59244     59246
     59248     59244     59245     59250     59254     59255     59251     59250     59253
     59251     59250     59252     59252     59250     59253     59254     59250     59253
     59254     59250     59252     59254     59250     59251     59256     59260     59261
     59257     59256     59259     59257     59256     59258     59258     59256     59259
     59260     59256     59259     59260     59256     59258     59260     59256     59257
     59262     59266     59267     59263     59262     59265     59263     59262     59264
     59264     59262     59265     59266     59262     59265     59266     59262     59264
     59266     59262     59263     59268     59272     59273     59269     59268     59271
     59269     59268     59270     59270     59268     59271     59272     59268     59271
     59272     59268     59270     59272     59268     59269     59274     59278     59279
     59275     59274     59277     59275     59274     59276     59276     59274     59277
     59278     59274     59277     59278     59274     59276     59278     59274     59275
     59280     59284     59285     59281     59280     59283     59281     59280     59282
     59282     59280     59283     59284     59280     59283     59284     59280     59282
     59284     59280     59281     59286     59290     59291     59287     59286     59289
     59287     59286     59288     59288     59286     59289     59290     59286     59289
     59290     59286     59288     59290     59286     59287     59292     59296     59297
     59293     59292     59295     59293     59292     59294     59294     59292     59295
     59296     59292     59295     59296     59292     59294     59296     59292     59293
     59298     59302     59303     59299     59298     59301     59299     59298     59300
     59300     59298     59301     59302     59298     59301     59302     59298     59300
     59302     59298     59299     59304     59308     59309     59305     59304     59307
     59305     59304     59306     59306     59304     59307     59308     59304     59307
     59308     59304     59306     59308     59304     59305     59310     59314     59315
     59311     59310     59313     59311     59310     59312     59312     59310     59313
     59314     59310     59313     59314     59310     59312     59314     59310     59311
     59316     59320     59321     59317     59316     59319     59317     59316     59318
     59318     59316     59319     59320     59316     59319     59320     59316     59318
     59320     59316     59317     59322     59326     59327     59323     59322     59325
     59323     59322     59324     59324     59322     59325     59326     59322     59325
     59326     59322     59324     59326     59322     59323     59328     59332     59333
     59329     59328     59331     59329     59328     59330     59330     59328     59331
     59332     59328     59331     59332     59328     59330     59332     59328     59329
     59334     59338     59339     59335     59334     59337     59335     59334     59336
     59336     59334     59337     59338     59334     59337     59338     59334     59336
     59338     59334     59335     59340     59344     59345     59341     59340     59343
     59341     59340     59342     59342     59340     59343     59344     59340     59343
     59344     59340     59342     59344     59340     59341     59346     59350     59351
     59347     59346     59349     59347     59346     59348     59348     59346     59349
     59350     59346     59349     59350     59346     59348     59350     59346     59347
     59352     59356     59357     59353     59352     59355     59353     59352     59354
     59354     59352     59355     59356     59352     59355     59356     59352     59354
     59356     59352     59353     59358     59362     59363     59359     59358     59361
     59359     59358     59360     59360     59358     59361     59362     59358     59361
     59362     59358     59360     59362     59358     59359     59364     59368     59369
     59365     59364     59367     59365     59364     59366     59366     59364     59367
     59368     59364     59367     59368     59364     59366     59368     59364     59365
     59370     59374     59375     59371     59370     59373     59371     59370     59372
     59372     59370     59373     59374     59370     59373     59374     59370     59372
     59374     59370     59371     59376     59380     59381     59377     59376     59379
     59377     59376     59378     59378     59376     59379     59380     59376     59379
     59380     59376     59378     59380     59376     59377     59382     59386     59387
     59383     59382     59385     59383     59382     59384     59384     59382     59385
     59386     59382     59385     59386     59382     59384     59386     59382     59383
     59388     59392     59393     59389     59388     59391     59389     59388     59390
     59390     59388     59391     59392     59388     59391     59392     59388     59390
     59392     59388     59389     59394     59398     59399     59395     59394     59397
     59395     59394     59396     59396     59394     59397     59398     59394     59397
     59398     59394     59396     59398     59394     59395     59400     59404     59405
     59401     59400     59403     59401     59400     59402     59402     59400     59403
     59404     59400     59403     59404     59400     59402     59404     59400     59401
     59406     59410     59411     59407     59406     59409     59407     59406     59408
     59408     59406     59409     59410     59406     59409     59410     59406     59408
     59410     59406     59407     59412     59416     59417     59413     59412     59415
     59413     59412     59414     59414     59412     59415     59416     59412     59415
     59416     59412     59414     59416     59412     59413     59418     59422     59423
     59419     59418     59421     59419     59418     59420     59420     59418     59421
     59422     59418     59421     59422     59418     59420     59422     59418     59419
     59424     59428     59429     59425     59424     59427     59425     59424     59426
     59426     59424     59427     59428     59424     59427     59428     59424     59426
     59428     59424     59425     59430     59434     59435     59431     59430     59433
     59431     59430     59432     59432     59430     59433     59434     59430     59433
     59434     59430     59432     59434     59430     59431     59436     59440     59441
     59437     59436     59439     59437     59436     59438     59438     59436     59439
     59440     59436     59439     59440     59436     59438     59440     59436     59437
     59442     59446     59447     59443     59442     59445     59443     59442     59444
     59444     59442     59445     59446     59442     59445     59446     59442     59444
     59446     59442     59443     59448     59452     59453     59449     59448     59451
     59449     59448     59450     59450     59448     59451     59452     59448     59451
     59452     59448     59450     59452     59448     59449     59454     59458     59459
     59455     59454     59457     59455     59454     59456     59456     59454     59457
     59458     59454     59457     59458     59454     59456     59458     59454     59455
     59460     59464     59465     59461     59460     59463     59461     59460     59462
     59462     59460     59463     59464     59460     59463     59464     59460     59462
     59464     59460     59461     59466     59470     59471     59467     59466     59469
     59467     59466     59468     59468     59466     59469     59470     59466     59469
     59470     59466     59468     59470     59466     59467     59472     59476     59477
     59473     59472     59475     59473     59472     59474     59474     59472     59475
     59476     59472     59475     59476     59472     59474     59476     59472     59473
     59478     59482     59483     59479     59478     59481     59479     59478     59480
     59480     59478     59481     59482     59478     59481     59482     59478     59480
     59482     59478     59479     59484     59488     59489     59485     59484     59487
     59485     59484     59486     59486     59484     59487     59488     59484     59487
     59488     59484     59486     59488     59484     59485     59490     59494     59495
     59491     59490     59493     59491     59490     59492     59492     59490     59493
     59494     59490     59493     59494     59490     59492     59494     59490     59491
     59496     59500     59501     59497     59496     59499     59497     59496     59498
     59498     59496     59499     59500     59496     59499     59500     59496     59498
     59500     59496     59497     59502     59506     59507     59503     59502     59505
     59503     59502     59504     59504     59502     59505     59506     59502     59505
     59506     59502     59504     59506     59502     59503     59508     59512     59513
     59509     59508     59511     59509     59508     59510     59510     59508     59511
     59512     59508     59511     59512     59508     59510     59512     59508     59509
     59514     59518     59519     59515     59514     59517     59515     59514     59516
     59516     59514     59517     59518     59514     59517     59518     59514     59516
     59518     59514     59515     59520     59524     59525     59521     59520     59523
     59521     59520     59522     59522     59520     59523     59524     59520     59523
     59524     59520     59522     59524     59520     59521     59526     59530     59531
     59527     59526     59529     59527     59526     59528     59528     59526     59529
     59530     59526     59529     59530     59526     59528     59530     59526     59527
     59532     59536     59537     59533     59532     59535     59533     59532     59534
     59534     59532     59535     59536     59532     59535     59536     59532     59534
     59536     59532     59533     59538     59542     59543     59539     59538     59541
     59539     59538     59540     59540     59538     59541     59542     59538     59541
     59542     59538     59540     59542     59538     59539     59544     59548     59549
     59545     59544     59547     59545     59544     59546     59546     59544     59547
     59548     59544     59547     59548     59544     59546     59548     59544     59545
     59550     59554     59555     59551     59550     59553     59551     59550     59552
     59552     59550     59553     59554     59550     59553     59554     59550     59552
     59554     59550     59551     59556     59560     59561     59557     59556     59559
     59557     59556     59558     59558     59556     59559     59560     59556     59559
     59560     59556     59558     59560     59556     59557     59562     59566     59567
     59563     59562     59565     59563     59562     59564     59564     59562     59565
     59566     59562     59565     59566     59562     59564     59566     59562     59563
     59568     59572     59573     59569     59568     59571     59569     59568     59570
     59570     59568     59571     59572     59568     59571     59572     59568     59570
     59572     59568     59569     59574     59578     59579     59575     59574     59577
     59575     59574     59576     59576     59574     59577     59578     59574     59577
     59578     59574     59576     59578     59574     59575     59580     59584     59585
     59581     59580     59583     59581     59580     59582     59582     59580     59583
     59584     59580     59583     59584     59580     59582     59584     59580     59581
     59586     59590     59591     59587     59586     59589     59587     59586     59588
     59588     59586     59589     59590     59586     59589     59590     59586     59588
     59590     59586     59587     59592     59596     59597     59593     59592     59595
     59593     59592     59594     59594     59592     59595     59596     59592     59595
     59596     59592     59594     59596     59592     59593     59598     59602     59603
     59599     59598     59601     59599     59598     59600     59600     59598     59601
     59602     59598     59601     59602     59598     59600     59602     59598     59599
     59604     59608     59609     59605     59604     59607     59605     59604     59606
     59606     59604     59607     59608     59604     59607     59608     59604     59606
     59608     59604     59605     59610     59614     59615     59611     59610     59613
     59611     59610     59612     59612     59610     59613     59614     59610     59613
     59614     59610     59612     59614     59610     59611     59616     59620     59621
     59617     59616     59619     59617     59616     59618     59618     59616     59619
     59620     59616     59619     59620     59616     59618     59620     59616     59617
     59622     59626     59627     59623     59622     59625     59623     59622     59624
     59624     59622     59625     59626     59622     59625     59626     59622     59624
     59626     59622     59623     59628     59632     59633     59629     59628     59631
     59629     59628     59630     59630     59628     59631     59632     59628     59631
     59632     59628     59630     59632     59628     59629     59634     59638     59639
     59635     59634     59637     59635     59634     59636     59636     59634     59637
     59638     59634     59637     59638     59634     59636     59638     59634     59635
     59640     59644     59645     59641     59640     59643     59641     59640     59642
     59642     59640     59643     59644     59640     59643     59644     59640     59642
     59644     59640     59641     59646     59650     59651     59647     59646     59649
     59647     59646     59648     59648     59646     59649     59650     59646     59649
     59650     59646     59648     59650     59646     59647     59652     59656     59657
     59653     59652     59655     59653     59652     59654     59654     59652     59655
     59656     59652     59655     59656     59652     59654     59656     59652     59653
     59658     59662     59663     59659     59658     59661     59659     59658     59660
     59660     59658     59661     59662     59658     59661     59662     59658     59660
     59662     59658     59659     59664     59668     59669     59665     59664     59667
     59665     59664     59666     59666     59664     59667     59668     59664     59667
     59668     59664     59666     59668     59664     59665     59670     59674     59675
     59671     59670     59673     59671     59670     59672     59672     59670     59673
     59674     59670     59673     59674     59670     59672     59674     59670     59671
     59676     59680     59681     59677     59676     59679     59677     59676     59678
     59678     59676     59679     59680     59676     59679     59680     59676     59678
     59680     59676     59677     59682     59686     59687     59683     59682     59685
     59683     59682     59684     59684     59682     59685     59686     59682     59685
     59686     59682     59684     59686     59682     59683     59688     59692     59693
     59689     59688     59691     59689     59688     59690     59690     59688     59691
     59692     59688     59691     59692     59688     59690     59692     59688     59689
     59694     59698     59699     59695     59694     59697     59695     59694     59696
     59696     59694     59697     59698     59694     59697     59698     59694     59696
     59698     59694     59695     59700     59704     59705     59701     59700     59703
     59701     59700     59702     59702     59700     59703     59704     59700     59703
     59704     59700     59702     59704     59700     59701     59706     59710     59711
     59707     59706     59709     59707     59706     59708     59708     59706     59709
     59710     59706     59709     59710     59706     59708     59710     59706     59707
     59712     59716     59717     59713     59712     59715     59713     59712     59714
     59714     59712     59715     59716     59712     59715     59716     59712     59714
     59716     59712     59713     59718     59722     59723     59719     59718     59721
     59719     59718     59720     59720     59718     59721     59722     59718     59721
     59722     59718     59720     59722     59718     59719     59724     59728     59729
     59725     59724     59727     59725     59724     59726     59726     59724     59727
     59728     59724     59727     59728     59724     59726     59728     59724     59725
     59730     59734     59735     59731     59730     59733     59731     59730     59732
     59732     59730     59733     59734     59730     59733     59734     59730     59732
     59734     59730     59731     59736     59740     59741     59737     59736     59739
     59737     59736     59738     59738     59736     59739     59740     59736     59739
     59740     59736     59738     59740     59736     59737     59742     59746     59747
     59743     59742     59745     59743     59742     59744     59744     59742     59745
     59746     59742     59745     59746     59742     59744     59746     59742     59743
     59748     59752     59753     59749     59748     59751     59749     59748     59750
     59750     59748     59751     59752     59748     59751     59752     59748     59750
     59752     59748     59749     59754     59758     59759     59755     59754     59757
     59755     59754     59756     59756     59754     59757     59758     59754     59757
     59758     59754     59756     59758     59754     59755     59760     59764     59765
     59761     59760     59763     59761     59760     59762     59762     59760     59763
     59764     59760     59763     59764     59760     59762     59764     59760     59761
     59766     59770     59771     59767     59766     59769     59767     59766     59768
     59768     59766     59769     59770     59766     59769     59770     59766     59768
     59770     59766     59767     59772     59776     59777     59773     59772     59775
     59773     59772     59774     59774     59772     59775     59776     59772     59775
     59776     59772     59774     59776     59772     59773     59778     59782     59783
     59779     59778     59781     59779     59778     59780     59780     59778     59781
     59782     59778     59781     59782     59778     59780     59782     59778     59779
     59784     59788     59789     59785     59784     59787     59785     59784     59786
     59786     59784     59787     59788     59784     59787     59788     59784     59786
     59788     59784     59785     59790     59794     59795     59791     59790     59793
     59791     59790     59792     59792     59790     59793     59794     59790     59793
     59794     59790     59792     59794     59790     59791     59796     59800     59801
     59797     59796     59799     59797     59796     59798     59798     59796     59799
     59800     59796     59799     59800     59796     59798     59800     59796     59797
     59802     59806     59807     59803     59802     59805     59803     59802     59804
     59804     59802     59805     59806     59802     59805     59806     59802     59804
     59806     59802     59803     59808     59812     59813     59809     59808     59811
     59809     59808     59810     59810     59808     59811     59812     59808     59811
     59812     59808     59810     59812     59808     59809     59814     59818     59819
     59815     59814     59817     59815     59814     59816     59816     59814     59817
     59818     59814     59817     59818     59814     59816     59818     59814     59815
     59820     59824     59825     59821     59820     59823     59821     59820     59822
     59822     59820     59823     59824     59820     59823     59824     59820     59822
     59824     59820     59821     59826     59830     59831     59827     59826     59829
     59827     59826     59828     59828     59826     59829     59830     59826     59829
     59830     59826     59828     59830     59826     59827     59832     59836     59837
     59833     59832     59835     59833     59832     59834     59834     59832     59835
     59836     59832     59835     59836     59832     59834     59836     59832     59833
     59838     59842     59843     59839     59838     59841     59839     59838     59840
     59840     59838     59841     59842     59838     59841     59842     59838     59840
     59842     59838     59839     59844     59848     59849     59845     59844     59847
     59845     59844     59846     59846     59844     59847     59848     59844     59847
     59848     59844     59846     59848     59844     59845     59850     59854     59855
     59851     59850     59853     59851     59850     59852     59852     59850     59853
     59854     59850     59853     59854     59850     59852     59854     59850     59851
     59856     59860     59861     59857     59856     59859     59857     59856     59858
     59858     59856     59859     59860     59856     59859     59860     59856     59858
     59860     59856     59857     59862     59866     59867     59863     59862     59865
     59863     59862     59864     59864     59862     59865     59866     59862     59865
     59866     59862     59864     59866     59862     59863     59868     59872     59873
     59869     59868     59871     59869     59868     59870     59870     59868     59871
     59872     59868     59871     59872     59868     59870     59872     59868     59869
     59874     59878     59879     59875     59874     59877     59875     59874     59876
     59876     59874     59877     59878     59874     59877     59878     59874     59876
     59878     59874     59875     59880     59884     59885     59881     59880     59883
     59881     59880     59882     59882     59880     59883     59884     59880     59883
     59884     59880     59882     59884     59880     59881     59886     59890     59891
     59887     59886     59889     59887     59886     59888     59888     59886     59889
     59890     59886     59889     59890     59886     59888     59890     59886     59887
     59892     59896     59897     59893     59892     59895     59893     59892     59894
     59894     59892     59895     59896     59892     59895     59896     59892     59894
     59896     59892     59893     59898     59902     59903     59899     59898     59901
     59899     59898     59900     59900     59898     59901     59902     59898     59901
     59902     59898     59900     59902     59898     59899     59904     59908     59909
     59905     59904     59907     59905     59904     59906     59906     59904     59907
     59908     59904     59907     59908     59904     59906     59908     59904     59905
     59910     59914     59915     59911     59910     59913     59911     59910     59912
     59912     59910     59913     59914     59910     59913     59914     59910     59912
     59914     59910     59911     59916     59920     59921     59917     59916     59919
     59917     59916     59918     59918     59916     59919     59920     59916     59919
     59920     59916     59918     59920     59916     59917     59922     59926     59927
     59923     59922     59925     59923     59922     59924     59924     59922     59925
     59926     59922     59925     59926     59922     59924     59926     59922     59923
     59928     59932     59933     59929     59928     59931     59929     59928     59930
     59930     59928     59931     59932     59928     59931     59932     59928     59930
     59932     59928     59929     59934     59938     59939     59935     59934     59937
     59935     59934     59936     59936     59934     59937     59938     59934     59937
     59938     59934     59936     59938     59934     59935     59940     59944     59945
     59941     59940     59943     59941     59940     59942     59942     59940     59943
     59944     59940     59943     59944     59940     59942     59944     59940     59941
     59946     59950     59951     59947     59946     59949     59947     59946     59948
     59948     59946     59949     59950     59946     59949     59950     59946     59948
     59950     59946     59947     59952     59956     59957     59953     59952     59955
     59953     59952     59954     59954     59952     59955     59956     59952     59955
     59956     59952     59954     59956     59952     59953     59958     59962     59963
     59959     59958     59961     59959     59958     59960     59960     59958     59961
     59962     59958     59961     59962     59958     59960     59962     59958     59959
     59964     59968     59969     59965     59964     59967     59965     59964     59966
     59966     59964     59967     59968     59964     59967     59968     59964     59966
     59968     59964     59965     59970     59974     59975     59971     59970     59973
     59971     59970     59972     59972     59970     59973     59974     59970     59973
     59974     59970     59972     59974     59970     59971     59976     59980     59981
     59977     59976     59979     59977     59976     59978     59978     59976     59979
     59980     59976     59979     59980     59976     59978     59980     59976     59977
     59982     59986     59987     59983     59982     59985     59983     59982     59984
     59984     59982     59985     59986     59982     59985     59986     59982     59984
     59986     59982     59983     59988     59992     59993     59989     59988     59991
     59989     59988     59990     59990     59988     59991     59992     59988     59991
     59992     59988     59990     59992     59988     59989     59994     59998     59999
     59995     59994     59997     59995     59994     59996     59996     59994     59997
     59998     59994     59997     59998     59994     59996     59998     59994     59995
     60000     60004     60005     60001     60000     60003     60001     60000     60002
     60002     60000     60003     60004     60000     60003     60004     60000     60002
     60004     60000     60001     60006     60010     60011     60007     60006     60009
     60007     60006     60008     60008     60006     60009     60010     60006     60009
     60010     60006     60008     60010     60006     60007     60012     60016     60017
     60013     60012     60015     60013     60012     60014     60014     60012     60015
     60016     60012     60015     60016     60012     60014     60016     60012     60013
     60018     60022     60023     60019     60018     60021     60019     60018     60020
     60020     60018     60021     60022     60018     60021     60022     60018     60020
     60022     60018     60019     60024     60028     60029     60025     60024     60027
     60025     60024     60026     60026     60024     60027     60028     60024     60027
     60028     60024     60026     60028     60024     60025     60030     60034     60035
     60031     60030     60033     60031     60030     60032     60032     60030     60033
     60034     60030     60033     60034     60030     60032     60034     60030     60031
     60036     60040     60041     60037     60036     60039     60037     60036     60038
     60038     60036     60039     60040     60036     60039     60040     60036     60038
     60040     60036     60037     60042     60046     60047     60043     60042     60045
     60043     60042     60044     60044     60042     60045     60046     60042     60045
     60046     60042     60044     60046     60042     60043     60048     60052     60053
     60049     60048     60051     60049     60048     60050     60050     60048     60051
     60052     60048     60051     60052     60048     60050     60052     60048     60049
     60054     60058     60059     60055     60054     60057     60055     60054     60056
     60056     60054     60057     60058     60054     60057     60058     60054     60056
     60058     60054     60055     60060     60064     60065     60061     60060     60063
     60061     60060     60062     60062     60060     60063     60064     60060     60063
     60064     60060     60062     60064     60060     60061     60066     60070     60071
     60067     60066     60069     60067     60066     60068     60068     60066     60069
     60070     60066     60069     60070     60066     60068     60070     60066     60067
     60072     60076     60077     60073     60072     60075     60073     60072     60074
     60074     60072     60075     60076     60072     60075     60076     60072     60074
     60076     60072     60073     60078     60082     60083     60079     60078     60081
     60079     60078     60080     60080     60078     60081     60082     60078     60081
     60082     60078     60080     60082     60078     60079     60084     60088     60089
     60085     60084     60087     60085     60084     60086     60086     60084     60087
     60088     60084     60087     60088     60084     60086     60088     60084     60085
     60090     60094     60095     60091     60090     60093     60091     60090     60092
     60092     60090     60093     60094     60090     60093     60094     60090     60092
     60094     60090     60091     60096     60100     60101     60097     60096     60099
     60097     60096     60098     60098     60096     60099     60100     60096     60099
     60100     60096     60098     60100     60096     60097     60102     60106     60107
     60103     60102     60105     60103     60102     60104     60104     60102     60105
     60106     60102     60105     60106     60102     60104     60106     60102     60103
     60108     60112     60113     60109     60108     60111     60109     60108     60110
     60110     60108     60111     60112     60108     60111     60112     60108     60110
     60112     60108     60109     60114     60118     60119     60115     60114     60117
     60115     60114     60116     60116     60114     60117     60118     60114     60117
     60118     60114     60116     60118     60114     60115     60120     60124     60125
     60121     60120     60123     60121     60120     60122     60122     60120     60123
     60124     60120     60123     60124     60120     60122     60124     60120     60121
     60126     60130     60131     60127     60126     60129     60127     60126     60128
     60128     60126     60129     60130     60126     60129     60130     60126     60128
     60130     60126     60127     60132     60136     60137     60133     60132     60135
     60133     60132     60134     60134     60132     60135     60136     60132     60135
     60136     60132     60134     60136     60132     60133     60138     60142     60143
     60139     60138     60141     60139     60138     60140     60140     60138     60141
     60142     60138     60141     60142     60138     60140     60142     60138     60139
     60144     60148     60149     60145     60144     60147     60145     60144     60146
     60146     60144     60147     60148     60144     60147     60148     60144     60146
     60148     60144     60145     60150     60154     60155     60151     60150     60153
     60151     60150     60152     60152     60150     60153     60154     60150     60153
     60154     60150     60152     60154     60150     60151     60156     60160     60161
     60157     60156     60159     60157     60156     60158     60158     60156     60159
     60160     60156     60159     60160     60156     60158     60160     60156     60157
     60162     60166     60167     60163     60162     60165     60163     60162     60164
     60164     60162     60165     60166     60162     60165     60166     60162     60164
     60166     60162     60163     60168     60172     60173     60169     60168     60171
     60169     60168     60170     60170     60168     60171     60172     60168     60171
     60172     60168     60170     60172     60168     60169     60174     60178     60179
     60175     60174     60177     60175     60174     60176     60176     60174     60177
     60178     60174     60177     60178     60174     60176     60178     60174     60175
     60180     60184     60185     60181     60180     60183     60181     60180     60182
     60182     60180     60183     60184     60180     60183     60184     60180     60182
     60184     60180     60181     60186     60190     60191     60187     60186     60189
     60187     60186     60188     60188     60186     60189     60190     60186     60189
     60190     60186     60188     60190     60186     60187     60192     60196     60197
     60193     60192     60195     60193     60192     60194     60194     60192     60195
     60196     60192     60195     60196     60192     60194     60196     60192     60193
     60198     60202     60203     60199     60198     60201     60199     60198     60200
     60200     60198     60201     60202     60198     60201     60202     60198     60200
     60202     60198     60199     60204     60208     60209     60205     60204     60207
     60205     60204     60206     60206     60204     60207     60208     60204     60207
     60208     60204     60206     60208     60204     60205     60210     60214     60215
     60211     60210     60213     60211     60210     60212     60212     60210     60213
     60214     60210     60213     60214     60210     60212     60214     60210     60211
     60216     60220     60221     60217     60216     60219     60217     60216     60218
     60218     60216     60219     60220     60216     60219     60220     60216     60218
     60220     60216     60217     60222     60226     60227     60223     60222     60225
     60223     60222     60224     60224     60222     60225     60226     60222     60225
     60226     60222     60224     60226     60222     60223     60228     60232     60233
     60229     60228     60231     60229     60228     60230     60230     60228     60231
     60232     60228     60231     60232     60228     60230     60232     60228     60229
     60234     60238     60239     60235     60234     60237     60235     60234     60236
     60236     60234     60237     60238     60234     60237     60238     60234     60236
     60238     60234     60235     60240     60244     60245     60241     60240     60243
     60241     60240     60242     60242     60240     60243     60244     60240     60243
     60244     60240     60242     60244     60240     60241     60246     60250     60251
     60247     60246     60249     60247     60246     60248     60248     60246     60249
     60250     60246     60249     60250     60246     60248     60250     60246     60247
     60252     60256     60257     60253     60252     60255     60253     60252     60254
     60254     60252     60255     60256     60252     60255     60256     60252     60254
     60256     60252     60253     60258     60262     60263     60259     60258     60261
     60259     60258     60260     60260     60258     60261     60262     60258     60261
     60262     60258     60260     60262     60258     60259     60264     60268     60269
     60265     60264     60267     60265     60264     60266     60266     60264     60267
     60268     60264     60267     60268     60264     60266     60268     60264     60265
     60270     60274     60275     60271     60270     60273     60271     60270     60272
     60272     60270     60273     60274     60270     60273     60274     60270     60272
     60274     60270     60271     60276     60280     60281     60277     60276     60279
     60277     60276     60278     60278     60276     60279     60280     60276     60279
     60280     60276     60278     60280     60276     60277     60282     60286     60287
     60283     60282     60285     60283     60282     60284     60284     60282     60285
     60286     60282     60285     60286     60282     60284     60286     60282     60283
     60288     60292     60293     60289     60288     60291     60289     60288     60290
     60290     60288     60291     60292     60288     60291     60292     60288     60290
     60292     60288     60289     60294     60298     60299     60295     60294     60297
     60295     60294     60296     60296     60294     60297     60298     60294     60297
     60298     60294     60296     60298     60294     60295     60300     60304     60305
     60301     60300     60303     60301     60300     60302     60302     60300     60303
     60304     60300     60303     60304     60300     60302     60304     60300     60301
     60306     60310     60311     60307     60306     60309     60307     60306     60308
     60308     60306     60309     60310     60306     60309     60310     60306     60308
     60310     60306     60307     60312     60316     60317     60313     60312     60315
     60313     60312     60314     60314     60312     60315     60316     60312     60315
     60316     60312     60314     60316     60312     60313     60318     60322     60323
     60319     60318     60321     60319     60318     60320     60320     60318     60321
     60322     60318     60321     60322     60318     60320     60322     60318     60319
     60324     60328     60329     60325     60324     60327     60325     60324     60326
     60326     60324     60327     60328     60324     60327     60328     60324     60326
     60328     60324     60325     60330     60334     60335     60331     60330     60333
     60331     60330     60332     60332     60330     60333     60334     60330     60333
     60334     60330     60332     60334     60330     60331     60336     60340     60341
     60337     60336     60339     60337     60336     60338     60338     60336     60339
     60340     60336     60339     60340     60336     60338     60340     60336     60337
     60342     60346     60347     60343     60342     60345     60343     60342     60344
     60344     60342     60345     60346     60342     60345     60346     60342     60344
     60346     60342     60343     60348     60352     60353     60349     60348     60351
     60349     60348     60350     60350     60348     60351     60352     60348     60351
     60352     60348     60350     60352     60348     60349     60354     60358     60359
     60355     60354     60357     60355     60354     60356     60356     60354     60357
     60358     60354     60357     60358     60354     60356     60358     60354     60355
     60360     60364     60365     60361     60360     60363     60361     60360     60362
     60362     60360     60363     60364     60360     60363     60364     60360     60362
     60364     60360     60361     60366     60370     60371     60367     60366     60369
     60367     60366     60368     60368     60366     60369     60370     60366     60369
     60370     60366     60368     60370     60366     60367     60372     60376     60377
     60373     60372     60375     60373     60372     60374     60374     60372     60375
     60376     60372     60375     60376     60372     60374     60376     60372     60373
     60378     60382     60383     60379     60378     60381     60379     60378     60380
     60380     60378     60381     60382     60378     60381     60382     60378     60380
     60382     60378     60379     60384     60388     60389     60385     60384     60387
     60385     60384     60386     60386     60384     60387     60388     60384     60387
     60388     60384     60386     60388     60384     60385     60390     60394     60395
     60391     60390     60393     60391     60390     60392     60392     60390     60393
     60394     60390     60393     60394     60390     60392     60394     60390     60391
     60396     60400     60401     60397     60396     60399     60397     60396     60398
     60398     60396     60399     60400     60396     60399     60400     60396     60398
     60400     60396     60397     60402     60406     60407     60403     60402     60405
     60403     60402     60404     60404     60402     60405     60406     60402     60405
     60406     60402     60404     60406     60402     60403     60408     60412     60413
     60409     60408     60411     60409     60408     60410     60410     60408     60411
     60412     60408     60411     60412     60408     60410     60412     60408     60409
     60414     60418     60419     60415     60414     60417     60415     60414     60416
     60416     60414     60417     60418     60414     60417     60418     60414     60416
     60418     60414     60415     60420     60424     60425     60421     60420     60423
     60421     60420     60422     60422     60420     60423     60424     60420     60423
     60424     60420     60422     60424     60420     60421     60426     60430     60431
     60427     60426     60429     60427     60426     60428     60428     60426     60429
     60430     60426     60429     60430     60426     60428     60430     60426     60427
     60432     60436     60437     60433     60432     60435     60433     60432     60434
     60434     60432     60435     60436     60432     60435     60436     60432     60434
     60436     60432     60433     60438     60442     60443     60439     60438     60441
     60439     60438     60440     60440     60438     60441     60442     60438     60441
     60442     60438     60440     60442     60438     60439     60444     60448     60449
     60445     60444     60447     60445     60444     60446     60446     60444     60447
     60448     60444     60447     60448     60444     60446     60448     60444     60445
     60450     60454     60455     60451     60450     60453     60451     60450     60452
     60452     60450     60453     60454     60450     60453     60454     60450     60452
     60454     60450     60451     60456     60460     60461     60457     60456     60459
     60457     60456     60458     60458     60456     60459     60460     60456     60459
     60460     60456     60458     60460     60456     60457     60462     60466     60467
     60463     60462     60465     60463     60462     60464     60464     60462     60465
     60466     60462     60465     60466     60462     60464     60466     60462     60463
     60468     60472     60473     60469     60468     60471     60469     60468     60470
     60470     60468     60471     60472     60468     60471     60472     60468     60470
     60472     60468     60469     60474     60478     60479     60475     60474     60477
     60475     60474     60476     60476     60474     60477     60478     60474     60477
     60478     60474     60476     60478     60474     60475     60480     60484     60485
     60481     60480     60483     60481     60480     60482     60482     60480     60483
     60484     60480     60483     60484     60480     60482     60484     60480     60481
     60486     60490     60491     60487     60486     60489     60487     60486     60488
     60488     60486     60489     60490     60486     60489     60490     60486     60488
     60490     60486     60487     60492     60496     60497     60493     60492     60495
     60493     60492     60494     60494     60492     60495     60496     60492     60495
     60496     60492     60494     60496     60492     60493     60498     60502     60503
     60499     60498     60501     60499     60498     60500     60500     60498     60501
     60502     60498     60501     60502     60498     60500     60502     60498     60499
     60504     60508     60509     60505     60504     60507     60505     60504     60506
     60506     60504     60507     60508     60504     60507     60508     60504     60506
     60508     60504     60505     60510     60514     60515     60511     60510     60513
     60511     60510     60512     60512     60510     60513     60514     60510     60513
     60514     60510     60512     60514     60510     60511     60516     60520     60521
     60517     60516     60519     60517     60516     60518     60518     60516     60519
     60520     60516     60519     60520     60516     60518     60520     60516     60517
     60522     60526     60527     60523     60522     60525     60523     60522     60524
     60524     60522     60525     60526     60522     60525     60526     60522     60524
     60526     60522     60523     60528     60532     60533     60529     60528     60531
     60529     60528     60530     60530     60528     60531     60532     60528     60531
     60532     60528     60530     60532     60528     60529     60534     60538     60539
     60535     60534     60537     60535     60534     60536     60536     60534     60537
     60538     60534     60537     60538     60534     60536     60538     60534     60535
     60540     60544     60545     60541     60540     60543     60541     60540     60542
     60542     60540     60543     60544     60540     60543     60544     60540     60542
     60544     60540     60541     60546     60550     60551     60547     60546     60549
     60547     60546     60548     60548     60546     60549     60550     60546     60549
     60550     60546     60548     60550     60546     60547     60552     60556     60557
     60553     60552     60555     60553     60552     60554     60554     60552     60555
     60556     60552     60555     60556     60552     60554     60556     60552     60553
     60558     60562     60563     60559     60558     60561     60559     60558     60560
     60560     60558     60561     60562     60558     60561     60562     60558     60560
     60562     60558     60559     60564     60568     60569     60565     60564     60567
     60565     60564     60566     60566     60564     60567     60568     60564     60567
     60568     60564     60566     60568     60564     60565     60570     60574     60575
     60571     60570     60573     60571     60570     60572     60572     60570     60573
     60574     60570     60573     60574     60570     60572     60574     60570     60571
     60576     60580     60581     60577     60576     60579     60577     60576     60578
     60578     60576     60579     60580     60576     60579     60580     60576     60578
     60580     60576     60577     60582     60586     60587     60583     60582     60585
     60583     60582     60584     60584     60582     60585     60586     60582     60585
     60586     60582     60584     60586     60582     60583     60588     60592     60593
     60589     60588     60591     60589     60588     60590     60590     60588     60591
     60592     60588     60591     60592     60588     60590     60592     60588     60589
     60594     60598     60599     60595     60594     60597     60595     60594     60596
     60596     60594     60597     60598     60594     60597     60598     60594     60596
     60598     60594     60595     60600     60604     60605     60601     60600     60603
     60601     60600     60602     60602     60600     60603     60604     60600     60603
     60604     60600     60602     60604     60600     60601     60606     60610     60611
     60607     60606     60609     60607     60606     60608     60608     60606     60609
     60610     60606     60609     60610     60606     60608     60610     60606     60607
     60612     60616     60617     60613     60612     60615     60613     60612     60614
     60614     60612     60615     60616     60612     60615     60616     60612     60614
     60616     60612     60613     60618     60622     60623     60619     60618     60621
     60619     60618     60620     60620     60618     60621     60622     60618     60621
     60622     60618     60620     60622     60618     60619     60624     60628     60629
     60625     60624     60627     60625     60624     60626     60626     60624     60627
     60628     60624     60627     60628     60624     60626     60628     60624     60625
     60630     60634     60635     60631     60630     60633     60631     60630     60632
     60632     60630     60633     60634     60630     60633     60634     60630     60632
     60634     60630     60631     60636     60640     60641     60637     60636     60639
     60637     60636     60638     60638     60636     60639     60640     60636     60639
     60640     60636     60638     60640     60636     60637     60642     60646     60647
     60643     60642     60645     60643     60642     60644     60644     60642     60645
     60646     60642     60645     60646     60642     60644     60646     60642     60643
     60648     60652     60653     60649     60648     60651     60649     60648     60650
     60650     60648     60651     60652     60648     60651     60652     60648     60650
     60652     60648     60649     60654     60658     60659     60655     60654     60657
     60655     60654     60656     60656     60654     60657     60658     60654     60657
     60658     60654     60656     60658     60654     60655     60660     60664     60665
     60661     60660     60663     60661     60660     60662     60662     60660     60663
     60664     60660     60663     60664     60660     60662     60664     60660     60661
     60666     60670     60671     60667     60666     60669     60667     60666     60668
     60668     60666     60669     60670     60666     60669     60670     60666     60668
     60670     60666     60667     60672     60676     60677     60673     60672     60675
     60673     60672     60674     60674     60672     60675     60676     60672     60675
     60676     60672     60674     60676     60672     60673     60678     60682     60683
     60679     60678     60681     60679     60678     60680     60680     60678     60681
     60682     60678     60681     60682     60678     60680     60682     60678     60679
     60684     60688     60689     60685     60684     60687     60685     60684     60686
     60686     60684     60687     60688     60684     60687     60688     60684     60686
     60688     60684     60685     60690     60694     60695     60691     60690     60693
     60691     60690     60692     60692     60690     60693     60694     60690     60693
     60694     60690     60692     60694     60690     60691     60696     60700     60701
     60697     60696     60699     60697     60696     60698     60698     60696     60699
     60700     60696     60699     60700     60696     60698     60700     60696     60697
     60702     60706     60707     60703     60702     60705     60703     60702     60704
     60704     60702     60705     60706     60702     60705     60706     60702     60704
     60706     60702     60703     60708     60712     60713     60709     60708     60711
     60709     60708     60710     60710     60708     60711     60712     60708     60711
     60712     60708     60710     60712     60708     60709     60714     60718     60719
     60715     60714     60717     60715     60714     60716     60716     60714     60717
     60718     60714     60717     60718     60714     60716     60718     60714     60715
     60720     60724     60725     60721     60720     60723     60721     60720     60722
     60722     60720     60723     60724     60720     60723     60724     60720     60722
     60724     60720     60721     60726     60730     60731     60727     60726     60729
     60727     60726     60728     60728     60726     60729     60730     60726     60729
     60730     60726     60728     60730     60726     60727     60732     60736     60737
     60733     60732     60735     60733     60732     60734     60734     60732     60735
     60736     60732     60735     60736     60732     60734     60736     60732     60733
     60738     60742     60743     60739     60738     60741     60739     60738     60740
     60740     60738     60741     60742     60738     60741     60742     60738     60740
     60742     60738     60739     60744     60748     60749     60745     60744     60747
     60745     60744     60746     60746     60744     60747     60748     60744     60747
     60748     60744     60746     60748     60744     60745     60750     60754     60755
     60751     60750     60753     60751     60750     60752     60752     60750     60753
     60754     60750     60753     60754     60750     60752     60754     60750     60751
     60756     60760     60761     60757     60756     60759     60757     60756     60758
     60758     60756     60759     60760     60756     60759     60760     60756     60758
     60760     60756     60757     60762     60766     60767     60763     60762     60765
     60763     60762     60764     60764     60762     60765     60766     60762     60765
     60766     60762     60764     60766     60762     60763     60768     60772     60773
     60769     60768     60771     60769     60768     60770     60770     60768     60771
     60772     60768     60771     60772     60768     60770     60772     60768     60769
     60774     60778     60779     60775     60774     60777     60775     60774     60776
     60776     60774     60777     60778     60774     60777     60778     60774     60776
     60778     60774     60775     60780     60784     60785     60781     60780     60783
     60781     60780     60782     60782     60780     60783     60784     60780     60783
     60784     60780     60782     60784     60780     60781     60786     60790     60791
     60787     60786     60789     60787     60786     60788     60788     60786     60789
     60790     60786     60789     60790     60786     60788     60790     60786     60787
     60792     60796     60797     60793     60792     60795     60793     60792     60794
     60794     60792     60795     60796     60792     60795     60796     60792     60794
     60796     60792     60793     60798     60802     60803     60799     60798     60801
     60799     60798     60800     60800     60798     60801     60802     60798     60801
     60802     60798     60800     60802     60798     60799     60804     60808     60809
     60805     60804     60807     60805     60804     60806     60806     60804     60807
     60808     60804     60807     60808     60804     60806     60808     60804     60805
     60810     60814     60815     60811     60810     60813     60811     60810     60812
     60812     60810     60813     60814     60810     60813     60814     60810     60812
     60814     60810     60811     60816     60820     60821     60817     60816     60819
     60817     60816     60818     60818     60816     60819     60820     60816     60819
     60820     60816     60818     60820     60816     60817     60822     60826     60827
     60823     60822     60825     60823     60822     60824     60824     60822     60825
     60826     60822     60825     60826     60822     60824     60826     60822     60823
     60828     60832     60833     60829     60828     60831     60829     60828     60830
     60830     60828     60831     60832     60828     60831     60832     60828     60830
     60832     60828     60829     60834     60838     60839     60835     60834     60837
     60835     60834     60836     60836     60834     60837     60838     60834     60837
     60838     60834     60836     60838     60834     60835     60840     60844     60845
     60841     60840     60843     60841     60840     60842     60842     60840     60843
     60844     60840     60843     60844     60840     60842     60844     60840     60841
     60846     60850     60851     60847     60846     60849     60847     60846     60848
     60848     60846     60849     60850     60846     60849     60850     60846     60848
     60850     60846     60847     60852     60856     60857     60853     60852     60855
     60853     60852     60854     60854     60852     60855     60856     60852     60855
     60856     60852     60854     60856     60852     60853     60858     60862     60863
     60859     60858     60861     60859     60858     60860     60860     60858     60861
     60862     60858     60861     60862     60858     60860     60862     60858     60859
     60864     60868     60869     60865     60864     60867     60865     60864     60866
     60866     60864     60867     60868     60864     60867     60868     60864     60866
     60868     60864     60865     60870     60874     60875     60871     60870     60873
     60871     60870     60872     60872     60870     60873     60874     60870     60873
     60874     60870     60872     60874     60870     60871     60876     60880     60881
     60877     60876     60879     60877     60876     60878     60878     60876     60879
     60880     60876     60879     60880     60876     60878     60880     60876     60877
     60882     60886     60887     60883     60882     60885     60883     60882     60884
     60884     60882     60885     60886     60882     60885     60886     60882     60884
     60886     60882     60883     60888     60892     60893     60889     60888     60891
     60889     60888     60890     60890     60888     60891     60892     60888     60891
     60892     60888     60890     60892     60888     60889     60894     60898     60899
     60895     60894     60897     60895     60894     60896     60896     60894     60897
     60898     60894     60897     60898     60894     60896     60898     60894     60895
     60900     60904     60905     60901     60900     60903     60901     60900     60902
     60902     60900     60903     60904     60900     60903     60904     60900     60902
     60904     60900     60901     60906     60910     60911     60907     60906     60909
     60907     60906     60908     60908     60906     60909     60910     60906     60909
     60910     60906     60908     60910     60906     60907     60912     60916     60917
     60913     60912     60915     60913     60912     60914     60914     60912     60915
     60916     60912     60915     60916     60912     60914     60916     60912     60913
     60918     60922     60923     60919     60918     60921     60919     60918     60920
     60920     60918     60921     60922     60918     60921     60922     60918     60920
     60922     60918     60919     60924     60928     60929     60925     60924     60927
     60925     60924     60926     60926     60924     60927     60928     60924     60927
     60928     60924     60926     60928     60924     60925     60930     60934     60935
     60931     60930     60933     60931     60930     60932     60932     60930     60933
     60934     60930     60933     60934     60930     60932     60934     60930     60931
     60936     60940     60941     60937     60936     60939     60937     60936     60938
     60938     60936     60939     60940     60936     60939     60940     60936     60938
     60940     60936     60937     60942     60946     60947     60943     60942     60945
     60943     60942     60944     60944     60942     60945     60946     60942     60945
     60946     60942     60944     60946     60942     60943     60948     60952     60953
     60949     60948     60951     60949     60948     60950     60950     60948     60951
     60952     60948     60951     60952     60948     60950     60952     60948     60949
     60954     60958     60959     60955     60954     60957     60955     60954     60956
     60956     60954     60957     60958     60954     60957     60958     60954     60956
     60958     60954     60955     60960     60964     60965     60961     60960     60963
     60961     60960     60962     60962     60960     60963     60964     60960     60963
     60964     60960     60962     60964     60960     60961     60966     60970     60971
     60967     60966     60969     60967     60966     60968     60968     60966     60969
     60970     60966     60969     60970     60966     60968     60970     60966     60967
     60972     60976     60977     60973     60972     60975     60973     60972     60974
     60974     60972     60975     60976     60972     60975     60976     60972     60974
     60976     60972     60973     60978     60982     60983     60979     60978     60981
     60979     60978     60980     60980     60978     60981     60982     60978     60981
     60982     60978     60980     60982     60978     60979     60984     60988     60989
     60985     60984     60987     60985     60984     60986     60986     60984     60987
     60988     60984     60987     60988     60984     60986     60988     60984     60985
     60990     60994     60995     60991     60990     60993     60991     60990     60992
     60992     60990     60993     60994     60990     60993     60994     60990     60992
     60994     60990     60991     60996     61000     61001     60997     60996     60999
     60997     60996     60998     60998     60996     60999     61000     60996     60999
     61000     60996     60998     61000     60996     60997     61002     61006     61007
     61003     61002     61005     61003     61002     61004     61004     61002     61005
     61006     61002     61005     61006     61002     61004     61006     61002     61003
     61008     61012     61013     61009     61008     61011     61009     61008     61010
     61010     61008     61011     61012     61008     61011     61012     61008     61010
     61012     61008     61009     61014     61018     61019     61015     61014     61017
     61015     61014     61016     61016     61014     61017     61018     61014     61017
     61018     61014     61016     61018     61014     61015     61020     61024     61025
     61021     61020     61023     61021     61020     61022     61022     61020     61023
     61024     61020     61023     61024     61020     61022     61024     61020     61021
     61026     61030     61031     61027     61026     61029     61027     61026     61028
     61028     61026     61029     61030     61026     61029     61030     61026     61028
     61030     61026     61027     61032     61036     61037     61033     61032     61035
     61033     61032     61034     61034     61032     61035     61036     61032     61035
     61036     61032     61034     61036     61032     61033     61038     61042     61043
     61039     61038     61041     61039     61038     61040     61040     61038     61041
     61042     61038     61041     61042     61038     61040     61042     61038     61039
     61044     61048     61049     61045     61044     61047     61045     61044     61046
     61046     61044     61047     61048     61044     61047     61048     61044     61046
     61048     61044     61045     61050     61054     61055     61051     61050     61053
     61051     61050     61052     61052     61050     61053     61054     61050     61053
     61054     61050     61052     61054     61050     61051     61056     61060     61061
     61057     61056     61059     61057     61056     61058     61058     61056     61059
     61060     61056     61059     61060     61056     61058     61060     61056     61057
     61062     61066     61067     61063     61062     61065     61063     61062     61064
     61064     61062     61065     61066     61062     61065     61066     61062     61064
     61066     61062     61063     61068     61072     61073     61069     61068     61071
     61069     61068     61070     61070     61068     61071     61072     61068     61071
     61072     61068     61070     61072     61068     61069     61074     61078     61079
     61075     61074     61077     61075     61074     61076     61076     61074     61077
     61078     61074     61077     61078     61074     61076     61078     61074     61075
     61080     61084     61085     61081     61080     61083     61081     61080     61082
     61082     61080     61083     61084     61080     61083     61084     61080     61082
     61084     61080     61081     61086     61090     61091     61087     61086     61089
     61087     61086     61088     61088     61086     61089     61090     61086     61089
     61090     61086     61088     61090     61086     61087     61092     61096     61097
     61093     61092     61095     61093     61092     61094     61094     61092     61095
     61096     61092     61095     61096     61092     61094     61096     61092     61093
     61098     61102     61103     61099     61098     61101     61099     61098     61100
     61100     61098     61101     61102     61098     61101     61102     61098     61100
     61102     61098     61099     61104     61108     61109     61105     61104     61107
     61105     61104     61106     61106     61104     61107     61108     61104     61107
     61108     61104     61106     61108     61104     61105     61110     61114     61115
     61111     61110     61113     61111     61110     61112     61112     61110     61113
     61114     61110     61113     61114     61110     61112     61114     61110     61111
     61116     61120     61121     61117     61116     61119     61117     61116     61118
     61118     61116     61119     61120     61116     61119     61120     61116     61118
     61120     61116     61117     61122     61126     61127     61123     61122     61125
     61123     61122     61124     61124     61122     61125     61126     61122     61125
     61126     61122     61124     61126     61122     61123     61128     61132     61133
     61129     61128     61131     61129     61128     61130     61130     61128     61131
     61132     61128     61131     61132     61128     61130     61132     61128     61129
     61134     61138     61139     61135     61134     61137     61135     61134     61136
     61136     61134     61137     61138     61134     61137     61138     61134     61136
     61138     61134     61135     61140     61144     61145     61141     61140     61143
     61141     61140     61142     61142     61140     61143     61144     61140     61143
     61144     61140     61142     61144     61140     61141     61146     61150     61151
     61147     61146     61149     61147     61146     61148     61148     61146     61149
     61150     61146     61149     61150     61146     61148     61150     61146     61147
     61152     61156     61157     61153     61152     61155     61153     61152     61154
     61154     61152     61155     61156     61152     61155     61156     61152     61154
     61156     61152     61153     61158     61162     61163     61159     61158     61161
     61159     61158     61160     61160     61158     61161     61162     61158     61161
     61162     61158     61160     61162     61158     61159     61164     61168     61169
     61165     61164     61167     61165     61164     61166     61166     61164     61167
     61168     61164     61167     61168     61164     61166     61168     61164     61165
     61170     61174     61175     61171     61170     61173     61171     61170     61172
     61172     61170     61173     61174     61170     61173     61174     61170     61172
     61174     61170     61171     61176     61180     61181     61177     61176     61179
     61177     61176     61178     61178     61176     61179     61180     61176     61179
     61180     61176     61178     61180     61176     61177     61182     61186     61187
     61183     61182     61185     61183     61182     61184     61184     61182     61185
     61186     61182     61185     61186     61182     61184     61186     61182     61183
     61188     61192     61193     61189     61188     61191     61189     61188     61190
     61190     61188     61191     61192     61188     61191     61192     61188     61190
     61192     61188     61189     61194     61198     61199     61195     61194     61197
     61195     61194     61196     61196     61194     61197     61198     61194     61197
     61198     61194     61196     61198     61194     61195     61200     61204     61205
     61201     61200     61203     61201     61200     61202     61202     61200     61203
     61204     61200     61203     61204     61200     61202     61204     61200     61201
     61206     61210     61211     61207     61206     61209     61207     61206     61208
     61208     61206     61209     61210     61206     61209     61210     61206     61208
     61210     61206     61207     61212     61216     61217     61213     61212     61215
     61213     61212     61214     61214     61212     61215     61216     61212     61215
     61216     61212     61214     61216     61212     61213     61218     61222     61223
     61219     61218     61221     61219     61218     61220     61220     61218     61221
     61222     61218     61221     61222     61218     61220     61222     61218     61219
     61224     61228     61229     61225     61224     61227     61225     61224     61226
     61226     61224     61227     61228     61224     61227     61228     61224     61226
     61228     61224     61225     61230     61234     61235     61231     61230     61233
     61231     61230     61232     61232     61230     61233     61234     61230     61233
     61234     61230     61232     61234     61230     61231     61236     61240     61241
     61237     61236     61239     61237     61236     61238     61238     61236     61239
     61240     61236     61239     61240     61236     61238     61240     61236     61237
     61242     61246     61247     61243     61242     61245     61243     61242     61244
     61244     61242     61245     61246     61242     61245     61246     61242     61244
     61246     61242     61243     61248     61252     61253     61249     61248     61251
     61249     61248     61250     61250     61248     61251     61252     61248     61251
     61252     61248     61250     61252     61248     61249     61254     61258     61259
     61255     61254     61257     61255     61254     61256     61256     61254     61257
     61258     61254     61257     61258     61254     61256     61258     61254     61255
     61260     61264     61265     61261     61260     61263     61261     61260     61262
     61262     61260     61263     61264     61260     61263     61264     61260     61262
     61264     61260     61261     61266     61270     61271     61267     61266     61269
     61267     61266     61268     61268     61266     61269     61270     61266     61269
     61270     61266     61268     61270     61266     61267     61272     61276     61277
     61273     61272     61275     61273     61272     61274     61274     61272     61275
     61276     61272     61275     61276     61272     61274     61276     61272     61273
     61278     61282     61283     61279     61278     61281     61279     61278     61280
     61280     61278     61281     61282     61278     61281     61282     61278     61280
     61282     61278     61279     61284     61288     61289     61285     61284     61287
     61285     61284     61286     61286     61284     61287     61288     61284     61287
     61288     61284     61286     61288     61284     61285     61290     61294     61295
     61291     61290     61293     61291     61290     61292     61292     61290     61293
     61294     61290     61293     61294     61290     61292     61294     61290     61291
     61296     61300     61301     61297     61296     61299     61297     61296     61298
     61298     61296     61299     61300     61296     61299     61300     61296     61298
     61300     61296     61297     61302     61306     61307     61303     61302     61305
     61303     61302     61304     61304     61302     61305     61306     61302     61305
     61306     61302     61304     61306     61302     61303     61308     61312     61313
     61309     61308     61311     61309     61308     61310     61310     61308     61311
     61312     61308     61311     61312     61308     61310     61312     61308     61309
     61314     61318     61319     61315     61314     61317     61315     61314     61316
     61316     61314     61317     61318     61314     61317     61318     61314     61316
     61318     61314     61315     61320     61324     61325     61321     61320     61323
     61321     61320     61322     61322     61320     61323     61324     61320     61323
     61324     61320     61322     61324     61320     61321     61326     61330     61331
     61327     61326     61329     61327     61326     61328     61328     61326     61329
     61330     61326     61329     61330     61326     61328     61330     61326     61327
     61332     61336     61337     61333     61332     61335     61333     61332     61334
     61334     61332     61335     61336     61332     61335     61336     61332     61334
     61336     61332     61333     61338     61342     61343     61339     61338     61341
     61339     61338     61340     61340     61338     61341     61342     61338     61341
     61342     61338     61340     61342     61338     61339     61344     61348     61349
     61345     61344     61347     61345     61344     61346     61346     61344     61347
     61348     61344     61347     61348     61344     61346     61348     61344     61345
     61350     61354     61355     61351     61350     61353     61351     61350     61352
     61352     61350     61353     61354     61350     61353     61354     61350     61352
     61354     61350     61351     61356     61360     61361     61357     61356     61359
     61357     61356     61358     61358     61356     61359     61360     61356     61359
     61360     61356     61358     61360     61356     61357     61362     61366     61367
     61363     61362     61365     61363     61362     61364     61364     61362     61365
     61366     61362     61365     61366     61362     61364     61366     61362     61363
     61368     61372     61373     61369     61368     61371     61369     61368     61370
     61370     61368     61371     61372     61368     61371     61372     61368     61370
     61372     61368     61369     61374     61378     61379     61375     61374     61377
     61375     61374     61376     61376     61374     61377     61378     61374     61377
     61378     61374     61376     61378     61374     61375     61380     61384     61385
     61381     61380     61383     61381     61380     61382     61382     61380     61383
     61384     61380     61383     61384     61380     61382     61384     61380     61381
     61386     61390     61391     61387     61386     61389     61387     61386     61388
     61388     61386     61389     61390     61386     61389     61390     61386     61388
     61390     61386     61387     61392     61396     61397     61393     61392     61395
     61393     61392     61394     61394     61392     61395     61396     61392     61395
     61396     61392     61394     61396     61392     61393     61398     61402     61403
     61399     61398     61401     61399     61398     61400     61400     61398     61401
     61402     61398     61401     61402     61398     61400     61402     61398     61399
     61404     61408     61409     61405     61404     61407     61405     61404     61406
     61406     61404     61407     61408     61404     61407     61408     61404     61406
     61408     61404     61405     61410     61414     61415     61411     61410     61413
     61411     61410     61412     61412     61410     61413     61414     61410     61413
     61414     61410     61412     61414     61410     61411     61416     61420     61421
     61417     61416     61419     61417     61416     61418     61418     61416     61419
     61420     61416     61419     61420     61416     61418     61420     61416     61417
     61422     61426     61427     61423     61422     61425     61423     61422     61424
     61424     61422     61425     61426     61422     61425     61426     61422     61424
     61426     61422     61423     61428     61432     61433     61429     61428     61431
     61429     61428     61430     61430     61428     61431     61432     61428     61431
     61432     61428     61430     61432     61428     61429     61434     61438     61439
     61435     61434     61437     61435     61434     61436     61436     61434     61437
     61438     61434     61437     61438     61434     61436     61438     61434     61435
     61440     61444     61445     61441     61440     61443     61441     61440     61442
     61442     61440     61443     61444     61440     61443     61444     61440     61442
     61444     61440     61441     61446     61450     61451     61447     61446     61449
     61447     61446     61448     61448     61446     61449     61450     61446     61449
     61450     61446     61448     61450     61446     61447     61452     61456     61457
     61453     61452     61455     61453     61452     61454     61454     61452     61455
     61456     61452     61455     61456     61452     61454     61456     61452     61453
     61458     61462     61463     61459     61458     61461     61459     61458     61460
     61460     61458     61461     61462     61458     61461     61462     61458     61460
     61462     61458     61459     61464     61468     61469     61465     61464     61467
     61465     61464     61466     61466     61464     61467     61468     61464     61467
     61468     61464     61466     61468     61464     61465     61470     61474     61475
     61471     61470     61473     61471     61470     61472     61472     61470     61473
     61474     61470     61473     61474     61470     61472     61474     61470     61471
     61476     61480     61481     61477     61476     61479     61477     61476     61478
     61478     61476     61479     61480     61476     61479     61480     61476     61478
     61480     61476     61477     61482     61486     61487     61483     61482     61485
     61483     61482     61484     61484     61482     61485     61486     61482     61485
     61486     61482     61484     61486     61482     61483     61488     61492     61493
     61489     61488     61491     61489     61488     61490     61490     61488     61491
     61492     61488     61491     61492     61488     61490     61492     61488     61489
     61494     61498     61499     61495     61494     61497     61495     61494     61496
     61496     61494     61497     61498     61494     61497     61498     61494     61496
     61498     61494     61495     61500     61504     61505     61501     61500     61503
     61501     61500     61502     61502     61500     61503     61504     61500     61503
     61504     61500     61502     61504     61500     61501     61506     61510     61511
     61507     61506     61509     61507     61506     61508     61508     61506     61509
     61510     61506     61509     61510     61506     61508     61510     61506     61507
     61512     61516     61517     61513     61512     61515     61513     61512     61514
     61514     61512     61515     61516     61512     61515     61516     61512     61514
     61516     61512     61513     61518     61522     61523     61519     61518     61521
     61519     61518     61520     61520     61518     61521     61522     61518     61521
     61522     61518     61520     61522     61518     61519     61524     61528     61529
     61525     61524     61527     61525     61524     61526     61526     61524     61527
     61528     61524     61527     61528     61524     61526     61528     61524     61525
     61530     61534     61535     61531     61530     61533     61531     61530     61532
     61532     61530     61533     61534     61530     61533     61534     61530     61532
     61534     61530     61531     61536     61540     61541     61537     61536     61539
     61537     61536     61538     61538     61536     61539     61540     61536     61539
     61540     61536     61538     61540     61536     61537     61542     61546     61547
     61543     61542     61545     61543     61542     61544     61544     61542     61545
     61546     61542     61545     61546     61542     61544     61546     61542     61543
     61548     61552     61553     61549     61548     61551     61549     61548     61550
     61550     61548     61551     61552     61548     61551     61552     61548     61550
     61552     61548     61549     61554     61558     61559     61555     61554     61557
     61555     61554     61556     61556     61554     61557     61558     61554     61557
     61558     61554     61556     61558     61554     61555     61560     61564     61565
     61561     61560     61563     61561     61560     61562     61562     61560     61563
     61564     61560     61563     61564     61560     61562     61564     61560     61561
     61566     61570     61571     61567     61566     61569     61567     61566     61568
     61568     61566     61569     61570     61566     61569     61570     61566     61568
     61570     61566     61567     61572     61576     61577     61573     61572     61575
     61573     61572     61574     61574     61572     61575     61576     61572     61575
     61576     61572     61574     61576     61572     61573     61578     61582     61583
     61579     61578     61581     61579     61578     61580     61580     61578     61581
     61582     61578     61581     61582     61578     61580     61582     61578     61579
     61584     61588     61589     61585     61584     61587     61585     61584     61586
     61586     61584     61587     61588     61584     61587     61588     61584     61586
     61588     61584     61585     61590     61594     61595     61591     61590     61593
     61591     61590     61592     61592     61590     61593     61594     61590     61593
     61594     61590     61592     61594     61590     61591     61596     61600     61601
     61597     61596     61599     61597     61596     61598     61598     61596     61599
     61600     61596     61599     61600     61596     61598     61600     61596     61597
     61602     61606     61607     61603     61602     61605     61603     61602     61604
     61604     61602     61605     61606     61602     61605     61606     61602     61604
     61606     61602     61603     61608     61612     61613     61609     61608     61611
     61609     61608     61610     61610     61608     61611     61612     61608     61611
     61612     61608     61610     61612     61608     61609     61614     61618     61619
     61615     61614     61617     61615     61614     61616     61616     61614     61617
     61618     61614     61617     61618     61614     61616     61618     61614     61615
     61620     61624     61625     61621     61620     61623     61621     61620     61622
     61622     61620     61623     61624     61620     61623     61624     61620     61622
     61624     61620     61621     61626     61630     61631     61627     61626     61629
     61627     61626     61628     61628     61626     61629     61630     61626     61629
     61630     61626     61628     61630     61626     61627     61632     61636     61637
     61633     61632     61635     61633     61632     61634     61634     61632     61635
     61636     61632     61635     61636     61632     61634     61636     61632     61633
     61638     61642     61643     61639     61638     61641     61639     61638     61640
     61640     61638     61641     61642     61638     61641     61642     61638     61640
     61642     61638     61639     61644     61648     61649     61645     61644     61647
     61645     61644     61646     61646     61644     61647     61648     61644     61647
     61648     61644     61646     61648     61644     61645     61650     61654     61655
     61651     61650     61653     61651     61650     61652     61652     61650     61653
     61654     61650     61653     61654     61650     61652     61654     61650     61651
     61656     61660     61661     61657     61656     61659     61657     61656     61658
     61658     61656     61659     61660     61656     61659     61660     61656     61658
     61660     61656     61657     61662     61666     61667     61663     61662     61665
     61663     61662     61664     61664     61662     61665     61666     61662     61665
     61666     61662     61664     61666     61662     61663     61668     61672     61673
     61669     61668     61671     61669     61668     61670     61670     61668     61671
     61672     61668     61671     61672     61668     61670     61672     61668     61669
     61674     61678     61679     61675     61674     61677     61675     61674     61676
     61676     61674     61677     61678     61674     61677     61678     61674     61676
     61678     61674     61675     61680     61684     61685     61681     61680     61683
     61681     61680     61682     61682     61680     61683     61684     61680     61683
     61684     61680     61682     61684     61680     61681     61686     61690     61691
     61687     61686     61689     61687     61686     61688     61688     61686     61689
     61690     61686     61689     61690     61686     61688     61690     61686     61687
     61692     61696     61697     61693     61692     61695     61693     61692     61694
     61694     61692     61695     61696     61692     61695     61696     61692     61694
     61696     61692     61693     61698     61702     61703     61699     61698     61701
     61699     61698     61700     61700     61698     61701     61702     61698     61701
     61702     61698     61700     61702     61698     61699     61704     61708     61709
     61705     61704     61707     61705     61704     61706     61706     61704     61707
     61708     61704     61707     61708     61704     61706     61708     61704     61705
     61710     61714     61715     61711     61710     61713     61711     61710     61712
     61712     61710     61713     61714     61710     61713     61714     61710     61712
     61714     61710     61711     61716     61720     61721     61717     61716     61719
     61717     61716     61718     61718     61716     61719     61720     61716     61719
     61720     61716     61718     61720     61716     61717     61722     61726     61727
     61723     61722     61725     61723     61722     61724     61724     61722     61725
     61726     61722     61725     61726     61722     61724     61726     61722     61723
     61728     61732     61733     61729     61728     61731     61729     61728     61730
     61730     61728     61731     61732     61728     61731     61732     61728     61730
     61732     61728     61729     61734     61738     61739     61735     61734     61737
     61735     61734     61736     61736     61734     61737     61738     61734     61737
     61738     61734     61736     61738     61734     61735     61740     61744     61745
     61741     61740     61743     61741     61740     61742     61742     61740     61743
     61744     61740     61743     61744     61740     61742     61744     61740     61741
     61746     61750     61751     61747     61746     61749     61747     61746     61748
     61748     61746     61749     61750     61746     61749     61750     61746     61748
     61750     61746     61747     61752     61756     61757     61753     61752     61755
     61753     61752     61754     61754     61752     61755     61756     61752     61755
     61756     61752     61754     61756     61752     61753     61758     61762     61763
     61759     61758     61761     61759     61758     61760     61760     61758     61761
     61762     61758     61761     61762     61758     61760     61762     61758     61759
     61764     61768     61769     61765     61764     61767     61765     61764     61766
     61766     61764     61767     61768     61764     61767     61768     61764     61766
     61768     61764     61765     61770     61774     61775     61771     61770     61773
     61771     61770     61772     61772     61770     61773     61774     61770     61773
     61774     61770     61772     61774     61770     61771     61776     61780     61781
     61777     61776     61779     61777     61776     61778     61778     61776     61779
     61780     61776     61779     61780     61776     61778     61780     61776     61777
     61782     61786     61787     61783     61782     61785     61783     61782     61784
     61784     61782     61785     61786     61782     61785     61786     61782     61784
     61786     61782     61783     61788     61792     61793     61789     61788     61791
     61789     61788     61790     61790     61788     61791     61792     61788     61791
     61792     61788     61790     61792     61788     61789     61794     61798     61799
     61795     61794     61797     61795     61794     61796     61796     61794     61797
     61798     61794     61797     61798     61794     61796     61798     61794     61795
     61800     61804     61805     61801     61800     61803     61801     61800     61802
     61802     61800     61803     61804     61800     61803     61804     61800     61802
     61804     61800     61801     61806     61810     61811     61807     61806     61809
     61807     61806     61808     61808     61806     61809     61810     61806     61809
     61810     61806     61808     61810     61806     61807     61812     61816     61817
     61813     61812     61815     61813     61812     61814     61814     61812     61815
     61816     61812     61815     61816     61812     61814     61816     61812     61813
     61818     61822     61823     61819     61818     61821     61819     61818     61820
     61820     61818     61821     61822     61818     61821     61822     61818     61820
     61822     61818     61819     61824     61828     61829     61825     61824     61827
     61825     61824     61826     61826     61824     61827     61828     61824     61827
     61828     61824     61826     61828     61824     61825     61830     61834     61835
     61831     61830     61833     61831     61830     61832     61832     61830     61833
     61834     61830     61833     61834     61830     61832     61834     61830     61831
     61836     61840     61841     61837     61836     61839     61837     61836     61838
     61838     61836     61839     61840     61836     61839     61840     61836     61838
     61840     61836     61837     61842     61846     61847     61843     61842     61845
     61843     61842     61844     61844     61842     61845     61846     61842     61845
     61846     61842     61844     61846     61842     61843     61848     61852     61853
     61849     61848     61851     61849     61848     61850     61850     61848     61851
     61852     61848     61851     61852     61848     61850     61852     61848     61849
     61854     61858     61859     61855     61854     61857     61855     61854     61856
     61856     61854     61857     61858     61854     61857     61858     61854     61856
     61858     61854     61855     61860     61864     61865     61861     61860     61863
     61861     61860     61862     61862     61860     61863     61864     61860     61863
     61864     61860     61862     61864     61860     61861     61866     61870     61871
     61867     61866     61869     61867     61866     61868     61868     61866     61869
     61870     61866     61869     61870     61866     61868     61870     61866     61867
     61872     61876     61877     61873     61872     61875     61873     61872     61874
     61874     61872     61875     61876     61872     61875     61876     61872     61874
     61876     61872     61873     61878     61882     61883     61879     61878     61881
     61879     61878     61880     61880     61878     61881     61882     61878     61881
     61882     61878     61880     61882     61878     61879     61884     61888     61889
     61885     61884     61887     61885     61884     61886     61886     61884     61887
     61888     61884     61887     61888     61884     61886     61888     61884     61885
     61890     61894     61895     61891     61890     61893     61891     61890     61892
     61892     61890     61893     61894     61890     61893     61894     61890     61892
     61894     61890     61891     61896     61900     61901     61897     61896     61899
     61897     61896     61898     61898     61896     61899     61900     61896     61899
     61900     61896     61898     61900     61896     61897     61902     61906     61907
     61903     61902     61905     61903     61902     61904     61904     61902     61905
     61906     61902     61905     61906     61902     61904     61906     61902     61903
     61908     61912     61913     61909     61908     61911     61909     61908     61910
     61910     61908     61911     61912     61908     61911     61912     61908     61910
     61912     61908     61909     61914     61918     61919     61915     61914     61917
     61915     61914     61916     61916     61914     61917     61918     61914     61917
     61918     61914     61916     61918     61914     61915     61920     61924     61925
     61921     61920     61923     61921     61920     61922     61922     61920     61923
     61924     61920     61923     61924     61920     61922     61924     61920     61921
     61926     61930     61931     61927     61926     61929     61927     61926     61928
     61928     61926     61929     61930     61926     61929     61930     61926     61928
     61930     61926     61927     61932     61936     61937     61933     61932     61935
     61933     61932     61934     61934     61932     61935     61936     61932     61935
     61936     61932     61934     61936     61932     61933     61938     61942     61943
     61939     61938     61941     61939     61938     61940     61940     61938     61941
     61942     61938     61941     61942     61938     61940     61942     61938     61939
     61944     61948     61949     61945     61944     61947     61945     61944     61946
     61946     61944     61947     61948     61944     61947     61948     61944     61946
     61948     61944     61945     61950     61954     61955     61951     61950     61953
     61951     61950     61952     61952     61950     61953     61954     61950     61953
     61954     61950     61952     61954     61950     61951     61956     61960     61961
     61957     61956     61959     61957     61956     61958     61958     61956     61959
     61960     61956     61959     61960     61956     61958     61960     61956     61957
     61962     61966     61967     61963     61962     61965     61963     61962     61964
     61964     61962     61965     61966     61962     61965     61966     61962     61964
     61966     61962     61963     61968     61972     61973     61969     61968     61971
     61969     61968     61970     61970     61968     61971     61972     61968     61971
     61972     61968     61970     61972     61968     61969     61974     61978     61979
     61975     61974     61977     61975     61974     61976     61976     61974     61977
     61978     61974     61977     61978     61974     61976     61978     61974     61975
     61980     61984     61985     61981     61980     61983     61981     61980     61982
     61982     61980     61983     61984     61980     61983     61984     61980     61982
     61984     61980     61981     61986     61990     61991     61987     61986     61989
     61987     61986     61988     61988     61986     61989     61990     61986     61989
     61990     61986     61988     61990     61986     61987     61992     61996     61997
     61993     61992     61995     61993     61992     61994     61994     61992     61995
     61996     61992     61995     61996     61992     61994     61996     61992     61993
     61998     62002     62003     61999     61998     62001     61999     61998     62000
     62000     61998     62001     62002     61998     62001     62002     61998     62000
     62002     61998     61999     62004     62008     62009     62005     62004     62007
     62005     62004     62006     62006     62004     62007     62008     62004     62007
     62008     62004     62006     62008     62004     62005     62010     62014     62015
     62011     62010     62013     62011     62010     62012     62012     62010     62013
     62014     62010     62013     62014     62010     62012     62014     62010     62011
     62016     62020     62021     62017     62016     62019     62017     62016     62018
     62018     62016     62019     62020     62016     62019     62020     62016     62018
     62020     62016     62017     62022     62026     62027     62023     62022     62025
     62023     62022     62024     62024     62022     62025     62026     62022     62025
     62026     62022     62024     62026     62022     62023     62028     62032     62033
     62029     62028     62031     62029     62028     62030     62030     62028     62031
     62032     62028     62031     62032     62028     62030     62032     62028     62029
     62034     62038     62039     62035     62034     62037     62035     62034     62036
     62036     62034     62037     62038     62034     62037     62038     62034     62036
     62038     62034     62035     62040     62044     62045     62041     62040     62043
     62041     62040     62042     62042     62040     62043     62044     62040     62043
     62044     62040     62042     62044     62040     62041     62046     62050     62051
     62047     62046     62049     62047     62046     62048     62048     62046     62049
     62050     62046     62049     62050     62046     62048     62050     62046     62047
     62052     62056     62057     62053     62052     62055     62053     62052     62054
     62054     62052     62055     62056     62052     62055     62056     62052     62054
     62056     62052     62053     62058     62062     62063     62059     62058     62061
     62059     62058     62060     62060     62058     62061     62062     62058     62061
     62062     62058     62060     62062     62058     62059     62064     62068     62069
     62065     62064     62067     62065     62064     62066     62066     62064     62067
     62068     62064     62067     62068     62064     62066     62068     62064     62065
     62070     62074     62075     62071     62070     62073     62071     62070     62072
     62072     62070     62073     62074     62070     62073     62074     62070     62072
     62074     62070     62071     62076     62080     62081     62077     62076     62079
     62077     62076     62078     62078     62076     62079     62080     62076     62079
     62080     62076     62078     62080     62076     62077     62082     62086     62087
     62083     62082     62085     62083     62082     62084     62084     62082     62085
     62086     62082     62085     62086     62082     62084     62086     62082     62083
     62088     62092     62093     62089     62088     62091     62089     62088     62090
     62090     62088     62091     62092     62088     62091     62092     62088     62090
     62092     62088     62089     62094     62098     62099     62095     62094     62097
     62095     62094     62096     62096     62094     62097     62098     62094     62097
     62098     62094     62096     62098     62094     62095     62100     62104     62105
     62101     62100     62103     62101     62100     62102     62102     62100     62103
     62104     62100     62103     62104     62100     62102     62104     62100     62101
     62106     62110     62111     62107     62106     62109     62107     62106     62108
     62108     62106     62109     62110     62106     62109     62110     62106     62108
     62110     62106     62107     62112     62116     62117     62113     62112     62115
     62113     62112     62114     62114     62112     62115     62116     62112     62115
     62116     62112     62114     62116     62112     62113     62118     62122     62123
     62119     62118     62121     62119     62118     62120     62120     62118     62121
     62122     62118     62121     62122     62118     62120     62122     62118     62119
     62124     62128     62129     62125     62124     62127     62125     62124     62126
     62126     62124     62127     62128     62124     62127     62128     62124     62126
     62128     62124     62125     62130     62134     62135     62131     62130     62133
     62131     62130     62132     62132     62130     62133     62134     62130     62133
     62134     62130     62132     62134     62130     62131     62136     62140     62141
     62137     62136     62139     62137     62136     62138     62138     62136     62139
     62140     62136     62139     62140     62136     62138     62140     62136     62137
     62142     62146     62147     62143     62142     62145     62143     62142     62144
     62144     62142     62145     62146     62142     62145     62146     62142     62144
     62146     62142     62143     62148     62152     62153     62149     62148     62151
     62149     62148     62150     62150     62148     62151     62152     62148     62151
     62152     62148     62150     62152     62148     62149     62154     62158     62159
     62155     62154     62157     62155     62154     62156     62156     62154     62157
     62158     62154     62157     62158     62154     62156     62158     62154     62155
     62160     62164     62165     62161     62160     62163     62161     62160     62162
     62162     62160     62163     62164     62160     62163     62164     62160     62162
     62164     62160     62161     62166     62170     62171     62167     62166     62169
     62167     62166     62168     62168     62166     62169     62170     62166     62169
     62170     62166     62168     62170     62166     62167     62172     62176     62177
     62173     62172     62175     62173     62172     62174     62174     62172     62175
     62176     62172     62175     62176     62172     62174     62176     62172     62173
     62178     62182     62183     62179     62178     62181     62179     62178     62180
     62180     62178     62181     62182     62178     62181     62182     62178     62180
     62182     62178     62179     62184     62188     62189     62185     62184     62187
     62185     62184     62186     62186     62184     62187     62188     62184     62187
     62188     62184     62186     62188     62184     62185     62190     62194     62195
     62191     62190     62193     62191     62190     62192     62192     62190     62193
     62194     62190     62193     62194     62190     62192     62194     62190     62191
     62196     62200     62201     62197     62196     62199     62197     62196     62198
     62198     62196     62199     62200     62196     62199     62200     62196     62198
     62200     62196     62197     62202     62206     62207     62203     62202     62205
     62203     62202     62204     62204     62202     62205     62206     62202     62205
     62206     62202     62204     62206     62202     62203     62208     62212     62213
     62209     62208     62211     62209     62208     62210     62210     62208     62211
     62212     62208     62211     62212     62208     62210     62212     62208     62209
     62214     62218     62219     62215     62214     62217     62215     62214     62216
     62216     62214     62217     62218     62214     62217     62218     62214     62216
     62218     62214     62215     62220     62224     62225     62221     62220     62223
     62221     62220     62222     62222     62220     62223     62224     62220     62223
     62224     62220     62222     62224     62220     62221     62226     62230     62231
     62227     62226     62229     62227     62226     62228     62228     62226     62229
     62230     62226     62229     62230     62226     62228     62230     62226     62227
     62232     62236     62237     62233     62232     62235     62233     62232     62234
     62234     62232     62235     62236     62232     62235     62236     62232     62234
     62236     62232     62233     62238     62242     62243     62239     62238     62241
     62239     62238     62240     62240     62238     62241     62242     62238     62241
     62242     62238     62240     62242     62238     62239     62244     62248     62249
     62245     62244     62247     62245     62244     62246     62246     62244     62247
     62248     62244     62247     62248     62244     62246     62248     62244     62245
     62250     62254     62255     62251     62250     62253     62251     62250     62252
     62252     62250     62253     62254     62250     62253     62254     62250     62252
     62254     62250     62251     62256     62260     62261     62257     62256     62259
     62257     62256     62258     62258     62256     62259     62260     62256     62259
     62260     62256     62258     62260     62256     62257     62262     62266     62267
     62263     62262     62265     62263     62262     62264     62264     62262     62265
     62266     62262     62265     62266     62262     62264     62266     62262     62263
     62268     62272     62273     62269     62268     62271     62269     62268     62270
     62270     62268     62271     62272     62268     62271     62272     62268     62270
     62272     62268     62269     62274     62278     62279     62275     62274     62277
     62275     62274     62276     62276     62274     62277     62278     62274     62277
     62278     62274     62276     62278     62274     62275     62280     62284     62285
     62281     62280     62283     62281     62280     62282     62282     62280     62283
     62284     62280     62283     62284     62280     62282     62284     62280     62281
     62286     62290     62291     62287     62286     62289     62287     62286     62288
     62288     62286     62289     62290     62286     62289     62290     62286     62288
     62290     62286     62287     62292     62296     62297     62293     62292     62295
     62293     62292     62294     62294     62292     62295     62296     62292     62295
     62296     62292     62294     62296     62292     62293     62298     62302     62303
     62299     62298     62301     62299     62298     62300     62300     62298     62301
     62302     62298     62301     62302     62298     62300     62302     62298     62299
     62304     62308     62309     62305     62304     62307     62305     62304     62306
     62306     62304     62307     62308     62304     62307     62308     62304     62306
     62308     62304     62305     62310     62314     62315     62311     62310     62313
     62311     62310     62312     62312     62310     62313     62314     62310     62313
     62314     62310     62312     62314     62310     62311     62316     62320     62321
     62317     62316     62319     62317     62316     62318     62318     62316     62319
     62320     62316     62319     62320     62316     62318     62320     62316     62317
     62322     62326     62327     62323     62322     62325     62323     62322     62324
     62324     62322     62325     62326     62322     62325     62326     62322     62324
     62326     62322     62323     62328     62332     62333     62329     62328     62331
     62329     62328     62330     62330     62328     62331     62332     62328     62331
     62332     62328     62330     62332     62328     62329     62334     62338     62339
     62335     62334     62337     62335     62334     62336     62336     62334     62337
     62338     62334     62337     62338     62334     62336     62338     62334     62335
     62340     62344     62345     62341     62340     62343     62341     62340     62342
     62342     62340     62343     62344     62340     62343     62344     62340     62342
     62344     62340     62341     62346     62350     62351     62347     62346     62349
     62347     62346     62348     62348     62346     62349     62350     62346     62349
     62350     62346     62348     62350     62346     62347     62352     62356     62357
     62353     62352     62355     62353     62352     62354     62354     62352     62355
     62356     62352     62355     62356     62352     62354     62356     62352     62353
     62358     62362     62363     62359     62358     62361     62359     62358     62360
     62360     62358     62361     62362     62358     62361     62362     62358     62360
     62362     62358     62359     62364     62368     62369     62365     62364     62367
     62365     62364     62366     62366     62364     62367     62368     62364     62367
     62368     62364     62366     62368     62364     62365     62370     62374     62375
     62371     62370     62373     62371     62370     62372     62372     62370     62373
     62374     62370     62373     62374     62370     62372     62374     62370     62371
     62376     62380     62381     62377     62376     62379     62377     62376     62378
     62378     62376     62379     62380     62376     62379     62380     62376     62378
     62380     62376     62377     62382     62386     62387     62383     62382     62385
     62383     62382     62384     62384     62382     62385     62386     62382     62385
     62386     62382     62384     62386     62382     62383     62388     62392     62393
     62389     62388     62391     62389     62388     62390     62390     62388     62391
     62392     62388     62391     62392     62388     62390     62392     62388     62389
     62394     62398     62399     62395     62394     62397     62395     62394     62396
     62396     62394     62397     62398     62394     62397     62398     62394     62396
     62398     62394     62395     62400     62404     62405     62401     62400     62403
     62401     62400     62402     62402     62400     62403     62404     62400     62403
     62404     62400     62402     62404     62400     62401     62406     62410     62411
     62407     62406     62409     62407     62406     62408     62408     62406     62409
     62410     62406     62409     62410     62406     62408     62410     62406     62407
     62412     62416     62417     62413     62412     62415     62413     62412     62414
     62414     62412     62415     62416     62412     62415     62416     62412     62414
     62416     62412     62413     62418     62422     62423     62419     62418     62421
     62419     62418     62420     62420     62418     62421     62422     62418     62421
     62422     62418     62420     62422     62418     62419     62424     62428     62429
     62425     62424     62427     62425     62424     62426     62426     62424     62427
     62428     62424     62427     62428     62424     62426     62428     62424     62425
     62430     62434     62435     62431     62430     62433     62431     62430     62432
     62432     62430     62433     62434     62430     62433     62434     62430     62432
     62434     62430     62431     62436     62440     62441     62437     62436     62439
     62437     62436     62438     62438     62436     62439     62440     62436     62439
     62440     62436     62438     62440     62436     62437     62442     62446     62447
     62443     62442     62445     62443     62442     62444     62444     62442     62445
     62446     62442     62445     62446     62442     62444     62446     62442     62443
     62448     62452     62453     62449     62448     62451     62449     62448     62450
     62450     62448     62451     62452     62448     62451     62452     62448     62450
     62452     62448     62449     62454     62458     62459     62455     62454     62457
     62455     62454     62456     62456     62454     62457     62458     62454     62457
     62458     62454     62456     62458     62454     62455     62460     62464     62465
     62461     62460     62463     62461     62460     62462     62462     62460     62463
     62464     62460     62463     62464     62460     62462     62464     62460     62461
     62466     62470     62471     62467     62466     62469     62467     62466     62468
     62468     62466     62469     62470     62466     62469     62470     62466     62468
     62470     62466     62467     62472     62476     62477     62473     62472     62475
     62473     62472     62474     62474     62472     62475     62476     62472     62475
     62476     62472     62474     62476     62472     62473     62478     62482     62483
     62479     62478     62481     62479     62478     62480     62480     62478     62481
     62482     62478     62481     62482     62478     62480     62482     62478     62479
     62484     62488     62489     62485     62484     62487     62485     62484     62486
     62486     62484     62487     62488     62484     62487     62488     62484     62486
     62488     62484     62485     62490     62494     62495     62491     62490     62493
     62491     62490     62492     62492     62490     62493     62494     62490     62493
     62494     62490     62492     62494     62490     62491     62496     62500     62501
     62497     62496     62499     62497     62496     62498     62498     62496     62499
     62500     62496     62499     62500     62496     62498     62500     62496     62497
     62502     62506     62507     62503     62502     62505     62503     62502     62504
     62504     62502     62505     62506     62502     62505     62506     62502     62504
     62506     62502     62503     62508     62512     62513     62509     62508     62511
     62509     62508     62510     62510     62508     62511     62512     62508     62511
     62512     62508     62510     62512     62508     62509     62514     62518     62519
     62515     62514     62517     62515     62514     62516     62516     62514     62517
     62518     62514     62517     62518     62514     62516     62518     62514     62515
     62520     62524     62525     62521     62520     62523     62521     62520     62522
     62522     62520     62523     62524     62520     62523     62524     62520     62522
     62524     62520     62521     62526     62530     62531     62527     62526     62529
     62527     62526     62528     62528     62526     62529     62530     62526     62529
     62530     62526     62528     62530     62526     62527     62532     62536     62537
     62533     62532     62535     62533     62532     62534     62534     62532     62535
     62536     62532     62535     62536     62532     62534     62536     62532     62533
     62538     62542     62543     62539     62538     62541     62539     62538     62540
     62540     62538     62541     62542     62538     62541     62542     62538     62540
     62542     62538     62539     62544     62548     62549     62545     62544     62547
     62545     62544     62546     62546     62544     62547     62548     62544     62547
     62548     62544     62546     62548     62544     62545     62550     62554     62555
     62551     62550     62553     62551     62550     62552     62552     62550     62553
     62554     62550     62553     62554     62550     62552     62554     62550     62551
     62556     62560     62561     62557     62556     62559     62557     62556     62558
     62558     62556     62559     62560     62556     62559     62560     62556     62558
     62560     62556     62557     62562     62566     62567     62563     62562     62565
     62563     62562     62564     62564     62562     62565     62566     62562     62565
     62566     62562     62564     62566     62562     62563     62568     62572     62573
     62569     62568     62571     62569     62568     62570     62570     62568     62571
     62572     62568     62571     62572     62568     62570     62572     62568     62569
     62574     62578     62579     62575     62574     62577     62575     62574     62576
     62576     62574     62577     62578     62574     62577     62578     62574     62576
     62578     62574     62575     62580     62584     62585     62581     62580     62583
     62581     62580     62582     62582     62580     62583     62584     62580     62583
     62584     62580     62582     62584     62580     62581     62586     62590     62591
     62587     62586     62589     62587     62586     62588     62588     62586     62589
     62590     62586     62589     62590     62586     62588     62590     62586     62587
     62592     62596     62597     62593     62592     62595     62593     62592     62594
     62594     62592     62595     62596     62592     62595     62596     62592     62594
     62596     62592     62593     62598     62602     62603     62599     62598     62601
     62599     62598     62600     62600     62598     62601     62602     62598     62601
     62602     62598     62600     62602     62598     62599     62604     62608     62609
     62605     62604     62607     62605     62604     62606     62606     62604     62607
     62608     62604     62607     62608     62604     62606     62608     62604     62605
     62610     62614     62615     62611     62610     62613     62611     62610     62612
     62612     62610     62613     62614     62610     62613     62614     62610     62612
     62614     62610     62611     62616     62620     62621     62617     62616     62619
     62617     62616     62618     62618     62616     62619     62620     62616     62619
     62620     62616     62618     62620     62616     62617     62622     62626     62627
     62623     62622     62625     62623     62622     62624     62624     62622     62625
     62626     62622     62625     62626     62622     62624     62626     62622     62623
     62628     62632     62633     62629     62628     62631     62629     62628     62630
     62630     62628     62631     62632     62628     62631     62632     62628     62630
     62632     62628     62629     62634     62638     62639     62635     62634     62637
     62635     62634     62636     62636     62634     62637     62638     62634     62637
     62638     62634     62636     62638     62634     62635     62640     62644     62645
     62641     62640     62643     62641     62640     62642     62642     62640     62643
     62644     62640     62643     62644     62640     62642     62644     62640     62641
     62646     62650     62651     62647     62646     62649     62647     62646     62648
     62648     62646     62649     62650     62646     62649     62650     62646     62648
     62650     62646     62647     62652     62656     62657     62653     62652     62655
     62653     62652     62654     62654     62652     62655     62656     62652     62655
     62656     62652     62654     62656     62652     62653     62658     62662     62663
     62659     62658     62661     62659     62658     62660     62660     62658     62661
     62662     62658     62661     62662     62658     62660     62662     62658     62659
     62664     62668     62669     62665     62664     62667     62665     62664     62666
     62666     62664     62667     62668     62664     62667     62668     62664     62666
     62668     62664     62665     62670     62674     62675     62671     62670     62673
     62671     62670     62672     62672     62670     62673     62674     62670     62673
     62674     62670     62672     62674     62670     62671     62676     62680     62681
     62677     62676     62679     62677     62676     62678     62678     62676     62679
     62680     62676     62679     62680     62676     62678     62680     62676     62677
     62682     62686     62687     62683     62682     62685     62683     62682     62684
     62684     62682     62685     62686     62682     62685     62686     62682     62684
     62686     62682     62683     62688     62692     62693     62689     62688     62691
     62689     62688     62690     62690     62688     62691     62692     62688     62691
     62692     62688     62690     62692     62688     62689     62694     62698     62699
     62695     62694     62697     62695     62694     62696     62696     62694     62697
     62698     62694     62697     62698     62694     62696     62698     62694     62695
     62700     62704     62705     62701     62700     62703     62701     62700     62702
     62702     62700     62703     62704     62700     62703     62704     62700     62702
     62704     62700     62701     62706     62710     62711     62707     62706     62709
     62707     62706     62708     62708     62706     62709     62710     62706     62709
     62710     62706     62708     62710     62706     62707     62712     62716     62717
     62713     62712     62715     62713     62712     62714     62714     62712     62715
     62716     62712     62715     62716     62712     62714     62716     62712     62713
     62718     62722     62723     62719     62718     62721     62719     62718     62720
     62720     62718     62721     62722     62718     62721     62722     62718     62720
     62722     62718     62719     62724     62728     62729     62725     62724     62727
     62725     62724     62726     62726     62724     62727     62728     62724     62727
     62728     62724     62726     62728     62724     62725     62730     62734     62735
     62731     62730     62733     62731     62730     62732     62732     62730     62733
     62734     62730     62733     62734     62730     62732     62734     62730     62731
     62736     62740     62741     62737     62736     62739     62737     62736     62738
     62738     62736     62739     62740     62736     62739     62740     62736     62738
     62740     62736     62737     62742     62746     62747     62743     62742     62745
     62743     62742     62744     62744     62742     62745     62746     62742     62745
     62746     62742     62744     62746     62742     62743     62748     62752     62753
     62749     62748     62751     62749     62748     62750     62750     62748     62751
     62752     62748     62751     62752     62748     62750     62752     62748     62749
     62754     62758     62759     62755     62754     62757     62755     62754     62756
     62756     62754     62757     62758     62754     62757     62758     62754     62756
     62758     62754     62755     62760     62764     62765     62761     62760     62763
     62761     62760     62762     62762     62760     62763     62764     62760     62763
     62764     62760     62762     62764     62760     62761     62766     62770     62771
     62767     62766     62769     62767     62766     62768     62768     62766     62769
     62770     62766     62769     62770     62766     62768     62770     62766     62767
     62772     62776     62777     62773     62772     62775     62773     62772     62774
     62774     62772     62775     62776     62772     62775     62776     62772     62774
     62776     62772     62773     62778     62782     62783     62779     62778     62781
     62779     62778     62780     62780     62778     62781     62782     62778     62781
     62782     62778     62780     62782     62778     62779     62784     62788     62789
     62785     62784     62787     62785     62784     62786     62786     62784     62787
     62788     62784     62787     62788     62784     62786     62788     62784     62785
     62790     62794     62795     62791     62790     62793     62791     62790     62792
     62792     62790     62793     62794     62790     62793     62794     62790     62792
     62794     62790     62791     62796     62800     62801     62797     62796     62799
     62797     62796     62798     62798     62796     62799     62800     62796     62799
     62800     62796     62798     62800     62796     62797     62802     62806     62807
     62803     62802     62805     62803     62802     62804     62804     62802     62805
     62806     62802     62805     62806     62802     62804     62806     62802     62803
     62808     62812     62813     62809     62808     62811     62809     62808     62810
     62810     62808     62811     62812     62808     62811     62812     62808     62810
     62812     62808     62809     62814     62818     62819     62815     62814     62817
     62815     62814     62816     62816     62814     62817     62818     62814     62817
     62818     62814     62816     62818     62814     62815     62820     62824     62825
     62821     62820     62823     62821     62820     62822     62822     62820     62823
     62824     62820     62823     62824     62820     62822     62824     62820     62821
     62826     62830     62831     62827     62826     62829     62827     62826     62828
     62828     62826     62829     62830     62826     62829     62830     62826     62828
     62830     62826     62827     62832     62836     62837     62833     62832     62835
     62833     62832     62834     62834     62832     62835     62836     62832     62835
     62836     62832     62834     62836     62832     62833     62838     62842     62843
     62839     62838     62841     62839     62838     62840     62840     62838     62841
     62842     62838     62841     62842     62838     62840     62842     62838     62839
     62844     62848     62849     62845     62844     62847     62845     62844     62846
     62846     62844     62847     62848     62844     62847     62848     62844     62846
     62848     62844     62845     62850     62854     62855     62851     62850     62853
     62851     62850     62852     62852     62850     62853     62854     62850     62853
     62854     62850     62852     62854     62850     62851     62856     62860     62861
     62857     62856     62859     62857     62856     62858     62858     62856     62859
     62860     62856     62859     62860     62856     62858     62860     62856     62857
     62862     62866     62867     62863     62862     62865     62863     62862     62864
     62864     62862     62865     62866     62862     62865     62866     62862     62864
     62866     62862     62863     62868     62872     62873     62869     62868     62871
     62869     62868     62870     62870     62868     62871     62872     62868     62871
     62872     62868     62870     62872     62868     62869     62874     62878     62879
     62875     62874     62877     62875     62874     62876     62876     62874     62877
     62878     62874     62877     62878     62874     62876     62878     62874     62875
     62880     62884     62885     62881     62880     62883     62881     62880     62882
     62882     62880     62883     62884     62880     62883     62884     62880     62882
     62884     62880     62881     62886     62890     62891     62887     62886     62889
     62887     62886     62888     62888     62886     62889     62890     62886     62889
     62890     62886     62888     62890     62886     62887     62892     62896     62897
     62893     62892     62895     62893     62892     62894     62894     62892     62895
     62896     62892     62895     62896     62892     62894     62896     62892     62893
     62898     62902     62903     62899     62898     62901     62899     62898     62900
     62900     62898     62901     62902     62898     62901     62902     62898     62900
     62902     62898     62899     62904     62908     62909     62905     62904     62907
     62905     62904     62906     62906     62904     62907     62908     62904     62907
     62908     62904     62906     62908     62904     62905     62910     62914     62915
     62911     62910     62913     62911     62910     62912     62912     62910     62913
     62914     62910     62913     62914     62910     62912     62914     62910     62911
     62916     62920     62921     62917     62916     62919     62917     62916     62918
     62918     62916     62919     62920     62916     62919     62920     62916     62918
     62920     62916     62917     62922     62926     62927     62923     62922     62925
     62923     62922     62924     62924     62922     62925     62926     62922     62925
     62926     62922     62924     62926     62922     62923     62928     62932     62933
     62929     62928     62931     62929     62928     62930     62930     62928     62931
     62932     62928     62931     62932     62928     62930     62932     62928     62929
     62934     62938     62939     62935     62934     62937     62935     62934     62936
     62936     62934     62937     62938     62934     62937     62938     62934     62936
     62938     62934     62935     62940     62944     62945     62941     62940     62943
     62941     62940     62942     62942     62940     62943     62944     62940     62943
     62944     62940     62942     62944     62940     62941     62946     62950     62951
     62947     62946     62949     62947     62946     62948     62948     62946     62949
     62950     62946     62949     62950     62946     62948     62950     62946     62947
     62952     62956     62957     62953     62952     62955     62953     62952     62954
     62954     62952     62955     62956     62952     62955     62956     62952     62954
     62956     62952     62953     62958     62962     62963     62959     62958     62961
     62959     62958     62960     62960     62958     62961     62962     62958     62961
     62962     62958     62960     62962     62958     62959     62964     62968     62969
     62965     62964     62967     62965     62964     62966     62966     62964     62967
     62968     62964     62967     62968     62964     62966     62968     62964     62965
     62970     62974     62975     62971     62970     62973     62971     62970     62972
     62972     62970     62973     62974     62970     62973     62974     62970     62972
     62974     62970     62971     62976     62980     62981     62977     62976     62979
     62977     62976     62978     62978     62976     62979     62980     62976     62979
     62980     62976     62978     62980     62976     62977     62982     62986     62987
     62983     62982     62985     62983     62982     62984     62984     62982     62985
     62986     62982     62985     62986     62982     62984     62986     62982     62983
     62988     62992     62993     62989     62988     62991     62989     62988     62990
     62990     62988     62991     62992     62988     62991     62992     62988     62990
     62992     62988     62989     62994     62998     62999     62995     62994     62997
     62995     62994     62996     62996     62994     62997     62998     62994     62997
     62998     62994     62996     62998     62994     62995     63000     63004     63005
     63001     63000     63003     63001     63000     63002     63002     63000     63003
     63004     63000     63003     63004     63000     63002     63004     63000     63001
     63006     63010     63011     63007     63006     63009     63007     63006     63008
     63008     63006     63009     63010     63006     63009     63010     63006     63008
     63010     63006     63007     63012     63016     63017     63013     63012     63015
     63013     63012     63014     63014     63012     63015     63016     63012     63015
     63016     63012     63014     63016     63012     63013     63018     63022     63023
     63019     63018     63021     63019     63018     63020     63020     63018     63021
     63022     63018     63021     63022     63018     63020     63022     63018     63019
     63024     63028     63029     63025     63024     63027     63025     63024     63026
     63026     63024     63027     63028     63024     63027     63028     63024     63026
     63028     63024     63025     63030     63034     63035     63031     63030     63033
     63031     63030     63032     63032     63030     63033     63034     63030     63033
     63034     63030     63032     63034     63030     63031     63036     63040     63041
     63037     63036     63039     63037     63036     63038     63038     63036     63039
     63040     63036     63039     63040     63036     63038     63040     63036     63037
     63042     63046     63047     63043     63042     63045     63043     63042     63044
     63044     63042     63045     63046     63042     63045     63046     63042     63044
     63046     63042     63043     63048     63052     63053     63049     63048     63051
     63049     63048     63050     63050     63048     63051     63052     63048     63051
     63052     63048     63050     63052     63048     63049     63054     63058     63059
     63055     63054     63057     63055     63054     63056     63056     63054     63057
     63058     63054     63057     63058     63054     63056     63058     63054     63055
     63060     63064     63065     63061     63060     63063     63061     63060     63062
     63062     63060     63063     63064     63060     63063     63064     63060     63062
     63064     63060     63061     63066     63070     63071     63067     63066     63069
     63067     63066     63068     63068     63066     63069     63070     63066     63069
     63070     63066     63068     63070     63066     63067     63072     63076     63077
     63073     63072     63075     63073     63072     63074     63074     63072     63075
     63076     63072     63075     63076     63072     63074     63076     63072     63073
     63078     63082     63083     63079     63078     63081     63079     63078     63080
     63080     63078     63081     63082     63078     63081     63082     63078     63080
     63082     63078     63079     63084     63088     63089     63085     63084     63087
     63085     63084     63086     63086     63084     63087     63088     63084     63087
     63088     63084     63086     63088     63084     63085     63090     63094     63095
     63091     63090     63093     63091     63090     63092     63092     63090     63093
     63094     63090     63093     63094     63090     63092     63094     63090     63091
     63096     63100     63101     63097     63096     63099     63097     63096     63098
     63098     63096     63099     63100     63096     63099     63100     63096     63098
     63100     63096     63097     63102     63106     63107     63103     63102     63105
     63103     63102     63104     63104     63102     63105     63106     63102     63105
     63106     63102     63104     63106     63102     63103     63108     63112     63113
     63109     63108     63111     63109     63108     63110     63110     63108     63111
     63112     63108     63111     63112     63108     63110     63112     63108     63109
     63114     63118     63119     63115     63114     63117     63115     63114     63116
     63116     63114     63117     63118     63114     63117     63118     63114     63116
     63118     63114     63115     63120     63124     63125     63121     63120     63123
     63121     63120     63122     63122     63120     63123     63124     63120     63123
     63124     63120     63122     63124     63120     63121     63126     63130     63131
     63127     63126     63129     63127     63126     63128     63128     63126     63129
     63130     63126     63129     63130     63126     63128     63130     63126     63127
     63132     63136     63137     63133     63132     63135     63133     63132     63134
     63134     63132     63135     63136     63132     63135     63136     63132     63134
     63136     63132     63133     63138     63142     63143     63139     63138     63141
     63139     63138     63140     63140     63138     63141     63142     63138     63141
     63142     63138     63140     63142     63138     63139     63144     63148     63149
     63145     63144     63147     63145     63144     63146     63146     63144     63147
     63148     63144     63147     63148     63144     63146     63148     63144     63145
     63150     63154     63155     63151     63150     63153     63151     63150     63152
     63152     63150     63153     63154     63150     63153     63154     63150     63152
     63154     63150     63151     63156     63160     63161     63157     63156     63159
     63157     63156     63158     63158     63156     63159     63160     63156     63159
     63160     63156     63158     63160     63156     63157     63162     63166     63167
     63163     63162     63165     63163     63162     63164     63164     63162     63165
     63166     63162     63165     63166     63162     63164     63166     63162     63163
     63168     63172     63173     63169     63168     63171     63169     63168     63170
     63170     63168     63171     63172     63168     63171     63172     63168     63170
     63172     63168     63169     63174     63178     63179     63175     63174     63177
     63175     63174     63176     63176     63174     63177     63178     63174     63177
     63178     63174     63176     63178     63174     63175     63180     63184     63185
     63181     63180     63183     63181     63180     63182     63182     63180     63183
     63184     63180     63183     63184     63180     63182     63184     63180     63181
     63186     63190     63191     63187     63186     63189     63187     63186     63188
     63188     63186     63189     63190     63186     63189     63190     63186     63188
     63190     63186     63187     63192     63196     63197     63193     63192     63195
     63193     63192     63194     63194     63192     63195     63196     63192     63195
     63196     63192     63194     63196     63192     63193     63198     63202     63203
     63199     63198     63201     63199     63198     63200     63200     63198     63201
     63202     63198     63201     63202     63198     63200     63202     63198     63199
     63204     63208     63209     63205     63204     63207     63205     63204     63206
     63206     63204     63207     63208     63204     63207     63208     63204     63206
     63208     63204     63205     63210     63214     63215     63211     63210     63213
     63211     63210     63212     63212     63210     63213     63214     63210     63213
     63214     63210     63212     63214     63210     63211     63216     63220     63221
     63217     63216     63219     63217     63216     63218     63218     63216     63219
     63220     63216     63219     63220     63216     63218     63220     63216     63217
     63222     63226     63227     63223     63222     63225     63223     63222     63224
     63224     63222     63225     63226     63222     63225     63226     63222     63224
     63226     63222     63223     63228     63232     63233     63229     63228     63231
     63229     63228     63230     63230     63228     63231     63232     63228     63231
     63232     63228     63230     63232     63228     63229     63234     63238     63239
     63235     63234     63237     63235     63234     63236     63236     63234     63237
     63238     63234     63237     63238     63234     63236     63238     63234     63235
     63240     63244     63245     63241     63240     63243     63241     63240     63242
     63242     63240     63243     63244     63240     63243     63244     63240     63242
     63244     63240     63241     63246     63250     63251     63247     63246     63249
     63247     63246     63248     63248     63246     63249     63250     63246     63249
     63250     63246     63248     63250     63246     63247     63252     63256     63257
     63253     63252     63255     63253     63252     63254     63254     63252     63255
     63256     63252     63255     63256     63252     63254     63256     63252     63253
     63258     63262     63263     63259     63258     63261     63259     63258     63260
     63260     63258     63261     63262     63258     63261     63262     63258     63260
     63262     63258     63259     63264     63268     63269     63265     63264     63267
     63265     63264     63266     63266     63264     63267     63268     63264     63267
     63268     63264     63266     63268     63264     63265     63270     63274     63275
     63271     63270     63273     63271     63270     63272     63272     63270     63273
     63274     63270     63273     63274     63270     63272     63274     63270     63271
     63276     63280     63281     63277     63276     63279     63277     63276     63278
     63278     63276     63279     63280     63276     63279     63280     63276     63278
     63280     63276     63277     63282     63286     63287     63283     63282     63285
     63283     63282     63284     63284     63282     63285     63286     63282     63285
     63286     63282     63284     63286     63282     63283     63288     63292     63293
     63289     63288     63291     63289     63288     63290     63290     63288     63291
     63292     63288     63291     63292     63288     63290     63292     63288     63289
     63294     63298     63299     63295     63294     63297     63295     63294     63296
     63296     63294     63297     63298     63294     63297     63298     63294     63296
     63298     63294     63295     63300     63304     63305     63301     63300     63303
     63301     63300     63302     63302     63300     63303     63304     63300     63303
     63304     63300     63302     63304     63300     63301     63306     63310     63311
     63307     63306     63309     63307     63306     63308     63308     63306     63309
     63310     63306     63309     63310     63306     63308     63310     63306     63307
     63312     63316     63317     63313     63312     63315     63313     63312     63314
     63314     63312     63315     63316     63312     63315     63316     63312     63314
     63316     63312     63313     63318     63322     63323     63319     63318     63321
     63319     63318     63320     63320     63318     63321     63322     63318     63321
     63322     63318     63320     63322     63318     63319     63324     63328     63329
     63325     63324     63327     63325     63324     63326     63326     63324     63327
     63328     63324     63327     63328     63324     63326     63328     63324     63325
     63330     63334     63335     63331     63330     63333     63331     63330     63332
     63332     63330     63333     63334     63330     63333     63334     63330     63332
     63334     63330     63331     63336     63340     63341     63337     63336     63339
     63337     63336     63338     63338     63336     63339     63340     63336     63339
     63340     63336     63338     63340     63336     63337     63342     63346     63347
     63343     63342     63345     63343     63342     63344     63344     63342     63345
     63346     63342     63345     63346     63342     63344     63346     63342     63343
     63348     63352     63353     63349     63348     63351     63349     63348     63350
     63350     63348     63351     63352     63348     63351     63352     63348     63350
     63352     63348     63349     63354     63358     63359     63355     63354     63357
     63355     63354     63356     63356     63354     63357     63358     63354     63357
     63358     63354     63356     63358     63354     63355     63360     63364     63365
     63361     63360     63363     63361     63360     63362     63362     63360     63363
     63364     63360     63363     63364     63360     63362     63364     63360     63361
     63366     63370     63371     63367     63366     63369     63367     63366     63368
     63368     63366     63369     63370     63366     63369     63370     63366     63368
     63370     63366     63367     63372     63376     63377     63373     63372     63375
     63373     63372     63374     63374     63372     63375     63376     63372     63375
     63376     63372     63374     63376     63372     63373     63378     63382     63383
     63379     63378     63381     63379     63378     63380     63380     63378     63381
     63382     63378     63381     63382     63378     63380     63382     63378     63379
     63384     63388     63389     63385     63384     63387     63385     63384     63386
     63386     63384     63387     63388     63384     63387     63388     63384     63386
     63388     63384     63385     63390     63394     63395     63391     63390     63393
     63391     63390     63392     63392     63390     63393     63394     63390     63393
     63394     63390     63392     63394     63390     63391     63396     63400     63401
     63397     63396     63399     63397     63396     63398     63398     63396     63399
     63400     63396     63399     63400     63396     63398     63400     63396     63397
     63402     63406     63407     63403     63402     63405     63403     63402     63404
     63404     63402     63405     63406     63402     63405     63406     63402     63404
     63406     63402     63403     63408     63412     63413     63409     63408     63411
     63409     63408     63410     63410     63408     63411     63412     63408     63411
     63412     63408     63410     63412     63408     63409     63414     63418     63419
     63415     63414     63417     63415     63414     63416     63416     63414     63417
     63418     63414     63417     63418     63414     63416     63418     63414     63415
     63420     63424     63425     63421     63420     63423     63421     63420     63422
     63422     63420     63423     63424     63420     63423     63424     63420     63422
     63424     63420     63421     63426     63430     63431     63427     63426     63429
     63427     63426     63428     63428     63426     63429     63430     63426     63429
     63430     63426     63428     63430     63426     63427     63432     63436     63437
     63433     63432     63435     63433     63432     63434     63434     63432     63435
     63436     63432     63435     63436     63432     63434     63436     63432     63433
     63438     63442     63443     63439     63438     63441     63439     63438     63440
     63440     63438     63441     63442     63438     63441     63442     63438     63440
     63442     63438     63439     63444     63448     63449     63445     63444     63447
     63445     63444     63446     63446     63444     63447     63448     63444     63447
     63448     63444     63446     63448     63444     63445     63450     63454     63455
     63451     63450     63453     63451     63450     63452     63452     63450     63453
     63454     63450     63453     63454     63450     63452     63454     63450     63451
     63456     63460     63461     63457     63456     63459     63457     63456     63458
     63458     63456     63459     63460     63456     63459     63460     63456     63458
     63460     63456     63457     63462     63466     63467     63463     63462     63465
     63463     63462     63464     63464     63462     63465     63466     63462     63465
     63466     63462     63464     63466     63462     63463     63468     63472     63473
     63469     63468     63471     63469     63468     63470     63470     63468     63471
     63472     63468     63471     63472     63468     63470     63472     63468     63469
     63474     63478     63479     63475     63474     63477     63475     63474     63476
     63476     63474     63477     63478     63474     63477     63478     63474     63476
     63478     63474     63475     63480     63484     63485     63481     63480     63483
     63481     63480     63482     63482     63480     63483     63484     63480     63483
     63484     63480     63482     63484     63480     63481     63486     63490     63491
     63487     63486     63489     63487     63486     63488     63488     63486     63489
     63490     63486     63489     63490     63486     63488     63490     63486     63487
     63492     63496     63497     63493     63492     63495     63493     63492     63494
     63494     63492     63495     63496     63492     63495     63496     63492     63494
     63496     63492     63493     63498     63502     63503     63499     63498     63501
     63499     63498     63500     63500     63498     63501     63502     63498     63501
     63502     63498     63500     63502     63498     63499     63504     63508     63509
     63505     63504     63507     63505     63504     63506     63506     63504     63507
     63508     63504     63507     63508     63504     63506     63508     63504     63505
     63510     63514     63515     63511     63510     63513     63511     63510     63512
     63512     63510     63513     63514     63510     63513     63514     63510     63512
     63514     63510     63511     63516     63520     63521     63517     63516     63519
     63517     63516     63518     63518     63516     63519     63520     63516     63519
     63520     63516     63518     63520     63516     63517     63522     63526     63527
     63523     63522     63525     63523     63522     63524     63524     63522     63525
     63526     63522     63525     63526     63522     63524     63526     63522     63523
     63528     63532     63533     63529     63528     63531     63529     63528     63530
     63530     63528     63531     63532     63528     63531     63532     63528     63530
     63532     63528     63529     63534     63538     63539     63535     63534     63537
     63535     63534     63536     63536     63534     63537     63538     63534     63537
     63538     63534     63536     63538     63534     63535     63540     63544     63545
     63541     63540     63543     63541     63540     63542     63542     63540     63543
     63544     63540     63543     63544     63540     63542     63544     63540     63541
     63546     63550     63551     63547     63546     63549     63547     63546     63548
     63548     63546     63549     63550     63546     63549     63550     63546     63548
     63550     63546     63547     63552     63556     63557     63553     63552     63555
     63553     63552     63554     63554     63552     63555     63556     63552     63555
     63556     63552     63554     63556     63552     63553     63558     63562     63563
     63559     63558     63561     63559     63558     63560     63560     63558     63561
     63562     63558     63561     63562     63558     63560     63562     63558     63559
     63564     63568     63569     63565     63564     63567     63565     63564     63566
     63566     63564     63567     63568     63564     63567     63568     63564     63566
     63568     63564     63565     63570     63574     63575     63571     63570     63573
     63571     63570     63572     63572     63570     63573     63574     63570     63573
     63574     63570     63572     63574     63570     63571     63576     63580     63581
     63577     63576     63579     63577     63576     63578     63578     63576     63579
     63580     63576     63579     63580     63576     63578     63580     63576     63577
     63582     63586     63587     63583     63582     63585     63583     63582     63584
     63584     63582     63585     63586     63582     63585     63586     63582     63584
     63586     63582     63583     63588     63592     63593     63589     63588     63591
     63589     63588     63590     63590     63588     63591     63592     63588     63591
     63592     63588     63590     63592     63588     63589     63594     63598     63599
     63595     63594     63597     63595     63594     63596     63596     63594     63597
     63598     63594     63597     63598     63594     63596     63598     63594     63595
     63600     63604     63605     63601     63600     63603     63601     63600     63602
     63602     63600     63603     63604     63600     63603     63604     63600     63602
     63604     63600     63601     63606     63610     63611     63607     63606     63609
     63607     63606     63608     63608     63606     63609     63610     63606     63609
     63610     63606     63608     63610     63606     63607     63612     63616     63617
     63613     63612     63615     63613     63612     63614     63614     63612     63615
     63616     63612     63615     63616     63612     63614     63616     63612     63613
     63618     63622     63623     63619     63618     63621     63619     63618     63620
     63620     63618     63621     63622     63618     63621     63622     63618     63620
     63622     63618     63619     63624     63628     63629     63625     63624     63627
     63625     63624     63626     63626     63624     63627     63628     63624     63627
     63628     63624     63626     63628     63624     63625     63630     63634     63635
     63631     63630     63633     63631     63630     63632     63632     63630     63633
     63634     63630     63633     63634     63630     63632     63634     63630     63631
     63636     63640     63641     63637     63636     63639     63637     63636     63638
     63638     63636     63639     63640     63636     63639     63640     63636     63638
     63640     63636     63637     63642     63646     63647     63643     63642     63645
     63643     63642     63644     63644     63642     63645     63646     63642     63645
     63646     63642     63644     63646     63642     63643     63648     63652     63653
     63649     63648     63651     63649     63648     63650     63650     63648     63651
     63652     63648     63651     63652     63648     63650     63652     63648     63649
     63654     63658     63659     63655     63654     63657     63655     63654     63656
     63656     63654     63657     63658     63654     63657     63658     63654     63656
     63658     63654     63655     63660     63664     63665     63661     63660     63663
     63661     63660     63662     63662     63660     63663     63664     63660     63663
     63664     63660     63662     63664     63660     63661     63666     63670     63671
     63667     63666     63669     63667     63666     63668     63668     63666     63669
     63670     63666     63669     63670     63666     63668     63670     63666     63667
     63672     63676     63677     63673     63672     63675     63673     63672     63674
     63674     63672     63675     63676     63672     63675     63676     63672     63674
     63676     63672     63673     63678     63682     63683     63679     63678     63681
     63679     63678     63680     63680     63678     63681     63682     63678     63681
     63682     63678     63680     63682     63678     63679     63684     63688     63689
     63685     63684     63687     63685     63684     63686     63686     63684     63687
     63688     63684     63687     63688     63684     63686     63688     63684     63685
     63690     63694     63695     63691     63690     63693     63691     63690     63692
     63692     63690     63693     63694     63690     63693     63694     63690     63692
     63694     63690     63691     63696     63700     63701     63697     63696     63699
     63697     63696     63698     63698     63696     63699     63700     63696     63699
     63700     63696     63698     63700     63696     63697     63702     63706     63707
     63703     63702     63705     63703     63702     63704     63704     63702     63705
     63706     63702     63705     63706     63702     63704     63706     63702     63703
     63708     63712     63713     63709     63708     63711     63709     63708     63710
     63710     63708     63711     63712     63708     63711     63712     63708     63710
     63712     63708     63709     63714     63718     63719     63715     63714     63717
     63715     63714     63716     63716     63714     63717     63718     63714     63717
     63718     63714     63716     63718     63714     63715     63720     63724     63725
     63721     63720     63723     63721     63720     63722     63722     63720     63723
     63724     63720     63723     63724     63720     63722     63724     63720     63721
     63726     63730     63731     63727     63726     63729     63727     63726     63728
     63728     63726     63729     63730     63726     63729     63730     63726     63728
     63730     63726     63727     63732     63736     63737     63733     63732     63735
     63733     63732     63734     63734     63732     63735     63736     63732     63735
     63736     63732     63734     63736     63732     63733     63738     63742     63743
     63739     63738     63741     63739     63738     63740     63740     63738     63741
     63742     63738     63741     63742     63738     63740     63742     63738     63739
     63744     63748     63749     63745     63744     63747     63745     63744     63746
     63746     63744     63747     63748     63744     63747     63748     63744     63746
     63748     63744     63745     63750     63754     63755     63751     63750     63753
     63751     63750     63752     63752     63750     63753     63754     63750     63753
     63754     63750     63752     63754     63750     63751     63756     63760     63761
     63757     63756     63759     63757     63756     63758     63758     63756     63759
     63760     63756     63759     63760     63756     63758     63760     63756     63757
     63762     63766     63767     63763     63762     63765     63763     63762     63764
     63764     63762     63765     63766     63762     63765     63766     63762     63764
     63766     63762     63763     63768     63772     63773     63769     63768     63771
     63769     63768     63770     63770     63768     63771     63772     63768     63771
     63772     63768     63770     63772     63768     63769     63774     63778     63779
     63775     63774     63777     63775     63774     63776     63776     63774     63777
     63778     63774     63777     63778     63774     63776     63778     63774     63775
     63780     63784     63785     63781     63780     63783     63781     63780     63782
     63782     63780     63783     63784     63780     63783     63784     63780     63782
     63784     63780     63781     63786     63790     63791     63787     63786     63789
     63787     63786     63788     63788     63786     63789     63790     63786     63789
     63790     63786     63788     63790     63786     63787     63792     63796     63797
     63793     63792     63795     63793     63792     63794     63794     63792     63795
     63796     63792     63795     63796     63792     63794     63796     63792     63793
     63798     63802     63803     63799     63798     63801     63799     63798     63800
     63800     63798     63801     63802     63798     63801     63802     63798     63800
     63802     63798     63799     63804     63808     63809     63805     63804     63807
     63805     63804     63806     63806     63804     63807     63808     63804     63807
     63808     63804     63806     63808     63804     63805     63810     63814     63815
     63811     63810     63813     63811     63810     63812     63812     63810     63813
     63814     63810     63813     63814     63810     63812     63814     63810     63811
     63816     63820     63821     63817     63816     63819     63817     63816     63818
     63818     63816     63819     63820     63816     63819     63820     63816     63818
     63820     63816     63817     63822     63826     63827     63823     63822     63825
     63823     63822     63824     63824     63822     63825     63826     63822     63825
     63826     63822     63824     63826     63822     63823     63828     63832     63833
     63829     63828     63831     63829     63828     63830     63830     63828     63831
     63832     63828     63831     63832     63828     63830     63832     63828     63829
     63834     63838     63839     63835     63834     63837     63835     63834     63836
     63836     63834     63837     63838     63834     63837     63838     63834     63836
     63838     63834     63835     63840     63844     63845     63841     63840     63843
     63841     63840     63842     63842     63840     63843     63844     63840     63843
     63844     63840     63842     63844     63840     63841     63846     63850     63851
     63847     63846     63849     63847     63846     63848     63848     63846     63849
     63850     63846     63849     63850     63846     63848     63850     63846     63847
     63852     63856     63857     63853     63852     63855     63853     63852     63854
     63854     63852     63855     63856     63852     63855     63856     63852     63854
     63856     63852     63853     63858     63862     63863     63859     63858     63861
     63859     63858     63860     63860     63858     63861     63862     63858     63861
     63862     63858     63860     63862     63858     63859     63864     63868     63869
     63865     63864     63867     63865     63864     63866     63866     63864     63867
     63868     63864     63867     63868     63864     63866     63868     63864     63865
     63870     63874     63875     63871     63870     63873     63871     63870     63872
     63872     63870     63873     63874     63870     63873     63874     63870     63872
     63874     63870     63871     63876     63880     63881     63877     63876     63879
     63877     63876     63878     63878     63876     63879     63880     63876     63879
     63880     63876     63878     63880     63876     63877     63882     63886     63887
     63883     63882     63885     63883     63882     63884     63884     63882     63885
     63886     63882     63885     63886     63882     63884     63886     63882     63883
     63888     63892     63893     63889     63888     63891     63889     63888     63890
     63890     63888     63891     63892     63888     63891     63892     63888     63890
     63892     63888     63889     63894     63898     63899     63895     63894     63897
     63895     63894     63896     63896     63894     63897     63898     63894     63897
     63898     63894     63896     63898     63894     63895     63900     63904     63905
     63901     63900     63903     63901     63900     63902     63902     63900     63903
     63904     63900     63903     63904     63900     63902     63904     63900     63901
     63906     63910     63911     63907     63906     63909     63907     63906     63908
     63908     63906     63909     63910     63906     63909     63910     63906     63908
     63910     63906     63907     63912     63916     63917     63913     63912     63915
     63913     63912     63914     63914     63912     63915     63916     63912     63915
     63916     63912     63914     63916     63912     63913     63918     63922     63923
     63919     63918     63921     63919     63918     63920     63920     63918     63921
     63922     63918     63921     63922     63918     63920     63922     63918     63919
     63924     63928     63929     63925     63924     63927     63925     63924     63926
     63926     63924     63927     63928     63924     63927     63928     63924     63926
     63928     63924     63925     63930     63934     63935     63931     63930     63933
     63931     63930     63932     63932     63930     63933     63934     63930     63933
     63934     63930     63932     63934     63930     63931     63936     63940     63941
     63937     63936     63939     63937     63936     63938     63938     63936     63939
     63940     63936     63939     63940     63936     63938     63940     63936     63937
     63942     63946     63947     63943     63942     63945     63943     63942     63944
     63944     63942     63945     63946     63942     63945     63946     63942     63944
     63946     63942     63943     63948     63952     63953     63949     63948     63951
     63949     63948     63950     63950     63948     63951     63952     63948     63951
     63952     63948     63950     63952     63948     63949     63954     63958     63959
     63955     63954     63957     63955     63954     63956     63956     63954     63957
     63958     63954     63957     63958     63954     63956     63958     63954     63955
     63960     63964     63965     63961     63960     63963     63961     63960     63962
     63962     63960     63963     63964     63960     63963     63964     63960     63962
     63964     63960     63961     63966     63970     63971     63967     63966     63969
     63967     63966     63968     63968     63966     63969     63970     63966     63969
     63970     63966     63968     63970     63966     63967     63972     63976     63977
     63973     63972     63975     63973     63972     63974     63974     63972     63975
     63976     63972     63975     63976     63972     63974     63976     63972     63973
     63978     63982     63983     63979     63978     63981     63979     63978     63980
     63980     63978     63981     63982     63978     63981     63982     63978     63980
     63982     63978     63979     63984     63988     63989     63985     63984     63987
     63985     63984     63986     63986     63984     63987     63988     63984     63987
     63988     63984     63986     63988     63984     63985     63990     63994     63995
     63991     63990     63993     63991     63990     63992     63992     63990     63993
     63994     63990     63993     63994     63990     63992     63994     63990     63991
     63996     64000     64001     63997     63996     63999     63997     63996     63998
     63998     63996     63999     64000     63996     63999     64000     63996     63998
     64000     63996     63997     64002     64006     64007     64003     64002     64005
     64003     64002     64004     64004     64002     64005     64006     64002     64005
     64006     64002     64004     64006     64002     64003     64008     64012     64013
     64009     64008     64011     64009     64008     64010     64010     64008     64011
     64012     64008     64011     64012     64008     64010     64012     64008     64009
     64014     64018     64019     64015     64014     64017     64015     64014     64016
     64016     64014     64017     64018     64014     64017     64018     64014     64016
     64018     64014     64015     64020     64024     64025     64021     64020     64023
     64021     64020     64022     64022     64020     64023     64024     64020     64023
     64024     64020     64022     64024     64020     64021     64026     64030     64031
     64027     64026     64029     64027     64026     64028     64028     64026     64029
     64030     64026     64029     64030     64026     64028     64030     64026     64027
     64032     64036     64037     64033     64032     64035     64033     64032     64034
     64034     64032     64035     64036     64032     64035     64036     64032     64034
     64036     64032     64033     64038     64042     64043     64039     64038     64041
     64039     64038     64040     64040     64038     64041     64042     64038     64041
     64042     64038     64040     64042     64038     64039     64044     64048     64049
     64045     64044     64047     64045     64044     64046     64046     64044     64047
     64048     64044     64047     64048     64044     64046     64048     64044     64045
     64050     64054     64055     64051     64050     64053     64051     64050     64052
     64052     64050     64053     64054     64050     64053     64054     64050     64052
     64054     64050     64051     64056     64060     64061     64057     64056     64059
     64057     64056     64058     64058     64056     64059     64060     64056     64059
     64060     64056     64058     64060     64056     64057     64062     64066     64067
     64063     64062     64065     64063     64062     64064     64064     64062     64065
     64066     64062     64065     64066     64062     64064     64066     64062     64063
     64068     64072     64073     64069     64068     64071     64069     64068     64070
     64070     64068     64071     64072     64068     64071     64072     64068     64070
     64072     64068     64069     64074     64078     64079     64075     64074     64077
     64075     64074     64076     64076     64074     64077     64078     64074     64077
     64078     64074     64076     64078     64074     64075     64080     64084     64085
     64081     64080     64083     64081     64080     64082     64082     64080     64083
     64084     64080     64083     64084     64080     64082     64084     64080     64081
     64086     64090     64091     64087     64086     64089     64087     64086     64088
     64088     64086     64089     64090     64086     64089     64090     64086     64088
     64090     64086     64087     64092     64096     64097     64093     64092     64095
     64093     64092     64094     64094     64092     64095     64096     64092     64095
     64096     64092     64094     64096     64092     64093     64098     64102     64103
     64099     64098     64101     64099     64098     64100     64100     64098     64101
     64102     64098     64101     64102     64098     64100     64102     64098     64099
     64104     64108     64109     64105     64104     64107     64105     64104     64106
     64106     64104     64107     64108     64104     64107     64108     64104     64106
     64108     64104     64105     64110     64114     64115     64111     64110     64113
     64111     64110     64112     64112     64110     64113     64114     64110     64113
     64114     64110     64112     64114     64110     64111     64116     64120     64121
     64117     64116     64119     64117     64116     64118     64118     64116     64119
     64120     64116     64119     64120     64116     64118     64120     64116     64117
     64122     64126     64127     64123     64122     64125     64123     64122     64124
     64124     64122     64125     64126     64122     64125     64126     64122     64124
     64126     64122     64123     64128     64132     64133     64129     64128     64131
     64129     64128     64130     64130     64128     64131     64132     64128     64131
     64132     64128     64130     64132     64128     64129     64134     64138     64139
     64135     64134     64137     64135     64134     64136     64136     64134     64137
     64138     64134     64137     64138     64134     64136     64138     64134     64135
     64140     64144     64145     64141     64140     64143     64141     64140     64142
     64142     64140     64143     64144     64140     64143     64144     64140     64142
     64144     64140     64141     64146     64150     64151     64147     64146     64149
     64147     64146     64148     64148     64146     64149     64150     64146     64149
     64150     64146     64148     64150     64146     64147     64152     64156     64157
     64153     64152     64155     64153     64152     64154     64154     64152     64155
     64156     64152     64155     64156     64152     64154     64156     64152     64153
     64158     64162     64163     64159     64158     64161     64159     64158     64160
     64160     64158     64161     64162     64158     64161     64162     64158     64160
     64162     64158     64159     64164     64168     64169     64165     64164     64167
     64165     64164     64166     64166     64164     64167     64168     64164     64167
     64168     64164     64166     64168     64164     64165     64170     64174     64175
     64171     64170     64173     64171     64170     64172     64172     64170     64173
     64174     64170     64173     64174     64170     64172     64174     64170     64171
     64176     64180     64181     64177     64176     64179     64177     64176     64178
     64178     64176     64179     64180     64176     64179     64180     64176     64178
     64180     64176     64177     64182     64186     64187     64183     64182     64185
     64183     64182     64184     64184     64182     64185     64186     64182     64185
     64186     64182     64184     64186     64182     64183     64188     64192     64193
     64189     64188     64191     64189     64188     64190     64190     64188     64191
     64192     64188     64191     64192     64188     64190     64192     64188     64189
     64194     64198     64199     64195     64194     64197     64195     64194     64196
     64196     64194     64197     64198     64194     64197     64198     64194     64196
     64198     64194     64195     64200     64204     64205     64201     64200     64203
     64201     64200     64202     64202     64200     64203     64204     64200     64203
     64204     64200     64202     64204     64200     64201     64206     64210     64211
     64207     64206     64209     64207     64206     64208     64208     64206     64209
     64210     64206     64209     64210     64206     64208     64210     64206     64207
     64212     64216     64217     64213     64212     64215     64213     64212     64214
     64214     64212     64215     64216     64212     64215     64216     64212     64214
     64216     64212     64213     64218     64222     64223     64219     64218     64221
     64219     64218     64220     64220     64218     64221     64222     64218     64221
     64222     64218     64220     64222     64218     64219     64224     64228     64229
     64225     64224     64227     64225     64224     64226     64226     64224     64227
     64228     64224     64227     64228     64224     64226     64228     64224     64225
     64230     64234     64235     64231     64230     64233     64231     64230     64232
     64232     64230     64233     64234     64230     64233     64234     64230     64232
     64234     64230     64231     64236     64240     64241     64237     64236     64239
     64237     64236     64238     64238     64236     64239     64240     64236     64239
     64240     64236     64238     64240     64236     64237     64242     64246     64247
     64243     64242     64245     64243     64242     64244     64244     64242     64245
     64246     64242     64245     64246     64242     64244     64246     64242     64243
     64248     64252     64253     64249     64248     64251     64249     64248     64250
     64250     64248     64251     64252     64248     64251     64252     64248     64250
     64252     64248     64249     64254     64258     64259     64255     64254     64257
     64255     64254     64256     64256     64254     64257     64258     64254     64257
     64258     64254     64256     64258     64254     64255     64260     64264     64265
     64261     64260     64263     64261     64260     64262     64262     64260     64263
     64264     64260     64263     64264     64260     64262     64264     64260     64261
     64266     64270     64271     64267     64266     64269     64267     64266     64268
     64268     64266     64269     64270     64266     64269     64270     64266     64268
     64270     64266     64267     64272     64276     64277     64273     64272     64275
     64273     64272     64274     64274     64272     64275     64276     64272     64275
     64276     64272     64274     64276     64272     64273     64278     64282     64283
     64279     64278     64281     64279     64278     64280     64280     64278     64281
     64282     64278     64281     64282     64278     64280     64282     64278     64279
     64284     64288     64289     64285     64284     64287     64285     64284     64286
     64286     64284     64287     64288     64284     64287     64288     64284     64286
     64288     64284     64285     64290     64294     64295     64291     64290     64293
     64291     64290     64292     64292     64290     64293     64294     64290     64293
     64294     64290     64292     64294     64290     64291     64296     64300     64301
     64297     64296     64299     64297     64296     64298     64298     64296     64299
     64300     64296     64299     64300     64296     64298     64300     64296     64297
     64302     64306     64307     64303     64302     64305     64303     64302     64304
     64304     64302     64305     64306     64302     64305     64306     64302     64304
     64306     64302     64303     64308     64312     64313     64309     64308     64311
     64309     64308     64310     64310     64308     64311     64312     64308     64311
     64312     64308     64310     64312     64308     64309     64314     64318     64319
     64315     64314     64317     64315     64314     64316     64316     64314     64317
     64318     64314     64317     64318     64314     64316     64318     64314     64315
     64320     64324     64325     64321     64320     64323     64321     64320     64322
     64322     64320     64323     64324     64320     64323     64324     64320     64322
     64324     64320     64321     64326     64330     64331     64327     64326     64329
     64327     64326     64328     64328     64326     64329     64330     64326     64329
     64330     64326     64328     64330     64326     64327     64332     64336     64337
     64333     64332     64335     64333     64332     64334     64334     64332     64335
     64336     64332     64335     64336     64332     64334     64336     64332     64333
     64338     64342     64343     64339     64338     64341     64339     64338     64340
     64340     64338     64341     64342     64338     64341     64342     64338     64340
     64342     64338     64339     64344     64348     64349     64345     64344     64347
     64345     64344     64346     64346     64344     64347     64348     64344     64347
     64348     64344     64346     64348     64344     64345     64350     64354     64355
     64351     64350     64353     64351     64350     64352     64352     64350     64353
     64354     64350     64353     64354     64350     64352     64354     64350     64351
     64356     64360     64361     64357     64356     64359     64357     64356     64358
     64358     64356     64359     64360     64356     64359     64360     64356     64358
     64360     64356     64357     64362     64366     64367     64363     64362     64365
     64363     64362     64364     64364     64362     64365     64366     64362     64365
     64366     64362     64364     64366     64362     64363     64368     64372     64373
     64369     64368     64371     64369     64368     64370     64370     64368     64371
     64372     64368     64371     64372     64368     64370     64372     64368     64369
     64374     64378     64379     64375     64374     64377     64375     64374     64376
     64376     64374     64377     64378     64374     64377     64378     64374     64376
     64378     64374     64375     64380     64384     64385     64381     64380     64383
     64381     64380     64382     64382     64380     64383     64384     64380     64383
     64384     64380     64382     64384     64380     64381     64386     64390     64391
     64387     64386     64389     64387     64386     64388     64388     64386     64389
     64390     64386     64389     64390     64386     64388     64390     64386     64387
     64392     64396     64397     64393     64392     64395     64393     64392     64394
     64394     64392     64395     64396     64392     64395     64396     64392     64394
     64396     64392     64393     64398     64402     64403     64399     64398     64401
     64399     64398     64400     64400     64398     64401     64402     64398     64401
     64402     64398     64400     64402     64398     64399     64404     64408     64409
     64405     64404     64407     64405     64404     64406     64406     64404     64407
     64408     64404     64407     64408     64404     64406     64408     64404     64405
     64410     64414     64415     64411     64410     64413     64411     64410     64412
     64412     64410     64413     64414     64410     64413     64414     64410     64412
     64414     64410     64411     64416     64420     64421     64417     64416     64419
     64417     64416     64418     64418     64416     64419     64420     64416     64419
     64420     64416     64418     64420     64416     64417     64422     64426     64427
     64423     64422     64425     64423     64422     64424     64424     64422     64425
     64426     64422     64425     64426     64422     64424     64426     64422     64423
     64428     64432     64433     64429     64428     64431     64429     64428     64430
     64430     64428     64431     64432     64428     64431     64432     64428     64430
     64432     64428     64429     64434     64438     64439     64435     64434     64437
     64435     64434     64436     64436     64434     64437     64438     64434     64437
     64438     64434     64436     64438     64434     64435     64440     64444     64445
     64441     64440     64443     64441     64440     64442     64442     64440     64443
     64444     64440     64443     64444     64440     64442     64444     64440     64441
     64446     64450     64451     64447     64446     64449     64447     64446     64448
     64448     64446     64449     64450     64446     64449     64450     64446     64448
     64450     64446     64447     64452     64456     64457     64453     64452     64455
     64453     64452     64454     64454     64452     64455     64456     64452     64455
     64456     64452     64454     64456     64452     64453     64458     64462     64463
     64459     64458     64461     64459     64458     64460     64460     64458     64461
     64462     64458     64461     64462     64458     64460     64462     64458     64459
     64464     64468     64469     64465     64464     64467     64465     64464     64466
     64466     64464     64467     64468     64464     64467     64468     64464     64466
     64468     64464     64465     64470     64474     64475     64471     64470     64473
     64471     64470     64472     64472     64470     64473     64474     64470     64473
     64474     64470     64472     64474     64470     64471     64476     64480     64481
     64477     64476     64479     64477     64476     64478     64478     64476     64479
     64480     64476     64479     64480     64476     64478     64480     64476     64477
     64482     64486     64487     64483     64482     64485     64483     64482     64484
     64484     64482     64485     64486     64482     64485     64486     64482     64484
     64486     64482     64483     64488     64492     64493     64489     64488     64491
     64489     64488     64490     64490     64488     64491     64492     64488     64491
     64492     64488     64490     64492     64488     64489     64494     64498     64499
     64495     64494     64497     64495     64494     64496     64496     64494     64497
     64498     64494     64497     64498     64494     64496     64498     64494     64495
     64500     64504     64505     64501     64500     64503     64501     64500     64502
     64502     64500     64503     64504     64500     64503     64504     64500     64502
     64504     64500     64501     64506     64510     64511     64507     64506     64509
     64507     64506     64508     64508     64506     64509     64510     64506     64509
     64510     64506     64508     64510     64506     64507     64512     64516     64517
     64513     64512     64515     64513     64512     64514     64514     64512     64515
     64516     64512     64515     64516     64512     64514     64516     64512     64513
     64518     64522     64523     64519     64518     64521     64519     64518     64520
     64520     64518     64521     64522     64518     64521     64522     64518     64520
     64522     64518     64519     64524     64528     64529     64525     64524     64527
     64525     64524     64526     64526     64524     64527     64528     64524     64527
     64528     64524     64526     64528     64524     64525     64530     64534     64535
     64531     64530     64533     64531     64530     64532     64532     64530     64533
     64534     64530     64533     64534     64530     64532     64534     64530     64531
     64536     64540     64541     64537     64536     64539     64537     64536     64538
     64538     64536     64539     64540     64536     64539     64540     64536     64538
     64540     64536     64537     64542     64546     64547     64543     64542     64545
     64543     64542     64544     64544     64542     64545     64546     64542     64545
     64546     64542     64544     64546     64542     64543     64548     64552     64553
     64549     64548     64551     64549     64548     64550     64550     64548     64551
     64552     64548     64551     64552     64548     64550     64552     64548     64549
     64554     64558     64559     64555     64554     64557     64555     64554     64556
     64556     64554     64557     64558     64554     64557     64558     64554     64556
     64558     64554     64555     64560     64564     64565     64561     64560     64563
     64561     64560     64562     64562     64560     64563     64564     64560     64563
     64564     64560     64562     64564     64560     64561     64566     64570     64571
     64567     64566     64569     64567     64566     64568     64568     64566     64569
     64570     64566     64569     64570     64566     64568     64570     64566     64567
     64572     64576     64577     64573     64572     64575     64573     64572     64574
     64574     64572     64575     64576     64572     64575     64576     64572     64574
     64576     64572     64573     64578     64582     64583     64579     64578     64581
     64579     64578     64580     64580     64578     64581     64582     64578     64581
     64582     64578     64580     64582     64578     64579     64584     64588     64589
     64585     64584     64587     64585     64584     64586     64586     64584     64587
     64588     64584     64587     64588     64584     64586     64588     64584     64585
     64590     64594     64595     64591     64590     64593     64591     64590     64592
     64592     64590     64593     64594     64590     64593     64594     64590     64592
     64594     64590     64591     64596     64600     64601     64597     64596     64599
     64597     64596     64598     64598     64596     64599     64600     64596     64599
     64600     64596     64598     64600     64596     64597     64602     64606     64607
     64603     64602     64605     64603     64602     64604     64604     64602     64605
     64606     64602     64605     64606     64602     64604     64606     64602     64603
     64608     64612     64613     64609     64608     64611     64609     64608     64610
     64610     64608     64611     64612     64608     64611     64612     64608     64610
     64612     64608     64609     64614     64618     64619     64615     64614     64617
     64615     64614     64616     64616     64614     64617     64618     64614     64617
     64618     64614     64616     64618     64614     64615     64620     64624     64625
     64621     64620     64623     64621     64620     64622     64622     64620     64623
     64624     64620     64623     64624     64620     64622     64624     64620     64621
     64626     64630     64631     64627     64626     64629     64627     64626     64628
     64628     64626     64629     64630     64626     64629     64630     64626     64628
     64630     64626     64627     64632     64636     64637     64633     64632     64635
     64633     64632     64634     64634     64632     64635     64636     64632     64635
     64636     64632     64634     64636     64632     64633     64638     64642     64643
     64639     64638     64641     64639     64638     64640     64640     64638     64641
     64642     64638     64641     64642     64638     64640     64642     64638     64639
     64644     64648     64649     64645     64644     64647     64645     64644     64646
     64646     64644     64647     64648     64644     64647     64648     64644     64646
     64648     64644     64645     64650     64654     64655     64651     64650     64653
     64651     64650     64652     64652     64650     64653     64654     64650     64653
     64654     64650     64652     64654     64650     64651     64656     64660     64661
     64657     64656     64659     64657     64656     64658     64658     64656     64659
     64660     64656     64659     64660     64656     64658     64660     64656     64657
     64662     64666     64667     64663     64662     64665     64663     64662     64664
     64664     64662     64665     64666     64662     64665     64666     64662     64664
     64666     64662     64663     64668     64672     64673     64669     64668     64671
     64669     64668     64670     64670     64668     64671     64672     64668     64671
     64672     64668     64670     64672     64668     64669     64674     64678     64679
     64675     64674     64677     64675     64674     64676     64676     64674     64677
     64678     64674     64677     64678     64674     64676     64678     64674     64675
     64680     64684     64685     64681     64680     64683     64681     64680     64682
     64682     64680     64683     64684     64680     64683     64684     64680     64682
     64684     64680     64681     64686     64690     64691     64687     64686     64689
     64687     64686     64688     64688     64686     64689     64690     64686     64689
     64690     64686     64688     64690     64686     64687     64692     64696     64697
     64693     64692     64695     64693     64692     64694     64694     64692     64695
     64696     64692     64695     64696     64692     64694     64696     64692     64693
     64698     64702     64703     64699     64698     64701     64699     64698     64700
     64700     64698     64701     64702     64698     64701     64702     64698     64700
     64702     64698     64699     64704     64708     64709     64705     64704     64707
     64705     64704     64706     64706     64704     64707     64708     64704     64707
     64708     64704     64706     64708     64704     64705     64710     64714     64715
     64711     64710     64713     64711     64710     64712     64712     64710     64713
     64714     64710     64713     64714     64710     64712     64714     64710     64711
     64716     64720     64721     64717     64716     64719     64717     64716     64718
     64718     64716     64719     64720     64716     64719     64720     64716     64718
     64720     64716     64717     64722     64726     64727     64723     64722     64725
     64723     64722     64724     64724     64722     64725     64726     64722     64725
     64726     64722     64724     64726     64722     64723     64728     64732     64733
     64729     64728     64731     64729     64728     64730     64730     64728     64731
     64732     64728     64731     64732     64728     64730     64732     64728     64729
     64734     64738     64739     64735     64734     64737     64735     64734     64736
     64736     64734     64737     64738     64734     64737     64738     64734     64736
     64738     64734     64735     64740     64744     64745     64741     64740     64743
     64741     64740     64742     64742     64740     64743     64744     64740     64743
     64744     64740     64742     64744     64740     64741     64746     64750     64751
     64747     64746     64749     64747     64746     64748     64748     64746     64749
     64750     64746     64749     64750     64746     64748     64750     64746     64747
     64752     64756     64757     64753     64752     64755     64753     64752     64754
     64754     64752     64755     64756     64752     64755     64756     64752     64754
     64756     64752     64753     64758     64762     64763     64759     64758     64761
     64759     64758     64760     64760     64758     64761     64762     64758     64761
     64762     64758     64760     64762     64758     64759     64764     64768     64769
     64765     64764     64767     64765     64764     64766     64766     64764     64767
     64768     64764     64767     64768     64764     64766     64768     64764     64765
     64770     64774     64775     64771     64770     64773     64771     64770     64772
     64772     64770     64773     64774     64770     64773     64774     64770     64772
     64774     64770     64771     64776     64780     64781     64777     64776     64779
     64777     64776     64778     64778     64776     64779     64780     64776     64779
     64780     64776     64778     64780     64776     64777     64782     64786     64787
     64783     64782     64785     64783     64782     64784     64784     64782     64785
     64786     64782     64785     64786     64782     64784     64786     64782     64783
     64788     64792     64793     64789     64788     64791     64789     64788     64790
     64790     64788     64791     64792     64788     64791     64792     64788     64790
     64792     64788     64789     64794     64798     64799     64795     64794     64797
     64795     64794     64796     64796     64794     64797     64798     64794     64797
     64798     64794     64796     64798     64794     64795     64800     64804     64805
     64801     64800     64803     64801     64800     64802     64802     64800     64803
     64804     64800     64803     64804     64800     64802     64804     64800     64801
     64806     64810     64811     64807     64806     64809     64807     64806     64808
     64808     64806     64809     64810     64806     64809     64810     64806     64808
     64810     64806     64807     64812     64816     64817     64813     64812     64815
     64813     64812     64814     64814     64812     64815     64816     64812     64815
     64816     64812     64814     64816     64812     64813     64818     64822     64823
     64819     64818     64821     64819     64818     64820     64820     64818     64821
     64822     64818     64821     64822     64818     64820     64822     64818     64819
     64824     64828     64829     64825     64824     64827     64825     64824     64826
     64826     64824     64827     64828     64824     64827     64828     64824     64826
     64828     64824     64825     64830     64834     64835     64831     64830     64833
     64831     64830     64832     64832     64830     64833     64834     64830     64833
     64834     64830     64832     64834     64830     64831     64836     64840     64841
     64837     64836     64839     64837     64836     64838     64838     64836     64839
     64840     64836     64839     64840     64836     64838     64840     64836     64837
     64842     64846     64847     64843     64842     64845     64843     64842     64844
     64844     64842     64845     64846     64842     64845     64846     64842     64844
     64846     64842     64843     64848     64852     64853     64849     64848     64851
     64849     64848     64850     64850     64848     64851     64852     64848     64851
     64852     64848     64850     64852     64848     64849     64854     64858     64859
     64855     64854     64857     64855     64854     64856     64856     64854     64857
     64858     64854     64857     64858     64854     64856     64858     64854     64855
     64860     64864     64865     64861     64860     64863     64861     64860     64862
     64862     64860     64863     64864     64860     64863     64864     64860     64862
     64864     64860     64861     64866     64870     64871     64867     64866     64869
     64867     64866     64868     64868     64866     64869     64870     64866     64869
     64870     64866     64868     64870     64866     64867     64872     64876     64877
     64873     64872     64875     64873     64872     64874     64874     64872     64875
     64876     64872     64875     64876     64872     64874     64876     64872     64873
     64878     64882     64883     64879     64878     64881     64879     64878     64880
     64880     64878     64881     64882     64878     64881     64882     64878     64880
     64882     64878     64879     64884     64888     64889     64885     64884     64887
     64885     64884     64886     64886     64884     64887     64888     64884     64887
     64888     64884     64886     64888     64884     64885     64890     64894     64895
     64891     64890     64893     64891     64890     64892     64892     64890     64893
     64894     64890     64893     64894     64890     64892     64894     64890     64891
     64896     64900     64901     64897     64896     64899     64897     64896     64898
     64898     64896     64899     64900     64896     64899     64900     64896     64898
     64900     64896     64897     64902     64906     64907     64903     64902     64905
     64903     64902     64904     64904     64902     64905     64906     64902     64905
     64906     64902     64904     64906     64902     64903     64908     64912     64913
     64909     64908     64911     64909     64908     64910     64910     64908     64911
     64912     64908     64911     64912     64908     64910     64912     64908     64909
     64914     64918     64919     64915     64914     64917     64915     64914     64916
     64916     64914     64917     64918     64914     64917     64918     64914     64916
     64918     64914     64915     64920     64924     64925     64921     64920     64923
     64921     64920     64922     64922     64920     64923     64924     64920     64923
     64924     64920     64922     64924     64920     64921     64926     64930     64931
     64927     64926     64929     64927     64926     64928     64928     64926     64929
     64930     64926     64929     64930     64926     64928     64930     64926     64927
     64932     64936     64937     64933     64932     64935     64933     64932     64934
     64934     64932     64935     64936     64932     64935     64936     64932     64934
     64936     64932     64933     64938     64942     64943     64939     64938     64941
     64939     64938     64940     64940     64938     64941     64942     64938     64941
     64942     64938     64940     64942     64938     64939     64944     64948     64949
     64945     64944     64947     64945     64944     64946     64946     64944     64947
     64948     64944     64947     64948     64944     64946     64948     64944     64945
     64950     64954     64955     64951     64950     64953     64951     64950     64952
     64952     64950     64953     64954     64950     64953     64954     64950     64952
     64954     64950     64951     64956     64960     64961     64957     64956     64959
     64957     64956     64958     64958     64956     64959     64960     64956     64959
     64960     64956     64958     64960     64956     64957     64962     64966     64967
     64963     64962     64965     64963     64962     64964     64964     64962     64965
     64966     64962     64965     64966     64962     64964     64966     64962     64963
     64968     64972     64973     64969     64968     64971     64969     64968     64970
     64970     64968     64971     64972     64968     64971     64972     64968     64970
     64972     64968     64969     64974     64978     64979     64975     64974     64977
     64975     64974     64976     64976     64974     64977     64978     64974     64977
     64978     64974     64976     64978     64974     64975     64980     64984     64985
     64981     64980     64983     64981     64980     64982     64982     64980     64983
     64984     64980     64983     64984     64980     64982     64984     64980     64981
     64986     64990     64991     64987     64986     64989     64987     64986     64988
     64988     64986     64989     64990     64986     64989     64990     64986     64988
     64990     64986     64987     64992     64996     64997     64993     64992     64995
     64993     64992     64994     64994     64992     64995     64996     64992     64995
     64996     64992     64994     64996     64992     64993     64998     65002     65003
     64999     64998     65001     64999     64998     65000     65000     64998     65001
     65002     64998     65001     65002     64998     65000     65002     64998     64999
     65004     65008     65009     65005     65004     65007     65005     65004     65006
     65006     65004     65007     65008     65004     65007     65008     65004     65006
     65008     65004     65005     65010     65014     65015     65011     65010     65013
     65011     65010     65012     65012     65010     65013     65014     65010     65013
     65014     65010     65012     65014     65010     65011     65016     65020     65021
     65017     65016     65019     65017     65016     65018     65018     65016     65019
     65020     65016     65019     65020     65016     65018     65020     65016     65017
     65022     65026     65027     65023     65022     65025     65023     65022     65024
     65024     65022     65025     65026     65022     65025     65026     65022     65024
     65026     65022     65023     65028     65032     65033     65029     65028     65031
     65029     65028     65030     65030     65028     65031     65032     65028     65031
     65032     65028     65030     65032     65028     65029     65034     65038     65039
     65035     65034     65037     65035     65034     65036     65036     65034     65037
     65038     65034     65037     65038     65034     65036     65038     65034     65035
     65040     65044     65045     65041     65040     65043     65041     65040     65042
     65042     65040     65043     65044     65040     65043     65044     65040     65042
     65044     65040     65041     65046     65050     65051     65047     65046     65049
     65047     65046     65048     65048     65046     65049     65050     65046     65049
     65050     65046     65048     65050     65046     65047     65052     65056     65057
     65053     65052     65055     65053     65052     65054     65054     65052     65055
     65056     65052     65055     65056     65052     65054     65056     65052     65053
     65058     65062     65063     65059     65058     65061     65059     65058     65060
     65060     65058     65061     65062     65058     65061     65062     65058     65060
     65062     65058     65059     65064     65068     65069     65065     65064     65067
     65065     65064     65066     65066     65064     65067     65068     65064     65067
     65068     65064     65066     65068     65064     65065     65070     65074     65075
     65071     65070     65073     65071     65070     65072     65072     65070     65073
     65074     65070     65073     65074     65070     65072     65074     65070     65071
     65076     65080     65081     65077     65076     65079     65077     65076     65078
     65078     65076     65079     65080     65076     65079     65080     65076     65078
     65080     65076     65077     65082     65086     65087     65083     65082     65085
     65083     65082     65084     65084     65082     65085     65086     65082     65085
     65086     65082     65084     65086     65082     65083     65088     65092     65093
     65089     65088     65091     65089     65088     65090     65090     65088     65091
     65092     65088     65091     65092     65088     65090     65092     65088     65089
     65094     65098     65099     65095     65094     65097     65095     65094     65096
     65096     65094     65097     65098     65094     65097     65098     65094     65096
     65098     65094     65095     65100     65104     65105     65101     65100     65103
     65101     65100     65102     65102     65100     65103     65104     65100     65103
     65104     65100     65102     65104     65100     65101     65106     65110     65111
     65107     65106     65109     65107     65106     65108     65108     65106     65109
     65110     65106     65109     65110     65106     65108     65110     65106     65107
     65112     65116     65117     65113     65112     65115     65113     65112     65114
     65114     65112     65115     65116     65112     65115     65116     65112     65114
     65116     65112     65113     65118     65122     65123     65119     65118     65121
     65119     65118     65120     65120     65118     65121     65122     65118     65121
     65122     65118     65120     65122     65118     65119     65124     65128     65129
     65125     65124     65127     65125     65124     65126     65126     65124     65127
     65128     65124     65127     65128     65124     65126     65128     65124     65125
     65130     65134     65135     65131     65130     65133     65131     65130     65132
     65132     65130     65133     65134     65130     65133     65134     65130     65132
     65134     65130     65131     65136     65140     65141     65137     65136     65139
     65137     65136     65138     65138     65136     65139     65140     65136     65139
     65140     65136     65138     65140     65136     65137     65142     65146     65147
     65143     65142     65145     65143     65142     65144     65144     65142     65145
     65146     65142     65145     65146     65142     65144     65146     65142     65143
     65148     65152     65153     65149     65148     65151     65149     65148     65150
     65150     65148     65151     65152     65148     65151     65152     65148     65150
     65152     65148     65149     65154     65158     65159     65155     65154     65157
     65155     65154     65156     65156     65154     65157     65158     65154     65157
     65158     65154     65156     65158     65154     65155     65160     65164     65165
     65161     65160     65163     65161     65160     65162     65162     65160     65163
     65164     65160     65163     65164     65160     65162     65164     65160     65161
     65166     65170     65171     65167     65166     65169     65167     65166     65168
     65168     65166     65169     65170     65166     65169     65170     65166     65168
     65170     65166     65167     65172     65176     65177     65173     65172     65175
     65173     65172     65174     65174     65172     65175     65176     65172     65175
     65176     65172     65174     65176     65172     65173     65178     65182     65183
     65179     65178     65181     65179     65178     65180     65180     65178     65181
     65182     65178     65181     65182     65178     65180     65182     65178     65179
     65184     65188     65189     65185     65184     65187     65185     65184     65186
     65186     65184     65187     65188     65184     65187     65188     65184     65186
     65188     65184     65185     65190     65194     65195     65191     65190     65193
     65191     65190     65192     65192     65190     65193     65194     65190     65193
     65194     65190     65192     65194     65190     65191     65196     65200     65201
     65197     65196     65199     65197     65196     65198     65198     65196     65199
     65200     65196     65199     65200     65196     65198     65200     65196     65197
     65202     65206     65207     65203     65202     65205     65203     65202     65204
     65204     65202     65205     65206     65202     65205     65206     65202     65204
     65206     65202     65203     65208     65212     65213     65209     65208     65211
     65209     65208     65210     65210     65208     65211     65212     65208     65211
     65212     65208     65210     65212     65208     65209     65214     65218     65219
     65215     65214     65217     65215     65214     65216     65216     65214     65217
     65218     65214     65217     65218     65214     65216     65218     65214     65215
     65220     65224     65225     65221     65220     65223     65221     65220     65222
     65222     65220     65223     65224     65220     65223     65224     65220     65222
     65224     65220     65221     65226     65230     65231     65227     65226     65229
     65227     65226     65228     65228     65226     65229     65230     65226     65229
     65230     65226     65228     65230     65226     65227     65232     65236     65237
     65233     65232     65235     65233     65232     65234     65234     65232     65235
     65236     65232     65235     65236     65232     65234     65236     65232     65233
     65238     65242     65243     65239     65238     65241     65239     65238     65240
     65240     65238     65241     65242     65238     65241     65242     65238     65240
     65242     65238     65239     65244     65248     65249     65245     65244     65247
     65245     65244     65246     65246     65244     65247     65248     65244     65247
     65248     65244     65246     65248     65244     65245     65250     65254     65255
     65251     65250     65253     65251     65250     65252     65252     65250     65253
     65254     65250     65253     65254     65250     65252     65254     65250     65251
     65256     65260     65261     65257     65256     65259     65257     65256     65258
     65258     65256     65259     65260     65256     65259     65260     65256     65258
     65260     65256     65257     65262     65266     65267     65263     65262     65265
     65263     65262     65264     65264     65262     65265     65266     65262     65265
     65266     65262     65264     65266     65262     65263     65268     65272     65273
     65269     65268     65271     65269     65268     65270     65270     65268     65271
     65272     65268     65271     65272     65268     65270     65272     65268     65269
     65274     65278     65279     65275     65274     65277     65275     65274     65276
     65276     65274     65277     65278     65274     65277     65278     65274     65276
     65278     65274     65275     65280     65284     65285     65281     65280     65283
     65281     65280     65282     65282     65280     65283     65284     65280     65283
     65284     65280     65282     65284     65280     65281     65286     65290     65291
     65287     65286     65289     65287     65286     65288     65288     65286     65289
     65290     65286     65289     65290     65286     65288     65290     65286     65287
     65292     65296     65297     65293     65292     65295     65293     65292     65294
     65294     65292     65295     65296     65292     65295     65296     65292     65294
     65296     65292     65293     65298     65302     65303     65299     65298     65301
     65299     65298     65300     65300     65298     65301     65302     65298     65301
     65302     65298     65300     65302     65298     65299     65304     65308     65309
     65305     65304     65307     65305     65304     65306     65306     65304     65307
     65308     65304     65307     65308     65304     65306     65308     65304     65305
     65310     65314     65315     65311     65310     65313     65311     65310     65312
     65312     65310     65313     65314     65310     65313     65314     65310     65312
     65314     65310     65311     65316     65320     65321     65317     65316     65319
     65317     65316     65318     65318     65316     65319     65320     65316     65319
     65320     65316     65318     65320     65316     65317     65322     65326     65327
     65323     65322     65325     65323     65322     65324     65324     65322     65325
     65326     65322     65325     65326     65322     65324     65326     65322     65323
     65328     65332     65333     65329     65328     65331     65329     65328     65330
     65330     65328     65331     65332     65328     65331     65332     65328     65330
     65332     65328     65329     65334     65338     65339     65335     65334     65337
     65335     65334     65336     65336     65334     65337     65338     65334     65337
     65338     65334     65336     65338     65334     65335     65340     65344     65345
     65341     65340     65343     65341     65340     65342     65342     65340     65343
     65344     65340     65343     65344     65340     65342     65344     65340     65341
     65346     65350     65351     65347     65346     65349     65347     65346     65348
     65348     65346     65349     65350     65346     65349     65350     65346     65348
     65350     65346     65347     65352     65356     65357     65353     65352     65355
     65353     65352     65354     65354     65352     65355     65356     65352     65355
     65356     65352     65354     65356     65352     65353     65358     65362     65363
     65359     65358     65361     65359     65358     65360     65360     65358     65361
     65362     65358     65361     65362     65358     65360     65362     65358     65359
     65364     65368     65369     65365     65364     65367     65365     65364     65366
     65366     65364     65367     65368     65364     65367     65368     65364     65366
     65368     65364     65365     65370     65374     65375     65371     65370     65373
     65371     65370     65372     65372     65370     65373     65374     65370     65373
     65374     65370     65372     65374     65370     65371     65376     65380     65381
     65377     65376     65379     65377     65376     65378     65378     65376     65379
     65380     65376     65379     65380     65376     65378     65380     65376     65377
     65382     65386     65387     65383     65382     65385     65383     65382     65384
     65384     65382     65385     65386     65382     65385     65386     65382     65384
     65386     65382     65383     65388     65392     65393     65389     65388     65391
     65389     65388     65390     65390     65388     65391     65392     65388     65391
     65392     65388     65390     65392     65388     65389     65394     65398     65399
     65395     65394     65397     65395     65394     65396     65396     65394     65397
     65398     65394     65397     65398     65394     65396     65398     65394     65395
     65400     65404     65405     65401     65400     65403     65401     65400     65402
     65402     65400     65403     65404     65400     65403     65404     65400     65402
     65404     65400     65401     65406     65410     65411     65407     65406     65409
     65407     65406     65408     65408     65406     65409     65410     65406     65409
     65410     65406     65408     65410     65406     65407     65412     65416     65417
     65413     65412     65415     65413     65412     65414     65414     65412     65415
     65416     65412     65415     65416     65412     65414     65416     65412     65413
     65418     65422     65423     65419     65418     65421     65419     65418     65420
     65420     65418     65421     65422     65418     65421     65422     65418     65420
     65422     65418     65419     65424     65428     65429     65425     65424     65427
     65425     65424     65426     65426     65424     65427     65428     65424     65427
     65428     65424     65426     65428     65424     65425     65430     65434     65435
     65431     65430     65433     65431     65430     65432     65432     65430     65433
     65434     65430     65433     65434     65430     65432     65434     65430     65431
     65436     65440     65441     65437     65436     65439     65437     65436     65438
     65438     65436     65439     65440     65436     65439     65440     65436     65438
     65440     65436     65437     65442     65446     65447     65443     65442     65445
     65443     65442     65444     65444     65442     65445     65446     65442     65445
     65446     65442     65444     65446     65442     65443     65448     65452     65453
     65449     65448     65451     65449     65448     65450     65450     65448     65451
     65452     65448     65451     65452     65448     65450     65452     65448     65449
     65454     65458     65459     65455     65454     65457     65455     65454     65456
     65456     65454     65457     65458     65454     65457     65458     65454     65456
     65458     65454     65455     65460     65464     65465     65461     65460     65463
     65461     65460     65462     65462     65460     65463     65464     65460     65463
     65464     65460     65462     65464     65460     65461     65466     65470     65471
     65467     65466     65469     65467     65466     65468     65468     65466     65469
     65470     65466     65469     65470     65466     65468     65470     65466     65467
     65472     65476     65477     65473     65472     65475     65473     65472     65474
     65474     65472     65475     65476     65472     65475     65476     65472     65474
     65476     65472     65473     65478     65482     65483     65479     65478     65481
     65479     65478     65480     65480     65478     65481     65482     65478     65481
     65482     65478     65480     65482     65478     65479     65484     65488     65489
     65485     65484     65487     65485     65484     65486     65486     65484     65487
     65488     65484     65487     65488     65484     65486     65488     65484     65485
     65490     65494     65495     65491     65490     65493     65491     65490     65492
     65492     65490     65493     65494     65490     65493     65494     65490     65492
     65494     65490     65491     65496     65500     65501     65497     65496     65499
     65497     65496     65498     65498     65496     65499     65500     65496     65499
     65500     65496     65498     65500     65496     65497     65502     65506     65507
     65503     65502     65505     65503     65502     65504     65504     65502     65505
     65506     65502     65505     65506     65502     65504     65506     65502     65503
     65508     65512     65513     65509     65508     65511     65509     65508     65510
     65510     65508     65511     65512     65508     65511     65512     65508     65510
     65512     65508     65509     65514     65518     65519     65515     65514     65517
     65515     65514     65516     65516     65514     65517     65518     65514     65517
     65518     65514     65516     65518     65514     65515     65520     65524     65525
     65521     65520     65523     65521     65520     65522     65522     65520     65523
     65524     65520     65523     65524     65520     65522     65524     65520     65521
     65526     65530     65531     65527     65526     65529     65527     65526     65528
     65528     65526     65529     65530     65526     65529     65530     65526     65528
     65530     65526     65527     65532     65536     65537     65533     65532     65535
     65533     65532     65534     65534     65532     65535     65536     65532     65535
     65536     65532     65534     65536     65532     65533     65538     65542     65543
     65539     65538     65541     65539     65538     65540     65540     65538     65541
     65542     65538     65541     65542     65538     65540     65542     65538     65539
     65544     65548     65549     65545     65544     65547     65545     65544     65546
     65546     65544     65547     65548     65544     65547     65548     65544     65546
     65548     65544     65545     65550     65554     65555     65551     65550     65553
     65551     65550     65552     65552     65550     65553     65554     65550     65553
     65554     65550     65552     65554     65550     65551     65556     65560     65561
     65557     65556     65559     65557     65556     65558     65558     65556     65559
     65560     65556     65559     65560     65556     65558     65560     65556     65557
     65562     65566     65567     65563     65562     65565     65563     65562     65564
     65564     65562     65565     65566     65562     65565     65566     65562     65564
     65566     65562     65563     65568     65572     65573     65569     65568     65571
     65569     65568     65570     65570     65568     65571     65572     65568     65571
     65572     65568     65570     65572     65568     65569     65574     65578     65579
     65575     65574     65577     65575     65574     65576     65576     65574     65577
     65578     65574     65577     65578     65574     65576     65578     65574     65575
     65580     65584     65585     65581     65580     65583     65581     65580     65582
     65582     65580     65583     65584     65580     65583     65584     65580     65582
     65584     65580     65581     65586     65590     65591     65587     65586     65589
     65587     65586     65588     65588     65586     65589     65590     65586     65589
     65590     65586     65588     65590     65586     65587     65592     65596     65597
     65593     65592     65595     65593     65592     65594     65594     65592     65595
     65596     65592     65595     65596     65592     65594     65596     65592     65593
     65598     65602     65603     65599     65598     65601     65599     65598     65600
     65600     65598     65601     65602     65598     65601     65602     65598     65600
     65602     65598     65599     65604     65608     65609     65605     65604     65607
     65605     65604     65606     65606     65604     65607     65608     65604     65607
     65608     65604     65606     65608     65604     65605     65610     65614     65615
     65611     65610     65613     65611     65610     65612     65612     65610     65613
     65614     65610     65613     65614     65610     65612     65614     65610     65611
     65616     65620     65621     65617     65616     65619     65617     65616     65618
     65618     65616     65619     65620     65616     65619     65620     65616     65618
     65620     65616     65617     65622     65626     65627     65623     65622     65625
     65623     65622     65624     65624     65622     65625     65626     65622     65625
     65626     65622     65624     65626     65622     65623     65628     65632     65633
     65629     65628     65631     65629     65628     65630     65630     65628     65631
     65632     65628     65631     65632     65628     65630     65632     65628     65629
     65634     65638     65639     65635     65634     65637     65635     65634     65636
     65636     65634     65637     65638     65634     65637     65638     65634     65636
     65638     65634     65635     65640     65644     65645     65641     65640     65643
     65641     65640     65642     65642     65640     65643     65644     65640     65643
     65644     65640     65642     65644     65640     65641     65646     65650     65651
     65647     65646     65649     65647     65646     65648     65648     65646     65649
     65650     65646     65649     65650     65646     65648     65650     65646     65647
     65652     65656     65657     65653     65652     65655     65653     65652     65654
     65654     65652     65655     65656     65652     65655     65656     65652     65654
     65656     65652     65653     65658     65662     65663     65659     65658     65661
     65659     65658     65660     65660     65658     65661     65662     65658     65661
     65662     65658     65660     65662     65658     65659     65664     65668     65669
     65665     65664     65667     65665     65664     65666     65666     65664     65667
     65668     65664     65667     65668     65664     65666     65668     65664     65665
     65670     65674     65675     65671     65670     65673     65671     65670     65672
     65672     65670     65673     65674     65670     65673     65674     65670     65672
     65674     65670     65671     65676     65680     65681     65677     65676     65679
     65677     65676     65678     65678     65676     65679     65680     65676     65679
     65680     65676     65678     65680     65676     65677     65682     65686     65687
     65683     65682     65685     65683     65682     65684     65684     65682     65685
     65686     65682     65685     65686     65682     65684     65686     65682     65683
     65688     65692     65693     65689     65688     65691     65689     65688     65690
     65690     65688     65691     65692     65688     65691     65692     65688     65690
     65692     65688     65689     65694     65698     65699     65695     65694     65697
     65695     65694     65696     65696     65694     65697     65698     65694     65697
     65698     65694     65696     65698     65694     65695     65700     65704     65705
     65701     65700     65703     65701     65700     65702     65702     65700     65703
     65704     65700     65703     65704     65700     65702     65704     65700     65701
     65706     65710     65711     65707     65706     65709     65707     65706     65708
     65708     65706     65709     65710     65706     65709     65710     65706     65708
     65710     65706     65707     65712     65716     65717     65713     65712     65715
     65713     65712     65714     65714     65712     65715     65716     65712     65715
     65716     65712     65714     65716     65712     65713     65718     65722     65723
     65719     65718     65721     65719     65718     65720     65720     65718     65721
     65722     65718     65721     65722     65718     65720     65722     65718     65719
     65724     65728     65729     65725     65724     65727     65725     65724     65726
     65726     65724     65727     65728     65724     65727     65728     65724     65726
     65728     65724     65725     65730     65734     65735     65731     65730     65733
     65731     65730     65732     65732     65730     65733     65734     65730     65733
     65734     65730     65732     65734     65730     65731     65736     65740     65741
     65737     65736     65739     65737     65736     65738     65738     65736     65739
     65740     65736     65739     65740     65736     65738     65740     65736     65737
     65742     65746     65747     65743     65742     65745     65743     65742     65744
     65744     65742     65745     65746     65742     65745     65746     65742     65744
     65746     65742     65743     65748     65752     65753     65749     65748     65751
     65749     65748     65750     65750     65748     65751     65752     65748     65751
     65752     65748     65750     65752     65748     65749     65754     65758     65759
     65755     65754     65757     65755     65754     65756     65756     65754     65757
     65758     65754     65757     65758     65754     65756     65758     65754     65755
     65760     65764     65765     65761     65760     65763     65761     65760     65762
     65762     65760     65763     65764     65760     65763     65764     65760     65762
     65764     65760     65761     65766     65770     65771     65767     65766     65769
     65767     65766     65768     65768     65766     65769     65770     65766     65769
     65770     65766     65768     65770     65766     65767     65772     65776     65777
     65773     65772     65775     65773     65772     65774     65774     65772     65775
     65776     65772     65775     65776     65772     65774     65776     65772     65773
     65778     65782     65783     65779     65778     65781     65779     65778     65780
     65780     65778     65781     65782     65778     65781     65782     65778     65780
     65782     65778     65779     65784     65788     65789     65785     65784     65787
     65785     65784     65786     65786     65784     65787     65788     65784     65787
     65788     65784     65786     65788     65784     65785     65790     65794     65795
     65791     65790     65793     65791     65790     65792     65792     65790     65793
     65794     65790     65793     65794     65790     65792     65794     65790     65791
     65796     65800     65801     65797     65796     65799     65797     65796     65798
     65798     65796     65799     65800     65796     65799     65800     65796     65798
     65800     65796     65797     65802     65806     65807     65803     65802     65805
     65803     65802     65804     65804     65802     65805     65806     65802     65805
     65806     65802     65804     65806     65802     65803     65808     65812     65813
     65809     65808     65811     65809     65808     65810     65810     65808     65811
     65812     65808     65811     65812     65808     65810     65812     65808     65809
     65814     65818     65819     65815     65814     65817     65815     65814     65816
     65816     65814     65817     65818     65814     65817     65818     65814     65816
     65818     65814     65815     65820     65824     65825     65821     65820     65823
     65821     65820     65822     65822     65820     65823     65824     65820     65823
     65824     65820     65822     65824     65820     65821     65826     65830     65831
     65827     65826     65829     65827     65826     65828     65828     65826     65829
     65830     65826     65829     65830     65826     65828     65830     65826     65827
     65832     65836     65837     65833     65832     65835     65833     65832     65834
     65834     65832     65835     65836     65832     65835     65836     65832     65834
     65836     65832     65833     65838     65842     65843     65839     65838     65841
     65839     65838     65840     65840     65838     65841     65842     65838     65841
     65842     65838     65840     65842     65838     65839     65844     65848     65849
     65845     65844     65847     65845     65844     65846     65846     65844     65847
     65848     65844     65847     65848     65844     65846     65848     65844     65845
     65850     65854     65855     65851     65850     65853     65851     65850     65852
     65852     65850     65853     65854     65850     65853     65854     65850     65852
     65854     65850     65851     65856     65860     65861     65857     65856     65859
     65857     65856     65858     65858     65856     65859     65860     65856     65859
     65860     65856     65858     65860     65856     65857     65862     65866     65867
     65863     65862     65865     65863     65862     65864     65864     65862     65865
     65866     65862     65865     65866     65862     65864     65866     65862     65863
     65868     65872     65873     65869     65868     65871     65869     65868     65870
     65870     65868     65871     65872     65868     65871     65872     65868     65870
     65872     65868     65869     65874     65878     65879     65875     65874     65877
     65875     65874     65876     65876     65874     65877     65878     65874     65877
     65878     65874     65876     65878     65874     65875     65880     65884     65885
     65881     65880     65883     65881     65880     65882     65882     65880     65883
     65884     65880     65883     65884     65880     65882     65884     65880     65881
     65886     65890     65891     65887     65886     65889     65887     65886     65888
     65888     65886     65889     65890     65886     65889     65890     65886     65888
     65890     65886     65887     65892     65896     65897     65893     65892     65895
     65893     65892     65894     65894     65892     65895     65896     65892     65895
     65896     65892     65894     65896     65892     65893     65898     65902     65903
     65899     65898     65901     65899     65898     65900     65900     65898     65901
     65902     65898     65901     65902     65898     65900     65902     65898     65899
     65904     65908     65909     65905     65904     65907     65905     65904     65906
     65906     65904     65907     65908     65904     65907     65908     65904     65906
     65908     65904     65905     65910     65914     65915     65911     65910     65913
     65911     65910     65912     65912     65910     65913     65914     65910     65913
     65914     65910     65912     65914     65910     65911     65916     65920     65921
     65917     65916     65919     65917     65916     65918     65918     65916     65919
     65920     65916     65919     65920     65916     65918     65920     65916     65917
     65922     65926     65927     65923     65922     65925     65923     65922     65924
     65924     65922     65925     65926     65922     65925     65926     65922     65924
     65926     65922     65923     65928     65932     65933     65929     65928     65931
     65929     65928     65930     65930     65928     65931     65932     65928     65931
     65932     65928     65930     65932     65928     65929     65934     65938     65939
     65935     65934     65937     65935     65934     65936     65936     65934     65937
     65938     65934     65937     65938     65934     65936     65938     65934     65935
     65940     65944     65945     65941     65940     65943     65941     65940     65942
     65942     65940     65943     65944     65940     65943     65944     65940     65942
     65944     65940     65941     65946     65950     65951     65947     65946     65949
     65947     65946     65948     65948     65946     65949     65950     65946     65949
     65950     65946     65948     65950     65946     65947     65952     65956     65957
     65953     65952     65955     65953     65952     65954     65954     65952     65955
     65956     65952     65955     65956     65952     65954     65956     65952     65953
     65958     65962     65963     65959     65958     65961     65959     65958     65960
     65960     65958     65961     65962     65958     65961     65962     65958     65960
     65962     65958     65959     65964     65968     65969     65965     65964     65967
     65965     65964     65966     65966     65964     65967     65968     65964     65967
     65968     65964     65966     65968     65964     65965     65970     65974     65975
     65971     65970     65973     65971     65970     65972     65972     65970     65973
     65974     65970     65973     65974     65970     65972     65974     65970     65971
     65976     65980     65981     65977     65976     65979     65977     65976     65978
     65978     65976     65979     65980     65976     65979     65980     65976     65978
     65980     65976     65977     65982     65986     65987     65983     65982     65985
     65983     65982     65984     65984     65982     65985     65986     65982     65985
     65986     65982     65984     65986     65982     65983     65988     65992     65993
     65989     65988     65991     65989     65988     65990     65990     65988     65991
     65992     65988     65991     65992     65988     65990     65992     65988     65989
     65994     65998     65999     65995     65994     65997     65995     65994     65996
     65996     65994     65997     65998     65994     65997     65998     65994     65996
     65998     65994     65995     66000     66004     66005     66001     66000     66003
     66001     66000     66002     66002     66000     66003     66004     66000     66003
     66004     66000     66002     66004     66000     66001     66006     66010     66011
     66007     66006     66009     66007     66006     66008     66008     66006     66009
     66010     66006     66009     66010     66006     66008     66010     66006     66007
     66012     66016     66017     66013     66012     66015     66013     66012     66014
     66014     66012     66015     66016     66012     66015     66016     66012     66014
     66016     66012     66013     66018     66022     66023     66019     66018     66021
     66019     66018     66020     66020     66018     66021     66022     66018     66021
     66022     66018     66020     66022     66018     66019     66024     66028     66029
     66025     66024     66027     66025     66024     66026     66026     66024     66027
     66028     66024     66027     66028     66024     66026     66028     66024     66025
     66030     66034     66035     66031     66030     66033     66031     66030     66032
     66032     66030     66033     66034     66030     66033     66034     66030     66032
     66034     66030     66031     66036     66040     66041     66037     66036     66039
     66037     66036     66038     66038     66036     66039     66040     66036     66039
     66040     66036     66038     66040     66036     66037     66042     66046     66047
     66043     66042     66045     66043     66042     66044     66044     66042     66045
     66046     66042     66045     66046     66042     66044     66046     66042     66043
     66048     66052     66053     66049     66048     66051     66049     66048     66050
     66050     66048     66051     66052     66048     66051     66052     66048     66050
     66052     66048     66049     66054     66058     66059     66055     66054     66057
     66055     66054     66056     66056     66054     66057     66058     66054     66057
     66058     66054     66056     66058     66054     66055     66060     66064     66065
     66061     66060     66063     66061     66060     66062     66062     66060     66063
     66064     66060     66063     66064     66060     66062     66064     66060     66061
     66066     66070     66071     66067     66066     66069     66067     66066     66068
     66068     66066     66069     66070     66066     66069     66070     66066     66068
     66070     66066     66067     66072     66076     66077     66073     66072     66075
     66073     66072     66074     66074     66072     66075     66076     66072     66075
     66076     66072     66074     66076     66072     66073     66078     66082     66083
     66079     66078     66081     66079     66078     66080     66080     66078     66081
     66082     66078     66081     66082     66078     66080     66082     66078     66079
     66084     66088     66089     66085     66084     66087     66085     66084     66086
     66086     66084     66087     66088     66084     66087     66088     66084     66086
     66088     66084     66085     66090     66094     66095     66091     66090     66093
     66091     66090     66092     66092     66090     66093     66094     66090     66093
     66094     66090     66092     66094     66090     66091     66096     66100     66101
     66097     66096     66099     66097     66096     66098     66098     66096     66099
     66100     66096     66099     66100     66096     66098     66100     66096     66097
     66102     66106     66107     66103     66102     66105     66103     66102     66104
     66104     66102     66105     66106     66102     66105     66106     66102     66104
     66106     66102     66103     66108     66112     66113     66109     66108     66111
     66109     66108     66110     66110     66108     66111     66112     66108     66111
     66112     66108     66110     66112     66108     66109     66114     66118     66119
     66115     66114     66117     66115     66114     66116     66116     66114     66117
     66118     66114     66117     66118     66114     66116     66118     66114     66115
     66120     66124     66125     66121     66120     66123     66121     66120     66122
     66122     66120     66123     66124     66120     66123     66124     66120     66122
     66124     66120     66121     66126     66130     66131     66127     66126     66129
     66127     66126     66128     66128     66126     66129     66130     66126     66129
     66130     66126     66128     66130     66126     66127     66132     66136     66137
     66133     66132     66135     66133     66132     66134     66134     66132     66135
     66136     66132     66135     66136     66132     66134     66136     66132     66133
     66138     66142     66143     66139     66138     66141     66139     66138     66140
     66140     66138     66141     66142     66138     66141     66142     66138     66140
     66142     66138     66139     66144     66148     66149     66145     66144     66147
     66145     66144     66146     66146     66144     66147     66148     66144     66147
     66148     66144     66146     66148     66144     66145     66150     66154     66155
     66151     66150     66153     66151     66150     66152     66152     66150     66153
     66154     66150     66153     66154     66150     66152     66154     66150     66151
     66156     66160     66161     66157     66156     66159     66157     66156     66158
     66158     66156     66159     66160     66156     66159     66160     66156     66158
     66160     66156     66157     66162     66166     66167     66163     66162     66165
     66163     66162     66164     66164     66162     66165     66166     66162     66165
     66166     66162     66164     66166     66162     66163     66168     66172     66173
     66169     66168     66171     66169     66168     66170     66170     66168     66171
     66172     66168     66171     66172     66168     66170     66172     66168     66169
     66174     66178     66179     66175     66174     66177     66175     66174     66176
     66176     66174     66177     66178     66174     66177     66178     66174     66176
     66178     66174     66175     66180     66184     66185     66181     66180     66183
     66181     66180     66182     66182     66180     66183     66184     66180     66183
     66184     66180     66182     66184     66180     66181     66186     66190     66191
     66187     66186     66189     66187     66186     66188     66188     66186     66189
     66190     66186     66189     66190     66186     66188     66190     66186     66187
     66192     66196     66197     66193     66192     66195     66193     66192     66194
     66194     66192     66195     66196     66192     66195     66196     66192     66194
     66196     66192     66193     66198     66202     66203     66199     66198     66201
     66199     66198     66200     66200     66198     66201     66202     66198     66201
     66202     66198     66200     66202     66198     66199     66204     66208     66209
     66205     66204     66207     66205     66204     66206     66206     66204     66207
     66208     66204     66207     66208     66204     66206     66208     66204     66205
     66210     66214     66215     66211     66210     66213     66211     66210     66212
     66212     66210     66213     66214     66210     66213     66214     66210     66212
     66214     66210     66211     66216     66220     66221     66217     66216     66219
     66217     66216     66218     66218     66216     66219     66220     66216     66219
     66220     66216     66218     66220     66216     66217     66222     66226     66227
     66223     66222     66225     66223     66222     66224     66224     66222     66225
     66226     66222     66225     66226     66222     66224     66226     66222     66223
     66228     66232     66233     66229     66228     66231     66229     66228     66230
     66230     66228     66231     66232     66228     66231     66232     66228     66230
     66232     66228     66229     66234     66238     66239     66235     66234     66237
     66235     66234     66236     66236     66234     66237     66238     66234     66237
     66238     66234     66236     66238     66234     66235     66240     66244     66245
     66241     66240     66243     66241     66240     66242     66242     66240     66243
     66244     66240     66243     66244     66240     66242     66244     66240     66241
     66246     66250     66251     66247     66246     66249     66247     66246     66248
     66248     66246     66249     66250     66246     66249     66250     66246     66248
     66250     66246     66247     66252     66256     66257     66253     66252     66255
     66253     66252     66254     66254     66252     66255     66256     66252     66255
     66256     66252     66254     66256     66252     66253     66258     66262     66263
     66259     66258     66261     66259     66258     66260     66260     66258     66261
     66262     66258     66261     66262     66258     66260     66262     66258     66259
     66264     66268     66269     66265     66264     66267     66265     66264     66266
     66266     66264     66267     66268     66264     66267     66268     66264     66266
     66268     66264     66265     66270     66274     66275     66271     66270     66273
     66271     66270     66272     66272     66270     66273     66274     66270     66273
     66274     66270     66272     66274     66270     66271     66276     66280     66281
     66277     66276     66279     66277     66276     66278     66278     66276     66279
     66280     66276     66279     66280     66276     66278     66280     66276     66277
     66282     66286     66287     66283     66282     66285     66283     66282     66284
     66284     66282     66285     66286     66282     66285     66286     66282     66284
     66286     66282     66283     66288     66292     66293     66289     66288     66291
     66289     66288     66290     66290     66288     66291     66292     66288     66291
     66292     66288     66290     66292     66288     66289     66294     66298     66299
     66295     66294     66297     66295     66294     66296     66296     66294     66297
     66298     66294     66297     66298     66294     66296     66298     66294     66295
     66300     66304     66305     66301     66300     66303     66301     66300     66302
     66302     66300     66303     66304     66300     66303     66304     66300     66302
     66304     66300     66301     66306     66310     66311     66307     66306     66309
     66307     66306     66308     66308     66306     66309     66310     66306     66309
     66310     66306     66308     66310     66306     66307     66312     66316     66317
     66313     66312     66315     66313     66312     66314     66314     66312     66315
     66316     66312     66315     66316     66312     66314     66316     66312     66313
     66318     66322     66323     66319     66318     66321     66319     66318     66320
     66320     66318     66321     66322     66318     66321     66322     66318     66320
     66322     66318     66319     66324     66328     66329     66325     66324     66327
     66325     66324     66326     66326     66324     66327     66328     66324     66327
     66328     66324     66326     66328     66324     66325     66330     66334     66335
     66331     66330     66333     66331     66330     66332     66332     66330     66333
     66334     66330     66333     66334     66330     66332     66334     66330     66331
     66336     66340     66341     66337     66336     66339     66337     66336     66338
     66338     66336     66339     66340     66336     66339     66340     66336     66338
     66340     66336     66337     66342     66346     66347     66343     66342     66345
     66343     66342     66344     66344     66342     66345     66346     66342     66345
     66346     66342     66344     66346     66342     66343     66348     66352     66353
     66349     66348     66351     66349     66348     66350     66350     66348     66351
     66352     66348     66351     66352     66348     66350     66352     66348     66349
     66354     66358     66359     66355     66354     66357     66355     66354     66356
     66356     66354     66357     66358     66354     66357     66358     66354     66356
     66358     66354     66355     66360     66364     66365     66361     66360     66363
     66361     66360     66362     66362     66360     66363     66364     66360     66363
     66364     66360     66362     66364     66360     66361     66366     66370     66371
     66367     66366     66369     66367     66366     66368     66368     66366     66369
     66370     66366     66369     66370     66366     66368     66370     66366     66367
     66372     66376     66377     66373     66372     66375     66373     66372     66374
     66374     66372     66375     66376     66372     66375     66376     66372     66374
     66376     66372     66373     66378     66382     66383     66379     66378     66381
     66379     66378     66380     66380     66378     66381     66382     66378     66381
     66382     66378     66380     66382     66378     66379     66384     66388     66389
     66385     66384     66387     66385     66384     66386     66386     66384     66387
     66388     66384     66387     66388     66384     66386     66388     66384     66385
     66390     66394     66395     66391     66390     66393     66391     66390     66392
     66392     66390     66393     66394     66390     66393     66394     66390     66392
     66394     66390     66391     66396     66400     66401     66397     66396     66399
     66397     66396     66398     66398     66396     66399     66400     66396     66399
     66400     66396     66398     66400     66396     66397     66402     66406     66407
     66403     66402     66405     66403     66402     66404     66404     66402     66405
     66406     66402     66405     66406     66402     66404     66406     66402     66403
     66408     66412     66413     66409     66408     66411     66409     66408     66410
     66410     66408     66411     66412     66408     66411     66412     66408     66410
     66412     66408     66409     66414     66418     66419     66415     66414     66417
     66415     66414     66416     66416     66414     66417     66418     66414     66417
     66418     66414     66416     66418     66414     66415     66420     66424     66425
     66421     66420     66423     66421     66420     66422     66422     66420     66423
     66424     66420     66423     66424     66420     66422     66424     66420     66421
     66426     66430     66431     66427     66426     66429     66427     66426     66428
     66428     66426     66429     66430     66426     66429     66430     66426     66428
     66430     66426     66427     66432     66436     66437     66433     66432     66435
     66433     66432     66434     66434     66432     66435     66436     66432     66435
     66436     66432     66434     66436     66432     66433     66438     66442     66443
     66439     66438     66441     66439     66438     66440     66440     66438     66441
     66442     66438     66441     66442     66438     66440     66442     66438     66439
     66444     66448     66449     66445     66444     66447     66445     66444     66446
     66446     66444     66447     66448     66444     66447     66448     66444     66446
     66448     66444     66445     66450     66454     66455     66451     66450     66453
     66451     66450     66452     66452     66450     66453     66454     66450     66453
     66454     66450     66452     66454     66450     66451     66456     66460     66461
     66457     66456     66459     66457     66456     66458     66458     66456     66459
     66460     66456     66459     66460     66456     66458     66460     66456     66457
     66462     66466     66467     66463     66462     66465     66463     66462     66464
     66464     66462     66465     66466     66462     66465     66466     66462     66464
     66466     66462     66463     66468     66472     66473     66469     66468     66471
     66469     66468     66470     66470     66468     66471     66472     66468     66471
     66472     66468     66470     66472     66468     66469     66474     66478     66479
     66475     66474     66477     66475     66474     66476     66476     66474     66477
     66478     66474     66477     66478     66474     66476     66478     66474     66475
     66480     66484     66485     66481     66480     66483     66481     66480     66482
     66482     66480     66483     66484     66480     66483     66484     66480     66482
     66484     66480     66481     66486     66490     66491     66487     66486     66489
     66487     66486     66488     66488     66486     66489     66490     66486     66489
     66490     66486     66488     66490     66486     66487     66492     66496     66497
     66493     66492     66495     66493     66492     66494     66494     66492     66495
     66496     66492     66495     66496     66492     66494     66496     66492     66493
     66498     66502     66503     66499     66498     66501     66499     66498     66500
     66500     66498     66501     66502     66498     66501     66502     66498     66500
     66502     66498     66499     66504     66508     66509     66505     66504     66507
     66505     66504     66506     66506     66504     66507     66508     66504     66507
     66508     66504     66506     66508     66504     66505     66510     66514     66515
     66511     66510     66513     66511     66510     66512     66512     66510     66513
     66514     66510     66513     66514     66510     66512     66514     66510     66511
     66516     66520     66521     66517     66516     66519     66517     66516     66518
     66518     66516     66519     66520     66516     66519     66520     66516     66518
     66520     66516     66517     66522     66526     66527     66523     66522     66525
     66523     66522     66524     66524     66522     66525     66526     66522     66525
     66526     66522     66524     66526     66522     66523     66528     66532     66533
     66529     66528     66531     66529     66528     66530     66530     66528     66531
     66532     66528     66531     66532     66528     66530     66532     66528     66529
     66534     66538     66539     66535     66534     66537     66535     66534     66536
     66536     66534     66537     66538     66534     66537     66538     66534     66536
     66538     66534     66535     66540     66544     66545     66541     66540     66543
     66541     66540     66542     66542     66540     66543     66544     66540     66543
     66544     66540     66542     66544     66540     66541     66546     66550     66551
     66547     66546     66549     66547     66546     66548     66548     66546     66549
     66550     66546     66549     66550     66546     66548     66550     66546     66547
     66552     66556     66557     66553     66552     66555     66553     66552     66554
     66554     66552     66555     66556     66552     66555     66556     66552     66554
     66556     66552     66553     66558     66562     66563     66559     66558     66561
     66559     66558     66560     66560     66558     66561     66562     66558     66561
     66562     66558     66560     66562     66558     66559     66564     66568     66569
     66565     66564     66567     66565     66564     66566     66566     66564     66567
     66568     66564     66567     66568     66564     66566     66568     66564     66565
     66570     66574     66575     66571     66570     66573     66571     66570     66572
     66572     66570     66573     66574     66570     66573     66574     66570     66572
     66574     66570     66571     66576     66580     66581     66577     66576     66579
     66577     66576     66578     66578     66576     66579     66580     66576     66579
     66580     66576     66578     66580     66576     66577     66582     66586     66587
     66583     66582     66585     66583     66582     66584     66584     66582     66585
     66586     66582     66585     66586     66582     66584     66586     66582     66583
     66588     66592     66593     66589     66588     66591     66589     66588     66590
     66590     66588     66591     66592     66588     66591     66592     66588     66590
     66592     66588     66589     66594     66598     66599     66595     66594     66597
     66595     66594     66596     66596     66594     66597     66598     66594     66597
     66598     66594     66596     66598     66594     66595     66600     66604     66605
     66601     66600     66603     66601     66600     66602     66602     66600     66603
     66604     66600     66603     66604     66600     66602     66604     66600     66601
     66606     66610     66611     66607     66606     66609     66607     66606     66608
     66608     66606     66609     66610     66606     66609     66610     66606     66608
     66610     66606     66607     66612     66616     66617     66613     66612     66615
     66613     66612     66614     66614     66612     66615     66616     66612     66615
     66616     66612     66614     66616     66612     66613     66618     66622     66623
     66619     66618     66621     66619     66618     66620     66620     66618     66621
     66622     66618     66621     66622     66618     66620     66622     66618     66619
     66624     66628     66629     66625     66624     66627     66625     66624     66626
     66626     66624     66627     66628     66624     66627     66628     66624     66626
     66628     66624     66625     66630     66634     66635     66631     66630     66633
     66631     66630     66632     66632     66630     66633     66634     66630     66633
     66634     66630     66632     66634     66630     66631     66636     66640     66641
     66637     66636     66639     66637     66636     66638     66638     66636     66639
     66640     66636     66639     66640     66636     66638     66640     66636     66637
     66642     66646     66647     66643     66642     66645     66643     66642     66644
     66644     66642     66645     66646     66642     66645     66646     66642     66644
     66646     66642     66643     66648     66652     66653     66649     66648     66651
     66649     66648     66650     66650     66648     66651     66652     66648     66651
     66652     66648     66650     66652     66648     66649     66654     66658     66659
     66655     66654     66657     66655     66654     66656     66656     66654     66657
     66658     66654     66657     66658     66654     66656     66658     66654     66655
     66660     66664     66665     66661     66660     66663     66661     66660     66662
     66662     66660     66663     66664     66660     66663     66664     66660     66662
     66664     66660     66661     66666     66670     66671     66667     66666     66669
     66667     66666     66668     66668     66666     66669     66670     66666     66669
     66670     66666     66668     66670     66666     66667     66672     66676     66677
     66673     66672     66675     66673     66672     66674     66674     66672     66675
     66676     66672     66675     66676     66672     66674     66676     66672     66673
     66678     66682     66683     66679     66678     66681     66679     66678     66680
     66680     66678     66681     66682     66678     66681     66682     66678     66680
     66682     66678     66679     66684     66688     66689     66685     66684     66687
     66685     66684     66686     66686     66684     66687     66688     66684     66687
     66688     66684     66686     66688     66684     66685     66690     66694     66695
     66691     66690     66693     66691     66690     66692     66692     66690     66693
     66694     66690     66693     66694     66690     66692     66694     66690     66691
     66696     66700     66701     66697     66696     66699     66697     66696     66698
     66698     66696     66699     66700     66696     66699     66700     66696     66698
     66700     66696     66697     66702     66706     66707     66703     66702     66705
     66703     66702     66704     66704     66702     66705     66706     66702     66705
     66706     66702     66704     66706     66702     66703     66708     66712     66713
     66709     66708     66711     66709     66708     66710     66710     66708     66711
     66712     66708     66711     66712     66708     66710     66712     66708     66709
     66714     66718     66719     66715     66714     66717     66715     66714     66716
     66716     66714     66717     66718     66714     66717     66718     66714     66716
     66718     66714     66715     66720     66724     66725     66721     66720     66723
     66721     66720     66722     66722     66720     66723     66724     66720     66723
     66724     66720     66722     66724     66720     66721     66726     66730     66731
     66727     66726     66729     66727     66726     66728     66728     66726     66729
     66730     66726     66729     66730     66726     66728     66730     66726     66727
     66732     66736     66737     66733     66732     66735     66733     66732     66734
     66734     66732     66735     66736     66732     66735     66736     66732     66734
     66736     66732     66733     66738     66742     66743     66739     66738     66741
     66739     66738     66740     66740     66738     66741     66742     66738     66741
     66742     66738     66740     66742     66738     66739     66744     66748     66749
     66745     66744     66747     66745     66744     66746     66746     66744     66747
     66748     66744     66747     66748     66744     66746     66748     66744     66745
     66750     66754     66755     66751     66750     66753     66751     66750     66752
     66752     66750     66753     66754     66750     66753     66754     66750     66752
     66754     66750     66751     66756     66760     66761     66757     66756     66759
     66757     66756     66758     66758     66756     66759     66760     66756     66759
     66760     66756     66758     66760     66756     66757     66762     66766     66767
     66763     66762     66765     66763     66762     66764     66764     66762     66765
     66766     66762     66765     66766     66762     66764     66766     66762     66763
     66768     66772     66773     66769     66768     66771     66769     66768     66770
     66770     66768     66771     66772     66768     66771     66772     66768     66770
     66772     66768     66769     66774     66778     66779     66775     66774     66777
     66775     66774     66776     66776     66774     66777     66778     66774     66777
     66778     66774     66776     66778     66774     66775     66780     66784     66785
     66781     66780     66783     66781     66780     66782     66782     66780     66783
     66784     66780     66783     66784     66780     66782     66784     66780     66781
     66786     66790     66791     66787     66786     66789     66787     66786     66788
     66788     66786     66789     66790     66786     66789     66790     66786     66788
     66790     66786     66787     66792     66796     66797     66793     66792     66795
     66793     66792     66794     66794     66792     66795     66796     66792     66795
     66796     66792     66794     66796     66792     66793     66798     66802     66803
     66799     66798     66801     66799     66798     66800     66800     66798     66801
     66802     66798     66801     66802     66798     66800     66802     66798     66799
     66804     66808     66809     66805     66804     66807     66805     66804     66806
     66806     66804     66807     66808     66804     66807     66808     66804     66806
     66808     66804     66805     66810     66814     66815     66811     66810     66813
     66811     66810     66812     66812     66810     66813     66814     66810     66813
     66814     66810     66812     66814     66810     66811     66816     66820     66821
     66817     66816     66819     66817     66816     66818     66818     66816     66819
     66820     66816     66819     66820     66816     66818     66820     66816     66817
     66822     66826     66827     66823     66822     66825     66823     66822     66824
     66824     66822     66825     66826     66822     66825     66826     66822     66824
     66826     66822     66823     66828     66832     66833     66829     66828     66831
     66829     66828     66830     66830     66828     66831     66832     66828     66831
     66832     66828     66830     66832     66828     66829     66834     66838     66839
     66835     66834     66837     66835     66834     66836     66836     66834     66837
     66838     66834     66837     66838     66834     66836     66838     66834     66835
     66840     66844     66845     66841     66840     66843     66841     66840     66842
     66842     66840     66843     66844     66840     66843     66844     66840     66842
     66844     66840     66841     66846     66850     66851     66847     66846     66849
     66847     66846     66848     66848     66846     66849     66850     66846     66849
     66850     66846     66848     66850     66846     66847     66852     66856     66857
     66853     66852     66855     66853     66852     66854     66854     66852     66855
     66856     66852     66855     66856     66852     66854     66856     66852     66853
     66858     66862     66863     66859     66858     66861     66859     66858     66860
     66860     66858     66861     66862     66858     66861     66862     66858     66860
     66862     66858     66859     66864     66868     66869     66865     66864     66867
     66865     66864     66866     66866     66864     66867     66868     66864     66867
     66868     66864     66866     66868     66864     66865     66870     66874     66875
     66871     66870     66873     66871     66870     66872     66872     66870     66873
     66874     66870     66873     66874     66870     66872     66874     66870     66871
     66876     66880     66881     66877     66876     66879     66877     66876     66878
     66878     66876     66879     66880     66876     66879     66880     66876     66878
     66880     66876     66877     66882     66886     66887     66883     66882     66885
     66883     66882     66884     66884     66882     66885     66886     66882     66885
     66886     66882     66884     66886     66882     66883     66888     66892     66893
     66889     66888     66891     66889     66888     66890     66890     66888     66891
     66892     66888     66891     66892     66888     66890     66892     66888     66889
     66894     66898     66899     66895     66894     66897     66895     66894     66896
     66896     66894     66897     66898     66894     66897     66898     66894     66896
     66898     66894     66895     66900     66904     66905     66901     66900     66903
     66901     66900     66902     66902     66900     66903     66904     66900     66903
     66904     66900     66902     66904     66900     66901     66906     66910     66911
     66907     66906     66909     66907     66906     66908     66908     66906     66909
     66910     66906     66909     66910     66906     66908     66910     66906     66907
     66912     66916     66917     66913     66912     66915     66913     66912     66914
     66914     66912     66915     66916     66912     66915     66916     66912     66914
     66916     66912     66913     66918     66922     66923     66919     66918     66921
     66919     66918     66920     66920     66918     66921     66922     66918     66921
     66922     66918     66920     66922     66918     66919     66924     66928     66929
     66925     66924     66927     66925     66924     66926     66926     66924     66927
     66928     66924     66927     66928     66924     66926     66928     66924     66925
     66930     66934     66935     66931     66930     66933     66931     66930     66932
     66932     66930     66933     66934     66930     66933     66934     66930     66932
     66934     66930     66931     66936     66940     66941     66937     66936     66939
     66937     66936     66938     66938     66936     66939     66940     66936     66939
     66940     66936     66938     66940     66936     66937     66942     66946     66947
     66943     66942     66945     66943     66942     66944     66944     66942     66945
     66946     66942     66945     66946     66942     66944     66946     66942     66943
     66948     66952     66953     66949     66948     66951     66949     66948     66950
     66950     66948     66951     66952     66948     66951     66952     66948     66950
     66952     66948     66949     66954     66958     66959     66955     66954     66957
     66955     66954     66956     66956     66954     66957     66958     66954     66957
     66958     66954     66956     66958     66954     66955     66960     66964     66965
     66961     66960     66963     66961     66960     66962     66962     66960     66963
     66964     66960     66963     66964     66960     66962     66964     66960     66961
     66966     66970     66971     66967     66966     66969     66967     66966     66968
     66968     66966     66969     66970     66966     66969     66970     66966     66968
     66970     66966     66967     66972     66976     66977     66973     66972     66975
     66973     66972     66974     66974     66972     66975     66976     66972     66975
     66976     66972     66974     66976     66972     66973     66978     66982     66983
     66979     66978     66981     66979     66978     66980     66980     66978     66981
     66982     66978     66981     66982     66978     66980     66982     66978     66979
     66984     66988     66989     66985     66984     66987     66985     66984     66986
     66986     66984     66987     66988     66984     66987     66988     66984     66986
     66988     66984     66985     66990     66994     66995     66991     66990     66993
     66991     66990     66992     66992     66990     66993     66994     66990     66993
     66994     66990     66992     66994     66990     66991     66996     67000     67001
     66997     66996     66999     66997     66996     66998     66998     66996     66999
     67000     66996     66999     67000     66996     66998     67000     66996     66997
     67002     67006     67007     67003     67002     67005     67003     67002     67004
     67004     67002     67005     67006     67002     67005     67006     67002     67004
     67006     67002     67003     67008     67012     67013     67009     67008     67011
     67009     67008     67010     67010     67008     67011     67012     67008     67011
     67012     67008     67010     67012     67008     67009     67014     67018     67019
     67015     67014     67017     67015     67014     67016     67016     67014     67017
     67018     67014     67017     67018     67014     67016     67018     67014     67015
     67020     67024     67025     67021     67020     67023     67021     67020     67022
     67022     67020     67023     67024     67020     67023     67024     67020     67022
     67024     67020     67021     67026     67030     67031     67027     67026     67029
     67027     67026     67028     67028     67026     67029     67030     67026     67029
     67030     67026     67028     67030     67026     67027     67032     67036     67037
     67033     67032     67035     67033     67032     67034     67034     67032     67035
     67036     67032     67035     67036     67032     67034     67036     67032     67033
     67038     67042     67043     67039     67038     67041     67039     67038     67040
     67040     67038     67041     67042     67038     67041     67042     67038     67040
     67042     67038     67039     67044     67048     67049     67045     67044     67047
     67045     67044     67046     67046     67044     67047     67048     67044     67047
     67048     67044     67046     67048     67044     67045     67050     67054     67055
     67051     67050     67053     67051     67050     67052     67052     67050     67053
     67054     67050     67053     67054     67050     67052     67054     67050     67051
     67056     67060     67061     67057     67056     67059     67057     67056     67058
     67058     67056     67059     67060     67056     67059     67060     67056     67058
     67060     67056     67057     67062     67066     67067     67063     67062     67065
     67063     67062     67064     67064     67062     67065     67066     67062     67065
     67066     67062     67064     67066     67062     67063     67068     67072     67073
     67069     67068     67071     67069     67068     67070     67070     67068     67071
     67072     67068     67071     67072     67068     67070     67072     67068     67069
     67074     67078     67079     67075     67074     67077     67075     67074     67076
     67076     67074     67077     67078     67074     67077     67078     67074     67076
     67078     67074     67075     67080     67084     67085     67081     67080     67083
     67081     67080     67082     67082     67080     67083     67084     67080     67083
     67084     67080     67082     67084     67080     67081     67086     67090     67091
     67087     67086     67089     67087     67086     67088     67088     67086     67089
     67090     67086     67089     67090     67086     67088     67090     67086     67087
     67092     67096     67097     67093     67092     67095     67093     67092     67094
     67094     67092     67095     67096     67092     67095     67096     67092     67094
     67096     67092     67093     67098     67102     67103     67099     67098     67101
     67099     67098     67100     67100     67098     67101     67102     67098     67101
     67102     67098     67100     67102     67098     67099     67104     67108     67109
     67105     67104     67107     67105     67104     67106     67106     67104     67107
     67108     67104     67107     67108     67104     67106     67108     67104     67105
     67110     67114     67115     67111     67110     67113     67111     67110     67112
     67112     67110     67113     67114     67110     67113     67114     67110     67112
     67114     67110     67111     67116     67120     67121     67117     67116     67119
     67117     67116     67118     67118     67116     67119     67120     67116     67119
     67120     67116     67118     67120     67116     67117     67122     67126     67127
     67123     67122     67125     67123     67122     67124     67124     67122     67125
     67126     67122     67125     67126     67122     67124     67126     67122     67123
     67128     67132     67133     67129     67128     67131     67129     67128     67130
     67130     67128     67131     67132     67128     67131     67132     67128     67130
     67132     67128     67129     67134     67138     67139     67135     67134     67137
     67135     67134     67136     67136     67134     67137     67138     67134     67137
     67138     67134     67136     67138     67134     67135     67140     67144     67145
     67141     67140     67143     67141     67140     67142     67142     67140     67143
     67144     67140     67143     67144     67140     67142     67144     67140     67141
     67146     67150     67151     67147     67146     67149     67147     67146     67148
     67148     67146     67149     67150     67146     67149     67150     67146     67148
     67150     67146     67147     67152     67156     67157     67153     67152     67155
     67153     67152     67154     67154     67152     67155     67156     67152     67155
     67156     67152     67154     67156     67152     67153     67158     67162     67163
     67159     67158     67161     67159     67158     67160     67160     67158     67161
     67162     67158     67161     67162     67158     67160     67162     67158     67159
     67164     67168     67169     67165     67164     67167     67165     67164     67166
     67166     67164     67167     67168     67164     67167     67168     67164     67166
     67168     67164     67165     67170     67174     67175     67171     67170     67173
     67171     67170     67172     67172     67170     67173     67174     67170     67173
     67174     67170     67172     67174     67170     67171     67176     67180     67181
     67177     67176     67179     67177     67176     67178     67178     67176     67179
     67180     67176     67179     67180     67176     67178     67180     67176     67177
     67182     67186     67187     67183     67182     67185     67183     67182     67184
     67184     67182     67185     67186     67182     67185     67186     67182     67184
     67186     67182     67183     67188     67192     67193     67189     67188     67191
     67189     67188     67190     67190     67188     67191     67192     67188     67191
     67192     67188     67190     67192     67188     67189     67194     67198     67199
     67195     67194     67197     67195     67194     67196     67196     67194     67197
     67198     67194     67197     67198     67194     67196     67198     67194     67195
     67200     67204     67205     67201     67200     67203     67201     67200     67202
     67202     67200     67203     67204     67200     67203     67204     67200     67202
     67204     67200     67201     67206     67210     67211     67207     67206     67209
     67207     67206     67208     67208     67206     67209     67210     67206     67209
     67210     67206     67208     67210     67206     67207     67212     67216     67217
     67213     67212     67215     67213     67212     67214     67214     67212     67215
     67216     67212     67215     67216     67212     67214     67216     67212     67213
     67218     67222     67223     67219     67218     67221     67219     67218     67220
     67220     67218     67221     67222     67218     67221     67222     67218     67220
     67222     67218     67219     67224     67228     67229     67225     67224     67227
     67225     67224     67226     67226     67224     67227     67228     67224     67227
     67228     67224     67226     67228     67224     67225     67230     67234     67235
     67231     67230     67233     67231     67230     67232     67232     67230     67233
     67234     67230     67233     67234     67230     67232     67234     67230     67231
     67236     67240     67241     67237     67236     67239     67237     67236     67238
     67238     67236     67239     67240     67236     67239     67240     67236     67238
     67240     67236     67237     67242     67246     67247     67243     67242     67245
     67243     67242     67244     67244     67242     67245     67246     67242     67245
     67246     67242     67244     67246     67242     67243     67248     67252     67253
     67249     67248     67251     67249     67248     67250     67250     67248     67251
     67252     67248     67251     67252     67248     67250     67252     67248     67249
     67254     67258     67259     67255     67254     67257     67255     67254     67256
     67256     67254     67257     67258     67254     67257     67258     67254     67256
     67258     67254     67255     67260     67264     67265     67261     67260     67263
     67261     67260     67262     67262     67260     67263     67264     67260     67263
     67264     67260     67262     67264     67260     67261     67266     67270     67271
     67267     67266     67269     67267     67266     67268     67268     67266     67269
     67270     67266     67269     67270     67266     67268     67270     67266     67267
     67272     67276     67277     67273     67272     67275     67273     67272     67274
     67274     67272     67275     67276     67272     67275     67276     67272     67274
     67276     67272     67273     67278     67282     67283     67279     67278     67281
     67279     67278     67280     67280     67278     67281     67282     67278     67281
     67282     67278     67280     67282     67278     67279     67284     67288     67289
     67285     67284     67287     67285     67284     67286     67286     67284     67287
     67288     67284     67287     67288     67284     67286     67288     67284     67285
     67290     67294     67295     67291     67290     67293     67291     67290     67292
     67292     67290     67293     67294     67290     67293     67294     67290     67292
     67294     67290     67291     67296     67300     67301     67297     67296     67299
     67297     67296     67298     67298     67296     67299     67300     67296     67299
     67300     67296     67298     67300     67296     67297     67302     67306     67307
     67303     67302     67305     67303     67302     67304     67304     67302     67305
     67306     67302     67305     67306     67302     67304     67306     67302     67303
     67308     67312     67313     67309     67308     67311     67309     67308     67310
     67310     67308     67311     67312     67308     67311     67312     67308     67310
     67312     67308     67309     67314     67318     67319     67315     67314     67317
     67315     67314     67316     67316     67314     67317     67318     67314     67317
     67318     67314     67316     67318     67314     67315     67320     67324     67325
     67321     67320     67323     67321     67320     67322     67322     67320     67323
     67324     67320     67323     67324     67320     67322     67324     67320     67321
     67326     67330     67331     67327     67326     67329     67327     67326     67328
     67328     67326     67329     67330     67326     67329     67330     67326     67328
     67330     67326     67327     67332     67336     67337     67333     67332     67335
     67333     67332     67334     67334     67332     67335     67336     67332     67335
     67336     67332     67334     67336     67332     67333     67338     67342     67343
     67339     67338     67341     67339     67338     67340     67340     67338     67341
     67342     67338     67341     67342     67338     67340     67342     67338     67339
     67344     67348     67349     67345     67344     67347     67345     67344     67346
     67346     67344     67347     67348     67344     67347     67348     67344     67346
     67348     67344     67345     67350     67354     67355     67351     67350     67353
     67351     67350     67352     67352     67350     67353     67354     67350     67353
     67354     67350     67352     67354     67350     67351     67356     67360     67361
     67357     67356     67359     67357     67356     67358     67358     67356     67359
     67360     67356     67359     67360     67356     67358     67360     67356     67357
     67362     67366     67367     67363     67362     67365     67363     67362     67364
     67364     67362     67365     67366     67362     67365     67366     67362     67364
     67366     67362     67363     67368     67372     67373     67369     67368     67371
     67369     67368     67370     67370     67368     67371     67372     67368     67371
     67372     67368     67370     67372     67368     67369     67374     67378     67379
     67375     67374     67377     67375     67374     67376     67376     67374     67377
     67378     67374     67377     67378     67374     67376     67378     67374     67375
     67380     67384     67385     67381     67380     67383     67381     67380     67382
     67382     67380     67383     67384     67380     67383     67384     67380     67382
     67384     67380     67381     67386     67390     67391     67387     67386     67389
     67387     67386     67388     67388     67386     67389     67390     67386     67389
     67390     67386     67388     67390     67386     67387     67392     67396     67397
     67393     67392     67395     67393     67392     67394     67394     67392     67395
     67396     67392     67395     67396     67392     67394     67396     67392     67393
     67398     67402     67403     67399     67398     67401     67399     67398     67400
     67400     67398     67401     67402     67398     67401     67402     67398     67400
     67402     67398     67399     67404     67408     67409     67405     67404     67407
     67405     67404     67406     67406     67404     67407     67408     67404     67407
     67408     67404     67406     67408     67404     67405     67410     67414     67415
     67411     67410     67413     67411     67410     67412     67412     67410     67413
     67414     67410     67413     67414     67410     67412     67414     67410     67411
     67416     67420     67421     67417     67416     67419     67417     67416     67418
     67418     67416     67419     67420     67416     67419     67420     67416     67418
     67420     67416     67417     67422     67426     67427     67423     67422     67425
     67423     67422     67424     67424     67422     67425     67426     67422     67425
     67426     67422     67424     67426     67422     67423     67428     67432     67433
     67429     67428     67431     67429     67428     67430     67430     67428     67431
     67432     67428     67431     67432     67428     67430     67432     67428     67429
     67434     67438     67439     67435     67434     67437     67435     67434     67436
     67436     67434     67437     67438     67434     67437     67438     67434     67436
     67438     67434     67435     67440     67444     67445     67441     67440     67443
     67441     67440     67442     67442     67440     67443     67444     67440     67443
     67444     67440     67442     67444     67440     67441     67446     67450     67451
     67447     67446     67449     67447     67446     67448     67448     67446     67449
     67450     67446     67449     67450     67446     67448     67450     67446     67447
     67452     67456     67457     67453     67452     67455     67453     67452     67454
     67454     67452     67455     67456     67452     67455     67456     67452     67454
     67456     67452     67453     67458     67462     67463     67459     67458     67461
     67459     67458     67460     67460     67458     67461     67462     67458     67461
     67462     67458     67460     67462     67458     67459     67464     67468     67469
     67465     67464     67467     67465     67464     67466     67466     67464     67467
     67468     67464     67467     67468     67464     67466     67468     67464     67465
     67470     67474     67475     67471     67470     67473     67471     67470     67472
     67472     67470     67473     67474     67470     67473     67474     67470     67472
     67474     67470     67471     67476     67480     67481     67477     67476     67479
     67477     67476     67478     67478     67476     67479     67480     67476     67479
     67480     67476     67478     67480     67476     67477     67482     67486     67487
     67483     67482     67485     67483     67482     67484     67484     67482     67485
     67486     67482     67485     67486     67482     67484     67486     67482     67483
     67488     67492     67493     67489     67488     67491     67489     67488     67490
     67490     67488     67491     67492     67488     67491     67492     67488     67490
     67492     67488     67489     67494     67498     67499     67495     67494     67497
     67495     67494     67496     67496     67494     67497     67498     67494     67497
     67498     67494     67496     67498     67494     67495     67500     67504     67505
     67501     67500     67503     67501     67500     67502     67502     67500     67503
     67504     67500     67503     67504     67500     67502     67504     67500     67501
     67506     67510     67511     67507     67506     67509     67507     67506     67508
     67508     67506     67509     67510     67506     67509     67510     67506     67508
     67510     67506     67507     67512     67516     67517     67513     67512     67515
     67513     67512     67514     67514     67512     67515     67516     67512     67515
     67516     67512     67514     67516     67512     67513     67518     67522     67523
     67519     67518     67521     67519     67518     67520     67520     67518     67521
     67522     67518     67521     67522     67518     67520     67522     67518     67519
     67524     67528     67529     67525     67524     67527     67525     67524     67526
     67526     67524     67527     67528     67524     67527     67528     67524     67526
     67528     67524     67525     67530     67534     67535     67531     67530     67533
     67531     67530     67532     67532     67530     67533     67534     67530     67533
     67534     67530     67532     67534     67530     67531     67536     67540     67541
     67537     67536     67539     67537     67536     67538     67538     67536     67539
     67540     67536     67539     67540     67536     67538     67540     67536     67537
     67542     67546     67547     67543     67542     67545     67543     67542     67544
     67544     67542     67545     67546     67542     67545     67546     67542     67544
     67546     67542     67543     67548     67552     67553     67549     67548     67551
     67549     67548     67550     67550     67548     67551     67552     67548     67551
     67552     67548     67550     67552     67548     67549     67554     67558     67559
     67555     67554     67557     67555     67554     67556     67556     67554     67557
     67558     67554     67557     67558     67554     67556     67558     67554     67555
     67560     67564     67565     67561     67560     67563     67561     67560     67562
     67562     67560     67563     67564     67560     67563     67564     67560     67562
     67564     67560     67561     67566     67570     67571     67567     67566     67569
     67567     67566     67568     67568     67566     67569     67570     67566     67569
     67570     67566     67568     67570     67566     67567     67572     67576     67577
     67573     67572     67575     67573     67572     67574     67574     67572     67575
     67576     67572     67575     67576     67572     67574     67576     67572     67573
     67578     67582     67583     67579     67578     67581     67579     67578     67580
     67580     67578     67581     67582     67578     67581     67582     67578     67580
     67582     67578     67579     67584     67588     67589     67585     67584     67587
     67585     67584     67586     67586     67584     67587     67588     67584     67587
     67588     67584     67586     67588     67584     67585     67590     67594     67595
     67591     67590     67593     67591     67590     67592     67592     67590     67593
     67594     67590     67593     67594     67590     67592     67594     67590     67591
     67596     67600     67601     67597     67596     67599     67597     67596     67598
     67598     67596     67599     67600     67596     67599     67600     67596     67598
     67600     67596     67597     67602     67606     67607     67603     67602     67605
     67603     67602     67604     67604     67602     67605     67606     67602     67605
     67606     67602     67604     67606     67602     67603     67608     67612     67613
     67609     67608     67611     67609     67608     67610     67610     67608     67611
     67612     67608     67611     67612     67608     67610     67612     67608     67609
     67614     67618     67619     67615     67614     67617     67615     67614     67616
     67616     67614     67617     67618     67614     67617     67618     67614     67616
     67618     67614     67615     67620     67624     67625     67621     67620     67623
     67621     67620     67622     67622     67620     67623     67624     67620     67623
     67624     67620     67622     67624     67620     67621     67626     67630     67631
     67627     67626     67629     67627     67626     67628     67628     67626     67629
     67630     67626     67629     67630     67626     67628     67630     67626     67627
     67632     67636     67637     67633     67632     67635     67633     67632     67634
     67634     67632     67635     67636     67632     67635     67636     67632     67634
     67636     67632     67633     67638     67642     67643     67639     67638     67641
     67639     67638     67640     67640     67638     67641     67642     67638     67641
     67642     67638     67640     67642     67638     67639     67644     67648     67649
     67645     67644     67647     67645     67644     67646     67646     67644     67647
     67648     67644     67647     67648     67644     67646     67648     67644     67645
     67650     67654     67655     67651     67650     67653     67651     67650     67652
     67652     67650     67653     67654     67650     67653     67654     67650     67652
     67654     67650     67651     67656     67660     67661     67657     67656     67659
     67657     67656     67658     67658     67656     67659     67660     67656     67659
     67660     67656     67658     67660     67656     67657     67662     67666     67667
     67663     67662     67665     67663     67662     67664     67664     67662     67665
     67666     67662     67665     67666     67662     67664     67666     67662     67663
     67668     67672     67673     67669     67668     67671     67669     67668     67670
     67670     67668     67671     67672     67668     67671     67672     67668     67670
     67672     67668     67669     67674     67678     67679     67675     67674     67677
     67675     67674     67676     67676     67674     67677     67678     67674     67677
     67678     67674     67676     67678     67674     67675     67680     67684     67685
     67681     67680     67683     67681     67680     67682     67682     67680     67683
     67684     67680     67683     67684     67680     67682     67684     67680     67681
     67686     67690     67691     67687     67686     67689     67687     67686     67688
     67688     67686     67689     67690     67686     67689     67690     67686     67688
     67690     67686     67687     67692     67696     67697     67693     67692     67695
     67693     67692     67694     67694     67692     67695     67696     67692     67695
     67696     67692     67694     67696     67692     67693     67698     67702     67703
     67699     67698     67701     67699     67698     67700     67700     67698     67701
     67702     67698     67701     67702     67698     67700     67702     67698     67699
     67704     67708     67709     67705     67704     67707     67705     67704     67706
     67706     67704     67707     67708     67704     67707     67708     67704     67706
     67708     67704     67705     67710     67714     67715     67711     67710     67713
     67711     67710     67712     67712     67710     67713     67714     67710     67713
     67714     67710     67712     67714     67710     67711     67716     67720     67721
     67717     67716     67719     67717     67716     67718     67718     67716     67719
     67720     67716     67719     67720     67716     67718     67720     67716     67717
     67722     67726     67727     67723     67722     67725     67723     67722     67724
     67724     67722     67725     67726     67722     67725     67726     67722     67724
     67726     67722     67723     67728     67732     67733     67729     67728     67731
     67729     67728     67730     67730     67728     67731     67732     67728     67731
     67732     67728     67730     67732     67728     67729     67734     67738     67739
     67735     67734     67737     67735     67734     67736     67736     67734     67737
     67738     67734     67737     67738     67734     67736     67738     67734     67735
     67740     67744     67745     67741     67740     67743     67741     67740     67742
     67742     67740     67743     67744     67740     67743     67744     67740     67742
     67744     67740     67741     67746     67750     67751     67747     67746     67749
     67747     67746     67748     67748     67746     67749     67750     67746     67749
     67750     67746     67748     67750     67746     67747     67752     67756     67757
     67753     67752     67755     67753     67752     67754     67754     67752     67755
     67756     67752     67755     67756     67752     67754     67756     67752     67753
     67758     67762     67763     67759     67758     67761     67759     67758     67760
     67760     67758     67761     67762     67758     67761     67762     67758     67760
     67762     67758     67759     67764     67768     67769     67765     67764     67767
     67765     67764     67766     67766     67764     67767     67768     67764     67767
     67768     67764     67766     67768     67764     67765     67770     67774     67775
     67771     67770     67773     67771     67770     67772     67772     67770     67773
     67774     67770     67773     67774     67770     67772     67774     67770     67771
     67776     67780     67781     67777     67776     67779     67777     67776     67778
     67778     67776     67779     67780     67776     67779     67780     67776     67778
     67780     67776     67777     67782     67786     67787     67783     67782     67785
     67783     67782     67784     67784     67782     67785     67786     67782     67785
     67786     67782     67784     67786     67782     67783     67788     67792     67793
     67789     67788     67791     67789     67788     67790     67790     67788     67791
     67792     67788     67791     67792     67788     67790     67792     67788     67789
     67794     67798     67799     67795     67794     67797     67795     67794     67796
     67796     67794     67797     67798     67794     67797     67798     67794     67796
     67798     67794     67795     67800     67804     67805     67801     67800     67803
     67801     67800     67802     67802     67800     67803     67804     67800     67803
     67804     67800     67802     67804     67800     67801     67806     67810     67811
     67807     67806     67809     67807     67806     67808     67808     67806     67809
     67810     67806     67809     67810     67806     67808     67810     67806     67807
     67812     67816     67817     67813     67812     67815     67813     67812     67814
     67814     67812     67815     67816     67812     67815     67816     67812     67814
     67816     67812     67813     67818     67822     67823     67819     67818     67821
     67819     67818     67820     67820     67818     67821     67822     67818     67821
     67822     67818     67820     67822     67818     67819     67824     67828     67829
     67825     67824     67827     67825     67824     67826     67826     67824     67827
     67828     67824     67827     67828     67824     67826     67828     67824     67825
     67830     67834     67835     67831     67830     67833     67831     67830     67832
     67832     67830     67833     67834     67830     67833     67834     67830     67832
     67834     67830     67831     67836     67840     67841     67837     67836     67839
     67837     67836     67838     67838     67836     67839     67840     67836     67839
     67840     67836     67838     67840     67836     67837     67842     67846     67847
     67843     67842     67845     67843     67842     67844     67844     67842     67845
     67846     67842     67845     67846     67842     67844     67846     67842     67843
     67848     67852     67853     67849     67848     67851     67849     67848     67850
     67850     67848     67851     67852     67848     67851     67852     67848     67850
     67852     67848     67849     67854     67858     67859     67855     67854     67857
     67855     67854     67856     67856     67854     67857     67858     67854     67857
     67858     67854     67856     67858     67854     67855     67860     67864     67865
     67861     67860     67863     67861     67860     67862     67862     67860     67863
     67864     67860     67863     67864     67860     67862     67864     67860     67861
     67866     67870     67871     67867     67866     67869     67867     67866     67868
     67868     67866     67869     67870     67866     67869     67870     67866     67868
     67870     67866     67867     67872     67876     67877     67873     67872     67875
     67873     67872     67874     67874     67872     67875     67876     67872     67875
     67876     67872     67874     67876     67872     67873     67878     67882     67883
     67879     67878     67881     67879     67878     67880     67880     67878     67881
     67882     67878     67881     67882     67878     67880     67882     67878     67879
     67884     67888     67889     67885     67884     67887     67885     67884     67886
     67886     67884     67887     67888     67884     67887     67888     67884     67886
     67888     67884     67885     67890     67894     67895     67891     67890     67893
     67891     67890     67892     67892     67890     67893     67894     67890     67893
     67894     67890     67892     67894     67890     67891     67896     67900     67901
     67897     67896     67899     67897     67896     67898     67898     67896     67899
     67900     67896     67899     67900     67896     67898     67900     67896     67897
     67902     67906     67907     67903     67902     67905     67903     67902     67904
     67904     67902     67905     67906     67902     67905     67906     67902     67904
     67906     67902     67903     67908     67912     67913     67909     67908     67911
     67909     67908     67910     67910     67908     67911     67912     67908     67911
     67912     67908     67910     67912     67908     67909     67914     67918     67919
     67915     67914     67917     67915     67914     67916     67916     67914     67917
     67918     67914     67917     67918     67914     67916     67918     67914     67915
     67920     67924     67925     67921     67920     67923     67921     67920     67922
     67922     67920     67923     67924     67920     67923     67924     67920     67922
     67924     67920     67921     67926     67930     67931     67927     67926     67929
     67927     67926     67928     67928     67926     67929     67930     67926     67929
     67930     67926     67928     67930     67926     67927     67932     67936     67937
     67933     67932     67935     67933     67932     67934     67934     67932     67935
     67936     67932     67935     67936     67932     67934     67936     67932     67933
     67938     67942     67943     67939     67938     67941     67939     67938     67940
     67940     67938     67941     67942     67938     67941     67942     67938     67940
     67942     67938     67939     67944     67948     67949     67945     67944     67947
     67945     67944     67946     67946     67944     67947     67948     67944     67947
     67948     67944     67946     67948     67944     67945     67950     67954     67955
     67951     67950     67953     67951     67950     67952     67952     67950     67953
     67954     67950     67953     67954     67950     67952     67954     67950     67951
     67956     67960     67961     67957     67956     67959     67957     67956     67958
     67958     67956     67959     67960     67956     67959     67960     67956     67958
     67960     67956     67957     67962     67966     67967     67963     67962     67965
     67963     67962     67964     67964     67962     67965     67966     67962     67965
     67966     67962     67964     67966     67962     67963     67968     67972     67973
     67969     67968     67971     67969     67968     67970     67970     67968     67971
     67972     67968     67971     67972     67968     67970     67972     67968     67969
     67974     67978     67979     67975     67974     67977     67975     67974     67976
     67976     67974     67977     67978     67974     67977     67978     67974     67976
     67978     67974     67975     67980     67984     67985     67981     67980     67983
     67981     67980     67982     67982     67980     67983     67984     67980     67983
     67984     67980     67982     67984     67980     67981     67986     67990     67991
     67987     67986     67989     67987     67986     67988     67988     67986     67989
     67990     67986     67989     67990     67986     67988     67990     67986     67987
     67992     67996     67997     67993     67992     67995     67993     67992     67994
     67994     67992     67995     67996     67992     67995     67996     67992     67994
     67996     67992     67993     67998     68002     68003     67999     67998     68001
     67999     67998     68000     68000     67998     68001     68002     67998     68001
     68002     67998     68000     68002     67998     67999     68004     68008     68009
     68005     68004     68007     68005     68004     68006     68006     68004     68007
     68008     68004     68007     68008     68004     68006     68008     68004     68005
     68010     68014     68015     68011     68010     68013     68011     68010     68012
     68012     68010     68013     68014     68010     68013     68014     68010     68012
     68014     68010     68011     68016     68020     68021     68017     68016     68019
     68017     68016     68018     68018     68016     68019     68020     68016     68019
     68020     68016     68018     68020     68016     68017     68022     68026     68027
     68023     68022     68025     68023     68022     68024     68024     68022     68025
     68026     68022     68025     68026     68022     68024     68026     68022     68023
     68028     68032     68033     68029     68028     68031     68029     68028     68030
     68030     68028     68031     68032     68028     68031     68032     68028     68030
     68032     68028     68029     68034     68038     68039     68035     68034     68037
     68035     68034     68036     68036     68034     68037     68038     68034     68037
     68038     68034     68036     68038     68034     68035     68040     68044     68045
     68041     68040     68043     68041     68040     68042     68042     68040     68043
     68044     68040     68043     68044     68040     68042     68044     68040     68041
     68046     68050     68051     68047     68046     68049     68047     68046     68048
     68048     68046     68049     68050     68046     68049     68050     68046     68048
     68050     68046     68047     68052     68056     68057     68053     68052     68055
     68053     68052     68054     68054     68052     68055     68056     68052     68055
     68056     68052     68054     68056     68052     68053     68058     68062     68063
     68059     68058     68061     68059     68058     68060     68060     68058     68061
     68062     68058     68061     68062     68058     68060     68062     68058     68059
     68064     68068     68069     68065     68064     68067     68065     68064     68066
     68066     68064     68067     68068     68064     68067     68068     68064     68066
     68068     68064     68065     68070     68074     68075     68071     68070     68073
     68071     68070     68072     68072     68070     68073     68074     68070     68073
     68074     68070     68072     68074     68070     68071     68076     68080     68081
     68077     68076     68079     68077     68076     68078     68078     68076     68079
     68080     68076     68079     68080     68076     68078     68080     68076     68077
     68082     68086     68087     68083     68082     68085     68083     68082     68084
     68084     68082     68085     68086     68082     68085     68086     68082     68084
     68086     68082     68083     68088     68092     68093     68089     68088     68091
     68089     68088     68090     68090     68088     68091     68092     68088     68091
     68092     68088     68090     68092     68088     68089     68094     68098     68099
     68095     68094     68097     68095     68094     68096     68096     68094     68097
     68098     68094     68097     68098     68094     68096     68098     68094     68095
     68100     68104     68105     68101     68100     68103     68101     68100     68102
     68102     68100     68103     68104     68100     68103     68104     68100     68102
     68104     68100     68101     68106     68110     68111     68107     68106     68109
     68107     68106     68108     68108     68106     68109     68110     68106     68109
     68110     68106     68108     68110     68106     68107     68112     68116     68117
     68113     68112     68115     68113     68112     68114     68114     68112     68115
     68116     68112     68115     68116     68112     68114     68116     68112     68113
     68118     68122     68123     68119     68118     68121     68119     68118     68120
     68120     68118     68121     68122     68118     68121     68122     68118     68120
     68122     68118     68119     68124     68128     68129     68125     68124     68127
     68125     68124     68126     68126     68124     68127     68128     68124     68127
     68128     68124     68126     68128     68124     68125     68130     68134     68135
     68131     68130     68133     68131     68130     68132     68132     68130     68133
     68134     68130     68133     68134     68130     68132     68134     68130     68131
     68136     68140     68141     68137     68136     68139     68137     68136     68138
     68138     68136     68139     68140     68136     68139     68140     68136     68138
     68140     68136     68137     68142     68146     68147     68143     68142     68145
     68143     68142     68144     68144     68142     68145     68146     68142     68145
     68146     68142     68144     68146     68142     68143     68148     68152     68153
     68149     68148     68151     68149     68148     68150     68150     68148     68151
     68152     68148     68151     68152     68148     68150     68152     68148     68149
     68154     68158     68159     68155     68154     68157     68155     68154     68156
     68156     68154     68157     68158     68154     68157     68158     68154     68156
     68158     68154     68155     68160     68164     68165     68161     68160     68163
     68161     68160     68162     68162     68160     68163     68164     68160     68163
     68164     68160     68162     68164     68160     68161     68166     68170     68171
     68167     68166     68169     68167     68166     68168     68168     68166     68169
     68170     68166     68169     68170     68166     68168     68170     68166     68167
     68172     68176     68177     68173     68172     68175     68173     68172     68174
     68174     68172     68175     68176     68172     68175     68176     68172     68174
     68176     68172     68173     68178     68182     68183     68179     68178     68181
     68179     68178     68180     68180     68178     68181     68182     68178     68181
     68182     68178     68180     68182     68178     68179     68184     68188     68189
     68185     68184     68187     68185     68184     68186     68186     68184     68187
     68188     68184     68187     68188     68184     68186     68188     68184     68185
     68190     68194     68195     68191     68190     68193     68191     68190     68192
     68192     68190     68193     68194     68190     68193     68194     68190     68192
     68194     68190     68191     68196     68200     68201     68197     68196     68199
     68197     68196     68198     68198     68196     68199     68200     68196     68199
     68200     68196     68198     68200     68196     68197     68202     68206     68207
     68203     68202     68205     68203     68202     68204     68204     68202     68205
     68206     68202     68205     68206     68202     68204     68206     68202     68203
     68208     68212     68213     68209     68208     68211     68209     68208     68210
     68210     68208     68211     68212     68208     68211     68212     68208     68210
     68212     68208     68209     68214     68218     68219     68215     68214     68217
     68215     68214     68216     68216     68214     68217     68218     68214     68217
     68218     68214     68216     68218     68214     68215     68220     68224     68225
     68221     68220     68223     68221     68220     68222     68222     68220     68223
     68224     68220     68223     68224     68220     68222     68224     68220     68221
     68226     68230     68231     68227     68226     68229     68227     68226     68228
     68228     68226     68229     68230     68226     68229     68230     68226     68228
     68230     68226     68227     68232     68236     68237     68233     68232     68235
     68233     68232     68234     68234     68232     68235     68236     68232     68235
     68236     68232     68234     68236     68232     68233     68238     68242     68243
     68239     68238     68241     68239     68238     68240     68240     68238     68241
     68242     68238     68241     68242     68238     68240     68242     68238     68239
     68244     68248     68249     68245     68244     68247     68245     68244     68246
     68246     68244     68247     68248     68244     68247     68248     68244     68246
     68248     68244     68245     68250     68254     68255     68251     68250     68253
     68251     68250     68252     68252     68250     68253     68254     68250     68253
     68254     68250     68252     68254     68250     68251     68256     68260     68261
     68257     68256     68259     68257     68256     68258     68258     68256     68259
     68260     68256     68259     68260     68256     68258     68260     68256     68257
     68262     68266     68267     68263     68262     68265     68263     68262     68264
     68264     68262     68265     68266     68262     68265     68266     68262     68264
     68266     68262     68263     68268     68272     68273     68269     68268     68271
     68269     68268     68270     68270     68268     68271     68272     68268     68271
     68272     68268     68270     68272     68268     68269     68274     68278     68279
     68275     68274     68277     68275     68274     68276     68276     68274     68277
     68278     68274     68277     68278     68274     68276     68278     68274     68275
     68280     68284     68285     68281     68280     68283     68281     68280     68282
     68282     68280     68283     68284     68280     68283     68284     68280     68282
     68284     68280     68281     68286     68290     68291     68287     68286     68289
     68287     68286     68288     68288     68286     68289     68290     68286     68289
     68290     68286     68288     68290     68286     68287     68292     68296     68297
     68293     68292     68295     68293     68292     68294     68294     68292     68295
     68296     68292     68295     68296     68292     68294     68296     68292     68293
     68298     68302     68303     68299     68298     68301     68299     68298     68300
     68300     68298     68301     68302     68298     68301     68302     68298     68300
     68302     68298     68299     68304     68308     68309     68305     68304     68307
     68305     68304     68306     68306     68304     68307     68308     68304     68307
     68308     68304     68306     68308     68304     68305     68310     68314     68315
     68311     68310     68313     68311     68310     68312     68312     68310     68313
     68314     68310     68313     68314     68310     68312     68314     68310     68311
     68316     68320     68321     68317     68316     68319     68317     68316     68318
     68318     68316     68319     68320     68316     68319     68320     68316     68318
     68320     68316     68317     68322     68326     68327     68323     68322     68325
     68323     68322     68324     68324     68322     68325     68326     68322     68325
     68326     68322     68324     68326     68322     68323     68328     68332     68333
     68329     68328     68331     68329     68328     68330     68330     68328     68331
     68332     68328     68331     68332     68328     68330     68332     68328     68329
     68334     68338     68339     68335     68334     68337     68335     68334     68336
     68336     68334     68337     68338     68334     68337     68338     68334     68336
     68338     68334     68335     68340     68344     68345     68341     68340     68343
     68341     68340     68342     68342     68340     68343     68344     68340     68343
     68344     68340     68342     68344     68340     68341     68346     68350     68351
     68347     68346     68349     68347     68346     68348     68348     68346     68349
     68350     68346     68349     68350     68346     68348     68350     68346     68347
     68352     68356     68357     68353     68352     68355     68353     68352     68354
     68354     68352     68355     68356     68352     68355     68356     68352     68354
     68356     68352     68353     68358     68362     68363     68359     68358     68361
     68359     68358     68360     68360     68358     68361     68362     68358     68361
     68362     68358     68360     68362     68358     68359     68364     68368     68369
     68365     68364     68367     68365     68364     68366     68366     68364     68367
     68368     68364     68367     68368     68364     68366     68368     68364     68365
     68370     68374     68375     68371     68370     68373     68371     68370     68372
     68372     68370     68373     68374     68370     68373     68374     68370     68372
     68374     68370     68371     68376     68380     68381     68377     68376     68379
     68377     68376     68378     68378     68376     68379     68380     68376     68379
     68380     68376     68378     68380     68376     68377     68382     68386     68387
     68383     68382     68385     68383     68382     68384     68384     68382     68385
     68386     68382     68385     68386     68382     68384     68386     68382     68383
     68388     68392     68393     68389     68388     68391     68389     68388     68390
     68390     68388     68391     68392     68388     68391     68392     68388     68390
     68392     68388     68389     68394     68398     68399     68395     68394     68397
     68395     68394     68396     68396     68394     68397     68398     68394     68397
     68398     68394     68396     68398     68394     68395     68400     68404     68405
     68401     68400     68403     68401     68400     68402     68402     68400     68403
     68404     68400     68403     68404     68400     68402     68404     68400     68401
     68406     68410     68411     68407     68406     68409     68407     68406     68408
     68408     68406     68409     68410     68406     68409     68410     68406     68408
     68410     68406     68407     68412     68416     68417     68413     68412     68415
     68413     68412     68414     68414     68412     68415     68416     68412     68415
     68416     68412     68414     68416     68412     68413     68418     68422     68423
     68419     68418     68421     68419     68418     68420     68420     68418     68421
     68422     68418     68421     68422     68418     68420     68422     68418     68419
     68424     68428     68429     68425     68424     68427     68425     68424     68426
     68426     68424     68427     68428     68424     68427     68428     68424     68426
     68428     68424     68425     68430     68434     68435     68431     68430     68433
     68431     68430     68432     68432     68430     68433     68434     68430     68433
     68434     68430     68432     68434     68430     68431     68436     68440     68441
     68437     68436     68439     68437     68436     68438     68438     68436     68439
     68440     68436     68439     68440     68436     68438     68440     68436     68437
     68442     68446     68447     68443     68442     68445     68443     68442     68444
     68444     68442     68445     68446     68442     68445     68446     68442     68444
     68446     68442     68443     68448     68452     68453     68449     68448     68451
     68449     68448     68450     68450     68448     68451     68452     68448     68451
     68452     68448     68450     68452     68448     68449     68454     68458     68459
     68455     68454     68457     68455     68454     68456     68456     68454     68457
     68458     68454     68457     68458     68454     68456     68458     68454     68455
     68460     68464     68465     68461     68460     68463     68461     68460     68462
     68462     68460     68463     68464     68460     68463     68464     68460     68462
     68464     68460     68461     68466     68470     68471     68467     68466     68469
     68467     68466     68468     68468     68466     68469     68470     68466     68469
     68470     68466     68468     68470     68466     68467     68472     68476     68477
     68473     68472     68475     68473     68472     68474     68474     68472     68475
     68476     68472     68475     68476     68472     68474     68476     68472     68473
     68478     68482     68483     68479     68478     68481     68479     68478     68480
     68480     68478     68481     68482     68478     68481     68482     68478     68480
     68482     68478     68479     68484     68488     68489     68485     68484     68487
     68485     68484     68486     68486     68484     68487     68488     68484     68487
     68488     68484     68486     68488     68484     68485     68490     68494     68495
     68491     68490     68493     68491     68490     68492     68492     68490     68493
     68494     68490     68493     68494     68490     68492     68494     68490     68491
     68496     68500     68501     68497     68496     68499     68497     68496     68498
     68498     68496     68499     68500     68496     68499     68500     68496     68498
     68500     68496     68497     68502     68506     68507     68503     68502     68505
     68503     68502     68504     68504     68502     68505     68506     68502     68505
     68506     68502     68504     68506     68502     68503     68508     68512     68513
     68509     68508     68511     68509     68508     68510     68510     68508     68511
     68512     68508     68511     68512     68508     68510     68512     68508     68509
     68514     68518     68519     68515     68514     68517     68515     68514     68516
     68516     68514     68517     68518     68514     68517     68518     68514     68516
     68518     68514     68515     68520     68524     68525     68521     68520     68523
     68521     68520     68522     68522     68520     68523     68524     68520     68523
     68524     68520     68522     68524     68520     68521     68526     68530     68531
     68527     68526     68529     68527     68526     68528     68528     68526     68529
     68530     68526     68529     68530     68526     68528     68530     68526     68527
     68532     68536     68537     68533     68532     68535     68533     68532     68534
     68534     68532     68535     68536     68532     68535     68536     68532     68534
     68536     68532     68533     68538     68542     68543     68539     68538     68541
     68539     68538     68540     68540     68538     68541     68542     68538     68541
     68542     68538     68540     68542     68538     68539     68544     68548     68549
     68545     68544     68547     68545     68544     68546     68546     68544     68547
     68548     68544     68547     68548     68544     68546     68548     68544     68545
     68550     68554     68555     68551     68550     68553     68551     68550     68552
     68552     68550     68553     68554     68550     68553     68554     68550     68552
     68554     68550     68551     68556     68560     68561     68557     68556     68559
     68557     68556     68558     68558     68556     68559     68560     68556     68559
     68560     68556     68558     68560     68556     68557     68562     68566     68567
     68563     68562     68565     68563     68562     68564     68564     68562     68565
     68566     68562     68565     68566     68562     68564     68566     68562     68563
     68568     68572     68573     68569     68568     68571     68569     68568     68570
     68570     68568     68571     68572     68568     68571     68572     68568     68570
     68572     68568     68569     68574     68578     68579     68575     68574     68577
     68575     68574     68576     68576     68574     68577     68578     68574     68577
     68578     68574     68576     68578     68574     68575     68580     68584     68585
     68581     68580     68583     68581     68580     68582     68582     68580     68583
     68584     68580     68583     68584     68580     68582     68584     68580     68581
     68586     68590     68591     68587     68586     68589     68587     68586     68588
     68588     68586     68589     68590     68586     68589     68590     68586     68588
     68590     68586     68587     68592     68596     68597     68593     68592     68595
     68593     68592     68594     68594     68592     68595     68596     68592     68595
     68596     68592     68594     68596     68592     68593     68598     68602     68603
     68599     68598     68601     68599     68598     68600     68600     68598     68601
     68602     68598     68601     68602     68598     68600     68602     68598     68599
     68604     68608     68609     68605     68604     68607     68605     68604     68606
     68606     68604     68607     68608     68604     68607     68608     68604     68606
     68608     68604     68605     68610     68614     68615     68611     68610     68613
     68611     68610     68612     68612     68610     68613     68614     68610     68613
     68614     68610     68612     68614     68610     68611     68616     68620     68621
     68617     68616     68619     68617     68616     68618     68618     68616     68619
     68620     68616     68619     68620     68616     68618     68620     68616     68617
     68622     68626     68627     68623     68622     68625     68623     68622     68624
     68624     68622     68625     68626     68622     68625     68626     68622     68624
     68626     68622     68623     68628     68632     68633     68629     68628     68631
     68629     68628     68630     68630     68628     68631     68632     68628     68631
     68632     68628     68630     68632     68628     68629     68634     68638     68639
     68635     68634     68637     68635     68634     68636     68636     68634     68637
     68638     68634     68637     68638     68634     68636     68638     68634     68635
     68640     68644     68645     68641     68640     68643     68641     68640     68642
     68642     68640     68643     68644     68640     68643     68644     68640     68642
     68644     68640     68641     68646     68650     68651     68647     68646     68649
     68647     68646     68648     68648     68646     68649     68650     68646     68649
     68650     68646     68648     68650     68646     68647     68652     68656     68657
     68653     68652     68655     68653     68652     68654     68654     68652     68655
     68656     68652     68655     68656     68652     68654     68656     68652     68653
     68658     68662     68663     68659     68658     68661     68659     68658     68660
     68660     68658     68661     68662     68658     68661     68662     68658     68660
     68662     68658     68659     68664     68668     68669     68665     68664     68667
     68665     68664     68666     68666     68664     68667     68668     68664     68667
     68668     68664     68666     68668     68664     68665     68670     68674     68675
     68671     68670     68673     68671     68670     68672     68672     68670     68673
     68674     68670     68673     68674     68670     68672     68674     68670     68671
     68676     68680     68681     68677     68676     68679     68677     68676     68678
     68678     68676     68679     68680     68676     68679     68680     68676     68678
     68680     68676     68677     68682     68686     68687     68683     68682     68685
     68683     68682     68684     68684     68682     68685     68686     68682     68685
     68686     68682     68684     68686     68682     68683     68688     68692     68693
     68689     68688     68691     68689     68688     68690     68690     68688     68691
     68692     68688     68691     68692     68688     68690     68692     68688     68689
     68694     68698     68699     68695     68694     68697     68695     68694     68696
     68696     68694     68697     68698     68694     68697     68698     68694     68696
     68698     68694     68695     68700     68704     68705     68701     68700     68703
     68701     68700     68702     68702     68700     68703     68704     68700     68703
     68704     68700     68702     68704     68700     68701     68706     68710     68711
     68707     68706     68709     68707     68706     68708     68708     68706     68709
     68710     68706     68709     68710     68706     68708     68710     68706     68707
     68712     68716     68717     68713     68712     68715     68713     68712     68714
     68714     68712     68715     68716     68712     68715     68716     68712     68714
     68716     68712     68713     68718     68722     68723     68719     68718     68721
     68719     68718     68720     68720     68718     68721     68722     68718     68721
     68722     68718     68720     68722     68718     68719     68724     68728     68729
     68725     68724     68727     68725     68724     68726     68726     68724     68727
     68728     68724     68727     68728     68724     68726     68728     68724     68725
     68730     68734     68735     68731     68730     68733     68731     68730     68732
     68732     68730     68733     68734     68730     68733     68734     68730     68732
     68734     68730     68731     68736     68740     68741     68737     68736     68739
     68737     68736     68738     68738     68736     68739     68740     68736     68739
     68740     68736     68738     68740     68736     68737     68742     68746     68747
     68743     68742     68745     68743     68742     68744     68744     68742     68745
     68746     68742     68745     68746     68742     68744     68746     68742     68743
     68748     68752     68753     68749     68748     68751     68749     68748     68750
     68750     68748     68751     68752     68748     68751     68752     68748     68750
     68752     68748     68749     68754     68758     68759     68755     68754     68757
     68755     68754     68756     68756     68754     68757     68758     68754     68757
     68758     68754     68756     68758     68754     68755     68760     68764     68765
     68761     68760     68763     68761     68760     68762     68762     68760     68763
     68764     68760     68763     68764     68760     68762     68764     68760     68761
     68766     68770     68771     68767     68766     68769     68767     68766     68768
     68768     68766     68769     68770     68766     68769     68770     68766     68768
     68770     68766     68767     68772     68776     68777     68773     68772     68775
     68773     68772     68774     68774     68772     68775     68776     68772     68775
     68776     68772     68774     68776     68772     68773     68778     68782     68783
     68779     68778     68781     68779     68778     68780     68780     68778     68781
     68782     68778     68781     68782     68778     68780     68782     68778     68779
     68784     68788     68789     68785     68784     68787     68785     68784     68786
     68786     68784     68787     68788     68784     68787     68788     68784     68786
     68788     68784     68785     68790     68794     68795     68791     68790     68793
     68791     68790     68792     68792     68790     68793     68794     68790     68793
     68794     68790     68792     68794     68790     68791     68796     68800     68801
     68797     68796     68799     68797     68796     68798     68798     68796     68799
     68800     68796     68799     68800     68796     68798     68800     68796     68797
     68802     68806     68807     68803     68802     68805     68803     68802     68804
     68804     68802     68805     68806     68802     68805     68806     68802     68804
     68806     68802     68803     68808     68812     68813     68809     68808     68811
     68809     68808     68810     68810     68808     68811     68812     68808     68811
     68812     68808     68810     68812     68808     68809     68814     68818     68819
     68815     68814     68817     68815     68814     68816     68816     68814     68817
     68818     68814     68817     68818     68814     68816     68818     68814     68815
     68820     68824     68825     68821     68820     68823     68821     68820     68822
     68822     68820     68823     68824     68820     68823     68824     68820     68822
     68824     68820     68821     68826     68830     68831     68827     68826     68829
     68827     68826     68828     68828     68826     68829     68830     68826     68829
     68830     68826     68828     68830     68826     68827     68832     68836     68837
     68833     68832     68835     68833     68832     68834     68834     68832     68835
     68836     68832     68835     68836     68832     68834     68836     68832     68833
     68838     68842     68843     68839     68838     68841     68839     68838     68840
     68840     68838     68841     68842     68838     68841     68842     68838     68840
     68842     68838     68839     68844     68848     68849     68845     68844     68847
     68845     68844     68846     68846     68844     68847     68848     68844     68847
     68848     68844     68846     68848     68844     68845     68850     68854     68855
     68851     68850     68853     68851     68850     68852     68852     68850     68853
     68854     68850     68853     68854     68850     68852     68854     68850     68851
     68856     68860     68861     68857     68856     68859     68857     68856     68858
     68858     68856     68859     68860     68856     68859     68860     68856     68858
     68860     68856     68857     68862     68866     68867     68863     68862     68865
     68863     68862     68864     68864     68862     68865     68866     68862     68865
     68866     68862     68864     68866     68862     68863     68868     68872     68873
     68869     68868     68871     68869     68868     68870     68870     68868     68871
     68872     68868     68871     68872     68868     68870     68872     68868     68869
     68874     68878     68879     68875     68874     68877     68875     68874     68876
     68876     68874     68877     68878     68874     68877     68878     68874     68876
     68878     68874     68875     68880     68884     68885     68881     68880     68883
     68881     68880     68882     68882     68880     68883     68884     68880     68883
     68884     68880     68882     68884     68880     68881     68886     68890     68891
     68887     68886     68889     68887     68886     68888     68888     68886     68889
     68890     68886     68889     68890     68886     68888     68890     68886     68887
     68892     68896     68897     68893     68892     68895     68893     68892     68894
     68894     68892     68895     68896     68892     68895     68896     68892     68894
     68896     68892     68893     68898     68902     68903     68899     68898     68901
     68899     68898     68900     68900     68898     68901     68902     68898     68901
     68902     68898     68900     68902     68898     68899     68904     68908     68909
     68905     68904     68907     68905     68904     68906     68906     68904     68907
     68908     68904     68907     68908     68904     68906     68908     68904     68905
     68910     68914     68915     68911     68910     68913     68911     68910     68912
     68912     68910     68913     68914     68910     68913     68914     68910     68912
     68914     68910     68911     68916     68920     68921     68917     68916     68919
     68917     68916     68918     68918     68916     68919     68920     68916     68919
     68920     68916     68918     68920     68916     68917     68922     68926     68927
     68923     68922     68925     68923     68922     68924     68924     68922     68925
     68926     68922     68925     68926     68922     68924     68926     68922     68923
     68928     68932     68933     68929     68928     68931     68929     68928     68930
     68930     68928     68931     68932     68928     68931     68932     68928     68930
     68932     68928     68929     68934     68938     68939     68935     68934     68937
     68935     68934     68936     68936     68934     68937     68938     68934     68937
     68938     68934     68936     68938     68934     68935     68940     68944     68945
     68941     68940     68943     68941     68940     68942     68942     68940     68943
     68944     68940     68943     68944     68940     68942     68944     68940     68941
     68946     68950     68951     68947     68946     68949     68947     68946     68948
     68948     68946     68949     68950     68946     68949     68950     68946     68948
     68950     68946     68947     68952     68956     68957     68953     68952     68955
     68953     68952     68954     68954     68952     68955     68956     68952     68955
     68956     68952     68954     68956     68952     68953     68958     68962     68963
     68959     68958     68961     68959     68958     68960     68960     68958     68961
     68962     68958     68961     68962     68958     68960     68962     68958     68959
     68964     68968     68969     68965     68964     68967     68965     68964     68966
     68966     68964     68967     68968     68964     68967     68968     68964     68966
     68968     68964     68965     68970     68974     68975     68971     68970     68973
     68971     68970     68972     68972     68970     68973     68974     68970     68973
     68974     68970     68972     68974     68970     68971     68976     68980     68981
     68977     68976     68979     68977     68976     68978     68978     68976     68979
     68980     68976     68979     68980     68976     68978     68980     68976     68977
     68982     68986     68987     68983     68982     68985     68983     68982     68984
     68984     68982     68985     68986     68982     68985     68986     68982     68984
     68986     68982     68983     68988     68992     68993     68989     68988     68991
     68989     68988     68990     68990     68988     68991     68992     68988     68991
     68992     68988     68990     68992     68988     68989     68994     68998     68999
     68995     68994     68997     68995     68994     68996     68996     68994     68997
     68998     68994     68997     68998     68994     68996     68998     68994     68995
     69000     69004     69005     69001     69000     69003     69001     69000     69002
     69002     69000     69003     69004     69000     69003     69004     69000     69002
     69004     69000     69001     69006     69010     69011     69007     69006     69009
     69007     69006     69008     69008     69006     69009     69010     69006     69009
     69010     69006     69008     69010     69006     69007     69012     69016     69017
     69013     69012     69015     69013     69012     69014     69014     69012     69015
     69016     69012     69015     69016     69012     69014     69016     69012     69013
     69018     69022     69023     69019     69018     69021     69019     69018     69020
     69020     69018     69021     69022     69018     69021     69022     69018     69020
     69022     69018     69019     69024     69028     69029     69025     69024     69027
     69025     69024     69026     69026     69024     69027     69028     69024     69027
     69028     69024     69026     69028     69024     69025     69030     69034     69035
     69031     69030     69033     69031     69030     69032     69032     69030     69033
     69034     69030     69033     69034     69030     69032     69034     69030     69031
     69036     69040     69041     69037     69036     69039     69037     69036     69038
     69038     69036     69039     69040     69036     69039     69040     69036     69038
     69040     69036     69037     69042     69046     69047     69043     69042     69045
     69043     69042     69044     69044     69042     69045     69046     69042     69045
     69046     69042     69044     69046     69042     69043     69048     69052     69053
     69049     69048     69051     69049     69048     69050     69050     69048     69051
     69052     69048     69051     69052     69048     69050     69052     69048     69049
     69054     69058     69059     69055     69054     69057     69055     69054     69056
     69056     69054     69057     69058     69054     69057     69058     69054     69056
     69058     69054     69055     69060     69064     69065     69061     69060     69063
     69061     69060     69062     69062     69060     69063     69064     69060     69063
     69064     69060     69062     69064     69060     69061     69066     69070     69071
     69067     69066     69069     69067     69066     69068     69068     69066     69069
     69070     69066     69069     69070     69066     69068     69070     69066     69067
     69072     69076     69077     69073     69072     69075     69073     69072     69074
     69074     69072     69075     69076     69072     69075     69076     69072     69074
     69076     69072     69073     69078     69082     69083     69079     69078     69081
     69079     69078     69080     69080     69078     69081     69082     69078     69081
     69082     69078     69080     69082     69078     69079     69084     69088     69089
     69085     69084     69087     69085     69084     69086     69086     69084     69087
     69088     69084     69087     69088     69084     69086     69088     69084     69085
     69090     69094     69095     69091     69090     69093     69091     69090     69092
     69092     69090     69093     69094     69090     69093     69094     69090     69092
     69094     69090     69091     69096     69100     69101     69097     69096     69099
     69097     69096     69098     69098     69096     69099     69100     69096     69099
     69100     69096     69098     69100     69096     69097     69102     69106     69107
     69103     69102     69105     69103     69102     69104     69104     69102     69105
     69106     69102     69105     69106     69102     69104     69106     69102     69103
     69108     69112     69113     69109     69108     69111     69109     69108     69110
     69110     69108     69111     69112     69108     69111     69112     69108     69110
     69112     69108     69109     69114     69118     69119     69115     69114     69117
     69115     69114     69116     69116     69114     69117     69118     69114     69117
     69118     69114     69116     69118     69114     69115     69120     69124     69125
     69121     69120     69123     69121     69120     69122     69122     69120     69123
     69124     69120     69123     69124     69120     69122     69124     69120     69121
     69126     69130     69131     69127     69126     69129     69127     69126     69128
     69128     69126     69129     69130     69126     69129     69130     69126     69128
     69130     69126     69127     69132     69136     69137     69133     69132     69135
     69133     69132     69134     69134     69132     69135     69136     69132     69135
     69136     69132     69134     69136     69132     69133     69138     69142     69143
     69139     69138     69141     69139     69138     69140     69140     69138     69141
     69142     69138     69141     69142     69138     69140     69142     69138     69139
     69144     69148     69149     69145     69144     69147     69145     69144     69146
     69146     69144     69147     69148     69144     69147     69148     69144     69146
     69148     69144     69145     69150     69154     69155     69151     69150     69153
     69151     69150     69152     69152     69150     69153     69154     69150     69153
     69154     69150     69152     69154     69150     69151     69156     69160     69161
     69157     69156     69159     69157     69156     69158     69158     69156     69159
     69160     69156     69159     69160     69156     69158     69160     69156     69157
     69162     69166     69167     69163     69162     69165     69163     69162     69164
     69164     69162     69165     69166     69162     69165     69166     69162     69164
     69166     69162     69163     69168     69172     69173     69169     69168     69171
     69169     69168     69170     69170     69168     69171     69172     69168     69171
     69172     69168     69170     69172     69168     69169     69174     69178     69179
     69175     69174     69177     69175     69174     69176     69176     69174     69177
     69178     69174     69177     69178     69174     69176     69178     69174     69175
     69180     69184     69185     69181     69180     69183     69181     69180     69182
     69182     69180     69183     69184     69180     69183     69184     69180     69182
     69184     69180     69181     69186     69190     69191     69187     69186     69189
     69187     69186     69188     69188     69186     69189     69190     69186     69189
     69190     69186     69188     69190     69186     69187     69192     69196     69197
     69193     69192     69195     69193     69192     69194     69194     69192     69195
     69196     69192     69195     69196     69192     69194     69196     69192     69193
     69198     69202     69203     69199     69198     69201     69199     69198     69200
     69200     69198     69201     69202     69198     69201     69202     69198     69200
     69202     69198     69199     69204     69208     69209     69205     69204     69207
     69205     69204     69206     69206     69204     69207     69208     69204     69207
     69208     69204     69206     69208     69204     69205     69210     69214     69215
     69211     69210     69213     69211     69210     69212     69212     69210     69213
     69214     69210     69213     69214     69210     69212     69214     69210     69211
     69216     69220     69221     69217     69216     69219     69217     69216     69218
     69218     69216     69219     69220     69216     69219     69220     69216     69218
     69220     69216     69217     69222     69226     69227     69223     69222     69225
     69223     69222     69224     69224     69222     69225     69226     69222     69225
     69226     69222     69224     69226     69222     69223     69228     69232     69233
     69229     69228     69231     69229     69228     69230     69230     69228     69231
     69232     69228     69231     69232     69228     69230     69232     69228     69229
     69234     69238     69239     69235     69234     69237     69235     69234     69236
     69236     69234     69237     69238     69234     69237     69238     69234     69236
     69238     69234     69235     69240     69244     69245     69241     69240     69243
     69241     69240     69242     69242     69240     69243     69244     69240     69243
     69244     69240     69242     69244     69240     69241     69246     69250     69251
     69247     69246     69249     69247     69246     69248     69248     69246     69249
     69250     69246     69249     69250     69246     69248     69250     69246     69247
     69252     69256     69257     69253     69252     69255     69253     69252     69254
     69254     69252     69255     69256     69252     69255     69256     69252     69254
     69256     69252     69253     69258     69262     69263     69259     69258     69261
     69259     69258     69260     69260     69258     69261     69262     69258     69261
     69262     69258     69260     69262     69258     69259     69264     69268     69269
     69265     69264     69267     69265     69264     69266     69266     69264     69267
     69268     69264     69267     69268     69264     69266     69268     69264     69265
     69270     69274     69275     69271     69270     69273     69271     69270     69272
     69272     69270     69273     69274     69270     69273     69274     69270     69272
     69274     69270     69271     69276     69280     69281     69277     69276     69279
     69277     69276     69278     69278     69276     69279     69280     69276     69279
     69280     69276     69278     69280     69276     69277     69282     69286     69287
     69283     69282     69285     69283     69282     69284     69284     69282     69285
     69286     69282     69285     69286     69282     69284     69286     69282     69283
     69288     69292     69293     69289     69288     69291     69289     69288     69290
     69290     69288     69291     69292     69288     69291     69292     69288     69290
     69292     69288     69289     69294     69298     69299     69295     69294     69297
     69295     69294     69296     69296     69294     69297     69298     69294     69297
     69298     69294     69296     69298     69294     69295     69300     69304     69305
     69301     69300     69303     69301     69300     69302     69302     69300     69303
     69304     69300     69303     69304     69300     69302     69304     69300     69301
     69306     69310     69311     69307     69306     69309     69307     69306     69308
     69308     69306     69309     69310     69306     69309     69310     69306     69308
     69310     69306     69307     69312     69316     69317     69313     69312     69315
     69313     69312     69314     69314     69312     69315     69316     69312     69315
     69316     69312     69314     69316     69312     69313     69318     69322     69323
     69319     69318     69321     69319     69318     69320     69320     69318     69321
     69322     69318     69321     69322     69318     69320     69322     69318     69319
     69324     69328     69329     69325     69324     69327     69325     69324     69326
     69326     69324     69327     69328     69324     69327     69328     69324     69326
     69328     69324     69325     69330     69334     69335     69331     69330     69333
     69331     69330     69332     69332     69330     69333     69334     69330     69333
     69334     69330     69332     69334     69330     69331     69336     69340     69341
     69337     69336     69339     69337     69336     69338     69338     69336     69339
     69340     69336     69339     69340     69336     69338     69340     69336     69337
     69342     69346     69347     69343     69342     69345     69343     69342     69344
     69344     69342     69345     69346     69342     69345     69346     69342     69344
     69346     69342     69343     69348     69352     69353     69349     69348     69351
     69349     69348     69350     69350     69348     69351     69352     69348     69351
     69352     69348     69350     69352     69348     69349     69354     69358     69359
     69355     69354     69357     69355     69354     69356     69356     69354     69357
     69358     69354     69357     69358     69354     69356     69358     69354     69355
     69360     69364     69365     69361     69360     69363     69361     69360     69362
     69362     69360     69363     69364     69360     69363     69364     69360     69362
     69364     69360     69361     69366     69370     69371     69367     69366     69369
     69367     69366     69368     69368     69366     69369     69370     69366     69369
     69370     69366     69368     69370     69366     69367     69372     69376     69377
     69373     69372     69375     69373     69372     69374     69374     69372     69375
     69376     69372     69375     69376     69372     69374     69376     69372     69373
     69378     69382     69383     69379     69378     69381     69379     69378     69380
     69380     69378     69381     69382     69378     69381     69382     69378     69380
     69382     69378     69379     69384     69388     69389     69385     69384     69387
     69385     69384     69386     69386     69384     69387     69388     69384     69387
     69388     69384     69386     69388     69384     69385     69390     69394     69395
     69391     69390     69393     69391     69390     69392     69392     69390     69393
     69394     69390     69393     69394     69390     69392     69394     69390     69391
     69396     69400     69401     69397     69396     69399     69397     69396     69398
     69398     69396     69399     69400     69396     69399     69400     69396     69398
     69400     69396     69397     69402     69406     69407     69403     69402     69405
     69403     69402     69404     69404     69402     69405     69406     69402     69405
     69406     69402     69404     69406     69402     69403     69408     69412     69413
     69409     69408     69411     69409     69408     69410     69410     69408     69411
     69412     69408     69411     69412     69408     69410     69412     69408     69409
     69414     69418     69419     69415     69414     69417     69415     69414     69416
     69416     69414     69417     69418     69414     69417     69418     69414     69416
     69418     69414     69415     69420     69424     69425     69421     69420     69423
     69421     69420     69422     69422     69420     69423     69424     69420     69423
     69424     69420     69422     69424     69420     69421     69426     69430     69431
     69427     69426     69429     69427     69426     69428     69428     69426     69429
     69430     69426     69429     69430     69426     69428     69430     69426     69427
     69432     69436     69437     69433     69432     69435     69433     69432     69434
     69434     69432     69435     69436     69432     69435     69436     69432     69434
     69436     69432     69433     69438     69442     69443     69439     69438     69441
     69439     69438     69440     69440     69438     69441     69442     69438     69441
     69442     69438     69440     69442     69438     69439     69444     69448     69449
     69445     69444     69447     69445     69444     69446     69446     69444     69447
     69448     69444     69447     69448     69444     69446     69448     69444     69445
     69450     69454     69455     69451     69450     69453     69451     69450     69452
     69452     69450     69453     69454     69450     69453     69454     69450     69452
     69454     69450     69451     69456     69460     69461     69457     69456     69459
     69457     69456     69458     69458     69456     69459     69460     69456     69459
     69460     69456     69458     69460     69456     69457     69462     69466     69467
     69463     69462     69465     69463     69462     69464     69464     69462     69465
     69466     69462     69465     69466     69462     69464     69466     69462     69463
     69468     69472     69473     69469     69468     69471     69469     69468     69470
     69470     69468     69471     69472     69468     69471     69472     69468     69470
     69472     69468     69469     69474     69478     69479     69475     69474     69477
     69475     69474     69476     69476     69474     69477     69478     69474     69477
     69478     69474     69476     69478     69474     69475     69480     69484     69485
     69481     69480     69483     69481     69480     69482     69482     69480     69483
     69484     69480     69483     69484     69480     69482     69484     69480     69481
     69486     69490     69491     69487     69486     69489     69487     69486     69488
     69488     69486     69489     69490     69486     69489     69490     69486     69488
     69490     69486     69487     69492     69496     69497     69493     69492     69495
     69493     69492     69494     69494     69492     69495     69496     69492     69495
     69496     69492     69494     69496     69492     69493     69498     69502     69503
     69499     69498     69501     69499     69498     69500     69500     69498     69501
     69502     69498     69501     69502     69498     69500     69502     69498     69499
     69504     69508     69509     69505     69504     69507     69505     69504     69506
     69506     69504     69507     69508     69504     69507     69508     69504     69506
     69508     69504     69505     69510     69514     69515     69511     69510     69513
     69511     69510     69512     69512     69510     69513     69514     69510     69513
     69514     69510     69512     69514     69510     69511     69516     69520     69521
     69517     69516     69519     69517     69516     69518     69518     69516     69519
     69520     69516     69519     69520     69516     69518     69520     69516     69517
     69522     69526     69527     69523     69522     69525     69523     69522     69524
     69524     69522     69525     69526     69522     69525     69526     69522     69524
     69526     69522     69523     69528     69532     69533     69529     69528     69531
     69529     69528     69530     69530     69528     69531     69532     69528     69531
     69532     69528     69530     69532     69528     69529     69534     69538     69539
     69535     69534     69537     69535     69534     69536     69536     69534     69537
     69538     69534     69537     69538     69534     69536     69538     69534     69535
     69540     69544     69545     69541     69540     69543     69541     69540     69542
     69542     69540     69543     69544     69540     69543     69544     69540     69542
     69544     69540     69541     69546     69550     69551     69547     69546     69549
     69547     69546     69548     69548     69546     69549     69550     69546     69549
     69550     69546     69548     69550     69546     69547     69552     69556     69557
     69553     69552     69555     69553     69552     69554     69554     69552     69555
     69556     69552     69555     69556     69552     69554     69556     69552     69553
     69558     69562     69563     69559     69558     69561     69559     69558     69560
     69560     69558     69561     69562     69558     69561     69562     69558     69560
     69562     69558     69559     69564     69568     69569     69565     69564     69567
     69565     69564     69566     69566     69564     69567     69568     69564     69567
     69568     69564     69566     69568     69564     69565     69570     69574     69575
     69571     69570     69573     69571     69570     69572     69572     69570     69573
     69574     69570     69573     69574     69570     69572     69574     69570     69571
     69576     69580     69581     69577     69576     69579     69577     69576     69578
     69578     69576     69579     69580     69576     69579     69580     69576     69578
     69580     69576     69577     69582     69586     69587     69583     69582     69585
     69583     69582     69584     69584     69582     69585     69586     69582     69585
     69586     69582     69584     69586     69582     69583     69588     69592     69593
     69589     69588     69591     69589     69588     69590     69590     69588     69591
     69592     69588     69591     69592     69588     69590     69592     69588     69589
     69594     69598     69599     69595     69594     69597     69595     69594     69596
     69596     69594     69597     69598     69594     69597     69598     69594     69596
     69598     69594     69595     69600     69604     69605     69601     69600     69603
     69601     69600     69602     69602     69600     69603     69604     69600     69603
     69604     69600     69602     69604     69600     69601     69606     69610     69611
     69607     69606     69609     69607     69606     69608     69608     69606     69609
     69610     69606     69609     69610     69606     69608     69610     69606     69607
     69612     69616     69617     69613     69612     69615     69613     69612     69614
     69614     69612     69615     69616     69612     69615     69616     69612     69614
     69616     69612     69613     69618     69622     69623     69619     69618     69621
     69619     69618     69620     69620     69618     69621     69622     69618     69621
     69622     69618     69620     69622     69618     69619     69624     69628     69629
     69625     69624     69627     69625     69624     69626     69626     69624     69627
     69628     69624     69627     69628     69624     69626     69628     69624     69625
     69630     69634     69635     69631     69630     69633     69631     69630     69632
     69632     69630     69633     69634     69630     69633     69634     69630     69632
     69634     69630     69631     69636     69640     69641     69637     69636     69639
     69637     69636     69638     69638     69636     69639     69640     69636     69639
     69640     69636     69638     69640     69636     69637     69642     69646     69647
     69643     69642     69645     69643     69642     69644     69644     69642     69645
     69646     69642     69645     69646     69642     69644     69646     69642     69643
     69648     69652     69653     69649     69648     69651     69649     69648     69650
     69650     69648     69651     69652     69648     69651     69652     69648     69650
     69652     69648     69649     69654     69658     69659     69655     69654     69657
     69655     69654     69656     69656     69654     69657     69658     69654     69657
     69658     69654     69656     69658     69654     69655     69660     69664     69665
     69661     69660     69663     69661     69660     69662     69662     69660     69663
     69664     69660     69663     69664     69660     69662     69664     69660     69661
     69666     69670     69671     69667     69666     69669     69667     69666     69668
     69668     69666     69669     69670     69666     69669     69670     69666     69668
     69670     69666     69667     69672     69676     69677     69673     69672     69675
     69673     69672     69674     69674     69672     69675     69676     69672     69675
     69676     69672     69674     69676     69672     69673     69678     69682     69683
     69679     69678     69681     69679     69678     69680     69680     69678     69681
     69682     69678     69681     69682     69678     69680     69682     69678     69679
     69684     69688     69689     69685     69684     69687     69685     69684     69686
     69686     69684     69687     69688     69684     69687     69688     69684     69686
     69688     69684     69685     69690     69694     69695     69691     69690     69693
     69691     69690     69692     69692     69690     69693     69694     69690     69693
     69694     69690     69692     69694     69690     69691     69696     69700     69701
     69697     69696     69699     69697     69696     69698     69698     69696     69699
     69700     69696     69699     69700     69696     69698     69700     69696     69697
     69702     69706     69707     69703     69702     69705     69703     69702     69704
     69704     69702     69705     69706     69702     69705     69706     69702     69704
     69706     69702     69703     69708     69712     69713     69709     69708     69711
     69709     69708     69710     69710     69708     69711     69712     69708     69711
     69712     69708     69710     69712     69708     69709     69714     69718     69719
     69715     69714     69717     69715     69714     69716     69716     69714     69717
     69718     69714     69717     69718     69714     69716     69718     69714     69715
     69720     69724     69725     69721     69720     69723     69721     69720     69722
     69722     69720     69723     69724     69720     69723     69724     69720     69722
     69724     69720     69721     69726     69730     69731     69727     69726     69729
     69727     69726     69728     69728     69726     69729     69730     69726     69729
     69730     69726     69728     69730     69726     69727     69732     69736     69737
     69733     69732     69735     69733     69732     69734     69734     69732     69735
     69736     69732     69735     69736     69732     69734     69736     69732     69733
     69738     69742     69743     69739     69738     69741     69739     69738     69740
     69740     69738     69741     69742     69738     69741     69742     69738     69740
     69742     69738     69739     69744     69748     69749     69745     69744     69747
     69745     69744     69746     69746     69744     69747     69748     69744     69747
     69748     69744     69746     69748     69744     69745     69750     69754     69755
     69751     69750     69753     69751     69750     69752     69752     69750     69753
     69754     69750     69753     69754     69750     69752     69754     69750     69751
     69756     69760     69761     69757     69756     69759     69757     69756     69758
     69758     69756     69759     69760     69756     69759     69760     69756     69758
     69760     69756     69757     69762     69766     69767     69763     69762     69765
     69763     69762     69764     69764     69762     69765     69766     69762     69765
     69766     69762     69764     69766     69762     69763     69768     69772     69773
     69769     69768     69771     69769     69768     69770     69770     69768     69771
     69772     69768     69771     69772     69768     69770     69772     69768     69769
     69774     69778     69779     69775     69774     69777     69775     69774     69776
     69776     69774     69777     69778     69774     69777     69778     69774     69776
     69778     69774     69775     69780     69784     69785     69781     69780     69783
     69781     69780     69782     69782     69780     69783     69784     69780     69783
     69784     69780     69782     69784     69780     69781     69786     69790     69791
     69787     69786     69789     69787     69786     69788     69788     69786     69789
     69790     69786     69789     69790     69786     69788     69790     69786     69787
     69792     69796     69797     69793     69792     69795     69793     69792     69794
     69794     69792     69795     69796     69792     69795     69796     69792     69794
     69796     69792     69793     69798     69802     69803     69799     69798     69801
     69799     69798     69800     69800     69798     69801     69802     69798     69801
     69802     69798     69800     69802     69798     69799     69804     69808     69809
     69805     69804     69807     69805     69804     69806     69806     69804     69807
     69808     69804     69807     69808     69804     69806     69808     69804     69805
     69810     69814     69815     69811     69810     69813     69811     69810     69812
     69812     69810     69813     69814     69810     69813     69814     69810     69812
     69814     69810     69811     69816     69820     69821     69817     69816     69819
     69817     69816     69818     69818     69816     69819     69820     69816     69819
     69820     69816     69818     69820     69816     69817     69822     69826     69827
     69823     69822     69825     69823     69822     69824     69824     69822     69825
     69826     69822     69825     69826     69822     69824     69826     69822     69823
     69828     69832     69833     69829     69828     69831     69829     69828     69830
     69830     69828     69831     69832     69828     69831     69832     69828     69830
     69832     69828     69829     69834     69838     69839     69835     69834     69837
     69835     69834     69836     69836     69834     69837     69838     69834     69837
     69838     69834     69836     69838     69834     69835     69840     69844     69845
     69841     69840     69843     69841     69840     69842     69842     69840     69843
     69844     69840     69843     69844     69840     69842     69844     69840     69841
     69846     69850     69851     69847     69846     69849     69847     69846     69848
     69848     69846     69849     69850     69846     69849     69850     69846     69848
     69850     69846     69847     69852     69856     69857     69853     69852     69855
     69853     69852     69854     69854     69852     69855     69856     69852     69855
     69856     69852     69854     69856     69852     69853     69858     69862     69863
     69859     69858     69861     69859     69858     69860     69860     69858     69861
     69862     69858     69861     69862     69858     69860     69862     69858     69859
     69864     69868     69869     69865     69864     69867     69865     69864     69866
     69866     69864     69867     69868     69864     69867     69868     69864     69866
     69868     69864     69865     69870     69874     69875     69871     69870     69873
     69871     69870     69872     69872     69870     69873     69874     69870     69873
     69874     69870     69872     69874     69870     69871     69876     69880     69881
     69877     69876     69879     69877     69876     69878     69878     69876     69879
     69880     69876     69879     69880     69876     69878     69880     69876     69877
     69882     69886     69887     69883     69882     69885     69883     69882     69884
     69884     69882     69885     69886     69882     69885     69886     69882     69884
     69886     69882     69883     69888     69892     69893     69889     69888     69891
     69889     69888     69890     69890     69888     69891     69892     69888     69891
     69892     69888     69890     69892     69888     69889     69894     69898     69899
     69895     69894     69897     69895     69894     69896     69896     69894     69897
     69898     69894     69897     69898     69894     69896     69898     69894     69895
     69900     69904     69905     69901     69900     69903     69901     69900     69902
     69902     69900     69903     69904     69900     69903     69904     69900     69902
     69904     69900     69901     69906     69910     69911     69907     69906     69909
     69907     69906     69908     69908     69906     69909     69910     69906     69909
     69910     69906     69908     69910     69906     69907     69912     69916     69917
     69913     69912     69915     69913     69912     69914     69914     69912     69915
     69916     69912     69915     69916     69912     69914     69916     69912     69913
     69918     69922     69923     69919     69918     69921     69919     69918     69920
     69920     69918     69921     69922     69918     69921     69922     69918     69920
     69922     69918     69919     69924     69928     69929     69925     69924     69927
     69925     69924     69926     69926     69924     69927     69928     69924     69927
     69928     69924     69926     69928     69924     69925     69930     69934     69935
     69931     69930     69933     69931     69930     69932     69932     69930     69933
     69934     69930     69933     69934     69930     69932     69934     69930     69931
     69936     69940     69941     69937     69936     69939     69937     69936     69938
     69938     69936     69939     69940     69936     69939     69940     69936     69938
     69940     69936     69937     69942     69946     69947     69943     69942     69945
     69943     69942     69944     69944     69942     69945     69946     69942     69945
     69946     69942     69944     69946     69942     69943     69948     69952     69953
     69949     69948     69951     69949     69948     69950     69950     69948     69951
     69952     69948     69951     69952     69948     69950     69952     69948     69949
     69954     69958     69959     69955     69954     69957     69955     69954     69956
     69956     69954     69957     69958     69954     69957     69958     69954     69956
     69958     69954     69955     69960     69964     69965     69961     69960     69963
     69961     69960     69962     69962     69960     69963     69964     69960     69963
     69964     69960     69962     69964     69960     69961     69966     69970     69971
     69967     69966     69969     69967     69966     69968     69968     69966     69969
     69970     69966     69969     69970     69966     69968     69970     69966     69967
     69972     69976     69977     69973     69972     69975     69973     69972     69974
     69974     69972     69975     69976     69972     69975     69976     69972     69974
     69976     69972     69973     69978     69982     69983     69979     69978     69981
     69979     69978     69980     69980     69978     69981     69982     69978     69981
     69982     69978     69980     69982     69978     69979     69984     69988     69989
     69985     69984     69987     69985     69984     69986     69986     69984     69987
     69988     69984     69987     69988     69984     69986     69988     69984     69985
     69990     69994     69995     69991     69990     69993     69991     69990     69992
     69992     69990     69993     69994     69990     69993     69994     69990     69992
     69994     69990     69991     69996     70000     70001     69997     69996     69999
     69997     69996     69998     69998     69996     69999     70000     69996     69999
     70000     69996     69998     70000     69996     69997     70002     70006     70007
     70003     70002     70005     70003     70002     70004     70004     70002     70005
     70006     70002     70005     70006     70002     70004     70006     70002     70003
     70008     70012     70013     70009     70008     70011     70009     70008     70010
     70010     70008     70011     70012     70008     70011     70012     70008     70010
     70012     70008     70009     70014     70018     70019     70015     70014     70017
     70015     70014     70016     70016     70014     70017     70018     70014     70017
     70018     70014     70016     70018     70014     70015     70020     70024     70025
     70021     70020     70023     70021     70020     70022     70022     70020     70023
     70024     70020     70023     70024     70020     70022     70024     70020     70021
     70026     70030     70031     70027     70026     70029     70027     70026     70028
     70028     70026     70029     70030     70026     70029     70030     70026     70028
     70030     70026     70027     70032     70036     70037     70033     70032     70035
     70033     70032     70034     70034     70032     70035     70036     70032     70035
     70036     70032     70034     70036     70032     70033     70038     70042     70043
     70039     70038     70041     70039     70038     70040     70040     70038     70041
     70042     70038     70041     70042     70038     70040     70042     70038     70039
     70044     70048     70049     70045     70044     70047     70045     70044     70046
     70046     70044     70047     70048     70044     70047     70048     70044     70046
     70048     70044     70045     70050     70054     70055     70051     70050     70053
     70051     70050     70052     70052     70050     70053     70054     70050     70053
     70054     70050     70052     70054     70050     70051     70056     70060     70061
     70057     70056     70059     70057     70056     70058     70058     70056     70059
     70060     70056     70059     70060     70056     70058     70060     70056     70057
     70062     70066     70067     70063     70062     70065     70063     70062     70064
     70064     70062     70065     70066     70062     70065     70066     70062     70064
     70066     70062     70063     70068     70072     70073     70069     70068     70071
     70069     70068     70070     70070     70068     70071     70072     70068     70071
     70072     70068     70070     70072     70068     70069     70074     70078     70079
     70075     70074     70077     70075     70074     70076     70076     70074     70077
     70078     70074     70077     70078     70074     70076     70078     70074     70075
     70080     70084     70085     70081     70080     70083     70081     70080     70082
     70082     70080     70083     70084     70080     70083     70084     70080     70082
     70084     70080     70081     70086     70090     70091     70087     70086     70089
     70087     70086     70088     70088     70086     70089     70090     70086     70089
     70090     70086     70088     70090     70086     70087     70092     70096     70097
     70093     70092     70095     70093     70092     70094     70094     70092     70095
     70096     70092     70095     70096     70092     70094     70096     70092     70093
     70098     70102     70103     70099     70098     70101     70099     70098     70100
     70100     70098     70101     70102     70098     70101     70102     70098     70100
     70102     70098     70099     70104     70108     70109     70105     70104     70107
     70105     70104     70106     70106     70104     70107     70108     70104     70107
     70108     70104     70106     70108     70104     70105     70110     70114     70115
     70111     70110     70113     70111     70110     70112     70112     70110     70113
     70114     70110     70113     70114     70110     70112     70114     70110     70111
     70116     70120     70121     70117     70116     70119     70117     70116     70118
     70118     70116     70119     70120     70116     70119     70120     70116     70118
     70120     70116     70117     70122     70126     70127     70123     70122     70125
     70123     70122     70124     70124     70122     70125     70126     70122     70125
     70126     70122     70124     70126     70122     70123     70128     70132     70133
     70129     70128     70131     70129     70128     70130     70130     70128     70131
     70132     70128     70131     70132     70128     70130     70132     70128     70129
     70134     70138     70139     70135     70134     70137     70135     70134     70136
     70136     70134     70137     70138     70134     70137     70138     70134     70136
     70138     70134     70135     70140     70144     70145     70141     70140     70143
     70141     70140     70142     70142     70140     70143     70144     70140     70143
     70144     70140     70142     70144     70140     70141     70146     70150     70151
     70147     70146     70149     70147     70146     70148     70148     70146     70149
     70150     70146     70149     70150     70146     70148     70150     70146     70147
     70152     70156     70157     70153     70152     70155     70153     70152     70154
     70154     70152     70155     70156     70152     70155     70156     70152     70154
     70156     70152     70153     70158     70162     70163     70159     70158     70161
     70159     70158     70160     70160     70158     70161     70162     70158     70161
     70162     70158     70160     70162     70158     70159     70164     70168     70169
     70165     70164     70167     70165     70164     70166     70166     70164     70167
     70168     70164     70167     70168     70164     70166     70168     70164     70165
     70170     70174     70175     70171     70170     70173     70171     70170     70172
     70172     70170     70173     70174     70170     70173     70174     70170     70172
     70174     70170     70171     70176     70180     70181     70177     70176     70179
     70177     70176     70178     70178     70176     70179     70180     70176     70179
     70180     70176     70178     70180     70176     70177     70182     70186     70187
     70183     70182     70185     70183     70182     70184     70184     70182     70185
     70186     70182     70185     70186     70182     70184     70186     70182     70183
     70188     70192     70193     70189     70188     70191     70189     70188     70190
     70190     70188     70191     70192     70188     70191     70192     70188     70190
     70192     70188     70189     70194     70198     70199     70195     70194     70197
     70195     70194     70196     70196     70194     70197     70198     70194     70197
     70198     70194     70196     70198     70194     70195     70200     70204     70205
     70201     70200     70203     70201     70200     70202     70202     70200     70203
     70204     70200     70203     70204     70200     70202     70204     70200     70201
     70206     70210     70211     70207     70206     70209     70207     70206     70208
     70208     70206     70209     70210     70206     70209     70210     70206     70208
     70210     70206     70207     70212     70216     70217     70213     70212     70215
     70213     70212     70214     70214     70212     70215     70216     70212     70215
     70216     70212     70214     70216     70212     70213     70218     70222     70223
     70219     70218     70221     70219     70218     70220     70220     70218     70221
     70222     70218     70221     70222     70218     70220     70222     70218     70219
     70224     70228     70229     70225     70224     70227     70225     70224     70226
     70226     70224     70227     70228     70224     70227     70228     70224     70226
     70228     70224     70225     70230     70234     70235     70231     70230     70233
     70231     70230     70232     70232     70230     70233     70234     70230     70233
     70234     70230     70232     70234     70230     70231     70236     70240     70241
     70237     70236     70239     70237     70236     70238     70238     70236     70239
     70240     70236     70239     70240     70236     70238     70240     70236     70237
     70242     70246     70247     70243     70242     70245     70243     70242     70244
     70244     70242     70245     70246     70242     70245     70246     70242     70244
     70246     70242     70243     70248     70252     70253     70249     70248     70251
     70249     70248     70250     70250     70248     70251     70252     70248     70251
     70252     70248     70250     70252     70248     70249     70254     70258     70259
     70255     70254     70257     70255     70254     70256     70256     70254     70257
     70258     70254     70257     70258     70254     70256     70258     70254     70255
     70260     70264     70265     70261     70260     70263     70261     70260     70262
     70262     70260     70263     70264     70260     70263     70264     70260     70262
     70264     70260     70261     70266     70270     70271     70267     70266     70269
     70267     70266     70268     70268     70266     70269     70270     70266     70269
     70270     70266     70268     70270     70266     70267     70272     70276     70277
     70273     70272     70275     70273     70272     70274     70274     70272     70275
     70276     70272     70275     70276     70272     70274     70276     70272     70273
     70278     70282     70283     70279     70278     70281     70279     70278     70280
     70280     70278     70281     70282     70278     70281     70282     70278     70280
     70282     70278     70279     70284     70288     70289     70285     70284     70287
     70285     70284     70286     70286     70284     70287     70288     70284     70287
     70288     70284     70286     70288     70284     70285     70290     70294     70295
     70291     70290     70293     70291     70290     70292     70292     70290     70293
     70294     70290     70293     70294     70290     70292     70294     70290     70291
     70296     70300     70301     70297     70296     70299     70297     70296     70298
     70298     70296     70299     70300     70296     70299     70300     70296     70298
     70300     70296     70297     70302     70306     70307     70303     70302     70305
     70303     70302     70304     70304     70302     70305     70306     70302     70305
     70306     70302     70304     70306     70302     70303     70308     70312     70313
     70309     70308     70311     70309     70308     70310     70310     70308     70311
     70312     70308     70311     70312     70308     70310     70312     70308     70309
     70314     70318     70319     70315     70314     70317     70315     70314     70316
     70316     70314     70317     70318     70314     70317     70318     70314     70316
     70318     70314     70315     70320     70324     70325     70321     70320     70323
     70321     70320     70322     70322     70320     70323     70324     70320     70323
     70324     70320     70322     70324     70320     70321     70326     70330     70331
     70327     70326     70329     70327     70326     70328     70328     70326     70329
     70330     70326     70329     70330     70326     70328     70330     70326     70327
     70332     70336     70337     70333     70332     70335     70333     70332     70334
     70334     70332     70335     70336     70332     70335     70336     70332     70334
     70336     70332     70333     70338     70342     70343     70339     70338     70341
     70339     70338     70340     70340     70338     70341     70342     70338     70341
     70342     70338     70340     70342     70338     70339     70344     70348     70349
     70345     70344     70347     70345     70344     70346     70346     70344     70347
     70348     70344     70347     70348     70344     70346     70348     70344     70345
     70350     70354     70355     70351     70350     70353     70351     70350     70352
     70352     70350     70353     70354     70350     70353     70354     70350     70352
     70354     70350     70351     70356     70360     70361     70357     70356     70359
     70357     70356     70358     70358     70356     70359     70360     70356     70359
     70360     70356     70358     70360     70356     70357     70362     70366     70367
     70363     70362     70365     70363     70362     70364     70364     70362     70365
     70366     70362     70365     70366     70362     70364     70366     70362     70363
     70368     70372     70373     70369     70368     70371     70369     70368     70370
     70370     70368     70371     70372     70368     70371     70372     70368     70370
     70372     70368     70369     70374     70378     70379     70375     70374     70377
     70375     70374     70376     70376     70374     70377     70378     70374     70377
     70378     70374     70376     70378     70374     70375     70380     70384     70385
     70381     70380     70383     70381     70380     70382     70382     70380     70383
     70384     70380     70383     70384     70380     70382     70384     70380     70381
     70386     70390     70391     70387     70386     70389     70387     70386     70388
     70388     70386     70389     70390     70386     70389     70390     70386     70388
     70390     70386     70387     70392     70396     70397     70393     70392     70395
     70393     70392     70394     70394     70392     70395     70396     70392     70395
     70396     70392     70394     70396     70392     70393     70398     70402     70403
     70399     70398     70401     70399     70398     70400     70400     70398     70401
     70402     70398     70401     70402     70398     70400     70402     70398     70399
     70404     70408     70409     70405     70404     70407     70405     70404     70406
     70406     70404     70407     70408     70404     70407     70408     70404     70406
     70408     70404     70405     70410     70414     70415     70411     70410     70413
     70411     70410     70412     70412     70410     70413     70414     70410     70413
     70414     70410     70412     70414     70410     70411     70416     70420     70421
     70417     70416     70419     70417     70416     70418     70418     70416     70419
     70420     70416     70419     70420     70416     70418     70420     70416     70417
     70422     70426     70427     70423     70422     70425     70423     70422     70424
     70424     70422     70425     70426     70422     70425     70426     70422     70424
     70426     70422     70423     70428     70432     70433     70429     70428     70431
     70429     70428     70430     70430     70428     70431     70432     70428     70431
     70432     70428     70430     70432     70428     70429     70434     70438     70439
     70435     70434     70437     70435     70434     70436     70436     70434     70437
     70438     70434     70437     70438     70434     70436     70438     70434     70435
     70440     70444     70445     70441     70440     70443     70441     70440     70442
     70442     70440     70443     70444     70440     70443     70444     70440     70442
     70444     70440     70441     70446     70450     70451     70447     70446     70449
     70447     70446     70448     70448     70446     70449     70450     70446     70449
     70450     70446     70448     70450     70446     70447     70452     70456     70457
     70453     70452     70455     70453     70452     70454     70454     70452     70455
     70456     70452     70455     70456     70452     70454     70456     70452     70453
     70458     70462     70463     70459     70458     70461     70459     70458     70460
     70460     70458     70461     70462     70458     70461     70462     70458     70460
     70462     70458     70459     70464     70468     70469     70465     70464     70467
     70465     70464     70466     70466     70464     70467     70468     70464     70467
     70468     70464     70466     70468     70464     70465     70470     70474     70475
     70471     70470     70473     70471     70470     70472     70472     70470     70473
     70474     70470     70473     70474     70470     70472     70474     70470     70471
     70476     70480     70481     70477     70476     70479     70477     70476     70478
     70478     70476     70479     70480     70476     70479     70480     70476     70478
     70480     70476     70477     70482     70486     70487     70483     70482     70485
     70483     70482     70484     70484     70482     70485     70486     70482     70485
     70486     70482     70484     70486     70482     70483     70488     70492     70493
     70489     70488     70491     70489     70488     70490     70490     70488     70491
     70492     70488     70491     70492     70488     70490     70492     70488     70489
     70494     70498     70499     70495     70494     70497     70495     70494     70496
     70496     70494     70497     70498     70494     70497     70498     70494     70496
     70498     70494     70495     70500     70504     70505     70501     70500     70503
     70501     70500     70502     70502     70500     70503     70504     70500     70503
     70504     70500     70502     70504     70500     70501     70506     70510     70511
     70507     70506     70509     70507     70506     70508     70508     70506     70509
     70510     70506     70509     70510     70506     70508     70510     70506     70507
     70512     70516     70517     70513     70512     70515     70513     70512     70514
     70514     70512     70515     70516     70512     70515     70516     70512     70514
     70516     70512     70513     70518     70522     70523     70519     70518     70521
     70519     70518     70520     70520     70518     70521     70522     70518     70521
     70522     70518     70520     70522     70518     70519     70524     70528     70529
     70525     70524     70527     70525     70524     70526     70526     70524     70527
     70528     70524     70527     70528     70524     70526     70528     70524     70525
     70530     70534     70535     70531     70530     70533     70531     70530     70532
     70532     70530     70533     70534     70530     70533     70534     70530     70532
     70534     70530     70531     70536     70540     70541     70537     70536     70539
     70537     70536     70538     70538     70536     70539     70540     70536     70539
     70540     70536     70538     70540     70536     70537     70542     70546     70547
     70543     70542     70545     70543     70542     70544     70544     70542     70545
     70546     70542     70545     70546     70542     70544     70546     70542     70543
     70548     70552     70553     70549     70548     70551     70549     70548     70550
     70550     70548     70551     70552     70548     70551     70552     70548     70550
     70552     70548     70549     70554     70558     70559     70555     70554     70557
     70555     70554     70556     70556     70554     70557     70558     70554     70557
     70558     70554     70556     70558     70554     70555     70560     70564     70565
     70561     70560     70563     70561     70560     70562     70562     70560     70563
     70564     70560     70563     70564     70560     70562     70564     70560     70561
     70566     70570     70571     70567     70566     70569     70567     70566     70568
     70568     70566     70569     70570     70566     70569     70570     70566     70568
     70570     70566     70567     70572     70576     70577     70573     70572     70575
     70573     70572     70574     70574     70572     70575     70576     70572     70575
     70576     70572     70574     70576     70572     70573     70578     70582     70583
     70579     70578     70581     70579     70578     70580     70580     70578     70581
     70582     70578     70581     70582     70578     70580     70582     70578     70579
     70584     70588     70589     70585     70584     70587     70585     70584     70586
     70586     70584     70587     70588     70584     70587     70588     70584     70586
     70588     70584     70585     70590     70594     70595     70591     70590     70593
     70591     70590     70592     70592     70590     70593     70594     70590     70593
     70594     70590     70592     70594     70590     70591     70596     70600     70601
     70597     70596     70599     70597     70596     70598     70598     70596     70599
     70600     70596     70599     70600     70596     70598     70600     70596     70597
     70602     70606     70607     70603     70602     70605     70603     70602     70604
     70604     70602     70605     70606     70602     70605     70606     70602     70604
     70606     70602     70603     70608     70612     70613     70609     70608     70611
     70609     70608     70610     70610     70608     70611     70612     70608     70611
     70612     70608     70610     70612     70608     70609     70614     70618     70619
     70615     70614     70617     70615     70614     70616     70616     70614     70617
     70618     70614     70617     70618     70614     70616     70618     70614     70615
     70620     70624     70625     70621     70620     70623     70621     70620     70622
     70622     70620     70623     70624     70620     70623     70624     70620     70622
     70624     70620     70621     70626     70630     70631     70627     70626     70629
     70627     70626     70628     70628     70626     70629     70630     70626     70629
     70630     70626     70628     70630     70626     70627     70632     70636     70637
     70633     70632     70635     70633     70632     70634     70634     70632     70635
     70636     70632     70635     70636     70632     70634     70636     70632     70633
     70638     70642     70643     70639     70638     70641     70639     70638     70640
     70640     70638     70641     70642     70638     70641     70642     70638     70640
     70642     70638     70639     70644     70648     70649     70645     70644     70647
     70645     70644     70646     70646     70644     70647     70648     70644     70647
     70648     70644     70646     70648     70644     70645     70650     70654     70655
     70651     70650     70653     70651     70650     70652     70652     70650     70653
     70654     70650     70653     70654     70650     70652     70654     70650     70651
     70656     70660     70661     70657     70656     70659     70657     70656     70658
     70658     70656     70659     70660     70656     70659     70660     70656     70658
     70660     70656     70657     70662     70666     70667     70663     70662     70665
     70663     70662     70664     70664     70662     70665     70666     70662     70665
     70666     70662     70664     70666     70662     70663     70668     70672     70673
     70669     70668     70671     70669     70668     70670     70670     70668     70671
     70672     70668     70671     70672     70668     70670     70672     70668     70669
     70674     70678     70679     70675     70674     70677     70675     70674     70676
     70676     70674     70677     70678     70674     70677     70678     70674     70676
     70678     70674     70675     70680     70684     70685     70681     70680     70683
     70681     70680     70682     70682     70680     70683     70684     70680     70683
     70684     70680     70682     70684     70680     70681     70686     70690     70691
     70687     70686     70689     70687     70686     70688     70688     70686     70689
     70690     70686     70689     70690     70686     70688     70690     70686     70687
     70692     70696     70697     70693     70692     70695     70693     70692     70694
     70694     70692     70695     70696     70692     70695     70696     70692     70694
     70696     70692     70693     70698     70702     70703     70699     70698     70701
     70699     70698     70700     70700     70698     70701     70702     70698     70701
     70702     70698     70700     70702     70698     70699     70704     70708     70709
     70705     70704     70707     70705     70704     70706     70706     70704     70707
     70708     70704     70707     70708     70704     70706     70708     70704     70705
     70710     70714     70715     70711     70710     70713     70711     70710     70712
     70712     70710     70713     70714     70710     70713     70714     70710     70712
     70714     70710     70711     70716     70720     70721     70717     70716     70719
     70717     70716     70718     70718     70716     70719     70720     70716     70719
     70720     70716     70718     70720     70716     70717     70722     70726     70727
     70723     70722     70725     70723     70722     70724     70724     70722     70725
     70726     70722     70725     70726     70722     70724     70726     70722     70723
     70728     70732     70733     70729     70728     70731     70729     70728     70730
     70730     70728     70731     70732     70728     70731     70732     70728     70730
     70732     70728     70729     70734     70738     70739     70735     70734     70737
     70735     70734     70736     70736     70734     70737     70738     70734     70737
     70738     70734     70736     70738     70734     70735     70740     70744     70745
     70741     70740     70743     70741     70740     70742     70742     70740     70743
     70744     70740     70743     70744     70740     70742     70744     70740     70741
     70746     70750     70751     70747     70746     70749     70747     70746     70748
     70748     70746     70749     70750     70746     70749     70750     70746     70748
     70750     70746     70747     70752     70756     70757     70753     70752     70755
     70753     70752     70754     70754     70752     70755     70756     70752     70755
     70756     70752     70754     70756     70752     70753     70758     70762     70763
     70759     70758     70761     70759     70758     70760     70760     70758     70761
     70762     70758     70761     70762     70758     70760     70762     70758     70759
     70764     70768     70769     70765     70764     70767     70765     70764     70766
     70766     70764     70767     70768     70764     70767     70768     70764     70766
     70768     70764     70765     70770     70774     70775     70771     70770     70773
     70771     70770     70772     70772     70770     70773     70774     70770     70773
     70774     70770     70772     70774     70770     70771     70776     70780     70781
     70777     70776     70779     70777     70776     70778     70778     70776     70779
     70780     70776     70779     70780     70776     70778     70780     70776     70777
     70782     70786     70787     70783     70782     70785     70783     70782     70784
     70784     70782     70785     70786     70782     70785     70786     70782     70784
     70786     70782     70783     70788     70792     70793     70789     70788     70791
     70789     70788     70790     70790     70788     70791     70792     70788     70791
     70792     70788     70790     70792     70788     70789     70794     70798     70799
     70795     70794     70797     70795     70794     70796     70796     70794     70797
     70798     70794     70797     70798     70794     70796     70798     70794     70795
     70800     70804     70805     70801     70800     70803     70801     70800     70802
     70802     70800     70803     70804     70800     70803     70804     70800     70802
     70804     70800     70801     70806     70810     70811     70807     70806     70809
     70807     70806     70808     70808     70806     70809     70810     70806     70809
     70810     70806     70808     70810     70806     70807     70812     70816     70817
     70813     70812     70815     70813     70812     70814     70814     70812     70815
     70816     70812     70815     70816     70812     70814     70816     70812     70813
     70818     70822     70823     70819     70818     70821     70819     70818     70820
     70820     70818     70821     70822     70818     70821     70822     70818     70820
     70822     70818     70819     70824     70828     70829     70825     70824     70827
     70825     70824     70826     70826     70824     70827     70828     70824     70827
     70828     70824     70826     70828     70824     70825     70830     70834     70835
     70831     70830     70833     70831     70830     70832     70832     70830     70833
     70834     70830     70833     70834     70830     70832     70834     70830     70831
     70836     70840     70841     70837     70836     70839     70837     70836     70838
     70838     70836     70839     70840     70836     70839     70840     70836     70838
     70840     70836     70837     70842     70846     70847     70843     70842     70845
     70843     70842     70844     70844     70842     70845     70846     70842     70845
     70846     70842     70844     70846     70842     70843     70848     70852     70853
     70849     70848     70851     70849     70848     70850     70850     70848     70851
     70852     70848     70851     70852     70848     70850     70852     70848     70849
     70854     70858     70859     70855     70854     70857     70855     70854     70856
     70856     70854     70857     70858     70854     70857     70858     70854     70856
     70858     70854     70855     70860     70864     70865     70861     70860     70863
     70861     70860     70862     70862     70860     70863     70864     70860     70863
     70864     70860     70862     70864     70860     70861     70866     70870     70871
     70867     70866     70869     70867     70866     70868     70868     70866     70869
     70870     70866     70869     70870     70866     70868     70870     70866     70867
     70872     70876     70877     70873     70872     70875     70873     70872     70874
     70874     70872     70875     70876     70872     70875     70876     70872     70874
     70876     70872     70873     70878     70882     70883     70879     70878     70881
     70879     70878     70880     70880     70878     70881     70882     70878     70881
     70882     70878     70880     70882     70878     70879     70884     70888     70889
     70885     70884     70887     70885     70884     70886     70886     70884     70887
     70888     70884     70887     70888     70884     70886     70888     70884     70885
     70890     70894     70895     70891     70890     70893     70891     70890     70892
     70892     70890     70893     70894     70890     70893     70894     70890     70892
     70894     70890     70891     70896     70900     70901     70897     70896     70899
     70897     70896     70898     70898     70896     70899     70900     70896     70899
     70900     70896     70898     70900     70896     70897     70902     70906     70907
     70903     70902     70905     70903     70902     70904     70904     70902     70905
     70906     70902     70905     70906     70902     70904     70906     70902     70903
     70908     70912     70913     70909     70908     70911     70909     70908     70910
     70910     70908     70911     70912     70908     70911     70912     70908     70910
     70912     70908     70909     70914     70918     70919     70915     70914     70917
     70915     70914     70916     70916     70914     70917     70918     70914     70917
     70918     70914     70916     70918     70914     70915     70920     70924     70925
     70921     70920     70923     70921     70920     70922     70922     70920     70923
     70924     70920     70923     70924     70920     70922     70924     70920     70921
     70926     70930     70931     70927     70926     70929     70927     70926     70928
     70928     70926     70929     70930     70926     70929     70930     70926     70928
     70930     70926     70927     70932     70936     70937     70933     70932     70935
     70933     70932     70934     70934     70932     70935     70936     70932     70935
     70936     70932     70934     70936     70932     70933     70938     70942     70943
     70939     70938     70941     70939     70938     70940     70940     70938     70941
     70942     70938     70941     70942     70938     70940     70942     70938     70939
     70944     70948     70949     70945     70944     70947     70945     70944     70946
     70946     70944     70947     70948     70944     70947     70948     70944     70946
     70948     70944     70945     70950     70954     70955     70951     70950     70953
     70951     70950     70952     70952     70950     70953     70954     70950     70953
     70954     70950     70952     70954     70950     70951     70956     70960     70961
     70957     70956     70959     70957     70956     70958     70958     70956     70959
     70960     70956     70959     70960     70956     70958     70960     70956     70957
     70962     70966     70967     70963     70962     70965     70963     70962     70964
     70964     70962     70965     70966     70962     70965     70966     70962     70964
     70966     70962     70963     70968     70972     70973     70969     70968     70971
     70969     70968     70970     70970     70968     70971     70972     70968     70971
     70972     70968     70970     70972     70968     70969     70974     70978     70979
     70975     70974     70977     70975     70974     70976     70976     70974     70977
     70978     70974     70977     70978     70974     70976     70978     70974     70975
     70980     70984     70985     70981     70980     70983     70981     70980     70982
     70982     70980     70983     70984     70980     70983     70984     70980     70982
     70984     70980     70981     70986     70990     70991     70987     70986     70989
     70987     70986     70988     70988     70986     70989     70990     70986     70989
     70990     70986     70988     70990     70986     70987     70992     70996     70997
     70993     70992     70995     70993     70992     70994     70994     70992     70995
     70996     70992     70995     70996     70992     70994     70996     70992     70993
     70998     71002     71003     70999     70998     71001     70999     70998     71000
     71000     70998     71001     71002     70998     71001     71002     70998     71000
     71002     70998     70999     71004     71008     71009     71005     71004     71007
     71005     71004     71006     71006     71004     71007     71008     71004     71007
     71008     71004     71006     71008     71004     71005     71010     71014     71015
     71011     71010     71013     71011     71010     71012     71012     71010     71013
     71014     71010     71013     71014     71010     71012     71014     71010     71011
     71016     71020     71021     71017     71016     71019     71017     71016     71018
     71018     71016     71019     71020     71016     71019     71020     71016     71018
     71020     71016     71017     71022     71026     71027     71023     71022     71025
     71023     71022     71024     71024     71022     71025     71026     71022     71025
     71026     71022     71024     71026     71022     71023     71028     71032     71033
     71029     71028     71031     71029     71028     71030     71030     71028     71031
     71032     71028     71031     71032     71028     71030     71032     71028     71029
     71034     71038     71039     71035     71034     71037     71035     71034     71036
     71036     71034     71037     71038     71034     71037     71038     71034     71036
     71038     71034     71035     71040     71044     71045     71041     71040     71043
     71041     71040     71042     71042     71040     71043     71044     71040     71043
     71044     71040     71042     71044     71040     71041     71046     71050     71051
     71047     71046     71049     71047     71046     71048     71048     71046     71049
     71050     71046     71049     71050     71046     71048     71050     71046     71047
     71052     71056     71057     71053     71052     71055     71053     71052     71054
     71054     71052     71055     71056     71052     71055     71056     71052     71054
     71056     71052     71053     71058     71062     71063     71059     71058     71061
     71059     71058     71060     71060     71058     71061     71062     71058     71061
     71062     71058     71060     71062     71058     71059     71064     71068     71069
     71065     71064     71067     71065     71064     71066     71066     71064     71067
     71068     71064     71067     71068     71064     71066     71068     71064     71065
     71070     71074     71075     71071     71070     71073     71071     71070     71072
     71072     71070     71073     71074     71070     71073     71074     71070     71072
     71074     71070     71071     71076     71080     71081     71077     71076     71079
     71077     71076     71078     71078     71076     71079     71080     71076     71079
     71080     71076     71078     71080     71076     71077     71082     71086     71087
     71083     71082     71085     71083     71082     71084     71084     71082     71085
     71086     71082     71085     71086     71082     71084     71086     71082     71083
     71088     71092     71093     71089     71088     71091     71089     71088     71090
     71090     71088     71091     71092     71088     71091     71092     71088     71090
     71092     71088     71089     71094     71098     71099     71095     71094     71097
     71095     71094     71096     71096     71094     71097     71098     71094     71097
     71098     71094     71096     71098     71094     71095     71100     71104     71105
     71101     71100     71103     71101     71100     71102     71102     71100     71103
     71104     71100     71103     71104     71100     71102     71104     71100     71101
     71106     71110     71111     71107     71106     71109     71107     71106     71108
     71108     71106     71109     71110     71106     71109     71110     71106     71108
     71110     71106     71107     71112     71116     71117     71113     71112     71115
     71113     71112     71114     71114     71112     71115     71116     71112     71115
     71116     71112     71114     71116     71112     71113     71118     71122     71123
     71119     71118     71121     71119     71118     71120     71120     71118     71121
     71122     71118     71121     71122     71118     71120     71122     71118     71119
     71124     71128     71129     71125     71124     71127     71125     71124     71126
     71126     71124     71127     71128     71124     71127     71128     71124     71126
     71128     71124     71125     71130     71134     71135     71131     71130     71133
     71131     71130     71132     71132     71130     71133     71134     71130     71133
     71134     71130     71132     71134     71130     71131     71136     71140     71141
     71137     71136     71139     71137     71136     71138     71138     71136     71139
     71140     71136     71139     71140     71136     71138     71140     71136     71137
     71142     71146     71147     71143     71142     71145     71143     71142     71144
     71144     71142     71145     71146     71142     71145     71146     71142     71144
     71146     71142     71143     71148     71152     71153     71149     71148     71151
     71149     71148     71150     71150     71148     71151     71152     71148     71151
     71152     71148     71150     71152     71148     71149     71154     71158     71159
     71155     71154     71157     71155     71154     71156     71156     71154     71157
     71158     71154     71157     71158     71154     71156     71158     71154     71155
     71160     71164     71165     71161     71160     71163     71161     71160     71162
     71162     71160     71163     71164     71160     71163     71164     71160     71162
     71164     71160     71161     71166     71170     71171     71167     71166     71169
     71167     71166     71168     71168     71166     71169     71170     71166     71169
     71170     71166     71168     71170     71166     71167     71172     71176     71177
     71173     71172     71175     71173     71172     71174     71174     71172     71175
     71176     71172     71175     71176     71172     71174     71176     71172     71173
     71178     71182     71183     71179     71178     71181     71179     71178     71180
     71180     71178     71181     71182     71178     71181     71182     71178     71180
     71182     71178     71179     71184     71188     71189     71185     71184     71187
     71185     71184     71186     71186     71184     71187     71188     71184     71187
     71188     71184     71186     71188     71184     71185     71190     71194     71195
     71191     71190     71193     71191     71190     71192     71192     71190     71193
     71194     71190     71193     71194     71190     71192     71194     71190     71191
     71196     71200     71201     71197     71196     71199     71197     71196     71198
     71198     71196     71199     71200     71196     71199     71200     71196     71198
     71200     71196     71197     71202     71206     71207     71203     71202     71205
     71203     71202     71204     71204     71202     71205     71206     71202     71205
     71206     71202     71204     71206     71202     71203     71208     71212     71213
     71209     71208     71211     71209     71208     71210     71210     71208     71211
     71212     71208     71211     71212     71208     71210     71212     71208     71209
     71214     71218     71219     71215     71214     71217     71215     71214     71216
     71216     71214     71217     71218     71214     71217     71218     71214     71216
     71218     71214     71215     71220     71224     71225     71221     71220     71223
     71221     71220     71222     71222     71220     71223     71224     71220     71223
     71224     71220     71222     71224     71220     71221     71226     71230     71231
     71227     71226     71229     71227     71226     71228     71228     71226     71229
     71230     71226     71229     71230     71226     71228     71230     71226     71227
     71232     71236     71237     71233     71232     71235     71233     71232     71234
     71234     71232     71235     71236     71232     71235     71236     71232     71234
     71236     71232     71233     71238     71242     71243     71239     71238     71241
     71239     71238     71240     71240     71238     71241     71242     71238     71241
     71242     71238     71240     71242     71238     71239     71244     71248     71249
     71245     71244     71247     71245     71244     71246     71246     71244     71247
     71248     71244     71247     71248     71244     71246     71248     71244     71245
     71250     71254     71255     71251     71250     71253     71251     71250     71252
     71252     71250     71253     71254     71250     71253     71254     71250     71252
     71254     71250     71251     71256     71260     71261     71257     71256     71259
     71257     71256     71258     71258     71256     71259     71260     71256     71259
     71260     71256     71258     71260     71256     71257     71262     71266     71267
     71263     71262     71265     71263     71262     71264     71264     71262     71265
     71266     71262     71265     71266     71262     71264     71266     71262     71263
     71268     71272     71273     71269     71268     71271     71269     71268     71270
     71270     71268     71271     71272     71268     71271     71272     71268     71270
     71272     71268     71269     71274     71278     71279     71275     71274     71277
     71275     71274     71276     71276     71274     71277     71278     71274     71277
     71278     71274     71276     71278     71274     71275     71280     71284     71285
     71281     71280     71283     71281     71280     71282     71282     71280     71283
     71284     71280     71283     71284     71280     71282     71284     71280     71281
     71286     71290     71291     71287     71286     71289     71287     71286     71288
     71288     71286     71289     71290     71286     71289     71290     71286     71288
     71290     71286     71287     71292     71296     71297     71293     71292     71295
     71293     71292     71294     71294     71292     71295     71296     71292     71295
     71296     71292     71294     71296     71292     71293     71298     71302     71303
     71299     71298     71301     71299     71298     71300     71300     71298     71301
     71302     71298     71301     71302     71298     71300     71302     71298     71299
     71304     71308     71309     71305     71304     71307     71305     71304     71306
     71306     71304     71307     71308     71304     71307     71308     71304     71306
     71308     71304     71305     71310     71314     71315     71311     71310     71313
     71311     71310     71312     71312     71310     71313     71314     71310     71313
     71314     71310     71312     71314     71310     71311     71316     71320     71321
     71317     71316     71319     71317     71316     71318     71318     71316     71319
     71320     71316     71319     71320     71316     71318     71320     71316     71317
     71322     71326     71327     71323     71322     71325     71323     71322     71324
     71324     71322     71325     71326     71322     71325     71326     71322     71324
     71326     71322     71323     71328     71332     71333     71329     71328     71331
     71329     71328     71330     71330     71328     71331     71332     71328     71331
     71332     71328     71330     71332     71328     71329     71334     71338     71339
     71335     71334     71337     71335     71334     71336     71336     71334     71337
     71338     71334     71337     71338     71334     71336     71338     71334     71335
     71340     71344     71345     71341     71340     71343     71341     71340     71342
     71342     71340     71343     71344     71340     71343     71344     71340     71342
     71344     71340     71341     71346     71350     71351     71347     71346     71349
     71347     71346     71348     71348     71346     71349     71350     71346     71349
     71350     71346     71348     71350     71346     71347     71352     71356     71357
     71353     71352     71355     71353     71352     71354     71354     71352     71355
     71356     71352     71355     71356     71352     71354     71356     71352     71353
     71358     71362     71363     71359     71358     71361     71359     71358     71360
     71360     71358     71361     71362     71358     71361     71362     71358     71360
     71362     71358     71359     71364     71368     71369     71365     71364     71367
     71365     71364     71366     71366     71364     71367     71368     71364     71367
     71368     71364     71366     71368     71364     71365     71370     71374     71375
     71371     71370     71373     71371     71370     71372     71372     71370     71373
     71374     71370     71373     71374     71370     71372     71374     71370     71371
     71376     71380     71381     71377     71376     71379     71377     71376     71378
     71378     71376     71379     71380     71376     71379     71380     71376     71378
     71380     71376     71377     71382     71386     71387     71383     71382     71385
     71383     71382     71384     71384     71382     71385     71386     71382     71385
     71386     71382     71384     71386     71382     71383     71388     71392     71393
     71389     71388     71391     71389     71388     71390     71390     71388     71391
     71392     71388     71391     71392     71388     71390     71392     71388     71389
     71394     71398     71399     71395     71394     71397     71395     71394     71396
     71396     71394     71397     71398     71394     71397     71398     71394     71396
     71398     71394     71395     71400     71404     71405     71401     71400     71403
     71401     71400     71402     71402     71400     71403     71404     71400     71403
     71404     71400     71402     71404     71400     71401     71406     71410     71411
     71407     71406     71409     71407     71406     71408     71408     71406     71409
     71410     71406     71409     71410     71406     71408     71410     71406     71407
     71412     71416     71417     71413     71412     71415     71413     71412     71414
     71414     71412     71415     71416     71412     71415     71416     71412     71414
     71416     71412     71413     71418     71422     71423     71419     71418     71421
     71419     71418     71420     71420     71418     71421     71422     71418     71421
     71422     71418     71420     71422     71418     71419     71424     71428     71429
     71425     71424     71427     71425     71424     71426     71426     71424     71427
     71428     71424     71427     71428     71424     71426     71428     71424     71425
     71430     71434     71435     71431     71430     71433     71431     71430     71432
     71432     71430     71433     71434     71430     71433     71434     71430     71432
     71434     71430     71431     71436     71440     71441     71437     71436     71439
     71437     71436     71438     71438     71436     71439     71440     71436     71439
     71440     71436     71438     71440     71436     71437     71442     71446     71447
     71443     71442     71445     71443     71442     71444     71444     71442     71445
     71446     71442     71445     71446     71442     71444     71446     71442     71443
     71448     71452     71453     71449     71448     71451     71449     71448     71450
     71450     71448     71451     71452     71448     71451     71452     71448     71450
     71452     71448     71449     71454     71458     71459     71455     71454     71457
     71455     71454     71456     71456     71454     71457     71458     71454     71457
     71458     71454     71456     71458     71454     71455     71460     71464     71465
     71461     71460     71463     71461     71460     71462     71462     71460     71463
     71464     71460     71463     71464     71460     71462     71464     71460     71461
     71466     71470     71471     71467     71466     71469     71467     71466     71468
     71468     71466     71469     71470     71466     71469     71470     71466     71468
     71470     71466     71467     71472     71476     71477     71473     71472     71475
     71473     71472     71474     71474     71472     71475     71476     71472     71475
     71476     71472     71474     71476     71472     71473     71478     71482     71483
     71479     71478     71481     71479     71478     71480     71480     71478     71481
     71482     71478     71481     71482     71478     71480     71482     71478     71479
     71484     71488     71489     71485     71484     71487     71485     71484     71486
     71486     71484     71487     71488     71484     71487     71488     71484     71486
     71488     71484     71485     71490     71494     71495     71491     71490     71493
     71491     71490     71492     71492     71490     71493     71494     71490     71493
     71494     71490     71492     71494     71490     71491     71496     71500     71501
     71497     71496     71499     71497     71496     71498     71498     71496     71499
     71500     71496     71499     71500     71496     71498     71500     71496     71497
     71502     71506     71507     71503     71502     71505     71503     71502     71504
     71504     71502     71505     71506     71502     71505     71506     71502     71504
     71506     71502     71503     71508     71512     71513     71509     71508     71511
     71509     71508     71510     71510     71508     71511     71512     71508     71511
     71512     71508     71510     71512     71508     71509     71514     71518     71519
     71515     71514     71517     71515     71514     71516     71516     71514     71517
     71518     71514     71517     71518     71514     71516     71518     71514     71515
     71520     71524     71525     71521     71520     71523     71521     71520     71522
     71522     71520     71523     71524     71520     71523     71524     71520     71522
     71524     71520     71521     71526     71530     71531     71527     71526     71529
     71527     71526     71528     71528     71526     71529     71530     71526     71529
     71530     71526     71528     71530     71526     71527     71532     71536     71537
     71533     71532     71535     71533     71532     71534     71534     71532     71535
     71536     71532     71535     71536     71532     71534     71536     71532     71533
     71538     71542     71543     71539     71538     71541     71539     71538     71540
     71540     71538     71541     71542     71538     71541     71542     71538     71540
     71542     71538     71539     71544     71548     71549     71545     71544     71547
     71545     71544     71546     71546     71544     71547     71548     71544     71547
     71548     71544     71546     71548     71544     71545     71550     71554     71555
     71551     71550     71553     71551     71550     71552     71552     71550     71553
     71554     71550     71553     71554     71550     71552     71554     71550     71551
     71556     71560     71561     71557     71556     71559     71557     71556     71558
     71558     71556     71559     71560     71556     71559     71560     71556     71558
     71560     71556     71557     71562     71566     71567     71563     71562     71565
     71563     71562     71564     71564     71562     71565     71566     71562     71565
     71566     71562     71564     71566     71562     71563     71568     71572     71573
     71569     71568     71571     71569     71568     71570     71570     71568     71571
     71572     71568     71571     71572     71568     71570     71572     71568     71569
     71574     71578     71579     71575     71574     71577     71575     71574     71576
     71576     71574     71577     71578     71574     71577     71578     71574     71576
     71578     71574     71575     71580     71584     71585     71581     71580     71583
     71581     71580     71582     71582     71580     71583     71584     71580     71583
     71584     71580     71582     71584     71580     71581     71586     71590     71591
     71587     71586     71589     71587     71586     71588     71588     71586     71589
     71590     71586     71589     71590     71586     71588     71590     71586     71587
     71592     71596     71597     71593     71592     71595     71593     71592     71594
     71594     71592     71595     71596     71592     71595     71596     71592     71594
     71596     71592     71593     71598     71602     71603     71599     71598     71601
     71599     71598     71600     71600     71598     71601     71602     71598     71601
     71602     71598     71600     71602     71598     71599     71604     71608     71609
     71605     71604     71607     71605     71604     71606     71606     71604     71607
     71608     71604     71607     71608     71604     71606     71608     71604     71605
     71610     71614     71615     71611     71610     71613     71611     71610     71612
     71612     71610     71613     71614     71610     71613     71614     71610     71612
     71614     71610     71611     71616     71620     71621     71617     71616     71619
     71617     71616     71618     71618     71616     71619     71620     71616     71619
     71620     71616     71618     71620     71616     71617     71622     71626     71627
     71623     71622     71625     71623     71622     71624     71624     71622     71625
     71626     71622     71625     71626     71622     71624     71626     71622     71623
     71628     71632     71633     71629     71628     71631     71629     71628     71630
     71630     71628     71631     71632     71628     71631     71632     71628     71630
     71632     71628     71629     71634     71638     71639     71635     71634     71637
     71635     71634     71636     71636     71634     71637     71638     71634     71637
     71638     71634     71636     71638     71634     71635     71640     71644     71645
     71641     71640     71643     71641     71640     71642     71642     71640     71643
     71644     71640     71643     71644     71640     71642     71644     71640     71641
     71646     71650     71651     71647     71646     71649     71647     71646     71648
     71648     71646     71649     71650     71646     71649     71650     71646     71648
     71650     71646     71647     71652     71656     71657     71653     71652     71655
     71653     71652     71654     71654     71652     71655     71656     71652     71655
     71656     71652     71654     71656     71652     71653     71658     71662     71663
     71659     71658     71661     71659     71658     71660     71660     71658     71661
     71662     71658     71661     71662     71658     71660     71662     71658     71659
     71664     71668     71669     71665     71664     71667     71665     71664     71666
     71666     71664     71667     71668     71664     71667     71668     71664     71666
     71668     71664     71665     71670     71674     71675     71671     71670     71673
     71671     71670     71672     71672     71670     71673     71674     71670     71673
     71674     71670     71672     71674     71670     71671     71676     71680     71681
     71677     71676     71679     71677     71676     71678     71678     71676     71679
     71680     71676     71679     71680     71676     71678     71680     71676     71677
     71682     71686     71687     71683     71682     71685     71683     71682     71684
     71684     71682     71685     71686     71682     71685     71686     71682     71684
     71686     71682     71683     71688     71692     71693     71689     71688     71691
     71689     71688     71690     71690     71688     71691     71692     71688     71691
     71692     71688     71690     71692     71688     71689     71694     71698     71699
     71695     71694     71697     71695     71694     71696     71696     71694     71697
     71698     71694     71697     71698     71694     71696     71698     71694     71695
     71700     71704     71705     71701     71700     71703     71701     71700     71702
     71702     71700     71703     71704     71700     71703     71704     71700     71702
     71704     71700     71701     71706     71710     71711     71707     71706     71709
     71707     71706     71708     71708     71706     71709     71710     71706     71709
     71710     71706     71708     71710     71706     71707     71712     71716     71717
     71713     71712     71715     71713     71712     71714     71714     71712     71715
     71716     71712     71715     71716     71712     71714     71716     71712     71713
     71718     71722     71723     71719     71718     71721     71719     71718     71720
     71720     71718     71721     71722     71718     71721     71722     71718     71720
     71722     71718     71719     71724     71728     71729     71725     71724     71727
     71725     71724     71726     71726     71724     71727     71728     71724     71727
     71728     71724     71726     71728     71724     71725     71730     71734     71735
     71731     71730     71733     71731     71730     71732     71732     71730     71733
     71734     71730     71733     71734     71730     71732     71734     71730     71731
     71736     71740     71741     71737     71736     71739     71737     71736     71738
     71738     71736     71739     71740     71736     71739     71740     71736     71738
     71740     71736     71737     71742     71746     71747     71743     71742     71745
     71743     71742     71744     71744     71742     71745     71746     71742     71745
     71746     71742     71744     71746     71742     71743     71748     71752     71753
     71749     71748     71751     71749     71748     71750     71750     71748     71751
     71752     71748     71751     71752     71748     71750     71752     71748     71749
     71754     71758     71759     71755     71754     71757     71755     71754     71756
     71756     71754     71757     71758     71754     71757     71758     71754     71756
     71758     71754     71755     71760     71764     71765     71761     71760     71763
     71761     71760     71762     71762     71760     71763     71764     71760     71763
     71764     71760     71762     71764     71760     71761     71766     71770     71771
     71767     71766     71769     71767     71766     71768     71768     71766     71769
     71770     71766     71769     71770     71766     71768     71770     71766     71767
     71772     71776     71777     71773     71772     71775     71773     71772     71774
     71774     71772     71775     71776     71772     71775     71776     71772     71774
     71776     71772     71773     71778     71782     71783     71779     71778     71781
     71779     71778     71780     71780     71778     71781     71782     71778     71781
     71782     71778     71780     71782     71778     71779     71784     71788     71789
     71785     71784     71787     71785     71784     71786     71786     71784     71787
     71788     71784     71787     71788     71784     71786     71788     71784     71785
     71790     71794     71795     71791     71790     71793     71791     71790     71792
     71792     71790     71793     71794     71790     71793     71794     71790     71792
     71794     71790     71791     71796     71800     71801     71797     71796     71799
     71797     71796     71798     71798     71796     71799     71800     71796     71799
     71800     71796     71798     71800     71796     71797     71802     71806     71807
     71803     71802     71805     71803     71802     71804     71804     71802     71805
     71806     71802     71805     71806     71802     71804     71806     71802     71803
     71808     71812     71813     71809     71808     71811     71809     71808     71810
     71810     71808     71811     71812     71808     71811     71812     71808     71810
     71812     71808     71809     71814     71818     71819     71815     71814     71817
     71815     71814     71816     71816     71814     71817     71818     71814     71817
     71818     71814     71816     71818     71814     71815     71820     71824     71825
     71821     71820     71823     71821     71820     71822     71822     71820     71823
     71824     71820     71823     71824     71820     71822     71824     71820     71821
     71826     71830     71831     71827     71826     71829     71827     71826     71828
     71828     71826     71829     71830     71826     71829     71830     71826     71828
     71830     71826     71827     71832     71836     71837     71833     71832     71835
     71833     71832     71834     71834     71832     71835     71836     71832     71835
     71836     71832     71834     71836     71832     71833     71838     71842     71843
     71839     71838     71841     71839     71838     71840     71840     71838     71841
     71842     71838     71841     71842     71838     71840     71842     71838     71839
     71844     71848     71849     71845     71844     71847     71845     71844     71846
     71846     71844     71847     71848     71844     71847     71848     71844     71846
     71848     71844     71845     71850     71854     71855     71851     71850     71853
     71851     71850     71852     71852     71850     71853     71854     71850     71853
     71854     71850     71852     71854     71850     71851     71856     71860     71861
     71857     71856     71859     71857     71856     71858     71858     71856     71859
     71860     71856     71859     71860     71856     71858     71860     71856     71857
     71862     71866     71867     71863     71862     71865     71863     71862     71864
     71864     71862     71865     71866     71862     71865     71866     71862     71864
     71866     71862     71863     71868     71872     71873     71869     71868     71871
     71869     71868     71870     71870     71868     71871     71872     71868     71871
     71872     71868     71870     71872     71868     71869     71874     71878     71879
     71875     71874     71877     71875     71874     71876     71876     71874     71877
     71878     71874     71877     71878     71874     71876     71878     71874     71875
     71880     71884     71885     71881     71880     71883     71881     71880     71882
     71882     71880     71883     71884     71880     71883     71884     71880     71882
     71884     71880     71881     71886     71890     71891     71887     71886     71889
     71887     71886     71888     71888     71886     71889     71890     71886     71889
     71890     71886     71888     71890     71886     71887     71892     71896     71897
     71893     71892     71895     71893     71892     71894     71894     71892     71895
     71896     71892     71895     71896     71892     71894     71896     71892     71893
     71898     71902     71903     71899     71898     71901     71899     71898     71900
     71900     71898     71901     71902     71898     71901     71902     71898     71900
     71902     71898     71899     71904     71908     71909     71905     71904     71907
     71905     71904     71906     71906     71904     71907     71908     71904     71907
     71908     71904     71906     71908     71904     71905     71910     71914     71915
     71911     71910     71913     71911     71910     71912     71912     71910     71913
     71914     71910     71913     71914     71910     71912     71914     71910     71911
     71916     71920     71921     71917     71916     71919     71917     71916     71918
     71918     71916     71919     71920     71916     71919     71920     71916     71918
     71920     71916     71917     71922     71926     71927     71923     71922     71925
     71923     71922     71924     71924     71922     71925     71926     71922     71925
     71926     71922     71924     71926     71922     71923     71928     71932     71933
     71929     71928     71931     71929     71928     71930     71930     71928     71931
     71932     71928     71931     71932     71928     71930     71932     71928     71929
     71934     71938     71939     71935     71934     71937     71935     71934     71936
     71936     71934     71937     71938     71934     71937     71938     71934     71936
     71938     71934     71935     71940     71944     71945     71941     71940     71943
     71941     71940     71942     71942     71940     71943     71944     71940     71943
     71944     71940     71942     71944     71940     71941     71946     71950     71951
     71947     71946     71949     71947     71946     71948     71948     71946     71949
     71950     71946     71949     71950     71946     71948     71950     71946     71947
     71952     71956     71957     71953     71952     71955     71953     71952     71954
     71954     71952     71955     71956     71952     71955     71956     71952     71954
     71956     71952     71953     71958     71962     71963     71959     71958     71961
     71959     71958     71960     71960     71958     71961     71962     71958     71961
     71962     71958     71960     71962     71958     71959     71964     71968     71969
     71965     71964     71967     71965     71964     71966     71966     71964     71967
     71968     71964     71967     71968     71964     71966     71968     71964     71965
     71970     71974     71975     71971     71970     71973     71971     71970     71972
     71972     71970     71973     71974     71970     71973     71974     71970     71972
     71974     71970     71971     71976     71980     71981     71977     71976     71979
     71977     71976     71978     71978     71976     71979     71980     71976     71979
     71980     71976     71978     71980     71976     71977     71982     71986     71987
     71983     71982     71985     71983     71982     71984     71984     71982     71985
     71986     71982     71985     71986     71982     71984     71986     71982     71983
     71988     71992     71993     71989     71988     71991     71989     71988     71990
     71990     71988     71991     71992     71988     71991     71992     71988     71990
     71992     71988     71989     71994     71998     71999     71995     71994     71997
     71995     71994     71996     71996     71994     71997     71998     71994     71997
     71998     71994     71996     71998     71994     71995     72000     72004     72005
     72001     72000     72003     72001     72000     72002     72002     72000     72003
     72004     72000     72003     72004     72000     72002     72004     72000     72001
     72006     72010     72011     72007     72006     72009     72007     72006     72008
     72008     72006     72009     72010     72006     72009     72010     72006     72008
     72010     72006     72007     72012     72016     72017     72013     72012     72015
     72013     72012     72014     72014     72012     72015     72016     72012     72015
     72016     72012     72014     72016     72012     72013     72018     72022     72023
     72019     72018     72021     72019     72018     72020     72020     72018     72021
     72022     72018     72021     72022     72018     72020     72022     72018     72019
     72024     72028     72029     72025     72024     72027     72025     72024     72026
     72026     72024     72027     72028     72024     72027     72028     72024     72026
     72028     72024     72025     72030     72034     72035     72031     72030     72033
     72031     72030     72032     72032     72030     72033     72034     72030     72033
     72034     72030     72032     72034     72030     72031     72036     72040     72041
     72037     72036     72039     72037     72036     72038     72038     72036     72039
     72040     72036     72039     72040     72036     72038     72040     72036     72037
     72042     72046     72047     72043     72042     72045     72043     72042     72044
     72044     72042     72045     72046     72042     72045     72046     72042     72044
     72046     72042     72043     72048     72052     72053     72049     72048     72051
     72049     72048     72050     72050     72048     72051     72052     72048     72051
     72052     72048     72050     72052     72048     72049     72054     72058     72059
     72055     72054     72057     72055     72054     72056     72056     72054     72057
     72058     72054     72057     72058     72054     72056     72058     72054     72055
     72060     72064     72065     72061     72060     72063     72061     72060     72062
     72062     72060     72063     72064     72060     72063     72064     72060     72062
     72064     72060     72061     72066     72070     72071     72067     72066     72069
     72067     72066     72068     72068     72066     72069     72070     72066     72069
     72070     72066     72068     72070     72066     72067     72072     72076     72077
     72073     72072     72075     72073     72072     72074     72074     72072     72075
     72076     72072     72075     72076     72072     72074     72076     72072     72073
     72078     72082     72083     72079     72078     72081     72079     72078     72080
     72080     72078     72081     72082     72078     72081     72082     72078     72080
     72082     72078     72079     72084     72088     72089     72085     72084     72087
     72085     72084     72086     72086     72084     72087     72088     72084     72087
     72088     72084     72086     72088     72084     72085     72090     72094     72095
     72091     72090     72093     72091     72090     72092     72092     72090     72093
     72094     72090     72093     72094     72090     72092     72094     72090     72091
     72096     72100     72101     72097     72096     72099     72097     72096     72098
     72098     72096     72099     72100     72096     72099     72100     72096     72098
     72100     72096     72097     72102     72106     72107     72103     72102     72105
     72103     72102     72104     72104     72102     72105     72106     72102     72105
     72106     72102     72104     72106     72102     72103     72108     72112     72113
     72109     72108     72111     72109     72108     72110     72110     72108     72111
     72112     72108     72111     72112     72108     72110     72112     72108     72109
     72114     72118     72119     72115     72114     72117     72115     72114     72116
     72116     72114     72117     72118     72114     72117     72118     72114     72116
     72118     72114     72115     72120     72124     72125     72121     72120     72123
     72121     72120     72122     72122     72120     72123     72124     72120     72123
     72124     72120     72122     72124     72120     72121     72126     72130     72131
     72127     72126     72129     72127     72126     72128     72128     72126     72129
     72130     72126     72129     72130     72126     72128     72130     72126     72127
     72132     72136     72137     72133     72132     72135     72133     72132     72134
     72134     72132     72135     72136     72132     72135     72136     72132     72134
     72136     72132     72133     72138     72142     72143     72139     72138     72141
     72139     72138     72140     72140     72138     72141     72142     72138     72141
     72142     72138     72140     72142     72138     72139     72144     72148     72149
     72145     72144     72147     72145     72144     72146     72146     72144     72147
     72148     72144     72147     72148     72144     72146     72148     72144     72145
     72150     72154     72155     72151     72150     72153     72151     72150     72152
     72152     72150     72153     72154     72150     72153     72154     72150     72152
     72154     72150     72151     72156     72160     72161     72157     72156     72159
     72157     72156     72158     72158     72156     72159     72160     72156     72159
     72160     72156     72158     72160     72156     72157     72162     72166     72167
     72163     72162     72165     72163     72162     72164     72164     72162     72165
     72166     72162     72165     72166     72162     72164     72166     72162     72163
     72168     72172     72173     72169     72168     72171     72169     72168     72170
     72170     72168     72171     72172     72168     72171     72172     72168     72170
     72172     72168     72169     72174     72178     72179     72175     72174     72177
     72175     72174     72176     72176     72174     72177     72178     72174     72177
     72178     72174     72176     72178     72174     72175     72180     72184     72185
     72181     72180     72183     72181     72180     72182     72182     72180     72183
     72184     72180     72183     72184     72180     72182     72184     72180     72181
     72186     72190     72191     72187     72186     72189     72187     72186     72188
     72188     72186     72189     72190     72186     72189     72190     72186     72188
     72190     72186     72187     72192     72196     72197     72193     72192     72195
     72193     72192     72194     72194     72192     72195     72196     72192     72195
     72196     72192     72194     72196     72192     72193     72198     72202     72203
     72199     72198     72201     72199     72198     72200     72200     72198     72201
     72202     72198     72201     72202     72198     72200     72202     72198     72199
     72204     72208     72209     72205     72204     72207     72205     72204     72206
     72206     72204     72207     72208     72204     72207     72208     72204     72206
     72208     72204     72205     72210     72214     72215     72211     72210     72213
     72211     72210     72212     72212     72210     72213     72214     72210     72213
     72214     72210     72212     72214     72210     72211     72216     72220     72221
     72217     72216     72219     72217     72216     72218     72218     72216     72219
     72220     72216     72219     72220     72216     72218     72220     72216     72217
     72222     72226     72227     72223     72222     72225     72223     72222     72224
     72224     72222     72225     72226     72222     72225     72226     72222     72224
     72226     72222     72223     72228     72232     72233     72229     72228     72231
     72229     72228     72230     72230     72228     72231     72232     72228     72231
     72232     72228     72230     72232     72228     72229     72234     72238     72239
     72235     72234     72237     72235     72234     72236     72236     72234     72237
     72238     72234     72237     72238     72234     72236     72238     72234     72235
     72240     72244     72245     72241     72240     72243     72241     72240     72242
     72242     72240     72243     72244     72240     72243     72244     72240     72242
     72244     72240     72241     72246     72250     72251     72247     72246     72249
     72247     72246     72248     72248     72246     72249     72250     72246     72249
     72250     72246     72248     72250     72246     72247     72252     72256     72257
     72253     72252     72255     72253     72252     72254     72254     72252     72255
     72256     72252     72255     72256     72252     72254     72256     72252     72253
     72258     72262     72263     72259     72258     72261     72259     72258     72260
     72260     72258     72261     72262     72258     72261     72262     72258     72260
     72262     72258     72259     72264     72268     72269     72265     72264     72267
     72265     72264     72266     72266     72264     72267     72268     72264     72267
     72268     72264     72266     72268     72264     72265     72270     72274     72275
     72271     72270     72273     72271     72270     72272     72272     72270     72273
     72274     72270     72273     72274     72270     72272     72274     72270     72271
     72276     72280     72281     72277     72276     72279     72277     72276     72278
     72278     72276     72279     72280     72276     72279     72280     72276     72278
     72280     72276     72277     72282     72286     72287     72283     72282     72285
     72283     72282     72284     72284     72282     72285     72286     72282     72285
     72286     72282     72284     72286     72282     72283     72288     72292     72293
     72289     72288     72291     72289     72288     72290     72290     72288     72291
     72292     72288     72291     72292     72288     72290     72292     72288     72289
     72294     72298     72299     72295     72294     72297     72295     72294     72296
     72296     72294     72297     72298     72294     72297     72298     72294     72296
     72298     72294     72295     72300     72304     72305     72301     72300     72303
     72301     72300     72302     72302     72300     72303     72304     72300     72303
     72304     72300     72302     72304     72300     72301     72306     72310     72311
     72307     72306     72309     72307     72306     72308     72308     72306     72309
     72310     72306     72309     72310     72306     72308     72310     72306     72307
     72312     72316     72317     72313     72312     72315     72313     72312     72314
     72314     72312     72315     72316     72312     72315     72316     72312     72314
     72316     72312     72313     72318     72322     72323     72319     72318     72321
     72319     72318     72320     72320     72318     72321     72322     72318     72321
     72322     72318     72320     72322     72318     72319     72324     72328     72329
     72325     72324     72327     72325     72324     72326     72326     72324     72327
     72328     72324     72327     72328     72324     72326     72328     72324     72325
     72330     72334     72335     72331     72330     72333     72331     72330     72332
     72332     72330     72333     72334     72330     72333     72334     72330     72332
     72334     72330     72331     72336     72340     72341     72337     72336     72339
     72337     72336     72338     72338     72336     72339     72340     72336     72339
     72340     72336     72338     72340     72336     72337     72342     72346     72347
     72343     72342     72345     72343     72342     72344     72344     72342     72345
     72346     72342     72345     72346     72342     72344     72346     72342     72343
     72348     72352     72353     72349     72348     72351     72349     72348     72350
     72350     72348     72351     72352     72348     72351     72352     72348     72350
     72352     72348     72349     72354     72358     72359     72355     72354     72357
     72355     72354     72356     72356     72354     72357     72358     72354     72357
     72358     72354     72356     72358     72354     72355     72360     72364     72365
     72361     72360     72363     72361     72360     72362     72362     72360     72363
     72364     72360     72363     72364     72360     72362     72364     72360     72361
     72366     72370     72371     72367     72366     72369     72367     72366     72368
     72368     72366     72369     72370     72366     72369     72370     72366     72368
     72370     72366     72367     72372     72376     72377     72373     72372     72375
     72373     72372     72374     72374     72372     72375     72376     72372     72375
     72376     72372     72374     72376     72372     72373     72378     72382     72383
     72379     72378     72381     72379     72378     72380     72380     72378     72381
     72382     72378     72381     72382     72378     72380     72382     72378     72379
     72384     72388     72389     72385     72384     72387     72385     72384     72386
     72386     72384     72387     72388     72384     72387     72388     72384     72386
     72388     72384     72385     72390     72394     72395     72391     72390     72393
     72391     72390     72392     72392     72390     72393     72394     72390     72393
     72394     72390     72392     72394     72390     72391     72396     72400     72401
     72397     72396     72399     72397     72396     72398     72398     72396     72399
     72400     72396     72399     72400     72396     72398     72400     72396     72397
     72402     72406     72407     72403     72402     72405     72403     72402     72404
     72404     72402     72405     72406     72402     72405     72406     72402     72404
     72406     72402     72403     72408     72412     72413     72409     72408     72411
     72409     72408     72410     72410     72408     72411     72412     72408     72411
     72412     72408     72410     72412     72408     72409     72414     72418     72419
     72415     72414     72417     72415     72414     72416     72416     72414     72417
     72418     72414     72417     72418     72414     72416     72418     72414     72415
     72420     72424     72425     72421     72420     72423     72421     72420     72422
     72422     72420     72423     72424     72420     72423     72424     72420     72422
     72424     72420     72421     72426     72430     72431     72427     72426     72429
     72427     72426     72428     72428     72426     72429     72430     72426     72429
     72430     72426     72428     72430     72426     72427     72432     72436     72437
     72433     72432     72435     72433     72432     72434     72434     72432     72435
     72436     72432     72435     72436     72432     72434     72436     72432     72433
     72438     72442     72443     72439     72438     72441     72439     72438     72440
     72440     72438     72441     72442     72438     72441     72442     72438     72440
     72442     72438     72439     72444     72448     72449     72445     72444     72447
     72445     72444     72446     72446     72444     72447     72448     72444     72447
     72448     72444     72446     72448     72444     72445     72450     72454     72455
     72451     72450     72453     72451     72450     72452     72452     72450     72453
     72454     72450     72453     72454     72450     72452     72454     72450     72451
     72456     72460     72461     72457     72456     72459     72457     72456     72458
     72458     72456     72459     72460     72456     72459     72460     72456     72458
     72460     72456     72457     72462     72466     72467     72463     72462     72465
     72463     72462     72464     72464     72462     72465     72466     72462     72465
     72466     72462     72464     72466     72462     72463     72468     72472     72473
     72469     72468     72471     72469     72468     72470     72470     72468     72471
     72472     72468     72471     72472     72468     72470     72472     72468     72469
     72474     72478     72479     72475     72474     72477     72475     72474     72476
     72476     72474     72477     72478     72474     72477     72478     72474     72476
     72478     72474     72475     72480     72484     72485     72481     72480     72483
     72481     72480     72482     72482     72480     72483     72484     72480     72483
     72484     72480     72482     72484     72480     72481     72486     72490     72491
     72487     72486     72489     72487     72486     72488     72488     72486     72489
     72490     72486     72489     72490     72486     72488     72490     72486     72487
     72492     72496     72497     72493     72492     72495     72493     72492     72494
     72494     72492     72495     72496     72492     72495     72496     72492     72494
     72496     72492     72493     72498     72502     72503     72499     72498     72501
     72499     72498     72500     72500     72498     72501     72502     72498     72501
     72502     72498     72500     72502     72498     72499     72504     72508     72509
     72505     72504     72507     72505     72504     72506     72506     72504     72507
     72508     72504     72507     72508     72504     72506     72508     72504     72505
     72510     72514     72515     72511     72510     72513     72511     72510     72512
     72512     72510     72513     72514     72510     72513     72514     72510     72512
     72514     72510     72511     72516     72520     72521     72517     72516     72519
     72517     72516     72518     72518     72516     72519     72520     72516     72519
     72520     72516     72518     72520     72516     72517     72522     72526     72527
     72523     72522     72525     72523     72522     72524     72524     72522     72525
     72526     72522     72525     72526     72522     72524     72526     72522     72523
     72528     72532     72533     72529     72528     72531     72529     72528     72530
     72530     72528     72531     72532     72528     72531     72532     72528     72530
     72532     72528     72529     72534     72538     72539     72535     72534     72537
     72535     72534     72536     72536     72534     72537     72538     72534     72537
     72538     72534     72536     72538     72534     72535     72540     72544     72545
     72541     72540     72543     72541     72540     72542     72542     72540     72543
     72544     72540     72543     72544     72540     72542     72544     72540     72541
     72546     72550     72551     72547     72546     72549     72547     72546     72548
     72548     72546     72549     72550     72546     72549     72550     72546     72548
     72550     72546     72547     72552     72556     72557     72553     72552     72555
     72553     72552     72554     72554     72552     72555     72556     72552     72555
     72556     72552     72554     72556     72552     72553     72558     72562     72563
     72559     72558     72561     72559     72558     72560     72560     72558     72561
     72562     72558     72561     72562     72558     72560     72562     72558     72559
     72564     72568     72569     72565     72564     72567     72565     72564     72566
     72566     72564     72567     72568     72564     72567     72568     72564     72566
     72568     72564     72565     72570     72574     72575     72571     72570     72573
     72571     72570     72572     72572     72570     72573     72574     72570     72573
     72574     72570     72572     72574     72570     72571     72576     72580     72581
     72577     72576     72579     72577     72576     72578     72578     72576     72579
     72580     72576     72579     72580     72576     72578     72580     72576     72577
     72582     72586     72587     72583     72582     72585     72583     72582     72584
     72584     72582     72585     72586     72582     72585     72586     72582     72584
     72586     72582     72583     72588     72592     72593     72589     72588     72591
     72589     72588     72590     72590     72588     72591     72592     72588     72591
     72592     72588     72590     72592     72588     72589     72594     72598     72599
     72595     72594     72597     72595     72594     72596     72596     72594     72597
     72598     72594     72597     72598     72594     72596     72598     72594     72595
     72600     72604     72605     72601     72600     72603     72601     72600     72602
     72602     72600     72603     72604     72600     72603     72604     72600     72602
     72604     72600     72601     72606     72610     72611     72607     72606     72609
     72607     72606     72608     72608     72606     72609     72610     72606     72609
     72610     72606     72608     72610     72606     72607     72612     72616     72617
     72613     72612     72615     72613     72612     72614     72614     72612     72615
     72616     72612     72615     72616     72612     72614     72616     72612     72613
     72618     72622     72623     72619     72618     72621     72619     72618     72620
     72620     72618     72621     72622     72618     72621     72622     72618     72620
     72622     72618     72619     72624     72628     72629     72625     72624     72627
     72625     72624     72626     72626     72624     72627     72628     72624     72627
     72628     72624     72626     72628     72624     72625     72630     72634     72635
     72631     72630     72633     72631     72630     72632     72632     72630     72633
     72634     72630     72633     72634     72630     72632     72634     72630     72631
     72636     72640     72641     72637     72636     72639     72637     72636     72638
     72638     72636     72639     72640     72636     72639     72640     72636     72638
     72640     72636     72637     72642     72646     72647     72643     72642     72645
     72643     72642     72644     72644     72642     72645     72646     72642     72645
     72646     72642     72644     72646     72642     72643     72648     72652     72653
     72649     72648     72651     72649     72648     72650     72650     72648     72651
     72652     72648     72651     72652     72648     72650     72652     72648     72649
     72654     72658     72659     72655     72654     72657     72655     72654     72656
     72656     72654     72657     72658     72654     72657     72658     72654     72656
     72658     72654     72655     72660     72664     72665     72661     72660     72663
     72661     72660     72662     72662     72660     72663     72664     72660     72663
     72664     72660     72662     72664     72660     72661     72666     72670     72671
     72667     72666     72669     72667     72666     72668     72668     72666     72669
     72670     72666     72669     72670     72666     72668     72670     72666     72667
     72672     72676     72677     72673     72672     72675     72673     72672     72674
     72674     72672     72675     72676     72672     72675     72676     72672     72674
     72676     72672     72673     72678     72682     72683     72679     72678     72681
     72679     72678     72680     72680     72678     72681     72682     72678     72681
     72682     72678     72680     72682     72678     72679     72684     72688     72689
     72685     72684     72687     72685     72684     72686     72686     72684     72687
     72688     72684     72687     72688     72684     72686     72688     72684     72685
     72690     72694     72695     72691     72690     72693     72691     72690     72692
     72692     72690     72693     72694     72690     72693     72694     72690     72692
     72694     72690     72691     72696     72700     72701     72697     72696     72699
     72697     72696     72698     72698     72696     72699     72700     72696     72699
     72700     72696     72698     72700     72696     72697     72702     72706     72707
     72703     72702     72705     72703     72702     72704     72704     72702     72705
     72706     72702     72705     72706     72702     72704     72706     72702     72703
     72708     72712     72713     72709     72708     72711     72709     72708     72710
     72710     72708     72711     72712     72708     72711     72712     72708     72710
     72712     72708     72709     72714     72718     72719     72715     72714     72717
     72715     72714     72716     72716     72714     72717     72718     72714     72717
     72718     72714     72716     72718     72714     72715     72720     72724     72725
     72721     72720     72723     72721     72720     72722     72722     72720     72723
     72724     72720     72723     72724     72720     72722     72724     72720     72721
     72726     72730     72731     72727     72726     72729     72727     72726     72728
     72728     72726     72729     72730     72726     72729     72730     72726     72728
     72730     72726     72727     72732     72736     72737     72733     72732     72735
     72733     72732     72734     72734     72732     72735     72736     72732     72735
     72736     72732     72734     72736     72732     72733     72738     72742     72743
     72739     72738     72741     72739     72738     72740     72740     72738     72741
     72742     72738     72741     72742     72738     72740     72742     72738     72739
     72744     72748     72749     72745     72744     72747     72745     72744     72746
     72746     72744     72747     72748     72744     72747     72748     72744     72746
     72748     72744     72745     72750     72754     72755     72751     72750     72753
     72751     72750     72752     72752     72750     72753     72754     72750     72753
     72754     72750     72752     72754     72750     72751     72756     72760     72761
     72757     72756     72759     72757     72756     72758     72758     72756     72759
     72760     72756     72759     72760     72756     72758     72760     72756     72757
     72762     72766     72767     72763     72762     72765     72763     72762     72764
     72764     72762     72765     72766     72762     72765     72766     72762     72764
     72766     72762     72763     72768     72772     72773     72769     72768     72771
     72769     72768     72770     72770     72768     72771     72772     72768     72771
     72772     72768     72770     72772     72768     72769     72774     72778     72779
     72775     72774     72777     72775     72774     72776     72776     72774     72777
     72778     72774     72777     72778     72774     72776     72778     72774     72775
     72780     72784     72785     72781     72780     72783     72781     72780     72782
     72782     72780     72783     72784     72780     72783     72784     72780     72782
     72784     72780     72781     72786     72790     72791     72787     72786     72789
     72787     72786     72788     72788     72786     72789     72790     72786     72789
     72790     72786     72788     72790     72786     72787     72792     72796     72797
     72793     72792     72795     72793     72792     72794     72794     72792     72795
     72796     72792     72795     72796     72792     72794     72796     72792     72793
     72798     72802     72803     72799     72798     72801     72799     72798     72800
     72800     72798     72801     72802     72798     72801     72802     72798     72800
     72802     72798     72799     72804     72808     72809     72805     72804     72807
     72805     72804     72806     72806     72804     72807     72808     72804     72807
     72808     72804     72806     72808     72804     72805     72810     72814     72815
     72811     72810     72813     72811     72810     72812     72812     72810     72813
     72814     72810     72813     72814     72810     72812     72814     72810     72811
     72816     72820     72821     72817     72816     72819     72817     72816     72818
     72818     72816     72819     72820     72816     72819     72820     72816     72818
     72820     72816     72817     72822     72826     72827     72823     72822     72825
     72823     72822     72824     72824     72822     72825     72826     72822     72825
     72826     72822     72824     72826     72822     72823     72828     72832     72833
     72829     72828     72831     72829     72828     72830     72830     72828     72831
     72832     72828     72831     72832     72828     72830     72832     72828     72829
     72834     72838     72839     72835     72834     72837     72835     72834     72836
     72836     72834     72837     72838     72834     72837     72838     72834     72836
     72838     72834     72835     72840     72844     72845     72841     72840     72843
     72841     72840     72842     72842     72840     72843     72844     72840     72843
     72844     72840     72842     72844     72840     72841     72846     72850     72851
     72847     72846     72849     72847     72846     72848     72848     72846     72849
     72850     72846     72849     72850     72846     72848     72850     72846     72847
     72852     72856     72857     72853     72852     72855     72853     72852     72854
     72854     72852     72855     72856     72852     72855     72856     72852     72854
     72856     72852     72853     72858     72862     72863     72859     72858     72861
     72859     72858     72860     72860     72858     72861     72862     72858     72861
     72862     72858     72860     72862     72858     72859     72864     72868     72869
     72865     72864     72867     72865     72864     72866     72866     72864     72867
     72868     72864     72867     72868     72864     72866     72868     72864     72865
     72870     72874     72875     72871     72870     72873     72871     72870     72872
     72872     72870     72873     72874     72870     72873     72874     72870     72872
     72874     72870     72871     72876     72880     72881     72877     72876     72879
     72877     72876     72878     72878     72876     72879     72880     72876     72879
     72880     72876     72878     72880     72876     72877     72882     72886     72887
     72883     72882     72885     72883     72882     72884     72884     72882     72885
     72886     72882     72885     72886     72882     72884     72886     72882     72883
     72888     72892     72893     72889     72888     72891     72889     72888     72890
     72890     72888     72891     72892     72888     72891     72892     72888     72890
     72892     72888     72889     72894     72898     72899     72895     72894     72897
     72895     72894     72896     72896     72894     72897     72898     72894     72897
     72898     72894     72896     72898     72894     72895     72900     72904     72905
     72901     72900     72903     72901     72900     72902     72902     72900     72903
     72904     72900     72903     72904     72900     72902     72904     72900     72901
     72906     72910     72911     72907     72906     72909     72907     72906     72908
     72908     72906     72909     72910     72906     72909     72910     72906     72908
     72910     72906     72907     72912     72916     72917     72913     72912     72915
     72913     72912     72914     72914     72912     72915     72916     72912     72915
     72916     72912     72914     72916     72912     72913     72918     72922     72923
     72919     72918     72921     72919     72918     72920     72920     72918     72921
     72922     72918     72921     72922     72918     72920     72922     72918     72919
     72924     72928     72929     72925     72924     72927     72925     72924     72926
     72926     72924     72927     72928     72924     72927     72928     72924     72926
     72928     72924     72925     72930     72934     72935     72931     72930     72933
     72931     72930     72932     72932     72930     72933     72934     72930     72933
     72934     72930     72932     72934     72930     72931     72936     72940     72941
     72937     72936     72939     72937     72936     72938     72938     72936     72939
     72940     72936     72939     72940     72936     72938     72940     72936     72937
     72942     72946     72947     72943     72942     72945     72943     72942     72944
     72944     72942     72945     72946     72942     72945     72946     72942     72944
     72946     72942     72943     72948     72952     72953     72949     72948     72951
     72949     72948     72950     72950     72948     72951     72952     72948     72951
     72952     72948     72950     72952     72948     72949     72954     72958     72959
     72955     72954     72957     72955     72954     72956     72956     72954     72957
     72958     72954     72957     72958     72954     72956     72958     72954     72955
     72960     72964     72965     72961     72960     72963     72961     72960     72962
     72962     72960     72963     72964     72960     72963     72964     72960     72962
     72964     72960     72961     72966     72970     72971     72967     72966     72969
     72967     72966     72968     72968     72966     72969     72970     72966     72969
     72970     72966     72968     72970     72966     72967     72972     72976     72977
     72973     72972     72975     72973     72972     72974     72974     72972     72975
     72976     72972     72975     72976     72972     72974     72976     72972     72973
     72978     72982     72983     72979     72978     72981     72979     72978     72980
     72980     72978     72981     72982     72978     72981     72982     72978     72980
     72982     72978     72979     72984     72988     72989     72985     72984     72987
     72985     72984     72986     72986     72984     72987     72988     72984     72987
     72988     72984     72986     72988     72984     72985     72990     72994     72995
     72991     72990     72993     72991     72990     72992     72992     72990     72993
     72994     72990     72993     72994     72990     72992     72994     72990     72991
     72996     73000     73001     72997     72996     72999     72997     72996     72998
     72998     72996     72999     73000     72996     72999     73000     72996     72998
     73000     72996     72997     73002     73006     73007     73003     73002     73005
     73003     73002     73004     73004     73002     73005     73006     73002     73005
     73006     73002     73004     73006     73002     73003     73008     73012     73013
     73009     73008     73011     73009     73008     73010     73010     73008     73011
     73012     73008     73011     73012     73008     73010     73012     73008     73009
     73014     73018     73019     73015     73014     73017     73015     73014     73016
     73016     73014     73017     73018     73014     73017     73018     73014     73016
     73018     73014     73015     73020     73024     73025     73021     73020     73023
     73021     73020     73022     73022     73020     73023     73024     73020     73023
     73024     73020     73022     73024     73020     73021     73026     73030     73031
     73027     73026     73029     73027     73026     73028     73028     73026     73029
     73030     73026     73029     73030     73026     73028     73030     73026     73027
     73032     73036     73037     73033     73032     73035     73033     73032     73034
     73034     73032     73035     73036     73032     73035     73036     73032     73034
     73036     73032     73033     73038     73042     73043     73039     73038     73041
     73039     73038     73040     73040     73038     73041     73042     73038     73041
     73042     73038     73040     73042     73038     73039     73044     73048     73049
     73045     73044     73047     73045     73044     73046     73046     73044     73047
     73048     73044     73047     73048     73044     73046     73048     73044     73045
     73050     73054     73055     73051     73050     73053     73051     73050     73052
     73052     73050     73053     73054     73050     73053     73054     73050     73052
     73054     73050     73051     73056     73060     73061     73057     73056     73059
     73057     73056     73058     73058     73056     73059     73060     73056     73059
     73060     73056     73058     73060     73056     73057     73062     73066     73067
     73063     73062     73065     73063     73062     73064     73064     73062     73065
     73066     73062     73065     73066     73062     73064     73066     73062     73063
     73068     73072     73073     73069     73068     73071     73069     73068     73070
     73070     73068     73071     73072     73068     73071     73072     73068     73070
     73072     73068     73069     73074     73078     73079     73075     73074     73077
     73075     73074     73076     73076     73074     73077     73078     73074     73077
     73078     73074     73076     73078     73074     73075     73080     73084     73085
     73081     73080     73083     73081     73080     73082     73082     73080     73083
     73084     73080     73083     73084     73080     73082     73084     73080     73081
     73086     73090     73091     73087     73086     73089     73087     73086     73088
     73088     73086     73089     73090     73086     73089     73090     73086     73088
     73090     73086     73087     73092     73096     73097     73093     73092     73095
     73093     73092     73094     73094     73092     73095     73096     73092     73095
     73096     73092     73094     73096     73092     73093     73098     73102     73103
     73099     73098     73101     73099     73098     73100     73100     73098     73101
     73102     73098     73101     73102     73098     73100     73102     73098     73099
     73104     73108     73109     73105     73104     73107     73105     73104     73106
     73106     73104     73107     73108     73104     73107     73108     73104     73106
     73108     73104     73105     73110     73114     73115     73111     73110     73113
     73111     73110     73112     73112     73110     73113     73114     73110     73113
     73114     73110     73112     73114     73110     73111     73116     73120     73121
     73117     73116     73119     73117     73116     73118     73118     73116     73119
     73120     73116     73119     73120     73116     73118     73120     73116     73117
     73122     73126     73127     73123     73122     73125     73123     73122     73124
     73124     73122     73125     73126     73122     73125     73126     73122     73124
     73126     73122     73123     73128     73132     73133     73129     73128     73131
     73129     73128     73130     73130     73128     73131     73132     73128     73131
     73132     73128     73130     73132     73128     73129     73134     73138     73139
     73135     73134     73137     73135     73134     73136     73136     73134     73137
     73138     73134     73137     73138     73134     73136     73138     73134     73135
     73140     73144     73145     73141     73140     73143     73141     73140     73142
     73142     73140     73143     73144     73140     73143     73144     73140     73142
     73144     73140     73141     73146     73150     73151     73147     73146     73149
     73147     73146     73148     73148     73146     73149     73150     73146     73149
     73150     73146     73148     73150     73146     73147     73152     73156     73157
     73153     73152     73155     73153     73152     73154     73154     73152     73155
     73156     73152     73155     73156     73152     73154     73156     73152     73153
     73158     73162     73163     73159     73158     73161     73159     73158     73160
     73160     73158     73161     73162     73158     73161     73162     73158     73160
     73162     73158     73159     73164     73168     73169     73165     73164     73167
     73165     73164     73166     73166     73164     73167     73168     73164     73167
     73168     73164     73166     73168     73164     73165     73170     73174     73175
     73171     73170     73173     73171     73170     73172     73172     73170     73173
     73174     73170     73173     73174     73170     73172     73174     73170     73171
     73176     73180     73181     73177     73176     73179     73177     73176     73178
     73178     73176     73179     73180     73176     73179     73180     73176     73178
     73180     73176     73177     73182     73186     73187     73183     73182     73185
     73183     73182     73184     73184     73182     73185     73186     73182     73185
     73186     73182     73184     73186     73182     73183     73188     73192     73193
     73189     73188     73191     73189     73188     73190     73190     73188     73191
     73192     73188     73191     73192     73188     73190     73192     73188     73189
     73194     73198     73199     73195     73194     73197     73195     73194     73196
     73196     73194     73197     73198     73194     73197     73198     73194     73196
     73198     73194     73195     73200     73204     73205     73201     73200     73203
     73201     73200     73202     73202     73200     73203     73204     73200     73203
     73204     73200     73202     73204     73200     73201     73206     73210     73211
     73207     73206     73209     73207     73206     73208     73208     73206     73209
     73210     73206     73209     73210     73206     73208     73210     73206     73207
     73212     73216     73217     73213     73212     73215     73213     73212     73214
     73214     73212     73215     73216     73212     73215     73216     73212     73214
     73216     73212     73213     73218     73222     73223     73219     73218     73221
     73219     73218     73220     73220     73218     73221     73222     73218     73221
     73222     73218     73220     73222     73218     73219     73224     73228     73229
     73225     73224     73227     73225     73224     73226     73226     73224     73227
     73228     73224     73227     73228     73224     73226     73228     73224     73225
     73230     73234     73235     73231     73230     73233     73231     73230     73232
     73232     73230     73233     73234     73230     73233     73234     73230     73232
     73234     73230     73231     73236     73240     73241     73237     73236     73239
     73237     73236     73238     73238     73236     73239     73240     73236     73239
     73240     73236     73238     73240     73236     73237     73242     73246     73247
     73243     73242     73245     73243     73242     73244     73244     73242     73245
     73246     73242     73245     73246     73242     73244     73246     73242     73243
     73248     73252     73253     73249     73248     73251     73249     73248     73250
     73250     73248     73251     73252     73248     73251     73252     73248     73250
     73252     73248     73249     73254     73258     73259     73255     73254     73257
     73255     73254     73256     73256     73254     73257     73258     73254     73257
     73258     73254     73256     73258     73254     73255     73260     73264     73265
     73261     73260     73263     73261     73260     73262     73262     73260     73263
     73264     73260     73263     73264     73260     73262     73264     73260     73261
     73266     73270     73271     73267     73266     73269     73267     73266     73268
     73268     73266     73269     73270     73266     73269     73270     73266     73268
     73270     73266     73267     73272     73276     73277     73273     73272     73275
     73273     73272     73274     73274     73272     73275     73276     73272     73275
     73276     73272     73274     73276     73272     73273     73278     73282     73283
     73279     73278     73281     73279     73278     73280     73280     73278     73281
     73282     73278     73281     73282     73278     73280     73282     73278     73279
     73284     73288     73289     73285     73284     73287     73285     73284     73286
     73286     73284     73287     73288     73284     73287     73288     73284     73286
     73288     73284     73285     73290     73294     73295     73291     73290     73293
     73291     73290     73292     73292     73290     73293     73294     73290     73293
     73294     73290     73292     73294     73290     73291     73296     73300     73301
     73297     73296     73299     73297     73296     73298     73298     73296     73299
     73300     73296     73299     73300     73296     73298     73300     73296     73297
     73302     73306     73307     73303     73302     73305     73303     73302     73304
     73304     73302     73305     73306     73302     73305     73306     73302     73304
     73306     73302     73303     73308     73312     73313     73309     73308     73311
     73309     73308     73310     73310     73308     73311     73312     73308     73311
     73312     73308     73310     73312     73308     73309     73314     73318     73319
     73315     73314     73317     73315     73314     73316     73316     73314     73317
     73318     73314     73317     73318     73314     73316     73318     73314     73315
     73320     73324     73325     73321     73320     73323     73321     73320     73322
     73322     73320     73323     73324     73320     73323     73324     73320     73322
     73324     73320     73321     73326     73330     73331     73327     73326     73329
     73327     73326     73328     73328     73326     73329     73330     73326     73329
     73330     73326     73328     73330     73326     73327     73332     73336     73337
     73333     73332     73335     73333     73332     73334     73334     73332     73335
     73336     73332     73335     73336     73332     73334     73336     73332     73333
     73338     73342     73343     73339     73338     73341     73339     73338     73340
     73340     73338     73341     73342     73338     73341     73342     73338     73340
     73342     73338     73339     73344     73348     73349     73345     73344     73347
     73345     73344     73346     73346     73344     73347     73348     73344     73347
     73348     73344     73346     73348     73344     73345     73350     73354     73355
     73351     73350     73353     73351     73350     73352     73352     73350     73353
     73354     73350     73353     73354     73350     73352     73354     73350     73351
     73356     73360     73361     73357     73356     73359     73357     73356     73358
     73358     73356     73359     73360     73356     73359     73360     73356     73358
     73360     73356     73357     73362     73366     73367     73363     73362     73365
     73363     73362     73364     73364     73362     73365     73366     73362     73365
     73366     73362     73364     73366     73362     73363     73368     73372     73373
     73369     73368     73371     73369     73368     73370     73370     73368     73371
     73372     73368     73371     73372     73368     73370     73372     73368     73369
     73374     73378     73379     73375     73374     73377     73375     73374     73376
     73376     73374     73377     73378     73374     73377     73378     73374     73376
     73378     73374     73375     73380     73384     73385     73381     73380     73383
     73381     73380     73382     73382     73380     73383     73384     73380     73383
     73384     73380     73382     73384     73380     73381     73386     73390     73391
     73387     73386     73389     73387     73386     73388     73388     73386     73389
     73390     73386     73389     73390     73386     73388     73390     73386     73387
     73392     73396     73397     73393     73392     73395     73393     73392     73394
     73394     73392     73395     73396     73392     73395     73396     73392     73394
     73396     73392     73393     73398     73402     73403     73399     73398     73401
     73399     73398     73400     73400     73398     73401     73402     73398     73401
     73402     73398     73400     73402     73398     73399     73404     73408     73409
     73405     73404     73407     73405     73404     73406     73406     73404     73407
     73408     73404     73407     73408     73404     73406     73408     73404     73405
     73410     73414     73415     73411     73410     73413     73411     73410     73412
     73412     73410     73413     73414     73410     73413     73414     73410     73412
     73414     73410     73411     73416     73420     73421     73417     73416     73419
     73417     73416     73418     73418     73416     73419     73420     73416     73419
     73420     73416     73418     73420     73416     73417     73422     73426     73427
     73423     73422     73425     73423     73422     73424     73424     73422     73425
     73426     73422     73425     73426     73422     73424     73426     73422     73423
     73428     73432     73433     73429     73428     73431     73429     73428     73430
     73430     73428     73431     73432     73428     73431     73432     73428     73430
     73432     73428     73429     73434     73438     73439     73435     73434     73437
     73435     73434     73436     73436     73434     73437     73438     73434     73437
     73438     73434     73436     73438     73434     73435     73440     73444     73445
     73441     73440     73443     73441     73440     73442     73442     73440     73443
     73444     73440     73443     73444     73440     73442     73444     73440     73441
     73446     73450     73451     73447     73446     73449     73447     73446     73448
     73448     73446     73449     73450     73446     73449     73450     73446     73448
     73450     73446     73447     73452     73456     73457     73453     73452     73455
     73453     73452     73454     73454     73452     73455     73456     73452     73455
     73456     73452     73454     73456     73452     73453     73458     73462     73463
     73459     73458     73461     73459     73458     73460     73460     73458     73461
     73462     73458     73461     73462     73458     73460     73462     73458     73459
     73464     73468     73469     73465     73464     73467     73465     73464     73466
     73466     73464     73467     73468     73464     73467     73468     73464     73466
     73468     73464     73465     73470     73474     73475     73471     73470     73473
     73471     73470     73472     73472     73470     73473     73474     73470     73473
     73474     73470     73472     73474     73470     73471     73476     73480     73481
     73477     73476     73479     73477     73476     73478     73478     73476     73479
     73480     73476     73479     73480     73476     73478     73480     73476     73477
     73482     73486     73487     73483     73482     73485     73483     73482     73484
     73484     73482     73485     73486     73482     73485     73486     73482     73484
     73486     73482     73483     73488     73492     73493     73489     73488     73491
     73489     73488     73490     73490     73488     73491     73492     73488     73491
     73492     73488     73490     73492     73488     73489     73494     73498     73499
     73495     73494     73497     73495     73494     73496     73496     73494     73497
     73498     73494     73497     73498     73494     73496     73498     73494     73495
     73500     73504     73505     73501     73500     73503     73501     73500     73502
     73502     73500     73503     73504     73500     73503     73504     73500     73502
     73504     73500     73501     73506     73510     73511     73507     73506     73509
     73507     73506     73508     73508     73506     73509     73510     73506     73509
     73510     73506     73508     73510     73506     73507     73512     73516     73517
     73513     73512     73515     73513     73512     73514     73514     73512     73515
     73516     73512     73515     73516     73512     73514     73516     73512     73513
     73518     73522     73523     73519     73518     73521     73519     73518     73520
     73520     73518     73521     73522     73518     73521     73522     73518     73520
     73522     73518     73519     73524     73528     73529     73525     73524     73527
     73525     73524     73526     73526     73524     73527     73528     73524     73527
     73528     73524     73526     73528     73524     73525     73530     73534     73535
     73531     73530     73533     73531     73530     73532     73532     73530     73533
     73534     73530     73533     73534     73530     73532     73534     73530     73531
     73536     73540     73541     73537     73536     73539     73537     73536     73538
     73538     73536     73539     73540     73536     73539     73540     73536     73538
     73540     73536     73537     73542     73546     73547     73543     73542     73545
     73543     73542     73544     73544     73542     73545     73546     73542     73545
     73546     73542     73544     73546     73542     73543     73548     73552     73553
     73549     73548     73551     73549     73548     73550     73550     73548     73551
     73552     73548     73551     73552     73548     73550     73552     73548     73549
     73554     73558     73559     73555     73554     73557     73555     73554     73556
     73556     73554     73557     73558     73554     73557     73558     73554     73556
     73558     73554     73555     73560     73564     73565     73561     73560     73563
     73561     73560     73562     73562     73560     73563     73564     73560     73563
     73564     73560     73562     73564     73560     73561     73566     73570     73571
     73567     73566     73569     73567     73566     73568     73568     73566     73569
     73570     73566     73569     73570     73566     73568     73570     73566     73567
     73572     73576     73577     73573     73572     73575     73573     73572     73574
     73574     73572     73575     73576     73572     73575     73576     73572     73574
     73576     73572     73573     73578     73582     73583     73579     73578     73581
     73579     73578     73580     73580     73578     73581     73582     73578     73581
     73582     73578     73580     73582     73578     73579     73584     73588     73589
     73585     73584     73587     73585     73584     73586     73586     73584     73587
     73588     73584     73587     73588     73584     73586     73588     73584     73585
     73590     73594     73595     73591     73590     73593     73591     73590     73592
     73592     73590     73593     73594     73590     73593     73594     73590     73592
     73594     73590     73591     73596     73600     73601     73597     73596     73599
     73597     73596     73598     73598     73596     73599     73600     73596     73599
     73600     73596     73598     73600     73596     73597     73602     73606     73607
     73603     73602     73605     73603     73602     73604     73604     73602     73605
     73606     73602     73605     73606     73602     73604     73606     73602     73603
     73608     73612     73613     73609     73608     73611     73609     73608     73610
     73610     73608     73611     73612     73608     73611     73612     73608     73610
     73612     73608     73609     73614     73618     73619     73615     73614     73617
     73615     73614     73616     73616     73614     73617     73618     73614     73617
     73618     73614     73616     73618     73614     73615     73620     73624     73625
     73621     73620     73623     73621     73620     73622     73622     73620     73623
     73624     73620     73623     73624     73620     73622     73624     73620     73621
     73626     73630     73631     73627     73626     73629     73627     73626     73628
     73628     73626     73629     73630     73626     73629     73630     73626     73628
     73630     73626     73627     73632     73636     73637     73633     73632     73635
     73633     73632     73634     73634     73632     73635     73636     73632     73635
     73636     73632     73634     73636     73632     73633     73638     73642     73643
     73639     73638     73641     73639     73638     73640     73640     73638     73641
     73642     73638     73641     73642     73638     73640     73642     73638     73639
     73644     73648     73649     73645     73644     73647     73645     73644     73646
     73646     73644     73647     73648     73644     73647     73648     73644     73646
     73648     73644     73645     73650     73654     73655     73651     73650     73653
     73651     73650     73652     73652     73650     73653     73654     73650     73653
     73654     73650     73652     73654     73650     73651     73656     73660     73661
     73657     73656     73659     73657     73656     73658     73658     73656     73659
     73660     73656     73659     73660     73656     73658     73660     73656     73657
     73662     73666     73667     73663     73662     73665     73663     73662     73664
     73664     73662     73665     73666     73662     73665     73666     73662     73664
     73666     73662     73663     73668     73672     73673     73669     73668     73671
     73669     73668     73670     73670     73668     73671     73672     73668     73671
     73672     73668     73670     73672     73668     73669     73674     73678     73679
     73675     73674     73677     73675     73674     73676     73676     73674     73677
     73678     73674     73677     73678     73674     73676     73678     73674     73675
     73680     73684     73685     73681     73680     73683     73681     73680     73682
     73682     73680     73683     73684     73680     73683     73684     73680     73682
     73684     73680     73681     73686     73690     73691     73687     73686     73689
     73687     73686     73688     73688     73686     73689     73690     73686     73689
     73690     73686     73688     73690     73686     73687     73692     73696     73697
     73693     73692     73695     73693     73692     73694     73694     73692     73695
     73696     73692     73695     73696     73692     73694     73696     73692     73693
     73698     73702     73703     73699     73698     73701     73699     73698     73700
     73700     73698     73701     73702     73698     73701     73702     73698     73700
     73702     73698     73699     73704     73708     73709     73705     73704     73707
     73705     73704     73706     73706     73704     73707     73708     73704     73707
     73708     73704     73706     73708     73704     73705     73710     73714     73715
     73711     73710     73713     73711     73710     73712     73712     73710     73713
     73714     73710     73713     73714     73710     73712     73714     73710     73711
     73716     73720     73721     73717     73716     73719     73717     73716     73718
     73718     73716     73719     73720     73716     73719     73720     73716     73718
     73720     73716     73717     73722     73726     73727     73723     73722     73725
     73723     73722     73724     73724     73722     73725     73726     73722     73725
     73726     73722     73724     73726     73722     73723     73728     73732     73733
     73729     73728     73731     73729     73728     73730     73730     73728     73731
     73732     73728     73731     73732     73728     73730     73732     73728     73729
     73734     73738     73739     73735     73734     73737     73735     73734     73736
     73736     73734     73737     73738     73734     73737     73738     73734     73736
     73738     73734     73735     73740     73744     73745     73741     73740     73743
     73741     73740     73742     73742     73740     73743     73744     73740     73743
     73744     73740     73742     73744     73740     73741     73746     73750     73751
     73747     73746     73749     73747     73746     73748     73748     73746     73749
     73750     73746     73749     73750     73746     73748     73750     73746     73747
     73752     73756     73757     73753     73752     73755     73753     73752     73754
     73754     73752     73755     73756     73752     73755     73756     73752     73754
     73756     73752     73753     73758     73762     73763     73759     73758     73761
     73759     73758     73760     73760     73758     73761     73762     73758     73761
     73762     73758     73760     73762     73758     73759     73764     73768     73769
     73765     73764     73767     73765     73764     73766     73766     73764     73767
     73768     73764     73767     73768     73764     73766     73768     73764     73765
     73770     73774     73775     73771     73770     73773     73771     73770     73772
     73772     73770     73773     73774     73770     73773     73774     73770     73772
     73774     73770     73771     73776     73780     73781     73777     73776     73779
     73777     73776     73778     73778     73776     73779     73780     73776     73779
     73780     73776     73778     73780     73776     73777     73782     73786     73787
     73783     73782     73785     73783     73782     73784     73784     73782     73785
     73786     73782     73785     73786     73782     73784     73786     73782     73783
     73788     73792     73793     73789     73788     73791     73789     73788     73790
     73790     73788     73791     73792     73788     73791     73792     73788     73790
     73792     73788     73789     73794     73798     73799     73795     73794     73797
     73795     73794     73796     73796     73794     73797     73798     73794     73797
     73798     73794     73796     73798     73794     73795     73800     73804     73805
     73801     73800     73803     73801     73800     73802     73802     73800     73803
     73804     73800     73803     73804     73800     73802     73804     73800     73801
     73806     73810     73811     73807     73806     73809     73807     73806     73808
     73808     73806     73809     73810     73806     73809     73810     73806     73808
     73810     73806     73807     73812     73816     73817     73813     73812     73815
     73813     73812     73814     73814     73812     73815     73816     73812     73815
     73816     73812     73814     73816     73812     73813     73818     73822     73823
     73819     73818     73821     73819     73818     73820     73820     73818     73821
     73822     73818     73821     73822     73818     73820     73822     73818     73819
     73824     73828     73829     73825     73824     73827     73825     73824     73826
     73826     73824     73827     73828     73824     73827     73828     73824     73826
     73828     73824     73825     73830     73834     73835     73831     73830     73833
     73831     73830     73832     73832     73830     73833     73834     73830     73833
     73834     73830     73832     73834     73830     73831     73836     73840     73841
     73837     73836     73839     73837     73836     73838     73838     73836     73839
     73840     73836     73839     73840     73836     73838     73840     73836     73837
     73842     73846     73847     73843     73842     73845     73843     73842     73844
     73844     73842     73845     73846     73842     73845     73846     73842     73844
     73846     73842     73843     73848     73852     73853     73849     73848     73851
     73849     73848     73850     73850     73848     73851     73852     73848     73851
     73852     73848     73850     73852     73848     73849     73854     73858     73859
     73855     73854     73857     73855     73854     73856     73856     73854     73857
     73858     73854     73857     73858     73854     73856     73858     73854     73855
     73860     73864     73865     73861     73860     73863     73861     73860     73862
     73862     73860     73863     73864     73860     73863     73864     73860     73862
     73864     73860     73861     73866     73870     73871     73867     73866     73869
     73867     73866     73868     73868     73866     73869     73870     73866     73869
     73870     73866     73868     73870     73866     73867     73872     73876     73877
     73873     73872     73875     73873     73872     73874     73874     73872     73875
     73876     73872     73875     73876     73872     73874     73876     73872     73873
     73878     73882     73883     73879     73878     73881     73879     73878     73880
     73880     73878     73881     73882     73878     73881     73882     73878     73880
     73882     73878     73879     73884     73888     73889     73885     73884     73887
     73885     73884     73886     73886     73884     73887     73888     73884     73887
     73888     73884     73886     73888     73884     73885     73890     73894     73895
     73891     73890     73893     73891     73890     73892     73892     73890     73893
     73894     73890     73893     73894     73890     73892     73894     73890     73891
     73896     73900     73901     73897     73896     73899     73897     73896     73898
     73898     73896     73899     73900     73896     73899     73900     73896     73898
     73900     73896     73897     73902     73906     73907     73903     73902     73905
     73903     73902     73904     73904     73902     73905     73906     73902     73905
     73906     73902     73904     73906     73902     73903     73908     73912     73913
     73909     73908     73911     73909     73908     73910     73910     73908     73911
     73912     73908     73911     73912     73908     73910     73912     73908     73909
     73914     73918     73919     73915     73914     73917     73915     73914     73916
     73916     73914     73917     73918     73914     73917     73918     73914     73916
     73918     73914     73915     73920     73924     73925     73921     73920     73923
     73921     73920     73922     73922     73920     73923     73924     73920     73923
     73924     73920     73922     73924     73920     73921     73926     73930     73931
     73927     73926     73929     73927     73926     73928     73928     73926     73929
     73930     73926     73929     73930     73926     73928     73930     73926     73927
     73932     73936     73937     73933     73932     73935     73933     73932     73934
     73934     73932     73935     73936     73932     73935     73936     73932     73934
     73936     73932     73933     73938     73942     73943     73939     73938     73941
     73939     73938     73940     73940     73938     73941     73942     73938     73941
     73942     73938     73940     73942     73938     73939     73944     73948     73949
     73945     73944     73947     73945     73944     73946     73946     73944     73947
     73948     73944     73947     73948     73944     73946     73948     73944     73945
     73950     73954     73955     73951     73950     73953     73951     73950     73952
     73952     73950     73953     73954     73950     73953     73954     73950     73952
     73954     73950     73951     73956     73960     73961     73957     73956     73959
     73957     73956     73958     73958     73956     73959     73960     73956     73959
     73960     73956     73958     73960     73956     73957     73962     73966     73967
     73963     73962     73965     73963     73962     73964     73964     73962     73965
     73966     73962     73965     73966     73962     73964     73966     73962     73963
     73968     73972     73973     73969     73968     73971     73969     73968     73970
     73970     73968     73971     73972     73968     73971     73972     73968     73970
     73972     73968     73969     73974     73978     73979     73975     73974     73977
     73975     73974     73976     73976     73974     73977     73978     73974     73977
     73978     73974     73976     73978     73974     73975     73980     73984     73985
     73981     73980     73983     73981     73980     73982     73982     73980     73983
     73984     73980     73983     73984     73980     73982     73984     73980     73981
     73986     73990     73991     73987     73986     73989     73987     73986     73988
     73988     73986     73989     73990     73986     73989     73990     73986     73988
     73990     73986     73987     73992     73996     73997     73993     73992     73995
     73993     73992     73994     73994     73992     73995     73996     73992     73995
     73996     73992     73994     73996     73992     73993     73998     74002     74003
     73999     73998     74001     73999     73998     74000     74000     73998     74001
     74002     73998     74001     74002     73998     74000     74002     73998     73999
     74004     74008     74009     74005     74004     74007     74005     74004     74006
     74006     74004     74007     74008     74004     74007     74008     74004     74006
     74008     74004     74005     74010     74014     74015     74011     74010     74013
     74011     74010     74012     74012     74010     74013     74014     74010     74013
     74014     74010     74012     74014     74010     74011     74016     74020     74021
     74017     74016     74019     74017     74016     74018     74018     74016     74019
     74020     74016     74019     74020     74016     74018     74020     74016     74017
     74022     74026     74027     74023     74022     74025     74023     74022     74024
     74024     74022     74025     74026     74022     74025     74026     74022     74024
     74026     74022     74023     74028     74032     74033     74029     74028     74031
     74029     74028     74030     74030     74028     74031     74032     74028     74031
     74032     74028     74030     74032     74028     74029     74034     74038     74039
     74035     74034     74037     74035     74034     74036     74036     74034     74037
     74038     74034     74037     74038     74034     74036     74038     74034     74035
     74040     74044     74045     74041     74040     74043     74041     74040     74042
     74042     74040     74043     74044     74040     74043     74044     74040     74042
     74044     74040     74041     74046     74050     74051     74047     74046     74049
     74047     74046     74048     74048     74046     74049     74050     74046     74049
     74050     74046     74048     74050     74046     74047     74052     74056     74057
     74053     74052     74055     74053     74052     74054     74054     74052     74055
     74056     74052     74055     74056     74052     74054     74056     74052     74053
     74058     74062     74063     74059     74058     74061     74059     74058     74060
     74060     74058     74061     74062     74058     74061     74062     74058     74060
     74062     74058     74059     74064     74068     74069     74065     74064     74067
     74065     74064     74066     74066     74064     74067     74068     74064     74067
     74068     74064     74066     74068     74064     74065     74070     74074     74075
     74071     74070     74073     74071     74070     74072     74072     74070     74073
     74074     74070     74073     74074     74070     74072     74074     74070     74071
     74076     74080     74081     74077     74076     74079     74077     74076     74078
     74078     74076     74079     74080     74076     74079     74080     74076     74078
     74080     74076     74077     74082     74086     74087     74083     74082     74085
     74083     74082     74084     74084     74082     74085     74086     74082     74085
     74086     74082     74084     74086     74082     74083     74088     74092     74093
     74089     74088     74091     74089     74088     74090     74090     74088     74091
     74092     74088     74091     74092     74088     74090     74092     74088     74089
     74094     74098     74099     74095     74094     74097     74095     74094     74096
     74096     74094     74097     74098     74094     74097     74098     74094     74096
     74098     74094     74095     74100     74104     74105     74101     74100     74103
     74101     74100     74102     74102     74100     74103     74104     74100     74103
     74104     74100     74102     74104     74100     74101     74106     74110     74111
     74107     74106     74109     74107     74106     74108     74108     74106     74109
     74110     74106     74109     74110     74106     74108     74110     74106     74107
     74112     74116     74117     74113     74112     74115     74113     74112     74114
     74114     74112     74115     74116     74112     74115     74116     74112     74114
     74116     74112     74113     74118     74122     74123     74119     74118     74121
     74119     74118     74120     74120     74118     74121     74122     74118     74121
     74122     74118     74120     74122     74118     74119     74124     74128     74129
     74125     74124     74127     74125     74124     74126     74126     74124     74127
     74128     74124     74127     74128     74124     74126     74128     74124     74125
     74130     74134     74135     74131     74130     74133     74131     74130     74132
     74132     74130     74133     74134     74130     74133     74134     74130     74132
     74134     74130     74131     74136     74140     74141     74137     74136     74139
     74137     74136     74138     74138     74136     74139     74140     74136     74139
     74140     74136     74138     74140     74136     74137     74142     74146     74147
     74143     74142     74145     74143     74142     74144     74144     74142     74145
     74146     74142     74145     74146     74142     74144     74146     74142     74143
     74148     74152     74153     74149     74148     74151     74149     74148     74150
     74150     74148     74151     74152     74148     74151     74152     74148     74150
     74152     74148     74149     74154     74158     74159     74155     74154     74157
     74155     74154     74156     74156     74154     74157     74158     74154     74157
     74158     74154     74156     74158     74154     74155     74160     74164     74165
     74161     74160     74163     74161     74160     74162     74162     74160     74163
     74164     74160     74163     74164     74160     74162     74164     74160     74161
     74166     74170     74171     74167     74166     74169     74167     74166     74168
     74168     74166     74169     74170     74166     74169     74170     74166     74168
     74170     74166     74167     74172     74176     74177     74173     74172     74175
     74173     74172     74174     74174     74172     74175     74176     74172     74175
     74176     74172     74174     74176     74172     74173     74178     74182     74183
     74179     74178     74181     74179     74178     74180     74180     74178     74181
     74182     74178     74181     74182     74178     74180     74182     74178     74179
     74184     74188     74189     74185     74184     74187     74185     74184     74186
     74186     74184     74187     74188     74184     74187     74188     74184     74186
     74188     74184     74185     74190     74194     74195     74191     74190     74193
     74191     74190     74192     74192     74190     74193     74194     74190     74193
     74194     74190     74192     74194     74190     74191     74196     74200     74201
     74197     74196     74199     74197     74196     74198     74198     74196     74199
     74200     74196     74199     74200     74196     74198     74200     74196     74197
     74202     74206     74207     74203     74202     74205     74203     74202     74204
     74204     74202     74205     74206     74202     74205     74206     74202     74204
     74206     74202     74203     74208     74212     74213     74209     74208     74211
     74209     74208     74210     74210     74208     74211     74212     74208     74211
     74212     74208     74210     74212     74208     74209     74214     74218     74219
     74215     74214     74217     74215     74214     74216     74216     74214     74217
     74218     74214     74217     74218     74214     74216     74218     74214     74215
     74220     74224     74225     74221     74220     74223     74221     74220     74222
     74222     74220     74223     74224     74220     74223     74224     74220     74222
     74224     74220     74221     74226     74230     74231     74227     74226     74229
     74227     74226     74228     74228     74226     74229     74230     74226     74229
     74230     74226     74228     74230     74226     74227     74232     74236     74237
     74233     74232     74235     74233     74232     74234     74234     74232     74235
     74236     74232     74235     74236     74232     74234     74236     74232     74233
     74238     74242     74243     74239     74238     74241     74239     74238     74240
     74240     74238     74241     74242     74238     74241     74242     74238     74240
     74242     74238     74239     74244     74248     74249     74245     74244     74247
     74245     74244     74246     74246     74244     74247     74248     74244     74247
     74248     74244     74246     74248     74244     74245     74250     74254     74255
     74251     74250     74253     74251     74250     74252     74252     74250     74253
     74254     74250     74253     74254     74250     74252     74254     74250     74251
     74256     74260     74261     74257     74256     74259     74257     74256     74258
     74258     74256     74259     74260     74256     74259     74260     74256     74258
     74260     74256     74257     74262     74266     74267     74263     74262     74265
     74263     74262     74264     74264     74262     74265     74266     74262     74265
     74266     74262     74264     74266     74262     74263     74268     74272     74273
     74269     74268     74271     74269     74268     74270     74270     74268     74271
     74272     74268     74271     74272     74268     74270     74272     74268     74269
     74274     74278     74279     74275     74274     74277     74275     74274     74276
     74276     74274     74277     74278     74274     74277     74278     74274     74276
     74278     74274     74275     74280     74284     74285     74281     74280     74283
     74281     74280     74282     74282     74280     74283     74284     74280     74283
     74284     74280     74282     74284     74280     74281     74286     74290     74291
     74287     74286     74289     74287     74286     74288     74288     74286     74289
     74290     74286     74289     74290     74286     74288     74290     74286     74287
     74292     74296     74297     74293     74292     74295     74293     74292     74294
     74294     74292     74295     74296     74292     74295     74296     74292     74294
     74296     74292     74293     74298     74302     74303     74299     74298     74301
     74299     74298     74300     74300     74298     74301     74302     74298     74301
     74302     74298     74300     74302     74298     74299     74304     74308     74309
     74305     74304     74307     74305     74304     74306     74306     74304     74307
     74308     74304     74307     74308     74304     74306     74308     74304     74305
     74310     74314     74315     74311     74310     74313     74311     74310     74312
     74312     74310     74313     74314     74310     74313     74314     74310     74312
     74314     74310     74311     74316     74320     74321     74317     74316     74319
     74317     74316     74318     74318     74316     74319     74320     74316     74319
     74320     74316     74318     74320     74316     74317     74322     74326     74327
     74323     74322     74325     74323     74322     74324     74324     74322     74325
     74326     74322     74325     74326     74322     74324     74326     74322     74323
     74328     74332     74333     74329     74328     74331     74329     74328     74330
     74330     74328     74331     74332     74328     74331     74332     74328     74330
     74332     74328     74329     74334     74338     74339     74335     74334     74337
     74335     74334     74336     74336     74334     74337     74338     74334     74337
     74338     74334     74336     74338     74334     74335     74340     74344     74345
     74341     74340     74343     74341     74340     74342     74342     74340     74343
     74344     74340     74343     74344     74340     74342     74344     74340     74341
     74346     74350     74351     74347     74346     74349     74347     74346     74348
     74348     74346     74349     74350     74346     74349     74350     74346     74348
     74350     74346     74347     74352     74356     74357     74353     74352     74355
     74353     74352     74354     74354     74352     74355     74356     74352     74355
     74356     74352     74354     74356     74352     74353     74358     74362     74363
     74359     74358     74361     74359     74358     74360     74360     74358     74361
     74362     74358     74361     74362     74358     74360     74362     74358     74359
     74364     74368     74369     74365     74364     74367     74365     74364     74366
     74366     74364     74367     74368     74364     74367     74368     74364     74366
     74368     74364     74365     74370     74374     74375     74371     74370     74373
     74371     74370     74372     74372     74370     74373     74374     74370     74373
     74374     74370     74372     74374     74370     74371     74376     74380     74381
     74377     74376     74379     74377     74376     74378     74378     74376     74379
     74380     74376     74379     74380     74376     74378     74380     74376     74377
     74382     74386     74387     74383     74382     74385     74383     74382     74384
     74384     74382     74385     74386     74382     74385     74386     74382     74384
     74386     74382     74383     74388     74392     74393     74389     74388     74391
     74389     74388     74390     74390     74388     74391     74392     74388     74391
     74392     74388     74390     74392     74388     74389     74394     74398     74399
     74395     74394     74397     74395     74394     74396     74396     74394     74397
     74398     74394     74397     74398     74394     74396     74398     74394     74395
     74400     74404     74405     74401     74400     74403     74401     74400     74402
     74402     74400     74403     74404     74400     74403     74404     74400     74402
     74404     74400     74401     74406     74410     74411     74407     74406     74409
     74407     74406     74408     74408     74406     74409     74410     74406     74409
     74410     74406     74408     74410     74406     74407     74412     74416     74417
     74413     74412     74415     74413     74412     74414     74414     74412     74415
     74416     74412     74415     74416     74412     74414     74416     74412     74413
     74418     74422     74423     74419     74418     74421     74419     74418     74420
     74420     74418     74421     74422     74418     74421     74422     74418     74420
     74422     74418     74419     74424     74428     74429     74425     74424     74427
     74425     74424     74426     74426     74424     74427     74428     74424     74427
     74428     74424     74426     74428     74424     74425     74430     74434     74435
     74431     74430     74433     74431     74430     74432     74432     74430     74433
     74434     74430     74433     74434     74430     74432     74434     74430     74431
     74436     74440     74441     74437     74436     74439     74437     74436     74438
     74438     74436     74439     74440     74436     74439     74440     74436     74438
     74440     74436     74437     74442     74446     74447     74443     74442     74445
     74443     74442     74444     74444     74442     74445     74446     74442     74445
     74446     74442     74444     74446     74442     74443     74448     74452     74453
     74449     74448     74451     74449     74448     74450     74450     74448     74451
     74452     74448     74451     74452     74448     74450     74452     74448     74449
     74454     74458     74459     74455     74454     74457     74455     74454     74456
     74456     74454     74457     74458     74454     74457     74458     74454     74456
     74458     74454     74455     74460     74464     74465     74461     74460     74463
     74461     74460     74462     74462     74460     74463     74464     74460     74463
     74464     74460     74462     74464     74460     74461     74466     74470     74471
     74467     74466     74469     74467     74466     74468     74468     74466     74469
     74470     74466     74469     74470     74466     74468     74470     74466     74467
     74472     74476     74477     74473     74472     74475     74473     74472     74474
     74474     74472     74475     74476     74472     74475     74476     74472     74474
     74476     74472     74473     74478     74482     74483     74479     74478     74481
     74479     74478     74480     74480     74478     74481     74482     74478     74481
     74482     74478     74480     74482     74478     74479     74484     74488     74489
     74485     74484     74487     74485     74484     74486     74486     74484     74487
     74488     74484     74487     74488     74484     74486     74488     74484     74485
     74490     74494     74495     74491     74490     74493     74491     74490     74492
     74492     74490     74493     74494     74490     74493     74494     74490     74492
     74494     74490     74491     74496     74500     74501     74497     74496     74499
     74497     74496     74498     74498     74496     74499     74500     74496     74499
     74500     74496     74498     74500     74496     74497     74502     74506     74507
     74503     74502     74505     74503     74502     74504     74504     74502     74505
     74506     74502     74505     74506     74502     74504     74506     74502     74503
     74508     74512     74513     74509     74508     74511     74509     74508     74510
     74510     74508     74511     74512     74508     74511     74512     74508     74510
     74512     74508     74509     74514     74518     74519     74515     74514     74517
     74515     74514     74516     74516     74514     74517     74518     74514     74517
     74518     74514     74516     74518     74514     74515     74520     74524     74525
     74521     74520     74523     74521     74520     74522     74522     74520     74523
     74524     74520     74523     74524     74520     74522     74524     74520     74521
     74526     74530     74531     74527     74526     74529     74527     74526     74528
     74528     74526     74529     74530     74526     74529     74530     74526     74528
     74530     74526     74527     74532     74536     74537     74533     74532     74535
     74533     74532     74534     74534     74532     74535     74536     74532     74535
     74536     74532     74534     74536     74532     74533     74538     74542     74543
     74539     74538     74541     74539     74538     74540     74540     74538     74541
     74542     74538     74541     74542     74538     74540     74542     74538     74539
     74544     74548     74549     74545     74544     74547     74545     74544     74546
     74546     74544     74547     74548     74544     74547     74548     74544     74546
     74548     74544     74545     74550     74554     74555     74551     74550     74553
     74551     74550     74552     74552     74550     74553     74554     74550     74553
     74554     74550     74552     74554     74550     74551     74556     74560     74561
     74557     74556     74559     74557     74556     74558     74558     74556     74559
     74560     74556     74559     74560     74556     74558     74560     74556     74557
     74562     74566     74567     74563     74562     74565     74563     74562     74564
     74564     74562     74565     74566     74562     74565     74566     74562     74564
     74566     74562     74563     74568     74572     74573     74569     74568     74571
     74569     74568     74570     74570     74568     74571     74572     74568     74571
     74572     74568     74570     74572     74568     74569     74574     74578     74579
     74575     74574     74577     74575     74574     74576     74576     74574     74577
     74578     74574     74577     74578     74574     74576     74578     74574     74575
     74580     74584     74585     74581     74580     74583     74581     74580     74582
     74582     74580     74583     74584     74580     74583     74584     74580     74582
     74584     74580     74581     74586     74590     74591     74587     74586     74589
     74587     74586     74588     74588     74586     74589     74590     74586     74589
     74590     74586     74588     74590     74586     74587     74592     74596     74597
     74593     74592     74595     74593     74592     74594     74594     74592     74595
     74596     74592     74595     74596     74592     74594     74596     74592     74593
     74598     74602     74603     74599     74598     74601     74599     74598     74600
     74600     74598     74601     74602     74598     74601     74602     74598     74600
     74602     74598     74599     74604     74608     74609     74605     74604     74607
     74605     74604     74606     74606     74604     74607     74608     74604     74607
     74608     74604     74606     74608     74604     74605     74610     74614     74615
     74611     74610     74613     74611     74610     74612     74612     74610     74613
     74614     74610     74613     74614     74610     74612     74614     74610     74611
     74616     74620     74621     74617     74616     74619     74617     74616     74618
     74618     74616     74619     74620     74616     74619     74620     74616     74618
     74620     74616     74617     74622     74626     74627     74623     74622     74625
     74623     74622     74624     74624     74622     74625     74626     74622     74625
     74626     74622     74624     74626     74622     74623     74628     74632     74633
     74629     74628     74631     74629     74628     74630     74630     74628     74631
     74632     74628     74631     74632     74628     74630     74632     74628     74629
     74634     74638     74639     74635     74634     74637     74635     74634     74636
     74636     74634     74637     74638     74634     74637     74638     74634     74636
     74638     74634     74635     74640     74644     74645     74641     74640     74643
     74641     74640     74642     74642     74640     74643     74644     74640     74643
     74644     74640     74642     74644     74640     74641     74646     74650     74651
     74647     74646     74649     74647     74646     74648     74648     74646     74649
     74650     74646     74649     74650     74646     74648     74650     74646     74647
     74652     74656     74657     74653     74652     74655     74653     74652     74654
     74654     74652     74655     74656     74652     74655     74656     74652     74654
     74656     74652     74653     74658     74662     74663     74659     74658     74661
     74659     74658     74660     74660     74658     74661     74662     74658     74661
     74662     74658     74660     74662     74658     74659     74664     74668     74669
     74665     74664     74667     74665     74664     74666     74666     74664     74667
     74668     74664     74667     74668     74664     74666     74668     74664     74665
     74670     74674     74675     74671     74670     74673     74671     74670     74672
     74672     74670     74673     74674     74670     74673     74674     74670     74672
     74674     74670     74671     74676     74680     74681     74677     74676     74679
     74677     74676     74678     74678     74676     74679     74680     74676     74679
     74680     74676     74678     74680     74676     74677     74682     74686     74687
     74683     74682     74685     74683     74682     74684     74684     74682     74685
     74686     74682     74685     74686     74682     74684     74686     74682     74683
     74688     74692     74693     74689     74688     74691     74689     74688     74690
     74690     74688     74691     74692     74688     74691     74692     74688     74690
     74692     74688     74689     74694     74698     74699     74695     74694     74697
     74695     74694     74696     74696     74694     74697     74698     74694     74697
     74698     74694     74696     74698     74694     74695     74700     74704     74705
     74701     74700     74703     74701     74700     74702     74702     74700     74703
     74704     74700     74703     74704     74700     74702     74704     74700     74701
     74706     74710     74711     74707     74706     74709     74707     74706     74708
     74708     74706     74709     74710     74706     74709     74710     74706     74708
     74710     74706     74707     74712     74716     74717     74713     74712     74715
     74713     74712     74714     74714     74712     74715     74716     74712     74715
     74716     74712     74714     74716     74712     74713     74718     74722     74723
     74719     74718     74721     74719     74718     74720     74720     74718     74721
     74722     74718     74721     74722     74718     74720     74722     74718     74719
     74724     74728     74729     74725     74724     74727     74725     74724     74726
     74726     74724     74727     74728     74724     74727     74728     74724     74726
     74728     74724     74725     74730     74734     74735     74731     74730     74733
     74731     74730     74732     74732     74730     74733     74734     74730     74733
     74734     74730     74732     74734     74730     74731     74736     74740     74741
     74737     74736     74739     74737     74736     74738     74738     74736     74739
     74740     74736     74739     74740     74736     74738     74740     74736     74737
     74742     74746     74747     74743     74742     74745     74743     74742     74744
     74744     74742     74745     74746     74742     74745     74746     74742     74744
     74746     74742     74743     74748     74752     74753     74749     74748     74751
     74749     74748     74750     74750     74748     74751     74752     74748     74751
     74752     74748     74750     74752     74748     74749     74754     74758     74759
     74755     74754     74757     74755     74754     74756     74756     74754     74757
     74758     74754     74757     74758     74754     74756     74758     74754     74755
     74760     74764     74765     74761     74760     74763     74761     74760     74762
     74762     74760     74763     74764     74760     74763     74764     74760     74762
     74764     74760     74761     74766     74770     74771     74767     74766     74769
     74767     74766     74768     74768     74766     74769     74770     74766     74769
     74770     74766     74768     74770     74766     74767     74772     74776     74777
     74773     74772     74775     74773     74772     74774     74774     74772     74775
     74776     74772     74775     74776     74772     74774     74776     74772     74773
     74778     74782     74783     74779     74778     74781     74779     74778     74780
     74780     74778     74781     74782     74778     74781     74782     74778     74780
     74782     74778     74779     74784     74788     74789     74785     74784     74787
     74785     74784     74786     74786     74784     74787     74788     74784     74787
     74788     74784     74786     74788     74784     74785     74790     74794     74795
     74791     74790     74793     74791     74790     74792     74792     74790     74793
     74794     74790     74793     74794     74790     74792     74794     74790     74791
     74796     74800     74801     74797     74796     74799     74797     74796     74798
     74798     74796     74799     74800     74796     74799     74800     74796     74798
     74800     74796     74797     74802     74806     74807     74803     74802     74805
     74803     74802     74804     74804     74802     74805     74806     74802     74805
     74806     74802     74804     74806     74802     74803     74808     74812     74813
     74809     74808     74811     74809     74808     74810     74810     74808     74811
     74812     74808     74811     74812     74808     74810     74812     74808     74809
     74814     74818     74819     74815     74814     74817     74815     74814     74816
     74816     74814     74817     74818     74814     74817     74818     74814     74816
     74818     74814     74815     74820     74824     74825     74821     74820     74823
     74821     74820     74822     74822     74820     74823     74824     74820     74823
     74824     74820     74822     74824     74820     74821     74826     74830     74831
     74827     74826     74829     74827     74826     74828     74828     74826     74829
     74830     74826     74829     74830     74826     74828     74830     74826     74827
     74832     74836     74837     74833     74832     74835     74833     74832     74834
     74834     74832     74835     74836     74832     74835     74836     74832     74834
     74836     74832     74833     74838     74842     74843     74839     74838     74841
     74839     74838     74840     74840     74838     74841     74842     74838     74841
     74842     74838     74840     74842     74838     74839     74844     74848     74849
     74845     74844     74847     74845     74844     74846     74846     74844     74847
     74848     74844     74847     74848     74844     74846     74848     74844     74845
     74850     74854     74855     74851     74850     74853     74851     74850     74852
     74852     74850     74853     74854     74850     74853     74854     74850     74852
     74854     74850     74851     74856     74860     74861     74857     74856     74859
     74857     74856     74858     74858     74856     74859     74860     74856     74859
     74860     74856     74858     74860     74856     74857     74862     74866     74867
     74863     74862     74865     74863     74862     74864     74864     74862     74865
     74866     74862     74865     74866     74862     74864     74866     74862     74863
     74868     74872     74873     74869     74868     74871     74869     74868     74870
     74870     74868     74871     74872     74868     74871     74872     74868     74870
     74872     74868     74869     74874     74878     74879     74875     74874     74877
     74875     74874     74876     74876     74874     74877     74878     74874     74877
     74878     74874     74876     74878     74874     74875     74880     74884     74885
     74881     74880     74883     74881     74880     74882     74882     74880     74883
     74884     74880     74883     74884     74880     74882     74884     74880     74881
     74886     74890     74891     74887     74886     74889     74887     74886     74888
     74888     74886     74889     74890     74886     74889     74890     74886     74888
     74890     74886     74887     74892     74896     74897     74893     74892     74895
     74893     74892     74894     74894     74892     74895     74896     74892     74895
     74896     74892     74894     74896     74892     74893     74898     74902     74903
     74899     74898     74901     74899     74898     74900     74900     74898     74901
     74902     74898     74901     74902     74898     74900     74902     74898     74899
     74904     74908     74909     74905     74904     74907     74905     74904     74906
     74906     74904     74907     74908     74904     74907     74908     74904     74906
     74908     74904     74905     74910     74914     74915     74911     74910     74913
     74911     74910     74912     74912     74910     74913     74914     74910     74913
     74914     74910     74912     74914     74910     74911     74916     74920     74921
     74917     74916     74919     74917     74916     74918     74918     74916     74919
     74920     74916     74919     74920     74916     74918     74920     74916     74917
     74922     74926     74927     74923     74922     74925     74923     74922     74924
     74924     74922     74925     74926     74922     74925     74926     74922     74924
     74926     74922     74923     74928     74932     74933     74929     74928     74931
     74929     74928     74930     74930     74928     74931     74932     74928     74931
     74932     74928     74930     74932     74928     74929     74934     74938     74939
     74935     74934     74937     74935     74934     74936     74936     74934     74937
     74938     74934     74937     74938     74934     74936     74938     74934     74935
     74940     74944     74945     74941     74940     74943     74941     74940     74942
     74942     74940     74943     74944     74940     74943     74944     74940     74942
     74944     74940     74941     74946     74950     74951     74947     74946     74949
     74947     74946     74948     74948     74946     74949     74950     74946     74949
     74950     74946     74948     74950     74946     74947     74952     74956     74957
     74953     74952     74955     74953     74952     74954     74954     74952     74955
     74956     74952     74955     74956     74952     74954     74956     74952     74953
     74958     74962     74963     74959     74958     74961     74959     74958     74960
     74960     74958     74961     74962     74958     74961     74962     74958     74960
     74962     74958     74959     74964     74968     74969     74965     74964     74967
     74965     74964     74966     74966     74964     74967     74968     74964     74967
     74968     74964     74966     74968     74964     74965     74970     74974     74975
     74971     74970     74973     74971     74970     74972     74972     74970     74973
     74974     74970     74973     74974     74970     74972     74974     74970     74971
     74976     74980     74981     74977     74976     74979     74977     74976     74978
     74978     74976     74979     74980     74976     74979     74980     74976     74978
     74980     74976     74977     74982     74986     74987     74983     74982     74985
     74983     74982     74984     74984     74982     74985     74986     74982     74985
     74986     74982     74984     74986     74982     74983     74988     74992     74993
     74989     74988     74991     74989     74988     74990     74990     74988     74991
     74992     74988     74991     74992     74988     74990     74992     74988     74989
     74994     74998     74999     74995     74994     74997     74995     74994     74996
     74996     74994     74997     74998     74994     74997     74998     74994     74996
     74998     74994     74995     75000     75004     75005     75001     75000     75003
     75001     75000     75002     75002     75000     75003     75004     75000     75003
     75004     75000     75002     75004     75000     75001     75006     75010     75011
     75007     75006     75009     75007     75006     75008     75008     75006     75009
     75010     75006     75009     75010     75006     75008     75010     75006     75007
     75012     75016     75017     75013     75012     75015     75013     75012     75014
     75014     75012     75015     75016     75012     75015     75016     75012     75014
     75016     75012     75013     75018     75022     75023     75019     75018     75021
     75019     75018     75020     75020     75018     75021     75022     75018     75021
     75022     75018     75020     75022     75018     75019     75024     75028     75029
     75025     75024     75027     75025     75024     75026     75026     75024     75027
     75028     75024     75027     75028     75024     75026     75028     75024     75025
     75030     75034     75035     75031     75030     75033     75031     75030     75032
     75032     75030     75033     75034     75030     75033     75034     75030     75032
     75034     75030     75031     75036     75040     75041     75037     75036     75039
     75037     75036     75038     75038     75036     75039     75040     75036     75039
     75040     75036     75038     75040     75036     75037     75042     75046     75047
     75043     75042     75045     75043     75042     75044     75044     75042     75045
     75046     75042     75045     75046     75042     75044     75046     75042     75043
     75048     75052     75053     75049     75048     75051     75049     75048     75050
     75050     75048     75051     75052     75048     75051     75052     75048     75050
     75052     75048     75049     75054     75058     75059     75055     75054     75057
     75055     75054     75056     75056     75054     75057     75058     75054     75057
     75058     75054     75056     75058     75054     75055     75060     75064     75065
     75061     75060     75063     75061     75060     75062     75062     75060     75063
     75064     75060     75063     75064     75060     75062     75064     75060     75061
     75066     75070     75071     75067     75066     75069     75067     75066     75068
     75068     75066     75069     75070     75066     75069     75070     75066     75068
     75070     75066     75067     75072     75076     75077     75073     75072     75075
     75073     75072     75074     75074     75072     75075     75076     75072     75075
     75076     75072     75074     75076     75072     75073     75078     75082     75083
     75079     75078     75081     75079     75078     75080     75080     75078     75081
     75082     75078     75081     75082     75078     75080     75082     75078     75079
     75084     75088     75089     75085     75084     75087     75085     75084     75086
     75086     75084     75087     75088     75084     75087     75088     75084     75086
     75088     75084     75085     75090     75094     75095     75091     75090     75093
     75091     75090     75092     75092     75090     75093     75094     75090     75093
     75094     75090     75092     75094     75090     75091     75096     75100     75101
     75097     75096     75099     75097     75096     75098     75098     75096     75099
     75100     75096     75099     75100     75096     75098     75100     75096     75097
     75102     75106     75107     75103     75102     75105     75103     75102     75104
     75104     75102     75105     75106     75102     75105     75106     75102     75104
     75106     75102     75103     75108     75112     75113     75109     75108     75111
     75109     75108     75110     75110     75108     75111     75112     75108     75111
     75112     75108     75110     75112     75108     75109     75114     75118     75119
     75115     75114     75117     75115     75114     75116     75116     75114     75117
     75118     75114     75117     75118     75114     75116     75118     75114     75115
     75120     75124     75125     75121     75120     75123     75121     75120     75122
     75122     75120     75123     75124     75120     75123     75124     75120     75122
     75124     75120     75121     75126     75130     75131     75127     75126     75129
     75127     75126     75128     75128     75126     75129     75130     75126     75129
     75130     75126     75128     75130     75126     75127     75132     75136     75137
     75133     75132     75135     75133     75132     75134     75134     75132     75135
     75136     75132     75135     75136     75132     75134     75136     75132     75133
     75138     75142     75143     75139     75138     75141     75139     75138     75140
     75140     75138     75141     75142     75138     75141     75142     75138     75140
     75142     75138     75139     75144     75148     75149     75145     75144     75147
     75145     75144     75146     75146     75144     75147     75148     75144     75147
     75148     75144     75146     75148     75144     75145     75150     75154     75155
     75151     75150     75153     75151     75150     75152     75152     75150     75153
     75154     75150     75153     75154     75150     75152     75154     75150     75151
     75156     75160     75161     75157     75156     75159     75157     75156     75158
     75158     75156     75159     75160     75156     75159     75160     75156     75158
     75160     75156     75157     75162     75166     75167     75163     75162     75165
     75163     75162     75164     75164     75162     75165     75166     75162     75165
     75166     75162     75164     75166     75162     75163     75168     75172     75173
     75169     75168     75171     75169     75168     75170     75170     75168     75171
     75172     75168     75171     75172     75168     75170     75172     75168     75169
     75174     75178     75179     75175     75174     75177     75175     75174     75176
     75176     75174     75177     75178     75174     75177     75178     75174     75176
     75178     75174     75175     75180     75184     75185     75181     75180     75183
     75181     75180     75182     75182     75180     75183     75184     75180     75183
     75184     75180     75182     75184     75180     75181     75186     75190     75191
     75187     75186     75189     75187     75186     75188     75188     75186     75189
     75190     75186     75189     75190     75186     75188     75190     75186     75187
     75192     75196     75197     75193     75192     75195     75193     75192     75194
     75194     75192     75195     75196     75192     75195     75196     75192     75194
     75196     75192     75193     75198     75202     75203     75199     75198     75201
     75199     75198     75200     75200     75198     75201     75202     75198     75201
     75202     75198     75200     75202     75198     75199     75204     75208     75209
     75205     75204     75207     75205     75204     75206     75206     75204     75207
     75208     75204     75207     75208     75204     75206     75208     75204     75205
     75210     75214     75215     75211     75210     75213     75211     75210     75212
     75212     75210     75213     75214     75210     75213     75214     75210     75212
     75214     75210     75211     75216     75220     75221     75217     75216     75219
     75217     75216     75218     75218     75216     75219     75220     75216     75219
     75220     75216     75218     75220     75216     75217     75222     75226     75227
     75223     75222     75225     75223     75222     75224     75224     75222     75225
     75226     75222     75225     75226     75222     75224     75226     75222     75223
     75228     75232     75233     75229     75228     75231     75229     75228     75230
     75230     75228     75231     75232     75228     75231     75232     75228     75230
     75232     75228     75229     75234     75238     75239     75235     75234     75237
     75235     75234     75236     75236     75234     75237     75238     75234     75237
     75238     75234     75236     75238     75234     75235     75240     75244     75245
     75241     75240     75243     75241     75240     75242     75242     75240     75243
     75244     75240     75243     75244     75240     75242     75244     75240     75241
     75246     75250     75251     75247     75246     75249     75247     75246     75248
     75248     75246     75249     75250     75246     75249     75250     75246     75248
     75250     75246     75247     75252     75256     75257     75253     75252     75255
     75253     75252     75254     75254     75252     75255     75256     75252     75255
     75256     75252     75254     75256     75252     75253     75258     75262     75263
     75259     75258     75261     75259     75258     75260     75260     75258     75261
     75262     75258     75261     75262     75258     75260     75262     75258     75259
     75264     75268     75269     75265     75264     75267     75265     75264     75266
     75266     75264     75267     75268     75264     75267     75268     75264     75266
     75268     75264     75265     75270     75274     75275     75271     75270     75273
     75271     75270     75272     75272     75270     75273     75274     75270     75273
     75274     75270     75272     75274     75270     75271     75276     75280     75281
     75277     75276     75279     75277     75276     75278     75278     75276     75279
     75280     75276     75279     75280     75276     75278     75280     75276     75277
     75282     75286     75287     75283     75282     75285     75283     75282     75284
     75284     75282     75285     75286     75282     75285     75286     75282     75284
     75286     75282     75283     75288     75292     75293     75289     75288     75291
     75289     75288     75290     75290     75288     75291     75292     75288     75291
     75292     75288     75290     75292     75288     75289     75294     75298     75299
     75295     75294     75297     75295     75294     75296     75296     75294     75297
     75298     75294     75297     75298     75294     75296     75298     75294     75295
     75300     75304     75305     75301     75300     75303     75301     75300     75302
     75302     75300     75303     75304     75300     75303     75304     75300     75302
     75304     75300     75301     75306     75310     75311     75307     75306     75309
     75307     75306     75308     75308     75306     75309     75310     75306     75309
     75310     75306     75308     75310     75306     75307     75312     75316     75317
     75313     75312     75315     75313     75312     75314     75314     75312     75315
     75316     75312     75315     75316     75312     75314     75316     75312     75313
     75318     75322     75323     75319     75318     75321     75319     75318     75320
     75320     75318     75321     75322     75318     75321     75322     75318     75320
     75322     75318     75319     75324     75328     75329     75325     75324     75327
     75325     75324     75326     75326     75324     75327     75328     75324     75327
     75328     75324     75326     75328     75324     75325     75330     75334     75335
     75331     75330     75333     75331     75330     75332     75332     75330     75333
     75334     75330     75333     75334     75330     75332     75334     75330     75331
     75336     75340     75341     75337     75336     75339     75337     75336     75338
     75338     75336     75339     75340     75336     75339     75340     75336     75338
     75340     75336     75337     75342     75346     75347     75343     75342     75345
     75343     75342     75344     75344     75342     75345     75346     75342     75345
     75346     75342     75344     75346     75342     75343     75348     75352     75353
     75349     75348     75351     75349     75348     75350     75350     75348     75351
     75352     75348     75351     75352     75348     75350     75352     75348     75349
     75354     75358     75359     75355     75354     75357     75355     75354     75356
     75356     75354     75357     75358     75354     75357     75358     75354     75356
     75358     75354     75355     75360     75364     75365     75361     75360     75363
     75361     75360     75362     75362     75360     75363     75364     75360     75363
     75364     75360     75362     75364     75360     75361     75366     75370     75371
     75367     75366     75369     75367     75366     75368     75368     75366     75369
     75370     75366     75369     75370     75366     75368     75370     75366     75367
     75372     75376     75377     75373     75372     75375     75373     75372     75374
     75374     75372     75375     75376     75372     75375     75376     75372     75374
     75376     75372     75373     75378     75382     75383     75379     75378     75381
     75379     75378     75380     75380     75378     75381     75382     75378     75381
     75382     75378     75380     75382     75378     75379     75384     75388     75389
     75385     75384     75387     75385     75384     75386     75386     75384     75387
     75388     75384     75387     75388     75384     75386     75388     75384     75385
     75390     75394     75395     75391     75390     75393     75391     75390     75392
     75392     75390     75393     75394     75390     75393     75394     75390     75392
     75394     75390     75391     75396     75400     75401     75397     75396     75399
     75397     75396     75398     75398     75396     75399     75400     75396     75399
     75400     75396     75398     75400     75396     75397     75402     75406     75407
     75403     75402     75405     75403     75402     75404     75404     75402     75405
     75406     75402     75405     75406     75402     75404     75406     75402     75403
     75408     75412     75413     75409     75408     75411     75409     75408     75410
     75410     75408     75411     75412     75408     75411     75412     75408     75410
     75412     75408     75409     75414     75418     75419     75415     75414     75417
     75415     75414     75416     75416     75414     75417     75418     75414     75417
     75418     75414     75416     75418     75414     75415     75420     75424     75425
     75421     75420     75423     75421     75420     75422     75422     75420     75423
     75424     75420     75423     75424     75420     75422     75424     75420     75421
     75426     75430     75431     75427     75426     75429     75427     75426     75428
     75428     75426     75429     75430     75426     75429     75430     75426     75428
     75430     75426     75427     75432     75436     75437     75433     75432     75435
     75433     75432     75434     75434     75432     75435     75436     75432     75435
     75436     75432     75434     75436     75432     75433     75438     75442     75443
     75439     75438     75441     75439     75438     75440     75440     75438     75441
     75442     75438     75441     75442     75438     75440     75442     75438     75439
     75444     75448     75449     75445     75444     75447     75445     75444     75446
     75446     75444     75447     75448     75444     75447     75448     75444     75446
     75448     75444     75445     75450     75454     75455     75451     75450     75453
     75451     75450     75452     75452     75450     75453     75454     75450     75453
     75454     75450     75452     75454     75450     75451     75456     75460     75461
     75457     75456     75459     75457     75456     75458     75458     75456     75459
     75460     75456     75459     75460     75456     75458     75460     75456     75457
     75462     75466     75467     75463     75462     75465     75463     75462     75464
     75464     75462     75465     75466     75462     75465     75466     75462     75464
     75466     75462     75463     75468     75472     75473     75469     75468     75471
     75469     75468     75470     75470     75468     75471     75472     75468     75471
     75472     75468     75470     75472     75468     75469     75474     75478     75479
     75475     75474     75477     75475     75474     75476     75476     75474     75477
     75478     75474     75477     75478     75474     75476     75478     75474     75475
     75480     75484     75485     75481     75480     75483     75481     75480     75482
     75482     75480     75483     75484     75480     75483     75484     75480     75482
     75484     75480     75481     75486     75490     75491     75487     75486     75489
     75487     75486     75488     75488     75486     75489     75490     75486     75489
     75490     75486     75488     75490     75486     75487     75492     75496     75497
     75493     75492     75495     75493     75492     75494     75494     75492     75495
     75496     75492     75495     75496     75492     75494     75496     75492     75493
     75498     75502     75503     75499     75498     75501     75499     75498     75500
     75500     75498     75501     75502     75498     75501     75502     75498     75500
     75502     75498     75499     75504     75508     75509     75505     75504     75507
     75505     75504     75506     75506     75504     75507     75508     75504     75507
     75508     75504     75506     75508     75504     75505     75510     75514     75515
     75511     75510     75513     75511     75510     75512     75512     75510     75513
     75514     75510     75513     75514     75510     75512     75514     75510     75511
     75516     75520     75521     75517     75516     75519     75517     75516     75518
     75518     75516     75519     75520     75516     75519     75520     75516     75518
     75520     75516     75517     75522     75526     75527     75523     75522     75525
     75523     75522     75524     75524     75522     75525     75526     75522     75525
     75526     75522     75524     75526     75522     75523     75528     75532     75533
     75529     75528     75531     75529     75528     75530     75530     75528     75531
     75532     75528     75531     75532     75528     75530     75532     75528     75529
     75534     75538     75539     75535     75534     75537     75535     75534     75536
     75536     75534     75537     75538     75534     75537     75538     75534     75536
     75538     75534     75535     75540     75544     75545     75541     75540     75543
     75541     75540     75542     75542     75540     75543     75544     75540     75543
     75544     75540     75542     75544     75540     75541     75546     75550     75551
     75547     75546     75549     75547     75546     75548     75548     75546     75549
     75550     75546     75549     75550     75546     75548     75550     75546     75547
     75552     75556     75557     75553     75552     75555     75553     75552     75554
     75554     75552     75555     75556     75552     75555     75556     75552     75554
     75556     75552     75553     75558     75562     75563     75559     75558     75561
     75559     75558     75560     75560     75558     75561     75562     75558     75561
     75562     75558     75560     75562     75558     75559     75564     75568     75569
     75565     75564     75567     75565     75564     75566     75566     75564     75567
     75568     75564     75567     75568     75564     75566     75568     75564     75565
     75570     75574     75575     75571     75570     75573     75571     75570     75572
     75572     75570     75573     75574     75570     75573     75574     75570     75572
     75574     75570     75571     75576     75580     75581     75577     75576     75579
     75577     75576     75578     75578     75576     75579     75580     75576     75579
     75580     75576     75578     75580     75576     75577     75582     75586     75587
     75583     75582     75585     75583     75582     75584     75584     75582     75585
     75586     75582     75585     75586     75582     75584     75586     75582     75583
     75588     75592     75593     75589     75588     75591     75589     75588     75590
     75590     75588     75591     75592     75588     75591     75592     75588     75590
     75592     75588     75589     75594     75598     75599     75595     75594     75597
     75595     75594     75596     75596     75594     75597     75598     75594     75597
     75598     75594     75596     75598     75594     75595     75600     75604     75605
     75601     75600     75603     75601     75600     75602     75602     75600     75603
     75604     75600     75603     75604     75600     75602     75604     75600     75601
     75606     75610     75611     75607     75606     75609     75607     75606     75608
     75608     75606     75609     75610     75606     75609     75610     75606     75608
     75610     75606     75607     75612     75616     75617     75613     75612     75615
     75613     75612     75614     75614     75612     75615     75616     75612     75615
     75616     75612     75614     75616     75612     75613     75618     75622     75623
     75619     75618     75621     75619     75618     75620     75620     75618     75621
     75622     75618     75621     75622     75618     75620     75622     75618     75619
     75624     75628     75629     75625     75624     75627     75625     75624     75626
     75626     75624     75627     75628     75624     75627     75628     75624     75626
     75628     75624     75625     75630     75634     75635     75631     75630     75633
     75631     75630     75632     75632     75630     75633     75634     75630     75633
     75634     75630     75632     75634     75630     75631     75636     75640     75641
     75637     75636     75639     75637     75636     75638     75638     75636     75639
     75640     75636     75639     75640     75636     75638     75640     75636     75637
     75642     75646     75647     75643     75642     75645     75643     75642     75644
     75644     75642     75645     75646     75642     75645     75646     75642     75644
     75646     75642     75643     75648     75652     75653     75649     75648     75651
     75649     75648     75650     75650     75648     75651     75652     75648     75651
     75652     75648     75650     75652     75648     75649     75654     75658     75659
     75655     75654     75657     75655     75654     75656     75656     75654     75657
     75658     75654     75657     75658     75654     75656     75658     75654     75655
     75660     75664     75665     75661     75660     75663     75661     75660     75662
     75662     75660     75663     75664     75660     75663     75664     75660     75662
     75664     75660     75661     75666     75670     75671     75667     75666     75669
     75667     75666     75668     75668     75666     75669     75670     75666     75669
     75670     75666     75668     75670     75666     75667     75672     75676     75677
     75673     75672     75675     75673     75672     75674     75674     75672     75675
     75676     75672     75675     75676     75672     75674     75676     75672     75673
     75678     75682     75683     75679     75678     75681     75679     75678     75680
     75680     75678     75681     75682     75678     75681     75682     75678     75680
     75682     75678     75679     75684     75688     75689     75685     75684     75687
     75685     75684     75686     75686     75684     75687     75688     75684     75687
     75688     75684     75686     75688     75684     75685     75690     75694     75695
     75691     75690     75693     75691     75690     75692     75692     75690     75693
     75694     75690     75693     75694     75690     75692     75694     75690     75691
     75696     75700     75701     75697     75696     75699     75697     75696     75698
     75698     75696     75699     75700     75696     75699     75700     75696     75698
     75700     75696     75697     75702     75706     75707     75703     75702     75705
     75703     75702     75704     75704     75702     75705     75706     75702     75705
     75706     75702     75704     75706     75702     75703     75708     75712     75713
     75709     75708     75711     75709     75708     75710     75710     75708     75711
     75712     75708     75711     75712     75708     75710     75712     75708     75709
     75714     75718     75719     75715     75714     75717     75715     75714     75716
     75716     75714     75717     75718     75714     75717     75718     75714     75716
     75718     75714     75715     75720     75724     75725     75721     75720     75723
     75721     75720     75722     75722     75720     75723     75724     75720     75723
     75724     75720     75722     75724     75720     75721     75726     75730     75731
     75727     75726     75729     75727     75726     75728     75728     75726     75729
     75730     75726     75729     75730     75726     75728     75730     75726     75727
     75732     75736     75737     75733     75732     75735     75733     75732     75734
     75734     75732     75735     75736     75732     75735     75736     75732     75734
     75736     75732     75733     75738     75742     75743     75739     75738     75741
     75739     75738     75740     75740     75738     75741     75742     75738     75741
     75742     75738     75740     75742     75738     75739     75744     75748     75749
     75745     75744     75747     75745     75744     75746     75746     75744     75747
     75748     75744     75747     75748     75744     75746     75748     75744     75745
     75750     75754     75755     75751     75750     75753     75751     75750     75752
     75752     75750     75753     75754     75750     75753     75754     75750     75752
     75754     75750     75751     75756     75760     75761     75757     75756     75759
     75757     75756     75758     75758     75756     75759     75760     75756     75759
     75760     75756     75758     75760     75756     75757     75762     75766     75767
     75763     75762     75765     75763     75762     75764     75764     75762     75765
     75766     75762     75765     75766     75762     75764     75766     75762     75763
     75768     75772     75773     75769     75768     75771     75769     75768     75770
     75770     75768     75771     75772     75768     75771     75772     75768     75770
     75772     75768     75769     75774     75778     75779     75775     75774     75777
     75775     75774     75776     75776     75774     75777     75778     75774     75777
     75778     75774     75776     75778     75774     75775     75780     75784     75785
     75781     75780     75783     75781     75780     75782     75782     75780     75783
     75784     75780     75783     75784     75780     75782     75784     75780     75781
     75786     75790     75791     75787     75786     75789     75787     75786     75788
     75788     75786     75789     75790     75786     75789     75790     75786     75788
     75790     75786     75787     75792     75796     75797     75793     75792     75795
     75793     75792     75794     75794     75792     75795     75796     75792     75795
     75796     75792     75794     75796     75792     75793     75798     75802     75803
     75799     75798     75801     75799     75798     75800     75800     75798     75801
     75802     75798     75801     75802     75798     75800     75802     75798     75799
     75804     75808     75809     75805     75804     75807     75805     75804     75806
     75806     75804     75807     75808     75804     75807     75808     75804     75806
     75808     75804     75805     75810     75814     75815     75811     75810     75813
     75811     75810     75812     75812     75810     75813     75814     75810     75813
     75814     75810     75812     75814     75810     75811     75816     75820     75821
     75817     75816     75819     75817     75816     75818     75818     75816     75819
     75820     75816     75819     75820     75816     75818     75820     75816     75817
     75822     75826     75827     75823     75822     75825     75823     75822     75824
     75824     75822     75825     75826     75822     75825     75826     75822     75824
     75826     75822     75823     75828     75832     75833     75829     75828     75831
     75829     75828     75830     75830     75828     75831     75832     75828     75831
     75832     75828     75830     75832     75828     75829     75834     75838     75839
     75835     75834     75837     75835     75834     75836     75836     75834     75837
     75838     75834     75837     75838     75834     75836     75838     75834     75835
     75840     75844     75845     75841     75840     75843     75841     75840     75842
     75842     75840     75843     75844     75840     75843     75844     75840     75842
     75844     75840     75841     75846     75850     75851     75847     75846     75849
     75847     75846     75848     75848     75846     75849     75850     75846     75849
     75850     75846     75848     75850     75846     75847     75852     75856     75857
     75853     75852     75855     75853     75852     75854     75854     75852     75855
     75856     75852     75855     75856     75852     75854     75856     75852     75853
     75858     75862     75863     75859     75858     75861     75859     75858     75860
     75860     75858     75861     75862     75858     75861     75862     75858     75860
     75862     75858     75859     75864     75868     75869     75865     75864     75867
     75865     75864     75866     75866     75864     75867     75868     75864     75867
     75868     75864     75866     75868     75864     75865     75870     75874     75875
     75871     75870     75873     75871     75870     75872     75872     75870     75873
     75874     75870     75873     75874     75870     75872     75874     75870     75871
     75876     75880     75881     75877     75876     75879     75877     75876     75878
     75878     75876     75879     75880     75876     75879     75880     75876     75878
     75880     75876     75877     75882     75886     75887     75883     75882     75885
     75883     75882     75884     75884     75882     75885     75886     75882     75885
     75886     75882     75884     75886     75882     75883     75888     75892     75893
     75889     75888     75891     75889     75888     75890     75890     75888     75891
     75892     75888     75891     75892     75888     75890     75892     75888     75889
     75894     75898     75899     75895     75894     75897     75895     75894     75896
     75896     75894     75897     75898     75894     75897     75898     75894     75896
     75898     75894     75895     75900     75904     75905     75901     75900     75903
     75901     75900     75902     75902     75900     75903     75904     75900     75903
     75904     75900     75902     75904     75900     75901     75906     75910     75911
     75907     75906     75909     75907     75906     75908     75908     75906     75909
     75910     75906     75909     75910     75906     75908     75910     75906     75907
     75912     75916     75917     75913     75912     75915     75913     75912     75914
     75914     75912     75915     75916     75912     75915     75916     75912     75914
     75916     75912     75913     75918     75922     75923     75919     75918     75921
     75919     75918     75920     75920     75918     75921     75922     75918     75921
     75922     75918     75920     75922     75918     75919     75924     75928     75929
     75925     75924     75927     75925     75924     75926     75926     75924     75927
     75928     75924     75927     75928     75924     75926     75928     75924     75925
     75930     75934     75935     75931     75930     75933     75931     75930     75932
     75932     75930     75933     75934     75930     75933     75934     75930     75932
     75934     75930     75931     75936     75940     75941     75937     75936     75939
     75937     75936     75938     75938     75936     75939     75940     75936     75939
     75940     75936     75938     75940     75936     75937     75942     75946     75947
     75943     75942     75945     75943     75942     75944     75944     75942     75945
     75946     75942     75945     75946     75942     75944     75946     75942     75943
     75948     75952     75953     75949     75948     75951     75949     75948     75950
     75950     75948     75951     75952     75948     75951     75952     75948     75950
     75952     75948     75949     75954     75958     75959     75955     75954     75957
     75955     75954     75956     75956     75954     75957     75958     75954     75957
     75958     75954     75956     75958     75954     75955     75960     75964     75965
     75961     75960     75963     75961     75960     75962     75962     75960     75963
     75964     75960     75963     75964     75960     75962     75964     75960     75961
     75966     75970     75971     75967     75966     75969     75967     75966     75968
     75968     75966     75969     75970     75966     75969     75970     75966     75968
     75970     75966     75967     75972     75976     75977     75973     75972     75975
     75973     75972     75974     75974     75972     75975     75976     75972     75975
     75976     75972     75974     75976     75972     75973     75978     75982     75983
     75979     75978     75981     75979     75978     75980     75980     75978     75981
     75982     75978     75981     75982     75978     75980     75982     75978     75979
     75984     75988     75989     75985     75984     75987     75985     75984     75986
     75986     75984     75987     75988     75984     75987     75988     75984     75986
     75988     75984     75985     75990     75994     75995     75991     75990     75993
     75991     75990     75992     75992     75990     75993     75994     75990     75993
     75994     75990     75992     75994     75990     75991     75996     76000     76001
     75997     75996     75999     75997     75996     75998     75998     75996     75999
     76000     75996     75999     76000     75996     75998     76000     75996     75997
     76002     76006     76007     76003     76002     76005     76003     76002     76004
     76004     76002     76005     76006     76002     76005     76006     76002     76004
     76006     76002     76003     76008     76012     76013     76009     76008     76011
     76009     76008     76010     76010     76008     76011     76012     76008     76011
     76012     76008     76010     76012     76008     76009     76014     76018     76019
     76015     76014     76017     76015     76014     76016     76016     76014     76017
     76018     76014     76017     76018     76014     76016     76018     76014     76015
     76020     76024     76025     76021     76020     76023     76021     76020     76022
     76022     76020     76023     76024     76020     76023     76024     76020     76022
     76024     76020     76021     76026     76030     76031     76027     76026     76029
     76027     76026     76028     76028     76026     76029     76030     76026     76029
     76030     76026     76028     76030     76026     76027     76032     76036     76037
     76033     76032     76035     76033     76032     76034     76034     76032     76035
     76036     76032     76035     76036     76032     76034     76036     76032     76033
     76038     76042     76043     76039     76038     76041     76039     76038     76040
     76040     76038     76041     76042     76038     76041     76042     76038     76040
     76042     76038     76039     76044     76048     76049     76045     76044     76047
     76045     76044     76046     76046     76044     76047     76048     76044     76047
     76048     76044     76046     76048     76044     76045     76050     76054     76055
     76051     76050     76053     76051     76050     76052     76052     76050     76053
     76054     76050     76053     76054     76050     76052     76054     76050     76051
     76056     76060     76061     76057     76056     76059     76057     76056     76058
     76058     76056     76059     76060     76056     76059     76060     76056     76058
     76060     76056     76057     76062     76066     76067     76063     76062     76065
     76063     76062     76064     76064     76062     76065     76066     76062     76065
     76066     76062     76064     76066     76062     76063     76068     76072     76073
     76069     76068     76071     76069     76068     76070     76070     76068     76071
     76072     76068     76071     76072     76068     76070     76072     76068     76069
     76074     76078     76079     76075     76074     76077     76075     76074     76076
     76076     76074     76077     76078     76074     76077     76078     76074     76076
     76078     76074     76075     76080     76084     76085     76081     76080     76083
     76081     76080     76082     76082     76080     76083     76084     76080     76083
     76084     76080     76082     76084     76080     76081     76086     76090     76091
     76087     76086     76089     76087     76086     76088     76088     76086     76089
     76090     76086     76089     76090     76086     76088     76090     76086     76087
     76092     76096     76097     76093     76092     76095     76093     76092     76094
     76094     76092     76095     76096     76092     76095     76096     76092     76094
     76096     76092     76093     76098     76102     76103     76099     76098     76101
     76099     76098     76100     76100     76098     76101     76102     76098     76101
     76102     76098     76100     76102     76098     76099     76104     76108     76109
     76105     76104     76107     76105     76104     76106     76106     76104     76107
     76108     76104     76107     76108     76104     76106     76108     76104     76105
     76110     76114     76115     76111     76110     76113     76111     76110     76112
     76112     76110     76113     76114     76110     76113     76114     76110     76112
     76114     76110     76111     76116     76120     76121     76117     76116     76119
     76117     76116     76118     76118     76116     76119     76120     76116     76119
     76120     76116     76118     76120     76116     76117     76122     76126     76127
     76123     76122     76125     76123     76122     76124     76124     76122     76125
     76126     76122     76125     76126     76122     76124     76126     76122     76123
     76128     76132     76133     76129     76128     76131     76129     76128     76130
     76130     76128     76131     76132     76128     76131     76132     76128     76130
     76132     76128     76129     76134     76138     76139     76135     76134     76137
     76135     76134     76136     76136     76134     76137     76138     76134     76137
     76138     76134     76136     76138     76134     76135     76140     76144     76145
     76141     76140     76143     76141     76140     76142     76142     76140     76143
     76144     76140     76143     76144     76140     76142     76144     76140     76141
     76146     76150     76151     76147     76146     76149     76147     76146     76148
     76148     76146     76149     76150     76146     76149     76150     76146     76148
     76150     76146     76147     76152     76156     76157     76153     76152     76155
     76153     76152     76154     76154     76152     76155     76156     76152     76155
     76156     76152     76154     76156     76152     76153     76158     76162     76163
     76159     76158     76161     76159     76158     76160     76160     76158     76161
     76162     76158     76161     76162     76158     76160     76162     76158     76159
     76164     76168     76169     76165     76164     76167     76165     76164     76166
     76166     76164     76167     76168     76164     76167     76168     76164     76166
     76168     76164     76165     76170     76174     76175     76171     76170     76173
     76171     76170     76172     76172     76170     76173     76174     76170     76173
     76174     76170     76172     76174     76170     76171     76176     76180     76181
     76177     76176     76179     76177     76176     76178     76178     76176     76179
     76180     76176     76179     76180     76176     76178     76180     76176     76177
     76182     76186     76187     76183     76182     76185     76183     76182     76184
     76184     76182     76185     76186     76182     76185     76186     76182     76184
     76186     76182     76183     76188     76192     76193     76189     76188     76191
     76189     76188     76190     76190     76188     76191     76192     76188     76191
     76192     76188     76190     76192     76188     76189     76194     76198     76199
     76195     76194     76197     76195     76194     76196     76196     76194     76197
     76198     76194     76197     76198     76194     76196     76198     76194     76195
     76200     76204     76205     76201     76200     76203     76201     76200     76202
     76202     76200     76203     76204     76200     76203     76204     76200     76202
     76204     76200     76201     76206     76210     76211     76207     76206     76209
     76207     76206     76208     76208     76206     76209     76210     76206     76209
     76210     76206     76208     76210     76206     76207     76212     76216     76217
     76213     76212     76215     76213     76212     76214     76214     76212     76215
     76216     76212     76215     76216     76212     76214     76216     76212     76213
     76218     76222     76223     76219     76218     76221     76219     76218     76220
     76220     76218     76221     76222     76218     76221     76222     76218     76220
     76222     76218     76219     76224     76228     76229     76225     76224     76227
     76225     76224     76226     76226     76224     76227     76228     76224     76227
     76228     76224     76226     76228     76224     76225     76230     76234     76235
     76231     76230     76233     76231     76230     76232     76232     76230     76233
     76234     76230     76233     76234     76230     76232     76234     76230     76231
     76236     76240     76241     76237     76236     76239     76237     76236     76238
     76238     76236     76239     76240     76236     76239     76240     76236     76238
     76240     76236     76237     76242     76246     76247     76243     76242     76245
     76243     76242     76244     76244     76242     76245     76246     76242     76245
     76246     76242     76244     76246     76242     76243     76248     76252     76253
     76249     76248     76251     76249     76248     76250     76250     76248     76251
     76252     76248     76251     76252     76248     76250     76252     76248     76249
     76254     76258     76259     76255     76254     76257     76255     76254     76256
     76256     76254     76257     76258     76254     76257     76258     76254     76256
     76258     76254     76255     76260     76264     76265     76261     76260     76263
     76261     76260     76262     76262     76260     76263     76264     76260     76263
     76264     76260     76262     76264     76260     76261     76266     76270     76271
     76267     76266     76269     76267     76266     76268     76268     76266     76269
     76270     76266     76269     76270     76266     76268     76270     76266     76267
     76272     76276     76277     76273     76272     76275     76273     76272     76274
     76274     76272     76275     76276     76272     76275     76276     76272     76274
     76276     76272     76273     76278     76282     76283     76279     76278     76281
     76279     76278     76280     76280     76278     76281     76282     76278     76281
     76282     76278     76280     76282     76278     76279     76284     76288     76289
     76285     76284     76287     76285     76284     76286     76286     76284     76287
     76288     76284     76287     76288     76284     76286     76288     76284     76285
     76290     76294     76295     76291     76290     76293     76291     76290     76292
     76292     76290     76293     76294     76290     76293     76294     76290     76292
     76294     76290     76291     76296     76300     76301     76297     76296     76299
     76297     76296     76298     76298     76296     76299     76300     76296     76299
     76300     76296     76298     76300     76296     76297     76302     76306     76307
     76303     76302     76305     76303     76302     76304     76304     76302     76305
     76306     76302     76305     76306     76302     76304     76306     76302     76303
     76308     76312     76313     76309     76308     76311     76309     76308     76310
     76310     76308     76311     76312     76308     76311     76312     76308     76310
     76312     76308     76309     76314     76318     76319     76315     76314     76317
     76315     76314     76316     76316     76314     76317     76318     76314     76317
     76318     76314     76316     76318     76314     76315     76320     76324     76325
     76321     76320     76323     76321     76320     76322     76322     76320     76323
     76324     76320     76323     76324     76320     76322     76324     76320     76321
     76326     76330     76331     76327     76326     76329     76327     76326     76328
     76328     76326     76329     76330     76326     76329     76330     76326     76328
     76330     76326     76327     76332     76336     76337     76333     76332     76335
     76333     76332     76334     76334     76332     76335     76336     76332     76335
     76336     76332     76334     76336     76332     76333     76338     76342     76343
     76339     76338     76341     76339     76338     76340     76340     76338     76341
     76342     76338     76341     76342     76338     76340     76342     76338     76339
     76344     76348     76349     76345     76344     76347     76345     76344     76346
     76346     76344     76347     76348     76344     76347     76348     76344     76346
     76348     76344     76345     76350     76354     76355     76351     76350     76353
     76351     76350     76352     76352     76350     76353     76354     76350     76353
     76354     76350     76352     76354     76350     76351     76356     76360     76361
     76357     76356     76359     76357     76356     76358     76358     76356     76359
     76360     76356     76359     76360     76356     76358     76360     76356     76357
     76362     76366     76367     76363     76362     76365     76363     76362     76364
     76364     76362     76365     76366     76362     76365     76366     76362     76364
     76366     76362     76363     76368     76372     76373     76369     76368     76371
     76369     76368     76370     76370     76368     76371     76372     76368     76371
     76372     76368     76370     76372     76368     76369     76374     76378     76379
     76375     76374     76377     76375     76374     76376     76376     76374     76377
     76378     76374     76377     76378     76374     76376     76378     76374     76375
     76380     76384     76385     76381     76380     76383     76381     76380     76382
     76382     76380     76383     76384     76380     76383     76384     76380     76382
     76384     76380     76381     76386     76390     76391     76387     76386     76389
     76387     76386     76388     76388     76386     76389     76390     76386     76389
     76390     76386     76388     76390     76386     76387     76392     76396     76397
     76393     76392     76395     76393     76392     76394     76394     76392     76395
     76396     76392     76395     76396     76392     76394     76396     76392     76393
     76398     76402     76403     76399     76398     76401     76399     76398     76400
     76400     76398     76401     76402     76398     76401     76402     76398     76400
     76402     76398     76399     76404     76408     76409     76405     76404     76407
     76405     76404     76406     76406     76404     76407     76408     76404     76407
     76408     76404     76406     76408     76404     76405     76410     76414     76415
     76411     76410     76413     76411     76410     76412     76412     76410     76413
     76414     76410     76413     76414     76410     76412     76414     76410     76411
     76416     76420     76421     76417     76416     76419     76417     76416     76418
     76418     76416     76419     76420     76416     76419     76420     76416     76418
     76420     76416     76417     76422     76426     76427     76423     76422     76425
     76423     76422     76424     76424     76422     76425     76426     76422     76425
     76426     76422     76424     76426     76422     76423     76428     76432     76433
     76429     76428     76431     76429     76428     76430     76430     76428     76431
     76432     76428     76431     76432     76428     76430     76432     76428     76429
     76434     76438     76439     76435     76434     76437     76435     76434     76436
     76436     76434     76437     76438     76434     76437     76438     76434     76436
     76438     76434     76435     76440     76444     76445     76441     76440     76443
     76441     76440     76442     76442     76440     76443     76444     76440     76443
     76444     76440     76442     76444     76440     76441     76446     76450     76451
     76447     76446     76449     76447     76446     76448     76448     76446     76449
     76450     76446     76449     76450     76446     76448     76450     76446     76447
     76452     76456     76457     76453     76452     76455     76453     76452     76454
     76454     76452     76455     76456     76452     76455     76456     76452     76454
     76456     76452     76453     76458     76462     76463     76459     76458     76461
     76459     76458     76460     76460     76458     76461     76462     76458     76461
     76462     76458     76460     76462     76458     76459     76464     76468     76469
     76465     76464     76467     76465     76464     76466     76466     76464     76467
     76468     76464     76467     76468     76464     76466     76468     76464     76465
     76470     76474     76475     76471     76470     76473     76471     76470     76472
     76472     76470     76473     76474     76470     76473     76474     76470     76472
     76474     76470     76471     76476     76480     76481     76477     76476     76479
     76477     76476     76478     76478     76476     76479     76480     76476     76479
     76480     76476     76478     76480     76476     76477     76482     76486     76487
     76483     76482     76485     76483     76482     76484     76484     76482     76485
     76486     76482     76485     76486     76482     76484     76486     76482     76483
     76488     76492     76493     76489     76488     76491     76489     76488     76490
     76490     76488     76491     76492     76488     76491     76492     76488     76490
     76492     76488     76489     76494     76498     76499     76495     76494     76497
     76495     76494     76496     76496     76494     76497     76498     76494     76497
     76498     76494     76496     76498     76494     76495     76500     76504     76505
     76501     76500     76503     76501     76500     76502     76502     76500     76503
     76504     76500     76503     76504     76500     76502     76504     76500     76501
     76506     76510     76511     76507     76506     76509     76507     76506     76508
     76508     76506     76509     76510     76506     76509     76510     76506     76508
     76510     76506     76507     76512     76516     76517     76513     76512     76515
     76513     76512     76514     76514     76512     76515     76516     76512     76515
     76516     76512     76514     76516     76512     76513     76518     76522     76523
     76519     76518     76521     76519     76518     76520     76520     76518     76521
     76522     76518     76521     76522     76518     76520     76522     76518     76519
     76524     76528     76529     76525     76524     76527     76525     76524     76526
     76526     76524     76527     76528     76524     76527     76528     76524     76526
     76528     76524     76525     76530     76534     76535     76531     76530     76533
     76531     76530     76532     76532     76530     76533     76534     76530     76533
     76534     76530     76532     76534     76530     76531     76536     76540     76541
     76537     76536     76539     76537     76536     76538     76538     76536     76539
     76540     76536     76539     76540     76536     76538     76540     76536     76537
     76542     76546     76547     76543     76542     76545     76543     76542     76544
     76544     76542     76545     76546     76542     76545     76546     76542     76544
     76546     76542     76543     76548     76552     76553     76549     76548     76551
     76549     76548     76550     76550     76548     76551     76552     76548     76551
     76552     76548     76550     76552     76548     76549     76554     76558     76559
     76555     76554     76557     76555     76554     76556     76556     76554     76557
     76558     76554     76557     76558     76554     76556     76558     76554     76555
     76560     76564     76565     76561     76560     76563     76561     76560     76562
     76562     76560     76563     76564     76560     76563     76564     76560     76562
     76564     76560     76561     76566     76570     76571     76567     76566     76569
     76567     76566     76568     76568     76566     76569     76570     76566     76569
     76570     76566     76568     76570     76566     76567     76572     76576     76577
     76573     76572     76575     76573     76572     76574     76574     76572     76575
     76576     76572     76575     76576     76572     76574     76576     76572     76573
     76578     76582     76583     76579     76578     76581     76579     76578     76580
     76580     76578     76581     76582     76578     76581     76582     76578     76580
     76582     76578     76579     76584     76588     76589     76585     76584     76587
     76585     76584     76586     76586     76584     76587     76588     76584     76587
     76588     76584     76586     76588     76584     76585     76590     76594     76595
     76591     76590     76593     76591     76590     76592     76592     76590     76593
     76594     76590     76593     76594     76590     76592     76594     76590     76591
     76596     76600     76601     76597     76596     76599     76597     76596     76598
     76598     76596     76599     76600     76596     76599     76600     76596     76598
     76600     76596     76597     76602     76606     76607     76603     76602     76605
     76603     76602     76604     76604     76602     76605     76606     76602     76605
     76606     76602     76604     76606     76602     76603     76608     76612     76613
     76609     76608     76611     76609     76608     76610     76610     76608     76611
     76612     76608     76611     76612     76608     76610     76612     76608     76609
     76614     76618     76619     76615     76614     76617     76615     76614     76616
     76616     76614     76617     76618     76614     76617     76618     76614     76616
     76618     76614     76615     76620     76624     76625     76621     76620     76623
     76621     76620     76622     76622     76620     76623     76624     76620     76623
     76624     76620     76622     76624     76620     76621     76626     76630     76631
     76627     76626     76629     76627     76626     76628     76628     76626     76629
     76630     76626     76629     76630     76626     76628     76630     76626     76627
     76632     76636     76637     76633     76632     76635     76633     76632     76634
     76634     76632     76635     76636     76632     76635     76636     76632     76634
     76636     76632     76633     76638     76642     76643     76639     76638     76641
     76639     76638     76640     76640     76638     76641     76642     76638     76641
     76642     76638     76640     76642     76638     76639     76644     76648     76649
     76645     76644     76647     76645     76644     76646     76646     76644     76647
     76648     76644     76647     76648     76644     76646     76648     76644     76645
     76650     76654     76655     76651     76650     76653     76651     76650     76652
     76652     76650     76653     76654     76650     76653     76654     76650     76652
     76654     76650     76651     76656     76660     76661     76657     76656     76659
     76657     76656     76658     76658     76656     76659     76660     76656     76659
     76660     76656     76658     76660     76656     76657     76662     76666     76667
     76663     76662     76665     76663     76662     76664     76664     76662     76665
     76666     76662     76665     76666     76662     76664     76666     76662     76663
     76668     76672     76673     76669     76668     76671     76669     76668     76670
     76670     76668     76671     76672     76668     76671     76672     76668     76670
     76672     76668     76669     76674     76678     76679     76675     76674     76677
     76675     76674     76676     76676     76674     76677     76678     76674     76677
     76678     76674     76676     76678     76674     76675     76680     76684     76685
     76681     76680     76683     76681     76680     76682     76682     76680     76683
     76684     76680     76683     76684     76680     76682     76684     76680     76681
     76686     76690     76691     76687     76686     76689     76687     76686     76688
     76688     76686     76689     76690     76686     76689     76690     76686     76688
     76690     76686     76687     76692     76696     76697     76693     76692     76695
     76693     76692     76694     76694     76692     76695     76696     76692     76695
     76696     76692     76694     76696     76692     76693     76698     76702     76703
     76699     76698     76701     76699     76698     76700     76700     76698     76701
     76702     76698     76701     76702     76698     76700     76702     76698     76699
     76704     76708     76709     76705     76704     76707     76705     76704     76706
     76706     76704     76707     76708     76704     76707     76708     76704     76706
     76708     76704     76705     76710     76714     76715     76711     76710     76713
     76711     76710     76712     76712     76710     76713     76714     76710     76713
     76714     76710     76712     76714     76710     76711     76716     76720     76721
     76717     76716     76719     76717     76716     76718     76718     76716     76719
     76720     76716     76719     76720     76716     76718     76720     76716     76717
     76722     76726     76727     76723     76722     76725     76723     76722     76724
     76724     76722     76725     76726     76722     76725     76726     76722     76724
     76726     76722     76723     76728     76732     76733     76729     76728     76731
     76729     76728     76730     76730     76728     76731     76732     76728     76731
     76732     76728     76730     76732     76728     76729     76734     76738     76739
     76735     76734     76737     76735     76734     76736     76736     76734     76737
     76738     76734     76737     76738     76734     76736     76738     76734     76735
     76740     76744     76745     76741     76740     76743     76741     76740     76742
     76742     76740     76743     76744     76740     76743     76744     76740     76742
     76744     76740     76741     76746     76750     76751     76747     76746     76749
     76747     76746     76748     76748     76746     76749     76750     76746     76749
     76750     76746     76748     76750     76746     76747     76752     76756     76757
     76753     76752     76755     76753     76752     76754     76754     76752     76755
     76756     76752     76755     76756     76752     76754     76756     76752     76753
     76758     76762     76763     76759     76758     76761     76759     76758     76760
     76760     76758     76761     76762     76758     76761     76762     76758     76760
     76762     76758     76759     76764     76768     76769     76765     76764     76767
     76765     76764     76766     76766     76764     76767     76768     76764     76767
     76768     76764     76766     76768     76764     76765     76770     76774     76775
     76771     76770     76773     76771     76770     76772     76772     76770     76773
     76774     76770     76773     76774     76770     76772     76774     76770     76771
     76776     76780     76781     76777     76776     76779     76777     76776     76778
     76778     76776     76779     76780     76776     76779     76780     76776     76778
     76780     76776     76777     76782     76786     76787     76783     76782     76785
     76783     76782     76784     76784     76782     76785     76786     76782     76785
     76786     76782     76784     76786     76782     76783     76788     76792     76793
     76789     76788     76791     76789     76788     76790     76790     76788     76791
     76792     76788     76791     76792     76788     76790     76792     76788     76789
     76794     76798     76799     76795     76794     76797     76795     76794     76796
     76796     76794     76797     76798     76794     76797     76798     76794     76796
     76798     76794     76795     76800     76804     76805     76801     76800     76803
     76801     76800     76802     76802     76800     76803     76804     76800     76803
     76804     76800     76802     76804     76800     76801     76806     76810     76811
     76807     76806     76809     76807     76806     76808     76808     76806     76809
     76810     76806     76809     76810     76806     76808     76810     76806     76807
     76812     76816     76817     76813     76812     76815     76813     76812     76814
     76814     76812     76815     76816     76812     76815     76816     76812     76814
     76816     76812     76813     76818     76822     76823     76819     76818     76821
     76819     76818     76820     76820     76818     76821     76822     76818     76821
     76822     76818     76820     76822     76818     76819     76824     76828     76829
     76825     76824     76827     76825     76824     76826     76826     76824     76827
     76828     76824     76827     76828     76824     76826     76828     76824     76825
     76830     76834     76835     76831     76830     76833     76831     76830     76832
     76832     76830     76833     76834     76830     76833     76834     76830     76832
     76834     76830     76831     76836     76840     76841     76837     76836     76839
     76837     76836     76838     76838     76836     76839     76840     76836     76839
     76840     76836     76838     76840     76836     76837     76842     76846     76847
     76843     76842     76845     76843     76842     76844     76844     76842     76845
     76846     76842     76845     76846     76842     76844     76846     76842     76843
     76848     76852     76853     76849     76848     76851     76849     76848     76850
     76850     76848     76851     76852     76848     76851     76852     76848     76850
     76852     76848     76849     76854     76858     76859     76855     76854     76857
     76855     76854     76856     76856     76854     76857     76858     76854     76857
     76858     76854     76856     76858     76854     76855     76860     76864     76865
     76861     76860     76863     76861     76860     76862     76862     76860     76863
     76864     76860     76863     76864     76860     76862     76864     76860     76861
     76866     76870     76871     76867     76866     76869     76867     76866     76868
     76868     76866     76869     76870     76866     76869     76870     76866     76868
     76870     76866     76867     76872     76876     76877     76873     76872     76875
     76873     76872     76874     76874     76872     76875     76876     76872     76875
     76876     76872     76874     76876     76872     76873     76878     76882     76883
     76879     76878     76881     76879     76878     76880     76880     76878     76881
     76882     76878     76881     76882     76878     76880     76882     76878     76879
     76884     76888     76889     76885     76884     76887     76885     76884     76886
     76886     76884     76887     76888     76884     76887     76888     76884     76886
     76888     76884     76885     76890     76894     76895     76891     76890     76893
     76891     76890     76892     76892     76890     76893     76894     76890     76893
     76894     76890     76892     76894     76890     76891     76896     76900     76901
     76897     76896     76899     76897     76896     76898     76898     76896     76899
     76900     76896     76899     76900     76896     76898     76900     76896     76897
     76902     76906     76907     76903     76902     76905     76903     76902     76904
     76904     76902     76905     76906     76902     76905     76906     76902     76904
     76906     76902     76903     76908     76912     76913     76909     76908     76911
     76909     76908     76910     76910     76908     76911     76912     76908     76911
     76912     76908     76910     76912     76908     76909     76914     76918     76919
     76915     76914     76917     76915     76914     76916     76916     76914     76917
     76918     76914     76917     76918     76914     76916     76918     76914     76915
     76920     76924     76925     76921     76920     76923     76921     76920     76922
     76922     76920     76923     76924     76920     76923     76924     76920     76922
     76924     76920     76921     76926     76930     76931     76927     76926     76929
     76927     76926     76928     76928     76926     76929     76930     76926     76929
     76930     76926     76928     76930     76926     76927     76932     76936     76937
     76933     76932     76935     76933     76932     76934     76934     76932     76935
     76936     76932     76935     76936     76932     76934     76936     76932     76933
     76938     76942     76943     76939     76938     76941     76939     76938     76940
     76940     76938     76941     76942     76938     76941     76942     76938     76940
     76942     76938     76939     76944     76948     76949     76945     76944     76947
     76945     76944     76946     76946     76944     76947     76948     76944     76947
     76948     76944     76946     76948     76944     76945     76950     76954     76955
     76951     76950     76953     76951     76950     76952     76952     76950     76953
     76954     76950     76953     76954     76950     76952     76954     76950     76951
     76956     76960     76961     76957     76956     76959     76957     76956     76958
     76958     76956     76959     76960     76956     76959     76960     76956     76958
     76960     76956     76957     76962     76966     76967     76963     76962     76965
     76963     76962     76964     76964     76962     76965     76966     76962     76965
     76966     76962     76964     76966     76962     76963     76968     76972     76973
     76969     76968     76971     76969     76968     76970     76970     76968     76971
     76972     76968     76971     76972     76968     76970     76972     76968     76969
     76974     76978     76979     76975     76974     76977     76975     76974     76976
     76976     76974     76977     76978     76974     76977     76978     76974     76976
     76978     76974     76975     76980     76984     76985     76981     76980     76983
     76981     76980     76982     76982     76980     76983     76984     76980     76983
     76984     76980     76982     76984     76980     76981     76986     76990     76991
     76987     76986     76989     76987     76986     76988     76988     76986     76989
     76990     76986     76989     76990     76986     76988     76990     76986     76987
     76992     76996     76997     76993     76992     76995     76993     76992     76994
     76994     76992     76995     76996     76992     76995     76996     76992     76994
     76996     76992     76993     76998     77002     77003     76999     76998     77001
     76999     76998     77000     77000     76998     77001     77002     76998     77001
     77002     76998     77000     77002     76998     76999     77004     77008     77009
     77005     77004     77007     77005     77004     77006     77006     77004     77007
     77008     77004     77007     77008     77004     77006     77008     77004     77005
     77010     77014     77015     77011     77010     77013     77011     77010     77012
     77012     77010     77013     77014     77010     77013     77014     77010     77012
     77014     77010     77011     77016     77020     77021     77017     77016     77019
     77017     77016     77018     77018     77016     77019     77020     77016     77019
     77020     77016     77018     77020     77016     77017     77022     77026     77027
     77023     77022     77025     77023     77022     77024     77024     77022     77025
     77026     77022     77025     77026     77022     77024     77026     77022     77023
     77028     77032     77033     77029     77028     77031     77029     77028     77030
     77030     77028     77031     77032     77028     77031     77032     77028     77030
     77032     77028     77029     77034     77038     77039     77035     77034     77037
     77035     77034     77036     77036     77034     77037     77038     77034     77037
     77038     77034     77036     77038     77034     77035     77040     77044     77045
     77041     77040     77043     77041     77040     77042     77042     77040     77043
     77044     77040     77043     77044     77040     77042     77044     77040     77041
     77046     77050     77051     77047     77046     77049     77047     77046     77048
     77048     77046     77049     77050     77046     77049     77050     77046     77048
     77050     77046     77047     77052     77056     77057     77053     77052     77055
     77053     77052     77054     77054     77052     77055     77056     77052     77055
     77056     77052     77054     77056     77052     77053     77058     77062     77063
     77059     77058     77061     77059     77058     77060     77060     77058     77061
     77062     77058     77061     77062     77058     77060     77062     77058     77059
     77064     77068     77069     77065     77064     77067     77065     77064     77066
     77066     77064     77067     77068     77064     77067     77068     77064     77066
     77068     77064     77065     77070     77074     77075     77071     77070     77073
     77071     77070     77072     77072     77070     77073     77074     77070     77073
     77074     77070     77072     77074     77070     77071     77076     77080     77081
     77077     77076     77079     77077     77076     77078     77078     77076     77079
     77080     77076     77079     77080     77076     77078     77080     77076     77077
     77082     77086     77087     77083     77082     77085     77083     77082     77084
     77084     77082     77085     77086     77082     77085     77086     77082     77084
     77086     77082     77083     77088     77092     77093     77089     77088     77091
     77089     77088     77090     77090     77088     77091     77092     77088     77091
     77092     77088     77090     77092     77088     77089     77094     77098     77099
     77095     77094     77097     77095     77094     77096     77096     77094     77097
     77098     77094     77097     77098     77094     77096     77098     77094     77095
     77100     77104     77105     77101     77100     77103     77101     77100     77102
     77102     77100     77103     77104     77100     77103     77104     77100     77102
     77104     77100     77101     77106     77110     77111     77107     77106     77109
     77107     77106     77108     77108     77106     77109     77110     77106     77109
     77110     77106     77108     77110     77106     77107     77112     77116     77117
     77113     77112     77115     77113     77112     77114     77114     77112     77115
     77116     77112     77115     77116     77112     77114     77116     77112     77113
     77118     77122     77123     77119     77118     77121     77119     77118     77120
     77120     77118     77121     77122     77118     77121     77122     77118     77120
     77122     77118     77119     77124     77128     77129     77125     77124     77127
     77125     77124     77126     77126     77124     77127     77128     77124     77127
     77128     77124     77126     77128     77124     77125     77130     77134     77135
     77131     77130     77133     77131     77130     77132     77132     77130     77133
     77134     77130     77133     77134     77130     77132     77134     77130     77131
     77136     77140     77141     77137     77136     77139     77137     77136     77138
     77138     77136     77139     77140     77136     77139     77140     77136     77138
     77140     77136     77137     77142     77146     77147     77143     77142     77145
     77143     77142     77144     77144     77142     77145     77146     77142     77145
     77146     77142     77144     77146     77142     77143     77148     77152     77153
     77149     77148     77151     77149     77148     77150     77150     77148     77151
     77152     77148     77151     77152     77148     77150     77152     77148     77149
     77154     77158     77159     77155     77154     77157     77155     77154     77156
     77156     77154     77157     77158     77154     77157     77158     77154     77156
     77158     77154     77155     77160     77164     77165     77161     77160     77163
     77161     77160     77162     77162     77160     77163     77164     77160     77163
     77164     77160     77162     77164     77160     77161     77166     77170     77171
     77167     77166     77169     77167     77166     77168     77168     77166     77169
     77170     77166     77169     77170     77166     77168     77170     77166     77167
     77172     77176     77177     77173     77172     77175     77173     77172     77174
     77174     77172     77175     77176     77172     77175     77176     77172     77174
     77176     77172     77173     77178     77182     77183     77179     77178     77181
     77179     77178     77180     77180     77178     77181     77182     77178     77181
     77182     77178     77180     77182     77178     77179     77184     77188     77189
     77185     77184     77187     77185     77184     77186     77186     77184     77187
     77188     77184     77187     77188     77184     77186     77188     77184     77185
     77190     77194     77195     77191     77190     77193     77191     77190     77192
     77192     77190     77193     77194     77190     77193     77194     77190     77192
     77194     77190     77191     77196     77200     77201     77197     77196     77199
     77197     77196     77198     77198     77196     77199     77200     77196     77199
     77200     77196     77198     77200     77196     77197     77202     77206     77207
     77203     77202     77205     77203     77202     77204     77204     77202     77205
     77206     77202     77205     77206     77202     77204     77206     77202     77203
     77208     77212     77213     77209     77208     77211     77209     77208     77210
     77210     77208     77211     77212     77208     77211     77212     77208     77210
     77212     77208     77209     77214     77218     77219     77215     77214     77217
     77215     77214     77216     77216     77214     77217     77218     77214     77217
     77218     77214     77216     77218     77214     77215     77220     77224     77225
     77221     77220     77223     77221     77220     77222     77222     77220     77223
     77224     77220     77223     77224     77220     77222     77224     77220     77221
     77226     77230     77231     77227     77226     77229     77227     77226     77228
     77228     77226     77229     77230     77226     77229     77230     77226     77228
     77230     77226     77227     77232     77236     77237     77233     77232     77235
     77233     77232     77234     77234     77232     77235     77236     77232     77235
     77236     77232     77234     77236     77232     77233     77238     77242     77243
     77239     77238     77241     77239     77238     77240     77240     77238     77241
     77242     77238     77241     77242     77238     77240     77242     77238     77239
     77244     77248     77249     77245     77244     77247     77245     77244     77246
     77246     77244     77247     77248     77244     77247     77248     77244     77246
     77248     77244     77245     77250     77254     77255     77251     77250     77253
     77251     77250     77252     77252     77250     77253     77254     77250     77253
     77254     77250     77252     77254     77250     77251     77256     77260     77261
     77257     77256     77259     77257     77256     77258     77258     77256     77259
     77260     77256     77259     77260     77256     77258     77260     77256     77257
     77262     77266     77267     77263     77262     77265     77263     77262     77264
     77264     77262     77265     77266     77262     77265     77266     77262     77264
     77266     77262     77263     77268     77272     77273     77269     77268     77271
     77269     77268     77270     77270     77268     77271     77272     77268     77271
     77272     77268     77270     77272     77268     77269     77274     77278     77279
     77275     77274     77277     77275     77274     77276     77276     77274     77277
     77278     77274     77277     77278     77274     77276     77278     77274     77275
     77280     77284     77285     77281     77280     77283     77281     77280     77282
     77282     77280     77283     77284     77280     77283     77284     77280     77282
     77284     77280     77281     77286     77290     77291     77287     77286     77289
     77287     77286     77288     77288     77286     77289     77290     77286     77289
     77290     77286     77288     77290     77286     77287     77292     77296     77297
     77293     77292     77295     77293     77292     77294     77294     77292     77295
     77296     77292     77295     77296     77292     77294     77296     77292     77293
     77298     77302     77303     77299     77298     77301     77299     77298     77300
     77300     77298     77301     77302     77298     77301     77302     77298     77300
     77302     77298     77299     77304     77308     77309     77305     77304     77307
     77305     77304     77306     77306     77304     77307     77308     77304     77307
     77308     77304     77306     77308     77304     77305     77310     77314     77315
     77311     77310     77313     77311     77310     77312     77312     77310     77313
     77314     77310     77313     77314     77310     77312     77314     77310     77311
     77316     77320     77321     77317     77316     77319     77317     77316     77318
     77318     77316     77319     77320     77316     77319     77320     77316     77318
     77320     77316     77317     77322     77326     77327     77323     77322     77325
     77323     77322     77324     77324     77322     77325     77326     77322     77325
     77326     77322     77324     77326     77322     77323     77328     77332     77333
     77329     77328     77331     77329     77328     77330     77330     77328     77331
     77332     77328     77331     77332     77328     77330     77332     77328     77329
     77334     77338     77339     77335     77334     77337     77335     77334     77336
     77336     77334     77337     77338     77334     77337     77338     77334     77336
     77338     77334     77335     77340     77344     77345     77341     77340     77343
     77341     77340     77342     77342     77340     77343     77344     77340     77343
     77344     77340     77342     77344     77340     77341     77346     77350     77351
     77347     77346     77349     77347     77346     77348     77348     77346     77349
     77350     77346     77349     77350     77346     77348     77350     77346     77347
     77352     77356     77357     77353     77352     77355     77353     77352     77354
     77354     77352     77355     77356     77352     77355     77356     77352     77354
     77356     77352     77353     77358     77362     77363     77359     77358     77361
     77359     77358     77360     77360     77358     77361     77362     77358     77361
     77362     77358     77360     77362     77358     77359     77364     77368     77369
     77365     77364     77367     77365     77364     77366     77366     77364     77367
     77368     77364     77367     77368     77364     77366     77368     77364     77365
     77370     77374     77375     77371     77370     77373     77371     77370     77372
     77372     77370     77373     77374     77370     77373     77374     77370     77372
     77374     77370     77371     77376     77380     77381     77377     77376     77379
     77377     77376     77378     77378     77376     77379     77380     77376     77379
     77380     77376     77378     77380     77376     77377     77382     77386     77387
     77383     77382     77385     77383     77382     77384     77384     77382     77385
     77386     77382     77385     77386     77382     77384     77386     77382     77383
     77388     77392     77393     77389     77388     77391     77389     77388     77390
     77390     77388     77391     77392     77388     77391     77392     77388     77390
     77392     77388     77389     77394     77398     77399     77395     77394     77397
     77395     77394     77396     77396     77394     77397     77398     77394     77397
     77398     77394     77396     77398     77394     77395     77400     77404     77405
     77401     77400     77403     77401     77400     77402     77402     77400     77403
     77404     77400     77403     77404     77400     77402     77404     77400     77401
     77406     77410     77411     77407     77406     77409     77407     77406     77408
     77408     77406     77409     77410     77406     77409     77410     77406     77408
     77410     77406     77407     77412     77416     77417     77413     77412     77415
     77413     77412     77414     77414     77412     77415     77416     77412     77415
     77416     77412     77414     77416     77412     77413     77418     77422     77423
     77419     77418     77421     77419     77418     77420     77420     77418     77421
     77422     77418     77421     77422     77418     77420     77422     77418     77419
     77424     77428     77429     77425     77424     77427     77425     77424     77426
     77426     77424     77427     77428     77424     77427     77428     77424     77426
     77428     77424     77425     77430     77434     77435     77431     77430     77433
     77431     77430     77432     77432     77430     77433     77434     77430     77433
     77434     77430     77432     77434     77430     77431     77436     77440     77441
     77437     77436     77439     77437     77436     77438     77438     77436     77439
     77440     77436     77439     77440     77436     77438     77440     77436     77437
     77442     77446     77447     77443     77442     77445     77443     77442     77444
     77444     77442     77445     77446     77442     77445     77446     77442     77444
     77446     77442     77443     77448     77452     77453     77449     77448     77451
     77449     77448     77450     77450     77448     77451     77452     77448     77451
     77452     77448     77450     77452     77448     77449     77454     77458     77459
     77455     77454     77457     77455     77454     77456     77456     77454     77457
     77458     77454     77457     77458     77454     77456     77458     77454     77455
     77460     77464     77465     77461     77460     77463     77461     77460     77462
     77462     77460     77463     77464     77460     77463     77464     77460     77462
     77464     77460     77461     77466     77470     77471     77467     77466     77469
     77467     77466     77468     77468     77466     77469     77470     77466     77469
     77470     77466     77468     77470     77466     77467     77472     77476     77477
     77473     77472     77475     77473     77472     77474     77474     77472     77475
     77476     77472     77475     77476     77472     77474     77476     77472     77473
     77478     77482     77483     77479     77478     77481     77479     77478     77480
     77480     77478     77481     77482     77478     77481     77482     77478     77480
     77482     77478     77479     77484     77488     77489     77485     77484     77487
     77485     77484     77486     77486     77484     77487     77488     77484     77487
     77488     77484     77486     77488     77484     77485     77490     77494     77495
     77491     77490     77493     77491     77490     77492     77492     77490     77493
     77494     77490     77493     77494     77490     77492     77494     77490     77491
     77496     77500     77501     77497     77496     77499     77497     77496     77498
     77498     77496     77499     77500     77496     77499     77500     77496     77498
     77500     77496     77497     77502     77506     77507     77503     77502     77505
     77503     77502     77504     77504     77502     77505     77506     77502     77505
     77506     77502     77504     77506     77502     77503     77508     77512     77513
     77509     77508     77511     77509     77508     77510     77510     77508     77511
     77512     77508     77511     77512     77508     77510     77512     77508     77509
     77514     77518     77519     77515     77514     77517     77515     77514     77516
     77516     77514     77517     77518     77514     77517     77518     77514     77516
     77518     77514     77515     77520     77524     77525     77521     77520     77523
     77521     77520     77522     77522     77520     77523     77524     77520     77523
     77524     77520     77522     77524     77520     77521     77526     77530     77531
     77527     77526     77529     77527     77526     77528     77528     77526     77529
     77530     77526     77529     77530     77526     77528     77530     77526     77527
     77532     77536     77537     77533     77532     77535     77533     77532     77534
     77534     77532     77535     77536     77532     77535     77536     77532     77534
     77536     77532     77533     77538     77542     77543     77539     77538     77541
     77539     77538     77540     77540     77538     77541     77542     77538     77541
     77542     77538     77540     77542     77538     77539     77544     77548     77549
     77545     77544     77547     77545     77544     77546     77546     77544     77547
     77548     77544     77547     77548     77544     77546     77548     77544     77545
     77550     77554     77555     77551     77550     77553     77551     77550     77552
     77552     77550     77553     77554     77550     77553     77554     77550     77552
     77554     77550     77551     77556     77560     77561     77557     77556     77559
     77557     77556     77558     77558     77556     77559     77560     77556     77559
     77560     77556     77558     77560     77556     77557     77562     77566     77567
     77563     77562     77565     77563     77562     77564     77564     77562     77565
     77566     77562     77565     77566     77562     77564     77566     77562     77563
     77568     77572     77573     77569     77568     77571     77569     77568     77570
     77570     77568     77571     77572     77568     77571     77572     77568     77570
     77572     77568     77569     77574     77578     77579     77575     77574     77577
     77575     77574     77576     77576     77574     77577     77578     77574     77577
     77578     77574     77576     77578     77574     77575     77580     77584     77585
     77581     77580     77583     77581     77580     77582     77582     77580     77583
     77584     77580     77583     77584     77580     77582     77584     77580     77581
     77586     77590     77591     77587     77586     77589     77587     77586     77588
     77588     77586     77589     77590     77586     77589     77590     77586     77588
     77590     77586     77587     77592     77596     77597     77593     77592     77595
     77593     77592     77594     77594     77592     77595     77596     77592     77595
     77596     77592     77594     77596     77592     77593     77598     77602     77603
     77599     77598     77601     77599     77598     77600     77600     77598     77601
     77602     77598     77601     77602     77598     77600     77602     77598     77599
     77604     77608     77609     77605     77604     77607     77605     77604     77606
     77606     77604     77607     77608     77604     77607     77608     77604     77606
     77608     77604     77605     77610     77614     77615     77611     77610     77613
     77611     77610     77612     77612     77610     77613     77614     77610     77613
     77614     77610     77612     77614     77610     77611     77616     77620     77621
     77617     77616     77619     77617     77616     77618     77618     77616     77619
     77620     77616     77619     77620     77616     77618     77620     77616     77617
     77622     77626     77627     77623     77622     77625     77623     77622     77624
     77624     77622     77625     77626     77622     77625     77626     77622     77624
     77626     77622     77623     77628     77632     77633     77629     77628     77631
     77629     77628     77630     77630     77628     77631     77632     77628     77631
     77632     77628     77630     77632     77628     77629     77634     77638     77639
     77635     77634     77637     77635     77634     77636     77636     77634     77637
     77638     77634     77637     77638     77634     77636     77638     77634     77635
     77640     77644     77645     77641     77640     77643     77641     77640     77642
     77642     77640     77643     77644     77640     77643     77644     77640     77642
     77644     77640     77641     77646     77650     77651     77647     77646     77649
     77647     77646     77648     77648     77646     77649     77650     77646     77649
     77650     77646     77648     77650     77646     77647     77652     77656     77657
     77653     77652     77655     77653     77652     77654     77654     77652     77655
     77656     77652     77655     77656     77652     77654     77656     77652     77653
     77658     77662     77663     77659     77658     77661     77659     77658     77660
     77660     77658     77661     77662     77658     77661     77662     77658     77660
     77662     77658     77659     77664     77668     77669     77665     77664     77667
     77665     77664     77666     77666     77664     77667     77668     77664     77667
     77668     77664     77666     77668     77664     77665     77670     77674     77675
     77671     77670     77673     77671     77670     77672     77672     77670     77673
     77674     77670     77673     77674     77670     77672     77674     77670     77671
     77676     77680     77681     77677     77676     77679     77677     77676     77678
     77678     77676     77679     77680     77676     77679     77680     77676     77678
     77680     77676     77677     77682     77686     77687     77683     77682     77685
     77683     77682     77684     77684     77682     77685     77686     77682     77685
     77686     77682     77684     77686     77682     77683     77688     77692     77693
     77689     77688     77691     77689     77688     77690     77690     77688     77691
     77692     77688     77691     77692     77688     77690     77692     77688     77689
     77694     77698     77699     77695     77694     77697     77695     77694     77696
     77696     77694     77697     77698     77694     77697     77698     77694     77696
     77698     77694     77695     77700     77704     77705     77701     77700     77703
     77701     77700     77702     77702     77700     77703     77704     77700     77703
     77704     77700     77702     77704     77700     77701     77706     77710     77711
     77707     77706     77709     77707     77706     77708     77708     77706     77709
     77710     77706     77709     77710     77706     77708     77710     77706     77707
     77712     77716     77717     77713     77712     77715     77713     77712     77714
     77714     77712     77715     77716     77712     77715     77716     77712     77714
     77716     77712     77713     77718     77722     77723     77719     77718     77721
     77719     77718     77720     77720     77718     77721     77722     77718     77721
     77722     77718     77720     77722     77718     77719     77724     77728     77729
     77725     77724     77727     77725     77724     77726     77726     77724     77727
     77728     77724     77727     77728     77724     77726     77728     77724     77725
     77730     77734     77735     77731     77730     77733     77731     77730     77732
     77732     77730     77733     77734     77730     77733     77734     77730     77732
     77734     77730     77731     77736     77740     77741     77737     77736     77739
     77737     77736     77738     77738     77736     77739     77740     77736     77739
     77740     77736     77738     77740     77736     77737     77742     77746     77747
     77743     77742     77745     77743     77742     77744     77744     77742     77745
     77746     77742     77745     77746     77742     77744     77746     77742     77743
     77748     77752     77753     77749     77748     77751     77749     77748     77750
     77750     77748     77751     77752     77748     77751     77752     77748     77750
     77752     77748     77749     77754     77758     77759     77755     77754     77757
     77755     77754     77756     77756     77754     77757     77758     77754     77757
     77758     77754     77756     77758     77754     77755     77760     77764     77765
     77761     77760     77763     77761     77760     77762     77762     77760     77763
     77764     77760     77763     77764     77760     77762     77764     77760     77761
     77766     77770     77771     77767     77766     77769     77767     77766     77768
     77768     77766     77769     77770     77766     77769     77770     77766     77768
     77770     77766     77767     77772     77776     77777     77773     77772     77775
     77773     77772     77774     77774     77772     77775     77776     77772     77775
     77776     77772     77774     77776     77772     77773     77778     77782     77783
     77779     77778     77781     77779     77778     77780     77780     77778     77781
     77782     77778     77781     77782     77778     77780     77782     77778     77779
     77784     77788     77789     77785     77784     77787     77785     77784     77786
     77786     77784     77787     77788     77784     77787     77788     77784     77786
     77788     77784     77785     77790     77794     77795     77791     77790     77793
     77791     77790     77792     77792     77790     77793     77794     77790     77793
     77794     77790     77792     77794     77790     77791     77796     77800     77801
     77797     77796     77799     77797     77796     77798     77798     77796     77799
     77800     77796     77799     77800     77796     77798     77800     77796     77797
     77802     77806     77807     77803     77802     77805     77803     77802     77804
     77804     77802     77805     77806     77802     77805     77806     77802     77804
     77806     77802     77803     77808     77812     77813     77809     77808     77811
     77809     77808     77810     77810     77808     77811     77812     77808     77811
     77812     77808     77810     77812     77808     77809     77814     77818     77819
     77815     77814     77817     77815     77814     77816     77816     77814     77817
     77818     77814     77817     77818     77814     77816     77818     77814     77815
     77820     77824     77825     77821     77820     77823     77821     77820     77822
     77822     77820     77823     77824     77820     77823     77824     77820     77822
     77824     77820     77821     77826     77830     77831     77827     77826     77829
     77827     77826     77828     77828     77826     77829     77830     77826     77829
     77830     77826     77828     77830     77826     77827     77832     77836     77837
     77833     77832     77835     77833     77832     77834     77834     77832     77835
     77836     77832     77835     77836     77832     77834     77836     77832     77833
     77838     77842     77843     77839     77838     77841     77839     77838     77840
     77840     77838     77841     77842     77838     77841     77842     77838     77840
     77842     77838     77839     77844     77848     77849     77845     77844     77847
     77845     77844     77846     77846     77844     77847     77848     77844     77847
     77848     77844     77846     77848     77844     77845     77850     77854     77855
     77851     77850     77853     77851     77850     77852     77852     77850     77853
     77854     77850     77853     77854     77850     77852     77854     77850     77851
     77856     77860     77861     77857     77856     77859     77857     77856     77858
     77858     77856     77859     77860     77856     77859     77860     77856     77858
     77860     77856     77857     77862     77866     77867     77863     77862     77865
     77863     77862     77864     77864     77862     77865     77866     77862     77865
     77866     77862     77864     77866     77862     77863     77868     77872     77873
     77869     77868     77871     77869     77868     77870     77870     77868     77871
     77872     77868     77871     77872     77868     77870     77872     77868     77869
     77874     77878     77879     77875     77874     77877     77875     77874     77876
     77876     77874     77877     77878     77874     77877     77878     77874     77876
     77878     77874     77875     77880     77884     77885     77881     77880     77883
     77881     77880     77882     77882     77880     77883     77884     77880     77883
     77884     77880     77882     77884     77880     77881     77886     77890     77891
     77887     77886     77889     77887     77886     77888     77888     77886     77889
     77890     77886     77889     77890     77886     77888     77890     77886     77887
     77892     77896     77897     77893     77892     77895     77893     77892     77894
     77894     77892     77895     77896     77892     77895     77896     77892     77894
     77896     77892     77893     77898     77902     77903     77899     77898     77901
     77899     77898     77900     77900     77898     77901     77902     77898     77901
     77902     77898     77900     77902     77898     77899     77904     77908     77909
     77905     77904     77907     77905     77904     77906     77906     77904     77907
     77908     77904     77907     77908     77904     77906     77908     77904     77905
     77910     77914     77915     77911     77910     77913     77911     77910     77912
     77912     77910     77913     77914     77910     77913     77914     77910     77912
     77914     77910     77911     77916     77920     77921     77917     77916     77919
     77917     77916     77918     77918     77916     77919     77920     77916     77919
     77920     77916     77918     77920     77916     77917     77922     77926     77927
     77923     77922     77925     77923     77922     77924     77924     77922     77925
     77926     77922     77925     77926     77922     77924     77926     77922     77923
     77928     77932     77933     77929     77928     77931     77929     77928     77930
     77930     77928     77931     77932     77928     77931     77932     77928     77930
     77932     77928     77929     77934     77938     77939     77935     77934     77937
     77935     77934     77936     77936     77934     77937     77938     77934     77937
     77938     77934     77936     77938     77934     77935     77940     77944     77945
     77941     77940     77943     77941     77940     77942     77942     77940     77943
     77944     77940     77943     77944     77940     77942     77944     77940     77941
     77946     77950     77951     77947     77946     77949     77947     77946     77948
     77948     77946     77949     77950     77946     77949     77950     77946     77948
     77950     77946     77947     77952     77956     77957     77953     77952     77955
     77953     77952     77954     77954     77952     77955     77956     77952     77955
     77956     77952     77954     77956     77952     77953     77958     77962     77963
     77959     77958     77961     77959     77958     77960     77960     77958     77961
     77962     77958     77961     77962     77958     77960     77962     77958     77959
     77964     77968     77969     77965     77964     77967     77965     77964     77966
     77966     77964     77967     77968     77964     77967     77968     77964     77966
     77968     77964     77965     77970     77974     77975     77971     77970     77973
     77971     77970     77972     77972     77970     77973     77974     77970     77973
     77974     77970     77972     77974     77970     77971     77976     77980     77981
     77977     77976     77979     77977     77976     77978     77978     77976     77979
     77980     77976     77979     77980     77976     77978     77980     77976     77977
     77982     77986     77987     77983     77982     77985     77983     77982     77984
     77984     77982     77985     77986     77982     77985     77986     77982     77984
     77986     77982     77983     77988     77992     77993     77989     77988     77991
     77989     77988     77990     77990     77988     77991     77992     77988     77991
     77992     77988     77990     77992     77988     77989     77994     77998     77999
     77995     77994     77997     77995     77994     77996     77996     77994     77997
     77998     77994     77997     77998     77994     77996     77998     77994     77995
     78000     78004     78005     78001     78000     78003     78001     78000     78002
     78002     78000     78003     78004     78000     78003     78004     78000     78002
     78004     78000     78001     78006     78010     78011     78007     78006     78009
     78007     78006     78008     78008     78006     78009     78010     78006     78009
     78010     78006     78008     78010     78006     78007     78012     78016     78017
     78013     78012     78015     78013     78012     78014     78014     78012     78015
     78016     78012     78015     78016     78012     78014     78016     78012     78013
     78018     78022     78023     78019     78018     78021     78019     78018     78020
     78020     78018     78021     78022     78018     78021     78022     78018     78020
     78022     78018     78019     78024     78028     78029     78025     78024     78027
     78025     78024     78026     78026     78024     78027     78028     78024     78027
     78028     78024     78026     78028     78024     78025     78030     78034     78035
     78031     78030     78033     78031     78030     78032     78032     78030     78033
     78034     78030     78033     78034     78030     78032     78034     78030     78031
     78036     78040     78041     78037     78036     78039     78037     78036     78038
     78038     78036     78039     78040     78036     78039     78040     78036     78038
     78040     78036     78037     78042     78046     78047     78043     78042     78045
     78043     78042     78044     78044     78042     78045     78046     78042     78045
     78046     78042     78044     78046     78042     78043     78048     78052     78053
     78049     78048     78051     78049     78048     78050     78050     78048     78051
     78052     78048     78051     78052     78048     78050     78052     78048     78049
     78054     78058     78059     78055     78054     78057     78055     78054     78056
     78056     78054     78057     78058     78054     78057     78058     78054     78056
     78058     78054     78055     78060     78064     78065     78061     78060     78063
     78061     78060     78062     78062     78060     78063     78064     78060     78063
     78064     78060     78062     78064     78060     78061     78066     78070     78071
     78067     78066     78069     78067     78066     78068     78068     78066     78069
     78070     78066     78069     78070     78066     78068     78070     78066     78067
     78072     78076     78077     78073     78072     78075     78073     78072     78074
     78074     78072     78075     78076     78072     78075     78076     78072     78074
     78076     78072     78073     78078     78082     78083     78079     78078     78081
     78079     78078     78080     78080     78078     78081     78082     78078     78081
     78082     78078     78080     78082     78078     78079     78084     78088     78089
     78085     78084     78087     78085     78084     78086     78086     78084     78087
     78088     78084     78087     78088     78084     78086     78088     78084     78085
     78090     78094     78095     78091     78090     78093     78091     78090     78092
     78092     78090     78093     78094     78090     78093     78094     78090     78092
     78094     78090     78091     78096     78100     78101     78097     78096     78099
     78097     78096     78098     78098     78096     78099     78100     78096     78099
     78100     78096     78098     78100     78096     78097     78102     78106     78107
     78103     78102     78105     78103     78102     78104     78104     78102     78105
     78106     78102     78105     78106     78102     78104     78106     78102     78103
     78108     78112     78113     78109     78108     78111     78109     78108     78110
     78110     78108     78111     78112     78108     78111     78112     78108     78110
     78112     78108     78109     78114     78118     78119     78115     78114     78117
     78115     78114     78116     78116     78114     78117     78118     78114     78117
     78118     78114     78116     78118     78114     78115     78120     78124     78125
     78121     78120     78123     78121     78120     78122     78122     78120     78123
     78124     78120     78123     78124     78120     78122     78124     78120     78121
     78126     78130     78131     78127     78126     78129     78127     78126     78128
     78128     78126     78129     78130     78126     78129     78130     78126     78128
     78130     78126     78127     78132     78136     78137     78133     78132     78135
     78133     78132     78134     78134     78132     78135     78136     78132     78135
     78136     78132     78134     78136     78132     78133     78138     78142     78143
     78139     78138     78141     78139     78138     78140     78140     78138     78141
     78142     78138     78141     78142     78138     78140     78142     78138     78139
     78144     78148     78149     78145     78144     78147     78145     78144     78146
     78146     78144     78147     78148     78144     78147     78148     78144     78146
     78148     78144     78145     78150     78154     78155     78151     78150     78153
     78151     78150     78152     78152     78150     78153     78154     78150     78153
     78154     78150     78152     78154     78150     78151     78156     78160     78161
     78157     78156     78159     78157     78156     78158     78158     78156     78159
     78160     78156     78159     78160     78156     78158     78160     78156     78157
     78162     78166     78167     78163     78162     78165     78163     78162     78164
     78164     78162     78165     78166     78162     78165     78166     78162     78164
     78166     78162     78163     78168     78172     78173     78169     78168     78171
     78169     78168     78170     78170     78168     78171     78172     78168     78171
     78172     78168     78170     78172     78168     78169     78174     78178     78179
     78175     78174     78177     78175     78174     78176     78176     78174     78177
     78178     78174     78177     78178     78174     78176     78178     78174     78175
     78180     78184     78185     78181     78180     78183     78181     78180     78182
     78182     78180     78183     78184     78180     78183     78184     78180     78182
     78184     78180     78181     78186     78190     78191     78187     78186     78189
     78187     78186     78188     78188     78186     78189     78190     78186     78189
     78190     78186     78188     78190     78186     78187     78192     78196     78197
     78193     78192     78195     78193     78192     78194     78194     78192     78195
     78196     78192     78195     78196     78192     78194     78196     78192     78193
     78198     78202     78203     78199     78198     78201     78199     78198     78200
     78200     78198     78201     78202     78198     78201     78202     78198     78200
     78202     78198     78199     78204     78208     78209     78205     78204     78207
     78205     78204     78206     78206     78204     78207     78208     78204     78207
     78208     78204     78206     78208     78204     78205     78210     78214     78215
     78211     78210     78213     78211     78210     78212     78212     78210     78213
     78214     78210     78213     78214     78210     78212     78214     78210     78211
     78216     78220     78221     78217     78216     78219     78217     78216     78218
     78218     78216     78219     78220     78216     78219     78220     78216     78218
     78220     78216     78217     78222     78226     78227     78223     78222     78225
     78223     78222     78224     78224     78222     78225     78226     78222     78225
     78226     78222     78224     78226     78222     78223     78228     78232     78233
     78229     78228     78231     78229     78228     78230     78230     78228     78231
     78232     78228     78231     78232     78228     78230     78232     78228     78229
     78234     78238     78239     78235     78234     78237     78235     78234     78236
     78236     78234     78237     78238     78234     78237     78238     78234     78236
     78238     78234     78235     78240     78244     78245     78241     78240     78243
     78241     78240     78242     78242     78240     78243     78244     78240     78243
     78244     78240     78242     78244     78240     78241     78246     78250     78251
     78247     78246     78249     78247     78246     78248     78248     78246     78249
     78250     78246     78249     78250     78246     78248     78250     78246     78247
     78252     78256     78257     78253     78252     78255     78253     78252     78254
     78254     78252     78255     78256     78252     78255     78256     78252     78254
     78256     78252     78253     78258     78262     78263     78259     78258     78261
     78259     78258     78260     78260     78258     78261     78262     78258     78261
     78262     78258     78260     78262     78258     78259     78264     78268     78269
     78265     78264     78267     78265     78264     78266     78266     78264     78267
     78268     78264     78267     78268     78264     78266     78268     78264     78265
     78270     78274     78275     78271     78270     78273     78271     78270     78272
     78272     78270     78273     78274     78270     78273     78274     78270     78272
     78274     78270     78271     78276     78280     78281     78277     78276     78279
     78277     78276     78278     78278     78276     78279     78280     78276     78279
     78280     78276     78278     78280     78276     78277     78282     78286     78287
     78283     78282     78285     78283     78282     78284     78284     78282     78285
     78286     78282     78285     78286     78282     78284     78286     78282     78283
     78288     78292     78293     78289     78288     78291     78289     78288     78290
     78290     78288     78291     78292     78288     78291     78292     78288     78290
     78292     78288     78289     78294     78298     78299     78295     78294     78297
     78295     78294     78296     78296     78294     78297     78298     78294     78297
     78298     78294     78296     78298     78294     78295     78300     78304     78305
     78301     78300     78303     78301     78300     78302     78302     78300     78303
     78304     78300     78303     78304     78300     78302     78304     78300     78301
     78306     78310     78311     78307     78306     78309     78307     78306     78308
     78308     78306     78309     78310     78306     78309     78310     78306     78308
     78310     78306     78307     78312     78316     78317     78313     78312     78315
     78313     78312     78314     78314     78312     78315     78316     78312     78315
     78316     78312     78314     78316     78312     78313     78318     78322     78323
     78319     78318     78321     78319     78318     78320     78320     78318     78321
     78322     78318     78321     78322     78318     78320     78322     78318     78319
     78324     78328     78329     78325     78324     78327     78325     78324     78326
     78326     78324     78327     78328     78324     78327     78328     78324     78326
     78328     78324     78325     78330     78334     78335     78331     78330     78333
     78331     78330     78332     78332     78330     78333     78334     78330     78333
     78334     78330     78332     78334     78330     78331     78336     78340     78341
     78337     78336     78339     78337     78336     78338     78338     78336     78339
     78340     78336     78339     78340     78336     78338     78340     78336     78337
     78342     78346     78347     78343     78342     78345     78343     78342     78344
     78344     78342     78345     78346     78342     78345     78346     78342     78344
     78346     78342     78343     78348     78352     78353     78349     78348     78351
     78349     78348     78350     78350     78348     78351     78352     78348     78351
     78352     78348     78350     78352     78348     78349     78354     78358     78359
     78355     78354     78357     78355     78354     78356     78356     78354     78357
     78358     78354     78357     78358     78354     78356     78358     78354     78355
     78360     78364     78365     78361     78360     78363     78361     78360     78362
     78362     78360     78363     78364     78360     78363     78364     78360     78362
     78364     78360     78361     78366     78370     78371     78367     78366     78369
     78367     78366     78368     78368     78366     78369     78370     78366     78369
     78370     78366     78368     78370     78366     78367     78372     78376     78377
     78373     78372     78375     78373     78372     78374     78374     78372     78375
     78376     78372     78375     78376     78372     78374     78376     78372     78373
     78378     78382     78383     78379     78378     78381     78379     78378     78380
     78380     78378     78381     78382     78378     78381     78382     78378     78380
     78382     78378     78379     78384     78388     78389     78385     78384     78387
     78385     78384     78386     78386     78384     78387     78388     78384     78387
     78388     78384     78386     78388     78384     78385     78390     78394     78395
     78391     78390     78393     78391     78390     78392     78392     78390     78393
     78394     78390     78393     78394     78390     78392     78394     78390     78391
     78396     78400     78401     78397     78396     78399     78397     78396     78398
     78398     78396     78399     78400     78396     78399     78400     78396     78398
     78400     78396     78397     78402     78406     78407     78403     78402     78405
     78403     78402     78404     78404     78402     78405     78406     78402     78405
     78406     78402     78404     78406     78402     78403     78408     78412     78413
     78409     78408     78411     78409     78408     78410     78410     78408     78411
     78412     78408     78411     78412     78408     78410     78412     78408     78409
     78414     78418     78419     78415     78414     78417     78415     78414     78416
     78416     78414     78417     78418     78414     78417     78418     78414     78416
     78418     78414     78415     78420     78424     78425     78421     78420     78423
     78421     78420     78422     78422     78420     78423     78424     78420     78423
     78424     78420     78422     78424     78420     78421     78426     78430     78431
     78427     78426     78429     78427     78426     78428     78428     78426     78429
     78430     78426     78429     78430     78426     78428     78430     78426     78427
     78432     78436     78437     78433     78432     78435     78433     78432     78434
     78434     78432     78435     78436     78432     78435     78436     78432     78434
     78436     78432     78433     78438     78442     78443     78439     78438     78441
     78439     78438     78440     78440     78438     78441     78442     78438     78441
     78442     78438     78440     78442     78438     78439     78444     78448     78449
     78445     78444     78447     78445     78444     78446     78446     78444     78447
     78448     78444     78447     78448     78444     78446     78448     78444     78445
     78450     78454     78455     78451     78450     78453     78451     78450     78452
     78452     78450     78453     78454     78450     78453     78454     78450     78452
     78454     78450     78451     78456     78460     78461     78457     78456     78459
     78457     78456     78458     78458     78456     78459     78460     78456     78459
     78460     78456     78458     78460     78456     78457     78462     78466     78467
     78463     78462     78465     78463     78462     78464     78464     78462     78465
     78466     78462     78465     78466     78462     78464     78466     78462     78463
     78468     78472     78473     78469     78468     78471     78469     78468     78470
     78470     78468     78471     78472     78468     78471     78472     78468     78470
     78472     78468     78469     78474     78478     78479     78475     78474     78477
     78475     78474     78476     78476     78474     78477     78478     78474     78477
     78478     78474     78476     78478     78474     78475     78480     78484     78485
     78481     78480     78483     78481     78480     78482     78482     78480     78483
     78484     78480     78483     78484     78480     78482     78484     78480     78481
     78486     78490     78491     78487     78486     78489     78487     78486     78488
     78488     78486     78489     78490     78486     78489     78490     78486     78488
     78490     78486     78487     78492     78496     78497     78493     78492     78495
     78493     78492     78494     78494     78492     78495     78496     78492     78495
     78496     78492     78494     78496     78492     78493     78498     78502     78503
     78499     78498     78501     78499     78498     78500     78500     78498     78501
     78502     78498     78501     78502     78498     78500     78502     78498     78499
     78504     78508     78509     78505     78504     78507     78505     78504     78506
     78506     78504     78507     78508     78504     78507     78508     78504     78506
     78508     78504     78505     78510     78514     78515     78511     78510     78513
     78511     78510     78512     78512     78510     78513     78514     78510     78513
     78514     78510     78512     78514     78510     78511     78516     78520     78521
     78517     78516     78519     78517     78516     78518     78518     78516     78519
     78520     78516     78519     78520     78516     78518     78520     78516     78517
     78522     78526     78527     78523     78522     78525     78523     78522     78524
     78524     78522     78525     78526     78522     78525     78526     78522     78524
     78526     78522     78523     78528     78532     78533     78529     78528     78531
     78529     78528     78530     78530     78528     78531     78532     78528     78531
     78532     78528     78530     78532     78528     78529     78534     78538     78539
     78535     78534     78537     78535     78534     78536     78536     78534     78537
     78538     78534     78537     78538     78534     78536     78538     78534     78535
     78540     78544     78545     78541     78540     78543     78541     78540     78542
     78542     78540     78543     78544     78540     78543     78544     78540     78542
     78544     78540     78541     78546     78550     78551     78547     78546     78549
     78547     78546     78548     78548     78546     78549     78550     78546     78549
     78550     78546     78548     78550     78546     78547     78552     78556     78557
     78553     78552     78555     78553     78552     78554     78554     78552     78555
     78556     78552     78555     78556     78552     78554     78556     78552     78553
     78558     78562     78563     78559     78558     78561     78559     78558     78560
     78560     78558     78561     78562     78558     78561     78562     78558     78560
     78562     78558     78559     78564     78568     78569     78565     78564     78567
     78565     78564     78566     78566     78564     78567     78568     78564     78567
     78568     78564     78566     78568     78564     78565     78570     78574     78575
     78571     78570     78573     78571     78570     78572     78572     78570     78573
     78574     78570     78573     78574     78570     78572     78574     78570     78571
     78576     78580     78581     78577     78576     78579     78577     78576     78578
     78578     78576     78579     78580     78576     78579     78580     78576     78578
     78580     78576     78577     78582     78586     78587     78583     78582     78585
     78583     78582     78584     78584     78582     78585     78586     78582     78585
     78586     78582     78584     78586     78582     78583     78588     78592     78593
     78589     78588     78591     78589     78588     78590     78590     78588     78591
     78592     78588     78591     78592     78588     78590     78592     78588     78589
     78594     78598     78599     78595     78594     78597     78595     78594     78596
     78596     78594     78597     78598     78594     78597     78598     78594     78596
     78598     78594     78595     78600     78604     78605     78601     78600     78603
     78601     78600     78602     78602     78600     78603     78604     78600     78603
     78604     78600     78602     78604     78600     78601     78606     78610     78611
     78607     78606     78609     78607     78606     78608     78608     78606     78609
     78610     78606     78609     78610     78606     78608     78610     78606     78607
     78612     78616     78617     78613     78612     78615     78613     78612     78614
     78614     78612     78615     78616     78612     78615     78616     78612     78614
     78616     78612     78613     78618     78622     78623     78619     78618     78621
     78619     78618     78620     78620     78618     78621     78622     78618     78621
     78622     78618     78620     78622     78618     78619     78624     78628     78629
     78625     78624     78627     78625     78624     78626     78626     78624     78627
     78628     78624     78627     78628     78624     78626     78628     78624     78625
     78630     78634     78635     78631     78630     78633     78631     78630     78632
     78632     78630     78633     78634     78630     78633     78634     78630     78632
     78634     78630     78631     78636     78640     78641     78637     78636     78639
     78637     78636     78638     78638     78636     78639     78640     78636     78639
     78640     78636     78638     78640     78636     78637     78642     78646     78647
     78643     78642     78645     78643     78642     78644     78644     78642     78645
     78646     78642     78645     78646     78642     78644     78646     78642     78643
     78648     78652     78653     78649     78648     78651     78649     78648     78650
     78650     78648     78651     78652     78648     78651     78652     78648     78650
     78652     78648     78649     78654     78658     78659     78655     78654     78657
     78655     78654     78656     78656     78654     78657     78658     78654     78657
     78658     78654     78656     78658     78654     78655     78660     78664     78665
     78661     78660     78663     78661     78660     78662     78662     78660     78663
     78664     78660     78663     78664     78660     78662     78664     78660     78661
     78666     78670     78671     78667     78666     78669     78667     78666     78668
     78668     78666     78669     78670     78666     78669     78670     78666     78668
     78670     78666     78667     78672     78676     78677     78673     78672     78675
     78673     78672     78674     78674     78672     78675     78676     78672     78675
     78676     78672     78674     78676     78672     78673     78678     78682     78683
     78679     78678     78681     78679     78678     78680     78680     78678     78681
     78682     78678     78681     78682     78678     78680     78682     78678     78679
     78684     78688     78689     78685     78684     78687     78685     78684     78686
     78686     78684     78687     78688     78684     78687     78688     78684     78686
     78688     78684     78685     78690     78694     78695     78691     78690     78693
     78691     78690     78692     78692     78690     78693     78694     78690     78693
     78694     78690     78692     78694     78690     78691     78696     78700     78701
     78697     78696     78699     78697     78696     78698     78698     78696     78699
     78700     78696     78699     78700     78696     78698     78700     78696     78697
     78702     78706     78707     78703     78702     78705     78703     78702     78704
     78704     78702     78705     78706     78702     78705     78706     78702     78704
     78706     78702     78703     78708     78712     78713     78709     78708     78711
     78709     78708     78710     78710     78708     78711     78712     78708     78711
     78712     78708     78710     78712     78708     78709     78714     78718     78719
     78715     78714     78717     78715     78714     78716     78716     78714     78717
     78718     78714     78717     78718     78714     78716     78718     78714     78715
     78720     78724     78725     78721     78720     78723     78721     78720     78722
     78722     78720     78723     78724     78720     78723     78724     78720     78722
     78724     78720     78721     78726     78730     78731     78727     78726     78729
     78727     78726     78728     78728     78726     78729     78730     78726     78729
     78730     78726     78728     78730     78726     78727     78732     78736     78737
     78733     78732     78735     78733     78732     78734     78734     78732     78735
     78736     78732     78735     78736     78732     78734     78736     78732     78733
     78738     78742     78743     78739     78738     78741     78739     78738     78740
     78740     78738     78741     78742     78738     78741     78742     78738     78740
     78742     78738     78739     78744     78748     78749     78745     78744     78747
     78745     78744     78746     78746     78744     78747     78748     78744     78747
     78748     78744     78746     78748     78744     78745     78750     78754     78755
     78751     78750     78753     78751     78750     78752     78752     78750     78753
     78754     78750     78753     78754     78750     78752     78754     78750     78751
     78756     78760     78761     78757     78756     78759     78757     78756     78758
     78758     78756     78759     78760     78756     78759     78760     78756     78758
     78760     78756     78757     78762     78766     78767     78763     78762     78765
     78763     78762     78764     78764     78762     78765     78766     78762     78765
     78766     78762     78764     78766     78762     78763     78768     78772     78773
     78769     78768     78771     78769     78768     78770     78770     78768     78771
     78772     78768     78771     78772     78768     78770     78772     78768     78769
     78774     78778     78779     78775     78774     78777     78775     78774     78776
     78776     78774     78777     78778     78774     78777     78778     78774     78776
     78778     78774     78775     78780     78784     78785     78781     78780     78783
     78781     78780     78782     78782     78780     78783     78784     78780     78783
     78784     78780     78782     78784     78780     78781     78786     78790     78791
     78787     78786     78789     78787     78786     78788     78788     78786     78789
     78790     78786     78789     78790     78786     78788     78790     78786     78787
     78792     78796     78797     78793     78792     78795     78793     78792     78794
     78794     78792     78795     78796     78792     78795     78796     78792     78794
     78796     78792     78793     78798     78802     78803     78799     78798     78801
     78799     78798     78800     78800     78798     78801     78802     78798     78801
     78802     78798     78800     78802     78798     78799     78804     78808     78809
     78805     78804     78807     78805     78804     78806     78806     78804     78807
     78808     78804     78807     78808     78804     78806     78808     78804     78805
     78810     78814     78815     78811     78810     78813     78811     78810     78812
     78812     78810     78813     78814     78810     78813     78814     78810     78812
     78814     78810     78811     78816     78820     78821     78817     78816     78819
     78817     78816     78818     78818     78816     78819     78820     78816     78819
     78820     78816     78818     78820     78816     78817     78822     78826     78827
     78823     78822     78825     78823     78822     78824     78824     78822     78825
     78826     78822     78825     78826     78822     78824     78826     78822     78823
     78828     78832     78833     78829     78828     78831     78829     78828     78830
     78830     78828     78831     78832     78828     78831     78832     78828     78830
     78832     78828     78829     78834     78838     78839     78835     78834     78837
     78835     78834     78836     78836     78834     78837     78838     78834     78837
     78838     78834     78836     78838     78834     78835     78840     78844     78845
     78841     78840     78843     78841     78840     78842     78842     78840     78843
     78844     78840     78843     78844     78840     78842     78844     78840     78841
     78846     78850     78851     78847     78846     78849     78847     78846     78848
     78848     78846     78849     78850     78846     78849     78850     78846     78848
     78850     78846     78847     78852     78856     78857     78853     78852     78855
     78853     78852     78854     78854     78852     78855     78856     78852     78855
     78856     78852     78854     78856     78852     78853     78858     78862     78863
     78859     78858     78861     78859     78858     78860     78860     78858     78861
     78862     78858     78861     78862     78858     78860     78862     78858     78859
     78864     78868     78869     78865     78864     78867     78865     78864     78866
     78866     78864     78867     78868     78864     78867     78868     78864     78866
     78868     78864     78865     78870     78874     78875     78871     78870     78873
     78871     78870     78872     78872     78870     78873     78874     78870     78873
     78874     78870     78872     78874     78870     78871     78876     78880     78881
     78877     78876     78879     78877     78876     78878     78878     78876     78879
     78880     78876     78879     78880     78876     78878     78880     78876     78877
     78882     78886     78887     78883     78882     78885     78883     78882     78884
     78884     78882     78885     78886     78882     78885     78886     78882     78884
     78886     78882     78883     78888     78892     78893     78889     78888     78891
     78889     78888     78890     78890     78888     78891     78892     78888     78891
     78892     78888     78890     78892     78888     78889     78894     78898     78899
     78895     78894     78897     78895     78894     78896     78896     78894     78897
     78898     78894     78897     78898     78894     78896     78898     78894     78895
     78900     78904     78905     78901     78900     78903     78901     78900     78902
     78902     78900     78903     78904     78900     78903     78904     78900     78902
     78904     78900     78901     78906     78910     78911     78907     78906     78909
     78907     78906     78908     78908     78906     78909     78910     78906     78909
     78910     78906     78908     78910     78906     78907     78912     78916     78917
     78913     78912     78915     78913     78912     78914     78914     78912     78915
     78916     78912     78915     78916     78912     78914     78916     78912     78913
     78918     78922     78923     78919     78918     78921     78919     78918     78920
     78920     78918     78921     78922     78918     78921     78922     78918     78920
     78922     78918     78919     78924     78928     78929     78925     78924     78927
     78925     78924     78926     78926     78924     78927     78928     78924     78927
     78928     78924     78926     78928     78924     78925     78930     78934     78935
     78931     78930     78933     78931     78930     78932     78932     78930     78933
     78934     78930     78933     78934     78930     78932     78934     78930     78931
     78936     78940     78941     78937     78936     78939     78937     78936     78938
     78938     78936     78939     78940     78936     78939     78940     78936     78938
     78940     78936     78937     78942     78946     78947     78943     78942     78945
     78943     78942     78944     78944     78942     78945     78946     78942     78945
     78946     78942     78944     78946     78942     78943     78948     78952     78953
     78949     78948     78951     78949     78948     78950     78950     78948     78951
     78952     78948     78951     78952     78948     78950     78952     78948     78949
     78954     78958     78959     78955     78954     78957     78955     78954     78956
     78956     78954     78957     78958     78954     78957     78958     78954     78956
     78958     78954     78955     78960     78964     78965     78961     78960     78963
     78961     78960     78962     78962     78960     78963     78964     78960     78963
     78964     78960     78962     78964     78960     78961     78966     78970     78971
     78967     78966     78969     78967     78966     78968     78968     78966     78969
     78970     78966     78969     78970     78966     78968     78970     78966     78967
     78972     78976     78977     78973     78972     78975     78973     78972     78974
     78974     78972     78975     78976     78972     78975     78976     78972     78974
     78976     78972     78973     78978     78982     78983     78979     78978     78981
     78979     78978     78980     78980     78978     78981     78982     78978     78981
     78982     78978     78980     78982     78978     78979     78984     78988     78989
     78985     78984     78987     78985     78984     78986     78986     78984     78987
     78988     78984     78987     78988     78984     78986     78988     78984     78985
     78990     78994     78995     78991     78990     78993     78991     78990     78992
     78992     78990     78993     78994     78990     78993     78994     78990     78992
     78994     78990     78991     78996     79000     79001     78997     78996     78999
     78997     78996     78998     78998     78996     78999     79000     78996     78999
     79000     78996     78998     79000     78996     78997     79002     79006     79007
     79003     79002     79005     79003     79002     79004     79004     79002     79005
     79006     79002     79005     79006     79002     79004     79006     79002     79003
     79008     79012     79013     79009     79008     79011     79009     79008     79010
     79010     79008     79011     79012     79008     79011     79012     79008     79010
     79012     79008     79009     79014     79018     79019     79015     79014     79017
     79015     79014     79016     79016     79014     79017     79018     79014     79017
     79018     79014     79016     79018     79014     79015     79020     79024     79025
     79021     79020     79023     79021     79020     79022     79022     79020     79023
     79024     79020     79023     79024     79020     79022     79024     79020     79021
     79026     79030     79031     79027     79026     79029     79027     79026     79028
     79028     79026     79029     79030     79026     79029     79030     79026     79028
     79030     79026     79027     79032     79036     79037     79033     79032     79035
     79033     79032     79034     79034     79032     79035     79036     79032     79035
     79036     79032     79034     79036     79032     79033     79038     79042     79043
     79039     79038     79041     79039     79038     79040     79040     79038     79041
     79042     79038     79041     79042     79038     79040     79042     79038     79039
     79044     79048     79049     79045     79044     79047     79045     79044     79046
     79046     79044     79047     79048     79044     79047     79048     79044     79046
     79048     79044     79045     79050     79054     79055     79051     79050     79053
     79051     79050     79052     79052     79050     79053     79054     79050     79053
     79054     79050     79052     79054     79050     79051     79056     79060     79061
     79057     79056     79059     79057     79056     79058     79058     79056     79059
     79060     79056     79059     79060     79056     79058     79060     79056     79057
     79062     79066     79067     79063     79062     79065     79063     79062     79064
     79064     79062     79065     79066     79062     79065     79066     79062     79064
     79066     79062     79063     79068     79072     79073     79069     79068     79071
     79069     79068     79070     79070     79068     79071     79072     79068     79071
     79072     79068     79070     79072     79068     79069     79074     79078     79079
     79075     79074     79077     79075     79074     79076     79076     79074     79077
     79078     79074     79077     79078     79074     79076     79078     79074     79075
     79080     79084     79085     79081     79080     79083     79081     79080     79082
     79082     79080     79083     79084     79080     79083     79084     79080     79082
     79084     79080     79081     79086     79090     79091     79087     79086     79089
     79087     79086     79088     79088     79086     79089     79090     79086     79089
     79090     79086     79088     79090     79086     79087     79092     79096     79097
     79093     79092     79095     79093     79092     79094     79094     79092     79095
     79096     79092     79095     79096     79092     79094     79096     79092     79093
     79098     79102     79103     79099     79098     79101     79099     79098     79100
     79100     79098     79101     79102     79098     79101     79102     79098     79100
     79102     79098     79099     79104     79108     79109     79105     79104     79107
     79105     79104     79106     79106     79104     79107     79108     79104     79107
     79108     79104     79106     79108     79104     79105     79110     79114     79115
     79111     79110     79113     79111     79110     79112     79112     79110     79113
     79114     79110     79113     79114     79110     79112     79114     79110     79111
     79116     79120     79121     79117     79116     79119     79117     79116     79118
     79118     79116     79119     79120     79116     79119     79120     79116     79118
     79120     79116     79117     79122     79126     79127     79123     79122     79125
     79123     79122     79124     79124     79122     79125     79126     79122     79125
     79126     79122     79124     79126     79122     79123     79128     79132     79133
     79129     79128     79131     79129     79128     79130     79130     79128     79131
     79132     79128     79131     79132     79128     79130     79132     79128     79129
     79134     79138     79139     79135     79134     79137     79135     79134     79136
     79136     79134     79137     79138     79134     79137     79138     79134     79136
     79138     79134     79135     79140     79144     79145     79141     79140     79143
     79141     79140     79142     79142     79140     79143     79144     79140     79143
     79144     79140     79142     79144     79140     79141     79146     79150     79151
     79147     79146     79149     79147     79146     79148     79148     79146     79149
     79150     79146     79149     79150     79146     79148     79150     79146     79147
     79152     79156     79157     79153     79152     79155     79153     79152     79154
     79154     79152     79155     79156     79152     79155     79156     79152     79154
     79156     79152     79153     79158     79162     79163     79159     79158     79161
     79159     79158     79160     79160     79158     79161     79162     79158     79161
     79162     79158     79160     79162     79158     79159     79164     79168     79169
     79165     79164     79167     79165     79164     79166     79166     79164     79167
     79168     79164     79167     79168     79164     79166     79168     79164     79165
     79170     79174     79175     79171     79170     79173     79171     79170     79172
     79172     79170     79173     79174     79170     79173     79174     79170     79172
     79174     79170     79171     79176     79180     79181     79177     79176     79179
     79177     79176     79178     79178     79176     79179     79180     79176     79179
     79180     79176     79178     79180     79176     79177     79182     79186     79187
     79183     79182     79185     79183     79182     79184     79184     79182     79185
     79186     79182     79185     79186     79182     79184     79186     79182     79183
     79188     79192     79193     79189     79188     79191     79189     79188     79190
     79190     79188     79191     79192     79188     79191     79192     79188     79190
     79192     79188     79189     79194     79198     79199     79195     79194     79197
     79195     79194     79196     79196     79194     79197     79198     79194     79197
     79198     79194     79196     79198     79194     79195     79200     79204     79205
     79201     79200     79203     79201     79200     79202     79202     79200     79203
     79204     79200     79203     79204     79200     79202     79204     79200     79201
     79206     79210     79211     79207     79206     79209     79207     79206     79208
     79208     79206     79209     79210     79206     79209     79210     79206     79208
     79210     79206     79207     79212     79216     79217     79213     79212     79215
     79213     79212     79214     79214     79212     79215     79216     79212     79215
     79216     79212     79214     79216     79212     79213     79218     79222     79223
     79219     79218     79221     79219     79218     79220     79220     79218     79221
     79222     79218     79221     79222     79218     79220     79222     79218     79219
     79224     79228     79229     79225     79224     79227     79225     79224     79226
     79226     79224     79227     79228     79224     79227     79228     79224     79226
     79228     79224     79225     79230     79234     79235     79231     79230     79233
     79231     79230     79232     79232     79230     79233     79234     79230     79233
     79234     79230     79232     79234     79230     79231     79236     79240     79241
     79237     79236     79239     79237     79236     79238     79238     79236     79239
     79240     79236     79239     79240     79236     79238     79240     79236     79237
     79242     79246     79247     79243     79242     79245     79243     79242     79244
     79244     79242     79245     79246     79242     79245     79246     79242     79244
     79246     79242     79243     79248     79252     79253     79249     79248     79251
     79249     79248     79250     79250     79248     79251     79252     79248     79251
     79252     79248     79250     79252     79248     79249     79254     79258     79259
     79255     79254     79257     79255     79254     79256     79256     79254     79257
     79258     79254     79257     79258     79254     79256     79258     79254     79255
     79260     79264     79265     79261     79260     79263     79261     79260     79262
     79262     79260     79263     79264     79260     79263     79264     79260     79262
     79264     79260     79261     79266     79270     79271     79267     79266     79269
     79267     79266     79268     79268     79266     79269     79270     79266     79269
     79270     79266     79268     79270     79266     79267     79272     79276     79277
     79273     79272     79275     79273     79272     79274     79274     79272     79275
     79276     79272     79275     79276     79272     79274     79276     79272     79273
     79278     79282     79283     79279     79278     79281     79279     79278     79280
     79280     79278     79281     79282     79278     79281     79282     79278     79280
     79282     79278     79279     79284     79288     79289     79285     79284     79287
     79285     79284     79286     79286     79284     79287     79288     79284     79287
     79288     79284     79286     79288     79284     79285     79290     79294     79295
     79291     79290     79293     79291     79290     79292     79292     79290     79293
     79294     79290     79293     79294     79290     79292     79294     79290     79291
     79296     79300     79301     79297     79296     79299     79297     79296     79298
     79298     79296     79299     79300     79296     79299     79300     79296     79298
     79300     79296     79297     79302     79306     79307     79303     79302     79305
     79303     79302     79304     79304     79302     79305     79306     79302     79305
     79306     79302     79304     79306     79302     79303     79308     79312     79313
     79309     79308     79311     79309     79308     79310     79310     79308     79311
     79312     79308     79311     79312     79308     79310     79312     79308     79309
     79314     79318     79319     79315     79314     79317     79315     79314     79316
     79316     79314     79317     79318     79314     79317     79318     79314     79316
     79318     79314     79315     79320     79324     79325     79321     79320     79323
     79321     79320     79322     79322     79320     79323     79324     79320     79323
     79324     79320     79322     79324     79320     79321     79326     79330     79331
     79327     79326     79329     79327     79326     79328     79328     79326     79329
     79330     79326     79329     79330     79326     79328     79330     79326     79327
     79332     79336     79337     79333     79332     79335     79333     79332     79334
     79334     79332     79335     79336     79332     79335     79336     79332     79334
     79336     79332     79333     79338     79342     79343     79339     79338     79341
     79339     79338     79340     79340     79338     79341     79342     79338     79341
     79342     79338     79340     79342     79338     79339     79344     79348     79349
     79345     79344     79347     79345     79344     79346     79346     79344     79347
     79348     79344     79347     79348     79344     79346     79348     79344     79345
     79350     79354     79355     79351     79350     79353     79351     79350     79352
     79352     79350     79353     79354     79350     79353     79354     79350     79352
     79354     79350     79351     79356     79360     79361     79357     79356     79359
     79357     79356     79358     79358     79356     79359     79360     79356     79359
     79360     79356     79358     79360     79356     79357     79362     79366     79367
     79363     79362     79365     79363     79362     79364     79364     79362     79365
     79366     79362     79365     79366     79362     79364     79366     79362     79363
     79368     79372     79373     79369     79368     79371     79369     79368     79370
     79370     79368     79371     79372     79368     79371     79372     79368     79370
     79372     79368     79369     79374     79378     79379     79375     79374     79377
     79375     79374     79376     79376     79374     79377     79378     79374     79377
     79378     79374     79376     79378     79374     79375     79380     79384     79385
     79381     79380     79383     79381     79380     79382     79382     79380     79383
     79384     79380     79383     79384     79380     79382     79384     79380     79381
     79386     79390     79391     79387     79386     79389     79387     79386     79388
     79388     79386     79389     79390     79386     79389     79390     79386     79388
     79390     79386     79387     79392     79396     79397     79393     79392     79395
     79393     79392     79394     79394     79392     79395     79396     79392     79395
     79396     79392     79394     79396     79392     79393     79398     79402     79403
     79399     79398     79401     79399     79398     79400     79400     79398     79401
     79402     79398     79401     79402     79398     79400     79402     79398     79399
     79404     79408     79409     79405     79404     79407     79405     79404     79406
     79406     79404     79407     79408     79404     79407     79408     79404     79406
     79408     79404     79405     79410     79414     79415     79411     79410     79413
     79411     79410     79412     79412     79410     79413     79414     79410     79413
     79414     79410     79412     79414     79410     79411     79416     79420     79421
     79417     79416     79419     79417     79416     79418     79418     79416     79419
     79420     79416     79419     79420     79416     79418     79420     79416     79417
     79422     79426     79427     79423     79422     79425     79423     79422     79424
     79424     79422     79425     79426     79422     79425     79426     79422     79424
     79426     79422     79423     79428     79432     79433     79429     79428     79431
     79429     79428     79430     79430     79428     79431     79432     79428     79431
     79432     79428     79430     79432     79428     79429     79434     79438     79439
     79435     79434     79437     79435     79434     79436     79436     79434     79437
     79438     79434     79437     79438     79434     79436     79438     79434     79435
     79440     79444     79445     79441     79440     79443     79441     79440     79442
     79442     79440     79443     79444     79440     79443     79444     79440     79442
     79444     79440     79441     79446     79450     79451     79447     79446     79449
     79447     79446     79448     79448     79446     79449     79450     79446     79449
     79450     79446     79448     79450     79446     79447     79452     79456     79457
     79453     79452     79455     79453     79452     79454     79454     79452     79455
     79456     79452     79455     79456     79452     79454     79456     79452     79453
     79458     79462     79463     79459     79458     79461     79459     79458     79460
     79460     79458     79461     79462     79458     79461     79462     79458     79460
     79462     79458     79459     79464     79468     79469     79465     79464     79467
     79465     79464     79466     79466     79464     79467     79468     79464     79467
     79468     79464     79466     79468     79464     79465     79470     79474     79475
     79471     79470     79473     79471     79470     79472     79472     79470     79473
     79474     79470     79473     79474     79470     79472     79474     79470     79471
     79476     79480     79481     79477     79476     79479     79477     79476     79478
     79478     79476     79479     79480     79476     79479     79480     79476     79478
     79480     79476     79477     79482     79486     79487     79483     79482     79485
     79483     79482     79484     79484     79482     79485     79486     79482     79485
     79486     79482     79484     79486     79482     79483     79488     79492     79493
     79489     79488     79491     79489     79488     79490     79490     79488     79491
     79492     79488     79491     79492     79488     79490     79492     79488     79489
     79494     79498     79499     79495     79494     79497     79495     79494     79496
     79496     79494     79497     79498     79494     79497     79498     79494     79496
     79498     79494     79495     79500     79504     79505     79501     79500     79503
     79501     79500     79502     79502     79500     79503     79504     79500     79503
     79504     79500     79502     79504     79500     79501     79506     79510     79511
     79507     79506     79509     79507     79506     79508     79508     79506     79509
     79510     79506     79509     79510     79506     79508     79510     79506     79507
     79512     79516     79517     79513     79512     79515     79513     79512     79514
     79514     79512     79515     79516     79512     79515     79516     79512     79514
     79516     79512     79513     79518     79522     79523     79519     79518     79521
     79519     79518     79520     79520     79518     79521     79522     79518     79521
     79522     79518     79520     79522     79518     79519     79524     79528     79529
     79525     79524     79527     79525     79524     79526     79526     79524     79527
     79528     79524     79527     79528     79524     79526     79528     79524     79525
     79530     79534     79535     79531     79530     79533     79531     79530     79532
     79532     79530     79533     79534     79530     79533     79534     79530     79532
     79534     79530     79531     79536     79540     79541     79537     79536     79539
     79537     79536     79538     79538     79536     79539     79540     79536     79539
     79540     79536     79538     79540     79536     79537     79542     79546     79547
     79543     79542     79545     79543     79542     79544     79544     79542     79545
     79546     79542     79545     79546     79542     79544     79546     79542     79543
     79548     79552     79553     79549     79548     79551     79549     79548     79550
     79550     79548     79551     79552     79548     79551     79552     79548     79550
     79552     79548     79549     79554     79558     79559     79555     79554     79557
     79555     79554     79556     79556     79554     79557     79558     79554     79557
     79558     79554     79556     79558     79554     79555     79560     79564     79565
     79561     79560     79563     79561     79560     79562     79562     79560     79563
     79564     79560     79563     79564     79560     79562     79564     79560     79561
     79566     79570     79571     79567     79566     79569     79567     79566     79568
     79568     79566     79569     79570     79566     79569     79570     79566     79568
     79570     79566     79567     79572     79576     79577     79573     79572     79575
     79573     79572     79574     79574     79572     79575     79576     79572     79575
     79576     79572     79574     79576     79572     79573     79578     79582     79583
     79579     79578     79581     79579     79578     79580     79580     79578     79581
     79582     79578     79581     79582     79578     79580     79582     79578     79579
     79584     79588     79589     79585     79584     79587     79585     79584     79586
     79586     79584     79587     79588     79584     79587     79588     79584     79586
     79588     79584     79585     79590     79594     79595     79591     79590     79593
     79591     79590     79592     79592     79590     79593     79594     79590     79593
     79594     79590     79592     79594     79590     79591     79596     79600     79601
     79597     79596     79599     79597     79596     79598     79598     79596     79599
     79600     79596     79599     79600     79596     79598     79600     79596     79597
     79602     79606     79607     79603     79602     79605     79603     79602     79604
     79604     79602     79605     79606     79602     79605     79606     79602     79604
     79606     79602     79603     79608     79612     79613     79609     79608     79611
     79609     79608     79610     79610     79608     79611     79612     79608     79611
     79612     79608     79610     79612     79608     79609     79614     79618     79619
     79615     79614     79617     79615     79614     79616     79616     79614     79617
     79618     79614     79617     79618     79614     79616     79618     79614     79615
     79620     79624     79625     79621     79620     79623     79621     79620     79622
     79622     79620     79623     79624     79620     79623     79624     79620     79622
     79624     79620     79621     79626     79630     79631     79627     79626     79629
     79627     79626     79628     79628     79626     79629     79630     79626     79629
     79630     79626     79628     79630     79626     79627     79632     79636     79637
     79633     79632     79635     79633     79632     79634     79634     79632     79635
     79636     79632     79635     79636     79632     79634     79636     79632     79633
     79638     79642     79643     79639     79638     79641     79639     79638     79640
     79640     79638     79641     79642     79638     79641     79642     79638     79640
     79642     79638     79639     79644     79648     79649     79645     79644     79647
     79645     79644     79646     79646     79644     79647     79648     79644     79647
     79648     79644     79646     79648     79644     79645     79650     79654     79655
     79651     79650     79653     79651     79650     79652     79652     79650     79653
     79654     79650     79653     79654     79650     79652     79654     79650     79651
     79656     79660     79661     79657     79656     79659     79657     79656     79658
     79658     79656     79659     79660     79656     79659     79660     79656     79658
     79660     79656     79657     79662     79666     79667     79663     79662     79665
     79663     79662     79664     79664     79662     79665     79666     79662     79665
     79666     79662     79664     79666     79662     79663     79668     79672     79673
     79669     79668     79671     79669     79668     79670     79670     79668     79671
     79672     79668     79671     79672     79668     79670     79672     79668     79669
     79674     79678     79679     79675     79674     79677     79675     79674     79676
     79676     79674     79677     79678     79674     79677     79678     79674     79676
     79678     79674     79675     79680     79684     79685     79681     79680     79683
     79681     79680     79682     79682     79680     79683     79684     79680     79683
     79684     79680     79682     79684     79680     79681     79686     79690     79691
     79687     79686     79689     79687     79686     79688     79688     79686     79689
     79690     79686     79689     79690     79686     79688     79690     79686     79687
     79692     79696     79697     79693     79692     79695     79693     79692     79694
     79694     79692     79695     79696     79692     79695     79696     79692     79694
     79696     79692     79693     79698     79702     79703     79699     79698     79701
     79699     79698     79700     79700     79698     79701     79702     79698     79701
     79702     79698     79700     79702     79698     79699     79704     79708     79709
     79705     79704     79707     79705     79704     79706     79706     79704     79707
     79708     79704     79707     79708     79704     79706     79708     79704     79705
     79710     79714     79715     79711     79710     79713     79711     79710     79712
     79712     79710     79713     79714     79710     79713     79714     79710     79712
     79714     79710     79711     79716     79720     79721     79717     79716     79719
     79717     79716     79718     79718     79716     79719     79720     79716     79719
     79720     79716     79718     79720     79716     79717     79722     79726     79727
     79723     79722     79725     79723     79722     79724     79724     79722     79725
     79726     79722     79725     79726     79722     79724     79726     79722     79723
     79728     79732     79733     79729     79728     79731     79729     79728     79730
     79730     79728     79731     79732     79728     79731     79732     79728     79730
     79732     79728     79729     79734     79738     79739     79735     79734     79737
     79735     79734     79736     79736     79734     79737     79738     79734     79737
     79738     79734     79736     79738     79734     79735     79740     79744     79745
     79741     79740     79743     79741     79740     79742     79742     79740     79743
     79744     79740     79743     79744     79740     79742     79744     79740     79741
     79746     79750     79751     79747     79746     79749     79747     79746     79748
     79748     79746     79749     79750     79746     79749     79750     79746     79748
     79750     79746     79747     79752     79756     79757     79753     79752     79755
     79753     79752     79754     79754     79752     79755     79756     79752     79755
     79756     79752     79754     79756     79752     79753     79758     79762     79763
     79759     79758     79761     79759     79758     79760     79760     79758     79761
     79762     79758     79761     79762     79758     79760     79762     79758     79759
     79764     79768     79769     79765     79764     79767     79765     79764     79766
     79766     79764     79767     79768     79764     79767     79768     79764     79766
     79768     79764     79765     79770     79774     79775     79771     79770     79773
     79771     79770     79772     79772     79770     79773     79774     79770     79773
     79774     79770     79772     79774     79770     79771     79776     79780     79781
     79777     79776     79779     79777     79776     79778     79778     79776     79779
     79780     79776     79779     79780     79776     79778     79780     79776     79777
     79782     79786     79787     79783     79782     79785     79783     79782     79784
     79784     79782     79785     79786     79782     79785     79786     79782     79784
     79786     79782     79783     79788     79792     79793     79789     79788     79791
     79789     79788     79790     79790     79788     79791     79792     79788     79791
     79792     79788     79790     79792     79788     79789     79794     79798     79799
     79795     79794     79797     79795     79794     79796     79796     79794     79797
     79798     79794     79797     79798     79794     79796     79798     79794     79795
     79800     79804     79805     79801     79800     79803     79801     79800     79802
     79802     79800     79803     79804     79800     79803     79804     79800     79802
     79804     79800     79801     79806     79810     79811     79807     79806     79809
     79807     79806     79808     79808     79806     79809     79810     79806     79809
     79810     79806     79808     79810     79806     79807     79812     79816     79817
     79813     79812     79815     79813     79812     79814     79814     79812     79815
     79816     79812     79815     79816     79812     79814     79816     79812     79813
     79818     79822     79823     79819     79818     79821     79819     79818     79820
     79820     79818     79821     79822     79818     79821     79822     79818     79820
     79822     79818     79819     79824     79828     79829     79825     79824     79827
     79825     79824     79826     79826     79824     79827     79828     79824     79827
     79828     79824     79826     79828     79824     79825     79830     79834     79835
     79831     79830     79833     79831     79830     79832     79832     79830     79833
     79834     79830     79833     79834     79830     79832     79834     79830     79831
     79836     79840     79841     79837     79836     79839     79837     79836     79838
     79838     79836     79839     79840     79836     79839     79840     79836     79838
     79840     79836     79837     79842     79846     79847     79843     79842     79845
     79843     79842     79844     79844     79842     79845     79846     79842     79845
     79846     79842     79844     79846     79842     79843     79848     79852     79853
     79849     79848     79851     79849     79848     79850     79850     79848     79851
     79852     79848     79851     79852     79848     79850     79852     79848     79849
     79854     79858     79859     79855     79854     79857     79855     79854     79856
     79856     79854     79857     79858     79854     79857     79858     79854     79856
     79858     79854     79855     79860     79864     79865     79861     79860     79863
     79861     79860     79862     79862     79860     79863     79864     79860     79863
     79864     79860     79862     79864     79860     79861     79866     79870     79871
     79867     79866     79869     79867     79866     79868     79868     79866     79869
     79870     79866     79869     79870     79866     79868     79870     79866     79867
     79872     79876     79877     79873     79872     79875     79873     79872     79874
     79874     79872     79875     79876     79872     79875     79876     79872     79874
     79876     79872     79873     79878     79882     79883     79879     79878     79881
     79879     79878     79880     79880     79878     79881     79882     79878     79881
     79882     79878     79880     79882     79878     79879     79884     79888     79889
     79885     79884     79887     79885     79884     79886     79886     79884     79887
     79888     79884     79887     79888     79884     79886     79888     79884     79885
     79890     79894     79895     79891     79890     79893     79891     79890     79892
     79892     79890     79893     79894     79890     79893     79894     79890     79892
     79894     79890     79891     79896     79900     79901     79897     79896     79899
     79897     79896     79898     79898     79896     79899     79900     79896     79899
     79900     79896     79898     79900     79896     79897     79902     79906     79907
     79903     79902     79905     79903     79902     79904     79904     79902     79905
     79906     79902     79905     79906     79902     79904     79906     79902     79903
     79908     79912     79913     79909     79908     79911     79909     79908     79910
     79910     79908     79911     79912     79908     79911     79912     79908     79910
     79912     79908     79909     79914     79918     79919     79915     79914     79917
     79915     79914     79916     79916     79914     79917     79918     79914     79917
     79918     79914     79916     79918     79914     79915     79920     79924     79925
     79921     79920     79923     79921     79920     79922     79922     79920     79923
     79924     79920     79923     79924     79920     79922     79924     79920     79921
     79926     79930     79931     79927     79926     79929     79927     79926     79928
     79928     79926     79929     79930     79926     79929     79930     79926     79928
     79930     79926     79927     79932     79936     79937     79933     79932     79935
     79933     79932     79934     79934     79932     79935     79936     79932     79935
     79936     79932     79934     79936     79932     79933     79938     79942     79943
     79939     79938     79941     79939     79938     79940     79940     79938     79941
     79942     79938     79941     79942     79938     79940     79942     79938     79939
     79944     79948     79949     79945     79944     79947     79945     79944     79946
     79946     79944     79947     79948     79944     79947     79948     79944     79946
     79948     79944     79945     79950     79954     79955     79951     79950     79953
     79951     79950     79952     79952     79950     79953     79954     79950     79953
     79954     79950     79952     79954     79950     79951     79956     79960     79961
     79957     79956     79959     79957     79956     79958     79958     79956     79959
     79960     79956     79959     79960     79956     79958     79960     79956     79957
     79962     79966     79967     79963     79962     79965     79963     79962     79964
     79964     79962     79965     79966     79962     79965     79966     79962     79964
     79966     79962     79963     79968     79972     79973     79969     79968     79971
     79969     79968     79970     79970     79968     79971     79972     79968     79971
     79972     79968     79970     79972     79968     79969     79974     79978     79979
     79975     79974     79977     79975     79974     79976     79976     79974     79977
     79978     79974     79977     79978     79974     79976     79978     79974     79975
     79980     79984     79985     79981     79980     79983     79981     79980     79982
     79982     79980     79983     79984     79980     79983     79984     79980     79982
     79984     79980     79981     79986     79990     79991     79987     79986     79989
     79987     79986     79988     79988     79986     79989     79990     79986     79989
     79990     79986     79988     79990     79986     79987     79992     79996     79997
     79993     79992     79995     79993     79992     79994     79994     79992     79995
     79996     79992     79995     79996     79992     79994     79996     79992     79993
     79998     80002     80003     79999     79998     80001     79999     79998     80000
     80000     79998     80001     80002     79998     80001     80002     79998     80000
     80002     79998     79999     80004     80008     80009     80005     80004     80007
     80005     80004     80006     80006     80004     80007     80008     80004     80007
     80008     80004     80006     80008     80004     80005     80010     80014     80015
     80011     80010     80013     80011     80010     80012     80012     80010     80013
     80014     80010     80013     80014     80010     80012     80014     80010     80011
     80016     80020     80021     80017     80016     80019     80017     80016     80018
     80018     80016     80019     80020     80016     80019     80020     80016     80018
     80020     80016     80017     80022     80026     80027     80023     80022     80025
     80023     80022     80024     80024     80022     80025     80026     80022     80025
     80026     80022     80024     80026     80022     80023     80028     80032     80033
     80029     80028     80031     80029     80028     80030     80030     80028     80031
     80032     80028     80031     80032     80028     80030     80032     80028     80029
     80034     80038     80039     80035     80034     80037     80035     80034     80036
     80036     80034     80037     80038     80034     80037     80038     80034     80036
     80038     80034     80035     80040     80044     80045     80041     80040     80043
     80041     80040     80042     80042     80040     80043     80044     80040     80043
     80044     80040     80042     80044     80040     80041     80046     80050     80051
     80047     80046     80049     80047     80046     80048     80048     80046     80049
     80050     80046     80049     80050     80046     80048     80050     80046     80047
     80052     80056     80057     80053     80052     80055     80053     80052     80054
     80054     80052     80055     80056     80052     80055     80056     80052     80054
     80056     80052     80053     80058     80062     80063     80059     80058     80061
     80059     80058     80060     80060     80058     80061     80062     80058     80061
     80062     80058     80060     80062     80058     80059     80064     80068     80069
     80065     80064     80067     80065     80064     80066     80066     80064     80067
     80068     80064     80067     80068     80064     80066     80068     80064     80065
     80070     80074     80075     80071     80070     80073     80071     80070     80072
     80072     80070     80073     80074     80070     80073     80074     80070     80072
     80074     80070     80071     80076     80080     80081     80077     80076     80079
     80077     80076     80078     80078     80076     80079     80080     80076     80079
     80080     80076     80078     80080     80076     80077     80082     80086     80087
     80083     80082     80085     80083     80082     80084     80084     80082     80085
     80086     80082     80085     80086     80082     80084     80086     80082     80083
     80088     80092     80093     80089     80088     80091     80089     80088     80090
     80090     80088     80091     80092     80088     80091     80092     80088     80090
     80092     80088     80089     80094     80098     80099     80095     80094     80097
     80095     80094     80096     80096     80094     80097     80098     80094     80097
     80098     80094     80096     80098     80094     80095     80100     80104     80105
     80101     80100     80103     80101     80100     80102     80102     80100     80103
     80104     80100     80103     80104     80100     80102     80104     80100     80101
     80106     80110     80111     80107     80106     80109     80107     80106     80108
     80108     80106     80109     80110     80106     80109     80110     80106     80108
     80110     80106     80107     80112     80116     80117     80113     80112     80115
     80113     80112     80114     80114     80112     80115     80116     80112     80115
     80116     80112     80114     80116     80112     80113     80118     80122     80123
     80119     80118     80121     80119     80118     80120     80120     80118     80121
     80122     80118     80121     80122     80118     80120     80122     80118     80119
     80124     80128     80129     80125     80124     80127     80125     80124     80126
     80126     80124     80127     80128     80124     80127     80128     80124     80126
     80128     80124     80125     80130     80134     80135     80131     80130     80133
     80131     80130     80132     80132     80130     80133     80134     80130     80133
     80134     80130     80132     80134     80130     80131     80136     80140     80141
     80137     80136     80139     80137     80136     80138     80138     80136     80139
     80140     80136     80139     80140     80136     80138     80140     80136     80137
     80142     80146     80147     80143     80142     80145     80143     80142     80144
     80144     80142     80145     80146     80142     80145     80146     80142     80144
     80146     80142     80143     80148     80152     80153     80149     80148     80151
     80149     80148     80150     80150     80148     80151     80152     80148     80151
     80152     80148     80150     80152     80148     80149     80154     80158     80159
     80155     80154     80157     80155     80154     80156     80156     80154     80157
     80158     80154     80157     80158     80154     80156     80158     80154     80155
     80160     80164     80165     80161     80160     80163     80161     80160     80162
     80162     80160     80163     80164     80160     80163     80164     80160     80162
     80164     80160     80161     80166     80170     80171     80167     80166     80169
     80167     80166     80168     80168     80166     80169     80170     80166     80169
     80170     80166     80168     80170     80166     80167     80172     80176     80177
     80173     80172     80175     80173     80172     80174     80174     80172     80175
     80176     80172     80175     80176     80172     80174     80176     80172     80173
     80178     80182     80183     80179     80178     80181     80179     80178     80180
     80180     80178     80181     80182     80178     80181     80182     80178     80180
     80182     80178     80179     80184     80188     80189     80185     80184     80187
     80185     80184     80186     80186     80184     80187     80188     80184     80187
     80188     80184     80186     80188     80184     80185     80190     80194     80195
     80191     80190     80193     80191     80190     80192     80192     80190     80193
     80194     80190     80193     80194     80190     80192     80194     80190     80191
     80196     80200     80201     80197     80196     80199     80197     80196     80198
     80198     80196     80199     80200     80196     80199     80200     80196     80198
     80200     80196     80197     80202     80206     80207     80203     80202     80205
     80203     80202     80204     80204     80202     80205     80206     80202     80205
     80206     80202     80204     80206     80202     80203     80208     80212     80213
     80209     80208     80211     80209     80208     80210     80210     80208     80211
     80212     80208     80211     80212     80208     80210     80212     80208     80209
     80214     80218     80219     80215     80214     80217     80215     80214     80216
     80216     80214     80217     80218     80214     80217     80218     80214     80216
     80218     80214     80215     80220     80224     80225     80221     80220     80223
     80221     80220     80222     80222     80220     80223     80224     80220     80223
     80224     80220     80222     80224     80220     80221     80226     80230     80231
     80227     80226     80229     80227     80226     80228     80228     80226     80229
     80230     80226     80229     80230     80226     80228     80230     80226     80227
     80232     80236     80237     80233     80232     80235     80233     80232     80234
     80234     80232     80235     80236     80232     80235     80236     80232     80234
     80236     80232     80233     80238     80242     80243     80239     80238     80241
     80239     80238     80240     80240     80238     80241     80242     80238     80241
     80242     80238     80240     80242     80238     80239     80244     80248     80249
     80245     80244     80247     80245     80244     80246     80246     80244     80247
     80248     80244     80247     80248     80244     80246     80248     80244     80245
     80250     80254     80255     80251     80250     80253     80251     80250     80252
     80252     80250     80253     80254     80250     80253     80254     80250     80252
     80254     80250     80251     80256     80260     80261     80257     80256     80259
     80257     80256     80258     80258     80256     80259     80260     80256     80259
     80260     80256     80258     80260     80256     80257     80262     80266     80267
     80263     80262     80265     80263     80262     80264     80264     80262     80265
     80266     80262     80265     80266     80262     80264     80266     80262     80263
     80268     80272     80273     80269     80268     80271     80269     80268     80270
     80270     80268     80271     80272     80268     80271     80272     80268     80270
     80272     80268     80269     80274     80278     80279     80275     80274     80277
     80275     80274     80276     80276     80274     80277     80278     80274     80277
     80278     80274     80276     80278     80274     80275     80280     80284     80285
     80281     80280     80283     80281     80280     80282     80282     80280     80283
     80284     80280     80283     80284     80280     80282     80284     80280     80281
     80286     80290     80291     80287     80286     80289     80287     80286     80288
     80288     80286     80289     80290     80286     80289     80290     80286     80288
     80290     80286     80287     80292     80296     80297     80293     80292     80295
     80293     80292     80294     80294     80292     80295     80296     80292     80295
     80296     80292     80294     80296     80292     80293     80298     80302     80303
     80299     80298     80301     80299     80298     80300     80300     80298     80301
     80302     80298     80301     80302     80298     80300     80302     80298     80299
     80304     80308     80309     80305     80304     80307     80305     80304     80306
     80306     80304     80307     80308     80304     80307     80308     80304     80306
     80308     80304     80305     80310     80314     80315     80311     80310     80313
     80311     80310     80312     80312     80310     80313     80314     80310     80313
     80314     80310     80312     80314     80310     80311     80316     80320     80321
     80317     80316     80319     80317     80316     80318     80318     80316     80319
     80320     80316     80319     80320     80316     80318     80320     80316     80317
     80322     80326     80327     80323     80322     80325     80323     80322     80324
     80324     80322     80325     80326     80322     80325     80326     80322     80324
     80326     80322     80323     80328     80332     80333     80329     80328     80331
     80329     80328     80330     80330     80328     80331     80332     80328     80331
     80332     80328     80330     80332     80328     80329     80334     80338     80339
     80335     80334     80337     80335     80334     80336     80336     80334     80337
     80338     80334     80337     80338     80334     80336     80338     80334     80335
     80340     80344     80345     80341     80340     80343     80341     80340     80342
     80342     80340     80343     80344     80340     80343     80344     80340     80342
     80344     80340     80341     80346     80350     80351     80347     80346     80349
     80347     80346     80348     80348     80346     80349     80350     80346     80349
     80350     80346     80348     80350     80346     80347     80352     80356     80357
     80353     80352     80355     80353     80352     80354     80354     80352     80355
     80356     80352     80355     80356     80352     80354     80356     80352     80353
     80358     80362     80363     80359     80358     80361     80359     80358     80360
     80360     80358     80361     80362     80358     80361     80362     80358     80360
     80362     80358     80359     80364     80368     80369     80365     80364     80367
     80365     80364     80366     80366     80364     80367     80368     80364     80367
     80368     80364     80366     80368     80364     80365     80370     80374     80375
     80371     80370     80373     80371     80370     80372     80372     80370     80373
     80374     80370     80373     80374     80370     80372     80374     80370     80371
     80376     80380     80381     80377     80376     80379     80377     80376     80378
     80378     80376     80379     80380     80376     80379     80380     80376     80378
     80380     80376     80377     80382     80386     80387     80383     80382     80385
     80383     80382     80384     80384     80382     80385     80386     80382     80385
     80386     80382     80384     80386     80382     80383     80388     80392     80393
     80389     80388     80391     80389     80388     80390     80390     80388     80391
     80392     80388     80391     80392     80388     80390     80392     80388     80389
     80394     80398     80399     80395     80394     80397     80395     80394     80396
     80396     80394     80397     80398     80394     80397     80398     80394     80396
     80398     80394     80395     80400     80404     80405     80401     80400     80403
     80401     80400     80402     80402     80400     80403     80404     80400     80403
     80404     80400     80402     80404     80400     80401     80406     80410     80411
     80407     80406     80409     80407     80406     80408     80408     80406     80409
     80410     80406     80409     80410     80406     80408     80410     80406     80407
     80412     80416     80417     80413     80412     80415     80413     80412     80414
     80414     80412     80415     80416     80412     80415     80416     80412     80414
     80416     80412     80413     80418     80422     80423     80419     80418     80421
     80419     80418     80420     80420     80418     80421     80422     80418     80421
     80422     80418     80420     80422     80418     80419     80424     80428     80429
     80425     80424     80427     80425     80424     80426     80426     80424     80427
     80428     80424     80427     80428     80424     80426     80428     80424     80425
     80430     80434     80435     80431     80430     80433     80431     80430     80432
     80432     80430     80433     80434     80430     80433     80434     80430     80432
     80434     80430     80431     80436     80440     80441     80437     80436     80439
     80437     80436     80438     80438     80436     80439     80440     80436     80439
     80440     80436     80438     80440     80436     80437     80442     80446     80447
     80443     80442     80445     80443     80442     80444     80444     80442     80445
     80446     80442     80445     80446     80442     80444     80446     80442     80443
     80448     80452     80453     80449     80448     80451     80449     80448     80450
     80450     80448     80451     80452     80448     80451     80452     80448     80450
     80452     80448     80449     80454     80458     80459     80455     80454     80457
     80455     80454     80456     80456     80454     80457     80458     80454     80457
     80458     80454     80456     80458     80454     80455     80460     80464     80465
     80461     80460     80463     80461     80460     80462     80462     80460     80463
     80464     80460     80463     80464     80460     80462     80464     80460     80461
     80466     80470     80471     80467     80466     80469     80467     80466     80468
     80468     80466     80469     80470     80466     80469     80470     80466     80468
     80470     80466     80467     80472     80476     80477     80473     80472     80475
     80473     80472     80474     80474     80472     80475     80476     80472     80475
     80476     80472     80474     80476     80472     80473     80478     80482     80483
     80479     80478     80481     80479     80478     80480     80480     80478     80481
     80482     80478     80481     80482     80478     80480     80482     80478     80479
     80484     80488     80489     80485     80484     80487     80485     80484     80486
     80486     80484     80487     80488     80484     80487     80488     80484     80486
     80488     80484     80485     80490     80494     80495     80491     80490     80493
     80491     80490     80492     80492     80490     80493     80494     80490     80493
     80494     80490     80492     80494     80490     80491     80496     80500     80501
     80497     80496     80499     80497     80496     80498     80498     80496     80499
     80500     80496     80499     80500     80496     80498     80500     80496     80497
     80502     80506     80507     80503     80502     80505     80503     80502     80504
     80504     80502     80505     80506     80502     80505     80506     80502     80504
     80506     80502     80503     80508     80512     80513     80509     80508     80511
     80509     80508     80510     80510     80508     80511     80512     80508     80511
     80512     80508     80510     80512     80508     80509     80514     80518     80519
     80515     80514     80517     80515     80514     80516     80516     80514     80517
     80518     80514     80517     80518     80514     80516     80518     80514     80515
     80520     80524     80525     80521     80520     80523     80521     80520     80522
     80522     80520     80523     80524     80520     80523     80524     80520     80522
     80524     80520     80521     80526     80530     80531     80527     80526     80529
     80527     80526     80528     80528     80526     80529     80530     80526     80529
     80530     80526     80528     80530     80526     80527     80532     80536     80537
     80533     80532     80535     80533     80532     80534     80534     80532     80535
     80536     80532     80535     80536     80532     80534     80536     80532     80533
     80538     80542     80543     80539     80538     80541     80539     80538     80540
     80540     80538     80541     80542     80538     80541     80542     80538     80540
     80542     80538     80539     80544     80548     80549     80545     80544     80547
     80545     80544     80546     80546     80544     80547     80548     80544     80547
     80548     80544     80546     80548     80544     80545     80550     80554     80555
     80551     80550     80553     80551     80550     80552     80552     80550     80553
     80554     80550     80553     80554     80550     80552     80554     80550     80551
     80556     80560     80561     80557     80556     80559     80557     80556     80558
     80558     80556     80559     80560     80556     80559     80560     80556     80558
     80560     80556     80557     80562     80566     80567     80563     80562     80565
     80563     80562     80564     80564     80562     80565     80566     80562     80565
     80566     80562     80564     80566     80562     80563     80568     80572     80573
     80569     80568     80571     80569     80568     80570     80570     80568     80571
     80572     80568     80571     80572     80568     80570     80572     80568     80569
     80574     80578     80579     80575     80574     80577     80575     80574     80576
     80576     80574     80577     80578     80574     80577     80578     80574     80576
     80578     80574     80575     80580     80584     80585     80581     80580     80583
     80581     80580     80582     80582     80580     80583     80584     80580     80583
     80584     80580     80582     80584     80580     80581     80586     80590     80591
     80587     80586     80589     80587     80586     80588     80588     80586     80589
     80590     80586     80589     80590     80586     80588     80590     80586     80587
     80592     80596     80597     80593     80592     80595     80593     80592     80594
     80594     80592     80595     80596     80592     80595     80596     80592     80594
     80596     80592     80593     80598     80602     80603     80599     80598     80601
     80599     80598     80600     80600     80598     80601     80602     80598     80601
     80602     80598     80600     80602     80598     80599     80604     80608     80609
     80605     80604     80607     80605     80604     80606     80606     80604     80607
     80608     80604     80607     80608     80604     80606     80608     80604     80605
     80610     80614     80615     80611     80610     80613     80611     80610     80612
     80612     80610     80613     80614     80610     80613     80614     80610     80612
     80614     80610     80611     80616     80620     80621     80617     80616     80619
     80617     80616     80618     80618     80616     80619     80620     80616     80619
     80620     80616     80618     80620     80616     80617     80622     80626     80627
     80623     80622     80625     80623     80622     80624     80624     80622     80625
     80626     80622     80625     80626     80622     80624     80626     80622     80623
     80628     80632     80633     80629     80628     80631     80629     80628     80630
     80630     80628     80631     80632     80628     80631     80632     80628     80630
     80632     80628     80629     80634     80638     80639     80635     80634     80637
     80635     80634     80636     80636     80634     80637     80638     80634     80637
     80638     80634     80636     80638     80634     80635     80640     80644     80645
     80641     80640     80643     80641     80640     80642     80642     80640     80643
     80644     80640     80643     80644     80640     80642     80644     80640     80641
     80646     80650     80651     80647     80646     80649     80647     80646     80648
     80648     80646     80649     80650     80646     80649     80650     80646     80648
     80650     80646     80647     80652     80656     80657     80653     80652     80655
     80653     80652     80654     80654     80652     80655     80656     80652     80655
     80656     80652     80654     80656     80652     80653     80658     80662     80663
     80659     80658     80661     80659     80658     80660     80660     80658     80661
     80662     80658     80661     80662     80658     80660     80662     80658     80659
     80664     80668     80669     80665     80664     80667     80665     80664     80666
     80666     80664     80667     80668     80664     80667     80668     80664     80666
     80668     80664     80665     80670     80674     80675     80671     80670     80673
     80671     80670     80672     80672     80670     80673     80674     80670     80673
     80674     80670     80672     80674     80670     80671     80676     80680     80681
     80677     80676     80679     80677     80676     80678     80678     80676     80679
     80680     80676     80679     80680     80676     80678     80680     80676     80677
     80682     80686     80687     80683     80682     80685     80683     80682     80684
     80684     80682     80685     80686     80682     80685     80686     80682     80684
     80686     80682     80683     80688     80692     80693     80689     80688     80691
     80689     80688     80690     80690     80688     80691     80692     80688     80691
     80692     80688     80690     80692     80688     80689     80694     80698     80699
     80695     80694     80697     80695     80694     80696     80696     80694     80697
     80698     80694     80697     80698     80694     80696     80698     80694     80695
     80700     80704     80705     80701     80700     80703     80701     80700     80702
     80702     80700     80703     80704     80700     80703     80704     80700     80702
     80704     80700     80701     80706     80710     80711     80707     80706     80709
     80707     80706     80708     80708     80706     80709     80710     80706     80709
     80710     80706     80708     80710     80706     80707     80712     80716     80717
     80713     80712     80715     80713     80712     80714     80714     80712     80715
     80716     80712     80715     80716     80712     80714     80716     80712     80713
     80718     80722     80723     80719     80718     80721     80719     80718     80720
     80720     80718     80721     80722     80718     80721     80722     80718     80720
     80722     80718     80719     80724     80728     80729     80725     80724     80727
     80725     80724     80726     80726     80724     80727     80728     80724     80727
     80728     80724     80726     80728     80724     80725     80730     80734     80735
     80731     80730     80733     80731     80730     80732     80732     80730     80733
     80734     80730     80733     80734     80730     80732     80734     80730     80731
     80736     80740     80741     80737     80736     80739     80737     80736     80738
     80738     80736     80739     80740     80736     80739     80740     80736     80738
     80740     80736     80737     80742     80746     80747     80743     80742     80745
     80743     80742     80744     80744     80742     80745     80746     80742     80745
     80746     80742     80744     80746     80742     80743     80748     80752     80753
     80749     80748     80751     80749     80748     80750     80750     80748     80751
     80752     80748     80751     80752     80748     80750     80752     80748     80749
     80754     80758     80759     80755     80754     80757     80755     80754     80756
     80756     80754     80757     80758     80754     80757     80758     80754     80756
     80758     80754     80755     80760     80764     80765     80761     80760     80763
     80761     80760     80762     80762     80760     80763     80764     80760     80763
     80764     80760     80762     80764     80760     80761     80766     80770     80771
     80767     80766     80769     80767     80766     80768     80768     80766     80769
     80770     80766     80769     80770     80766     80768     80770     80766     80767
     80772     80776     80777     80773     80772     80775     80773     80772     80774
     80774     80772     80775     80776     80772     80775     80776     80772     80774
     80776     80772     80773     80778     80782     80783     80779     80778     80781
     80779     80778     80780     80780     80778     80781     80782     80778     80781
     80782     80778     80780     80782     80778     80779     80784     80788     80789
     80785     80784     80787     80785     80784     80786     80786     80784     80787
     80788     80784     80787     80788     80784     80786     80788     80784     80785
     80790     80794     80795     80791     80790     80793     80791     80790     80792
     80792     80790     80793     80794     80790     80793     80794     80790     80792
     80794     80790     80791     80796     80800     80801     80797     80796     80799
     80797     80796     80798     80798     80796     80799     80800     80796     80799
     80800     80796     80798     80800     80796     80797     80802     80806     80807
     80803     80802     80805     80803     80802     80804     80804     80802     80805
     80806     80802     80805     80806     80802     80804     80806     80802     80803
     80808     80812     80813     80809     80808     80811     80809     80808     80810
     80810     80808     80811     80812     80808     80811     80812     80808     80810
     80812     80808     80809     80814     80818     80819     80815     80814     80817
     80815     80814     80816     80816     80814     80817     80818     80814     80817
     80818     80814     80816     80818     80814     80815     80820     80824     80825
     80821     80820     80823     80821     80820     80822     80822     80820     80823
     80824     80820     80823     80824     80820     80822     80824     80820     80821
     80826     80830     80831     80827     80826     80829     80827     80826     80828
     80828     80826     80829     80830     80826     80829     80830     80826     80828
     80830     80826     80827     80832     80836     80837     80833     80832     80835
     80833     80832     80834     80834     80832     80835     80836     80832     80835
     80836     80832     80834     80836     80832     80833     80838     80842     80843
     80839     80838     80841     80839     80838     80840     80840     80838     80841
     80842     80838     80841     80842     80838     80840     80842     80838     80839
     80844     80848     80849     80845     80844     80847     80845     80844     80846
     80846     80844     80847     80848     80844     80847     80848     80844     80846
     80848     80844     80845     80850     80854     80855     80851     80850     80853
     80851     80850     80852     80852     80850     80853     80854     80850     80853
     80854     80850     80852     80854     80850     80851     80856     80860     80861
     80857     80856     80859     80857     80856     80858     80858     80856     80859
     80860     80856     80859     80860     80856     80858     80860     80856     80857
     80862     80866     80867     80863     80862     80865     80863     80862     80864
     80864     80862     80865     80866     80862     80865     80866     80862     80864
     80866     80862     80863     80868     80872     80873     80869     80868     80871
     80869     80868     80870     80870     80868     80871     80872     80868     80871
     80872     80868     80870     80872     80868     80869     80874     80878     80879
     80875     80874     80877     80875     80874     80876     80876     80874     80877
     80878     80874     80877     80878     80874     80876     80878     80874     80875
     80880     80884     80885     80881     80880     80883     80881     80880     80882
     80882     80880     80883     80884     80880     80883     80884     80880     80882
     80884     80880     80881     80886     80890     80891     80887     80886     80889
     80887     80886     80888     80888     80886     80889     80890     80886     80889
     80890     80886     80888     80890     80886     80887     80892     80896     80897
     80893     80892     80895     80893     80892     80894     80894     80892     80895
     80896     80892     80895     80896     80892     80894     80896     80892     80893
     80898     80902     80903     80899     80898     80901     80899     80898     80900
     80900     80898     80901     80902     80898     80901     80902     80898     80900
     80902     80898     80899     80904     80908     80909     80905     80904     80907
     80905     80904     80906     80906     80904     80907     80908     80904     80907
     80908     80904     80906     80908     80904     80905     80910     80914     80915
     80911     80910     80913     80911     80910     80912     80912     80910     80913
     80914     80910     80913     80914     80910     80912     80914     80910     80911
     80916     80920     80921     80917     80916     80919     80917     80916     80918
     80918     80916     80919     80920     80916     80919     80920     80916     80918
     80920     80916     80917     80922     80926     80927     80923     80922     80925
     80923     80922     80924     80924     80922     80925     80926     80922     80925
     80926     80922     80924     80926     80922     80923     80928     80932     80933
     80929     80928     80931     80929     80928     80930     80930     80928     80931
     80932     80928     80931     80932     80928     80930     80932     80928     80929
     80934     80938     80939     80935     80934     80937     80935     80934     80936
     80936     80934     80937     80938     80934     80937     80938     80934     80936
     80938     80934     80935     80940     80944     80945     80941     80940     80943
     80941     80940     80942     80942     80940     80943     80944     80940     80943
     80944     80940     80942     80944     80940     80941     80946     80950     80951
     80947     80946     80949     80947     80946     80948     80948     80946     80949
     80950     80946     80949     80950     80946     80948     80950     80946     80947
     80952     80956     80957     80953     80952     80955     80953     80952     80954
     80954     80952     80955     80956     80952     80955     80956     80952     80954
     80956     80952     80953     80958     80962     80963     80959     80958     80961
     80959     80958     80960     80960     80958     80961     80962     80958     80961
     80962     80958     80960     80962     80958     80959     80964     80968     80969
     80965     80964     80967     80965     80964     80966     80966     80964     80967
     80968     80964     80967     80968     80964     80966     80968     80964     80965
     80970     80974     80975     80971     80970     80973     80971     80970     80972
     80972     80970     80973     80974     80970     80973     80974     80970     80972
     80974     80970     80971     80976     80980     80981     80977     80976     80979
     80977     80976     80978     80978     80976     80979     80980     80976     80979
     80980     80976     80978     80980     80976     80977     80982     80986     80987
     80983     80982     80985     80983     80982     80984     80984     80982     80985
     80986     80982     80985     80986     80982     80984     80986     80982     80983
     80988     80992     80993     80989     80988     80991     80989     80988     80990
     80990     80988     80991     80992     80988     80991     80992     80988     80990
     80992     80988     80989     80994     80998     80999     80995     80994     80997
     80995     80994     80996     80996     80994     80997     80998     80994     80997
     80998     80994     80996     80998     80994     80995     81000     81004     81005
     81001     81000     81003     81001     81000     81002     81002     81000     81003
     81004     81000     81003     81004     81000     81002     81004     81000     81001
     81006     81010     81011     81007     81006     81009     81007     81006     81008
     81008     81006     81009     81010     81006     81009     81010     81006     81008
     81010     81006     81007     81012     81016     81017     81013     81012     81015
     81013     81012     81014     81014     81012     81015     81016     81012     81015
     81016     81012     81014     81016     81012     81013     81018     81022     81023
     81019     81018     81021     81019     81018     81020     81020     81018     81021
     81022     81018     81021     81022     81018     81020     81022     81018     81019
     81024     81028     81029     81025     81024     81027     81025     81024     81026
     81026     81024     81027     81028     81024     81027     81028     81024     81026
     81028     81024     81025     81030     81034     81035     81031     81030     81033
     81031     81030     81032     81032     81030     81033     81034     81030     81033
     81034     81030     81032     81034     81030     81031     81036     81040     81041
     81037     81036     81039     81037     81036     81038     81038     81036     81039
     81040     81036     81039     81040     81036     81038     81040     81036     81037
     81042     81046     81047     81043     81042     81045     81043     81042     81044
     81044     81042     81045     81046     81042     81045     81046     81042     81044
     81046     81042     81043     81048     81052     81053     81049     81048     81051
     81049     81048     81050     81050     81048     81051     81052     81048     81051
     81052     81048     81050     81052     81048     81049     81054     81058     81059
     81055     81054     81057     81055     81054     81056     81056     81054     81057
     81058     81054     81057     81058     81054     81056     81058     81054     81055
     81060     81064     81065     81061     81060     81063     81061     81060     81062
     81062     81060     81063     81064     81060     81063     81064     81060     81062
     81064     81060     81061     81066     81070     81071     81067     81066     81069
     81067     81066     81068     81068     81066     81069     81070     81066     81069
     81070     81066     81068     81070     81066     81067     81072     81076     81077
     81073     81072     81075     81073     81072     81074     81074     81072     81075
     81076     81072     81075     81076     81072     81074     81076     81072     81073
     81078     81082     81083     81079     81078     81081     81079     81078     81080
     81080     81078     81081     81082     81078     81081     81082     81078     81080
     81082     81078     81079     81084     81088     81089     81085     81084     81087
     81085     81084     81086     81086     81084     81087     81088     81084     81087
     81088     81084     81086     81088     81084     81085     81090     81094     81095
     81091     81090     81093     81091     81090     81092     81092     81090     81093
     81094     81090     81093     81094     81090     81092     81094     81090     81091
     81096     81100     81101     81097     81096     81099     81097     81096     81098
     81098     81096     81099     81100     81096     81099     81100     81096     81098
     81100     81096     81097     81102     81106     81107     81103     81102     81105
     81103     81102     81104     81104     81102     81105     81106     81102     81105
     81106     81102     81104     81106     81102     81103     81108     81112     81113
     81109     81108     81111     81109     81108     81110     81110     81108     81111
     81112     81108     81111     81112     81108     81110     81112     81108     81109
     81114     81118     81119     81115     81114     81117     81115     81114     81116
     81116     81114     81117     81118     81114     81117     81118     81114     81116
     81118     81114     81115     81120     81124     81125     81121     81120     81123
     81121     81120     81122     81122     81120     81123     81124     81120     81123
     81124     81120     81122     81124     81120     81121     81126     81130     81131
     81127     81126     81129     81127     81126     81128     81128     81126     81129
     81130     81126     81129     81130     81126     81128     81130     81126     81127
     81132     81136     81137     81133     81132     81135     81133     81132     81134
     81134     81132     81135     81136     81132     81135     81136     81132     81134
     81136     81132     81133     81138     81142     81143     81139     81138     81141
     81139     81138     81140     81140     81138     81141     81142     81138     81141
     81142     81138     81140     81142     81138     81139     81144     81148     81149
     81145     81144     81147     81145     81144     81146     81146     81144     81147
     81148     81144     81147     81148     81144     81146     81148     81144     81145
     81150     81154     81155     81151     81150     81153     81151     81150     81152
     81152     81150     81153     81154     81150     81153     81154     81150     81152
     81154     81150     81151     81156     81160     81161     81157     81156     81159
     81157     81156     81158     81158     81156     81159     81160     81156     81159
     81160     81156     81158     81160     81156     81157     81162     81166     81167
     81163     81162     81165     81163     81162     81164     81164     81162     81165
     81166     81162     81165     81166     81162     81164     81166     81162     81163
     81168     81172     81173     81169     81168     81171     81169     81168     81170
     81170     81168     81171     81172     81168     81171     81172     81168     81170
     81172     81168     81169     81174     81178     81179     81175     81174     81177
     81175     81174     81176     81176     81174     81177     81178     81174     81177
     81178     81174     81176     81178     81174     81175     81180     81184     81185
     81181     81180     81183     81181     81180     81182     81182     81180     81183
     81184     81180     81183     81184     81180     81182     81184     81180     81181
     81186     81190     81191     81187     81186     81189     81187     81186     81188
     81188     81186     81189     81190     81186     81189     81190     81186     81188
     81190     81186     81187     81192     81196     81197     81193     81192     81195
     81193     81192     81194     81194     81192     81195     81196     81192     81195
     81196     81192     81194     81196     81192     81193     81198     81202     81203
     81199     81198     81201     81199     81198     81200     81200     81198     81201
     81202     81198     81201     81202     81198     81200     81202     81198     81199
     81204     81208     81209     81205     81204     81207     81205     81204     81206
     81206     81204     81207     81208     81204     81207     81208     81204     81206
     81208     81204     81205     81210     81214     81215     81211     81210     81213
     81211     81210     81212     81212     81210     81213     81214     81210     81213
     81214     81210     81212     81214     81210     81211     81216     81220     81221
     81217     81216     81219     81217     81216     81218     81218     81216     81219
     81220     81216     81219     81220     81216     81218     81220     81216     81217
     81222     81226     81227     81223     81222     81225     81223     81222     81224
     81224     81222     81225     81226     81222     81225     81226     81222     81224
     81226     81222     81223     81228     81232     81233     81229     81228     81231
     81229     81228     81230     81230     81228     81231     81232     81228     81231
     81232     81228     81230     81232     81228     81229     81234     81238     81239
     81235     81234     81237     81235     81234     81236     81236     81234     81237
     81238     81234     81237     81238     81234     81236     81238     81234     81235
     81240     81244     81245     81241     81240     81243     81241     81240     81242
     81242     81240     81243     81244     81240     81243     81244     81240     81242
     81244     81240     81241     81246     81250     81251     81247     81246     81249
     81247     81246     81248     81248     81246     81249     81250     81246     81249
     81250     81246     81248     81250     81246     81247     81252     81256     81257
     81253     81252     81255     81253     81252     81254     81254     81252     81255
     81256     81252     81255     81256     81252     81254     81256     81252     81253
     81258     81262     81263     81259     81258     81261     81259     81258     81260
     81260     81258     81261     81262     81258     81261     81262     81258     81260
     81262     81258     81259     81264     81268     81269     81265     81264     81267
     81265     81264     81266     81266     81264     81267     81268     81264     81267
     81268     81264     81266     81268     81264     81265     81270     81274     81275
     81271     81270     81273     81271     81270     81272     81272     81270     81273
     81274     81270     81273     81274     81270     81272     81274     81270     81271
     81276     81280     81281     81277     81276     81279     81277     81276     81278
     81278     81276     81279     81280     81276     81279     81280     81276     81278
     81280     81276     81277     81282     81286     81287     81283     81282     81285
     81283     81282     81284     81284     81282     81285     81286     81282     81285
     81286     81282     81284     81286     81282     81283     81288     81292     81293
     81289     81288     81291     81289     81288     81290     81290     81288     81291
     81292     81288     81291     81292     81288     81290     81292     81288     81289
     81294     81298     81299     81295     81294     81297     81295     81294     81296
     81296     81294     81297     81298     81294     81297     81298     81294     81296
     81298     81294     81295     81300     81304     81305     81301     81300     81303
     81301     81300     81302     81302     81300     81303     81304     81300     81303
     81304     81300     81302     81304     81300     81301     81306     81310     81311
     81307     81306     81309     81307     81306     81308     81308     81306     81309
     81310     81306     81309     81310     81306     81308     81310     81306     81307
     81312     81316     81317     81313     81312     81315     81313     81312     81314
     81314     81312     81315     81316     81312     81315     81316     81312     81314
     81316     81312     81313     81318     81322     81323     81319     81318     81321
     81319     81318     81320     81320     81318     81321     81322     81318     81321
     81322     81318     81320     81322     81318     81319     81324     81328     81329
     81325     81324     81327     81325     81324     81326     81326     81324     81327
     81328     81324     81327     81328     81324     81326     81328     81324     81325
     81330     81334     81335     81331     81330     81333     81331     81330     81332
     81332     81330     81333     81334     81330     81333     81334     81330     81332
     81334     81330     81331     81336     81340     81341     81337     81336     81339
     81337     81336     81338     81338     81336     81339     81340     81336     81339
     81340     81336     81338     81340     81336     81337     81342     81346     81347
     81343     81342     81345     81343     81342     81344     81344     81342     81345
     81346     81342     81345     81346     81342     81344     81346     81342     81343
     81348     81352     81353     81349     81348     81351     81349     81348     81350
     81350     81348     81351     81352     81348     81351     81352     81348     81350
     81352     81348     81349     81354     81358     81359     81355     81354     81357
     81355     81354     81356     81356     81354     81357     81358     81354     81357
     81358     81354     81356     81358     81354     81355     81360     81364     81365
     81361     81360     81363     81361     81360     81362     81362     81360     81363
     81364     81360     81363     81364     81360     81362     81364     81360     81361
     81366     81370     81371     81367     81366     81369     81367     81366     81368
     81368     81366     81369     81370     81366     81369     81370     81366     81368
     81370     81366     81367     81372     81376     81377     81373     81372     81375
     81373     81372     81374     81374     81372     81375     81376     81372     81375
     81376     81372     81374     81376     81372     81373     81378     81382     81383
     81379     81378     81381     81379     81378     81380     81380     81378     81381
     81382     81378     81381     81382     81378     81380     81382     81378     81379
     81384     81388     81389     81385     81384     81387     81385     81384     81386
     81386     81384     81387     81388     81384     81387     81388     81384     81386
     81388     81384     81385     81390     81394     81395     81391     81390     81393
     81391     81390     81392     81392     81390     81393     81394     81390     81393
     81394     81390     81392     81394     81390     81391     81396     81400     81401
     81397     81396     81399     81397     81396     81398     81398     81396     81399
     81400     81396     81399     81400     81396     81398     81400     81396     81397
     81402     81406     81407     81403     81402     81405     81403     81402     81404
     81404     81402     81405     81406     81402     81405     81406     81402     81404
     81406     81402     81403     81408     81412     81413     81409     81408     81411
     81409     81408     81410     81410     81408     81411     81412     81408     81411
     81412     81408     81410     81412     81408     81409     81414     81418     81419
     81415     81414     81417     81415     81414     81416     81416     81414     81417
     81418     81414     81417     81418     81414     81416     81418     81414     81415
     81420     81424     81425     81421     81420     81423     81421     81420     81422
     81422     81420     81423     81424     81420     81423     81424     81420     81422
     81424     81420     81421     81426     81430     81431     81427     81426     81429
     81427     81426     81428     81428     81426     81429     81430     81426     81429
     81430     81426     81428     81430     81426     81427     81432     81436     81437
     81433     81432     81435     81433     81432     81434     81434     81432     81435
     81436     81432     81435     81436     81432     81434     81436     81432     81433
     81438     81442     81443     81439     81438     81441     81439     81438     81440
     81440     81438     81441     81442     81438     81441     81442     81438     81440
     81442     81438     81439     81444     81448     81449     81445     81444     81447
     81445     81444     81446     81446     81444     81447     81448     81444     81447
     81448     81444     81446     81448     81444     81445     81450     81454     81455
     81451     81450     81453     81451     81450     81452     81452     81450     81453
     81454     81450     81453     81454     81450     81452     81454     81450     81451
     81456     81460     81461     81457     81456     81459     81457     81456     81458
     81458     81456     81459     81460     81456     81459     81460     81456     81458
     81460     81456     81457     81462     81466     81467     81463     81462     81465
     81463     81462     81464     81464     81462     81465     81466     81462     81465
     81466     81462     81464     81466     81462     81463     81468     81472     81473
     81469     81468     81471     81469     81468     81470     81470     81468     81471
     81472     81468     81471     81472     81468     81470     81472     81468     81469
     81474     81478     81479     81475     81474     81477     81475     81474     81476
     81476     81474     81477     81478     81474     81477     81478     81474     81476
     81478     81474     81475     81480     81484     81485     81481     81480     81483
     81481     81480     81482     81482     81480     81483     81484     81480     81483
     81484     81480     81482     81484     81480     81481     81486     81490     81491
     81487     81486     81489     81487     81486     81488     81488     81486     81489
     81490     81486     81489     81490     81486     81488     81490     81486     81487
     81492     81496     81497     81493     81492     81495     81493     81492     81494
     81494     81492     81495     81496     81492     81495     81496     81492     81494
     81496     81492     81493     81498     81502     81503     81499     81498     81501
     81499     81498     81500     81500     81498     81501     81502     81498     81501
     81502     81498     81500     81502     81498     81499     81504     81508     81509
     81505     81504     81507     81505     81504     81506     81506     81504     81507
     81508     81504     81507     81508     81504     81506     81508     81504     81505
     81510     81514     81515     81511     81510     81513     81511     81510     81512
     81512     81510     81513     81514     81510     81513     81514     81510     81512
     81514     81510     81511     81516     81520     81521     81517     81516     81519
     81517     81516     81518     81518     81516     81519     81520     81516     81519
     81520     81516     81518     81520     81516     81517     81522     81526     81527
     81523     81522     81525     81523     81522     81524     81524     81522     81525
     81526     81522     81525     81526     81522     81524     81526     81522     81523
     81528     81532     81533     81529     81528     81531     81529     81528     81530
     81530     81528     81531     81532     81528     81531     81532     81528     81530
     81532     81528     81529     81534     81538     81539     81535     81534     81537
     81535     81534     81536     81536     81534     81537     81538     81534     81537
     81538     81534     81536     81538     81534     81535     81540     81544     81545
     81541     81540     81543     81541     81540     81542     81542     81540     81543
     81544     81540     81543     81544     81540     81542     81544     81540     81541
     81546     81550     81551     81547     81546     81549     81547     81546     81548
     81548     81546     81549     81550     81546     81549     81550     81546     81548
     81550     81546     81547     81552     81556     81557     81553     81552     81555
     81553     81552     81554     81554     81552     81555     81556     81552     81555
     81556     81552     81554     81556     81552     81553     81558     81562     81563
     81559     81558     81561     81559     81558     81560     81560     81558     81561
     81562     81558     81561     81562     81558     81560     81562     81558     81559
     81564     81568     81569     81565     81564     81567     81565     81564     81566
     81566     81564     81567     81568     81564     81567     81568     81564     81566
     81568     81564     81565     81570     81574     81575     81571     81570     81573
     81571     81570     81572     81572     81570     81573     81574     81570     81573
     81574     81570     81572     81574     81570     81571     81576     81580     81581
     81577     81576     81579     81577     81576     81578     81578     81576     81579
     81580     81576     81579     81580     81576     81578     81580     81576     81577
     81582     81586     81587     81583     81582     81585     81583     81582     81584
     81584     81582     81585     81586     81582     81585     81586     81582     81584
     81586     81582     81583     81588     81592     81593     81589     81588     81591
     81589     81588     81590     81590     81588     81591     81592     81588     81591
     81592     81588     81590     81592     81588     81589     81594     81598     81599
     81595     81594     81597     81595     81594     81596     81596     81594     81597
     81598     81594     81597     81598     81594     81596     81598     81594     81595
     81600     81604     81605     81601     81600     81603     81601     81600     81602
     81602     81600     81603     81604     81600     81603     81604     81600     81602
     81604     81600     81601     81606     81610     81611     81607     81606     81609
     81607     81606     81608     81608     81606     81609     81610     81606     81609
     81610     81606     81608     81610     81606     81607     81612     81616     81617
     81613     81612     81615     81613     81612     81614     81614     81612     81615
     81616     81612     81615     81616     81612     81614     81616     81612     81613
     81618     81622     81623     81619     81618     81621     81619     81618     81620
     81620     81618     81621     81622     81618     81621     81622     81618     81620
     81622     81618     81619     81624     81628     81629     81625     81624     81627
     81625     81624     81626     81626     81624     81627     81628     81624     81627
     81628     81624     81626     81628     81624     81625     81630     81634     81635
     81631     81630     81633     81631     81630     81632     81632     81630     81633
     81634     81630     81633     81634     81630     81632     81634     81630     81631
     81636     81640     81641     81637     81636     81639     81637     81636     81638
     81638     81636     81639     81640     81636     81639     81640     81636     81638
     81640     81636     81637     81642     81646     81647     81643     81642     81645
     81643     81642     81644     81644     81642     81645     81646     81642     81645
     81646     81642     81644     81646     81642     81643     81648     81652     81653
     81649     81648     81651     81649     81648     81650     81650     81648     81651
     81652     81648     81651     81652     81648     81650     81652     81648     81649
     81654     81658     81659     81655     81654     81657     81655     81654     81656
     81656     81654     81657     81658     81654     81657     81658     81654     81656
     81658     81654     81655     81660     81664     81665     81661     81660     81663
     81661     81660     81662     81662     81660     81663     81664     81660     81663
     81664     81660     81662     81664     81660     81661     81666     81670     81671
     81667     81666     81669     81667     81666     81668     81668     81666     81669
     81670     81666     81669     81670     81666     81668     81670     81666     81667
     81672     81676     81677     81673     81672     81675     81673     81672     81674
     81674     81672     81675     81676     81672     81675     81676     81672     81674
     81676     81672     81673     81678     81682     81683     81679     81678     81681
     81679     81678     81680     81680     81678     81681     81682     81678     81681
     81682     81678     81680     81682     81678     81679     81684     81688     81689
     81685     81684     81687     81685     81684     81686     81686     81684     81687
     81688     81684     81687     81688     81684     81686     81688     81684     81685
     81690     81694     81695     81691     81690     81693     81691     81690     81692
     81692     81690     81693     81694     81690     81693     81694     81690     81692
     81694     81690     81691     81696     81700     81701     81697     81696     81699
     81697     81696     81698     81698     81696     81699     81700     81696     81699
     81700     81696     81698     81700     81696     81697     81702     81706     81707
     81703     81702     81705     81703     81702     81704     81704     81702     81705
     81706     81702     81705     81706     81702     81704     81706     81702     81703
     81708     81712     81713     81709     81708     81711     81709     81708     81710
     81710     81708     81711     81712     81708     81711     81712     81708     81710
     81712     81708     81709     81714     81718     81719     81715     81714     81717
     81715     81714     81716     81716     81714     81717     81718     81714     81717
     81718     81714     81716     81718     81714     81715     81720     81724     81725
     81721     81720     81723     81721     81720     81722     81722     81720     81723
     81724     81720     81723     81724     81720     81722     81724     81720     81721
     81726     81730     81731     81727     81726     81729     81727     81726     81728
     81728     81726     81729     81730     81726     81729     81730     81726     81728
     81730     81726     81727     81732     81736     81737     81733     81732     81735
     81733     81732     81734     81734     81732     81735     81736     81732     81735
     81736     81732     81734     81736     81732     81733     81738     81742     81743
     81739     81738     81741     81739     81738     81740     81740     81738     81741
     81742     81738     81741     81742     81738     81740     81742     81738     81739
     81744     81748     81749     81745     81744     81747     81745     81744     81746
     81746     81744     81747     81748     81744     81747     81748     81744     81746
     81748     81744     81745     81750     81754     81755     81751     81750     81753
     81751     81750     81752     81752     81750     81753     81754     81750     81753
     81754     81750     81752     81754     81750     81751     81756     81760     81761
     81757     81756     81759     81757     81756     81758     81758     81756     81759
     81760     81756     81759     81760     81756     81758     81760     81756     81757
     81762     81766     81767     81763     81762     81765     81763     81762     81764
     81764     81762     81765     81766     81762     81765     81766     81762     81764
     81766     81762     81763     81768     81772     81773     81769     81768     81771
     81769     81768     81770     81770     81768     81771     81772     81768     81771
     81772     81768     81770     81772     81768     81769     81774     81778     81779
     81775     81774     81777     81775     81774     81776     81776     81774     81777
     81778     81774     81777     81778     81774     81776     81778     81774     81775
     81780     81784     81785     81781     81780     81783     81781     81780     81782
     81782     81780     81783     81784     81780     81783     81784     81780     81782
     81784     81780     81781     81786     81790     81791     81787     81786     81789
     81787     81786     81788     81788     81786     81789     81790     81786     81789
     81790     81786     81788     81790     81786     81787     81792     81796     81797
     81793     81792     81795     81793     81792     81794     81794     81792     81795
     81796     81792     81795     81796     81792     81794     81796     81792     81793
     81798     81802     81803     81799     81798     81801     81799     81798     81800
     81800     81798     81801     81802     81798     81801     81802     81798     81800
     81802     81798     81799     81804     81808     81809     81805     81804     81807
     81805     81804     81806     81806     81804     81807     81808     81804     81807
     81808     81804     81806     81808     81804     81805     81810     81814     81815
     81811     81810     81813     81811     81810     81812     81812     81810     81813
     81814     81810     81813     81814     81810     81812     81814     81810     81811
     81816     81820     81821     81817     81816     81819     81817     81816     81818
     81818     81816     81819     81820     81816     81819     81820     81816     81818
     81820     81816     81817     81822     81826     81827     81823     81822     81825
     81823     81822     81824     81824     81822     81825     81826     81822     81825
     81826     81822     81824     81826     81822     81823     81828     81832     81833
     81829     81828     81831     81829     81828     81830     81830     81828     81831
     81832     81828     81831     81832     81828     81830     81832     81828     81829
     81834     81838     81839     81835     81834     81837     81835     81834     81836
     81836     81834     81837     81838     81834     81837     81838     81834     81836
     81838     81834     81835     81840     81844     81845     81841     81840     81843
     81841     81840     81842     81842     81840     81843     81844     81840     81843
     81844     81840     81842     81844     81840     81841     81846     81850     81851
     81847     81846     81849     81847     81846     81848     81848     81846     81849
     81850     81846     81849     81850     81846     81848     81850     81846     81847
     81852     81856     81857     81853     81852     81855     81853     81852     81854
     81854     81852     81855     81856     81852     81855     81856     81852     81854
     81856     81852     81853     81858     81862     81863     81859     81858     81861
     81859     81858     81860     81860     81858     81861     81862     81858     81861
     81862     81858     81860     81862     81858     81859     81864     81868     81869
     81865     81864     81867     81865     81864     81866     81866     81864     81867
     81868     81864     81867     81868     81864     81866     81868     81864     81865
     81870     81874     81875     81871     81870     81873     81871     81870     81872
     81872     81870     81873     81874     81870     81873     81874     81870     81872
     81874     81870     81871     81876     81880     81881     81877     81876     81879
     81877     81876     81878     81878     81876     81879     81880     81876     81879
     81880     81876     81878     81880     81876     81877     81882     81886     81887
     81883     81882     81885     81883     81882     81884     81884     81882     81885
     81886     81882     81885     81886     81882     81884     81886     81882     81883
     81888     81892     81893     81889     81888     81891     81889     81888     81890
     81890     81888     81891     81892     81888     81891     81892     81888     81890
     81892     81888     81889     81894     81898     81899     81895     81894     81897
     81895     81894     81896     81896     81894     81897     81898     81894     81897
     81898     81894     81896     81898     81894     81895     81900     81904     81905
     81901     81900     81903     81901     81900     81902     81902     81900     81903
     81904     81900     81903     81904     81900     81902     81904     81900     81901
     81906     81910     81911     81907     81906     81909     81907     81906     81908
     81908     81906     81909     81910     81906     81909     81910     81906     81908
     81910     81906     81907     81912     81916     81917     81913     81912     81915
     81913     81912     81914     81914     81912     81915     81916     81912     81915
     81916     81912     81914     81916     81912     81913     81918     81922     81923
     81919     81918     81921     81919     81918     81920     81920     81918     81921
     81922     81918     81921     81922     81918     81920     81922     81918     81919
     81924     81928     81929     81925     81924     81927     81925     81924     81926
     81926     81924     81927     81928     81924     81927     81928     81924     81926
     81928     81924     81925     81930     81934     81935     81931     81930     81933
     81931     81930     81932     81932     81930     81933     81934     81930     81933
     81934     81930     81932     81934     81930     81931     81936     81940     81941
     81937     81936     81939     81937     81936     81938     81938     81936     81939
     81940     81936     81939     81940     81936     81938     81940     81936     81937
     81942     81946     81947     81943     81942     81945     81943     81942     81944
     81944     81942     81945     81946     81942     81945     81946     81942     81944
     81946     81942     81943     81948     81952     81953     81949     81948     81951
     81949     81948     81950     81950     81948     81951     81952     81948     81951
     81952     81948     81950     81952     81948     81949     81954     81958     81959
     81955     81954     81957     81955     81954     81956     81956     81954     81957
     81958     81954     81957     81958     81954     81956     81958     81954     81955
     81960     81964     81965     81961     81960     81963     81961     81960     81962
     81962     81960     81963     81964     81960     81963     81964     81960     81962
     81964     81960     81961     81966     81970     81971     81967     81966     81969
     81967     81966     81968     81968     81966     81969     81970     81966     81969
     81970     81966     81968     81970     81966     81967     81972     81976     81977
     81973     81972     81975     81973     81972     81974     81974     81972     81975
     81976     81972     81975     81976     81972     81974     81976     81972     81973
     81978     81982     81983     81979     81978     81981     81979     81978     81980
     81980     81978     81981     81982     81978     81981     81982     81978     81980
     81982     81978     81979     81984     81988     81989     81985     81984     81987
     81985     81984     81986     81986     81984     81987     81988     81984     81987
     81988     81984     81986     81988     81984     81985     81990     81994     81995
     81991     81990     81993     81991     81990     81992     81992     81990     81993
     81994     81990     81993     81994     81990     81992     81994     81990     81991
     81996     82000     82001     81997     81996     81999     81997     81996     81998
     81998     81996     81999     82000     81996     81999     82000     81996     81998
     82000     81996     81997     82002     82006     82007     82003     82002     82005
     82003     82002     82004     82004     82002     82005     82006     82002     82005
     82006     82002     82004     82006     82002     82003     82008     82012     82013
     82009     82008     82011     82009     82008     82010     82010     82008     82011
     82012     82008     82011     82012     82008     82010     82012     82008     82009
     82014     82018     82019     82015     82014     82017     82015     82014     82016
     82016     82014     82017     82018     82014     82017     82018     82014     82016
     82018     82014     82015     82020     82024     82025     82021     82020     82023
     82021     82020     82022     82022     82020     82023     82024     82020     82023
     82024     82020     82022     82024     82020     82021     82026     82030     82031
     82027     82026     82029     82027     82026     82028     82028     82026     82029
     82030     82026     82029     82030     82026     82028     82030     82026     82027
     82032     82036     82037     82033     82032     82035     82033     82032     82034
     82034     82032     82035     82036     82032     82035     82036     82032     82034
     82036     82032     82033     82038     82042     82043     82039     82038     82041
     82039     82038     82040     82040     82038     82041     82042     82038     82041
     82042     82038     82040     82042     82038     82039     82044     82048     82049
     82045     82044     82047     82045     82044     82046     82046     82044     82047
     82048     82044     82047     82048     82044     82046     82048     82044     82045
     82050     82054     82055     82051     82050     82053     82051     82050     82052
     82052     82050     82053     82054     82050     82053     82054     82050     82052
     82054     82050     82051     82056     82060     82061     82057     82056     82059
     82057     82056     82058     82058     82056     82059     82060     82056     82059
     82060     82056     82058     82060     82056     82057     82062     82066     82067
     82063     82062     82065     82063     82062     82064     82064     82062     82065
     82066     82062     82065     82066     82062     82064     82066     82062     82063
     82068     82072     82073     82069     82068     82071     82069     82068     82070
     82070     82068     82071     82072     82068     82071     82072     82068     82070
     82072     82068     82069     82074     82078     82079     82075     82074     82077
     82075     82074     82076     82076     82074     82077     82078     82074     82077
     82078     82074     82076     82078     82074     82075     82080     82084     82085
     82081     82080     82083     82081     82080     82082     82082     82080     82083
     82084     82080     82083     82084     82080     82082     82084     82080     82081
     82086     82090     82091     82087     82086     82089     82087     82086     82088
     82088     82086     82089     82090     82086     82089     82090     82086     82088
     82090     82086     82087     82092     82096     82097     82093     82092     82095
     82093     82092     82094     82094     82092     82095     82096     82092     82095
     82096     82092     82094     82096     82092     82093     82098     82102     82103
     82099     82098     82101     82099     82098     82100     82100     82098     82101
     82102     82098     82101     82102     82098     82100     82102     82098     82099
     82104     82108     82109     82105     82104     82107     82105     82104     82106
     82106     82104     82107     82108     82104     82107     82108     82104     82106
     82108     82104     82105     82110     82114     82115     82111     82110     82113
     82111     82110     82112     82112     82110     82113     82114     82110     82113
     82114     82110     82112     82114     82110     82111     82116     82120     82121
     82117     82116     82119     82117     82116     82118     82118     82116     82119
     82120     82116     82119     82120     82116     82118     82120     82116     82117
     82122     82126     82127     82123     82122     82125     82123     82122     82124
     82124     82122     82125     82126     82122     82125     82126     82122     82124
     82126     82122     82123     82128     82132     82133     82129     82128     82131
     82129     82128     82130     82130     82128     82131     82132     82128     82131
     82132     82128     82130     82132     82128     82129     82134     82138     82139
     82135     82134     82137     82135     82134     82136     82136     82134     82137
     82138     82134     82137     82138     82134     82136     82138     82134     82135
     82140     82144     82145     82141     82140     82143     82141     82140     82142
     82142     82140     82143     82144     82140     82143     82144     82140     82142
     82144     82140     82141     82146     82150     82151     82147     82146     82149
     82147     82146     82148     82148     82146     82149     82150     82146     82149
     82150     82146     82148     82150     82146     82147     82152     82156     82157
     82153     82152     82155     82153     82152     82154     82154     82152     82155
     82156     82152     82155     82156     82152     82154     82156     82152     82153
     82158     82162     82163     82159     82158     82161     82159     82158     82160
     82160     82158     82161     82162     82158     82161     82162     82158     82160
     82162     82158     82159     82164     82168     82169     82165     82164     82167
     82165     82164     82166     82166     82164     82167     82168     82164     82167
     82168     82164     82166     82168     82164     82165     82170     82174     82175
     82171     82170     82173     82171     82170     82172     82172     82170     82173
     82174     82170     82173     82174     82170     82172     82174     82170     82171
     82176     82180     82181     82177     82176     82179     82177     82176     82178
     82178     82176     82179     82180     82176     82179     82180     82176     82178
     82180     82176     82177     82182     82186     82187     82183     82182     82185
     82183     82182     82184     82184     82182     82185     82186     82182     82185
     82186     82182     82184     82186     82182     82183     82188     82192     82193
     82189     82188     82191     82189     82188     82190     82190     82188     82191
     82192     82188     82191     82192     82188     82190     82192     82188     82189
     82194     82198     82199     82195     82194     82197     82195     82194     82196
     82196     82194     82197     82198     82194     82197     82198     82194     82196
     82198     82194     82195     82200     82204     82205     82201     82200     82203
     82201     82200     82202     82202     82200     82203     82204     82200     82203
     82204     82200     82202     82204     82200     82201     82206     82210     82211
     82207     82206     82209     82207     82206     82208     82208     82206     82209
     82210     82206     82209     82210     82206     82208     82210     82206     82207
     82212     82216     82217     82213     82212     82215     82213     82212     82214
     82214     82212     82215     82216     82212     82215     82216     82212     82214
     82216     82212     82213     82218     82222     82223     82219     82218     82221
     82219     82218     82220     82220     82218     82221     82222     82218     82221
     82222     82218     82220     82222     82218     82219     82224     82228     82229
     82225     82224     82227     82225     82224     82226     82226     82224     82227
     82228     82224     82227     82228     82224     82226     82228     82224     82225
     82230     82234     82235     82231     82230     82233     82231     82230     82232
     82232     82230     82233     82234     82230     82233     82234     82230     82232
     82234     82230     82231     82236     82240     82241     82237     82236     82239
     82237     82236     82238     82238     82236     82239     82240     82236     82239
     82240     82236     82238     82240     82236     82237     82242     82246     82247
     82243     82242     82245     82243     82242     82244     82244     82242     82245
     82246     82242     82245     82246     82242     82244     82246     82242     82243
     82248     82252     82253     82249     82248     82251     82249     82248     82250
     82250     82248     82251     82252     82248     82251     82252     82248     82250
     82252     82248     82249     82254     82258     82259     82255     82254     82257
     82255     82254     82256     82256     82254     82257     82258     82254     82257
     82258     82254     82256     82258     82254     82255     82260     82264     82265
     82261     82260     82263     82261     82260     82262     82262     82260     82263
     82264     82260     82263     82264     82260     82262     82264     82260     82261
     82266     82270     82271     82267     82266     82269     82267     82266     82268
     82268     82266     82269     82270     82266     82269     82270     82266     82268
     82270     82266     82267     82272     82276     82277     82273     82272     82275
     82273     82272     82274     82274     82272     82275     82276     82272     82275
     82276     82272     82274     82276     82272     82273     82278     82282     82283
     82279     82278     82281     82279     82278     82280     82280     82278     82281
     82282     82278     82281     82282     82278     82280     82282     82278     82279
     82284     82288     82289     82285     82284     82287     82285     82284     82286
     82286     82284     82287     82288     82284     82287     82288     82284     82286
     82288     82284     82285     82290     82294     82295     82291     82290     82293
     82291     82290     82292     82292     82290     82293     82294     82290     82293
     82294     82290     82292     82294     82290     82291     82296     82300     82301
     82297     82296     82299     82297     82296     82298     82298     82296     82299
     82300     82296     82299     82300     82296     82298     82300     82296     82297
     82302     82306     82307     82303     82302     82305     82303     82302     82304
     82304     82302     82305     82306     82302     82305     82306     82302     82304
     82306     82302     82303     82308     82312     82313     82309     82308     82311
     82309     82308     82310     82310     82308     82311     82312     82308     82311
     82312     82308     82310     82312     82308     82309     82314     82318     82319
     82315     82314     82317     82315     82314     82316     82316     82314     82317
     82318     82314     82317     82318     82314     82316     82318     82314     82315
     82320     82324     82325     82321     82320     82323     82321     82320     82322
     82322     82320     82323     82324     82320     82323     82324     82320     82322
     82324     82320     82321     82326     82330     82331     82327     82326     82329
     82327     82326     82328     82328     82326     82329     82330     82326     82329
     82330     82326     82328     82330     82326     82327     82332     82336     82337
     82333     82332     82335     82333     82332     82334     82334     82332     82335
     82336     82332     82335     82336     82332     82334     82336     82332     82333
     82338     82342     82343     82339     82338     82341     82339     82338     82340
     82340     82338     82341     82342     82338     82341     82342     82338     82340
     82342     82338     82339     82344     82348     82349     82345     82344     82347
     82345     82344     82346     82346     82344     82347     82348     82344     82347
     82348     82344     82346     82348     82344     82345     82350     82354     82355
     82351     82350     82353     82351     82350     82352     82352     82350     82353
     82354     82350     82353     82354     82350     82352     82354     82350     82351
     82356     82360     82361     82357     82356     82359     82357     82356     82358
     82358     82356     82359     82360     82356     82359     82360     82356     82358
     82360     82356     82357     82362     82366     82367     82363     82362     82365
     82363     82362     82364     82364     82362     82365     82366     82362     82365
     82366     82362     82364     82366     82362     82363     82368     82372     82373
     82369     82368     82371     82369     82368     82370     82370     82368     82371
     82372     82368     82371     82372     82368     82370     82372     82368     82369
     82374     82378     82379     82375     82374     82377     82375     82374     82376
     82376     82374     82377     82378     82374     82377     82378     82374     82376
     82378     82374     82375     82380     82384     82385     82381     82380     82383
     82381     82380     82382     82382     82380     82383     82384     82380     82383
     82384     82380     82382     82384     82380     82381     82386     82390     82391
     82387     82386     82389     82387     82386     82388     82388     82386     82389
     82390     82386     82389     82390     82386     82388     82390     82386     82387
     82392     82396     82397     82393     82392     82395     82393     82392     82394
     82394     82392     82395     82396     82392     82395     82396     82392     82394
     82396     82392     82393     82398     82402     82403     82399     82398     82401
     82399     82398     82400     82400     82398     82401     82402     82398     82401
     82402     82398     82400     82402     82398     82399     82404     82408     82409
     82405     82404     82407     82405     82404     82406     82406     82404     82407
     82408     82404     82407     82408     82404     82406     82408     82404     82405
     82410     82414     82415     82411     82410     82413     82411     82410     82412
     82412     82410     82413     82414     82410     82413     82414     82410     82412
     82414     82410     82411     82416     82420     82421     82417     82416     82419
     82417     82416     82418     82418     82416     82419     82420     82416     82419
     82420     82416     82418     82420     82416     82417     82422     82426     82427
     82423     82422     82425     82423     82422     82424     82424     82422     82425
     82426     82422     82425     82426     82422     82424     82426     82422     82423
     82428     82432     82433     82429     82428     82431     82429     82428     82430
     82430     82428     82431     82432     82428     82431     82432     82428     82430
     82432     82428     82429     82434     82438     82439     82435     82434     82437
     82435     82434     82436     82436     82434     82437     82438     82434     82437
     82438     82434     82436     82438     82434     82435     82440     82444     82445
     82441     82440     82443     82441     82440     82442     82442     82440     82443
     82444     82440     82443     82444     82440     82442     82444     82440     82441
     82446     82450     82451     82447     82446     82449     82447     82446     82448
     82448     82446     82449     82450     82446     82449     82450     82446     82448
     82450     82446     82447     82452     82456     82457     82453     82452     82455
     82453     82452     82454     82454     82452     82455     82456     82452     82455
     82456     82452     82454     82456     82452     82453     82458     82462     82463
     82459     82458     82461     82459     82458     82460     82460     82458     82461
     82462     82458     82461     82462     82458     82460     82462     82458     82459
     82464     82468     82469     82465     82464     82467     82465     82464     82466
     82466     82464     82467     82468     82464     82467     82468     82464     82466
     82468     82464     82465     82470     82474     82475     82471     82470     82473
     82471     82470     82472     82472     82470     82473     82474     82470     82473
     82474     82470     82472     82474     82470     82471     82476     82480     82481
     82477     82476     82479     82477     82476     82478     82478     82476     82479
     82480     82476     82479     82480     82476     82478     82480     82476     82477
     82482     82486     82487     82483     82482     82485     82483     82482     82484
     82484     82482     82485     82486     82482     82485     82486     82482     82484
     82486     82482     82483     82488     82492     82493     82489     82488     82491
     82489     82488     82490     82490     82488     82491     82492     82488     82491
     82492     82488     82490     82492     82488     82489     82494     82498     82499
     82495     82494     82497     82495     82494     82496     82496     82494     82497
     82498     82494     82497     82498     82494     82496     82498     82494     82495
     82500     82504     82505     82501     82500     82503     82501     82500     82502
     82502     82500     82503     82504     82500     82503     82504     82500     82502
     82504     82500     82501     82506     82510     82511     82507     82506     82509
     82507     82506     82508     82508     82506     82509     82510     82506     82509
     82510     82506     82508     82510     82506     82507     82512     82516     82517
     82513     82512     82515     82513     82512     82514     82514     82512     82515
     82516     82512     82515     82516     82512     82514     82516     82512     82513
     82518     82522     82523     82519     82518     82521     82519     82518     82520
     82520     82518     82521     82522     82518     82521     82522     82518     82520
     82522     82518     82519     82524     82528     82529     82525     82524     82527
     82525     82524     82526     82526     82524     82527     82528     82524     82527
     82528     82524     82526     82528     82524     82525     82530     82534     82535
     82531     82530     82533     82531     82530     82532     82532     82530     82533
     82534     82530     82533     82534     82530     82532     82534     82530     82531
     82536     82540     82541     82537     82536     82539     82537     82536     82538
     82538     82536     82539     82540     82536     82539     82540     82536     82538
     82540     82536     82537     82542     82546     82547     82543     82542     82545
     82543     82542     82544     82544     82542     82545     82546     82542     82545
     82546     82542     82544     82546     82542     82543     82548     82552     82553
     82549     82548     82551     82549     82548     82550     82550     82548     82551
     82552     82548     82551     82552     82548     82550     82552     82548     82549
     82554     82558     82559     82555     82554     82557     82555     82554     82556
     82556     82554     82557     82558     82554     82557     82558     82554     82556
     82558     82554     82555     82560     82564     82565     82561     82560     82563
     82561     82560     82562     82562     82560     82563     82564     82560     82563
     82564     82560     82562     82564     82560     82561     82566     82570     82571
     82567     82566     82569     82567     82566     82568     82568     82566     82569
     82570     82566     82569     82570     82566     82568     82570     82566     82567
     82572     82576     82577     82573     82572     82575     82573     82572     82574
     82574     82572     82575     82576     82572     82575     82576     82572     82574
     82576     82572     82573     82578     82582     82583     82579     82578     82581
     82579     82578     82580     82580     82578     82581     82582     82578     82581
     82582     82578     82580     82582     82578     82579     82584     82588     82589
     82585     82584     82587     82585     82584     82586     82586     82584     82587
     82588     82584     82587     82588     82584     82586     82588     82584     82585
     82590     82594     82595     82591     82590     82593     82591     82590     82592
     82592     82590     82593     82594     82590     82593     82594     82590     82592
     82594     82590     82591     82596     82600     82601     82597     82596     82599
     82597     82596     82598     82598     82596     82599     82600     82596     82599
     82600     82596     82598     82600     82596     82597     82602     82606     82607
     82603     82602     82605     82603     82602     82604     82604     82602     82605
     82606     82602     82605     82606     82602     82604     82606     82602     82603
     82608     82612     82613     82609     82608     82611     82609     82608     82610
     82610     82608     82611     82612     82608     82611     82612     82608     82610
     82612     82608     82609     82614     82618     82619     82615     82614     82617
     82615     82614     82616     82616     82614     82617     82618     82614     82617
     82618     82614     82616     82618     82614     82615     82620     82624     82625
     82621     82620     82623     82621     82620     82622     82622     82620     82623
     82624     82620     82623     82624     82620     82622     82624     82620     82621
     82626     82630     82631     82627     82626     82629     82627     82626     82628
     82628     82626     82629     82630     82626     82629     82630     82626     82628
     82630     82626     82627     82632     82636     82637     82633     82632     82635
     82633     82632     82634     82634     82632     82635     82636     82632     82635
     82636     82632     82634     82636     82632     82633     82638     82642     82643
     82639     82638     82641     82639     82638     82640     82640     82638     82641
     82642     82638     82641     82642     82638     82640     82642     82638     82639
     82644     82648     82649     82645     82644     82647     82645     82644     82646
     82646     82644     82647     82648     82644     82647     82648     82644     82646
     82648     82644     82645     82650     82654     82655     82651     82650     82653
     82651     82650     82652     82652     82650     82653     82654     82650     82653
     82654     82650     82652     82654     82650     82651     82656     82660     82661
     82657     82656     82659     82657     82656     82658     82658     82656     82659
     82660     82656     82659     82660     82656     82658     82660     82656     82657
     82662     82666     82667     82663     82662     82665     82663     82662     82664
     82664     82662     82665     82666     82662     82665     82666     82662     82664
     82666     82662     82663     82668     82672     82673     82669     82668     82671
     82669     82668     82670     82670     82668     82671     82672     82668     82671
     82672     82668     82670     82672     82668     82669     82674     82678     82679
     82675     82674     82677     82675     82674     82676     82676     82674     82677
     82678     82674     82677     82678     82674     82676     82678     82674     82675
     82680     82684     82685     82681     82680     82683     82681     82680     82682
     82682     82680     82683     82684     82680     82683     82684     82680     82682
     82684     82680     82681     82686     82690     82691     82687     82686     82689
     82687     82686     82688     82688     82686     82689     82690     82686     82689
     82690     82686     82688     82690     82686     82687     82692     82696     82697
     82693     82692     82695     82693     82692     82694     82694     82692     82695
     82696     82692     82695     82696     82692     82694     82696     82692     82693
     82698     82702     82703     82699     82698     82701     82699     82698     82700
     82700     82698     82701     82702     82698     82701     82702     82698     82700
     82702     82698     82699     82704     82708     82709     82705     82704     82707
     82705     82704     82706     82706     82704     82707     82708     82704     82707
     82708     82704     82706     82708     82704     82705     82710     82714     82715
     82711     82710     82713     82711     82710     82712     82712     82710     82713
     82714     82710     82713     82714     82710     82712     82714     82710     82711
     82716     82720     82721     82717     82716     82719     82717     82716     82718
     82718     82716     82719     82720     82716     82719     82720     82716     82718
     82720     82716     82717     82722     82726     82727     82723     82722     82725
     82723     82722     82724     82724     82722     82725     82726     82722     82725
     82726     82722     82724     82726     82722     82723     82728     82732     82733
     82729     82728     82731     82729     82728     82730     82730     82728     82731
     82732     82728     82731     82732     82728     82730     82732     82728     82729
     82734     82738     82739     82735     82734     82737     82735     82734     82736
     82736     82734     82737     82738     82734     82737     82738     82734     82736
     82738     82734     82735     82740     82744     82745     82741     82740     82743
     82741     82740     82742     82742     82740     82743     82744     82740     82743
     82744     82740     82742     82744     82740     82741     82746     82750     82751
     82747     82746     82749     82747     82746     82748     82748     82746     82749
     82750     82746     82749     82750     82746     82748     82750     82746     82747
     82752     82756     82757     82753     82752     82755     82753     82752     82754
     82754     82752     82755     82756     82752     82755     82756     82752     82754
     82756     82752     82753     82758     82762     82763     82759     82758     82761
     82759     82758     82760     82760     82758     82761     82762     82758     82761
     82762     82758     82760     82762     82758     82759     82764     82768     82769
     82765     82764     82767     82765     82764     82766     82766     82764     82767
     82768     82764     82767     82768     82764     82766     82768     82764     82765
     82770     82774     82775     82771     82770     82773     82771     82770     82772
     82772     82770     82773     82774     82770     82773     82774     82770     82772
     82774     82770     82771     82776     82780     82781     82777     82776     82779
     82777     82776     82778     82778     82776     82779     82780     82776     82779
     82780     82776     82778     82780     82776     82777     82782     82786     82787
     82783     82782     82785     82783     82782     82784     82784     82782     82785
     82786     82782     82785     82786     82782     82784     82786     82782     82783
     82788     82792     82793     82789     82788     82791     82789     82788     82790
     82790     82788     82791     82792     82788     82791     82792     82788     82790
     82792     82788     82789     82794     82798     82799     82795     82794     82797
     82795     82794     82796     82796     82794     82797     82798     82794     82797
     82798     82794     82796     82798     82794     82795     82800     82804     82805
     82801     82800     82803     82801     82800     82802     82802     82800     82803
     82804     82800     82803     82804     82800     82802     82804     82800     82801
     82806     82810     82811     82807     82806     82809     82807     82806     82808
     82808     82806     82809     82810     82806     82809     82810     82806     82808
     82810     82806     82807     82812     82816     82817     82813     82812     82815
     82813     82812     82814     82814     82812     82815     82816     82812     82815
     82816     82812     82814     82816     82812     82813     82818     82822     82823
     82819     82818     82821     82819     82818     82820     82820     82818     82821
     82822     82818     82821     82822     82818     82820     82822     82818     82819
     82824     82828     82829     82825     82824     82827     82825     82824     82826
     82826     82824     82827     82828     82824     82827     82828     82824     82826
     82828     82824     82825     82830     82834     82835     82831     82830     82833
     82831     82830     82832     82832     82830     82833     82834     82830     82833
     82834     82830     82832     82834     82830     82831     82836     82840     82841
     82837     82836     82839     82837     82836     82838     82838     82836     82839
     82840     82836     82839     82840     82836     82838     82840     82836     82837
     82842     82846     82847     82843     82842     82845     82843     82842     82844
     82844     82842     82845     82846     82842     82845     82846     82842     82844
     82846     82842     82843     82848     82852     82853     82849     82848     82851
     82849     82848     82850     82850     82848     82851     82852     82848     82851
     82852     82848     82850     82852     82848     82849     82854     82858     82859
     82855     82854     82857     82855     82854     82856     82856     82854     82857
     82858     82854     82857     82858     82854     82856     82858     82854     82855
     82860     82864     82865     82861     82860     82863     82861     82860     82862
     82862     82860     82863     82864     82860     82863     82864     82860     82862
     82864     82860     82861     82866     82870     82871     82867     82866     82869
     82867     82866     82868     82868     82866     82869     82870     82866     82869
     82870     82866     82868     82870     82866     82867     82872     82876     82877
     82873     82872     82875     82873     82872     82874     82874     82872     82875
     82876     82872     82875     82876     82872     82874     82876     82872     82873
     82878     82882     82883     82879     82878     82881     82879     82878     82880
     82880     82878     82881     82882     82878     82881     82882     82878     82880
     82882     82878     82879     82884     82888     82889     82885     82884     82887
     82885     82884     82886     82886     82884     82887     82888     82884     82887
     82888     82884     82886     82888     82884     82885     82890     82894     82895
     82891     82890     82893     82891     82890     82892     82892     82890     82893
     82894     82890     82893     82894     82890     82892     82894     82890     82891
     82896     82900     82901     82897     82896     82899     82897     82896     82898
     82898     82896     82899     82900     82896     82899     82900     82896     82898
     82900     82896     82897     82902     82906     82907     82903     82902     82905
     82903     82902     82904     82904     82902     82905     82906     82902     82905
     82906     82902     82904     82906     82902     82903     82908     82912     82913
     82909     82908     82911     82909     82908     82910     82910     82908     82911
     82912     82908     82911     82912     82908     82910     82912     82908     82909
     82914     82918     82919     82915     82914     82917     82915     82914     82916
     82916     82914     82917     82918     82914     82917     82918     82914     82916
     82918     82914     82915     82920     82924     82925     82921     82920     82923
     82921     82920     82922     82922     82920     82923     82924     82920     82923
     82924     82920     82922     82924     82920     82921     82926     82930     82931
     82927     82926     82929     82927     82926     82928     82928     82926     82929
     82930     82926     82929     82930     82926     82928     82930     82926     82927
     82932     82936     82937     82933     82932     82935     82933     82932     82934
     82934     82932     82935     82936     82932     82935     82936     82932     82934
     82936     82932     82933     82938     82942     82943     82939     82938     82941
     82939     82938     82940     82940     82938     82941     82942     82938     82941
     82942     82938     82940     82942     82938     82939     82944     82948     82949
     82945     82944     82947     82945     82944     82946     82946     82944     82947
     82948     82944     82947     82948     82944     82946     82948     82944     82945
     82950     82954     82955     82951     82950     82953     82951     82950     82952
     82952     82950     82953     82954     82950     82953     82954     82950     82952
     82954     82950     82951     82956     82960     82961     82957     82956     82959
     82957     82956     82958     82958     82956     82959     82960     82956     82959
     82960     82956     82958     82960     82956     82957     82962     82966     82967
     82963     82962     82965     82963     82962     82964     82964     82962     82965
     82966     82962     82965     82966     82962     82964     82966     82962     82963
     82968     82972     82973     82969     82968     82971     82969     82968     82970
     82970     82968     82971     82972     82968     82971     82972     82968     82970
     82972     82968     82969     82974     82978     82979     82975     82974     82977
     82975     82974     82976     82976     82974     82977     82978     82974     82977
     82978     82974     82976     82978     82974     82975     82980     82984     82985
     82981     82980     82983     82981     82980     82982     82982     82980     82983
     82984     82980     82983     82984     82980     82982     82984     82980     82981
     82986     82990     82991     82987     82986     82989     82987     82986     82988
     82988     82986     82989     82990     82986     82989     82990     82986     82988
     82990     82986     82987     82992     82996     82997     82993     82992     82995
     82993     82992     82994     82994     82992     82995     82996     82992     82995
     82996     82992     82994     82996     82992     82993     82998     83002     83003
     82999     82998     83001     82999     82998     83000     83000     82998     83001
     83002     82998     83001     83002     82998     83000     83002     82998     82999
     83004     83008     83009     83005     83004     83007     83005     83004     83006
     83006     83004     83007     83008     83004     83007     83008     83004     83006
     83008     83004     83005     83010     83014     83015     83011     83010     83013
     83011     83010     83012     83012     83010     83013     83014     83010     83013
     83014     83010     83012     83014     83010     83011     83016     83020     83021
     83017     83016     83019     83017     83016     83018     83018     83016     83019
     83020     83016     83019     83020     83016     83018     83020     83016     83017
     83022     83026     83027     83023     83022     83025     83023     83022     83024
     83024     83022     83025     83026     83022     83025     83026     83022     83024
     83026     83022     83023     83028     83032     83033     83029     83028     83031
     83029     83028     83030     83030     83028     83031     83032     83028     83031
     83032     83028     83030     83032     83028     83029     83034     83038     83039
     83035     83034     83037     83035     83034     83036     83036     83034     83037
     83038     83034     83037     83038     83034     83036     83038     83034     83035
     83040     83044     83045     83041     83040     83043     83041     83040     83042
     83042     83040     83043     83044     83040     83043     83044     83040     83042
     83044     83040     83041     83046     83050     83051     83047     83046     83049
     83047     83046     83048     83048     83046     83049     83050     83046     83049
     83050     83046     83048     83050     83046     83047     83052     83056     83057
     83053     83052     83055     83053     83052     83054     83054     83052     83055
     83056     83052     83055     83056     83052     83054     83056     83052     83053
     83058     83062     83063     83059     83058     83061     83059     83058     83060
     83060     83058     83061     83062     83058     83061     83062     83058     83060
     83062     83058     83059     83064     83068     83069     83065     83064     83067
     83065     83064     83066     83066     83064     83067     83068     83064     83067
     83068     83064     83066     83068     83064     83065     83070     83074     83075
     83071     83070     83073     83071     83070     83072     83072     83070     83073
     83074     83070     83073     83074     83070     83072     83074     83070     83071
     83076     83080     83081     83077     83076     83079     83077     83076     83078
     83078     83076     83079     83080     83076     83079     83080     83076     83078
     83080     83076     83077     83082     83086     83087     83083     83082     83085
     83083     83082     83084     83084     83082     83085     83086     83082     83085
     83086     83082     83084     83086     83082     83083     83088     83092     83093
     83089     83088     83091     83089     83088     83090     83090     83088     83091
     83092     83088     83091     83092     83088     83090     83092     83088     83089
     83094     83098     83099     83095     83094     83097     83095     83094     83096
     83096     83094     83097     83098     83094     83097     83098     83094     83096
     83098     83094     83095     83100     83104     83105     83101     83100     83103
     83101     83100     83102     83102     83100     83103     83104     83100     83103
     83104     83100     83102     83104     83100     83101     83106     83110     83111
     83107     83106     83109     83107     83106     83108     83108     83106     83109
     83110     83106     83109     83110     83106     83108     83110     83106     83107
     83112     83116     83117     83113     83112     83115     83113     83112     83114
     83114     83112     83115     83116     83112     83115     83116     83112     83114
     83116     83112     83113     83118     83122     83123     83119     83118     83121
     83119     83118     83120     83120     83118     83121     83122     83118     83121
     83122     83118     83120     83122     83118     83119     83124     83128     83129
     83125     83124     83127     83125     83124     83126     83126     83124     83127
     83128     83124     83127     83128     83124     83126     83128     83124     83125
     83130     83134     83135     83131     83130     83133     83131     83130     83132
     83132     83130     83133     83134     83130     83133     83134     83130     83132
     83134     83130     83131     83136     83140     83141     83137     83136     83139
     83137     83136     83138     83138     83136     83139     83140     83136     83139
     83140     83136     83138     83140     83136     83137     83142     83146     83147
     83143     83142     83145     83143     83142     83144     83144     83142     83145
     83146     83142     83145     83146     83142     83144     83146     83142     83143
     83148     83152     83153     83149     83148     83151     83149     83148     83150
     83150     83148     83151     83152     83148     83151     83152     83148     83150
     83152     83148     83149     83154     83158     83159     83155     83154     83157
     83155     83154     83156     83156     83154     83157     83158     83154     83157
     83158     83154     83156     83158     83154     83155     83160     83164     83165
     83161     83160     83163     83161     83160     83162     83162     83160     83163
     83164     83160     83163     83164     83160     83162     83164     83160     83161
     83166     83170     83171     83167     83166     83169     83167     83166     83168
     83168     83166     83169     83170     83166     83169     83170     83166     83168
     83170     83166     83167     83172     83176     83177     83173     83172     83175
     83173     83172     83174     83174     83172     83175     83176     83172     83175
     83176     83172     83174     83176     83172     83173     83178     83182     83183
     83179     83178     83181     83179     83178     83180     83180     83178     83181
     83182     83178     83181     83182     83178     83180     83182     83178     83179
     83184     83188     83189     83185     83184     83187     83185     83184     83186
     83186     83184     83187     83188     83184     83187     83188     83184     83186
     83188     83184     83185     83190     83194     83195     83191     83190     83193
     83191     83190     83192     83192     83190     83193     83194     83190     83193
     83194     83190     83192     83194     83190     83191     83196     83200     83201
     83197     83196     83199     83197     83196     83198     83198     83196     83199
     83200     83196     83199     83200     83196     83198     83200     83196     83197
     83202     83206     83207     83203     83202     83205     83203     83202     83204
     83204     83202     83205     83206     83202     83205     83206     83202     83204
     83206     83202     83203     83208     83212     83213     83209     83208     83211
     83209     83208     83210     83210     83208     83211     83212     83208     83211
     83212     83208     83210     83212     83208     83209     83214     83218     83219
     83215     83214     83217     83215     83214     83216     83216     83214     83217
     83218     83214     83217     83218     83214     83216     83218     83214     83215
     83220     83224     83225     83221     83220     83223     83221     83220     83222
     83222     83220     83223     83224     83220     83223     83224     83220     83222
     83224     83220     83221     83226     83230     83231     83227     83226     83229
     83227     83226     83228     83228     83226     83229     83230     83226     83229
     83230     83226     83228     83230     83226     83227     83232     83236     83237
     83233     83232     83235     83233     83232     83234     83234     83232     83235
     83236     83232     83235     83236     83232     83234     83236     83232     83233
     83238     83242     83243     83239     83238     83241     83239     83238     83240
     83240     83238     83241     83242     83238     83241     83242     83238     83240
     83242     83238     83239     83244     83248     83249     83245     83244     83247
     83245     83244     83246     83246     83244     83247     83248     83244     83247
     83248     83244     83246     83248     83244     83245     83250     83254     83255
     83251     83250     83253     83251     83250     83252     83252     83250     83253
     83254     83250     83253     83254     83250     83252     83254     83250     83251
     83256     83260     83261     83257     83256     83259     83257     83256     83258
     83258     83256     83259     83260     83256     83259     83260     83256     83258
     83260     83256     83257     83262     83266     83267     83263     83262     83265
     83263     83262     83264     83264     83262     83265     83266     83262     83265
     83266     83262     83264     83266     83262     83263     83268     83272     83273
     83269     83268     83271     83269     83268     83270     83270     83268     83271
     83272     83268     83271     83272     83268     83270     83272     83268     83269
     83274     83278     83279     83275     83274     83277     83275     83274     83276
     83276     83274     83277     83278     83274     83277     83278     83274     83276
     83278     83274     83275     83280     83284     83285     83281     83280     83283
     83281     83280     83282     83282     83280     83283     83284     83280     83283
     83284     83280     83282     83284     83280     83281     83286     83290     83291
     83287     83286     83289     83287     83286     83288     83288     83286     83289
     83290     83286     83289     83290     83286     83288     83290     83286     83287
     83292     83296     83297     83293     83292     83295     83293     83292     83294
     83294     83292     83295     83296     83292     83295     83296     83292     83294
     83296     83292     83293     83298     83302     83303     83299     83298     83301
     83299     83298     83300     83300     83298     83301     83302     83298     83301
     83302     83298     83300     83302     83298     83299     83304     83308     83309
     83305     83304     83307     83305     83304     83306     83306     83304     83307
     83308     83304     83307     83308     83304     83306     83308     83304     83305
     83310     83314     83315     83311     83310     83313     83311     83310     83312
     83312     83310     83313     83314     83310     83313     83314     83310     83312
     83314     83310     83311     83316     83320     83321     83317     83316     83319
     83317     83316     83318     83318     83316     83319     83320     83316     83319
     83320     83316     83318     83320     83316     83317     83322     83326     83327
     83323     83322     83325     83323     83322     83324     83324     83322     83325
     83326     83322     83325     83326     83322     83324     83326     83322     83323
     83328     83332     83333     83329     83328     83331     83329     83328     83330
     83330     83328     83331     83332     83328     83331     83332     83328     83330
     83332     83328     83329     83334     83338     83339     83335     83334     83337
     83335     83334     83336     83336     83334     83337     83338     83334     83337
     83338     83334     83336     83338     83334     83335     83340     83344     83345
     83341     83340     83343     83341     83340     83342     83342     83340     83343
     83344     83340     83343     83344     83340     83342     83344     83340     83341
     83346     83350     83351     83347     83346     83349     83347     83346     83348
     83348     83346     83349     83350     83346     83349     83350     83346     83348
     83350     83346     83347     83352     83356     83357     83353     83352     83355
     83353     83352     83354     83354     83352     83355     83356     83352     83355
     83356     83352     83354     83356     83352     83353     83358     83362     83363
     83359     83358     83361     83359     83358     83360     83360     83358     83361
     83362     83358     83361     83362     83358     83360     83362     83358     83359
     83364     83368     83369     83365     83364     83367     83365     83364     83366
     83366     83364     83367     83368     83364     83367     83368     83364     83366
     83368     83364     83365     83370     83374     83375     83371     83370     83373
     83371     83370     83372     83372     83370     83373     83374     83370     83373
     83374     83370     83372     83374     83370     83371     83376     83380     83381
     83377     83376     83379     83377     83376     83378     83378     83376     83379
     83380     83376     83379     83380     83376     83378     83380     83376     83377
     83382     83386     83387     83383     83382     83385     83383     83382     83384
     83384     83382     83385     83386     83382     83385     83386     83382     83384
     83386     83382     83383     83388     83392     83393     83389     83388     83391
     83389     83388     83390     83390     83388     83391     83392     83388     83391
     83392     83388     83390     83392     83388     83389     83394     83398     83399
     83395     83394     83397     83395     83394     83396     83396     83394     83397
     83398     83394     83397     83398     83394     83396     83398     83394     83395
     83400     83404     83405     83401     83400     83403     83401     83400     83402
     83402     83400     83403     83404     83400     83403     83404     83400     83402
     83404     83400     83401     83406     83410     83411     83407     83406     83409
     83407     83406     83408     83408     83406     83409     83410     83406     83409
     83410     83406     83408     83410     83406     83407     83412     83416     83417
     83413     83412     83415     83413     83412     83414     83414     83412     83415
     83416     83412     83415     83416     83412     83414     83416     83412     83413
     83418     83422     83423     83419     83418     83421     83419     83418     83420
     83420     83418     83421     83422     83418     83421     83422     83418     83420
     83422     83418     83419     83424     83428     83429     83425     83424     83427
     83425     83424     83426     83426     83424     83427     83428     83424     83427
     83428     83424     83426     83428     83424     83425     83430     83434     83435
     83431     83430     83433     83431     83430     83432     83432     83430     83433
     83434     83430     83433     83434     83430     83432     83434     83430     83431
     83436     83440     83441     83437     83436     83439     83437     83436     83438
     83438     83436     83439     83440     83436     83439     83440     83436     83438
     83440     83436     83437     83442     83446     83447     83443     83442     83445
     83443     83442     83444     83444     83442     83445     83446     83442     83445
     83446     83442     83444     83446     83442     83443     83448     83452     83453
     83449     83448     83451     83449     83448     83450     83450     83448     83451
     83452     83448     83451     83452     83448     83450     83452     83448     83449
     83454     83458     83459     83455     83454     83457     83455     83454     83456
     83456     83454     83457     83458     83454     83457     83458     83454     83456
     83458     83454     83455     83460     83464     83465     83461     83460     83463
     83461     83460     83462     83462     83460     83463     83464     83460     83463
     83464     83460     83462     83464     83460     83461     83466     83470     83471
     83467     83466     83469     83467     83466     83468     83468     83466     83469
     83470     83466     83469     83470     83466     83468     83470     83466     83467

   66241 !NPHI: dihedrals
         1         2         3         4         1         6         7         4
         1         6         7         8         2         1         6         5
         2         1         6         7         2         3         4         7
         2         3         4       181         3         4         7         6
         3         4         7         8         3         4       181       182
         3         4       181       186         4         7         8        11
         4         7         8       185         4       181       182       183
         4       181       186       185         4       181       186       187
         5         6         7         4         5         6         7         8
         5        10        11         8         5        10        11        12
         6         1         2         3         6         5        10         9
         6         5        10        11         6         7         8        11
         6         7         8       185         7         4       181       182
         7         4       181       186         7         8        11        10
         7         8        11        12         7         8       185       186
         7         8       185       190         8        11        12        15
         8        11        12       189         8       185       186       181
         8       185       186       187         8       185       190       189
         8       185       190       191         9        10        11         8
         9        10        11        12         9        14        15        12
         9        14        15        16        10         5         6         1
        10         5         6         7        10         9        14        13
        10         9        14        15        10        11        12        15
        10        11        12       189        11         8       185       186
        11         8       185       190        11        12        15        14
        11        12        15        16        11        12       189       194
        11        12       189       190        12        15        16        19
        12        15        16       193        12       189       194       193
        12       189       194       195        12       189       190       185
        12       189       190       191        13        14        15        12
        13        14        15        16        13        18        19        16
        13        18        19        20        14         9        10         5
        14         9        10        11        14        13        18        17
        14        13        18        19        14        15        16        19
        14        15        16       193        15        12       189       194
        15        12       189       190        15        16        19        18
        15        16        19        20        15        16       193       198
        15        16       193       194        16        19        20        23
        16        19        20       197        16       193       198       197
        16       193       198       199        16       193       194       189
        16       193       194       195        17        18        19        16
        17        18        19        20        17        22        23        20
        17        22        23        24        18        13        14         9
        18        13        14        15        18        17        22        21
        18        17        22        23        18        19        20        23
        18        19        20       197        19        16       193       198
        19        16       193       194        19        20        23        22
        19        20        23        24        19        20       197       202
        19        20       197       198        20        23        24        27
        20        23        24       201        20       197       202       201
        20       197       202       203        20       197       198       193
        20       197       198       199        21        22        23        20
        21        22        23        24        21        26        27        24
        21        26        27        28        22        17        18        13
        22        17        18        19        22        21        26        25
        22        21        26        27        22        23        24        27
        22        23        24       201        23        20       197       202
        23        20       197       198        23        24        27        26
        23        24        27        28        23        24       201       202
        23        24       201       206        24        27        28        31
        24        27        28       205        24       201       202       197
        24       201       202       203        24       201       206       205
        24       201       206       207        25        26        27        24
        25        26        27        28        25        30        31        28
        25        30        31        32        26        21        22        17
        26        21        22        23        26        25        30        29
        26        25        30        31        26        27        28        31
        26        27        28       205        27        24       201       202
        27        24       201       206        27        28        31        30
        27        28        31        32        27        28       205       206
        27        28       205       210        28        31        32        35
        28        31        32       209        28       205       206       201
        28       205       206       207        28       205       210       209
        28       205       210       211        29        30        31        28
        29        30        31        32        29        34        35        32
        29        34        35        36        30        25        26        21
        30        25        26        27        30        29        34        33
        30        29        34        35        30        31        32        35
        30        31        32       209        31        28       205       206
        31        28       205       210        31        32        35        34
        31        32        35        36        31        32       209       214
        31        32       209       210        32        35        36        39
        32        35        36       213        32       209       214       213
        32       209       214       215        32       209       210       205
        32       209       210       211        33        34        35        32
        33        34        35        36        33        38        39        36
        33        38        39        40        34        29        30        25
        34        29        30        31        34        33        38        37
        34        33        38        39        34        35        36        39
        34        35        36       213        35        32       209       214
        35        32       209       210        35        36        39        38
        35        36        39        40        35        36       213       218
        35        36       213       214        36        39        40        43
        36        39        40       217        36       213       218       217
        36       213       218       219        36       213       214       209
        36       213       214       215        37        38        39        36
        37        38        39        40        37        42        43        40
        37        42        43        44        38        33        34        29
        38        33        34        35        38        37        42        41
        38        37        42        43        38        39        40        43
        38        39        40       217        39        36       213       218
        39        36       213       214        39        40        43        42
        39        40        43        44        39        40       217       222
        39        40       217       218        40        43        44        47
        40        43        44       221        40       217       222       221
        40       217       222       223        40       217       218       213
        40       217       218       219        41        42        43        40
        41        42        43        44        41        46        47        44
        41        46        47        48        42        37        38        33
        42        37        38        39        42        41        46        45
        42        41        46        47        42        43        44        47
        42        43        44       221        43        40       217       222
        43        40       217       218        43        44        47        46
        43        44        47        48        43        44       221       222
        43        44       221       226        44        47        48        51
        44        47        48       225        44       221       222       217
        44       221       222       223        44       221       226       225
        44       221       226       227        45        46        47        44
        45        46        47        48        45        50        51        48
        45        50        51        52        46        41        42        37
        46        41        42        43        46        45        50        49
        46        45        50        51        46        47        48        51
        46        47        48       225        47        44       221       222
        47        44       221       226        47        48        51        50
        47        48        51        52        47        48       225       226
        47        48       225       230        48        51        52        55
        48        51        52       229        48       225       226       221
        48       225       226       227        48       225       230       229
        48       225       230       231        49        50        51        48
        49        50        51        52        49        54        55        52
        49        54        55        56        50        45        46        41
        50        45        46        47        50        49        54        53
        50        49        54        55        50        51        52        55
        50        51        52       229        51        48       225       226
        51        48       225       230        51        52        55        54
        51        52        55        56        51        52       229       234
        51        52       229       230        52        55        56        59
        52        55        56       233        52       229       234       233
        52       229       234       235        52       229       230       225
        52       229       230       231        53        54        55        52
        53        54        55        56        53        58        59        56
        53        58        59        60        54        49        50        45
        54        49        50        51        54        53        58        57
        54        53        58        59        54        55        56        59
        54        55        56       233        55        52       229       234
        55        52       229       230        55        56        59        58
        55        56        59        60        55        56       233       238
        55        56       233       234        56        59        60        63
        56        59        60       237        56       233       238       237
        56       233       238       239        56       233       234       229
        56       233       234       235        57        58        59        56
        57        58        59        60        57        62        63        60
        57        62        63        64        58        53        54        49
        58        53        54        55        58        57        62        61
        58        57        62        63        58        59        60        63
        58        59        60       237        59        56       233       238
        59        56       233       234        59        60        63        62
        59        60        63        64        59        60       237       242
        59        60       237       238        60        63        64        67
        60        63        64       241        60       237       242       241
        60       237       242       243        60       237       238       233
        60       237       238       239        61        62        63        60
        61        62        63        64        61        66        67        64
        61        66        67        68        62        57        58        53
        62        57        58        59        62        61        66        65
        62        61        66        67        62        63        64        67
        62        63        64       241        63        60       237       242
        63        60       237       238        63        64        67        66
        63        64        67        68        63        64       241       242
        63        64       241       246        64        67        68        71
        64        67        68       245        64       241       242       237
        64       241       242       243        64       241       246       245
        64       241       246       247        65        66        67        64
        65        66        67        68        65        70        71        68
        65        70        71        72        66        61        62        57
        66        61        62        63        66        65        70        69
        66        65        70        71        66        67        68        71
        66        67        68       245        67        64       241       242
        67        64       241       246        67        68        71        70
        67        68        71        72        67        68       245       246
        67        68       245       250        68        71        72        75
        68        71        72       249        68       245       246       241
        68       245       246       247        68       245       250       249
        68       245       250       251        69        70        71        68
        69        70        71        72        69        74        75        72
        69        74        75        76        70        65        66        61
        70        65        66        67        70        69        74        73
        70        69        74        75        70        71        72        75
        70        71        72       249        71        68       245       246
        71        68       245       250        71        72        75        74
        71        72        75        76        71        72       249       254
        71        72       249       250        72        75        76        79
        72        75        76       253        72       249       254       253
        72       249       254       255        72       249       250       245
        72       249       250       251        73        74        75        72
        73        74        75        76        73        78        79        76
        73        78        79        80        74        69        70        65
        74        69        70        71        74        73        78        77
        74        73        78        79        74        75        76        79
        74        75        76       253        75        72       249       254
        75        72       249       250        75        76        79        78
        75        76        79        80        75        76       253       258
        75        76       253       254        76        79        80        83
        76        79        80       257        76       253       258       257
        76       253       258       259        76       253       254       249
        76       253       254       255        77        78        79        76
        77        78        79        80        77        82        83        80
        77        82        83        84        78        73        74        69
        78        73        74        75        78        77        82        81
        78        77        82        83        78        79        80        83
        78        79        80       257        79        76       253       258
        79        76       253       254        79        80        83        82
        79        80        83        84        79        80       257       262
        79        80       257       258        80        83        84        87
        80        83        84       261        80       257       262       261
        80       257       262       263        80       257       258       253
        80       257       258       259        81        82        83        80
        81        82        83        84        81        86        87        84
        81        86        87        88        82        77        78        73
        82        77        78        79        82        81        86        85
        82        81        86        87        82        83        84        87
        82        83        84       261        83        80       257       262
        83        80       257       258        83        84        87        86
        83        84        87        88        83        84       261       262
        83        84       261       266        84        87        88        91
        84        87        88       265        84       261       262       257
        84       261       262       263        84       261       266       265
        84       261       266       267        85        86        87        84
        85        86        87        88        85        90        91        88
        85        90        91        92        86        81        82        77
        86        81        82        83        86        85        90        89
        86        85        90        91        86        87        88        91
        86        87        88       265        87        84       261       262
        87        84       261       266        87        88        91        90
        87        88        91        92        87        88       265       266
        87        88       265       270        88        91        92        95
        88        91        92       269        88       265       266       261
        88       265       266       267        88       265       270       269
        88       265       270       271        89        90        91        88
        89        90        91        92        89        94        95        92
        89        94        95        96        90        85        86        81
        90        85        86        87        90        89        94        93
        90        89        94        95        90        91        92        95
        90        91        92       269        91        88       265       266
        91        88       265       270        91        92        95        94
        91        92        95        96        91        92       269       274
        91        92       269       270        92        95        96        99
        92        95        96       273        92       269       274       273
        92       269       274       275        92       269       270       265
        92       269       270       271        93        94        95        92
        93        94        95        96        93        98        99        96
        93        98        99       100        94        89        90        85
        94        89        90        91        94        93        98        97
        94        93        98        99        94        95        96        99
        94        95        96       273        95        92       269       274
        95        92       269       270        95        96        99        98
        95        96        99       100        95        96       273       278
        95        96       273       274        96        99       100       103
        96        99       100       277        96       273       278       277
        96       273       278       279        96       273       274       269
        96       273       274       275        97        98        99        96
        97        98        99       100        97       102       103       100
        97       102       103       104        98        93        94        89
        98        93        94        95        98        97       102       101
        98        97       102       103        98        99       100       103
        98        99       100       277        99        96       273       278
        99        96       273       274        99       100       103       102
        99       100       103       104        99       100       277       282
        99       100       277       278       100       103       104       107
       100       103       104       281       100       277       282       281
       100       277       282       283       100       277       278       273
       100       277       278       279       101       102       103       100
       101       102       103       104       101       106       107       104
       101       106       107       108       102        97        98        93
       102        97        98        99       102       101       106       105
       102       101       106       107       102       103       104       107
       102       103       104       281       103       100       277       282
       103       100       277       278       103       104       107       106
       103       104       107       108       103       104       281       282
       103       104       281       286       104       107       108       111
       104       107       108       285       104       281       282       277
       104       281       282       283       104       281       286       285
       104       281       286       287       105       106       107       104
       105       106       107       108       105       110       111       108
       105       110       111       112       106       101       102        97
       106       101       102       103       106       105       110       109
       106       105       110       111       106       107       108       111
       106       107       108       285       107       104       281       282
       107       104       281       286       107       108       111       110
       107       108       111       112       107       108       285       286
       107       108       285       290       108       111       112       115
       108       111       112       289       108       285       286       281
       108       285       286       287       108       285       290       289
       108       285       290       291       109       110       111       108
       109       110       111       112       109       114       115       112
       109       114       115       116       110       105       106       101
       110       105       106       107       110       109       114       113
       110       109       114       115       110       111       112       115
       110       111       112       289       111       108       285       286
       111       108       285       290       111       112       115       114
       111       112       115       116       111       112       289       294
       111       112       289       290       112       115       116       119
       112       115       116       293       112       289       294       293
       112       289       294       295       112       289       290       285
       112       289       290       291       113       114       115       112
       113       114       115       116       113       118       119       116
       113       118       119       120       114       109       110       105
       114       109       110       111       114       113       118       117
       114       113       118       119       114       115       116       119
       114       115       116       293       115       112       289       294
       115       112       289       290       115       116       119       118
       115       116       119       120       115       116       293       298
       115       116       293       294       116       119       120       123
       116       119       120       297       116       293       298       297
       116       293       298       299       116       293       294       289
       116       293       294       295       117       118       119       116
       117       118       119       120       117       122       123       120
       117       122       123       124       118       113       114       109
       118       113       114       115       118       117       122       121
       118       117       122       123       118       119       120       123
       118       119       120       297       119       116       293       298
       119       116       293       294       119       120       123       122
       119       120       123       124       119       120       297       302
       119       120       297       298       120       123       124       127
       120       123       124       301       120       297       302       301
       120       297       302       303       120       297       298       293
       120       297       298       299       121       122       123       120
       121       122       123       124       121       126       127       124
       121       126       127       128       122       117       118       113
       122       117       118       119       122       121       126       125
       122       121       126       127       122       123       124       127
       122       123       124       301       123       120       297       302
       123       120       297       298       123       124       127       126
       123       124       127       128       123       124       301       302
       123       124       301       306       124       127       128       131
       124       127       128       305       124       301       302       297
       124       301       302       303       124       301       306       305
       124       301       306       307       125       126       127       124
       125       126       127       128       125       130       131       128
       125       130       131       132       126       121       122       117
       126       121       122       123       126       125       130       129
       126       125       130       131       126       127       128       131
       126       127       128       305       127       124       301       302
       127       124       301       306       127       128       131       130
       127       128       131       132       127       128       305       306
       127       128       305       310       128       131       132       135
       128       131       132       309       128       305       306       301
       128       305       306       307       128       305       310       309
       128       305       310       311       129       130       131       128
       129       130       131       132       129       134       135       132
       129       134       135       136       130       125       126       121
       130       125       126       127       130       129       134       133
       130       129       134       135       130       131       132       135
       130       131       132       309       131       128       305       306
       131       128       305       310       131       132       135       134
       131       132       135       136       131       132       309       314
       131       132       309       310       132       135       136       139
       132       135       136       313       132       309       314       313
       132       309       314       315       132       309       310       305
       132       309       310       311       133       134       135       132
       133       134       135       136       133       138       139       136
       133       138       139       140       134       129       130       125
       134       129       130       131       134       133       138       137
       134       133       138       139       134       135       136       139
       134       135       136       313       135       132       309       314
       135       132       309       310       135       136       139       138
       135       136       139       140       135       136       313       318
       135       136       313       314       136       139       140       143
       136       139       140       317       136       313       318       317
       136       313       318       319       136       313       314       309
       136       313       314       315       137       138       139       136
       137       138       139       140       137       142       143       140
       137       142       143       144       138       133       134       129
       138       133       134       135       138       137       142       141
       138       137       142       143       138       139       140       143
       138       139       140       317       139       136       313       318
       139       136       313       314       139       140       143       142
       139       140       143       144       139       140       317       322
       139       140       317       318       140       143       144       147
       140       143       144       321       140       317       322       321
       140       317       322       323       140       317       318       313
       140       317       318       319       141       142       143       140
       141       142       143       144       141       146       147       144
       141       146       147       148       142       137       138       133
       142       137       138       139       142       141       146       145
       142       141       146       147       142       143       144       147
       142       143       144       321       143       140       317       322
       143       140       317       318       143       144       147       146
       143       144       147       148       143       144       321       322
       143       144       321       326       144       147       148       151
       144       147       148       325       144       321       322       317
       144       321       322       323       144       321       326       325
       144       321       326       327       145       146       147       144
       145       146       147       148       145       150       151       148
       145       150       151       152       146       141       142       137
       146       141       142       143       146       145       150       149
       146       145       150       151       146       147       148       151
       146       147       148       325       147       144       321       322
       147       144       321       326       147       148       151       150
       147       148       151       152       147       148       325       326
       147       148       325       330       148       151       152       155
       148       151       152       329       148       325       326       321
       148       325       326       327       148       325       330       329
       148       325       330       331       149       150       151       148
       149       150       151       152       149       154       155       152
       149       154       155       156       150       145       146       141
       150       145       146       147       150       149       154       153
       150       149       154       155       150       151       152       155
       150       151       152       329       151       148       325       326
       151       148       325       330       151       152       155       154
       151       152       155       156       151       152       329       334
       151       152       329       330       152       155       156       159
       152       155       156       333       152       329       334       333
       152       329       334       335       152       329       330       325
       152       329       330       331       153       154       155       152
       153       154       155       156       153       158       159       156
       153       158       159       160       154       149       150       145
       154       149       150       151       154       153       158       157
       154       153       158       159       154       155       156       159
       154       155       156       333       155       152       329       334
       155       152       329       330       155       156       159       158
       155       156       159       160       155       156       333       338
       155       156       333       334       156       159       160       163
       156       159       160       337       156       333       338       337
       156       333       338       339       156       333       334       329
       156       333       334       335       157       158       159       156
       157       158       159       160       157       162       163       160
       157       162       163       164       158       153       154       149
       158       153       154       155       158       157       162       161
       158       157       162       163       158       159       160       163
       158       159       160       337       159       156       333       338
       159       156       333       334       159       160       163       162
       159       160       163       164       159       160       337       342
       159       160       337       338       160       163       164       167
       160       163       164       341       160       337       342       341
       160       337       342       343       160       337       338       333
       160       337       338       339       161       162       163       160
       161       162       163       164       161       166       167       164
       161       166       167       168       162       157       158       153
       162       157       158       159       162       161       166       165
       162       161       166       167       162       163       164       167
       162       163       164       341       163       160       337       342
       163       160       337       338       163       164       167       166
       163       164       167       168       163       164       341       342
       163       164       341       346       164       167       168       171
       164       167       168       345       164       341       342       337
       164       341       342       343       164       341       346       345
       164       341       346       347       165       166       167       164
       165       166       167       168       165       170       171       168
       165       170       171       172       166       161       162       157
       166       161       162       163       166       165       170       169
       166       165       170       171       166       167       168       171
       166       167       168       345       167       164       341       342
       167       164       341       346       167       168       171       170
       167       168       171       172       167       168       345       346
       167       168       345       350       168       171       172       175
       168       171       172       349       168       345       346       341
       168       345       346       347       168       345       350       349
       168       345       350       351       169       170       171       168
       169       170       171       172       169       174       175       172
       169       174       175       176       170       165       166       161
       170       165       166       167       170       169       174       173
       170       169       174       175       170       171       172       175
       170       171       172       349       171       168       345       346
       171       168       345       350       171       172       175       174
       171       172       175       176       171       172       349       354
       171       172       349       350       172       175       176       179
       172       175       176       353       172       349       354       353
       172       349       354       355       172       349       350       345
       172       349       350       351       173       174       175       172
       173       174       175       176       173       178       179       176
       173       178       179       180       174       169       170       165
       174       169       170       171       174       173       178       177
       174       173       178       179       174       175       176       179
       174       175       176       353       175       172       349       354
       175       172       349       350       175       176       179       178
       175       176       179       180       175       176       353       354
       175       176       353       358       176       179       180       357
       176       353       354       349       176       353       354       355
       176       353       358       357       176       353       358       359
       177       178       179       176       177       178       179       180
       178       173       174       169       178       173       174       175
       178       179       180       357       179       176       353       354
       179       176       353       358       179       180       357       358
       180       357       358       353       180       357       358       359
       181         4         7         6       181         4         7         8
       181       182       183       184       181       186       187       184
       181       186       187       188       182       181       186       185
       182       181       186       187       182       183       184       187
       182       183       184       361       183       184       187       186
       183       184       187       188       183       184       361       362
       183       184       361       366       184       187       188       191
       184       187       188       365       184       361       362       363
       184       361       366       365       184       361       366       367
       185         8        11        10       185         8        11        12
       185       186       187       184       185       186       187       188
       185       190       191       188       185       190       191       192
       186       181       182       183       186       185       190       189
       186       185       190       191       186       187       188       191
       186       187       188       365       187       184       361       362
       187       184       361       366       187       188       191       190
       187       188       191       192       187       188       365       366
       187       188       365       370       188       191       192       195
       188       191       192       369       188       365       366       361
       188       365       366       367       188       365       370       369
       188       365       370       371       189        12        15        14
       189        12        15        16       189       190       191       188
       189       190       191       192       189       194       195       192
       189       194       195       196       190       185       186       181
       190       185       186       187       190       189       194       193
       190       189       194       195       190       191       192       195
       190       191       192       369       191       188       365       366
       191       188       365       370       191       192       195       194
       191       192       195       196       191       192       369       374
       191       192       369       370       192       195       196       199
       192       195       196       373       192       369       374       373
       192       369       374       375       192       369       370       365
       192       369       370       371       193        16        19        18
       193        16        19        20       193       194       195       192
       193       194       195       196       193       198       199       196
       193       198       199       200       194       189       190       185
       194       189       190       191       194       193       198       197
       194       193       198       199       194       195       196       199
       194       195       196       373       195       192       369       374
       195       192       369       370       195       196       199       198
       195       196       199       200       195       196       373       374
       195       196       373       378       196       199       200       203
       196       199       200       377       196       373       374       369
       196       373       374       375       196       373       378       377
       196       373       378       379       197        20        23        22
       197        20        23        24       197       198       199       196
       197       198       199       200       197       202       203       200
       197       202       203       204       198       193       194       189
       198       193       194       195       198       197       202       201
       198       197       202       203       198       199       200       203
       198       199       200       377       199       196       373       374
       199       196       373       378       199       200       203       202
       199       200       203       204       199       200       377       382
       199       200       377       378       200       203       204       207
       200       203       204       381       200       377       382       381
       200       377       382       383       200       377       378       373
       200       377       378       379       201        24        27        26
       201        24        27        28       201       202       203       200
       201       202       203       204       201       206       207       204
       201       206       207       208       202       197       198       193
       202       197       198       199       202       201       206       205
       202       201       206       207       202       203       204       207
       202       203       204       381       203       200       377       382
       203       200       377       378       203       204       207       206
       203       204       207       208       203       204       381       382
       203       204       381       386       204       207       208       211
       204       207       208       385       204       381       382       377
       204       381       382       383       204       381       386       385
       204       381       386       387       205        28        31        30
       205        28        31        32       205       206       207       204
       205       206       207       208       205       210       211       208
       205       210       211       212       206       201       202       197
       206       201       202       203       206       205       210       209
       206       205       210       211       206       207       208       211
       206       207       208       385       207       204       381       382
       207       204       381       386       207       208       211       210
       207       208       211       212       207       208       385       386
       207       208       385       390       208       211       212       215
       208       211       212       389       208       385       386       381
       208       385       386       387       208       385       390       389
       208       385       390       391       209        32        35        34
       209        32        35        36       209       210       211       208
       209       210       211       212       209       214       215       212
       209       214       215       216       210       205       206       201
       210       205       206       207       210       209       214       213
       210       209       214       215       210       211       212       215
       210       211       212       389       211       208       385       386
       211       208       385       390       211       212       215       214
       211       212       215       216       211       212       389       394
       211       212       389       390       212       215       216       219
       212       215       216       393       212       389       394       393
       212       389       394       395       212       389       390       385
       212       389       390       391       213        36        39        38
       213        36        39        40       213       214       215       212
       213       214       215       216       213       218       219       216
       213       218       219       220       214       209       210       205
       214       209       210       211       214       213       218       217
       214       213       218       219       214       215       216       219
       214       215       216       393       215       212       389       394
       215       212       389       390       215       216       219       218
       215       216       219       220       215       216       393       398
       215       216       393       394       216       219       220       223
       216       219       220       397       216       393       398       397
       216       393       398       399       216       393       394       389
       216       393       394       395       217        40        43        42
       217        40        43        44       217       218       219       216
       217       218       219       220       217       222       223       220
       217       222       223       224       218       213       214       209
       218       213       214       215       218       217       222       221
       218       217       222       223       218       219       220       223
       218       219       220       397       219       216       393       398
       219       216       393       394       219       220       223       222
       219       220       223       224       219       220       397       402
       219       220       397       398       220       223       224       227
       220       223       224       401       220       397       402       401
       220       397       402       403       220       397       398       393
       220       397       398       399       221        44        47        46
       221        44        47        48       221       222       223       220
       221       222       223       224       221       226       227       224
       221       226       227       228       222       217       218       213
       222       217       218       219       222       221       226       225
       222       221       226       227       222       223       224       227
       222       223       224       401       223       220       397       402
       223       220       397       398       223       224       227       226
       223       224       227       228       223       224       401       402
       223       224       401       406       224       227       228       231
       224       227       228       405       224       401       402       397
       224       401       402       403       224       401       406       405
       224       401       406       407       225        48        51        50
       225        48        51        52       225       226       227       224
       225       226       227       228       225       230       231       228
       225       230       231       232       226       221       222       217
       226       221       222       223       226       225       230       229
       226       225       230       231       226       227       228       231
       226       227       228       405       227       224       401       402
       227       224       401       406       227       228       231       230
       227       228       231       232       227       228       405       406
       227       228       405       410       228       231       232       235
       228       231       232       409       228       405       406       401
       228       405       406       407       228       405       410       409
       228       405       410       411       229        52        55        54
       229        52        55        56       229       230       231       228
       229       230       231       232       229       234       235       232
       229       234       235       236       230       225       226       221
       230       225       226       227       230       229       234       233
       230       229       234       235       230       231       232       235
       230       231       232       409       231       228       405       406
       231       228       405       410       231       232       235       234
       231       232       235       236       231       232       409       414
       231       232       409       410       232       235       236       239
       232       235       236       413       232       409       414       413
       232       409       414       415       232       409       410       405
       232       409       410       411       233        56        59        58
       233        56        59        60       233       234       235       232
       233       234       235       236       233       238       239       236
       233       238       239       240       234       229       230       225
       234       229       230       231       234       233       238       237
       234       233       238       239       234       235       236       239
       234       235       236       413       235       232       409       414
       235       232       409       410       235       236       239       238
       235       236       239       240       235       236       413       418
       235       236       413       414       236       239       240       243
       236       239       240       417       236       413       418       417
       236       413       418       419       236       413       414       409
       236       413       414       415       237        60        63        62
       237        60        63        64       237       238       239       236
       237       238       239       240       237       242       243       240
       237       242       243       244       238       233       234       229
       238       233       234       235       238       237       242       241
       238       237       242       243       238       239       240       243
       238       239       240       417       239       236       413       418
       239       236       413       414       239       240       243       242
       239       240       243       244       239       240       417       422
       239       240       417       418       240       243       244       247
       240       243       244       421       240       417       422       421
       240       417       422       423       240       417       418       413
       240       417       418       419       241        64        67        66
       241        64        67        68       241       242       243       240
       241       242       243       244       241       246       247       244
       241       246       247       248       242       237       238       233
       242       237       238       239       242       241       246       245
       242       241       246       247       242       243       244       247
       242       243       244       421       243       240       417       422
       243       240       417       418       243       244       247       246
       243       244       247       248       243       244       421       422
       243       244       421       426       244       247       248       251
       244       247       248       425       244       421       422       417
       244       421       422       423       244       421       426       425
       244       421       426       427       245        68        71        70
       245        68        71        72       245       246       247       244
       245       246       247       248       245       250       251       248
       245       250       251       252       246       241       242       237
       246       241       242       243       246       245       250       249
       246       245       250       251       246       247       248       251
       246       247       248       425       247       244       421       422
       247       244       421       426       247       248       251       250
       247       248       251       252       247       248       425       426
       247       248       425       430       248       251       252       255
       248       251       252       429       248       425       426       421
       248       425       426       427       248       425       430       429
       248       425       430       431       249        72        75        74
       249        72        75        76       249       250       251       248
       249       250       251       252       249       254       255       252
       249       254       255       256       250       245       246       241
       250       245       246       247       250       249       254       253
       250       249       254       255       250       251       252       255
       250       251       252       429       251       248       425       426
       251       248       425       430       251       252       255       254
       251       252       255       256       251       252       429       434
       251       252       429       430       252       255       256       259
       252       255       256       433       252       429       434       433
       252       429       434       435       252       429       430       425
       252       429       430       431       253        76        79        78
       253        76        79        80       253       254       255       252
       253       254       255       256       253       258       259       256
       253       258       259       260       254       249       250       245
       254       249       250       251       254       253       258       257
       254       253       258       259       254       255       256       259
       254       255       256       433       255       252       429       434
       255       252       429       430       255       256       259       258
       255       256       259       260       255       256       433       438
       255       256       433       434       256       259       260       263
       256       259       260       437       256       433       438       437
       256       433       438       439       256       433       434       429
       256       433       434       435       257        80        83        82
       257        80        83        84       257       258       259       256
       257       258       259       260       257       262       263       260
       257       262       263       264       258       253       254       249
       258       253       254       255       258       257       262       261
       258       257       262       263       258       259       260       263
       258       259       260       437       259       256       433       438
       259       256       433       434       259       260       263       262
       259       260       263       264       259       260       437       442
       259       260       437       438       260       263       264       267
       260       263       264       441       260       437       442       441
       260       437       442       443       260       437       438       433
       260       437       438       439       261        84        87        86
       261        84        87        88       261       262       263       260
       261       262       263       264       261       266       267       264
       261       266       267       268       262       257       258       253
       262       257       258       259       262       261       266       265
       262       261       266       267       262       263       264       267
       262       263       264       441       263       260       437       442
       263       260       437       438       263       264       267       266
       263       264       267       268       263       264       441       442
       263       264       441       446       264       267       268       271
       264       267       268       445       264       441       442       437
       264       441       442       443       264       441       446       445
       264       441       446       447       265        88        91        90
       265        88        91        92       265       266       267       264
       265       266       267       268       265       270       271       268
       265       270       271       272       266       261       262       257
       266       261       262       263       266       265       270       269
       266       265       270       271       266       267       268       271
       266       267       268       445       267       264       441       442
       267       264       441       446       267       268       271       270
       267       268       271       272       267       268       445       446
       267       268       445       450       268       271       272       275
       268       271       272       449       268       445       446       441
       268       445       446       447       268       445       450       449
       268       445       450       451       269        92        95        94
       269        92        95        96       269       270       271       268
       269       270       271       272       269       274       275       272
       269       274       275       276       270       265       266       261
       270       265       266       267       270       269       274       273
       270       269       274       275       270       271       272       275
       270       271       272       449       271       268       445       446
       271       268       445       450       271       272       275       274
       271       272       275       276       271       272       449       454
       271       272       449       450       272       275       276       279
       272       275       276       453       272       449       454       453
       272       449       454       455       272       449       450       445
       272       449       450       451       273        96        99        98
       273        96        99       100       273       274       275       272
       273       274       275       276       273       278       279       276
       273       278       279       280       274       269       270       265
       274       269       270       271       274       273       278       277
       274       273       278       279       274       275       276       279
       274       275       276       453       275       272       449       454
       275       272       449       450       275       276       279       278
       275       276       279       280       275       276       453       458
       275       276       453       454       276       279       280       283
       276       279       280       457       276       453       458       457
       276       453       458       459       276       453       454       449
       276       453       454       455       277       100       103       102
       277       100       103       104       277       278       279       276
       277       278       279       280       277       282       283       280
       277       282       283       284       278       273       274       269
       278       273       274       275       278       277       282       281
       278       277       282       283       278       279       280       283
       278       279       280       457       279       276       453       458
       279       276       453       454       279       280       283       282
       279       280       283       284       279       280       457       462
       279       280       457       458       280       283       284       287
       280       283       284       461       280       457       462       461
       280       457       462       463       280       457       458       453
       280       457       458       459       281       104       107       106
       281       104       107       108       281       282       283       280
       281       282       283       284       281       286       287       284
       281       286       287       288       282       277       278       273
       282       277       278       279       282       281       286       285
       282       281       286       287       282       283       284       287
       282       283       284       461       283       280       457       462
       283       280       457       458       283       284       287       286
       283       284       287       288       283       284       461       462
       283       284       461       466       284       287       288       291
       284       287       288       465       284       461       462       457
       284       461       462       463       284       461       466       465
       284       461       466       467       285       108       111       110
       285       108       111       112       285       286       287       284
       285       286       287       288       285       290       291       288
       285       290       291       292       286       281       282       277
       286       281       282       283       286       285       290       289
       286       285       290       291       286       287       288       291
       286       287       288       465       287       284       461       462
       287       284       461       466       287       288       291       290
       287       288       291       292       287       288       465       466
       287       288       465       470       288       291       292       295
       288       291       292       469       288       465       466       461
       288       465       466       467       288       465       470       469
       288       465       470       471       289       112       115       114
       289       112       115       116       289       290       291       288
       289       290       291       292       289       294       295       292
       289       294       295       296       290       285       286       281
       290       285       286       287       290       289       294       293
       290       289       294       295       290       291       292       295
       290       291       292       469       291       288       465       466
       291       288       465       470       291       292       295       294
       291       292       295       296       291       292       469       474
       291       292       469       470       292       295       296       299
       292       295       296       473       292       469       474       473
       292       469       474       475       292       469       470       465
       292       469       470       471       293       116       119       118
       293       116       119       120       293       294       295       292
       293       294       295       296       293       298       299       296
       293       298       299       300       294       289       290       285
       294       289       290       291       294       293       298       297
       294       293       298       299       294       295       296       299
       294       295       296       473       295       292       469       474
       295       292       469       470       295       296       299       298
       295       296       299       300       295       296       473       478
       295       296       473       474       296       299       300       303
       296       299       300       477       296       473       478       477
       296       473       478       479       296       473       474       469
       296       473       474       475       297       120       123       122
       297       120       123       124       297       298       299       296
       297       298       299       300       297       302       303       300
       297       302       303       304       298       293       294       289
       298       293       294       295       298       297       302       301
       298       297       302       303       298       299       300       303
       298       299       300       477       299       296       473       478
       299       296       473       474       299       300       303       302
       299       300       303       304       299       300       477       482
       299       300       477       478       300       303       304       307
       300       303       304       481       300       477       482       481
       300       477       482       483       300       477       478       473
       300       477       478       479       301       124       127       126
       301       124       127       128       301       302       303       300
       301       302       303       304       301       306       307       304
       301       306       307       308       302       297       298       293
       302       297       298       299       302       301       306       305
       302       301       306       307       302       303       304       307
       302       303       304       481       303       300       477       482
       303       300       477       478       303       304       307       306
       303       304       307       308       303       304       481       482
       303       304       481       486       304       307       308       311
       304       307       308       485       304       481       482       477
       304       481       482       483       304       481       486       485
       304       481       486       487       305       128       131       130
       305       128       131       132       305       306       307       304
       305       306       307       308       305       310       311       308
       305       310       311       312       306       301       302       297
       306       301       302       303       306       305       310       309
       306       305       310       311       306       307       308       311
       306       307       308       485       307       304       481       482
       307       304       481       486       307       308       311       310
       307       308       311       312       307       308       485       486
       307       308       485       490       308       311       312       315
       308       311       312       489       308       485       486       481
       308       485       486       487       308       485       490       489
       308       485       490       491       309       132       135       134
       309       132       135       136       309       310       311       308
       309       310       311       312       309       314       315       312
       309       314       315       316       310       305       306       301
       310       305       306       307       310       309       314       313
       310       309       314       315       310       311       312       315
       310       311       312       489       311       308       485       486
       311       308       485       490       311       312       315       314
       311       312       315       316       311       312       489       494
       311       312       489       490       312       315       316       319
       312       315       316       493       312       489       494       493
       312       489       494       495       312       489       490       485
       312       489       490       491       313       136       139       138
       313       136       139       140       313       314       315       312
       313       314       315       316       313       318       319       316
       313       318       319       320       314       309       310       305
       314       309       310       311       314       313       318       317
       314       313       318       319       314       315       316       319
       314       315       316       493       315       312       489       494
       315       312       489       490       315       316       319       318
       315       316       319       320       315       316       493       498
       315       316       493       494       316       319       320       323
       316       319       320       497       316       493       498       497
       316       493       498       499       316       493       494       489
       316       493       494       495       317       140       143       142
       317       140       143       144       317       318       319       316
       317       318       319       320       317       322       323       320
       317       322       323       324       318       313       314       309
       318       313       314       315       318       317       322       321
       318       317       322       323       318       319       320       323
       318       319       320       497       319       316       493       498
       319       316       493       494       319       320       323       322
       319       320       323       324       319       320       497       502
       319       320       497       498       320       323       324       327
       320       323       324       501       320       497       502       501
       320       497       502       503       320       497       498       493
       320       497       498       499       321       144       147       146
       321       144       147       148       321       322       323       320
       321       322       323       324       321       326       327       324
       321       326       327       328       322       317       318       313
       322       317       318       319       322       321       326       325
       322       321       326       327       322       323       324       327
       322       323       324       501       323       320       497       502
       323       320       497       498       323       324       327       326
       323       324       327       328       323       324       501       502
       323       324       501       506       324       327       328       331
       324       327       328       505       324       501       502       497
       324       501       502       503       324       501       506       505
       324       501       506       507       325       148       151       150
       325       148       151       152       325       326       327       324
       325       326       327       328       325       330       331       328
       325       330       331       332       326       321       322       317
       326       321       322       323       326       325       330       329
       326       325       330       331       326       327       328       331
       326       327       328       505       327       324       501       502
       327       324       501       506       327       328       331       330
       327       328       331       332       327       328       505       506
       327       328       505       510       328       331       332       335
       328       331       332       509       328       505       506       501
       328       505       506       507       328       505       510       509
       328       505       510       511       329       152       155       154
       329       152       155       156       329       330       331       328
       329       330       331       332       329       334       335       332
       329       334       335       336       330       325       326       321
       330       325       326       327       330       329       334       333
       330       329       334       335       330       331       332       335
       330       331       332       509       331       328       505       506
       331       328       505       510       331       332       335       334
       331       332       335       336       331       332       509       514
       331       332       509       510       332       335       336       339
       332       335       336       513       332       509       514       513
       332       509       514       515       332       509       510       505
       332       509       510       511       333       156       159       158
       333       156       159       160       333       334       335       332
       333       334       335       336       333       338       339       336
       333       338       339       340       334       329       330       325
       334       329       330       331       334       333       338       337
       334       333       338       339       334       335       336       339
       334       335       336       513       335       332       509       514
       335       332       509       510       335       336       339       338
       335       336       339       340       335       336       513       518
       335       336       513       514       336       339       340       343
       336       339       340       517       336       513       518       517
       336       513       518       519       336       513       514       509
       336       513       514       515       337       160       163       162
       337       160       163       164       337       338       339       336
       337       338       339       340       337       342       343       340
       337       342       343       344       338       333       334       329
       338       333       334       335       338       337       342       341
       338       337       342       343       338       339       340       343
       338       339       340       517       339       336       513       518
       339       336       513       514       339       340       343       342
       339       340       343       344       339       340       517       522
       339       340       517       518       340       343       344       347
       340       343       344       521       340       517       522       521
       340       517       522       523       340       517       518       513
       340       517       518       519       341       164       167       166
       341       164       167       168       341       342       343       340
       341       342       343       344       341       346       347       344
       341       346       347       348       342       337       338       333
       342       337       338       339       342       341       346       345
       342       341       346       347       342       343       344       347
       342       343       344       521       343       340       517       522
       343       340       517       518       343       344       347       346
       343       344       347       348       343       344       521       522
       343       344       521       526       344       347       348       351
       344       347       348       525       344       521       522       517
       344       521       522       523       344       521       526       525
       344       521       526       527       345       168       171       170
       345       168       171       172       345       346       347       344
       345       346       347       348       345       350       351       348
       345       350       351       352       346       341       342       337
       346       341       342       343       346       345       350       349
       346       345       350       351       346       347       348       351
       346       347       348       525       347       344       521       522
       347       344       521       526       347       348       351       350
       347       348       351       352       347       348       525       526
       347       348       525       530       348       351       352       355
       348       351       352       529       348       525       526       521
       348       525       526       527       348       525       530       529
       348       525       530       531       349       172       175       174
       349       172       175       176       349       350       351       348
       349       350       351       352       349       354       355       352
       349       354       355       356       350       345       346       341
       350       345       346       347       350       349       354       353
       350       349       354       355       350       351       352       355
       350       351       352       529       351       348       525       526
       351       348       525       530       351       352       355       354
       351       352       355       356       351       352       529       534
       351       352       529       530       352       355       356       359
       352       355       356       533       352       529       534       533
       352       529       534       535       352       529       530       525
       352       529       530       531       353       176       179       178
       353       176       179       180       353       354       355       352
       353       354       355       356       353       358       359       356
       353       358       359       360       354       349       350       345
       354       349       350       351       354       353       358       357
       354       353       358       359       354       355       356       359
       354       355       356       533       355       352       529       534
       355       352       529       530       355       356       359       358
       355       356       359       360       355       356       533       538
       355       356       533       534       356       359       360       537
       356       533       538       537       356       533       538       539
       356       533       534       529       356       533       534       535
       357       358       359       356       357       358       359       360
       358       353       354       349       358       353       354       355
       358       359       360       537       359       356       533       538
       359       356       533       534       359       360       537       538
       360       537       538       533       360       537       538       539
       361       184       187       186       361       184       187       188
       361       362       363       364       361       366       367       364
       361       366       367       368       362       361       366       365
       362       361       366       367       362       363       364       367
       362       363       364       541       363       364       367       366
       363       364       367       368       363       364       541       542
       363       364       541       546       364       367       368       371
       364       367       368       545       364       541       542       543
       364       541       546       545       364       541       546       547
       365       188       191       190       365       188       191       192
       365       366       367       364       365       366       367       368
       365       370       371       368       365       370       371       372
       366       361       362       363       366       365       370       369
       366       365       370       371       366       367       368       371
       366       367       368       545       367       364       541       542
       367       364       541       546       367       368       371       370
       367       368       371       372       367       368       545       546
       367       368       545       550       368       371       372       375
       368       371       372       549       368       545       546       541
       368       545       546       547       368       545       550       549
       368       545       550       551       369       192       195       194
       369       192       195       196       369       370       371       368
       369       370       371       372       369       374       375       372
       369       374       375       376       370       365       366       361
       370       365       366       367       370       369       374       373
       370       369       374       375       370       371       372       375
       370       371       372       549       371       368       545       546
       371       368       545       550       371       372       375       374
       371       372       375       376       371       372       549       554
       371       372       549       550       372       375       376       379
       372       375       376       553       372       549       554       553
       372       549       554       555       372       549       550       545
       372       549       550       551       373       196       199       198
       373       196       199       200       373       374       375       372
       373       374       375       376       373       378       379       376
       373       378       379       380       374       369       370       365
       374       369       370       371       374       373       378       377
       374       373       378       379       374       375       376       379
       374       375       376       553       375       372       549       554
       375       372       549       550       375       376       379       378
       375       376       379       380       375       376       553       558
       375       376       553       554       376       379       380       383
       376       379       380       557       376       553       558       557
       376       553       558       559       376       553       554       549
       376       553       554       555       377       200       203       202
       377       200       203       204       377       378       379       376
       377       378       379       380       377       382       383       380
       377       382       383       384       378       373       374       369
       378       373       374       375       378       377       382       381
       378       377       382       383       378       379       380       383
       378       379       380       557       379       376       553       558
       379       376       553       554       379       380       383       382
       379       380       383       384       379       380       557       562
       379       380       557       558       380       383       384       387
       380       383       384       561       380       557       562       561
       380       557       562       563       380       557       558       553
       380       557       558       559       381       204       207       206
       381       204       207       208       381       382       383       380
       381       382       383       384       381       386       387       384
       381       386       387       388       382       377       378       373
       382       377       378       379       382       381       386       385
       382       381       386       387       382       383       384       387
       382       383       384       561       383       380       557       562
       383       380       557       558       383       384       387       386
       383       384       387       388       383       384       561       562
       383       384       561       566       384       387       388       391
       384       387       388       565       384       561       562       557
       384       561       562       563       384       561       566       565
       384       561       566       567       385       208       211       210
       385       208       211       212       385       386       387       384
       385       386       387       388       385       390       391       388
       385       390       391       392       386       381       382       377
       386       381       382       383       386       385       390       389
       386       385       390       391       386       387       388       391
       386       387       388       565       387       384       561       562
       387       384       561       566       387       388       391       390
       387       388       391       392       387       388       565       566
       387       388       565       570       388       391       392       395
       388       391       392       569       388       565       566       561
       388       565       566       567       388       565       570       569
       388       565       570       571       389       212       215       214
       389       212       215       216       389       390       391       388
       389       390       391       392       389       394       395       392
       389       394       395       396       390       385       386       381
       390       385       386       387       390       389       394       393
       390       389       394       395       390       391       392       395
       390       391       392       569       391       388       565       566
       391       388       565       570       391       392       395       394
       391       392       395       396       391       392       569       574
       391       392       569       570       392       395       396       399
       392       395       396       573       392       569       574       573
       392       569       574       575       392       569       570       565
       392       569       570       571       393       216       219       218
       393       216       219       220       393       394       395       392
       393       394       395       396       393       398       399       396
       393       398       399       400       394       389       390       385
       394       389       390       391       394       393       398       397
       394       393       398       399       394       395       396       399
       394       395       396       573       395       392       569       574
       395       392       569       570       395       396       399       398
       395       396       399       400       395       396       573       578
       395       396       573       574       396       399       400       403
       396       399       400       577       396       573       578       577
       396       573       578       579       396       573       574       569
       396       573       574       575       397       220       223       222
       397       220       223       224       397       398       399       396
       397       398       399       400       397       402       403       400
       397       402       403       404       398       393       394       389
       398       393       394       395       398       397       402       401
       398       397       402       403       398       399       400       403
       398       399       400       577       399       396       573       578
       399       396       573       574       399       400       403       402
       399       400       403       404       399       400       577       582
       399       400       577       578       400       403       404       407
       400       403       404       581       400       577       582       581
       400       577       582       583       400       577       578       573
       400       577       578       579       401       224       227       226
       401       224       227       228       401       402       403       400
       401       402       403       404       401       406       407       404
       401       406       407       408       402       397       398       393
       402       397       398       399       402       401       406       405
       402       401       406       407       402       403       404       407
       402       403       404       581       403       400       577       582
       403       400       577       578       403       404       407       406
       403       404       407       408       403       404       581       582
       403       404       581       586       404       407       408       411
       404       407       408       585       404       581       582       577
       404       581       582       583       404       581       586       585
       404       581       586       587       405       228       231       230
       405       228       231       232       405       406       407       404
       405       406       407       408       405       410       411       408
       405       410       411       412       406       401       402       397
       406       401       402       403       406       405       410       409
       406       405       410       411       406       407       408       411
       406       407       408       585       407       404       581       582
       407       404       581       586       407       408       411       410
       407       408       411       412       407       408       585       586
       407       408       585       590       408       411       412       415
       408       411       412       589       408       585       586       581
       408       585       586       587       408       585       590       589
       408       585       590       591       409       232       235       234
       409       232       235       236       409       410       411       408
       409       410       411       412       409       414       415       412
       409       414       415       416       410       405       406       401
       410       405       406       407       410       409       414       413
       410       409       414       415       410       411       412       415
       410       411       412       589       411       408       585       586
       411       408       585       590       411       412       415       414
       411       412       415       416       411       412       589       594
       411       412       589       590       412       415       416       419
       412       415       416       593       412       589       594       593
       412       589       594       595       412       589       590       585
       412       589       590       591       413       236       239       238
       413       236       239       240       413       414       415       412
       413       414       415       416       413       418       419       416
       413       418       419       420       414       409       410       405
       414       409       410       411       414       413       418       417
       414       413       418       419       414       415       416       419
       414       415       416       593       415       412       589       594
       415       412       589       590       415       416       419       418
       415       416       419       420       415       416       593       594
       415       416       593       598       416       419       420       423
       416       419       420       597       416       593       594       589
       416       593       594       595       416       593       598       597
       416       593       598       599       417       240       243       242
       417       240       243       244       417       418       419       416
       417       418       419       420       417       422       423       420
       417       422       423       424       418       413       414       409
       418       413       414       415       418       417       422       421
       418       417       422       423       418       419       420       423
       418       419       420       597       419       416       593       594
       419       416       593       598       419       420       423       422
       419       420       423       424       419       420       597       602
       419       420       597       598       420       423       424       427
       420       423       424       601       420       597       602       601
       420       597       602       603       420       597       598       593
       420       597       598       599       421       244       247       246
       421       244       247       248       421       422       423       420
       421       422       423       424       421       426       427       424
       421       426       427       428       422       417       418       413
       422       417       418       419       422       421       426       425
       422       421       426       427       422       423       424       427
       422       423       424       601       423       420       597       602
       423       420       597       598       423       424       427       426
       423       424       427       428       423       424       601       602
       423       424       601       606       424       427       428       431
       424       427       428       605       424       601       602       597
       424       601       602       603       424       601       606       605
       424       601       606       607       425       248       251       250
       425       248       251       252       425       426       427       424
       425       426       427       428       425       430       431       428
       425       430       431       432       426       421       422       417
       426       421       422       423       426       425       430       429
       426       425       430       431       426       427       428       431
       426       427       428       605       427       424       601       602
       427       424       601       606       427       428       431       430
       427       428       431       432       427       428       605       606
       427       428       605       610       428       431       432       435
       428       431       432       609       428       605       606       601
       428       605       606       607       428       605       610       609
       428       605       610       611       429       252       255       254
       429       252       255       256       429       430       431       428
       429       430       431       432       429       434       435       432
       429       434       435       436       430       425       426       421
       430       425       426       427       430       429       434       433
       430       429       434       435       430       431       432       435
       430       431       432       609       431       428       605       606
       431       428       605       610       431       432       435       434
       431       432       435       436       431       432       609       614
       431       432       609       610       432       435       436       439
       432       435       436       613       432       609       614       613
       432       609       614       615       432       609       610       605
       432       609       610       611       433       256       259       258
       433       256       259       260       433       434       435       432
       433       434       435       436       433       438       439       436
       433       438       439       440       434       429       430       425
       434       429       430       431       434       433       438       437
       434       433       438       439       434       435       436       439
       434       435       436       613       435       432       609       614
       435       432       609       610       435       436       439       438
       435       436       439       440       435       436       613       618
       435       436       613       614       436       439       440       443
       436       439       440       617       436       613       618       617
       436       613       618       619       436       613       614       609
       436       613       614       615       437       260       263       262
       437       260       263       264       437       438       439       436
       437       438       439       440       437       442       443       440
       437       442       443       444       438       433       434       429
       438       433       434       435       438       437       442       441
       438       437       442       443       438       439       440       443
       438       439       440       617       439       436       613       618
       439       436       613       614       439       440       443       442
       439       440       443       444       439       440       617       622
       439       440       617       618       440       443       444       447
       440       443       444       621       440       617       622       621
       440       617       622       623       440       617       618       613
       440       617       618       619       441       264       267       266
       441       264       267       268       441       442       443       440
       441       442       443       444       441       446       447       444
       441       446       447       448       442       437       438       433
       442       437       438       439       442       441       446       445
       442       441       446       447       442       443       444       447
       442       443       444       621       443       440       617       622
       443       440       617       618       443       444       447       446
       443       444       447       448       443       444       621       622
       443       444       621       626       444       447       448       451
       444       447       448       625       444       621       622       617
       444       621       622       623       444       621       626       625
       444       621       626       627       445       268       271       270
       445       268       271       272       445       446       447       444
       445       446       447       448       445       450       451       448
       445       450       451       452       446       441       442       437
       446       441       442       443       446       445       450       449
       446       445       450       451       446       447       448       451
       446       447       448       625       447       444       621       622
       447       444       621       626       447       448       451       450
       447       448       451       452       447       448       625       626
       447       448       625       630       448       451       452       455
       448       451       452       629       448       625       626       621
       448       625       626       627       448       625       630       629
       448       625       630       631       449       272       275       274
       449       272       275       276       449       450       451       448
       449       450       451       452       449       454       455       452
       449       454       455       456       450       445       446       441
       450       445       446       447       450       449       454       453
       450       449       454       455       450       451       452       455
       450       451       452       629       451       448       625       626
       451       448       625       630       451       452       455       454
       451       452       455       456       451       452       629       634
       451       452       629       630       452       455       456       459
       452       455       456       633       452       629       634       633
       452       629       634       635       452       629       630       625
       452       629       630       631       453       276       279       278
       453       276       279       280       453       454       455       452
       453       454       455       456       453       458       459       456
       453       458       459       460       454       449       450       445
       454       449       450       451       454       453       458       457
       454       453       458       459       454       455       456       459
       454       455       456       633       455       452       629       634
       455       452       629       630       455       456       459       458
       455       456       459       460       455       456       633       638
       455       456       633       634       456       459       460       463
       456       459       460       637       456       633       638       637
       456       633       638       639       456       633       634       629
       456       633       634       635       457       280       283       282
       457       280       283       284       457       458       459       456
       457       458       459       460       457       462       463       460
       457       462       463       464       458       453       454       449
       458       453       454       455       458       457       462       461
       458       457       462       463       458       459       460       463
       458       459       460       637       459       456       633       638
       459       456       633       634       459       460       463       462
       459       460       463       464       459       460       637       642
       459       460       637       638       460       463       464       467
       460       463       464       641       460       637       642       641
       460       637       642       643       460       637       638       633
       460       637       638       639       461       284       287       286
       461       284       287       288       461       462       463       460
       461       462       463       464       461       466       467       464
       461       466       467       468       462       457       458       453
       462       457       458       459       462       461       466       465
       462       461       466       467       462       463       464       467
       462       463       464       641       463       460       637       642
       463       460       637       638       463       464       467       466
       463       464       467       468       463       464       641       642
       463       464       641       646       464       467       468       471
       464       467       468       645       464       641       642       637
       464       641       642       643       464       641       646       645
       464       641       646       647       465       288       291       290
       465       288       291       292       465       466       467       464
       465       466       467       468       465       470       471       468
       465       470       471       472       466       461       462       457
       466       461       462       463       466       465       470       469
       466       465       470       471       466       467       468       471
       466       467       468       645       467       464       641       642
       467       464       641       646       467       468       471       470
       467       468       471       472       467       468       645       646
       467       468       645       650       468       471       472       475
       468       471       472       649       468       645       646       641
       468       645       646       647       468       645       650       649
       468       645       650       651       469       292       295       294
       469       292       295       296       469       470       471       468
       469       470       471       472       469       474       475       472
       469       474       475       476       470       465       466       461
       470       465       466       467       470       469       474       473
       470       469       474       475       470       471       472       475
       470       471       472       649       471       468       645       646
       471       468       645       650       471       472       475       474
       471       472       475       476       471       472       649       654
       471       472       649       650       472       475       476       479
       472       475       476       653       472       649       654       653
       472       649       654       655       472       649       650       645
       472       649       650       651       473       296       299       298
       473       296       299       300       473       474       475       472
       473       474       475       476       473       478       479       476
       473       478       479       480       474       469       470       465
       474       469       470       471       474       473       478       477
       474       473       478       479       474       475       476       479
       474       475       476       653       475       472       649       654
       475       472       649       650       475       476       479       478
       475       476       479       480       475       476       653       658
       475       476       653       654       476       479       480       483
       476       479       480       657       476       653       658       657
       476       653       658       659       476       653       654       649
       476       653       654       655       477       300       303       302
       477       300       303       304       477       478       479       476
       477       478       479       480       477       482       483       480
       477       482       483       484       478       473       474       469
       478       473       474       475       478       477       482       481
       478       477       482       483       478       479       480       483
       478       479       480       657       479       476       653       658
       479       476       653       654       479       480       483       482
       479       480       483       484       479       480       657       662
       479       480       657       658       480       483       484       487
       480       483       484       661       480       657       662       661
       480       657       662       663       480       657       658       653
       480       657       658       659       481       304       307       306
       481       304       307       308       481       482       483       480
       481       482       483       484       481       486       487       484
       481       486       487       488       482       477       478       473
       482       477       478       479       482       481       486       485
       482       481       486       487       482       483       484       487
       482       483       484       661       483       480       657       662
       483       480       657       658       483       484       487       486
       483       484       487       488       483       484       661       662
       483       484       661       666       484       487       488       491
       484       487       488       665       484       661       662       657
       484       661       662       663       484       661       666       665
       484       661       666       667       485       308       311       310
       485       308       311       312       485       486       487       484
       485       486       487       488       485       490       491       488
       485       490       491       492       486       481       482       477
       486       481       482       483       486       485       490       489
       486       485       490       491       486       487       488       491
       486       487       488       665       487       484       661       662
       487       484       661       666       487       488       491       490
       487       488       491       492       487       488       665       666
       487       488       665       670       488       491       492       495
       488       491       492       669       488       665       666       661
       488       665       666       667       488       665       670       669
       488       665       670       671       489       312       315       314
       489       312       315       316       489       490       491       488
       489       490       491       492       489       494       495       492
       489       494       495       496       490       485       486       481
       490       485       486       487       490       489       494       493
       490       489       494       495       490       491       492       495
       490       491       492       669       491       488       665       666
       491       488       665       670       491       492       495       494
       491       492       495       496       491       492       669       674
       491       492       669       670       492       495       496       499
       492       495       496       673       492       669       674       673
       492       669       674       675       492       669       670       665
       492       669       670       671       493       316       319       318
       493       316       319       320       493       494       495       492
       493       494       495       496       493       498       499       496
       493       498       499       500       494       489       490       485
       494       489       490       491       494       493       498       497
       494       493       498       499       494       495       496       499
       494       495       496       673       495       492       669       674
       495       492       669       670       495       496       499       498
       495       496       499       500       495       496       673       678
       495       496       673       674       496       499       500       503
       496       499       500       677       496       673       678       677
       496       673       678       679       496       673       674       669
       496       673       674       675       497       320       323       322
       497       320       323       324       497       498       499       496
       497       498       499       500       497       502       503       500
       497       502       503       504       498       493       494       489
       498       493       494       495       498       497       502       501
       498       497       502       503       498       499       500       503
       498       499       500       677       499       496       673       678
       499       496       673       674       499       500       503       502
       499       500       503       504       499       500       677       682
       499       500       677       678       500       503       504       507
       500       503       504       681       500       677       682       681
       500       677       682       683       500       677       678       673
       500       677       678       679       501       324       327       326
       501       324       327       328       501       502       503       500
       501       502       503       504       501       506       507       504
       501       506       507       508       502       497       498       493
       502       497       498       499       502       501       506       505
       502       501       506       507       502       503       504       507
       502       503       504       681       503       500       677       682
       503       500       677       678       503       504       507       506
       503       504       507       508       503       504       681       682
       503       504       681       686       504       507       508       511
       504       507       508       685       504       681       682       677
       504       681       682       683       504       681       686       685
       504       681       686       687       505       328       331       330
       505       328       331       332       505       506       507       504
       505       506       507       508       505       510       511       508
       505       510       511       512       506       501       502       497
       506       501       502       503       506       505       510       509
       506       505       510       511       506       507       508       511
       506       507       508       685       507       504       681       682
       507       504       681       686       507       508       511       510
       507       508       511       512       507       508       685       686
       507       508       685       690       508       511       512       515
       508       511       512       689       508       685       686       681
       508       685       686       687       508       685       690       689
       508       685       690       691       509       332       335       334
       509       332       335       336       509       510       511       508
       509       510       511       512       509       514       515       512
       509       514       515       516       510       505       506       501
       510       505       506       507       510       509       514       513
       510       509       514       515       510       511       512       515
       510       511       512       689       511       508       685       686
       511       508       685       690       511       512       515       514
       511       512       515       516       511       512       689       694
       511       512       689       690       512       515       516       519
       512       515       516       693       512       689       694       693
       512       689       694       695       512       689       690       685
       512       689       690       691       513       336       339       338
       513       336       339       340       513       514       515       512
       513       514       515       516       513       518       519       516
       513       518       519       520       514       509       510       505
       514       509       510       511       514       513       518       517
       514       513       518       519       514       515       516       519
       514       515       516       693       515       512       689       694
       515       512       689       690       515       516       519       518
       515       516       519       520       515       516       693       698
       515       516       693       694       516       519       520       523
       516       519       520       697       516       693       698       697
       516       693       698       699       516       693       694       689
       516       693       694       695       517       340       343       342
       517       340       343       344       517       518       519       516
       517       518       519       520       517       522       523       520
       517       522       523       524       518       513       514       509
       518       513       514       515       518       517       522       521
       518       517       522       523       518       519       520       523
       518       519       520       697       519       516       693       698
       519       516       693       694       519       520       523       522
       519       520       523       524       519       520       697       702
       519       520       697       698       520       523       524       527
       520       523       524       701       520       697       702       701
       520       697       702       703       520       697       698       693
       520       697       698       699       521       344       347       346
       521       344       347       348       521       522       523       520
       521       522       523       524       521       526       527       524
       521       526       527       528       522       517       518       513
       522       517       518       519       522       521       526       525
       522       521       526       527       522       523       524       527
       522       523       524       701       523       520       697       702
       523       520       697       698       523       524       527       526
       523       524       527       528       523       524       701       702
       523       524       701       706       524       527       528       531
       524       527       528       705       524       701       702       697
       524       701       702       703       524       701       706       705
       524       701       706       707       525       348       351       350
       525       348       351       352       525       526       527       524
       525       526       527       528       525       530       531       528
       525       530       531       532       526       521       522       517
       526       521       522       523       526       525       530       529
       526       525       530       531       526       527       528       531
       526       527       528       705       527       524       701       702
       527       524       701       706       527       528       531       530
       527       528       531       532       527       528       705       706
       527       528       705       710       528       531       532       535
       528       531       532       709       528       705       706       701
       528       705       706       707       528       705       710       709
       528       705       710       711       529       352       355       354
       529       352       355       356       529       530       531       528
       529       530       531       532       529       534       535       532
       529       534       535       536       530       525       526       521
       530       525       526       527       530       529       534       533
       530       529       534       535       530       531       532       535
       530       531       532       709       531       528       705       706
       531       528       705       710       531       532       535       534
       531       532       535       536       531       532       709       714
       531       532       709       710       532       535       536       539
       532       535       536       713       532       709       714       713
       532       709       714       715       532       709       710       705
       532       709       710       711       533       356       359       358
       533       356       359       360       533       534       535       532
       533       534       535       536       533       538       539       536
       533       538       539       540       534       529       530       525
       534       529       530       531       534       533       538       537
       534       533       538       539       534       535       536       539
       534       535       536       713       535       532       709       714
       535       532       709       710       535       536       539       538
       535       536       539       540       535       536       713       718
       535       536       713       714       536       539       540       717
       536       713       718       717       536       713       718       719
       536       713       714       709       536       713       714       715
       537       538       539       536       537       538       539       540
       538       533       534       529       538       533       534       535
       538       539       540       717       539       536       713       718
       539       536       713       714       539       540       717       718
       540       717       718       713       540       717       718       719
       541       364       367       366       541       364       367       368
       541       542       543       544       541       546       547       544
       541       546       547       548       542       541       546       545
       542       541       546       547       542       543       544       547
       542       543       544       721       543       544       547       546
       543       544       547       548       543       544       721       722
       543       544       721       726       544       547       548       551
       544       547       548       725       544       721       722       723
       544       721       726       725       544       721       726       727
       545       368       371       370       545       368       371       372
       545       546       547       544       545       546       547       548
       545       550       551       548       545       550       551       552
       546       541       542       543       546       545       550       549
       546       545       550       551       546       547       548       551
       546       547       548       725       547       544       721       722
       547       544       721       726       547       548       551       550
       547       548       551       552       547       548       725       726
       547       548       725       730       548       551       552       555
       548       551       552       729       548       725       726       721
       548       725       726       727       548       725       730       729
       548       725       730       731       549       372       375       374
       549       372       375       376       549       550       551       548
       549       550       551       552       549       554       555       552
       549       554       555       556       550       545       546       541
       550       545       546       547       550       549       554       553
       550       549       554       555       550       551       552       555
       550       551       552       729       551       548       725       726
       551       548       725       730       551       552       555       554
       551       552       555       556       551       552       729       734
       551       552       729       730       552       555       556       559
       552       555       556       733       552       729       734       733
       552       729       734       735       552       729       730       725
       552       729       730       731       553       376       379       378
       553       376       379       380       553       554       555       552
       553       554       555       556       553       558       559       556
       553       558       559       560       554       549       550       545
       554       549       550       551       554       553       558       557
       554       553       558       559       554       555       556       559
       554       555       556       733       555       552       729       734
       555       552       729       730       555       556       559       558
       555       556       559       560       555       556       733       738
       555       556       733       734       556       559       560       563
       556       559       560       737       556       733       738       737
       556       733       738       739       556       733       734       729
       556       733       734       735       557       380       383       382
       557       380       383       384       557       558       559       556
       557       558       559       560       557       562       563       560
       557       562       563       564       558       553       554       549
       558       553       554       555       558       557       562       561
       558       557       562       563       558       559       560       563
       558       559       560       737       559       556       733       738
       559       556       733       734       559       560       563       562
       559       560       563       564       559       560       737       742
       559       560       737       738       560       563       564       567
       560       563       564       741       560       737       742       741
       560       737       742       743       560       737       738       733
       560       737       738       739       561       384       387       386
       561       384       387       388       561       562       563       560
       561       562       563       564       561       566       567       564
       561       566       567       568       562       557       558       553
       562       557       558       559       562       561       566       565
       562       561       566       567       562       563       564       567
       562       563       564       741       563       560       737       742
       563       560       737       738       563       564       567       566
       563       564       567       568       563       564       741       742
       563       564       741       746       564       567       568       571
       564       567       568       745       564       741       742       737
       564       741       742       743       564       741       746       745
       564       741       746       747       565       388       391       390
       565       388       391       392       565       566       567       564
       565       566       567       568       565       570       571       568
       565       570       571       572       566       561       562       557
       566       561       562       563       566       565       570       569
       566       565       570       571       566       567       568       571
       566       567       568       745       567       564       741       742
       567       564       741       746       567       568       571       570
       567       568       571       572       567       568       745       746
       567       568       745       750       568       571       572       575
       568       571       572       749       568       745       746       741
       568       745       746       747       568       745       750       749
       568       745       750       751       569       392       395       394
       569       392       395       396       569       570       571       568
       569       570       571       572       569       574       575       572
       569       574       575       576       570       565       566       561
       570       565       566       567       570       569       574       573
       570       569       574       575       570       571       572       575
       570       571       572       749       571       568       745       746
       571       568       745       750       571       572       575       574
       571       572       575       576       571       572       749       754
       571       572       749       750       572       575       576       579
       572       575       576       753       572       749       754       753
       572       749       754       755       572       749       750       745
       572       749       750       751       573       396       399       398
       573       396       399       400       573       574       575       572
       573       574       575       576       573       578       579       576
       573       578       579       580       574       569       570       565
       574       569       570       571       574       573       578       577
       574       573       578       579       574       575       576       579
       574       575       576       753       575       572       749       754
       575       572       749       750       575       576       579       578
       575       576       579       580       575       576       753       758
       575       576       753       754       576       579       580       583
       576       579       580       757       576       753       758       757
       576       753       758       759       576       753       754       749
       576       753       754       755       577       400       403       402
       577       400       403       404       577       578       579       576
       577       578       579       580       577       582       583       580
       577       582       583       584       578       573       574       569
       578       573       574       575       578       577       582       581
       578       577       582       583       578       579       580       583
       578       579       580       757       579       576       753       758
       579       576       753       754       579       580       583       582
       579       580       583       584       579       580       757       762
       579       580       757       758       580       583       584       587
       580       583       584       761       580       757       762       761
       580       757       762       763       580       757       758       753
       580       757       758       759       581       404       407       406
       581       404       407       408       581       582       583       580
       581       582       583       584       581       586       587       584
       581       586       587       588       582       577       578       573
       582       577       578       579       582       581       586       585
       582       581       586       587       582       583       584       587
       582       583       584       761       583       580       757       762
       583       580       757       758       583       584       587       586
       583       584       587       588       583       584       761       762
       583       584       761       766       584       587       588       591
       584       587       588       765       584       761       762       757
       584       761       762       763       584       761       766       765
       584       761       766       767       585       408       411       410
       585       408       411       412       585       586       587       584
       585       586       587       588       585       590       591       588
       585       590       591       592       586       581       582       577
       586       581       582       583       586       585       590       589
       586       585       590       591       586       587       588       591
       586       587       588       765       587       584       761       762
       587       584       761       766       587       588       591       590
       587       588       591       592       587       588       765       766
       587       588       765       770       588       591       592       595
       588       591       592       769       588       765       766       761
       588       765       766       767       588       765       770       769
       588       765       770       771       589       412       415       414
       589       412       415       416       589       590       591       588
       589       590       591       592       589       594       595       592
       589       594       595       596       590       585       586       581
       590       585       586       587       590       589       594       593
       590       589       594       595       590       591       592       595
       590       591       592       769       591       588       765       766
       591       588       765       770       591       592       595       594
       591       592       595       596       591       592       769       774
       591       592       769       770       592       595       596       599
       592       595       596       773       592       769       774       773
       592       769       774       775       592       769       770       765
       592       769       770       771       593       416       419       418
       593       416       419       420       593       594       595       592
       593       594       595       596       593       598       599       596
       593       598       599       600       594       589       590       585
       594       589       590       591       594       593       598       597
       594       593       598       599       594       595       596       599
       594       595       596       773       595       592       769       774
       595       592       769       770       595       596       599       598
       595       596       599       600       595       596       773       778
       595       596       773       774       596       599       600       603
       596       599       600       777       596       773       778       777
       596       773       778       779       596       773       774       769
       596       773       774       775       597       420       423       422
       597       420       423       424       597       598       599       596
       597       598       599       600       597       602       603       600
       597       602       603       604       598       593       594       589
       598       593       594       595       598       597       602       601
       598       597       602       603       598       599       600       603
       598       599       600       777       599       596       773       778
       599       596       773       774       599       600       603       602
       599       600       603       604       599       600       777       782
       599       600       777       778       600       603       604       607
       600       603       604       781       600       777       782       781
       600       777       782       783       600       777       778       773
       600       777       778       779       601       424       427       426
       601       424       427       428       601       602       603       600
       601       602       603       604       601       606       607       604
       601       606       607       608       602       597       598       593
       602       597       598       599       602       601       606       605
       602       601       606       607       602       603       604       607
       602       603       604       781       603       600       777       782
       603       600       777       778       603       604       607       606
       603       604       607       608       603       604       781       782
       603       604       781       786       604       607       608       611
       604       607       608       785       604       781       782       777
       604       781       782       783       604       781       786       785
       604       781       786       787       605       428       431       430
       605       428       431       432       605       606       607       604
       605       606       607       608       605       610       611       608
       605       610       611       612       606       601       602       597
       606       601       602       603       606       605       610       609
       606       605       610       611       606       607       608       611
       606       607       608       785       607       604       781       782
       607       604       781       786       607       608       611       610
       607       608       611       612       607       608       785       786
       607       608       785       790       608       611       612       615
       608       611       612       789       608       785       786       781
       608       785       786       787       608       785       790       789
       608       785       790       791       609       432       435       434
       609       432       435       436       609       610       611       608
       609       610       611       612       609       614       615       612
       609       614       615       616       610       605       606       601
       610       605       606       607       610       609       614       613
       610       609       614       615       610       611       612       615
       610       611       612       789       611       608       785       786
       611       608       785       790       611       612       615       614
       611       612       615       616       611       612       789       794
       611       612       789       790       612       615       616       619
       612       615       616       793       612       789       794       793
       612       789       794       795       612       789       790       785
       612       789       790       791       613       436       439       438
       613       436       439       440       613       614       615       612
       613       614       615       616       613       618       619       616
       613       618       619       620       614       609       610       605
       614       609       610       611       614       613       618       617
       614       613       618       619       614       615       616       619
       614       615       616       793       615       612       789       794
       615       612       789       790       615       616       619       618
       615       616       619       620       615       616       793       798
       615       616       793       794       616       619       620       623
       616       619       620       797       616       793       798       797
       616       793       798       799       616       793       794       789
       616       793       794       795       617       440       443       442
       617       440       443       444       617       618       619       616
       617       618       619       620       617       622       623       620
       617       622       623       624       618       613       614       609
       618       613       614       615       618       617       622       621
       618       617       622       623       618       619       620       623
       618       619       620       797       619       616       793       798
       619       616       793       794       619       620       623       622
       619       620       623       624       619       620       797       802
       619       620       797       798       620       623       624       627
       620       623       624       801       620       797       802       801
       620       797       802       803       620       797       798       793
       620       797       798       799       621       444       447       446
       621       444       447       448       621       622       623       620
       621       622       623       624       621       626       627       624
       621       626       627       628       622       617       618       613
       622       617       618       619       622       621       626       625
       622       621       626       627       622       623       624       627
       622       623       624       801       623       620       797       802
       623       620       797       798       623       624       627       626
       623       624       627       628       623       624       801       802
       623       624       801       806       624       627       628       631
       624       627       628       805       624       801       802       797
       624       801       802       803       624       801       806       805
       624       801       806       807       625       448       451       450
       625       448       451       452       625       626       627       624
       625       626       627       628       625       630       631       628
       625       630       631       632       626       621       622       617
       626       621       622       623       626       625       630       629
       626       625       630       631       626       627       628       631
       626       627       628       805       627       624       801       802
       627       624       801       806       627       628       631       630
       627       628       631       632       627       628       805       806
       627       628       805       810       628       631       632       635
       628       631       632       809       628       805       806       801
       628       805       806       807       628       805       810       809
       628       805       810       811       629       452       455       454
       629       452       455       456       629       630       631       628
       629       630       631       632       629       634       635       632
       629       634       635       636       630       625       626       621
       630       625       626       627       630       629       634       633
       630       629       634       635       630       631       632       635
       630       631       632       809       631       628       805       806
       631       628       805       810       631       632       635       634
       631       632       635       636       631       632       809       814
       631       632       809       810       632       635       636       639
       632       635       636       813       632       809       814       813
       632       809       814       815       632       809       810       805
       632       809       810       811       633       456       459       458
       633       456       459       460       633       634       635       632
       633       634       635       636       633       638       639       636
       633       638       639       640       634       629       630       625
       634       629       630       631       634       633       638       637
       634       633       638       639       634       635       636       639
       634       635       636       813       635       632       809       814
       635       632       809       810       635       636       639       638
       635       636       639       640       635       636       813       814
       635       636       813       818       636       639       640       643
       636       639       640       817       636       813       814       809
       636       813       814       815       636       813       818       817
       636       813       818       819       637       460       463       462
       637       460       463       464       637       638       639       636
       637       638       639       640       637       642       643       640
       637       642       643       644       638       633       634       629
       638       633       634       635       638       637       642       641
       638       637       642       643       638       639       640       643
       638       639       640       817       639       636       813       814
       639       636       813       818       639       640       643       642
       639       640       643       644       639       640       817       822
       639       640       817       818       640       643       644       647
       640       643       644       821       640       817       822       821
       640       817       822       823       640       817       818       813
       640       817       818       819       641       464       467       466
       641       464       467       468       641       642       643       640
       641       642       643       644       641       646       647       644
       641       646       647       648       642       637       638       633
       642       637       638       639       642       641       646       645
       642       641       646       647       642       643       644       647
       642       643       644       821       643       640       817       822
       643       640       817       818       643       644       647       646
       643       644       647       648       643       644       821       822
       643       644       821       826       644       647       648       651
       644       647       648       825       644       821       822       817
       644       821       822       823       644       821       826       825
       644       821       826       827       645       468       471       470
       645       468       471       472       645       646       647       644
       645       646       647       648       645       650       651       648
       645       650       651       652       646       641       642       637
       646       641       642       643       646       645       650       649
       646       645       650       651       646       647       648       651
       646       647       648       825       647       644       821       822
       647       644       821       826       647       648       651       650
       647       648       651       652       647       648       825       826
       647       648       825       830       648       651       652       655
       648       651       652       829       648       825       826       821
       648       825       826       827       648       825       830       829
       648       825       830       831       649       472       475       474
       649       472       475       476       649       650       651       648
       649       650       651       652       649       654       655       652
       649       654       655       656       650       645       646       641
       650       645       646       647       650       649       654       653
       650       649       654       655       650       651       652       655
       650       651       652       829       651       648       825       826
       651       648       825       830       651       652       655       654
       651       652       655       656       651       652       829       834
       651       652       829       830       652       655       656       659
       652       655       656       833       652       829       834       833
       652       829       834       835       652       829       830       825
       652       829       830       831       653       476       479       478
       653       476       479       480       653       654       655       652
       653       654       655       656       653       658       659       656
       653       658       659       660       654       649       650       645
       654       649       650       651       654       653       658       657
       654       653       658       659       654       655       656       659
       654       655       656       833       655       652       829       834
       655       652       829       830       655       656       659       658
       655       656       659       660       655       656       833       838
       655       656       833       834       656       659       660       663
       656       659       660       837       656       833       838       837
       656       833       838       839       656       833       834       829
       656       833       834       835       657       480       483       482
       657       480       483       484       657       658       659       656
       657       658       659       660       657       662       663       660
       657       662       663       664       658       653       654       649
       658       653       654       655       658       657       662       661
       658       657       662       663       658       659       660       663
       658       659       660       837       659       656       833       838
       659       656       833       834       659       660       663       662
       659       660       663       664       659       660       837       842
       659       660       837       838       660       663       664       667
       660       663       664       841       660       837       842       841
       660       837       842       843       660       837       838       833
       660       837       838       839       661       484       487       486
       661       484       487       488       661       662       663       660
       661       662       663       664       661       666       667       664
       661       666       667       668       662       657       658       653
       662       657       658       659       662       661       666       665
       662       661       666       667       662       663       664       667
       662       663       664       841       663       660       837       842
       663       660       837       838       663       664       667       666
       663       664       667       668       663       664       841       842
       663       664       841       846       664       667       668       671
       664       667       668       845       664       841       842       837
       664       841       842       843       664       841       846       845
       664       841       846       847       665       488       491       490
       665       488       491       492       665       666       667       664
       665       666       667       668       665       670       671       668
       665       670       671       672       666       661       662       657
       666       661       662       663       666       665       670       669
       666       665       670       671       666       667       668       671
       666       667       668       845       667       664       841       842
       667       664       841       846       667       668       671       670
       667       668       671       672       667       668       845       846
       667       668       845       850       668       671       672       675
       668       671       672       849       668       845       846       841
       668       845       846       847       668       845       850       849
       668       845       850       851       669       492       495       494
       669       492       495       496       669       670       671       668
       669       670       671       672       669       674       675       672
       669       674       675       676       670       665       666       661
       670       665       666       667       670       669       674       673
       670       669       674       675       670       671       672       675
       670       671       672       849       671       668       845       846
       671       668       845       850       671       672       675       674
       671       672       675       676       671       672       849       854
       671       672       849       850       672       675       676       679
       672       675       676       853       672       849       854       853
       672       849       854       855       672       849       850       845
       672       849       850       851       673       496       499       498
       673       496       499       500       673       674       675       672
       673       674       675       676       673       678       679       676
       673       678       679       680       674       669       670       665
       674       669       670       671       674       673       678       677
       674       673       678       679       674       675       676       679
       674       675       676       853       675       672       849       854
       675       672       849       850       675       676       679       678
       675       676       679       680       675       676       853       858
       675       676       853       854       676       679       680       683
       676       679       680       857       676       853       858       857
       676       853       858       859       676       853       854       849
       676       853       854       855       677       500       503       502
       677       500       503       504       677       678       679       676
       677       678       679       680       677       682       683       680
       677       682       683       684       678       673       674       669
       678       673       674       675       678       677       682       681
       678       677       682       683       678       679       680       683
       678       679       680       857       679       676       853       858
       679       676       853       854       679       680       683       682
       679       680       683       684       679       680       857       862
       679       680       857       858       680       683       684       687
       680       683       684       861       680       857       862       861
       680       857       862       863       680       857       858       853
       680       857       858       859       681       504       507       506
       681       504       507       508       681       682       683       680
       681       682       683       684       681       686       687       684
       681       686       687       688       682       677       678       673
       682       677       678       679       682       681       686       685
       682       681       686       687       682       683       684       687
       682       683       684       861       683       680       857       862
       683       680       857       858       683       684       687       686
       683       684       687       688       683       684       861       862
       683       684       861       866       684       687       688       691
       684       687       688       865       684       861       862       857
       684       861       862       863       684       861       866       865
       684       861       866       867       685       508       511       510
       685       508       511       512       685       686       687       684
       685       686       687       688       685       690       691       688
       685       690       691       692       686       681       682       677
       686       681       682       683       686       685       690       689
       686       685       690       691       686       687       688       691
       686       687       688       865       687       684       861       862
       687       684       861       866       687       688       691       690
       687       688       691       692       687       688       865       866
       687       688       865       870       688       691       692       695
       688       691       692       869       688       865       866       861
       688       865       866       867       688       865       870       869
       688       865       870       871       689       512       515       514
       689       512       515       516       689       690       691       688
       689       690       691       692       689       694       695       692
       689       694       695       696       690       685       686       681
       690       685       686       687       690       689       694       693
       690       689       694       695       690       691       692       695
       690       691       692       869       691       688       865       866
       691       688       865       870       691       692       695       694
       691       692       695       696       691       692       869       874
       691       692       869       870       692       695       696       699
       692       695       696       873       692       869       874       873
       692       869       874       875       692       869       870       865
       692       869       870       871       693       516       519       518
       693       516       519       520       693       694       695       692
       693       694       695       696       693       698       699       696
       693       698       699       700       694       689       690       685
       694       689       690       691       694       693       698       697
       694       693       698       699       694       695       696       699
       694       695       696       873       695       692       869       874
       695       692       869       870       695       696       699       698
       695       696       699       700       695       696       873       878
       695       696       873       874       696       699       700       703
       696       699       700       877       696       873       878       877
       696       873       878       879       696       873       874       869
       696       873       874       875       697       520       523       522
       697       520       523       524       697       698       699       696
       697       698       699       700       697       702       703       700
       697       702       703       704       698       693       694       689
       698       693       694       695       698       697       702       701
       698       697       702       703       698       699       700       703
       698       699       700       877       699       696       873       878
       699       696       873       874       699       700       703       702
       699       700       703       704       699       700       877       882
       699       700       877       878       700       703       704       707
       700       703       704       881       700       877       882       881
       700       877       882       883       700       877       878       873
       700       877       878       879       701       524       527       526
       701       524       527       528       701       702       703       700
       701       702       703       704       701       706       707       704
       701       706       707       708       702       697       698       693
       702       697       698       699       702       701       706       705
       702       701       706       707       702       703       704       707
       702       703       704       881       703       700       877       882
       703       700       877       878       703       704       707       706
       703       704       707       708       703       704       881       882
       703       704       881       886       704       707       708       711
       704       707       708       885       704       881       882       877
       704       881       882       883       704       881       886       885
       704       881       886       887       705       528       531       530
       705       528       531       532       705       706       707       704
       705       706       707       708       705       710       711       708
       705       710       711       712       706       701       702       697
       706       701       702       703       706       705       710       709
       706       705       710       711       706       707       708       711
       706       707       708       885       707       704       881       882
       707       704       881       886       707       708       711       710
       707       708       711       712       707       708       885       886
       707       708       885       890       708       711       712       715
       708       711       712       889       708       885       886       881
       708       885       886       887       708       885       890       889
       708       885       890       891       709       532       535       534
       709       532       535       536       709       710       711       708
       709       710       711       712       709       714       715       712
       709       714       715       716       710       705       706       701
       710       705       706       707       710       709       714       713
       710       709       714       715       710       711       712       715
       710       711       712       889       711       708       885       886
       711       708       885       890       711       712       715       714
       711       712       715       716       711       712       889       894
       711       712       889       890       712       715       716       719
       712       715       716       893       712       889       894       893
       712       889       894       895       712       889       890       885
       712       889       890       891       713       536       539       538
       713       536       539       540       713       714       715       712
       713       714       715       716       713       718       719       716
       713       718       719       720       714       709       710       705
       714       709       710       711       714       713       718       717
       714       713       718       719       714       715       716       719
       714       715       716       893       715       712       889       894
       715       712       889       890       715       716       719       718
       715       716       719       720       715       716       893       898
       715       716       893       894       716       719       720       897
       716       893       898       897       716       893       898       899
       716       893       894       889       716       893       894       895
       717       718       719       716       717       718       719       720
       718       713       714       709       718       713       714       715
       718       719       720       897       719       716       893       898
       719       716       893       894       719       720       897       898
       720       897       898       893       720       897       898       899
       721       544       547       546       721       544       547       548
       721       722       723       724       721       726       727       724
       721       726       727       728       722       721       726       725
       722       721       726       727       722       723       724       727
       722       723       724       901       723       724       727       726
       723       724       727       728       723       724       901       902
       723       724       901       906       724       727       728       731
       724       727       728       905       724       901       902       903
       724       901       906       905       724       901       906       907
       725       548       551       550       725       548       551       552
       725       726       727       724       725       726       727       728
       725       730       731       728       725       730       731       732
       726       721       722       723       726       725       730       729
       726       725       730       731       726       727       728       731
       726       727       728       905       727       724       901       902
       727       724       901       906       727       728       731       730
       727       728       731       732       727       728       905       906
       727       728       905       910       728       731       732       735
       728       731       732       909       728       905       906       901
       728       905       906       907       728       905       910       909
       728       905       910       911       729       552       555       554
       729       552       555       556       729       730       731       728
       729       730       731       732       729       734       735       732
       729       734       735       736       730       725       726       721
       730       725       726       727       730       729       734       733
       730       729       734       735       730       731       732       735
       730       731       732       909       731       728       905       906
       731       728       905       910       731       732       735       734
       731       732       735       736       731       732       909       914
       731       732       909       910       732       735       736       739
       732       735       736       913       732       909       914       913
       732       909       914       915       732       909       910       905
       732       909       910       911       733       556       559       558
       733       556       559       560       733       734       735       732
       733       734       735       736       733       738       739       736
       733       738       739       740       734       729       730       725
       734       729       730       731       734       733       738       737
       734       733       738       739       734       735       736       739
       734       735       736       913       735       732       909       914
       735       732       909       910       735       736       739       738
       735       736       739       740       735       736       913       918
       735       736       913       914       736       739       740       743
       736       739       740       917       736       913       918       917
       736       913       918       919       736       913       914       909
       736       913       914       915       737       560       563       562
       737       560       563       564       737       738       739       736
       737       738       739       740       737       742       743       740
       737       742       743       744       738       733       734       729
       738       733       734       735       738       737       742       741
       738       737       742       743       738       739       740       743
       738       739       740       917       739       736       913       918
       739       736       913       914       739       740       743       742
       739       740       743       744       739       740       917       922
       739       740       917       918       740       743       744       747
       740       743       744       921       740       917       922       921
       740       917       922       923       740       917       918       913
       740       917       918       919       741       564       567       566
       741       564       567       568       741       742       743       740
       741       742       743       744       741       746       747       744
       741       746       747       748       742       737       738       733
       742       737       738       739       742       741       746       745
       742       741       746       747       742       743       744       747
       742       743       744       921       743       740       917       922
       743       740       917       918       743       744       747       746
       743       744       747       748       743       744       921       922
       743       744       921       926       744       747       748       751
       744       747       748       925       744       921       922       917
       744       921       922       923       744       921       926       925
       744       921       926       927       745       568       571       570
       745       568       571       572       745       746       747       744
       745       746       747       748       745       750       751       748
       745       750       751       752       746       741       742       737
       746       741       742       743       746       745       750       749
       746       745       750       751       746       747       748       751
       746       747       748       925       747       744       921       922
       747       744       921       926       747       748       751       750
       747       748       751       752       747       748       925       926
       747       748       925       930       748       751       752       755
       748       751       752       929       748       925       926       921
       748       925       926       927       748       925       930       929
       748       925       930       931       749       572       575       574
       749       572       575       576       749       750       751       748
       749       750       751       752       749       754       755       752
       749       754       755       756       750       745       746       741
       750       745       746       747       750       749       754       753
       750       749       754       755       750       751       752       755
       750       751       752       929       751       748       925       926
       751       748       925       930       751       752       755       754
       751       752       755       756       751       752       929       934
       751       752       929       930       752       755       756       759
       752       755       756       933       752       929       934       933
       752       929       934       935       752       929       930       925
       752       929       930       931       753       576       579       578
       753       576       579       580       753       754       755       752
       753       754       755       756       753       758       759       756
       753       758       759       760       754       749       750       745
       754       749       750       751       754       753       758       757
       754       753       758       759       754       755       756       759
       754       755       756       933       755       752       929       934
       755       752       929       930       755       756       759       758
       755       756       759       760       755       756       933       938
       755       756       933       934       756       759       760       763
       756       759       760       937       756       933       938       937
       756       933       938       939       756       933       934       929
       756       933       934       935       757       580       583       582
       757       580       583       584       757       758       759       756
       757       758       759       760       757       762       763       760
       757       762       763       764       758       753       754       749
       758       753       754       755       758       757       762       761
       758       757       762       763       758       759       760       763
       758       759       760       937       759       756       933       938
       759       756       933       934       759       760       763       762
       759       760       763       764       759       760       937       942
       759       760       937       938       760       763       764       767
       760       763       764       941       760       937       942       941
       760       937       942       943       760       937       938       933
       760       937       938       939       761       584       587       586
       761       584       587       588       761       762       763       760
       761       762       763       764       761       766       767       764
       761       766       767       768       762       757       758       753
       762       757       758       759       762       761       766       765
       762       761       766       767       762       763       764       767
       762       763       764       941       763       760       937       942
       763       760       937       938       763       764       767       766
       763       764       767       768       763       764       941       942
       763       764       941       946       764       767       768       771
       764       767       768       945       764       941       942       937
       764       941       942       943       764       941       946       945
       764       941       946       947       765       588       591       590
       765       588       591       592       765       766       767       764
       765       766       767       768       765       770       771       768
       765       770       771       772       766       761       762       757
       766       761       762       763       766       765       770       769
       766       765       770       771       766       767       768       771
       766       767       768       945       767       764       941       942
       767       764       941       946       767       768       771       770
       767       768       771       772       767       768       945       946
       767       768       945       950       768       771       772       775
       768       771       772       949       768       945       946       941
       768       945       946       947       768       945       950       949
       768       945       950       951       769       592       595       594
       769       592       595       596       769       770       771       768
       769       770       771       772       769       774       775       772
       769       774       775       776       770       765       766       761
       770       765       766       767       770       769       774       773
       770       769       774       775       770       771       772       775
       770       771       772       949       771       768       945       946
       771       768       945       950       771       772       775       774
       771       772       775       776       771       772       949       954
       771       772       949       950       772       775       776       779
       772       775       776       953       772       949       954       953
       772       949       954       955       772       949       950       945
       772       949       950       951       773       596       599       598
       773       596       599       600       773       774       775       772
       773       774       775       776       773       778       779       776
       773       778       779       780       774       769       770       765
       774       769       770       771       774       773       778       777
       774       773       778       779       774       775       776       779
       774       775       776       953       775       772       949       954
       775       772       949       950       775       776       779       778
       775       776       779       780       775       776       953       958
       775       776       953       954       776       779       780       783
       776       779       780       957       776       953       958       957
       776       953       958       959       776       953       954       949
       776       953       954       955       777       600       603       602
       777       600       603       604       777       778       779       776
       777       778       779       780       777       782       783       780
       777       782       783       784       778       773       774       769
       778       773       774       775       778       777       782       781
       778       777       782       783       778       779       780       783
       778       779       780       957       779       776       953       958
       779       776       953       954       779       780       783       782
       779       780       783       784       779       780       957       962
       779       780       957       958       780       783       784       787
       780       783       784       961       780       957       962       961
       780       957       962       963       780       957       958       953
       780       957       958       959       781       604       607       606
       781       604       607       608       781       782       783       780
       781       782       783       784       781       786       787       784
       781       786       787       788       782       777       778       773
       782       777       778       779       782       781       786       785
       782       781       786       787       782       783       784       787
       782       783       784       961       783       780       957       962
       783       780       957       958       783       784       787       786
       783       784       787       788       783       784       961       962
       783       784       961       966       784       787       788       791
       784       787       788       965       784       961       962       957
       784       961       962       963       784       961       966       965
       784       961       966       967       785       608       611       610
       785       608       611       612       785       786       787       784
       785       786       787       788       785       790       791       788
       785       790       791       792       786       781       782       777
       786       781       782       783       786       785       790       789
       786       785       790       791       786       787       788       791
       786       787       788       965       787       784       961       962
       787       784       961       966       787       788       791       790
       787       788       791       792       787       788       965       966
       787       788       965       970       788       791       792       795
       788       791       792       969       788       965       966       961
       788       965       966       967       788       965       970       969
       788       965       970       971       789       612       615       614
       789       612       615       616       789       790       791       788
       789       790       791       792       789       794       795       792
       789       794       795       796       790       785       786       781
       790       785       786       787       790       789       794       793
       790       789       794       795       790       791       792       795
       790       791       792       969       791       788       965       966
       791       788       965       970       791       792       795       794
       791       792       795       796       791       792       969       974
       791       792       969       970       792       795       796       799
       792       795       796       973       792       969       974       973
       792       969       974       975       792       969       970       965
       792       969       970       971       793       616       619       618
       793       616       619       620       793       794       795       792
       793       794       795       796       793       798       799       796
       793       798       799       800       794       789       790       785
       794       789       790       791       794       793       798       797
       794       793       798       799       794       795       796       799
       794       795       796       973       795       792       969       974
       795       792       969       970       795       796       799       798
       795       796       799       800       795       796       973       978
       795       796       973       974       796       799       800       803
       796       799       800       977       796       973       978       977
       796       973       978       979       796       973       974       969
       796       973       974       975       797       620       623       622
       797       620       623       624       797       798       799       796
       797       798       799       800       797       802       803       800
       797       802       803       804       798       793       794       789
       798       793       794       795       798       797       802       801
       798       797       802       803       798       799       800       803
       798       799       800       977       799       796       973       978
       799       796       973       974       799       800       803       802
       799       800       803       804       799       800       977       982
       799       800       977       978       800       803       804       807
       800       803       804       981       800       977       982       981
       800       977       982       983       800       977       978       973
       800       977       978       979       801       624       627       626
       801       624       627       628       801       802       803       800
       801       802       803       804       801       806       807       804
       801       806       807       808       802       797       798       793
       802       797       798       799       802       801       806       805
       802       801       806       807       802       803       804       807
       802       803       804       981       803       800       977       982
       803       800       977       978       803       804       807       806
       803       804       807       808       803       804       981       982
       803       804       981       986       804       807       808       811
       804       807       808       985       804       981       982       977
       804       981       982       983       804       981       986       985
       804       981       986       987       805       628       631       630
       805       628       631       632       805       806       807       804
       805       806       807       808       805       810       811       808
       805       810       811       812       806       801       802       797
       806       801       802       803       806       805       810       809
       806       805       810       811       806       807       808       811
       806       807       808       985       807       804       981       982
       807       804       981       986       807       808       811       810
       807       808       811       812       807       808       985       986
       807       808       985       990       808       811       812       815
       808       811       812       989       808       985       986       981
       808       985       986       987       808       985       990       989
       808       985       990       991       809       632       635       634
       809       632       635       636       809       810       811       808
       809       810       811       812       809       814       815       812
       809       814       815       816       810       805       806       801
       810       805       806       807       810       809       814       813
       810       809       814       815       810       811       812       815
       810       811       812       989       811       808       985       986
       811       808       985       990       811       812       815       814
       811       812       815       816       811       812       989       994
       811       812       989       990       812       815       816       819
       812       815       816       993       812       989       994       993
       812       989       994       995       812       989       990       985
       812       989       990       991       813       636       639       638
       813       636       639       640       813       814       815       812
       813       814       815       816       813       818       819       816
       813       818       819       820       814       809       810       805
       814       809       810       811       814       813       818       817
       814       813       818       819       814       815       816       819
       814       815       816       993       815       812       989       994
       815       812       989       990       815       816       819       818
       815       816       819       820       815       816       993       998
       815       816       993       994       816       819       820       823
       816       819       820       997       816       993       998       997
       816       993       998       999       816       993       994       989
       816       993       994       995       817       640       643       642
       817       640       643       644       817       818       819       816
       817       818       819       820       817       822       823       820
       817       822       823       824       818       813       814       809
       818       813       814       815       818       817       822       821
       818       817       822       823       818       819       820       823
       818       819       820       997       819       816       993       998
       819       816       993       994       819       820       823       822
       819       820       823       824       819       820       997      1002
       819       820       997       998       820       823       824       827
       820       823       824      1001       820       997      1002      1001
       820       997      1002      1003       820       997       998       993
       820       997       998       999       821       644       647       646
       821       644       647       648       821       822       823       820
       821       822       823       824       821       826       827       824
       821       826       827       828       822       817       818       813
       822       817       818       819       822       821       826       825
       822       821       826       827       822       823       824       827
       822       823       824      1001       823       820       997      1002
       823       820       997       998       823       824       827       826
       823       824       827       828       823       824      1001      1002
       823       824      1001      1006       824       827       828       831
       824       827       828      1005       824      1001      1002       997
       824      1001      1002      1003       824      1001      1006      1005
       824      1001      1006      1007       825       648       651       650
       825       648       651       652       825       826       827       824
       825       826       827       828       825       830       831       828
       825       830       831       832       826       821       822       817
       826       821       822       823       826       825       830       829
       826       825       830       831       826       827       828       831
       826       827       828      1005       827       824      1001      1002
       827       824      1001      1006       827       828       831       830
       827       828       831       832       827       828      1005      1006
       827       828      1005      1010       828       831       832       835
       828       831       832      1009       828      1005      1006      1001
       828      1005      1006      1007       828      1005      1010      1009
       828      1005      1010      1011       829       652       655       654
       829       652       655       656       829       830       831       828
       829       830       831       832       829       834       835       832
       829       834       835       836       830       825       826       821
       830       825       826       827       830       829       834       833
       830       829       834       835       830       831       832       835
       830       831       832      1009       831       828      1005      1006
       831       828      1005      1010       831       832       835       834
       831       832       835       836       831       832      1009      1014
       831       832      1009      1010       832       835       836       839
       832       835       836      1013       832      1009      1014      1013
       832      1009      1014      1015       832      1009      1010      1005
       832      1009      1010      1011       833       656       659       658
       833       656       659       660       833       834       835       832
       833       834       835       836       833       838       839       836
       833       838       839       840       834       829       830       825
       834       829       830       831       834       833       838       837
       834       833       838       839       834       835       836       839
       834       835       836      1013       835       832      1009      1014
       835       832      1009      1010       835       836       839       838
       835       836       839       840       835       836      1013      1018
       835       836      1013      1014       836       839       840       843
       836       839       840      1017       836      1013      1018      1017
       836      1013      1018      1019       836      1013      1014      1009
       836      1013      1014      1015       837       660       663       662
       837       660       663       664       837       838       839       836
       837       838       839       840       837       842       843       840
       837       842       843       844       838       833       834       829
       838       833       834       835       838       837       842       841
       838       837       842       843       838       839       840       843
       838       839       840      1017       839       836      1013      1018
       839       836      1013      1014       839       840       843       842
       839       840       843       844       839       840      1017      1022
       839       840      1017      1018       840       843       844       847
       840       843       844      1021       840      1017      1022      1021
       840      1017      1022      1023       840      1017      1018      1013
       840      1017      1018      1019       841       664       667       666
       841       664       667       668       841       842       843       840
       841       842       843       844       841       846       847       844
       841       846       847       848       842       837       838       833
       842       837       838       839       842       841       846       845
       842       841       846       847       842       843       844       847
       842       843       844      1021       843       840      1017      1022
       843       840      1017      1018       843       844       847       846
       843       844       847       848       843       844      1021      1022
       843       844      1021      1026       844       847       848       851
       844       847       848      1025       844      1021      1022      1017
       844      1021      1022      1023       844      1021      1026      1025
       844      1021      1026      1027       845       668       671       670
       845       668       671       672       845       846       847       844
       845       846       847       848       845       850       851       848
       845       850       851       852       846       841       842       837
       846       841       842       843       846       845       850       849
       846       845       850       851       846       847       848       851
       846       847       848      1025       847       844      1021      1022
       847       844      1021      1026       847       848       851       850
       847       848       851       852       847       848      1025      1026
       847       848      1025      1030       848       851       852       855
       848       851       852      1029       848      1025      1026      1021
       848      1025      1026      1027       848      1025      1030      1029
       848      1025      1030      1031       849       672       675       674
       849       672       675       676       849       850       851       848
       849       850       851       852       849       854       855       852
       849       854       855       856       850       845       846       841
       850       845       846       847       850       849       854       853
       850       849       854       855       850       851       852       855
       850       851       852      1029       851       848      1025      1026
       851       848      1025      1030       851       852       855       854
       851       852       855       856       851       852      1029      1034
       851       852      1029      1030       852       855       856       859
       852       855       856      1033       852      1029      1034      1033
       852      1029      1034      1035       852      1029      1030      1025
       852      1029      1030      1031       853       676       679       678
       853       676       679       680       853       854       855       852
       853       854       855       856       853       858       859       856
       853       858       859       860       854       849       850       845
       854       849       850       851       854       853       858       857
       854       853       858       859       854       855       856       859
       854       855       856      1033       855       852      1029      1034
       855       852      1029      1030       855       856       859       858
       855       856       859       860       855       856      1033      1034
       855       856      1033      1038       856       859       860       863
       856       859       860      1037       856      1033      1034      1029
       856      1033      1034      1035       856      1033      1038      1037
       856      1033      1038      1039       857       680       683       682
       857       680       683       684       857       858       859       856
       857       858       859       860       857       862       863       860
       857       862       863       864       858       853       854       849
       858       853       854       855       858       857       862       861
       858       857       862       863       858       859       860       863
       858       859       860      1037       859       856      1033      1034
       859       856      1033      1038       859       860       863       862
       859       860       863       864       859       860      1037      1042
       859       860      1037      1038       860       863       864       867
       860       863       864      1041       860      1037      1042      1041
       860      1037      1042      1043       860      1037      1038      1033
       860      1037      1038      1039       861       684       687       686
       861       684       687       688       861       862       863       860
       861       862       863       864       861       866       867       864
       861       866       867       868       862       857       858       853
       862       857       858       859       862       861       866       865
       862       861       866       867       862       863       864       867
       862       863       864      1041       863       860      1037      1042
       863       860      1037      1038       863       864       867       866
       863       864       867       868       863       864      1041      1042
       863       864      1041      1046       864       867       868       871
       864       867       868      1045       864      1041      1042      1037
       864      1041      1042      1043       864      1041      1046      1045
       864      1041      1046      1047       865       688       691       690
       865       688       691       692       865       866       867       864
       865       866       867       868       865       870       871       868
       865       870       871       872       866       861       862       857
       866       861       862       863       866       865       870       869
       866       865       870       871       866       867       868       871
       866       867       868      1045       867       864      1041      1042
       867       864      1041      1046       867       868       871       870
       867       868       871       872       867       868      1045      1046
       867       868      1045      1050       868       871       872       875
       868       871       872      1049       868      1045      1046      1041
       868      1045      1046      1047       868      1045      1050      1049
       868      1045      1050      1051       869       692       695       694
       869       692       695       696       869       870       871       868
       869       870       871       872       869       874       875       872
       869       874       875       876       870       865       866       861
       870       865       866       867       870       869       874       873
       870       869       874       875       870       871       872       875
       870       871       872      1049       871       868      1045      1046
       871       868      1045      1050       871       872       875       874
       871       872       875       876       871       872      1049      1054
       871       872      1049      1050       872       875       876       879
       872       875       876      1053       872      1049      1054      1053
       872      1049      1054      1055       872      1049      1050      1045
       872      1049      1050      1051       873       696       699       698
       873       696       699       700       873       874       875       872
       873       874       875       876       873       878       879       876
       873       878       879       880       874       869       870       865
       874       869       870       871       874       873       878       877
       874       873       878       879       874       875       876       879
       874       875       876      1053       875       872      1049      1054
       875       872      1049      1050       875       876       879       878
       875       876       879       880       875       876      1053      1058
       875       876      1053      1054       876       879       880       883
       876       879       880      1057       876      1053      1058      1057
       876      1053      1058      1059       876      1053      1054      1049
       876      1053      1054      1055       877       700       703       702
       877       700       703       704       877       878       879       876
       877       878       879       880       877       882       883       880
       877       882       883       884       878       873       874       869
       878       873       874       875       878       877       882       881
       878       877       882       883       878       879       880       883
       878       879       880      1057       879       876      1053      1058
       879       876      1053      1054       879       880       883       882
       879       880       883       884       879       880      1057      1062
       879       880      1057      1058       880       883       884       887
       880       883       884      1061       880      1057      1062      1061
       880      1057      1062      1063       880      1057      1058      1053
       880      1057      1058      1059       881       704       707       706
       881       704       707       708       881       882       883       880
       881       882       883       884       881       886       887       884
       881       886       887       888       882       877       878       873
       882       877       878       879       882       881       886       885
       882       881       886       887       882       883       884       887
       882       883       884      1061       883       880      1057      1062
       883       880      1057      1058       883       884       887       886
       883       884       887       888       883       884      1061      1062
       883       884      1061      1066       884       887       888       891
       884       887       888      1065       884      1061      1062      1057
       884      1061      1062      1063       884      1061      1066      1065
       884      1061      1066      1067       885       708       711       710
       885       708       711       712       885       886       887       884
       885       886       887       888       885       890       891       888
       885       890       891       892       886       881       882       877
       886       881       882       883       886       885       890       889
       886       885       890       891       886       887       888       891
       886       887       888      1065       887       884      1061      1062
       887       884      1061      1066       887       888       891       890
       887       888       891       892       887       888      1065      1066
       887       888      1065      1070       888       891       892       895
       888       891       892      1069       888      1065      1066      1061
       888      1065      1066      1067       888      1065      1070      1069
       888      1065      1070      1071       889       712       715       714
       889       712       715       716       889       890       891       888
       889       890       891       892       889       894       895       892
       889       894       895       896       890       885       886       881
       890       885       886       887       890       889       894       893
       890       889       894       895       890       891       892       895
       890       891       892      1069       891       888      1065      1066
       891       888      1065      1070       891       892       895       894
       891       892       895       896       891       892      1069      1074
       891       892      1069      1070       892       895       896       899
       892       895       896      1073       892      1069      1074      1073
       892      1069      1074      1075       892      1069      1070      1065
       892      1069      1070      1071       893       716       719       718
       893       716       719       720       893       894       895       892
       893       894       895       896       893       898       899       896
       893       898       899       900       894       889       890       885
       894       889       890       891       894       893       898       897
       894       893       898       899       894       895       896       899
       894       895       896      1073       895       892      1069      1074
       895       892      1069      1070       895       896       899       898
       895       896       899       900       895       896      1073      1078
       895       896      1073      1074       896       899       900      1077
       896      1073      1078      1077       896      1073      1078      1079
       896      1073      1074      1069       896      1073      1074      1075
       897       898       899       896       897       898       899       900
       898       893       894       889       898       893       894       895
       898       899       900      1077       899       896      1073      1078
       899       896      1073      1074       899       900      1077      1078
       900      1077      1078      1073       900      1077      1078      1079
       901       724       727       726       901       724       727       728
       901       902       903       904       901       906       907       904
       901       906       907       908       902       901       906       905
       902       901       906       907       902       903       904       907
       902       903       904      1081       903       904       907       906
       903       904       907       908       903       904      1081      1082
       903       904      1081      1086       904       907       908       911
       904       907       908      1085       904      1081      1082      1083
       904      1081      1086      1085       904      1081      1086      1087
       905       728       731       730       905       728       731       732
       905       906       907       904       905       906       907       908
       905       910       911       908       905       910       911       912
       906       901       902       903       906       905       910       909
       906       905       910       911       906       907       908       911
       906       907       908      1085       907       904      1081      1082
       907       904      1081      1086       907       908       911       910
       907       908       911       912       907       908      1085      1086
       907       908      1085      1090       908       911       912       915
       908       911       912      1089       908      1085      1086      1081
       908      1085      1086      1087       908      1085      1090      1089
       908      1085      1090      1091       909       732       735       734
       909       732       735       736       909       910       911       908
       909       910       911       912       909       914       915       912
       909       914       915       916       910       905       906       901
       910       905       906       907       910       909       914       913
       910       909       914       915       910       911       912       915
       910       911       912      1089       911       908      1085      1086
       911       908      1085      1090       911       912       915       914
       911       912       915       916       911       912      1089      1094
       911       912      1089      1090       912       915       916       919
       912       915       916      1093       912      1089      1094      1093
       912      1089      1094      1095       912      1089      1090      1085
       912      1089      1090      1091       913       736       739       738
       913       736       739       740       913       914       915       912
       913       914       915       916       913       918       919       916
       913       918       919       920       914       909       910       905
       914       909       910       911       914       913       918       917
       914       913       918       919       914       915       916       919
       914       915       916      1093       915       912      1089      1094
       915       912      1089      1090       915       916       919       918
       915       916       919       920       915       916      1093      1098
       915       916      1093      1094       916       919       920       923
       916       919       920      1097       916      1093      1098      1097
       916      1093      1098      1099       916      1093      1094      1089
       916      1093      1094      1095       917       740       743       742
       917       740       743       744       917       918       919       916
       917       918       919       920       917       922       923       920
       917       922       923       924       918       913       914       909
       918       913       914       915       918       917       922       921
       918       917       922       923       918       919       920       923
       918       919       920      1097       919       916      1093      1098
       919       916      1093      1094       919       920       923       922
       919       920       923       924       919       920      1097      1102
       919       920      1097      1098       920       923       924       927
       920       923       924      1101       920      1097      1102      1101
       920      1097      1102      1103       920      1097      1098      1093
       920      1097      1098      1099       921       744       747       746
       921       744       747       748       921       922       923       920
       921       922       923       924       921       926       927       924
       921       926       927       928       922       917       918       913
       922       917       918       919       922       921       926       925
       922       921       926       927       922       923       924       927
       922       923       924      1101       923       920      1097      1102
       923       920      1097      1098       923       924       927       926
       923       924       927       928       923       924      1101      1102
       923       924      1101      1106       924       927       928       931
       924       927       928      1105       924      1101      1102      1097
       924      1101      1102      1103       924      1101      1106      1105
       924      1101      1106      1107       925       748       751       750
       925       748       751       752       925       926       927       924
       925       926       927       928       925       930       931       928
       925       930       931       932       926       921       922       917
       926       921       922       923       926       925       930       929
       926       925       930       931       926       927       928       931
       926       927       928      1105       927       924      1101      1102
       927       924      1101      1106       927       928       931       930
       927       928       931       932       927       928      1105      1106
       927       928      1105      1110       928       931       932       935
       928       931       932      1109       928      1105      1106      1101
       928      1105      1106      1107       928      1105      1110      1109
       928      1105      1110      1111       929       752       755       754
       929       752       755       756       929       930       931       928
       929       930       931       932       929       934       935       932
       929       934       935       936       930       925       926       921
       930       925       926       927       930       929       934       933
       930       929       934       935       930       931       932       935
       930       931       932      1109       931       928      1105      1106
       931       928      1105      1110       931       932       935       934
       931       932       935       936       931       932      1109      1114
       931       932      1109      1110       932       935       936       939
       932       935       936      1113       932      1109      1114      1113
       932      1109      1114      1115       932      1109      1110      1105
       932      1109      1110      1111       933       756       759       758
       933       756       759       760       933       934       935       932
       933       934       935       936       933       938       939       936
       933       938       939       940       934       929       930       925
       934       929       930       931       934       933       938       937
       934       933       938       939       934       935       936       939
       934       935       936      1113       935       932      1109      1114
       935       932      1109      1110       935       936       939       938
       935       936       939       940       935       936      1113      1118
       935       936      1113      1114       936       939       940       943
       936       939       940      1117       936      1113      1118      1117
       936      1113      1118      1119       936      1113      1114      1109
       936      1113      1114      1115       937       760       763       762
       937       760       763       764       937       938       939       936
       937       938       939       940       937       942       943       940
       937       942       943       944       938       933       934       929
       938       933       934       935       938       937       942       941
       938       937       942       943       938       939       940       943
       938       939       940      1117       939       936      1113      1118
       939       936      1113      1114       939       940       943       942
       939       940       943       944       939       940      1117      1122
       939       940      1117      1118       940       943       944       947
       940       943       944      1121       940      1117      1122      1121
       940      1117      1122      1123       940      1117      1118      1113
       940      1117      1118      1119       941       764       767       766
       941       764       767       768       941       942       943       940
       941       942       943       944       941       946       947       944
       941       946       947       948       942       937       938       933
       942       937       938       939       942       941       946       945
       942       941       946       947       942       943       944       947
       942       943       944      1121       943       940      1117      1122
       943       940      1117      1118       943       944       947       946
       943       944       947       948       943       944      1121      1122
       943       944      1121      1126       944       947       948       951
       944       947       948      1125       944      1121      1122      1117
       944      1121      1122      1123       944      1121      1126      1125
       944      1121      1126      1127       945       768       771       770
       945       768       771       772       945       946       947       944
       945       946       947       948       945       950       951       948
       945       950       951       952       946       941       942       937
       946       941       942       943       946       945       950       949
       946       945       950       951       946       947       948       951
       946       947       948      1125       947       944      1121      1122
       947       944      1121      1126       947       948       951       950
       947       948       951       952       947       948      1125      1126
       947       948      1125      1130       948       951       952       955
       948       951       952      1129       948      1125      1126      1121
       948      1125      1126      1127       948      1125      1130      1129
       948      1125      1130      1131       949       772       775       774
       949       772       775       776       949       950       951       948
       949       950       951       952       949       954       955       952
       949       954       955       956       950       945       946       941
       950       945       946       947       950       949       954       953
       950       949       954       955       950       951       952       955
       950       951       952      1129       951       948      1125      1126
       951       948      1125      1130       951       952       955       954
       951       952       955       956       951       952      1129      1134
       951       952      1129      1130       952       955       956       959
       952       955       956      1133       952      1129      1134      1133
       952      1129      1134      1135       952      1129      1130      1125
       952      1129      1130      1131       953       776       779       778
       953       776       779       780       953       954       955       952
       953       954       955       956       953       958       959       956
       953       958       959       960       954       949       950       945
       954       949       950       951       954       953       958       957
       954       953       958       959       954       955       956       959
       954       955       956      1133       955       952      1129      1134
       955       952      1129      1130       955       956       959       958
       955       956       959       960       955       956      1133      1138
       955       956      1133      1134       956       959       960       963
       956       959       960      1137       956      1133      1138      1137
       956      1133      1138      1139       956      1133      1134      1129
       956      1133      1134      1135       957       780       783       782
       957       780       783       784       957       958       959       956
       957       958       959       960       957       962       963       960
       957       962       963       964       958       953       954       949
       958       953       954       955       958       957       962       961
       958       957       962       963       958       959       960       963
       958       959       960      1137       959       956      1133      1138
       959       956      1133      1134       959       960       963       962
       959       960       963       964       959       960      1137      1142
       959       960      1137      1138       960       963       964       967
       960       963       964      1141       960      1137      1142      1141
       960      1137      1142      1143       960      1137      1138      1133
       960      1137      1138      1139       961       784       787       786
       961       784       787       788       961       962       963       960
       961       962       963       964       961       966       967       964
       961       966       967       968       962       957       958       953
       962       957       958       959       962       961       966       965
       962       961       966       967       962       963       964       967
       962       963       964      1141       963       960      1137      1142
       963       960      1137      1138       963       964       967       966
       963       964       967       968       963       964      1141      1142
       963       964      1141      1146       964       967       968       971
       964       967       968      1145       964      1141      1142      1137
       964      1141      1142      1143       964      1141      1146      1145
       964      1141      1146      1147       965       788       791       790
       965       788       791       792       965       966       967       964
       965       966       967       968       965       970       971       968
       965       970       971       972       966       961       962       957
       966       961       962       963       966       965       970       969
       966       965       970       971       966       967       968       971
       966       967       968      1145       967       964      1141      1142
       967       964      1141      1146       967       968       971       970
       967       968       971       972       967       968      1145      1146
       967       968      1145      1150       968       971       972       975
       968       971       972      1149       968      1145      1146      1141
       968      1145      1146      1147       968      1145      1150      1149
       968      1145      1150      1151       969       792       795       794
       969       792       795       796       969       970       971       968
       969       970       971       972       969       974       975       972
       969       974       975       976       970       965       966       961
       970       965       966       967       970       969       974       973
       970       969       974       975       970       971       972       975
       970       971       972      1149       971       968      1145      1146
       971       968      1145      1150       971       972       975       974
       971       972       975       976       971       972      1149      1154
       971       972      1149      1150       972       975       976       979
       972       975       976      1153       972      1149      1154      1153
       972      1149      1154      1155       972      1149      1150      1145
       972      1149      1150      1151       973       796       799       798
       973       796       799       800       973       974       975       972
       973       974       975       976       973       978       979       976
       973       978       979       980       974       969       970       965
       974       969       970       971       974       973       978       977
       974       973       978       979       974       975       976       979
       974       975       976      1153       975       972      1149      1154
       975       972      1149      1150       975       976       979       978
       975       976       979       980       975       976      1153      1158
       975       976      1153      1154       976       979       980       983
       976       979       980      1157       976      1153      1158      1157
       976      1153      1158      1159       976      1153      1154      1149
       976      1153      1154      1155       977       800       803       802
       977       800       803       804       977       978       979       976
       977       978       979       980       977       982       983       980
       977       982       983       984       978       973       974       969
       978       973       974       975       978       977       982       981
       978       977       982       983       978       979       980       983
       978       979       980      1157       979       976      1153      1158
       979       976      1153      1154       979       980       983       982
       979       980       983       984       979       980      1157      1162
       979       980      1157      1158       980       983       984       987
       980       983       984      1161       980      1157      1162      1161
       980      1157      1162      1163       980      1157      1158      1153
       980      1157      1158      1159       981       804       807       806
       981       804       807       808       981       982       983       980
       981       982       983       984       981       986       987       984
       981       986       987       988       982       977       978       973
       982       977       978       979       982       981       986       985
       982       981       986       987       982       983       984       987
       982       983       984      1161       983       980      1157      1162
       983       980      1157      1158       983       984       987       986
       983       984       987       988       983       984      1161      1162
       983       984      1161      1166       984       987       988       991
       984       987       988      1165       984      1161      1162      1157
       984      1161      1162      1163       984      1161      1166      1165
       984      1161      1166      1167       985       808       811       810
       985       808       811       812       985       986       987       984
       985       986       987       988       985       990       991       988
       985       990       991       992       986       981       982       977
       986       981       982       983       986       985       990       989
       986       985       990       991       986       987       988       991
       986       987       988      1165       987       984      1161      1162
       987       984      1161      1166       987       988       991       990
       987       988       991       992       987       988      1165      1166
       987       988      1165      1170       988       991       992       995
       988       991       992      1169       988      1165      1166      1161
       988      1165      1166      1167       988      1165      1170      1169
       988      1165      1170      1171       989       812       815       814
       989       812       815       816       989       990       991       988
       989       990       991       992       989       994       995       992
       989       994       995       996       990       985       986       981
       990       985       986       987       990       989       994       993
       990       989       994       995       990       991       992       995
       990       991       992      1169       991       988      1165      1166
       991       988      1165      1170       991       992       995       994
       991       992       995       996       991       992      1169      1174
       991       992      1169      1170       992       995       996       999
       992       995       996      1173       992      1169      1174      1173
       992      1169      1174      1175       992      1169      1170      1165
       992      1169      1170      1171       993       816       819       818
       993       816       819       820       993       994       995       992
       993       994       995       996       993       998       999       996
       993       998       999      1000       994       989       990       985
       994       989       990       991       994       993       998       997
       994       993       998       999       994       995       996       999
       994       995       996      1173       995       992      1169      1174
       995       992      1169      1170       995       996       999       998
       995       996       999      1000       995       996      1173      1178
       995       996      1173      1174       996       999      1000      1003
       996       999      1000      1177       996      1173      1178      1177
       996      1173      1178      1179       996      1173      1174      1169
       996      1173      1174      1175       997       820       823       822
       997       820       823       824       997       998       999       996
       997       998       999      1000       997      1002      1003      1000
       997      1002      1003      1004       998       993       994       989
       998       993       994       995       998       997      1002      1001
       998       997      1002      1003       998       999      1000      1003
       998       999      1000      1177       999       996      1173      1178
       999       996      1173      1174       999      1000      1003      1002
       999      1000      1003      1004       999      1000      1177      1182
       999      1000      1177      1178      1000      1003      1004      1007
      1000      1003      1004      1181      1000      1177      1182      1181
      1000      1177      1182      1183      1000      1177      1178      1173
      1000      1177      1178      1179      1001       824       827       826
      1001       824       827       828      1001      1002      1003      1000
      1001      1002      1003      1004      1001      1006      1007      1004
      1001      1006      1007      1008      1002       997       998       993
      1002       997       998       999      1002      1001      1006      1005
      1002      1001      1006      1007      1002      1003      1004      1007
      1002      1003      1004      1181      1003      1000      1177      1182
      1003      1000      1177      1178      1003      1004      1007      1006
      1003      1004      1007      1008      1003      1004      1181      1182
      1003      1004      1181      1186      1004      1007      1008      1011
      1004      1007      1008      1185      1004      1181      1182      1177
      1004      1181      1182      1183      1004      1181      1186      1185
      1004      1181      1186      1187      1005       828       831       830
      1005       828       831       832      1005      1006      1007      1004
      1005      1006      1007      1008      1005      1010      1011      1008
      1005      1010      1011      1012      1006      1001      1002       997
      1006      1001      1002      1003      1006      1005      1010      1009
      1006      1005      1010      1011      1006      1007      1008      1011
      1006      1007      1008      1185      1007      1004      1181      1182
      1007      1004      1181      1186      1007      1008      1011      1010
      1007      1008      1011      1012      1007      1008      1185      1186
      1007      1008      1185      1190      1008      1011      1012      1015
      1008      1011      1012      1189      1008      1185      1186      1181
      1008      1185      1186      1187      1008      1185      1190      1189
      1008      1185      1190      1191      1009       832       835       834
      1009       832       835       836      1009      1010      1011      1008
      1009      1010      1011      1012      1009      1014      1015      1012
      1009      1014      1015      1016      1010      1005      1006      1001
      1010      1005      1006      1007      1010      1009      1014      1013
      1010      1009      1014      1015      1010      1011      1012      1015
      1010      1011      1012      1189      1011      1008      1185      1186
      1011      1008      1185      1190      1011      1012      1015      1014
      1011      1012      1015      1016      1011      1012      1189      1194
      1011      1012      1189      1190      1012      1015      1016      1019
      1012      1015      1016      1193      1012      1189      1194      1193
      1012      1189      1194      1195      1012      1189      1190      1185
      1012      1189      1190      1191      1013       836       839       838
      1013       836       839       840      1013      1014      1015      1012
      1013      1014      1015      1016      1013      1018      1019      1016
      1013      1018      1019      1020      1014      1009      1010      1005
      1014      1009      1010      1011      1014      1013      1018      1017
      1014      1013      1018      1019      1014      1015      1016      1019
      1014      1015      1016      1193      1015      1012      1189      1194
      1015      1012      1189      1190      1015      1016      1019      1018
      1015      1016      1019      1020      1015      1016      1193      1198
      1015      1016      1193      1194      1016      1019      1020      1023
      1016      1019      1020      1197      1016      1193      1198      1197
      1016      1193      1198      1199      1016      1193      1194      1189
      1016      1193      1194      1195      1017       840       843       842
      1017       840       843       844      1017      1018      1019      1016
      1017      1018      1019      1020      1017      1022      1023      1020
      1017      1022      1023      1024      1018      1013      1014      1009
      1018      1013      1014      1015      1018      1017      1022      1021
      1018      1017      1022      1023      1018      1019      1020      1023
      1018      1019      1020      1197      1019      1016      1193      1198
      1019      1016      1193      1194      1019      1020      1023      1022
      1019      1020      1023      1024      1019      1020      1197      1202
      1019      1020      1197      1198      1020      1023      1024      1027
      1020      1023      1024      1201      1020      1197      1202      1201
      1020      1197      1202      1203      1020      1197      1198      1193
      1020      1197      1198      1199      1021       844       847       846
      1021       844       847       848      1021      1022      1023      1020
      1021      1022      1023      1024      1021      1026      1027      1024
      1021      1026      1027      1028      1022      1017      1018      1013
      1022      1017      1018      1019      1022      1021      1026      1025
      1022      1021      1026      1027      1022      1023      1024      1027
      1022      1023      1024      1201      1023      1020      1197      1202
      1023      1020      1197      1198      1023      1024      1027      1026
      1023      1024      1027      1028      1023      1024      1201      1202
      1023      1024      1201      1206      1024      1027      1028      1031
      1024      1027      1028      1205      1024      1201      1202      1197
      1024      1201      1202      1203      1024      1201      1206      1205
      1024      1201      1206      1207      1025       848       851       850
      1025       848       851       852      1025      1026      1027      1024
      1025      1026      1027      1028      1025      1030      1031      1028
      1025      1030      1031      1032      1026      1021      1022      1017
      1026      1021      1022      1023      1026      1025      1030      1029
      1026      1025      1030      1031      1026      1027      1028      1031
      1026      1027      1028      1205      1027      1024      1201      1202
      1027      1024      1201      1206      1027      1028      1031      1030
      1027      1028      1031      1032      1027      1028      1205      1206
      1027      1028      1205      1210      1028      1031      1032      1035
      1028      1031      1032      1209      1028      1205      1206      1201
      1028      1205      1206      1207      1028      1205      1210      1209
      1028      1205      1210      1211      1029       852       855       854
      1029       852       855       856      1029      1030      1031      1028
      1029      1030      1031      1032      1029      1034      1035      1032
      1029      1034      1035      1036      1030      1025      1026      1021
      1030      1025      1026      1027      1030      1029      1034      1033
      1030      1029      1034      1035      1030      1031      1032      1035
      1030      1031      1032      1209      1031      1028      1205      1206
      1031      1028      1205      1210      1031      1032      1035      1034
      1031      1032      1035      1036      1031      1032      1209      1214
      1031      1032      1209      1210      1032      1035      1036      1039
      1032      1035      1036      1213      1032      1209      1214      1213
      1032      1209      1214      1215      1032      1209      1210      1205
      1032      1209      1210      1211      1033       856       859       858
      1033       856       859       860      1033      1034      1035      1032
      1033      1034      1035      1036      1033      1038      1039      1036
      1033      1038      1039      1040      1034      1029      1030      1025
      1034      1029      1030      1031      1034      1033      1038      1037
      1034      1033      1038      1039      1034      1035      1036      1039
      1034      1035      1036      1213      1035      1032      1209      1214
      1035      1032      1209      1210      1035      1036      1039      1038
      1035      1036      1039      1040      1035      1036      1213      1218
      1035      1036      1213      1214      1036      1039      1040      1043
      1036      1039      1040      1217      1036      1213      1218      1217
      1036      1213      1218      1219      1036      1213      1214      1209
      1036      1213      1214      1215      1037       860       863       862
      1037       860       863       864      1037      1038      1039      1036
      1037      1038      1039      1040      1037      1042      1043      1040
      1037      1042      1043      1044      1038      1033      1034      1029
      1038      1033      1034      1035      1038      1037      1042      1041
      1038      1037      1042      1043      1038      1039      1040      1043
      1038      1039      1040      1217      1039      1036      1213      1218
      1039      1036      1213      1214      1039      1040      1043      1042
      1039      1040      1043      1044      1039      1040      1217      1222
      1039      1040      1217      1218      1040      1043      1044      1047
      1040      1043      1044      1221      1040      1217      1222      1221
      1040      1217      1222      1223      1040      1217      1218      1213
      1040      1217      1218      1219      1041       864       867       866
      1041       864       867       868      1041      1042      1043      1040
      1041      1042      1043      1044      1041      1046      1047      1044
      1041      1046      1047      1048      1042      1037      1038      1033
      1042      1037      1038      1039      1042      1041      1046      1045
      1042      1041      1046      1047      1042      1043      1044      1047
      1042      1043      1044      1221      1043      1040      1217      1222
      1043      1040      1217      1218      1043      1044      1047      1046
      1043      1044      1047      1048      1043      1044      1221      1222
      1043      1044      1221      1226      1044      1047      1048      1051
      1044      1047      1048      1225      1044      1221      1222      1217
      1044      1221      1222      1223      1044      1221      1226      1225
      1044      1221      1226      1227      1045       868       871       870
      1045       868       871       872      1045      1046      1047      1044
      1045      1046      1047      1048      1045      1050      1051      1048
      1045      1050      1051      1052      1046      1041      1042      1037
      1046      1041      1042      1043      1046      1045      1050      1049
      1046      1045      1050      1051      1046      1047      1048      1051
      1046      1047      1048      1225      1047      1044      1221      1222
      1047      1044      1221      1226      1047      1048      1051      1050
      1047      1048      1051      1052      1047      1048      1225      1226
      1047      1048      1225      1230      1048      1051      1052      1055
      1048      1051      1052      1229      1048      1225      1226      1221
      1048      1225      1226      1227      1048      1225      1230      1229
      1048      1225      1230      1231      1049       872       875       874
      1049       872       875       876      1049      1050      1051      1048
      1049      1050      1051      1052      1049      1054      1055      1052
      1049      1054      1055      1056      1050      1045      1046      1041
      1050      1045      1046      1047      1050      1049      1054      1053
      1050      1049      1054      1055      1050      1051      1052      1055
      1050      1051      1052      1229      1051      1048      1225      1226
      1051      1048      1225      1230      1051      1052      1055      1054
      1051      1052      1055      1056      1051      1052      1229      1234
      1051      1052      1229      1230      1052      1055      1056      1059
      1052      1055      1056      1233      1052      1229      1234      1233
      1052      1229      1234      1235      1052      1229      1230      1225
      1052      1229      1230      1231      1053       876       879       878
      1053       876       879       880      1053      1054      1055      1052
      1053      1054      1055      1056      1053      1058      1059      1056
      1053      1058      1059      1060      1054      1049      1050      1045
      1054      1049      1050      1051      1054      1053      1058      1057
      1054      1053      1058      1059      1054      1055      1056      1059
      1054      1055      1056      1233      1055      1052      1229      1234
      1055      1052      1229      1230      1055      1056      1059      1058
      1055      1056      1059      1060      1055      1056      1233      1238
      1055      1056      1233      1234      1056      1059      1060      1063
      1056      1059      1060      1237      1056      1233      1238      1237
      1056      1233      1238      1239      1056      1233      1234      1229
      1056      1233      1234      1235      1057       880       883       882
      1057       880       883       884      1057      1058      1059      1056
      1057      1058      1059      1060      1057      1062      1063      1060
      1057      1062      1063      1064      1058      1053      1054      1049
      1058      1053      1054      1055      1058      1057      1062      1061
      1058      1057      1062      1063      1058      1059      1060      1063
      1058      1059      1060      1237      1059      1056      1233      1238
      1059      1056      1233      1234      1059      1060      1063      1062
      1059      1060      1063      1064      1059      1060      1237      1242
      1059      1060      1237      1238      1060      1063      1064      1067
      1060      1063      1064      1241      1060      1237      1242      1241
      1060      1237      1242      1243      1060      1237      1238      1233
      1060      1237      1238      1239      1061       884       887       886
      1061       884       887       888      1061      1062      1063      1060
      1061      1062      1063      1064      1061      1066      1067      1064
      1061      1066      1067      1068      1062      1057      1058      1053
      1062      1057      1058      1059      1062      1061      1066      1065
      1062      1061      1066      1067      1062      1063      1064      1067
      1062      1063      1064      1241      1063      1060      1237      1242
      1063      1060      1237      1238      1063      1064      1067      1066
      1063      1064      1067      1068      1063      1064      1241      1242
      1063      1064      1241      1246      1064      1067      1068      1071
      1064      1067      1068      1245      1064      1241      1242      1237
      1064      1241      1242      1243      1064      1241      1246      1245
      1064      1241      1246      1247      1065       888       891       890
      1065       888       891       892      1065      1066      1067      1064
      1065      1066      1067      1068      1065      1070      1071      1068
      1065      1070      1071      1072      1066      1061      1062      1057
      1066      1061      1062      1063      1066      1065      1070      1069
      1066      1065      1070      1071      1066      1067      1068      1071
      1066      1067      1068      1245      1067      1064      1241      1242
      1067      1064      1241      1246      1067      1068      1071      1070
      1067      1068      1071      1072      1067      1068      1245      1246
      1067      1068      1245      1250      1068      1071      1072      1075
      1068      1071      1072      1249      1068      1245      1246      1241
      1068      1245      1246      1247      1068      1245      1250      1249
      1068      1245      1250      1251      1069       892       895       894
      1069       892       895       896      1069      1070      1071      1068
      1069      1070      1071      1072      1069      1074      1075      1072
      1069      1074      1075      1076      1070      1065      1066      1061
      1070      1065      1066      1067      1070      1069      1074      1073
      1070      1069      1074      1075      1070      1071      1072      1075
      1070      1071      1072      1249      1071      1068      1245      1246
      1071      1068      1245      1250      1071      1072      1075      1074
      1071      1072      1075      1076      1071      1072      1249      1254
      1071      1072      1249      1250      1072      1075      1076      1079
      1072      1075      1076      1253      1072      1249      1254      1253
      1072      1249      1254      1255      1072      1249      1250      1245
      1072      1249      1250      1251      1073       896       899       898
      1073       896       899       900      1073      1074      1075      1072
      1073      1074      1075      1076      1073      1078      1079      1076
      1073      1078      1079      1080      1074      1069      1070      1065
      1074      1069      1070      1071      1074      1073      1078      1077
      1074      1073      1078      1079      1074      1075      1076      1079
      1074      1075      1076      1253      1075      1072      1249      1254
      1075      1072      1249      1250      1075      1076      1079      1078
      1075      1076      1079      1080      1075      1076      1253      1254
      1075      1076      1253      1258      1076      1079      1080      1257
      1076      1253      1254      1249      1076      1253      1254      1255
      1076      1253      1258      1257      1076      1253      1258      1259
      1077      1078      1079      1076      1077      1078      1079      1080
      1078      1073      1074      1069      1078      1073      1074      1075
      1078      1079      1080      1257      1079      1076      1253      1254
      1079      1076      1253      1258      1079      1080      1257      1258
      1080      1257      1258      1253      1080      1257      1258      1259
      1081       904       907       906      1081       904       907       908
      1081      1082      1083      1084      1081      1086      1087      1084
      1081      1086      1087      1088      1082      1081      1086      1085
      1082      1081      1086      1087      1082      1083      1084      1087
      1082      1083      1084      1261      1083      1084      1087      1086
      1083      1084      1087      1088      1083      1084      1261      1262
      1083      1084      1261      1266      1084      1087      1088      1091
      1084      1087      1088      1265      1084      1261      1262      1263
      1084      1261      1266      1265      1084      1261      1266      1267
      1085       908       911       910      1085       908       911       912
      1085      1086      1087      1084      1085      1086      1087      1088
      1085      1090      1091      1088      1085      1090      1091      1092
      1086      1081      1082      1083      1086      1085      1090      1089
      1086      1085      1090      1091      1086      1087      1088      1091
      1086      1087      1088      1265      1087      1084      1261      1262
      1087      1084      1261      1266      1087      1088      1091      1090
      1087      1088      1091      1092      1087      1088      1265      1266
      1087      1088      1265      1270      1088      1091      1092      1095
      1088      1091      1092      1269      1088      1265      1266      1261
      1088      1265      1266      1267      1088      1265      1270      1269
      1088      1265      1270      1271      1089       912       915       914
      1089       912       915       916      1089      1090      1091      1088
      1089      1090      1091      1092      1089      1094      1095      1092
      1089      1094      1095      1096      1090      1085      1086      1081
      1090      1085      1086      1087      1090      1089      1094      1093
      1090      1089      1094      1095      1090      1091      1092      1095
      1090      1091      1092      1269      1091      1088      1265      1266
      1091      1088      1265      1270      1091      1092      1095      1094
      1091      1092      1095      1096      1091      1092      1269      1274
      1091      1092      1269      1270      1092      1095      1096      1099
      1092      1095      1096      1273      1092      1269      1274      1273
      1092      1269      1274      1275      1092      1269      1270      1265
      1092      1269      1270      1271      1093       916       919       918
      1093       916       919       920      1093      1094      1095      1092
      1093      1094      1095      1096      1093      1098      1099      1096
      1093      1098      1099      1100      1094      1089      1090      1085
      1094      1089      1090      1091      1094      1093      1098      1097
      1094      1093      1098      1099      1094      1095      1096      1099
      1094      1095      1096      1273      1095      1092      1269      1274
      1095      1092      1269      1270      1095      1096      1099      1098
      1095      1096      1099      1100      1095      1096      1273      1274
      1095      1096      1273      1278      1096      1099      1100      1103
      1096      1099      1100      1277      1096      1273      1274      1269
      1096      1273      1274      1275      1096      1273      1278      1277
      1096      1273      1278      1279      1097       920       923       922
      1097       920       923       924      1097      1098      1099      1096
      1097      1098      1099      1100      1097      1102      1103      1100
      1097      1102      1103      1104      1098      1093      1094      1089
      1098      1093      1094      1095      1098      1097      1102      1101
      1098      1097      1102      1103      1098      1099      1100      1103
      1098      1099      1100      1277      1099      1096      1273      1274
      1099      1096      1273      1278      1099      1100      1103      1102
      1099      1100      1103      1104      1099      1100      1277      1282
      1099      1100      1277      1278      1100      1103      1104      1107
      1100      1103      1104      1281      1100      1277      1282      1281
      1100      1277      1282      1283      1100      1277      1278      1273
      1100      1277      1278      1279      1101       924       927       926
      1101       924       927       928      1101      1102      1103      1100
      1101      1102      1103      1104      1101      1106      1107      1104
      1101      1106      1107      1108      1102      1097      1098      1093
      1102      1097      1098      1099      1102      1101      1106      1105
      1102      1101      1106      1107      1102      1103      1104      1107
      1102      1103      1104      1281      1103      1100      1277      1282
      1103      1100      1277      1278      1103      1104      1107      1106
      1103      1104      1107      1108      1103      1104      1281      1282
      1103      1104      1281      1286      1104      1107      1108      1111
      1104      1107      1108      1285      1104      1281      1282      1277
      1104      1281      1282      1283      1104      1281      1286      1285
      1104      1281      1286      1287      1105       928       931       930
      1105       928       931       932      1105      1106      1107      1104
      1105      1106      1107      1108      1105      1110      1111      1108
      1105      1110      1111      1112      1106      1101      1102      1097
      1106      1101      1102      1103      1106      1105      1110      1109
      1106      1105      1110      1111      1106      1107      1108      1111
      1106      1107      1108      1285      1107      1104      1281      1282
      1107      1104      1281      1286      1107      1108      1111      1110
      1107      1108      1111      1112      1107      1108      1285      1286
      1107      1108      1285      1290      1108      1111      1112      1115
      1108      1111      1112      1289      1108      1285      1286      1281
      1108      1285      1286      1287      1108      1285      1290      1289
      1108      1285      1290      1291      1109       932       935       934
      1109       932       935       936      1109      1110      1111      1108
      1109      1110      1111      1112      1109      1114      1115      1112
      1109      1114      1115      1116      1110      1105      1106      1101
      1110      1105      1106      1107      1110      1109      1114      1113
      1110      1109      1114      1115      1110      1111      1112      1115
      1110      1111      1112      1289      1111      1108      1285      1286
      1111      1108      1285      1290      1111      1112      1115      1114
      1111      1112      1115      1116      1111      1112      1289      1294
      1111      1112      1289      1290      1112      1115      1116      1119
      1112      1115      1116      1293      1112      1289      1294      1293
      1112      1289      1294      1295      1112      1289      1290      1285
      1112      1289      1290      1291      1113       936       939       938
      1113       936       939       940      1113      1114      1115      1112
      1113      1114      1115      1116      1113      1118      1119      1116
      1113      1118      1119      1120      1114      1109      1110      1105
      1114      1109      1110      1111      1114      1113      1118      1117
      1114      1113      1118      1119      1114      1115      1116      1119
      1114      1115      1116      1293      1115      1112      1289      1294
      1115      1112      1289      1290      1115      1116      1119      1118
      1115      1116      1119      1120      1115      1116      1293      1298
      1115      1116      1293      1294      1116      1119      1120      1123
      1116      1119      1120      1297      1116      1293      1298      1297
      1116      1293      1298      1299      1116      1293      1294      1289
      1116      1293      1294      1295      1117       940       943       942
      1117       940       943       944      1117      1118      1119      1116
      1117      1118      1119      1120      1117      1122      1123      1120
      1117      1122      1123      1124      1118      1113      1114      1109
      1118      1113      1114      1115      1118      1117      1122      1121
      1118      1117      1122      1123      1118      1119      1120      1123
      1118      1119      1120      1297      1119      1116      1293      1298
      1119      1116      1293      1294      1119      1120      1123      1122
      1119      1120      1123      1124      1119      1120      1297      1302
      1119      1120      1297      1298      1120      1123      1124      1127
      1120      1123      1124      1301      1120      1297      1302      1301
      1120      1297      1302      1303      1120      1297      1298      1293
      1120      1297      1298      1299      1121       944       947       946
      1121       944       947       948      1121      1122      1123      1120
      1121      1122      1123      1124      1121      1126      1127      1124
      1121      1126      1127      1128      1122      1117      1118      1113
      1122      1117      1118      1119      1122      1121      1126      1125
      1122      1121      1126      1127      1122      1123      1124      1127
      1122      1123      1124      1301      1123      1120      1297      1302
      1123      1120      1297      1298      1123      1124      1127      1126
      1123      1124      1127      1128      1123      1124      1301      1302
      1123      1124      1301      1306      1124      1127      1128      1131
      1124      1127      1128      1305      1124      1301      1302      1297
      1124      1301      1302      1303      1124      1301      1306      1305
      1124      1301      1306      1307      1125       948       951       950
      1125       948       951       952      1125      1126      1127      1124
      1125      1126      1127      1128      1125      1130      1131      1128
      1125      1130      1131      1132      1126      1121      1122      1117
      1126      1121      1122      1123      1126      1125      1130      1129
      1126      1125      1130      1131      1126      1127      1128      1131
      1126      1127      1128      1305      1127      1124      1301      1302
      1127      1124      1301      1306      1127      1128      1131      1130
      1127      1128      1131      1132      1127      1128      1305      1306
      1127      1128      1305      1310      1128      1131      1132      1135
      1128      1131      1132      1309      1128      1305      1306      1301
      1128      1305      1306      1307      1128      1305      1310      1309
      1128      1305      1310      1311      1129       952       955       954
      1129       952       955       956      1129      1130      1131      1128
      1129      1130      1131      1132      1129      1134      1135      1132
      1129      1134      1135      1136      1130      1125      1126      1121
      1130      1125      1126      1127      1130      1129      1134      1133
      1130      1129      1134      1135      1130      1131      1132      1135
      1130      1131      1132      1309      1131      1128      1305      1306
      1131      1128      1305      1310      1131      1132      1135      1134
      1131      1132      1135      1136      1131      1132      1309      1314
      1131      1132      1309      1310      1132      1135      1136      1139
      1132      1135      1136      1313      1132      1309      1314      1313
      1132      1309      1314      1315      1132      1309      1310      1305
      1132      1309      1310      1311      1133       956       959       958
      1133       956       959       960      1133      1134      1135      1132
      1133      1134      1135      1136      1133      1138      1139      1136
      1133      1138      1139      1140      1134      1129      1130      1125
      1134      1129      1130      1131      1134      1133      1138      1137
      1134      1133      1138      1139      1134      1135      1136      1139
      1134      1135      1136      1313      1135      1132      1309      1314
      1135      1132      1309      1310      1135      1136      1139      1138
      1135      1136      1139      1140      1135      1136      1313      1318
      1135      1136      1313      1314      1136      1139      1140      1143
      1136      1139      1140      1317      1136      1313      1318      1317
      1136      1313      1318      1319      1136      1313      1314      1309
      1136      1313      1314      1315      1137       960       963       962
      1137       960       963       964      1137      1138      1139      1136
      1137      1138      1139      1140      1137      1142      1143      1140
      1137      1142      1143      1144      1138      1133      1134      1129
      1138      1133      1134      1135      1138      1137      1142      1141
      1138      1137      1142      1143      1138      1139      1140      1143
      1138      1139      1140      1317      1139      1136      1313      1318
      1139      1136      1313      1314      1139      1140      1143      1142
      1139      1140      1143      1144      1139      1140      1317      1322
      1139      1140      1317      1318      1140      1143      1144      1147
      1140      1143      1144      1321      1140      1317      1322      1321
      1140      1317      1322      1323      1140      1317      1318      1313
      1140      1317      1318      1319      1141       964       967       966
      1141       964       967       968      1141      1142      1143      1140
      1141      1142      1143      1144      1141      1146      1147      1144
      1141      1146      1147      1148      1142      1137      1138      1133
      1142      1137      1138      1139      1142      1141      1146      1145
      1142      1141      1146      1147      1142      1143      1144      1147
      1142      1143      1144      1321      1143      1140      1317      1322
      1143      1140      1317      1318      1143      1144      1147      1146
      1143      1144      1147      1148      1143      1144      1321      1322
      1143      1144      1321      1326      1144      1147      1148      1151
      1144      1147      1148      1325      1144      1321      1322      1317
      1144      1321      1322      1323      1144      1321      1326      1325
      1144      1321      1326      1327      1145       968       971       970
      1145       968       971       972      1145      1146      1147      1144
      1145      1146      1147      1148      1145      1150      1151      1148
      1145      1150      1151      1152      1146      1141      1142      1137
      1146      1141      1142      1143      1146      1145      1150      1149
      1146      1145      1150      1151      1146      1147      1148      1151
      1146      1147      1148      1325      1147      1144      1321      1322
      1147      1144      1321      1326      1147      1148      1151      1150
      1147      1148      1151      1152      1147      1148      1325      1326
      1147      1148      1325      1330      1148      1151      1152      1155
      1148      1151      1152      1329      1148      1325      1326      1321
      1148      1325      1326      1327      1148      1325      1330      1329
      1148      1325      1330      1331      1149       972       975       974
      1149       972       975       976      1149      1150      1151      1148
      1149      1150      1151      1152      1149      1154      1155      1152
      1149      1154      1155      1156      1150      1145      1146      1141
      1150      1145      1146      1147      1150      1149      1154      1153
      1150      1149      1154      1155      1150      1151      1152      1155
      1150      1151      1152      1329      1151      1148      1325      1326
      1151      1148      1325      1330      1151      1152      1155      1154
      1151      1152      1155      1156      1151      1152      1329      1334
      1151      1152      1329      1330      1152      1155      1156      1159
      1152      1155      1156      1333      1152      1329      1334      1333
      1152      1329      1334      1335      1152      1329      1330      1325
      1152      1329      1330      1331      1153       976       979       978
      1153       976       979       980      1153      1154      1155      1152
      1153      1154      1155      1156      1153      1158      1159      1156
      1153      1158      1159      1160      1154      1149      1150      1145
      1154      1149      1150      1151      1154      1153      1158      1157
      1154      1153      1158      1159      1154      1155      1156      1159
      1154      1155      1156      1333      1155      1152      1329      1334
      1155      1152      1329      1330      1155      1156      1159      1158
      1155      1156      1159      1160      1155      1156      1333      1338
      1155      1156      1333      1334      1156      1159      1160      1163
      1156      1159      1160      1337      1156      1333      1338      1337
      1156      1333      1338      1339      1156      1333      1334      1329
      1156      1333      1334      1335      1157       980       983       982
      1157       980       983       984      1157      1158      1159      1156
      1157      1158      1159      1160      1157      1162      1163      1160
      1157      1162      1163      1164      1158      1153      1154      1149
      1158      1153      1154      1155      1158      1157      1162      1161
      1158      1157      1162      1163      1158      1159      1160      1163
      1158      1159      1160      1337      1159      1156      1333      1338
      1159      1156      1333      1334      1159      1160      1163      1162
      1159      1160      1163      1164      1159      1160      1337      1342
      1159      1160      1337      1338      1160      1163      1164      1167
      1160      1163      1164      1341      1160      1337      1342      1341
      1160      1337      1342      1343      1160      1337      1338      1333
      1160      1337      1338      1339      1161       984       987       986
      1161       984       987       988      1161      1162      1163      1160
      1161      1162      1163      1164      1161      1166      1167      1164
      1161      1166      1167      1168      1162      1157      1158      1153
      1162      1157      1158      1159      1162      1161      1166      1165
      1162      1161      1166      1167      1162      1163      1164      1167
      1162      1163      1164      1341      1163      1160      1337      1342
      1163      1160      1337      1338      1163      1164      1167      1166
      1163      1164      1167      1168      1163      1164      1341      1342
      1163      1164      1341      1346      1164      1167      1168      1171
      1164      1167      1168      1345      1164      1341      1342      1337
      1164      1341      1342      1343      1164      1341      1346      1345
      1164      1341      1346      1347      1165       988       991       990
      1165       988       991       992      1165      1166      1167      1164
      1165      1166      1167      1168      1165      1170      1171      1168
      1165      1170      1171      1172      1166      1161      1162      1157
      1166      1161      1162      1163      1166      1165      1170      1169
      1166      1165      1170      1171      1166      1167      1168      1171
      1166      1167      1168      1345      1167      1164      1341      1342
      1167      1164      1341      1346      1167      1168      1171      1170
      1167      1168      1171      1172      1167      1168      1345      1346
      1167      1168      1345      1350      1168      1171      1172      1175
      1168      1171      1172      1349      1168      1345      1346      1341
      1168      1345      1346      1347      1168      1345      1350      1349
      1168      1345      1350      1351      1169       992       995       994
      1169       992       995       996      1169      1170      1171      1168
      1169      1170      1171      1172      1169      1174      1175      1172
      1169      1174      1175      1176      1170      1165      1166      1161
      1170      1165      1166      1167      1170      1169      1174      1173
      1170      1169      1174      1175      1170      1171      1172      1175
      1170      1171      1172      1349      1171      1168      1345      1346
      1171      1168      1345      1350      1171      1172      1175      1174
      1171      1172      1175      1176      1171      1172      1349      1354
      1171      1172      1349      1350      1172      1175      1176      1179
      1172      1175      1176      1353      1172      1349      1354      1353
      1172      1349      1354      1355      1172      1349      1350      1345
      1172      1349      1350      1351      1173       996       999       998
      1173       996       999      1000      1173      1174      1175      1172
      1173      1174      1175      1176      1173      1178      1179      1176
      1173      1178      1179      1180      1174      1169      1170      1165
      1174      1169      1170      1171      1174      1173      1178      1177
      1174      1173      1178      1179      1174      1175      1176      1179
      1174      1175      1176      1353      1175      1172      1349      1354
      1175      1172      1349      1350      1175      1176      1179      1178
      1175      1176      1179      1180      1175      1176      1353      1358
      1175      1176      1353      1354      1176      1179      1180      1183
      1176      1179      1180      1357      1176      1353      1358      1357
      1176      1353      1358      1359      1176      1353      1354      1349
      1176      1353      1354      1355      1177      1000      1003      1002
      1177      1000      1003      1004      1177      1178      1179      1176
      1177      1178      1179      1180      1177      1182      1183      1180
      1177      1182      1183      1184      1178      1173      1174      1169
      1178      1173      1174      1175      1178      1177      1182      1181
      1178      1177      1182      1183      1178      1179      1180      1183
      1178      1179      1180      1357      1179      1176      1353      1358
      1179      1176      1353      1354      1179      1180      1183      1182
      1179      1180      1183      1184      1179      1180      1357      1362
      1179      1180      1357      1358      1180      1183      1184      1187
      1180      1183      1184      1361      1180      1357      1362      1361
      1180      1357      1362      1363      1180      1357      1358      1353
      1180      1357      1358      1359      1181      1004      1007      1006
      1181      1004      1007      1008      1181      1182      1183      1180
      1181      1182      1183      1184      1181      1186      1187      1184
      1181      1186      1187      1188      1182      1177      1178      1173
      1182      1177      1178      1179      1182      1181      1186      1185
      1182      1181      1186      1187      1182      1183      1184      1187
      1182      1183      1184      1361      1183      1180      1357      1362
      1183      1180      1357      1358      1183      1184      1187      1186
      1183      1184      1187      1188      1183      1184      1361      1362
      1183      1184      1361      1366      1184      1187      1188      1191
      1184      1187      1188      1365      1184      1361      1362      1357
      1184      1361      1362      1363      1184      1361      1366      1365
      1184      1361      1366      1367      1185      1008      1011      1010
      1185      1008      1011      1012      1185      1186      1187      1184
      1185      1186      1187      1188      1185      1190      1191      1188
      1185      1190      1191      1192      1186      1181      1182      1177
      1186      1181      1182      1183      1186      1185      1190      1189
      1186      1185      1190      1191      1186      1187      1188      1191
      1186      1187      1188      1365      1187      1184      1361      1362
      1187      1184      1361      1366      1187      1188      1191      1190
      1187      1188      1191      1192      1187      1188      1365      1366
      1187      1188      1365      1370      1188      1191      1192      1195
      1188      1191      1192      1369      1188      1365      1366      1361
      1188      1365      1366      1367      1188      1365      1370      1369
      1188      1365      1370      1371      1189      1012      1015      1014
      1189      1012      1015      1016      1189      1190      1191      1188
      1189      1190      1191      1192      1189      1194      1195      1192
      1189      1194      1195      1196      1190      1185      1186      1181
      1190      1185      1186      1187      1190      1189      1194      1193
      1190      1189      1194      1195      1190      1191      1192      1195
      1190      1191      1192      1369      1191      1188      1365      1366
      1191      1188      1365      1370      1191      1192      1195      1194
      1191      1192      1195      1196      1191      1192      1369      1374
      1191      1192      1369      1370      1192      1195      1196      1199
      1192      1195      1196      1373      1192      1369      1374      1373
      1192      1369      1374      1375      1192      1369      1370      1365
      1192      1369      1370      1371      1193      1016      1019      1018
      1193      1016      1019      1020      1193      1194      1195      1192
      1193      1194      1195      1196      1193      1198      1199      1196
      1193      1198      1199      1200      1194      1189      1190      1185
      1194      1189      1190      1191      1194      1193      1198      1197
      1194      1193      1198      1199      1194      1195      1196      1199
      1194      1195      1196      1373      1195      1192      1369      1374
      1195      1192      1369      1370      1195      1196      1199      1198
      1195      1196      1199      1200      1195      1196      1373      1378
      1195      1196      1373      1374      1196      1199      1200      1203
      1196      1199      1200      1377      1196      1373      1378      1377
      1196      1373      1378      1379      1196      1373      1374      1369
      1196      1373      1374      1375      1197      1020      1023      1022
      1197      1020      1023      1024      1197      1198      1199      1196
      1197      1198      1199      1200      1197      1202      1203      1200
      1197      1202      1203      1204      1198      1193      1194      1189
      1198      1193      1194      1195      1198      1197      1202      1201
      1198      1197      1202      1203      1198      1199      1200      1203
      1198      1199      1200      1377      1199      1196      1373      1378
      1199      1196      1373      1374      1199      1200      1203      1202
      1199      1200      1203      1204      1199      1200      1377      1382
      1199      1200      1377      1378      1200      1203      1204      1207
      1200      1203      1204      1381      1200      1377      1382      1381
      1200      1377      1382      1383      1200      1377      1378      1373
      1200      1377      1378      1379      1201      1024      1027      1026
      1201      1024      1027      1028      1201      1202      1203      1200
      1201      1202      1203      1204      1201      1206      1207      1204
      1201      1206      1207      1208      1202      1197      1198      1193
      1202      1197      1198      1199      1202      1201      1206      1205
      1202      1201      1206      1207      1202      1203      1204      1207
      1202      1203      1204      1381      1203      1200      1377      1382
      1203      1200      1377      1378      1203      1204      1207      1206
      1203      1204      1207      1208      1203      1204      1381      1382
      1203      1204      1381      1386      1204      1207      1208      1211
      1204      1207      1208      1385      1204      1381      1382      1377
      1204      1381      1382      1383      1204      1381      1386      1385
      1204      1381      1386      1387      1205      1028      1031      1030
      1205      1028      1031      1032      1205      1206      1207      1204
      1205      1206      1207      1208      1205      1210      1211      1208
      1205      1210      1211      1212      1206      1201      1202      1197
      1206      1201      1202      1203      1206      1205      1210      1209
      1206      1205      1210      1211      1206      1207      1208      1211
      1206      1207      1208      1385      1207      1204      1381      1382
      1207      1204      1381      1386      1207      1208      1211      1210
      1207      1208      1211      1212      1207      1208      1385      1386
      1207      1208      1385      1390      1208      1211      1212      1215
      1208      1211      1212      1389      1208      1385      1386      1381
      1208      1385      1386      1387      1208      1385      1390      1389
      1208      1385      1390      1391      1209      1032      1035      1034
      1209      1032      1035      1036      1209      1210      1211      1208
      1209      1210      1211      1212      1209      1214      1215      1212
      1209      1214      1215      1216      1210      1205      1206      1201
      1210      1205      1206      1207      1210      1209      1214      1213
      1210      1209      1214      1215      1210      1211      1212      1215
      1210      1211      1212      1389      1211      1208      1385      1386
      1211      1208      1385      1390      1211      1212      1215      1214
      1211      1212      1215      1216      1211      1212      1389      1394
      1211      1212      1389      1390      1212      1215      1216      1219
      1212      1215      1216      1393      1212      1389      1394      1393
      1212      1389      1394      1395      1212      1389      1390      1385
      1212      1389      1390      1391      1213      1036      1039      1038
      1213      1036      1039      1040      1213      1214      1215      1212
      1213      1214      1215      1216      1213      1218      1219      1216
      1213      1218      1219      1220      1214      1209      1210      1205
      1214      1209      1210      1211      1214      1213      1218      1217
      1214      1213      1218      1219      1214      1215      1216      1219
      1214      1215      1216      1393      1215      1212      1389      1394
      1215      1212      1389      1390      1215      1216      1219      1218
      1215      1216      1219      1220      1215      1216      1393      1398
      1215      1216      1393      1394      1216      1219      1220      1223
      1216      1219      1220      1397      1216      1393      1398      1397
      1216      1393      1398      1399      1216      1393      1394      1389
      1216      1393      1394      1395      1217      1040      1043      1042
      1217      1040      1043      1044      1217      1218      1219      1216
      1217      1218      1219      1220      1217      1222      1223      1220
      1217      1222      1223      1224      1218      1213      1214      1209
      1218      1213      1214      1215      1218      1217      1222      1221
      1218      1217      1222      1223      1218      1219      1220      1223
      1218      1219      1220      1397      1219      1216      1393      1398
      1219      1216      1393      1394      1219      1220      1223      1222
      1219      1220      1223      1224      1219      1220      1397      1402
      1219      1220      1397      1398      1220      1223      1224      1227
      1220      1223      1224      1401      1220      1397      1402      1401
      1220      1397      1402      1403      1220      1397      1398      1393
      1220      1397      1398      1399      1221      1044      1047      1046
      1221      1044      1047      1048      1221      1222      1223      1220
      1221      1222      1223      1224      1221      1226      1227      1224
      1221      1226      1227      1228      1222      1217      1218      1213
      1222      1217      1218      1219      1222      1221      1226      1225
      1222      1221      1226      1227      1222      1223      1224      1227
      1222      1223      1224      1401      1223      1220      1397      1402
      1223      1220      1397      1398      1223      1224      1227      1226
      1223      1224      1227      1228      1223      1224      1401      1402
      1223      1224      1401      1406      1224      1227      1228      1231
      1224      1227      1228      1405      1224      1401      1402      1397
      1224      1401      1402      1403      1224      1401      1406      1405
      1224      1401      1406      1407      1225      1048      1051      1050
      1225      1048      1051      1052      1225      1226      1227      1224
      1225      1226      1227      1228      1225      1230      1231      1228
      1225      1230      1231      1232      1226      1221      1222      1217
      1226      1221      1222      1223      1226      1225      1230      1229
      1226      1225      1230      1231      1226      1227      1228      1231
      1226      1227      1228      1405      1227      1224      1401      1402
      1227      1224      1401      1406      1227      1228      1231      1230
      1227      1228      1231      1232      1227      1228      1405      1406
      1227      1228      1405      1410      1228      1231      1232      1235
      1228      1231      1232      1409      1228      1405      1406      1401
      1228      1405      1406      1407      1228      1405      1410      1409
      1228      1405      1410      1411      1229      1052      1055      1054
      1229      1052      1055      1056      1229      1230      1231      1228
      1229      1230      1231      1232      1229      1234      1235      1232
      1229      1234      1235      1236      1230      1225      1226      1221
      1230      1225      1226      1227      1230      1229      1234      1233
      1230      1229      1234      1235      1230      1231      1232      1235
      1230      1231      1232      1409      1231      1228      1405      1406
      1231      1228      1405      1410      1231      1232      1235      1234
      1231      1232      1235      1236      1231      1232      1409      1414
      1231      1232      1409      1410      1232      1235      1236      1239
      1232      1235      1236      1413      1232      1409      1414      1413
      1232      1409      1414      1415      1232      1409      1410      1405
      1232      1409      1410      1411      1233      1056      1059      1058
      1233      1056      1059      1060      1233      1234      1235      1232
      1233      1234      1235      1236      1233      1238      1239      1236
      1233      1238      1239      1240      1234      1229      1230      1225
      1234      1229      1230      1231      1234      1233      1238      1237
      1234      1233      1238      1239      1234      1235      1236      1239
      1234      1235      1236      1413      1235      1232      1409      1414
      1235      1232      1409      1410      1235      1236      1239      1238
      1235      1236      1239      1240      1235      1236      1413      1418
      1235      1236      1413      1414      1236      1239      1240      1243
      1236      1239      1240      1417      1236      1413      1418      1417
      1236      1413      1418      1419      1236      1413      1414      1409
      1236      1413      1414      1415      1237      1060      1063      1062
      1237      1060      1063      1064      1237      1238      1239      1236
      1237      1238      1239      1240      1237      1242      1243      1240
      1237      1242      1243      1244      1238      1233      1234      1229
      1238      1233      1234      1235      1238      1237      1242      1241
      1238      1237      1242      1243      1238      1239      1240      1243
      1238      1239      1240      1417      1239      1236      1413      1418
      1239      1236      1413      1414      1239      1240      1243      1242
      1239      1240      1243      1244      1239      1240      1417      1422
      1239      1240      1417      1418      1240      1243      1244      1247
      1240      1243      1244      1421      1240      1417      1422      1421
      1240      1417      1422      1423      1240      1417      1418      1413
      1240      1417      1418      1419      1241      1064      1067      1066
      1241      1064      1067      1068      1241      1242      1243      1240
      1241      1242      1243      1244      1241      1246      1247      1244
      1241      1246      1247      1248      1242      1237      1238      1233
      1242      1237      1238      1239      1242      1241      1246      1245
      1242      1241      1246      1247      1242      1243      1244      1247
      1242      1243      1244      1421      1243      1240      1417      1422
      1243      1240      1417      1418      1243      1244      1247      1246
      1243      1244      1247      1248      1243      1244      1421      1422
      1243      1244      1421      1426      1244      1247      1248      1251
      1244      1247      1248      1425      1244      1421      1422      1417
      1244      1421      1422      1423      1244      1421      1426      1425
      1244      1421      1426      1427      1245      1068      1071      1070
      1245      1068      1071      1072      1245      1246      1247      1244
      1245      1246      1247      1248      1245      1250      1251      1248
      1245      1250      1251      1252      1246      1241      1242      1237
      1246      1241      1242      1243      1246      1245      1250      1249
      1246      1245      1250      1251      1246      1247      1248      1251
      1246      1247      1248      1425      1247      1244      1421      1422
      1247      1244      1421      1426      1247      1248      1251      1250
      1247      1248      1251      1252      1247      1248      1425      1426
      1247      1248      1425      1430      1248      1251      1252      1255
      1248      1251      1252      1429      1248      1425      1426      1421
      1248      1425      1426      1427      1248      1425      1430      1429
      1248      1425      1430      1431      1249      1072      1075      1074
      1249      1072      1075      1076      1249      1250      1251      1248
      1249      1250      1251      1252      1249      1254      1255      1252
      1249      1254      1255      1256      1250      1245      1246      1241
      1250      1245      1246      1247      1250      1249      1254      1253
      1250      1249      1254      1255      1250      1251      1252      1255
      1250      1251      1252      1429      1251      1248      1425      1426
      1251      1248      1425      1430      1251      1252      1255      1254
      1251      1252      1255      1256      1251      1252      1429      1434
      1251      1252      1429      1430      1252      1255      1256      1259
      1252      1255      1256      1433      1252      1429      1434      1433
      1252      1429      1434      1435      1252      1429      1430      1425
      1252      1429      1430      1431      1253      1076      1079      1078
      1253      1076      1079      1080      1253      1254      1255      1252
      1253      1254      1255      1256      1253      1258      1259      1256
      1253      1258      1259      1260      1254      1249      1250      1245
      1254      1249      1250      1251      1254      1253      1258      1257
      1254      1253      1258      1259      1254      1255      1256      1259
      1254      1255      1256      1433      1255      1252      1429      1434
      1255      1252      1429      1430      1255      1256      1259      1258
      1255      1256      1259      1260      1255      1256      1433      1438
      1255      1256      1433      1434      1256      1259      1260      1437
      1256      1433      1438      1437      1256      1433      1438      1439
      1256      1433      1434      1429      1256      1433      1434      1435
      1257      1258      1259      1256      1257      1258      1259      1260
      1258      1253      1254      1249      1258      1253      1254      1255
      1258      1259      1260      1437      1259      1256      1433      1438
      1259      1256      1433      1434      1259      1260      1437      1438
      1260      1437      1438      1433      1260      1437      1438      1439
      1261      1084      1087      1086      1261      1084      1087      1088
      1261      1262      1263      1264      1261      1266      1267      1264
      1261      1266      1267      1268      1262      1261      1266      1265
      1262      1261      1266      1267      1262      1263      1264      1267
      1262      1263      1264      1441      1263      1264      1267      1266
      1263      1264      1267      1268      1263      1264      1441      1442
      1263      1264      1441      1446      1264      1267      1268      1271
      1264      1267      1268      1445      1264      1441      1442      1443
      1264      1441      1446      1445      1264      1441      1446      1447
      1265      1088      1091      1090      1265      1088      1091      1092
      1265      1266      1267      1264      1265      1266      1267      1268
      1265      1270      1271      1268      1265      1270      1271      1272
      1266      1261      1262      1263      1266      1265      1270      1269
      1266      1265      1270      1271      1266      1267      1268      1271
      1266      1267      1268      1445      1267      1264      1441      1442
      1267      1264      1441      1446      1267      1268      1271      1270
      1267      1268      1271      1272      1267      1268      1445      1446
      1267      1268      1445      1450      1268      1271      1272      1275
      1268      1271      1272      1449      1268      1445      1446      1441
      1268      1445      1446      1447      1268      1445      1450      1449
      1268      1445      1450      1451      1269      1092      1095      1094
      1269      1092      1095      1096      1269      1270      1271      1268
      1269      1270      1271      1272      1269      1274      1275      1272
      1269      1274      1275      1276      1270      1265      1266      1261
      1270      1265      1266      1267      1270      1269      1274      1273
      1270      1269      1274      1275      1270      1271      1272      1275
      1270      1271      1272      1449      1271      1268      1445      1446
      1271      1268      1445      1450      1271      1272      1275      1274
      1271      1272      1275      1276      1271      1272      1449      1454
      1271      1272      1449      1450      1272      1275      1276      1279
      1272      1275      1276      1453      1272      1449      1454      1453
      1272      1449      1454      1455      1272      1449      1450      1445
      1272      1449      1450      1451      1273      1096      1099      1098
      1273      1096      1099      1100      1273      1274      1275      1272
      1273      1274      1275      1276      1273      1278      1279      1276
      1273      1278      1279      1280      1274      1269      1270      1265
      1274      1269      1270      1271      1274      1273      1278      1277
      1274      1273      1278      1279      1274      1275      1276      1279
      1274      1275      1276      1453      1275      1272      1449      1454
      1275      1272      1449      1450      1275      1276      1279      1278
      1275      1276      1279      1280      1275      1276      1453      1458
      1275      1276      1453      1454      1276      1279      1280      1283
      1276      1279      1280      1457      1276      1453      1458      1457
      1276      1453      1458      1459      1276      1453      1454      1449
      1276      1453      1454      1455      1277      1100      1103      1102
      1277      1100      1103      1104      1277      1278      1279      1276
      1277      1278      1279      1280      1277      1282      1283      1280
      1277      1282      1283      1284      1278      1273      1274      1269
      1278      1273      1274      1275      1278      1277      1282      1281
      1278      1277      1282      1283      1278      1279      1280      1283
      1278      1279      1280      1457      1279      1276      1453      1458
      1279      1276      1453      1454      1279      1280      1283      1282
      1279      1280      1283      1284      1279      1280      1457      1462
      1279      1280      1457      1458      1280      1283      1284      1287
      1280      1283      1284      1461      1280      1457      1462      1461
      1280      1457      1462      1463      1280      1457      1458      1453
      1280      1457      1458      1459      1281      1104      1107      1106
      1281      1104      1107      1108      1281      1282      1283      1280
      1281      1282      1283      1284      1281      1286      1287      1284
      1281      1286      1287      1288      1282      1277      1278      1273
      1282      1277      1278      1279      1282      1281      1286      1285
      1282      1281      1286      1287      1282      1283      1284      1287
      1282      1283      1284      1461      1283      1280      1457      1462
      1283      1280      1457      1458      1283      1284      1287      1286
      1283      1284      1287      1288      1283      1284      1461      1462
      1283      1284      1461      1466      1284      1287      1288      1291
      1284      1287      1288      1465      1284      1461      1462      1457
      1284      1461      1462      1463      1284      1461      1466      1465
      1284      1461      1466      1467      1285      1108      1111      1110
      1285      1108      1111      1112      1285      1286      1287      1284
      1285      1286      1287      1288      1285      1290      1291      1288
      1285      1290      1291      1292      1286      1281      1282      1277
      1286      1281      1282      1283      1286      1285      1290      1289
      1286      1285      1290      1291      1286      1287      1288      1291
      1286      1287      1288      1465      1287      1284      1461      1462
      1287      1284      1461      1466      1287      1288      1291      1290
      1287      1288      1291      1292      1287      1288      1465      1466
      1287      1288      1465      1470      1288      1291      1292      1295
      1288      1291      1292      1469      1288      1465      1466      1461
      1288      1465      1466      1467      1288      1465      1470      1469
      1288      1465      1470      1471      1289      1112      1115      1114
      1289      1112      1115      1116      1289      1290      1291      1288
      1289      1290      1291      1292      1289      1294      1295      1292
      1289      1294      1295      1296      1290      1285      1286      1281
      1290      1285      1286      1287      1290      1289      1294      1293
      1290      1289      1294      1295      1290      1291      1292      1295
      1290      1291      1292      1469      1291      1288      1465      1466
      1291      1288      1465      1470      1291      1292      1295      1294
      1291      1292      1295      1296      1291      1292      1469      1474
      1291      1292      1469      1470      1292      1295      1296      1299
      1292      1295      1296      1473      1292      1469      1474      1473
      1292      1469      1474      1475      1292      1469      1470      1465
      1292      1469      1470      1471      1293      1116      1119      1118
      1293      1116      1119      1120      1293      1294      1295      1292
      1293      1294      1295      1296      1293      1298      1299      1296
      1293      1298      1299      1300      1294      1289      1290      1285
      1294      1289      1290      1291      1294      1293      1298      1297
      1294      1293      1298      1299      1294      1295      1296      1299
      1294      1295      1296      1473      1295      1292      1469      1474
      1295      1292      1469      1470      1295      1296      1299      1298
      1295      1296      1299      1300      1295      1296      1473      1478
      1295      1296      1473      1474      1296      1299      1300      1303
      1296      1299      1300      1477      1296      1473      1478      1477
      1296      1473      1478      1479      1296      1473      1474      1469
      1296      1473      1474      1475      1297      1120      1123      1122
      1297      1120      1123      1124      1297      1298      1299      1296
      1297      1298      1299      1300      1297      1302      1303      1300
      1297      1302      1303      1304      1298      1293      1294      1289
      1298      1293      1294      1295      1298      1297      1302      1301
      1298      1297      1302      1303      1298      1299      1300      1303
      1298      1299      1300      1477      1299      1296      1473      1478
      1299      1296      1473      1474      1299      1300      1303      1302
      1299      1300      1303      1304      1299      1300      1477      1482
      1299      1300      1477      1478      1300      1303      1304      1307
      1300      1303      1304      1481      1300      1477      1482      1481
      1300      1477      1482      1483      1300      1477      1478      1473
      1300      1477      1478      1479      1301      1124      1127      1126
      1301      1124      1127      1128      1301      1302      1303      1300
      1301      1302      1303      1304      1301      1306      1307      1304
      1301      1306      1307      1308      1302      1297      1298      1293
      1302      1297      1298      1299      1302      1301      1306      1305
      1302      1301      1306      1307      1302      1303      1304      1307
      1302      1303      1304      1481      1303      1300      1477      1482
      1303      1300      1477      1478      1303      1304      1307      1306
      1303      1304      1307      1308      1303      1304      1481      1482
      1303      1304      1481      1486      1304      1307      1308      1311
      1304      1307      1308      1485      1304      1481      1482      1477
      1304      1481      1482      1483      1304      1481      1486      1485
      1304      1481      1486      1487      1305      1128      1131      1130
      1305      1128      1131      1132      1305      1306      1307      1304
      1305      1306      1307      1308      1305      1310      1311      1308
      1305      1310      1311      1312      1306      1301      1302      1297
      1306      1301      1302      1303      1306      1305      1310      1309
      1306      1305      1310      1311      1306      1307      1308      1311
      1306      1307      1308      1485      1307      1304      1481      1482
      1307      1304      1481      1486      1307      1308      1311      1310
      1307      1308      1311      1312      1307      1308      1485      1486
      1307      1308      1485      1490      1308      1311      1312      1315
      1308      1311      1312      1489      1308      1485      1486      1481
      1308      1485      1486      1487      1308      1485      1490      1489
      1308      1485      1490      1491      1309      1132      1135      1134
      1309      1132      1135      1136      1309      1310      1311      1308
      1309      1310      1311      1312      1309      1314      1315      1312
      1309      1314      1315      1316      1310      1305      1306      1301
      1310      1305      1306      1307      1310      1309      1314      1313
      1310      1309      1314      1315      1310      1311      1312      1315
      1310      1311      1312      1489      1311      1308      1485      1486
      1311      1308      1485      1490      1311      1312      1315      1314
      1311      1312      1315      1316      1311      1312      1489      1494
      1311      1312      1489      1490      1312      1315      1316      1319
      1312      1315      1316      1493      1312      1489      1494      1493
      1312      1489      1494      1495      1312      1489      1490      1485
      1312      1489      1490      1491      1313      1136      1139      1138
      1313      1136      1139      1140      1313      1314      1315      1312
      1313      1314      1315      1316      1313      1318      1319      1316
      1313      1318      1319      1320      1314      1309      1310      1305
      1314      1309      1310      1311      1314      1313      1318      1317
      1314      1313      1318      1319      1314      1315      1316      1319
      1314      1315      1316      1493      1315      1312      1489      1494
      1315      1312      1489      1490      1315      1316      1319      1318
      1315      1316      1319      1320      1315      1316      1493      1494
      1315      1316      1493      1498      1316      1319      1320      1323
      1316      1319      1320      1497      1316      1493      1494      1489
      1316      1493      1494      1495      1316      1493      1498      1497
      1316      1493      1498      1499      1317      1140      1143      1142
      1317      1140      1143      1144      1317      1318      1319      1316
      1317      1318      1319      1320      1317      1322      1323      1320
      1317      1322      1323      1324      1318      1313      1314      1309
      1318      1313      1314      1315      1318      1317      1322      1321
      1318      1317      1322      1323      1318      1319      1320      1323
      1318      1319      1320      1497      1319      1316      1493      1494
      1319      1316      1493      1498      1319      1320      1323      1322
      1319      1320      1323      1324      1319      1320      1497      1498
      1319      1320      1497      1502      1320      1323      1324      1327
      1320      1323      1324      1501      1320      1497      1498      1493
      1320      1497      1498      1499      1320      1497      1502      1501
      1320      1497      1502      1503      1321      1144      1147      1146
      1321      1144      1147      1148      1321      1322      1323      1320
      1321      1322      1323      1324      1321      1326      1327      1324
      1321      1326      1327      1328      1322      1317      1318      1313
      1322      1317      1318      1319      1322      1321      1326      1325
      1322      1321      1326      1327      1322      1323      1324      1327
      1322      1323      1324      1501      1323      1320      1497      1498
      1323      1320      1497      1502      1323      1324      1327      1326
      1323      1324      1327      1328      1323      1324      1501      1502
      1323      1324      1501      1506      1324      1327      1328      1331
      1324      1327      1328      1505      1324      1501      1502      1497
      1324      1501      1502      1503      1324      1501      1506      1505
      1324      1501      1506      1507      1325      1148      1151      1150
      1325      1148      1151      1152      1325      1326      1327      1324
      1325      1326      1327      1328      1325      1330      1331      1328
      1325      1330      1331      1332      1326      1321      1322      1317
      1326      1321      1322      1323      1326      1325      1330      1329
      1326      1325      1330      1331      1326      1327      1328      1331
      1326      1327      1328      1505      1327      1324      1501      1502
      1327      1324      1501      1506      1327      1328      1331      1330
      1327      1328      1331      1332      1327      1328      1505      1506
      1327      1328      1505      1510      1328      1331      1332      1335
      1328      1331      1332      1509      1328      1505      1506      1501
      1328      1505      1506      1507      1328      1505      1510      1509
      1328      1505      1510      1511      1329      1152      1155      1154
      1329      1152      1155      1156      1329      1330      1331      1328
      1329      1330      1331      1332      1329      1334      1335      1332
      1329      1334      1335      1336      1330      1325      1326      1321
      1330      1325      1326      1327      1330      1329      1334      1333
      1330      1329      1334      1335      1330      1331      1332      1335
      1330      1331      1332      1509      1331      1328      1505      1506
      1331      1328      1505      1510      1331      1332      1335      1334
      1331      1332      1335      1336      1331      1332      1509      1510
      1331      1332      1509      1514      1332      1335      1336      1339
      1332      1335      1336      1513      1332      1509      1510      1505
      1332      1509      1510      1511      1332      1509      1514      1513
      1332      1509      1514      1515      1333      1156      1159      1158
      1333      1156      1159      1160      1333      1334      1335      1332
      1333      1334      1335      1336      1333      1338      1339      1336
      1333      1338      1339      1340      1334      1329      1330      1325
      1334      1329      1330      1331      1334      1333      1338      1337
      1334      1333      1338      1339      1334      1335      1336      1339
      1334      1335      1336      1513      1335      1332      1509      1510
      1335      1332      1509      1514      1335      1336      1339      1338
      1335      1336      1339      1340      1335      1336      1513      1514
      1335      1336      1513      1518      1336      1339      1340      1343
      1336      1339      1340      1517      1336      1513      1514      1509
      1336      1513      1514      1515      1336      1513      1518      1517
      1336      1513      1518      1519      1337      1160      1163      1162
      1337      1160      1163      1164      1337      1338      1339      1336
      1337      1338      1339      1340      1337      1342      1343      1340
      1337      1342      1343      1344      1338      1333      1334      1329
      1338      1333      1334      1335      1338      1337      1342      1341
      1338      1337      1342      1343      1338      1339      1340      1343
      1338      1339      1340      1517      1339      1336      1513      1514
      1339      1336      1513      1518      1339      1340      1343      1342
      1339      1340      1343      1344      1339      1340      1517      1522
      1339      1340      1517      1518      1340      1343      1344      1347
      1340      1343      1344      1521      1340      1517      1522      1521
      1340      1517      1522      1523      1340      1517      1518      1513
      1340      1517      1518      1519      1341      1164      1167      1166
      1341      1164      1167      1168      1341      1342      1343      1340
      1341      1342      1343      1344      1341      1346      1347      1344
      1341      1346      1347      1348      1342      1337      1338      1333
      1342      1337      1338      1339      1342      1341      1346      1345
      1342      1341      1346      1347      1342      1343      1344      1347
      1342      1343      1344      1521      1343      1340      1517      1522
      1343      1340      1517      1518      1343      1344      1347      1346
      1343      1344      1347      1348      1343      1344      1521      1522
      1343      1344      1521      1526      1344      1347      1348      1351
      1344      1347      1348      1525      1344      1521      1522      1517
      1344      1521      1522      1523      1344      1521      1526      1525
      1344      1521      1526      1527      1345      1168      1171      1170
      1345      1168      1171      1172      1345      1346      1347      1344
      1345      1346      1347      1348      1345      1350      1351      1348
      1345      1350      1351      1352      1346      1341      1342      1337
      1346      1341      1342      1343      1346      1345      1350      1349
      1346      1345      1350      1351      1346      1347      1348      1351
      1346      1347      1348      1525      1347      1344      1521      1522
      1347      1344      1521      1526      1347      1348      1351      1350
      1347      1348      1351      1352      1347      1348      1525      1526
      1347      1348      1525      1530      1348      1351      1352      1355
      1348      1351      1352      1529      1348      1525      1526      1521
      1348      1525      1526      1527      1348      1525      1530      1529
      1348      1525      1530      1531      1349      1172      1175      1174
      1349      1172      1175      1176      1349      1350      1351      1348
      1349      1350      1351      1352      1349      1354      1355      1352
      1349      1354      1355      1356      1350      1345      1346      1341
      1350      1345      1346      1347      1350      1349      1354      1353
      1350      1349      1354      1355      1350      1351      1352      1355
      1350      1351      1352      1529      1351      1348      1525      1526
      1351      1348      1525      1530      1351      1352      1355      1354
      1351      1352      1355      1356      1351      1352      1529      1534
      1351      1352      1529      1530      1352      1355      1356      1359
      1352      1355      1356      1533      1352      1529      1534      1533
      1352      1529      1534      1535      1352      1529      1530      1525
      1352      1529      1530      1531      1353      1176      1179      1178
      1353      1176      1179      1180      1353      1354      1355      1352
      1353      1354      1355      1356      1353      1358      1359      1356
      1353      1358      1359      1360      1354      1349      1350      1345
      1354      1349      1350      1351      1354      1353      1358      1357
      1354      1353      1358      1359      1354      1355      1356      1359
      1354      1355      1356      1533      1355      1352      1529      1534
      1355      1352      1529      1530      1355      1356      1359      1358
      1355      1356      1359      1360      1355      1356      1533      1538
      1355      1356      1533      1534      1356      1359      1360      1363
      1356      1359      1360      1537      1356      1533      1538      1537
      1356      1533      1538      1539      1356      1533      1534      1529
      1356      1533      1534      1535      1357      1180      1183      1182
      1357      1180      1183      1184      1357      1358      1359      1356
      1357      1358      1359      1360      1357      1362      1363      1360
      1357      1362      1363      1364      1358      1353      1354      1349
      1358      1353      1354      1355      1358      1357      1362      1361
      1358      1357      1362      1363      1358      1359      1360      1363
      1358      1359      1360      1537      1359      1356      1533      1538
      1359      1356      1533      1534      1359      1360      1363      1362
      1359      1360      1363      1364      1359      1360      1537      1542
      1359      1360      1537      1538      1360      1363      1364      1367
      1360      1363      1364      1541      1360      1537      1542      1541
      1360      1537      1542      1543      1360      1537      1538      1533
      1360      1537      1538      1539      1361      1184      1187      1186
      1361      1184      1187      1188      1361      1362      1363      1360
      1361      1362      1363      1364      1361      1366      1367      1364
      1361      1366      1367      1368      1362      1357      1358      1353
      1362      1357      1358      1359      1362      1361      1366      1365
      1362      1361      1366      1367      1362      1363      1364      1367
      1362      1363      1364      1541      1363      1360      1537      1542
      1363      1360      1537      1538      1363      1364      1367      1366
      1363      1364      1367      1368      1363      1364      1541      1542
      1363      1364      1541      1546      1364      1367      1368      1371
      1364      1367      1368      1545      1364      1541      1542      1537
      1364      1541      1542      1543      1364      1541      1546      1545
      1364      1541      1546      1547      1365      1188      1191      1190
      1365      1188      1191      1192      1365      1366      1367      1364
      1365      1366      1367      1368      1365      1370      1371      1368
      1365      1370      1371      1372      1366      1361      1362      1357
      1366      1361      1362      1363      1366      1365      1370      1369
      1366      1365      1370      1371      1366      1367      1368      1371
      1366      1367      1368      1545      1367      1364      1541      1542
      1367      1364      1541      1546      1367      1368      1371      1370
      1367      1368      1371      1372      1367      1368      1545      1546
      1367      1368      1545      1550      1368      1371      1372      1375
      1368      1371      1372      1549      1368      1545      1546      1541
      1368      1545      1546      1547      1368      1545      1550      1549
      1368      1545      1550      1551      1369      1192      1195      1194
      1369      1192      1195      1196      1369      1370      1371      1368
      1369      1370      1371      1372      1369      1374      1375      1372
      1369      1374      1375      1376      1370      1365      1366      1361
      1370      1365      1366      1367      1370      1369      1374      1373
      1370      1369      1374      1375      1370      1371      1372      1375
      1370      1371      1372      1549      1371      1368      1545      1546
      1371      1368      1545      1550      1371      1372      1375      1374
      1371      1372      1375      1376      1371      1372      1549      1554
      1371      1372      1549      1550      1372      1375      1376      1379
      1372      1375      1376      1553      1372      1549      1554      1553
      1372      1549      1554      1555      1372      1549      1550      1545
      1372      1549      1550      1551      1373      1196      1199      1198
      1373      1196      1199      1200      1373      1374      1375      1372
      1373      1374      1375      1376      1373      1378      1379      1376
      1373      1378      1379      1380      1374      1369      1370      1365
      1374      1369      1370      1371      1374      1373      1378      1377
      1374      1373      1378      1379      1374      1375      1376      1379
      1374      1375      1376      1553      1375      1372      1549      1554
      1375      1372      1549      1550      1375      1376      1379      1378
      1375      1376      1379      1380      1375      1376      1553      1558
      1375      1376      1553      1554      1376      1379      1380      1383
      1376      1379      1380      1557      1376      1553      1558      1557
      1376      1553      1558      1559      1376      1553      1554      1549
      1376      1553      1554      1555      1377      1200      1203      1202
      1377      1200      1203      1204      1377      1378      1379      1376
      1377      1378      1379      1380      1377      1382      1383      1380
      1377      1382      1383      1384      1378      1373      1374      1369
      1378      1373      1374      1375      1378      1377      1382      1381
      1378      1377      1382      1383      1378      1379      1380      1383
      1378      1379      1380      1557      1379      1376      1553      1558
      1379      1376      1553      1554      1379      1380      1383      1382
      1379      1380      1383      1384      1379      1380      1557      1562
      1379      1380      1557      1558      1380      1383      1384      1387
      1380      1383      1384      1561      1380      1557      1562      1561
      1380      1557      1562      1563      1380      1557      1558      1553
      1380      1557      1558      1559      1381      1204      1207      1206
      1381      1204      1207      1208      1381      1382      1383      1380
      1381      1382      1383      1384      1381      1386      1387      1384
      1381      1386      1387      1388      1382      1377      1378      1373
      1382      1377      1378      1379      1382      1381      1386      1385
      1382      1381      1386      1387      1382      1383      1384      1387
      1382      1383      1384      1561      1383      1380      1557      1562
      1383      1380      1557      1558      1383      1384      1387      1386
      1383      1384      1387      1388      1383      1384      1561      1562
      1383      1384      1561      1566      1384      1387      1388      1391
      1384      1387      1388      1565      1384      1561      1562      1557
      1384      1561      1562      1563      1384      1561      1566      1565
      1384      1561      1566      1567      1385      1208      1211      1210
      1385      1208      1211      1212      1385      1386      1387      1384
      1385      1386      1387      1388      1385      1390      1391      1388
      1385      1390      1391      1392      1386      1381      1382      1377
      1386      1381      1382      1383      1386      1385      1390      1389
      1386      1385      1390      1391      1386      1387      1388      1391
      1386      1387      1388      1565      1387      1384      1561      1562
      1387      1384      1561      1566      1387      1388      1391      1390
      1387      1388      1391      1392      1387      1388      1565      1566
      1387      1388      1565      1570      1388      1391      1392      1395
      1388      1391      1392      1569      1388      1565      1566      1561
      1388      1565      1566      1567      1388      1565      1570      1569
      1388      1565      1570      1571      1389      1212      1215      1214
      1389      1212      1215      1216      1389      1390      1391      1388
      1389      1390      1391      1392      1389      1394      1395      1392
      1389      1394      1395      1396      1390      1385      1386      1381
      1390      1385      1386      1387      1390      1389      1394      1393
      1390      1389      1394      1395      1390      1391      1392      1395
      1390      1391      1392      1569      1391      1388      1565      1566
      1391      1388      1565      1570      1391      1392      1395      1394
      1391      1392      1395      1396      1391      1392      1569      1570
      1391      1392      1569      1574      1392      1395      1396      1399
      1392      1395      1396      1573      1392      1569      1570      1565
      1392      1569      1570      1571      1392      1569      1574      1573
      1392      1569      1574      1575      1393      1216      1219      1218
      1393      1216      1219      1220      1393      1394      1395      1392
      1393      1394      1395      1396      1393      1398      1399      1396
      1393      1398      1399      1400      1394      1389      1390      1385
      1394      1389      1390      1391      1394      1393      1398      1397
      1394      1393      1398      1399      1394      1395      1396      1399
      1394      1395      1396      1573      1395      1392      1569      1570
      1395      1392      1569      1574      1395      1396      1399      1398
      1395      1396      1399      1400      1395      1396      1573      1574
      1395      1396      1573      1578      1396      1399      1400      1403
      1396      1399      1400      1577      1396      1573      1574      1569
      1396      1573      1574      1575      1396      1573      1578      1577
      1396      1573      1578      1579      1397      1220      1223      1222
      1397      1220      1223      1224      1397      1398      1399      1396
      1397      1398      1399      1400      1397      1402      1403      1400
      1397      1402      1403      1404      1398      1393      1394      1389
      1398      1393      1394      1395      1398      1397      1402      1401
      1398      1397      1402      1403      1398      1399      1400      1403
      1398      1399      1400      1577      1399      1396      1573      1574
      1399      1396      1573      1578      1399      1400      1403      1402
      1399      1400      1403      1404      1399      1400      1577      1578
      1399      1400      1577      1582      1400      1403      1404      1407
      1400      1403      1404      1581      1400      1577      1578      1573
      1400      1577      1578      1579      1400      1577      1582      1581
      1400      1577      1582      1583      1401      1224      1227      1226
      1401      1224      1227      1228      1401      1402      1403      1400
      1401      1402      1403      1404      1401      1406      1407      1404
      1401      1406      1407      1408      1402      1397      1398      1393
      1402      1397      1398      1399      1402      1401      1406      1405
      1402      1401      1406      1407      1402      1403      1404      1407
      1402      1403      1404      1581      1403      1400      1577      1578
      1403      1400      1577      1582      1403      1404      1407      1406
      1403      1404      1407      1408      1403      1404      1581      1582
      1403      1404      1581      1586      1404      1407      1408      1411
      1404      1407      1408      1585      1404      1581      1582      1577
      1404      1581      1582      1583      1404      1581      1586      1585
      1404      1581      1586      1587      1405      1228      1231      1230
      1405      1228      1231      1232      1405      1406      1407      1404
      1405      1406      1407      1408      1405      1410      1411      1408
      1405      1410      1411      1412      1406      1401      1402      1397
      1406      1401      1402      1403      1406      1405      1410      1409
      1406      1405      1410      1411      1406      1407      1408      1411
      1406      1407      1408      1585      1407      1404      1581      1582
      1407      1404      1581      1586      1407      1408      1411      1410
      1407      1408      1411      1412      1407      1408      1585      1586
      1407      1408      1585      1590      1408      1411      1412      1415
      1408      1411      1412      1589      1408      1585      1586      1581
      1408      1585      1586      1587      1408      1585      1590      1589
      1408      1585      1590      1591      1409      1232      1235      1234
      1409      1232      1235      1236      1409      1410      1411      1408
      1409      1410      1411      1412      1409      1414      1415      1412
      1409      1414      1415      1416      1410      1405      1406      1401
      1410      1405      1406      1407      1410      1409      1414      1413
      1410      1409      1414      1415      1410      1411      1412      1415
      1410      1411      1412      1589      1411      1408      1585      1586
      1411      1408      1585      1590      1411      1412      1415      1414
      1411      1412      1415      1416      1411      1412      1589      1594
      1411      1412      1589      1590      1412      1415      1416      1419
      1412      1415      1416      1593      1412      1589      1594      1593
      1412      1589      1594      1595      1412      1589      1590      1585
      1412      1589      1590      1591      1413      1236      1239      1238
      1413      1236      1239      1240      1413      1414      1415      1412
      1413      1414      1415      1416      1413      1418      1419      1416
      1413      1418      1419      1420      1414      1409      1410      1405
      1414      1409      1410      1411      1414      1413      1418      1417
      1414      1413      1418      1419      1414      1415      1416      1419
      1414      1415      1416      1593      1415      1412      1589      1594
      1415      1412      1589      1590      1415      1416      1419      1418
      1415      1416      1419      1420      1415      1416      1593      1598
      1415      1416      1593      1594      1416      1419      1420      1423
      1416      1419      1420      1597      1416      1593      1598      1597
      1416      1593      1598      1599      1416      1593      1594      1589
      1416      1593      1594      1595      1417      1240      1243      1242
      1417      1240      1243      1244      1417      1418      1419      1416
      1417      1418      1419      1420      1417      1422      1423      1420
      1417      1422      1423      1424      1418      1413      1414      1409
      1418      1413      1414      1415      1418      1417      1422      1421
      1418      1417      1422      1423      1418      1419      1420      1423
      1418      1419      1420      1597      1419      1416      1593      1598
      1419      1416      1593      1594      1419      1420      1423      1422
      1419      1420      1423      1424      1419      1420      1597      1602
      1419      1420      1597      1598      1420      1423      1424      1427
      1420      1423      1424      1601      1420      1597      1602      1601
      1420      1597      1602      1603      1420      1597      1598      1593
      1420      1597      1598      1599      1421      1244      1247      1246
      1421      1244      1247      1248      1421      1422      1423      1420
      1421      1422      1423      1424      1421      1426      1427      1424
      1421      1426      1427      1428      1422      1417      1418      1413
      1422      1417      1418      1419      1422      1421      1426      1425
      1422      1421      1426      1427      1422      1423      1424      1427
      1422      1423      1424      1601      1423      1420      1597      1602
      1423      1420      1597      1598      1423      1424      1427      1426
      1423      1424      1427      1428      1423      1424      1601      1602
      1423      1424      1601      1606      1424      1427      1428      1431
      1424      1427      1428      1605      1424      1601      1602      1597
      1424      1601      1602      1603      1424      1601      1606      1605
      1424      1601      1606      1607      1425      1248      1251      1250
      1425      1248      1251      1252      1425      1426      1427      1424
      1425      1426      1427      1428      1425      1430      1431      1428
      1425      1430      1431      1432      1426      1421      1422      1417
      1426      1421      1422      1423      1426      1425      1430      1429
      1426      1425      1430      1431      1426      1427      1428      1431
      1426      1427      1428      1605      1427      1424      1601      1602
      1427      1424      1601      1606      1427      1428      1431      1430
      1427      1428      1431      1432      1427      1428      1605      1606
      1427      1428      1605      1610      1428      1431      1432      1435
      1428      1431      1432      1609      1428      1605      1606      1601
      1428      1605      1606      1607      1428      1605      1610      1609
      1428      1605      1610      1611      1429      1252      1255      1254
      1429      1252      1255      1256      1429      1430      1431      1428
      1429      1430      1431      1432      1429      1434      1435      1432
      1429      1434      1435      1436      1430      1425      1426      1421
      1430      1425      1426      1427      1430      1429      1434      1433
      1430      1429      1434      1435      1430      1431      1432      1435
      1430      1431      1432      1609      1431      1428      1605      1606
      1431      1428      1605      1610      1431      1432      1435      1434
      1431      1432      1435      1436      1431      1432      1609      1614
      1431      1432      1609      1610      1432      1435      1436      1439
      1432      1435      1436      1613      1432      1609      1614      1613
      1432      1609      1614      1615      1432      1609      1610      1605
      1432      1609      1610      1611      1433      1256      1259      1258
      1433      1256      1259      1260      1433      1434      1435      1432
      1433      1434      1435      1436      1433      1438      1439      1436
      1433      1438      1439      1440      1434      1429      1430      1425
      1434      1429      1430      1431      1434      1433      1438      1437
      1434      1433      1438      1439      1434      1435      1436      1439
      1434      1435      1436      1613      1435      1432      1609      1614
      1435      1432      1609      1610      1435      1436      1439      1438
      1435      1436      1439      1440      1435      1436      1613      1618
      1435      1436      1613      1614      1436      1439      1440      1617
      1436      1613      1618      1617      1436      1613      1618      1619
      1436      1613      1614      1609      1436      1613      1614      1615
      1437      1438      1439      1436      1437      1438      1439      1440
      1438      1433      1434      1429      1438      1433      1434      1435
      1438      1439      1440      1617      1439      1436      1613      1618
      1439      1436      1613      1614      1439      1440      1617      1618
      1440      1617      1618      1613      1440      1617      1618      1619
      1441      1264      1267      1266      1441      1264      1267      1268
      1441      1442      1443      1444      1441      1446      1447      1444
      1441      1446      1447      1448      1442      1441      1446      1445
      1442      1441      1446      1447      1442      1443      1444      1621
      1442      1443      1444      1447      1443      1444      1621      1622
      1443      1444      1621      1626      1443      1444      1447      1446
      1443      1444      1447      1448      1444      1447      1448      1625
      1444      1447      1448      1451      1444      1621      1622      1623
      1444      1621      1626      1625      1444      1621      1626      1627
      1445      1268      1271      1270      1445      1268      1271      1272
      1445      1446      1447      1444      1445      1446      1447      1448
      1445      1450      1451      1448      1445      1450      1451      1452
      1446      1441      1442      1443      1446      1445      1450      1449
      1446      1445      1450      1451      1446      1447      1448      1625
      1446      1447      1448      1451      1447      1444      1621      1622
      1447      1444      1621      1626      1447      1448      1625      1626
      1447      1448      1625      1630      1447      1448      1451      1450
      1447      1448      1451      1452      1448      1451      1452      1629
      1448      1451      1452      1455      1448      1625      1626      1621
      1448      1625      1626      1627      1448      1625      1630      1629
      1448      1625      1630      1631      1449      1272      1275      1274
      1449      1272      1275      1276      1449      1450      1451      1448
      1449      1450      1451      1452      1449      1454      1455      1452
      1449      1454      1455      1456      1450      1445      1446      1441
      1450      1445      1446      1447      1450      1449      1454      1453
      1450      1449      1454      1455      1450      1451      1452      1629
      1450      1451      1452      1455      1451      1448      1625      1626
      1451      1448      1625      1630      1451      1452      1629      1634
      1451      1452      1629      1630      1451      1452      1455      1454
      1451      1452      1455      1456      1452      1455      1456      1633
      1452      1455      1456      1459      1452      1629      1634      1633
      1452      1629      1634      1635      1452      1629      1630      1625
      1452      1629      1630      1631      1453      1276      1279      1278
      1453      1276      1279      1280      1453      1454      1455      1452
      1453      1454      1455      1456      1453      1458      1459      1456
      1453      1458      1459      1460      1454      1449      1450      1445
      1454      1449      1450      1451      1454      1453      1458      1457
      1454      1453      1458      1459      1454      1455      1456      1633
      1454      1455      1456      1459      1455      1452      1629      1634
      1455      1452      1629      1630      1455      1456      1633      1638
      1455      1456      1633      1634      1455      1456      1459      1458
      1455      1456      1459      1460      1456      1459      1460      1637
      1456      1459      1460      1463      1456      1633      1638      1637
      1456      1633      1638      1639      1456      1633      1634      1629
      1456      1633      1634      1635      1457      1280      1283      1282
      1457      1280      1283      1284      1457      1458      1459      1456
      1457      1458      1459      1460      1457      1462      1463      1460
      1457      1462      1463      1464      1458      1453      1454      1449
      1458      1453      1454      1455      1458      1457      1462      1461
      1458      1457      1462      1463      1458      1459      1460      1637
      1458      1459      1460      1463      1459      1456      1633      1638
      1459      1456      1633      1634      1459      1460      1637      1642
      1459      1460      1637      1638      1459      1460      1463      1462
      1459      1460      1463      1464      1460      1463      1464      1641
      1460      1463      1464      1467      1460      1637      1642      1641
      1460      1637      1642      1643      1460      1637      1638      1633
      1460      1637      1638      1639      1461      1284      1287      1286
      1461      1284      1287      1288      1461      1462      1463      1460
      1461      1462      1463      1464      1461      1466      1467      1464
      1461      1466      1467      1468      1462      1457      1458      1453
      1462      1457      1458      1459      1462      1461      1466      1465
      1462      1461      1466      1467      1462      1463      1464      1641
      1462      1463      1464      1467      1463      1460      1637      1642
      1463      1460      1637      1638      1463      1464      1641      1642
      1463      1464      1641      1646      1463      1464      1467      1466
      1463      1464      1467      1468      1464      1467      1468      1645
      1464      1467      1468      1471      1464      1641      1642      1637
      1464      1641      1642      1643      1464      1641      1646      1645
      1464      1641      1646      1647      1465      1288      1291      1290
      1465      1288      1291      1292      1465      1466      1467      1464
      1465      1466      1467      1468      1465      1470      1471      1468
      1465      1470      1471      1472      1466      1461      1462      1457
      1466      1461      1462      1463      1466      1465      1470      1469
      1466      1465      1470      1471      1466      1467      1468      1645
      1466      1467      1468      1471      1467      1464      1641      1642
      1467      1464      1641      1646      1467      1468      1645      1646
      1467      1468      1645      1650      1467      1468      1471      1470
      1467      1468      1471      1472      1468      1471      1472      1475
      1468      1471      1472      1649      1468      1645      1646      1641
      1468      1645      1646      1647      1468      1645      1650      1649
      1468      1645      1650      1651      1469      1292      1295      1294
      1469      1292      1295      1296      1469      1470      1471      1468
      1469      1470      1471      1472      1469      1474      1475      1472
      1469      1474      1475      1476      1470      1465      1466      1461
      1470      1465      1466      1467      1470      1469      1474      1473
      1470      1469      1474      1475      1470      1471      1472      1475
      1470      1471      1472      1649      1471      1468      1645      1646
      1471      1468      1645      1650      1471      1472      1475      1474
      1471      1472      1475      1476      1471      1472      1649      1650
      1471      1472      1649      1654      1472      1475      1476      1479
      1472      1475      1476      1653      1472      1649      1650      1645
      1472      1649      1650      1651      1472      1649      1654      1653
      1472      1649      1654      1655      1473      1296      1299      1298
      1473      1296      1299      1300      1473      1474      1475      1472
      1473      1474      1475      1476      1473      1478      1479      1476
      1473      1478      1479      1480      1474      1469      1470      1465
      1474      1469      1470      1471      1474      1473      1478      1477
      1474      1473      1478      1479      1474      1475      1476      1479
      1474      1475      1476      1653      1475      1472      1649      1650
      1475      1472      1649      1654      1475      1476      1479      1478
      1475      1476      1479      1480      1475      1476      1653      1654
      1475      1476      1653      1658      1476      1479      1480      1657
      1476      1479      1480      1483      1476      1653      1654      1649
      1476      1653      1654      1655      1476      1653      1658      1657
      1476      1653      1658      1659      1477      1300      1303      1302
      1477      1300      1303      1304      1477      1478      1479      1476
      1477      1478      1479      1480      1477      1482      1483      1480
      1477      1482      1483      1484      1478      1473      1474      1469
      1478      1473      1474      1475      1478      1477      1482      1481
      1478      1477      1482      1483      1478      1479      1480      1657
      1478      1479      1480      1483      1479      1476      1653      1654
      1479      1476      1653      1658      1479      1480      1657      1658
      1479      1480      1657      1662      1479      1480      1483      1482
      1479      1480      1483      1484      1480      1483      1484      1661
      1480      1483      1484      1487      1480      1657      1658      1653
      1480      1657      1658      1659      1480      1657      1662      1661
      1480      1657      1662      1663      1481      1304      1307      1306
      1481      1304      1307      1308      1481      1482      1483      1480
      1481      1482      1483      1484      1481      1486      1487      1484
      1481      1486      1487      1488      1482      1477      1478      1473
      1482      1477      1478      1479      1482      1481      1486      1485
      1482      1481      1486      1487      1482      1483      1484      1661
      1482      1483      1484      1487      1483      1480      1657      1658
      1483      1480      1657      1662      1483      1484      1661      1662
      1483      1484      1661      1666      1483      1484      1487      1486
      1483      1484      1487      1488      1484      1487      1488      1665
      1484      1487      1488      1491      1484      1661      1662      1657
      1484      1661      1662      1663      1484      1661      1666      1665
      1484      1661      1666      1667      1485      1308      1311      1310
      1485      1308      1311      1312      1485      1486      1487      1484
      1485      1486      1487      1488      1485      1490      1491      1488
      1485      1490      1491      1492      1486      1481      1482      1477
      1486      1481      1482      1483      1486      1485      1490      1489
      1486      1485      1490      1491      1486      1487      1488      1665
      1486      1487      1488      1491      1487      1484      1661      1662
      1487      1484      1661      1666      1487      1488      1665      1666
      1487      1488      1665      1670      1487      1488      1491      1490
      1487      1488      1491      1492      1488      1491      1492      1495
      1488      1491      1492      1669      1488      1665      1666      1661
      1488      1665      1666      1667      1488      1665      1670      1669
      1488      1665      1670      1671      1489      1312      1315      1314
      1489      1312      1315      1316      1489      1490      1491      1488
      1489      1490      1491      1492      1489      1494      1495      1492
      1489      1494      1495      1496      1490      1485      1486      1481
      1490      1485      1486      1487      1490      1489      1494      1493
      1490      1489      1494      1495      1490      1491      1492      1495
      1490      1491      1492      1669      1491      1488      1665      1666
      1491      1488      1665      1670      1491      1492      1495      1494
      1491      1492      1495      1496      1491      1492      1669      1674
      1491      1492      1669      1670      1492      1495      1496      1499
      1492      1495      1496      1673      1492      1669      1674      1673
      1492      1669      1674      1675      1492      1669      1670      1665
      1492      1669      1670      1671      1493      1316      1319      1318
      1493      1316      1319      1320      1493      1494      1495      1492
      1493      1494      1495      1496      1493      1498      1499      1496
      1493      1498      1499      1500      1494      1489      1490      1485
      1494      1489      1490      1491      1494      1493      1498      1497
      1494      1493      1498      1499      1494      1495      1496      1499
      1494      1495      1496      1673      1495      1492      1669      1674
      1495      1492      1669      1670      1495      1496      1499      1498
      1495      1496      1499      1500      1495      1496      1673      1678
      1495      1496      1673      1674      1496      1499      1500      1677
      1496      1499      1500      1503      1496      1673      1678      1677
      1496      1673      1678      1679      1496      1673      1674      1669
      1496      1673      1674      1675      1497      1320      1323      1322
      1497      1320      1323      1324      1497      1498      1499      1496
      1497      1498      1499      1500      1497      1502      1503      1500
      1497      1502      1503      1504      1498      1493      1494      1489
      1498      1493      1494      1495      1498      1497      1502      1501
      1498      1497      1502      1503      1498      1499      1500      1677
      1498      1499      1500      1503      1499      1496      1673      1678
      1499      1496      1673      1674      1499      1500      1677      1682
      1499      1500      1677      1678      1499      1500      1503      1502
      1499      1500      1503      1504      1500      1503      1504      1681
      1500      1503      1504      1507      1500      1677      1682      1681
      1500      1677      1682      1683      1500      1677      1678      1673
      1500      1677      1678      1679      1501      1324      1327      1326
      1501      1324      1327      1328      1501      1502      1503      1500
      1501      1502      1503      1504      1501      1506      1507      1504
      1501      1506      1507      1508      1502      1497      1498      1493
      1502      1497      1498      1499      1502      1501      1506      1505
      1502      1501      1506      1507      1502      1503      1504      1681
      1502      1503      1504      1507      1503      1500      1677      1682
      1503      1500      1677      1678      1503      1504      1681      1682
      1503      1504      1681      1686      1503      1504      1507      1506
      1503      1504      1507      1508      1504      1507      1508      1685
      1504      1507      1508      1511      1504      1681      1682      1677
      1504      1681      1682      1683      1504      1681      1686      1685
      1504      1681      1686      1687      1505      1328      1331      1330
      1505      1328      1331      1332      1505      1506      1507      1504
      1505      1506      1507      1508      1505      1510      1511      1508
      1505      1510      1511      1512      1506      1501      1502      1497
      1506      1501      1502      1503      1506      1505      1510      1509
      1506      1505      1510      1511      1506      1507      1508      1685
      1506      1507      1508      1511      1507      1504      1681      1682
      1507      1504      1681      1686      1507      1508      1685      1686
      1507      1508      1685      1690      1507      1508      1511      1510
      1507      1508      1511      1512      1508      1511      1512      1515
      1508      1511      1512      1689      1508      1685      1686      1681
      1508      1685      1686      1687      1508      1685      1690      1689
      1508      1685      1690      1691      1509      1332      1335      1334
      1509      1332      1335      1336      1509      1510      1511      1508
      1509      1510      1511      1512      1509      1514      1515      1512
      1509      1514      1515      1516      1510      1505      1506      1501
      1510      1505      1506      1507      1510      1509      1514      1513
      1510      1509      1514      1515      1510      1511      1512      1515
      1510      1511      1512      1689      1511      1508      1685      1686
      1511      1508      1685      1690      1511      1512      1515      1514
      1511      1512      1515      1516      1511      1512      1689      1694
      1511      1512      1689      1690      1512      1515      1516      1693
      1512      1515      1516      1519      1512      1689      1694      1693
      1512      1689      1694      1695      1512      1689      1690      1685
      1512      1689      1690      1691      1513      1336      1339      1338
      1513      1336      1339      1340      1513      1514      1515      1512
      1513      1514      1515      1516      1513      1518      1519      1516
      1513      1518      1519      1520      1514      1509      1510      1505
      1514      1509      1510      1511      1514      1513      1518      1517
      1514      1513      1518      1519      1514      1515      1516      1693
      1514      1515      1516      1519      1515      1512      1689      1694
      1515      1512      1689      1690      1515      1516      1693      1698
      1515      1516      1693      1694      1515      1516      1519      1518
      1515      1516      1519      1520      1516      1519      1520      1697
      1516      1519      1520      1523      1516      1693      1698      1697
      1516      1693      1698      1699      1516      1693      1694      1689
      1516      1693      1694      1695      1517      1340      1343      1342
      1517      1340      1343      1344      1517      1518      1519      1516
      1517      1518      1519      1520      1517      1522      1523      1520
      1517      1522      1523      1524      1518      1513      1514      1509
      1518      1513      1514      1515      1518      1517      1522      1521
      1518      1517      1522      1523      1518      1519      1520      1697
      1518      1519      1520      1523      1519      1516      1693      1698
      1519      1516      1693      1694      1519      1520      1697      1702
      1519      1520      1697      1698      1519      1520      1523      1522
      1519      1520      1523      1524      1520      1523      1524      1701
      1520      1523      1524      1527      1520      1697      1702      1701
      1520      1697      1702      1703      1520      1697      1698      1693
      1520      1697      1698      1699      1521      1344      1347      1346
      1521      1344      1347      1348      1521      1522      1523      1520
      1521      1522      1523      1524      1521      1526      1527      1524
      1521      1526      1527      1528      1522      1517      1518      1513
      1522      1517      1518      1519      1522      1521      1526      1525
      1522      1521      1526      1527      1522      1523      1524      1701
      1522      1523      1524      1527      1523      1520      1697      1702
      1523      1520      1697      1698      1523      1524      1701      1702
      1523      1524      1701      1706      1523      1524      1527      1526
      1523      1524      1527      1528      1524      1527      1528      1705
      1524      1527      1528      1531      1524      1701      1702      1697
      1524      1701      1702      1703      1524      1701      1706      1705
      1524      1701      1706      1707      1525      1348      1351      1350
      1525      1348      1351      1352      1525      1526      1527      1524
      1525      1526      1527      1528      1525      1530      1531      1528
      1525      1530      1531      1532      1526      1521      1522      1517
      1526      1521      1522      1523      1526      1525      1530      1529
      1526      1525      1530      1531      1526      1527      1528      1705
      1526      1527      1528      1531      1527      1524      1701      1702
      1527      1524      1701      1706      1527      1528      1705      1706
      1527      1528      1705      1710      1527      1528      1531      1530
      1527      1528      1531      1532      1528      1531      1532      1709
      1528      1531      1532      1535      1528      1705      1706      1701
      1528      1705      1706      1707      1528      1705      1710      1709
      1528      1705      1710      1711      1529      1352      1355      1354
      1529      1352      1355      1356      1529      1530      1531      1528
      1529      1530      1531      1532      1529      1534      1535      1532
      1529      1534      1535      1536      1530      1525      1526      1521
      1530      1525      1526      1527      1530      1529      1534      1533
      1530      1529      1534      1535      1530      1531      1532      1709
      1530      1531      1532      1535      1531      1528      1705      1706
      1531      1528      1705      1710      1531      1532      1709      1714
      1531      1532      1709      1710      1531      1532      1535      1534
      1531      1532      1535      1536      1532      1535      1536      1539
      1532      1535      1536      1713      1532      1709      1714      1713
      1532      1709      1714      1715      1532      1709      1710      1705
      1532      1709      1710      1711      1533      1356      1359      1358
      1533      1356      1359      1360      1533      1534      1535      1532
      1533      1534      1535      1536      1533      1538      1539      1536
      1533      1538      1539      1540      1534      1529      1530      1525
      1534      1529      1530      1531      1534      1533      1538      1537
      1534      1533      1538      1539      1534      1535      1536      1539
      1534      1535      1536      1713      1535      1532      1709      1714
      1535      1532      1709      1710      1535      1536      1539      1538
      1535      1536      1539      1540      1535      1536      1713      1714
      1535      1536      1713      1718      1536      1539      1540      1717
      1536      1539      1540      1543      1536      1713      1714      1709
      1536      1713      1714      1715      1536      1713      1718      1717
      1536      1713      1718      1719      1537      1360      1363      1362
      1537      1360      1363      1364      1537      1538      1539      1536
      1537      1538      1539      1540      1537      1542      1543      1540
      1537      1542      1543      1544      1538      1533      1534      1529
      1538      1533      1534      1535      1538      1537      1542      1541
      1538      1537      1542      1543      1538      1539      1540      1717
      1538      1539      1540      1543      1539      1536      1713      1714
      1539      1536      1713      1718      1539      1540      1717      1718
      1539      1540      1717      1722      1539      1540      1543      1542
      1539      1540      1543      1544      1540      1543      1544      1721
      1540      1543      1544      1547      1540      1717      1718      1713
      1540      1717      1718      1719      1540      1717      1722      1721
      1540      1717      1722      1723      1541      1364      1367      1366
      1541      1364      1367      1368      1541      1542      1543      1540
      1541      1542      1543      1544      1541      1546      1547      1544
      1541      1546      1547      1548      1542      1537      1538      1533
      1542      1537      1538      1539      1542      1541      1546      1545
      1542      1541      1546      1547      1542      1543      1544      1721
      1542      1543      1544      1547      1543      1540      1717      1718
      1543      1540      1717      1722      1543      1544      1721      1722
      1543      1544      1721      1726      1543      1544      1547      1546
      1543      1544      1547      1548      1544      1547      1548      1725
      1544      1547      1548      1551      1544      1721      1722      1717
      1544      1721      1722      1723      1544      1721      1726      1725
      1544      1721      1726      1727      1545      1368      1371      1370
      1545      1368      1371      1372      1545      1546      1547      1544
      1545      1546      1547      1548      1545      1550      1551      1548
      1545      1550      1551      1552      1546      1541      1542      1537
      1546      1541      1542      1543      1546      1545      1550      1549
      1546      1545      1550      1551      1546      1547      1548      1725
      1546      1547      1548      1551      1547      1544      1721      1722
      1547      1544      1721      1726      1547      1548      1725      1726
      1547      1548      1725      1730      1547      1548      1551      1550
      1547      1548      1551      1552      1548      1551      1552      1555
      1548      1551      1552      1729      1548      1725      1726      1721
      1548      1725      1726      1727      1548      1725      1730      1729
      1548      1725      1730      1731      1549      1372      1375      1374
      1549      1372      1375      1376      1549      1550      1551      1548
      1549      1550      1551      1552      1549      1554      1555      1552
      1549      1554      1555      1556      1550      1545      1546      1541
      1550      1545      1546      1547      1550      1549      1554      1553
      1550      1549      1554      1555      1550      1551      1552      1555
      1550      1551      1552      1729      1551      1548      1725      1726
      1551      1548      1725      1730      1551      1552      1555      1554
      1551      1552      1555      1556      1551      1552      1729      1730
      1551      1552      1729      1734      1552      1555      1556      1559
      1552      1555      1556      1733      1552      1729      1730      1725
      1552      1729      1730      1731      1552      1729      1734      1733
      1552      1729      1734      1735      1553      1376      1379      1378
      1553      1376      1379      1380      1553      1554      1555      1552
      1553      1554      1555      1556      1553      1558      1559      1556
      1553      1558      1559      1560      1554      1549      1550      1545
      1554      1549      1550      1551      1554      1553      1558      1557
      1554      1553      1558      1559      1554      1555      1556      1559
      1554      1555      1556      1733      1555      1552      1729      1730
      1555      1552      1729      1734      1555      1556      1559      1558
      1555      1556      1559      1560      1555      1556      1733      1734
      1555      1556      1733      1738      1556      1559      1560      1737
      1556      1559      1560      1563      1556      1733      1734      1729
      1556      1733      1734      1735      1556      1733      1738      1737
      1556      1733      1738      1739      1557      1380      1383      1382
      1557      1380      1383      1384      1557      1558      1559      1556
      1557      1558      1559      1560      1557      1562      1563      1560
      1557      1562      1563      1564      1558      1553      1554      1549
      1558      1553      1554      1555      1558      1557      1562      1561
      1558      1557      1562      1563      1558      1559      1560      1737
      1558      1559      1560      1563      1559      1556      1733      1734
      1559      1556      1733      1738      1559      1560      1737      1742
      1559      1560      1737      1738      1559      1560      1563      1562
      1559      1560      1563      1564      1560      1563      1564      1741
      1560      1563      1564      1567      1560      1737      1742      1741
      1560      1737      1742      1743      1560      1737      1738      1733
      1560      1737      1738      1739      1561      1384      1387      1386
      1561      1384      1387      1388      1561      1562      1563      1560
      1561      1562      1563      1564      1561      1566      1567      1564
      1561      1566      1567      1568      1562      1557      1558      1553
      1562      1557      1558      1559      1562      1561      1566      1565
      1562      1561      1566      1567      1562      1563      1564      1741
      1562      1563      1564      1567      1563      1560      1737      1742
      1563      1560      1737      1738      1563      1564      1741      1742
      1563      1564      1741      1746      1563      1564      1567      1566
      1563      1564      1567      1568      1564      1567      1568      1745
      1564      1567      1568      1571      1564      1741      1742      1737
      1564      1741      1742      1743      1564      1741      1746      1745
      1564      1741      1746      1747      1565      1388      1391      1390
      1565      1388      1391      1392      1565      1566      1567      1564
      1565      1566      1567      1568      1565      1570      1571      1568
      1565      1570      1571      1572      1566      1561      1562      1557
      1566      1561      1562      1563      1566      1565      1570      1569
      1566      1565      1570      1571      1566      1567      1568      1745
      1566      1567      1568      1571      1567      1564      1741      1742
      1567      1564      1741      1746      1567      1568      1745      1746
      1567      1568      1745      1750      1567      1568      1571      1570
      1567      1568      1571      1572      1568      1571      1572      1575
      1568      1571      1572      1749      1568      1745      1746      1741
      1568      1745      1746      1747      1568      1745      1750      1749
      1568      1745      1750      1751      1569      1392      1395      1394
      1569      1392      1395      1396      1569      1570      1571      1568
      1569      1570      1571      1572      1569      1574      1575      1572
      1569      1574      1575      1576      1570      1565      1566      1561
      1570      1565      1566      1567      1570      1569      1574      1573
      1570      1569      1574      1575      1570      1571      1572      1575
      1570      1571      1572      1749      1571      1568      1745      1746
      1571      1568      1745      1750      1571      1572      1575      1574
      1571      1572      1575      1576      1571      1572      1749      1754
      1571      1572      1749      1750      1572      1575      1576      1579
      1572      1575      1576      1753      1572      1749      1754      1753
      1572      1749      1754      1755      1572      1749      1750      1745
      1572      1749      1750      1751      1573      1396      1399      1398
      1573      1396      1399      1400      1573      1574      1575      1572
      1573      1574      1575      1576      1573      1578      1579      1576
      1573      1578      1579      1580      1574      1569      1570      1565
      1574      1569      1570      1571      1574      1573      1578      1577
      1574      1573      1578      1579      1574      1575      1576      1579
      1574      1575      1576      1753      1575      1572      1749      1754
      1575      1572      1749      1750      1575      1576      1579      1578
      1575      1576      1579      1580      1575      1576      1753      1758
      1575      1576      1753      1754      1576      1579      1580      1757
      1576      1579      1580      1583      1576      1753      1758      1757
      1576      1753      1758      1759      1576      1753      1754      1749
      1576      1753      1754      1755      1577      1400      1403      1402
      1577      1400      1403      1404      1577      1578      1579      1576
      1577      1578      1579      1580      1577      1582      1583      1580
      1577      1582      1583      1584      1578      1573      1574      1569
      1578      1573      1574      1575      1578      1577      1582      1581
      1578      1577      1582      1583      1578      1579      1580      1757
      1578      1579      1580      1583      1579      1576      1753      1758
      1579      1576      1753      1754      1579      1580      1757      1762
      1579      1580      1757      1758      1579      1580      1583      1582
      1579      1580      1583      1584      1580      1583      1584      1761
      1580      1583      1584      1587      1580      1757      1762      1761
      1580      1757      1762      1763      1580      1757      1758      1753
      1580      1757      1758      1759      1581      1404      1407      1406
      1581      1404      1407      1408      1581      1582      1583      1580
      1581      1582      1583      1584      1581      1586      1587      1584
      1581      1586      1587      1588      1582      1577      1578      1573
      1582      1577      1578      1579      1582      1581      1586      1585
      1582      1581      1586      1587      1582      1583      1584      1761
      1582      1583      1584      1587      1583      1580      1757      1762
      1583      1580      1757      1758      1583      1584      1761      1762
      1583      1584      1761      1766      1583      1584      1587      1586
      1583      1584      1587      1588      1584      1587      1588      1765
      1584      1587      1588      1591      1584      1761      1762      1757
      1584      1761      1762      1763      1584      1761      1766      1765
      1584      1761      1766      1767      1585      1408      1411      1410
      1585      1408      1411      1412      1585      1586      1587      1584
      1585      1586      1587      1588      1585      1590      1591      1588
      1585      1590      1591      1592      1586      1581      1582      1577
      1586      1581      1582      1583      1586      1585      1590      1589
      1586      1585      1590      1591      1586      1587      1588      1765
      1586      1587      1588      1591      1587      1584      1761      1762
      1587      1584      1761      1766      1587      1588      1765      1766
      1587      1588      1765      1770      1587      1588      1591      1590
      1587      1588      1591      1592      1588      1591      1592      1769
      1588      1591      1592      1595      1588      1765      1766      1761
      1588      1765      1766      1767      1588      1765      1770      1769
      1588      1765      1770      1771      1589      1412      1415      1414
      1589      1412      1415      1416      1589      1590      1591      1588
      1589      1590      1591      1592      1589      1594      1595      1592
      1589      1594      1595      1596      1590      1585      1586      1581
      1590      1585      1586      1587      1590      1589      1594      1593
      1590      1589      1594      1595      1590      1591      1592      1769
      1590      1591      1592      1595      1591      1588      1765      1766
      1591      1588      1765      1770      1591      1592      1769      1774
      1591      1592      1769      1770      1591      1592      1595      1594
      1591      1592      1595      1596      1592      1595      1596      1773
      1592      1595      1596      1599      1592      1769      1774      1773
      1592      1769      1774      1775      1592      1769      1770      1765
      1592      1769      1770      1771      1593      1416      1419      1418
      1593      1416      1419      1420      1593      1594      1595      1592
      1593      1594      1595      1596      1593      1598      1599      1596
      1593      1598      1599      1600      1594      1589      1590      1585
      1594      1589      1590      1591      1594      1593      1598      1597
      1594      1593      1598      1599      1594      1595      1596      1773
      1594      1595      1596      1599      1595      1592      1769      1774
      1595      1592      1769      1770      1595      1596      1773      1778
      1595      1596      1773      1774      1595      1596      1599      1598
      1595      1596      1599      1600      1596      1599      1600      1777
      1596      1599      1600      1603      1596      1773      1778      1777
      1596      1773      1778      1779      1596      1773      1774      1769
      1596      1773      1774      1775      1597      1420      1423      1422
      1597      1420      1423      1424      1597      1598      1599      1596
      1597      1598      1599      1600      1597      1602      1603      1600
      1597      1602      1603      1604      1598      1593      1594      1589
      1598      1593      1594      1595      1598      1597      1602      1601
      1598      1597      1602      1603      1598      1599      1600      1777
      1598      1599      1600      1603      1599      1596      1773      1778
      1599      1596      1773      1774      1599      1600      1777      1782
      1599      1600      1777      1778      1599      1600      1603      1602
      1599      1600      1603      1604      1600      1603      1604      1781
      1600      1603      1604      1607      1600      1777      1782      1781
      1600      1777      1782      1783      1600      1777      1778      1773
      1600      1777      1778      1779      1601      1424      1427      1426
      1601      1424      1427      1428      1601      1602      1603      1600
      1601      1602      1603      1604      1601      1606      1607      1604
      1601      1606      1607      1608      1602      1597      1598      1593
      1602      1597      1598      1599      1602      1601      1606      1605
      1602      1601      1606      1607      1602      1603      1604      1781
      1602      1603      1604      1607      1603      1600      1777      1782
      1603      1600      1777      1778      1603      1604      1781      1782
      1603      1604      1781      1786      1603      1604      1607      1606
      1603      1604      1607      1608      1604      1607      1608      1785
      1604      1607      1608      1611      1604      1781      1782      1777
      1604      1781      1782      1783      1604      1781      1786      1785
      1604      1781      1786      1787      1605      1428      1431      1430
      1605      1428      1431      1432      1605      1606      1607      1604
      1605      1606      1607      1608      1605      1610      1611      1608
      1605      1610      1611      1612      1606      1601      1602      1597
      1606      1601      1602      1603      1606      1605      1610      1609
      1606      1605      1610      1611      1606      1607      1608      1785
      1606      1607      1608      1611      1607      1604      1781      1782
      1607      1604      1781      1786      1607      1608      1785      1786
      1607      1608      1785      1790      1607      1608      1611      1610
      1607      1608      1611      1612      1608      1611      1612      1615
      1608      1611      1612      1789      1608      1785      1786      1781
      1608      1785      1786      1787      1608      1785      1790      1789
      1608      1785      1790      1791      1609      1432      1435      1434
      1609      1432      1435      1436      1609      1610      1611      1608
      1609      1610      1611      1612      1609      1614      1615      1612
      1609      1614      1615      1616      1610      1605      1606      1601
      1610      1605      1606      1607      1610      1609      1614      1613
      1610      1609      1614      1615      1610      1611      1612      1615
      1610      1611      1612      1789      1611      1608      1785      1786
      1611      1608      1785      1790      1611      1612      1615      1614
      1611      1612      1615      1616      1611      1612      1789      1790
      1611      1612      1789      1794      1612      1615      1616      1619
      1612      1615      1616      1793      1612      1789      1790      1785
      1612      1789      1790      1791      1612      1789      1794      1793
      1612      1789      1794      1795      1613      1436      1439      1438
      1613      1436      1439      1440      1613      1614      1615      1612
      1613      1614      1615      1616      1613      1618      1619      1616
      1613      1618      1619      1620      1614      1609      1610      1605
      1614      1609      1610      1611      1614      1613      1618      1617
      1614      1613      1618      1619      1614      1615      1616      1619
      1614      1615      1616      1793      1615      1612      1789      1790
      1615      1612      1789      1794      1615      1616      1619      1618
      1615      1616      1619      1620      1615      1616      1793      1794
      1615      1616      1793      1798      1616      1619      1620      1797
      1616      1793      1794      1789      1616      1793      1794      1795
      1616      1793      1798      1797      1616      1793      1798      1799
      1617      1618      1619      1616      1617      1618      1619      1620
      1618      1613      1614      1609      1618      1613      1614      1615
      1618      1619      1620      1797      1619      1616      1793      1794
      1619      1616      1793      1798      1619      1620      1797      1798
      1620      1797      1798      1793      1620      1797      1798      1799
      1621      1444      1447      1446      1621      1444      1447      1448
      1621      1622      1623      1624      1621      1626      1627      1624
      1621      1626      1627      1628      1622      1621      1626      1625
      1622      1621      1626      1627      1622      1623      1624      1801
      1622      1623      1624      1627      1623      1624      1801      1802
      1623      1624      1801      1806      1623      1624      1627      1626
      1623      1624      1627      1628      1624      1627      1628      1805
      1624      1627      1628      1631      1624      1801      1802      1803
      1624      1801      1806      1805      1624      1801      1806      1807
      1625      1448      1451      1450      1625      1448      1451      1452
      1625      1626      1627      1624      1625      1626      1627      1628
      1625      1630      1631      1628      1625      1630      1631      1632
      1626      1621      1622      1623      1626      1625      1630      1629
      1626      1625      1630      1631      1626      1627      1628      1805
      1626      1627      1628      1631      1627      1624      1801      1802
      1627      1624      1801      1806      1627      1628      1805      1806
      1627      1628      1805      1810      1627      1628      1631      1630
      1627      1628      1631      1632      1628      1631      1632      1635
      1628      1631      1632      1809      1628      1805      1806      1801
      1628      1805      1806      1807      1628      1805      1810      1809
      1628      1805      1810      1811      1629      1452      1455      1454
      1629      1452      1455      1456      1629      1630      1631      1628
      1629      1630      1631      1632      1629      1634      1635      1632
      1629      1634      1635      1636      1630      1625      1626      1621
      1630      1625      1626      1627      1630      1629      1634      1633
      1630      1629      1634      1635      1630      1631      1632      1635
      1630      1631      1632      1809      1631      1628      1805      1806
      1631      1628      1805      1810      1631      1632      1635      1634
      1631      1632      1635      1636      1631      1632      1809      1810
      1631      1632      1809      1814      1632      1635      1636      1639
      1632      1635      1636      1813      1632      1809      1810      1805
      1632      1809      1810      1811      1632      1809      1814      1813
      1632      1809      1814      1815      1633      1456      1459      1458
      1633      1456      1459      1460      1633      1634      1635      1632
      1633      1634      1635      1636      1633      1638      1639      1636
      1633      1638      1639      1640      1634      1629      1630      1625
      1634      1629      1630      1631      1634      1633      1638      1637
      1634      1633      1638      1639      1634      1635      1636      1639
      1634      1635      1636      1813      1635      1632      1809      1810
      1635      1632      1809      1814      1635      1636      1639      1638
      1635      1636      1639      1640      1635      1636      1813      1814
      1635      1636      1813      1818      1636      1639      1640      1817
      1636      1639      1640      1643      1636      1813      1814      1809
      1636      1813      1814      1815      1636      1813      1818      1817
      1636      1813      1818      1819      1637      1460      1463      1462
      1637      1460      1463      1464      1637      1638      1639      1636
      1637      1638      1639      1640      1637      1642      1643      1640
      1637      1642      1643      1644      1638      1633      1634      1629
      1638      1633      1634      1635      1638      1637      1642      1641
      1638      1637      1642      1643      1638      1639      1640      1817
      1638      1639      1640      1643      1639      1636      1813      1814
      1639      1636      1813      1818      1639      1640      1817      1818
      1639      1640      1817      1822      1639      1640      1643      1642
      1639      1640      1643      1644      1640      1643      1644      1821
      1640      1643      1644      1647      1640      1817      1818      1813
      1640      1817      1818      1819      1640      1817      1822      1821
      1640      1817      1822      1823      1641      1464      1467      1466
      1641      1464      1467      1468      1641      1642      1643      1640
      1641      1642      1643      1644      1641      1646      1647      1644
      1641      1646      1647      1648      1642      1637      1638      1633
      1642      1637      1638      1639      1642      1641      1646      1645
      1642      1641      1646      1647      1642      1643      1644      1821
      1642      1643      1644      1647      1643      1640      1817      1818
      1643      1640      1817      1822      1643      1644      1821      1822
      1643      1644      1821      1826      1643      1644      1647      1646
      1643      1644      1647      1648      1644      1647      1648      1825
      1644      1647      1648      1651      1644      1821      1822      1817
      1644      1821      1822      1823      1644      1821      1826      1825
      1644      1821      1826      1827      1645      1468      1471      1470
      1645      1468      1471      1472      1645      1646      1647      1644
      1645      1646      1647      1648      1645      1650      1651      1648
      1645      1650      1651      1652      1646      1641      1642      1637
      1646      1641      1642      1643      1646      1645      1650      1649
      1646      1645      1650      1651      1646      1647      1648      1825
      1646      1647      1648      1651      1647      1644      1821      1822
      1647      1644      1821      1826      1647      1648      1825      1826
      1647      1648      1825      1830      1647      1648      1651      1650
      1647      1648      1651      1652      1648      1651      1652      1655
      1648      1651      1652      1829      1648      1825      1826      1821
      1648      1825      1826      1827      1648      1825      1830      1829
      1648      1825      1830      1831      1649      1472      1475      1474
      1649      1472      1475      1476      1649      1650      1651      1648
      1649      1650      1651      1652      1649      1654      1655      1652
      1649      1654      1655      1656      1650      1645      1646      1641
      1650      1645      1646      1647      1650      1649      1654      1653
      1650      1649      1654      1655      1650      1651      1652      1655
      1650      1651      1652      1829      1651      1648      1825      1826
      1651      1648      1825      1830      1651      1652      1655      1654
      1651      1652      1655      1656      1651      1652      1829      1834
      1651      1652      1829      1830      1652      1655      1656      1659
      1652      1655      1656      1833      1652      1829      1834      1833
      1652      1829      1834      1835      1652      1829      1830      1825
      1652      1829      1830      1831      1653      1476      1479      1478
      1653      1476      1479      1480      1653      1654      1655      1652
      1653      1654      1655      1656      1653      1658      1659      1656
      1653      1658      1659      1660      1654      1649      1650      1645
      1654      1649      1650      1651      1654      1653      1658      1657
      1654      1653      1658      1659      1654      1655      1656      1659
      1654      1655      1656      1833      1655      1652      1829      1834
      1655      1652      1829      1830      1655      1656      1659      1658
      1655      1656      1659      1660      1655      1656      1833      1838
      1655      1656      1833      1834      1656      1659      1660      1837
      1656      1659      1660      1663      1656      1833      1838      1837
      1656      1833      1838      1839      1656      1833      1834      1829
      1656      1833      1834      1835      1657      1480      1483      1482
      1657      1480      1483      1484      1657      1658      1659      1656
      1657      1658      1659      1660      1657      1662      1663      1660
      1657      1662      1663      1664      1658      1653      1654      1649
      1658      1653      1654      1655      1658      1657      1662      1661
      1658      1657      1662      1663      1658      1659      1660      1837
      1658      1659      1660      1663      1659      1656      1833      1838
      1659      1656      1833      1834      1659      1660      1837      1842
      1659      1660      1837      1838      1659      1660      1663      1662
      1659      1660      1663      1664      1660      1663      1664      1841
      1660      1663      1664      1667      1660      1837      1842      1841
      1660      1837      1842      1843      1660      1837      1838      1833
      1660      1837      1838      1839      1661      1484      1487      1486
      1661      1484      1487      1488      1661      1662      1663      1660
      1661      1662      1663      1664      1661      1666      1667      1664
      1661      1666      1667      1668      1662      1657      1658      1653
      1662      1657      1658      1659      1662      1661      1666      1665
      1662      1661      1666      1667      1662      1663      1664      1841
      1662      1663      1664      1667      1663      1660      1837      1842
      1663      1660      1837      1838      1663      1664      1841      1842
      1663      1664      1841      1846      1663      1664      1667      1666
      1663      1664      1667      1668      1664      1667      1668      1845
      1664      1667      1668      1671      1664      1841      1842      1837
      1664      1841      1842      1843      1664      1841      1846      1845
      1664      1841      1846      1847      1665      1488      1491      1490
      1665      1488      1491      1492      1665      1666      1667      1664
      1665      1666      1667      1668      1665      1670      1671      1668
      1665      1670      1671      1672      1666      1661      1662      1657
      1666      1661      1662      1663      1666      1665      1670      1669
      1666      1665      1670      1671      1666      1667      1668      1845
      1666      1667      1668      1671      1667      1664      1841      1842
      1667      1664      1841      1846      1667      1668      1845      1846
      1667      1668      1845      1850      1667      1668      1671      1670
      1667      1668      1671      1672      1668      1671      1672      1849
      1668      1671      1672      1675      1668      1845      1846      1841
      1668      1845      1846      1847      1668      1845      1850      1849
      1668      1845      1850      1851      1669      1492      1495      1494
      1669      1492      1495      1496      1669      1670      1671      1668
      1669      1670      1671      1672      1669      1674      1675      1672
      1669      1674      1675      1676      1670      1665      1666      1661
      1670      1665      1666      1667      1670      1669      1674      1673
      1670      1669      1674      1675      1670      1671      1672      1849
      1670      1671      1672      1675      1671      1668      1845      1846
      1671      1668      1845      1850      1671      1672      1849      1854
      1671      1672      1849      1850      1671      1672      1675      1674
      1671      1672      1675      1676      1672      1675      1676      1853
      1672      1675      1676      1679      1672      1849      1854      1853
      1672      1849      1854      1855      1672      1849      1850      1845
      1672      1849      1850      1851      1673      1496      1499      1498
      1673      1496      1499      1500      1673      1674      1675      1672
      1673      1674      1675      1676      1673      1678      1679      1676
      1673      1678      1679      1680      1674      1669      1670      1665
      1674      1669      1670      1671      1674      1673      1678      1677
      1674      1673      1678      1679      1674      1675      1676      1853
      1674      1675      1676      1679      1675      1672      1849      1854
      1675      1672      1849      1850      1675      1676      1853      1858
      1675      1676      1853      1854      1675      1676      1679      1678
      1675      1676      1679      1680      1676      1679      1680      1857
      1676      1679      1680      1683      1676      1853      1858      1857
      1676      1853      1858      1859      1676      1853      1854      1849
      1676      1853      1854      1855      1677      1500      1503      1502
      1677      1500      1503      1504      1677      1678      1679      1676
      1677      1678      1679      1680      1677      1682      1683      1680
      1677      1682      1683      1684      1678      1673      1674      1669
      1678      1673      1674      1675      1678      1677      1682      1681
      1678      1677      1682      1683      1678      1679      1680      1857
      1678      1679      1680      1683      1679      1676      1853      1858
      1679      1676      1853      1854      1679      1680      1857      1862
      1679      1680      1857      1858      1679      1680      1683      1682
      1679      1680      1683      1684      1680      1683      1684      1861
      1680      1683      1684      1687      1680      1857      1862      1861
      1680      1857      1862      1863      1680      1857      1858      1853
      1680      1857      1858      1859      1681      1504      1507      1506
      1681      1504      1507      1508      1681      1682      1683      1680
      1681      1682      1683      1684      1681      1686      1687      1684
      1681      1686      1687      1688      1682      1677      1678      1673
      1682      1677      1678      1679      1682      1681      1686      1685
      1682      1681      1686      1687      1682      1683      1684      1861
      1682      1683      1684      1687      1683      1680      1857      1862
      1683      1680      1857      1858      1683      1684      1861      1862
      1683      1684      1861      1866      1683      1684      1687      1686
      1683      1684      1687      1688      1684      1687      1688      1865
      1684      1687      1688      1691      1684      1861      1862      1857
      1684      1861      1862      1863      1684      1861      1866      1865
      1684      1861      1866      1867      1685      1508      1511      1510
      1685      1508      1511      1512      1685      1686      1687      1684
      1685      1686      1687      1688      1685      1690      1691      1688
      1685      1690      1691      1692      1686      1681      1682      1677
      1686      1681      1682      1683      1686      1685      1690      1689
      1686      1685      1690      1691      1686      1687      1688      1865
      1686      1687      1688      1691      1687      1684      1861      1862
      1687      1684      1861      1866      1687      1688      1865      1866
      1687      1688      1865      1870      1687      1688      1691      1690
      1687      1688      1691      1692      1688      1691      1692      1695
      1688      1691      1692      1869      1688      1865      1866      1861
      1688      1865      1866      1867      1688      1865      1870      1869
      1688      1865      1870      1871      1689      1512      1515      1514
      1689      1512      1515      1516      1689      1690      1691      1688
      1689      1690      1691      1692      1689      1694      1695      1692
      1689      1694      1695      1696      1690      1685      1686      1681
      1690      1685      1686      1687      1690      1689      1694      1693
      1690      1689      1694      1695      1690      1691      1692      1695
      1690      1691      1692      1869      1691      1688      1865      1866
      1691      1688      1865      1870      1691      1692      1695      1694
      1691      1692      1695      1696      1691      1692      1869      1870
      1691      1692      1869      1874      1692      1695      1696      1699
      1692      1695      1696      1873      1692      1869      1870      1865
      1692      1869      1870      1871      1692      1869      1874      1873
      1692      1869      1874      1875      1693      1516      1519      1518
      1693      1516      1519      1520      1693      1694      1695      1692
      1693      1694      1695      1696      1693      1698      1699      1696
      1693      1698      1699      1700      1694      1689      1690      1685
      1694      1689      1690      1691      1694      1693      1698      1697
      1694      1693      1698      1699      1694      1695      1696      1699
      1694      1695      1696      1873      1695      1692      1869      1870
      1695      1692      1869      1874      1695      1696      1699      1698
      1695      1696      1699      1700      1695      1696      1873      1874
      1695      1696      1873      1878      1696      1699      1700      1877
      1696      1699      1700      1703      1696      1873      1874      1869
      1696      1873      1874      1875      1696      1873      1878      1877
      1696      1873      1878      1879      1697      1520      1523      1522
      1697      1520      1523      1524      1697      1698      1699      1696
      1697      1698      1699      1700      1697      1702      1703      1700
      1697      1702      1703      1704      1698      1693      1694      1689
      1698      1693      1694      1695      1698      1697      1702      1701
      1698      1697      1702      1703      1698      1699      1700      1877
      1698      1699      1700      1703      1699      1696      1873      1874
      1699      1696      1873      1878      1699      1700      1877      1878
      1699      1700      1877      1882      1699      1700      1703      1702
      1699      1700      1703      1704      1700      1703      1704      1881
      1700      1703      1704      1707      1700      1877      1878      1873
      1700      1877      1878      1879      1700      1877      1882      1881
      1700      1877      1882      1883      1701      1524      1527      1526
      1701      1524      1527      1528      1701      1702      1703      1700
      1701      1702      1703      1704      1701      1706      1707      1704
      1701      1706      1707      1708      1702      1697      1698      1693
      1702      1697      1698      1699      1702      1701      1706      1705
      1702      1701      1706      1707      1702      1703      1704      1881
      1702      1703      1704      1707      1703      1700      1877      1878
      1703      1700      1877      1882      1703      1704      1881      1882
      1703      1704      1881      1886      1703      1704      1707      1706
      1703      1704      1707      1708      1704      1707      1708      1885
      1704      1707      1708      1711      1704      1881      1882      1877
      1704      1881      1882      1883      1704      1881      1886      1885
      1704      1881      1886      1887      1705      1528      1531      1530
      1705      1528      1531      1532      1705      1706      1707      1704
      1705      1706      1707      1708      1705      1710      1711      1708
      1705      1710      1711      1712      1706      1701      1702      1697
      1706      1701      1702      1703      1706      1705      1710      1709
      1706      1705      1710      1711      1706      1707      1708      1885
      1706      1707      1708      1711      1707      1704      1881      1882
      1707      1704      1881      1886      1707      1708      1885      1886
      1707      1708      1885      1890      1707      1708      1711      1710
      1707      1708      1711      1712      1708      1711      1712      1715
      1708      1711      1712      1889      1708      1885      1886      1881
      1708      1885      1886      1887      1708      1885      1890      1889
      1708      1885      1890      1891      1709      1532      1535      1534
      1709      1532      1535      1536      1709      1710      1711      1708
      1709      1710      1711      1712      1709      1714      1715      1712
      1709      1714      1715      1716      1710      1705      1706      1701
      1710      1705      1706      1707      1710      1709      1714      1713
      1710      1709      1714      1715      1710      1711      1712      1715
      1710      1711      1712      1889      1711      1708      1885      1886
      1711      1708      1885      1890      1711      1712      1715      1714
      1711      1712      1715      1716      1711      1712      1889      1894
      1711      1712      1889      1890      1712      1715      1716      1719
      1712      1715      1716      1893      1712      1889      1894      1893
      1712      1889      1894      1895      1712      1889      1890      1885
      1712      1889      1890      1891      1713      1536      1539      1538
      1713      1536      1539      1540      1713      1714      1715      1712
      1713      1714      1715      1716      1713      1718      1719      1716
      1713      1718      1719      1720      1714      1709      1710      1705
      1714      1709      1710      1711      1714      1713      1718      1717
      1714      1713      1718      1719      1714      1715      1716      1719
      1714      1715      1716      1893      1715      1712      1889      1894
      1715      1712      1889      1890      1715      1716      1719      1718
      1715      1716      1719      1720      1715      1716      1893      1898
      1715      1716      1893      1894      1716      1719      1720      1897
      1716      1719      1720      1723      1716      1893      1898      1897
      1716      1893      1898      1899      1716      1893      1894      1889
      1716      1893      1894      1895      1717      1540      1543      1542
      1717      1540      1543      1544      1717      1718      1719      1716
      1717      1718      1719      1720      1717      1722      1723      1720
      1717      1722      1723      1724      1718      1713      1714      1709
      1718      1713      1714      1715      1718      1717      1722      1721
      1718      1717      1722      1723      1718      1719      1720      1897
      1718      1719      1720      1723      1719      1716      1893      1898
      1719      1716      1893      1894      1719      1720      1897      1902
      1719      1720      1897      1898      1719      1720      1723      1722
      1719      1720      1723      1724      1720      1723      1724      1901
      1720      1723      1724      1727      1720      1897      1902      1901
      1720      1897      1902      1903      1720      1897      1898      1893
      1720      1897      1898      1899      1721      1544      1547      1546
      1721      1544      1547      1548      1721      1722      1723      1720
      1721      1722      1723      1724      1721      1726      1727      1724
      1721      1726      1727      1728      1722      1717      1718      1713
      1722      1717      1718      1719      1722      1721      1726      1725
      1722      1721      1726      1727      1722      1723      1724      1901
      1722      1723      1724      1727      1723      1720      1897      1902
      1723      1720      1897      1898      1723      1724      1901      1902
      1723      1724      1901      1906      1723      1724      1727      1726
      1723      1724      1727      1728      1724      1727      1728      1905
      1724      1727      1728      1731      1724      1901      1902      1897
      1724      1901      1902      1903      1724      1901      1906      1905
      1724      1901      1906      1907      1725      1548      1551      1550
      1725      1548      1551      1552      1725      1726      1727      1724
      1725      1726      1727      1728      1725      1730      1731      1728
      1725      1730      1731      1732      1726      1721      1722      1717
      1726      1721      1722      1723      1726      1725      1730      1729
      1726      1725      1730      1731      1726      1727      1728      1905
      1726      1727      1728      1731      1727      1724      1901      1902
      1727      1724      1901      1906      1727      1728      1905      1906
      1727      1728      1905      1910      1727      1728      1731      1730
      1727      1728      1731      1732      1728      1731      1732      1735
      1728      1731      1732      1909      1728      1905      1906      1901
      1728      1905      1906      1907      1728      1905      1910      1909
      1728      1905      1910      1911      1729      1552      1555      1554
      1729      1552      1555      1556      1729      1730      1731      1728
      1729      1730      1731      1732      1729      1734      1735      1732
      1729      1734      1735      1736      1730      1725      1726      1721
      1730      1725      1726      1727      1730      1729      1734      1733
      1730      1729      1734      1735      1730      1731      1732      1735
      1730      1731      1732      1909      1731      1728      1905      1906
      1731      1728      1905      1910      1731      1732      1735      1734
      1731      1732      1735      1736      1731      1732      1909      1914
      1731      1732      1909      1910      1732      1735      1736      1913
      1732      1735      1736      1739      1732      1909      1914      1913
      1732      1909      1914      1915      1732      1909      1910      1905
      1732      1909      1910      1911      1733      1556      1559      1558
      1733      1556      1559      1560      1733      1734      1735      1732
      1733      1734      1735      1736      1733      1738      1739      1736
      1733      1738      1739      1740      1734      1729      1730      1725
      1734      1729      1730      1731      1734      1733      1738      1737
      1734      1733      1738      1739      1734      1735      1736      1913
      1734      1735      1736      1739      1735      1732      1909      1914
      1735      1732      1909      1910      1735      1736      1913      1918
      1735      1736      1913      1914      1735      1736      1739      1738
      1735      1736      1739      1740      1736      1739      1740      1917
      1736      1739      1740      1743      1736      1913      1918      1917
      1736      1913      1918      1919      1736      1913      1914      1909
      1736      1913      1914      1915      1737      1560      1563      1562
      1737      1560      1563      1564      1737      1738      1739      1736
      1737      1738      1739      1740      1737      1742      1743      1740
      1737      1742      1743      1744      1738      1733      1734      1729
      1738      1733      1734      1735      1738      1737      1742      1741
      1738      1737      1742      1743      1738      1739      1740      1917
      1738      1739      1740      1743      1739      1736      1913      1918
      1739      1736      1913      1914      1739      1740      1917      1922
      1739      1740      1917      1918      1739      1740      1743      1742
      1739      1740      1743      1744      1740      1743      1744      1921
      1740      1743      1744      1747      1740      1917      1922      1921
      1740      1917      1922      1923      1740      1917      1918      1913
      1740      1917      1918      1919      1741      1564      1567      1566
      1741      1564      1567      1568      1741      1742      1743      1740
      1741      1742      1743      1744      1741      1746      1747      1744
      1741      1746      1747      1748      1742      1737      1738      1733
      1742      1737      1738      1739      1742      1741      1746      1745
      1742      1741      1746      1747      1742      1743      1744      1921
      1742      1743      1744      1747      1743      1740      1917      1922
      1743      1740      1917      1918      1743      1744      1921      1922
      1743      1744      1921      1926      1743      1744      1747      1746
      1743      1744      1747      1748      1744      1747      1748      1925
      1744      1747      1748      1751      1744      1921      1922      1917
      1744      1921      1922      1923      1744      1921      1926      1925
      1744      1921      1926      1927      1745      1568      1571      1570
      1745      1568      1571      1572      1745      1746      1747      1744
      1745      1746      1747      1748      1745      1750      1751      1748
      1745      1750      1751      1752      1746      1741      1742      1737
      1746      1741      1742      1743      1746      1745      1750      1749
      1746      1745      1750      1751      1746      1747      1748      1925
      1746      1747      1748      1751      1747      1744      1921      1922
      1747      1744      1921      1926      1747      1748      1925      1926
      1747      1748      1925      1930      1747      1748      1751      1750
      1747      1748      1751      1752      1748      1751      1752      1929
      1748      1751      1752      1755      1748      1925      1926      1921
      1748      1925      1926      1927      1748      1925      1930      1929
      1748      1925      1930      1931      1749      1572      1575      1574
      1749      1572      1575      1576      1749      1750      1751      1748
      1749      1750      1751      1752      1749      1754      1755      1752
      1749      1754      1755      1756      1750      1745      1746      1741
      1750      1745      1746      1747      1750      1749      1754      1753
      1750      1749      1754      1755      1750      1751      1752      1929
      1750      1751      1752      1755      1751      1748      1925      1926
      1751      1748      1925      1930      1751      1752      1929      1934
      1751      1752      1929      1930      1751      1752      1755      1754
      1751      1752      1755      1756      1752      1755      1756      1759
      1752      1755      1756      1933      1752      1929      1934      1933
      1752      1929      1934      1935      1752      1929      1930      1925
      1752      1929      1930      1931      1753      1576      1579      1578
      1753      1576      1579      1580      1753      1754      1755      1752
      1753      1754      1755      1756      1753      1758      1759      1756
      1753      1758      1759      1760      1754      1749      1750      1745
      1754      1749      1750      1751      1754      1753      1758      1757
      1754      1753      1758      1759      1754      1755      1756      1759
      1754      1755      1756      1933      1755      1752      1929      1934
      1755      1752      1929      1930      1755      1756      1759      1758
      1755      1756      1759      1760      1755      1756      1933      1934
      1755      1756      1933      1938      1756      1759      1760      1937
      1756      1759      1760      1763      1756      1933      1934      1929
      1756      1933      1934      1935      1756      1933      1938      1937
      1756      1933      1938      1939      1757      1580      1583      1582
      1757      1580      1583      1584      1757      1758      1759      1756
      1757      1758      1759      1760      1757      1762      1763      1760
      1757      1762      1763      1764      1758      1753      1754      1749
      1758      1753      1754      1755      1758      1757      1762      1761
      1758      1757      1762      1763      1758      1759      1760      1937
      1758      1759      1760      1763      1759      1756      1933      1934
      1759      1756      1933      1938      1759      1760      1937      1938
      1759      1760      1937      1942      1759      1760      1763      1762
      1759      1760      1763      1764      1760      1763      1764      1941
      1760      1763      1764      1767      1760      1937      1938      1933
      1760      1937      1938      1939      1760      1937      1942      1941
      1760      1937      1942      1943      1761      1584      1587      1586
      1761      1584      1587      1588      1761      1762      1763      1760
      1761      1762      1763      1764      1761      1766      1767      1764
      1761      1766      1767      1768      1762      1757      1758      1753
      1762      1757      1758      1759      1762      1761      1766      1765
      1762      1761      1766      1767      1762      1763      1764      1941
      1762      1763      1764      1767      1763      1760      1937      1938
      1763      1760      1937      1942      1763      1764      1941      1942
      1763      1764      1941      1946      1763      1764      1767      1766
      1763      1764      1767      1768      1764      1767      1768      1945
      1764      1767      1768      1771      1764      1941      1942      1937
      1764      1941      1942      1943      1764      1941      1946      1945
      1764      1941      1946      1947      1765      1588      1591      1590
      1765      1588      1591      1592      1765      1766      1767      1764
      1765      1766      1767      1768      1765      1770      1771      1768
      1765      1770      1771      1772      1766      1761      1762      1757
      1766      1761      1762      1763      1766      1765      1770      1769
      1766      1765      1770      1771      1766      1767      1768      1945
      1766      1767      1768      1771      1767      1764      1941      1942
      1767      1764      1941      1946      1767      1768      1945      1946
      1767      1768      1945      1950      1767      1768      1771      1770
      1767      1768      1771      1772      1768      1771      1772      1775
      1768      1771      1772      1949      1768      1945      1946      1941
      1768      1945      1946      1947      1768      1945      1950      1949
      1768      1945      1950      1951      1769      1592      1595      1594
      1769      1592      1595      1596      1769      1770      1771      1768
      1769      1770      1771      1772      1769      1774      1775      1772
      1769      1774      1775      1776      1770      1765      1766      1761
      1770      1765      1766      1767      1770      1769      1774      1773
      1770      1769      1774      1775      1770      1771      1772      1775
      1770      1771      1772      1949      1771      1768      1945      1946
      1771      1768      1945      1950      1771      1772      1775      1774
      1771      1772      1775      1776      1771      1772      1949      1950
      1771      1772      1949      1954      1772      1775      1776      1779
      1772      1775      1776      1953      1772      1949      1950      1945
      1772      1949      1950      1951      1772      1949      1954      1953
      1772      1949      1954      1955      1773      1596      1599      1598
      1773      1596      1599      1600      1773      1774      1775      1772
      1773      1774      1775      1776      1773      1778      1779      1776
      1773      1778      1779      1780      1774      1769      1770      1765
      1774      1769      1770      1771      1774      1773      1778      1777
      1774      1773      1778      1779      1774      1775      1776      1779
      1774      1775      1776      1953      1775      1772      1949      1950
      1775      1772      1949      1954      1775      1776      1779      1778
      1775      1776      1779      1780      1775      1776      1953      1954
      1775      1776      1953      1958      1776      1779      1780      1957
      1776      1779      1780      1783      1776      1953      1954      1949
      1776      1953      1954      1955      1776      1953      1958      1957
      1776      1953      1958      1959      1777      1600      1603      1602
      1777      1600      1603      1604      1777      1778      1779      1776
      1777      1778      1779      1780      1777      1782      1783      1780
      1777      1782      1783      1784      1778      1773      1774      1769
      1778      1773      1774      1775      1778      1777      1782      1781
      1778      1777      1782      1783      1778      1779      1780      1957
      1778      1779      1780      1783      1779      1776      1953      1954
      1779      1776      1953      1958      1779      1780      1957      1962
      1779      1780      1957      1958      1779      1780      1783      1782
      1779      1780      1783      1784      1780      1783      1784      1961
      1780      1783      1784      1787      1780      1957      1962      1961
      1780      1957      1962      1963      1780      1957      1958      1953
      1780      1957      1958      1959      1781      1604      1607      1606
      1781      1604      1607      1608      1781      1782      1783      1780
      1781      1782      1783      1784      1781      1786      1787      1784
      1781      1786      1787      1788      1782      1777      1778      1773
      1782      1777      1778      1779      1782      1781      1786      1785
      1782      1781      1786      1787      1782      1783      1784      1961
      1782      1783      1784      1787      1783      1780      1957      1962
      1783      1780      1957      1958      1783      1784      1961      1962
      1783      1784      1961      1966      1783      1784      1787      1786
      1783      1784      1787      1788      1784      1787      1788      1965
      1784      1787      1788      1791      1784      1961      1962      1957
      1784      1961      1962      1963      1784      1961      1966      1965
      1784      1961      1966      1967      1785      1608      1611      1610
      1785      1608      1611      1612      1785      1786      1787      1784
      1785      1786      1787      1788      1785      1790      1791      1788
      1785      1790      1791      1792      1786      1781      1782      1777
      1786      1781      1782      1783      1786      1785      1790      1789
      1786      1785      1790      1791      1786      1787      1788      1965
      1786      1787      1788      1791      1787      1784      1961      1962
      1787      1784      1961      1966      1787      1788      1965      1966
      1787      1788      1965      1970      1787      1788      1791      1790
      1787      1788      1791      1792      1788      1791      1792      1795
      1788      1791      1792      1969      1788      1965      1966      1961
      1788      1965      1966      1967      1788      1965      1970      1969
      1788      1965      1970      1971      1789      1612      1615      1614
      1789      1612      1615      1616      1789      1790      1791      1788
      1789      1790      1791      1792      1789      1794      1795      1792
      1789      1794      1795      1796      1790      1785      1786      1781
      1790      1785      1786      1787      1790      1789      1794      1793
      1790      1789      1794      1795      1790      1791      1792      1795
      1790      1791      1792      1969      1791      1788      1965      1966
      1791      1788      1965      1970      1791      1792      1795      1794
      1791      1792      1795      1796      1791      1792      1969      1974
      1791      1792      1969      1970      1792      1795      1796      1799
      1792      1795      1796      1973      1792      1969      1974      1973
      1792      1969      1974      1975      1792      1969      1970      1965
      1792      1969      1970      1971      1793      1616      1619      1618
      1793      1616      1619      1620      1793      1794      1795      1792
      1793      1794      1795      1796      1793      1798      1799      1796
      1793      1798      1799      1800      1794      1789      1790      1785
      1794      1789      1790      1791      1794      1793      1798      1797
      1794      1793      1798      1799      1794      1795      1796      1799
      1794      1795      1796      1973      1795      1792      1969      1974
      1795      1792      1969      1970      1795      1796      1799      1798
      1795      1796      1799      1800      1795      1796      1973      1978
      1795      1796      1973      1974      1796      1799      1800      1977
      1796      1973      1978      1977      1796      1973      1978      1979
      1796      1973      1974      1969      1796      1973      1974      1975
      1797      1798      1799      1796      1797      1798      1799      1800
      1798      1793      1794      1789      1798      1793      1794      1795
      1798      1799      1800      1977      1799      1796      1973      1978
      1799      1796      1973      1974      1799      1800      1977      1978
      1800      1977      1978      1973      1800      1977      1978      1979
      1801      1624      1627      1626      1801      1624      1627      1628
      1801      1802      1803      1804      1801      1806      1807      1804
      1801      1806      1807      1808      1802      1801      1806      1805
      1802      1801      1806      1807      1802      1803      1804      1981
      1802      1803      1804      1807      1803      1804      1981      1982
      1803      1804      1981      1986      1803      1804      1807      1806
      1803      1804      1807      1808      1804      1807      1808      1985
      1804      1807      1808      1811      1804      1981      1982      1983
      1804      1981      1986      1985      1804      1981      1986      1987
      1805      1628      1631      1630      1805      1628      1631      1632
      1805      1806      1807      1804      1805      1806      1807      1808
      1805      1810      1811      1808      1805      1810      1811      1812
      1806      1801      1802      1803      1806      1805      1810      1809
      1806      1805      1810      1811      1806      1807      1808      1985
      1806      1807      1808      1811      1807      1804      1981      1982
      1807      1804      1981      1986      1807      1808      1985      1986
      1807      1808      1985      1990      1807      1808      1811      1810
      1807      1808      1811      1812      1808      1811      1812      1815
      1808      1811      1812      1989      1808      1985      1986      1981
      1808      1985      1986      1987      1808      1985      1990      1989
      1808      1985      1990      1991      1809      1632      1635      1634
      1809      1632      1635      1636      1809      1810      1811      1808
      1809      1810      1811      1812      1809      1814      1815      1812
      1809      1814      1815      1816      1810      1805      1806      1801
      1810      1805      1806      1807      1810      1809      1814      1813
      1810      1809      1814      1815      1810      1811      1812      1815
      1810      1811      1812      1989      1811      1808      1985      1986
      1811      1808      1985      1990      1811      1812      1815      1814
      1811      1812      1815      1816      1811      1812      1989      1994
      1811      1812      1989      1990      1812      1815      1816      1819
      1812      1815      1816      1993      1812      1989      1994      1993
      1812      1989      1994      1995      1812      1989      1990      1985
      1812      1989      1990      1991      1813      1636      1639      1638
      1813      1636      1639      1640      1813      1814      1815      1812
      1813      1814      1815      1816      1813      1818      1819      1816
      1813      1818      1819      1820      1814      1809      1810      1805
      1814      1809      1810      1811      1814      1813      1818      1817
      1814      1813      1818      1819      1814      1815      1816      1819
      1814      1815      1816      1993      1815      1812      1989      1994
      1815      1812      1989      1990      1815      1816      1819      1818
      1815      1816      1819      1820      1815      1816      1993      1998
      1815      1816      1993      1994      1816      1819      1820      1997
      1816      1819      1820      1823      1816      1993      1998      1997
      1816      1993      1998      1999      1816      1993      1994      1989
      1816      1993      1994      1995      1817      1640      1643      1642
      1817      1640      1643      1644      1817      1818      1819      1816
      1817      1818      1819      1820      1817      1822      1823      1820
      1817      1822      1823      1824      1818      1813      1814      1809
      1818      1813      1814      1815      1818      1817      1822      1821
      1818      1817      1822      1823      1818      1819      1820      1997
      1818      1819      1820      1823      1819      1816      1993      1998
      1819      1816      1993      1994      1819      1820      1997      2002
      1819      1820      1997      1998      1819      1820      1823      1822
      1819      1820      1823      1824      1820      1823      1824      2001
      1820      1823      1824      1827      1820      1997      2002      2001
      1820      1997      2002      2003      1820      1997      1998      1993
      1820      1997      1998      1999      1821      1644      1647      1646
      1821      1644      1647      1648      1821      1822      1823      1820
      1821      1822      1823      1824      1821      1826      1827      1824
      1821      1826      1827      1828      1822      1817      1818      1813
      1822      1817      1818      1819      1822      1821      1826      1825
      1822      1821      1826      1827      1822      1823      1824      2001
      1822      1823      1824      1827      1823      1820      1997      2002
      1823      1820      1997      1998      1823      1824      2001      2002
      1823      1824      2001      2006      1823      1824      1827      1826
      1823      1824      1827      1828      1824      1827      1828      2005
      1824      1827      1828      1831      1824      2001      2002      1997
      1824      2001      2002      2003      1824      2001      2006      2005
      1824      2001      2006      2007      1825      1648      1651      1650
      1825      1648      1651      1652      1825      1826      1827      1824
      1825      1826      1827      1828      1825      1830      1831      1828
      1825      1830      1831      1832      1826      1821      1822      1817
      1826      1821      1822      1823      1826      1825      1830      1829
      1826      1825      1830      1831      1826      1827      1828      2005
      1826      1827      1828      1831      1827      1824      2001      2002
      1827      1824      2001      2006      1827      1828      2005      2006
      1827      1828      2005      2010      1827      1828      1831      1830
      1827      1828      1831      1832      1828      1831      1832      2009
      1828      1831      1832      1835      1828      2005      2006      2001
      1828      2005      2006      2007      1828      2005      2010      2009
      1828      2005      2010      2011      1829      1652      1655      1654
      1829      1652      1655      1656      1829      1830      1831      1828
      1829      1830      1831      1832      1829      1834      1835      1832
      1829      1834      1835      1836      1830      1825      1826      1821
      1830      1825      1826      1827      1830      1829      1834      1833
      1830      1829      1834      1835      1830      1831      1832      2009
      1830      1831      1832      1835      1831      1828      2005      2006
      1831      1828      2005      2010      1831      1832      2009      2014
      1831      1832      2009      2010      1831      1832      1835      1834
      1831      1832      1835      1836      1832      1835      1836      2013
      1832      1835      1836      1839      1832      2009      2014      2013
      1832      2009      2014      2015      1832      2009      2010      2005
      1832      2009      2010      2011      1833      1656      1659      1658
      1833      1656      1659      1660      1833      1834      1835      1832
      1833      1834      1835      1836      1833      1838      1839      1836
      1833      1838      1839      1840      1834      1829      1830      1825
      1834      1829      1830      1831      1834      1833      1838      1837
      1834      1833      1838      1839      1834      1835      1836      2013
      1834      1835      1836      1839      1835      1832      2009      2014
      1835      1832      2009      2010      1835      1836      2013      2018
      1835      1836      2013      2014      1835      1836      1839      1838
      1835      1836      1839      1840      1836      1839      1840      2017
      1836      1839      1840      1843      1836      2013      2018      2017
      1836      2013      2018      2019      1836      2013      2014      2009
      1836      2013      2014      2015      1837      1660      1663      1662
      1837      1660      1663      1664      1837      1838      1839      1836
      1837      1838      1839      1840      1837      1842      1843      1840
      1837      1842      1843      1844      1838      1833      1834      1829
      1838      1833      1834      1835      1838      1837      1842      1841
      1838      1837      1842      1843      1838      1839      1840      2017
      1838      1839      1840      1843      1839      1836      2013      2018
      1839      1836      2013      2014      1839      1840      2017      2022
      1839      1840      2017      2018      1839      1840      1843      1842
      1839      1840      1843      1844      1840      1843      1844      2021
      1840      1843      1844      1847      1840      2017      2022      2021
      1840      2017      2022      2023      1840      2017      2018      2013
      1840      2017      2018      2019      1841      1664      1667      1666
      1841      1664      1667      1668      1841      1842      1843      1840
      1841      1842      1843      1844      1841      1846      1847      1844
      1841      1846      1847      1848      1842      1837      1838      1833
      1842      1837      1838      1839      1842      1841      1846      1845
      1842      1841      1846      1847      1842      1843      1844      2021
      1842      1843      1844      1847      1843      1840      2017      2022
      1843      1840      2017      2018      1843      1844      2021      2022
      1843      1844      2021      2026      1843      1844      1847      1846
      1843      1844      1847      1848      1844      1847      1848      2025
      1844      1847      1848      1851      1844      2021      2022      2017
      1844      2021      2022      2023      1844      2021      2026      2025
      1844      2021      2026      2027      1845      1668      1671      1670
      1845      1668      1671      1672      1845      1846      1847      1844
      1845      1846      1847      1848      1845      1850      1851      1848
      1845      1850      1851      1852      1846      1841      1842      1837
      1846      1841      1842      1843      1846      1845      1850      1849
      1846      1845      1850      1851      1846      1847      1848      2025
      1846      1847      1848      1851      1847      1844      2021      2022
      1847      1844      2021      2026      1847      1848      2025      2026
      1847      1848      2025      2030      1847      1848      1851      1850
      1847      1848      1851      1852      1848      1851      1852      1855
      1848      1851      1852      2029      1848      2025      2026      2021
      1848      2025      2026      2027      1848      2025      2030      2029
      1848      2025      2030      2031      1849      1672      1675      1674
      1849      1672      1675      1676      1849      1850      1851      1848
      1849      1850      1851      1852      1849      1854      1855      1852
      1849      1854      1855      1856      1850      1845      1846      1841
      1850      1845      1846      1847      1850      1849      1854      1853
      1850      1849      1854      1855      1850      1851      1852      1855
      1850      1851      1852      2029      1851      1848      2025      2026
      1851      1848      2025      2030      1851      1852      1855      1854
      1851      1852      1855      1856      1851      1852      2029      2030
      1851      1852      2029      2034      1852      1855      1856      1859
      1852      1855      1856      2033      1852      2029      2030      2025
      1852      2029      2030      2031      1852      2029      2034      2033
      1852      2029      2034      2035      1853      1676      1679      1678
      1853      1676      1679      1680      1853      1854      1855      1852
      1853      1854      1855      1856      1853      1858      1859      1856
      1853      1858      1859      1860      1854      1849      1850      1845
      1854      1849      1850      1851      1854      1853      1858      1857
      1854      1853      1858      1859      1854      1855      1856      1859
      1854      1855      1856      2033      1855      1852      2029      2030
      1855      1852      2029      2034      1855      1856      1859      1858
      1855      1856      1859      1860      1855      1856      2033      2034
      1855      1856      2033      2038      1856      1859      1860      2037
      1856      1859      1860      1863      1856      2033      2034      2029
      1856      2033      2034      2035      1856      2033      2038      2037
      1856      2033      2038      2039      1857      1680      1683      1682
      1857      1680      1683      1684      1857      1858      1859      1856
      1857      1858      1859      1860      1857      1862      1863      1860
      1857      1862      1863      1864      1858      1853      1854      1849
      1858      1853      1854      1855      1858      1857      1862      1861
      1858      1857      1862      1863      1858      1859      1860      2037
      1858      1859      1860      1863      1859      1856      2033      2034
      1859      1856      2033      2038      1859      1860      2037      2038
      1859      1860      2037      2042      1859      1860      1863      1862
      1859      1860      1863      1864      1860      1863      1864      2041
      1860      1863      1864      1867      1860      2037      2038      2033
      1860      2037      2038      2039      1860      2037      2042      2041
      1860      2037      2042      2043      1861      1684      1687      1686
      1861      1684      1687      1688      1861      1862      1863      1860
      1861      1862      1863      1864      1861      1866      1867      1864
      1861      1866      1867      1868      1862      1857      1858      1853
      1862      1857      1858      1859      1862      1861      1866      1865
      1862      1861      1866      1867      1862      1863      1864      2041
      1862      1863      1864      1867      1863      1860      2037      2038
      1863      1860      2037      2042      1863      1864      2041      2042
      1863      1864      2041      2046      1863      1864      1867      1866
      1863      1864      1867      1868      1864      1867      1868      2045
      1864      1867      1868      1871      1864      2041      2042      2037
      1864      2041      2042      2043      1864      2041      2046      2045
      1864      2041      2046      2047      1865      1688      1691      1690
      1865      1688      1691      1692      1865      1866      1867      1864
      1865      1866      1867      1868      1865      1870      1871      1868
      1865      1870      1871      1872      1866      1861      1862      1857
      1866      1861      1862      1863      1866      1865      1870      1869
      1866      1865      1870      1871      1866      1867      1868      2045
      1866      1867      1868      1871      1867      1864      2041      2042
      1867      1864      2041      2046      1867      1868      2045      2046
      1867      1868      2045      2050      1867      1868      1871      1870
      1867      1868      1871      1872      1868      1871      1872      1875
      1868      1871      1872      2049      1868      2045      2046      2041
      1868      2045      2046      2047      1868      2045      2050      2049
      1868      2045      2050      2051      1869      1692      1695      1694
      1869      1692      1695      1696      1869      1870      1871      1868
      1869      1870      1871      1872      1869      1874      1875      1872
      1869      1874      1875      1876      1870      1865      1866      1861
      1870      1865      1866      1867      1870      1869      1874      1873
      1870      1869      1874      1875      1870      1871      1872      1875
      1870      1871      1872      2049      1871      1868      2045      2046
      1871      1868      2045      2050      1871      1872      1875      1874
      1871      1872      1875      1876      1871      1872      2049      2054
      1871      1872      2049      2050      1872      1875      1876      1879
      1872      1875      1876      2053      1872      2049      2054      2053
      1872      2049      2054      2055      1872      2049      2050      2045
      1872      2049      2050      2051      1873      1696      1699      1698
      1873      1696      1699      1700      1873      1874      1875      1872
      1873      1874      1875      1876      1873      1878      1879      1876
      1873      1878      1879      1880      1874      1869      1870      1865
      1874      1869      1870      1871      1874      1873      1878      1877
      1874      1873      1878      1879      1874      1875      1876      1879
      1874      1875      1876      2053      1875      1872      2049      2054
      1875      1872      2049      2050      1875      1876      1879      1878
      1875      1876      1879      1880      1875      1876      2053      2058
      1875      1876      2053      2054      1876      1879      1880      2057
      1876      1879      1880      1883      1876      2053      2058      2057
      1876      2053      2058      2059      1876      2053      2054      2049
      1876      2053      2054      2055      1877      1700      1703      1702
      1877      1700      1703      1704      1877      1878      1879      1876
      1877      1878      1879      1880      1877      1882      1883      1880
      1877      1882      1883      1884      1878      1873      1874      1869
      1878      1873      1874      1875      1878      1877      1882      1881
      1878      1877      1882      1883      1878      1879      1880      2057
      1878      1879      1880      1883      1879      1876      2053      2058
      1879      1876      2053      2054      1879      1880      2057      2062
      1879      1880      2057      2058      1879      1880      1883      1882
      1879      1880      1883      1884      1880      1883      1884      2061
      1880      1883      1884      1887      1880      2057      2062      2061
      1880      2057      2062      2063      1880      2057      2058      2053
      1880      2057      2058      2059      1881      1704      1707      1706
      1881      1704      1707      1708      1881      1882      1883      1880
      1881      1882      1883      1884      1881      1886      1887      1884
      1881      1886      1887      1888      1882      1877      1878      1873
      1882      1877      1878      1879      1882      1881      1886      1885
      1882      1881      1886      1887      1882      1883      1884      2061
      1882      1883      1884      1887      1883      1880      2057      2062
      1883      1880      2057      2058      1883      1884      2061      2062
      1883      1884      2061      2066      1883      1884      1887      1886
      1883      1884      1887      1888      1884      1887      1888      2065
      1884      1887      1888      1891      1884      2061      2062      2057
      1884      2061      2062      2063      1884      2061      2066      2065
      1884      2061      2066      2067      1885      1708      1711      1710
      1885      1708      1711      1712      1885      1886      1887      1884
      1885      1886      1887      1888      1885      1890      1891      1888
      1885      1890      1891      1892      1886      1881      1882      1877
      1886      1881      1882      1883      1886      1885      1890      1889
      1886      1885      1890      1891      1886      1887      1888      2065
      1886      1887      1888      1891      1887      1884      2061      2062
      1887      1884      2061      2066      1887      1888      2065      2066
      1887      1888      2065      2070      1887      1888      1891      1890
      1887      1888      1891      1892      1888      1891      1892      2069
      1888      1891      1892      1895      1888      2065      2066      2061
      1888      2065      2066      2067      1888      2065      2070      2069
      1888      2065      2070      2071      1889      1712      1715      1714
      1889      1712      1715      1716      1889      1890      1891      1888
      1889      1890      1891      1892      1889      1894      1895      1892
      1889      1894      1895      1896      1890      1885      1886      1881
      1890      1885      1886      1887      1890      1889      1894      1893
      1890      1889      1894      1895      1890      1891      1892      2069
      1890      1891      1892      1895      1891      1888      2065      2066
      1891      1888      2065      2070      1891      1892      2069      2074
      1891      1892      2069      2070      1891      1892      1895      1894
      1891      1892      1895      1896      1892      1895      1896      2073
      1892      1895      1896      1899      1892      2069      2074      2073
      1892      2069      2074      2075      1892      2069      2070      2065
      1892      2069      2070      2071      1893      1716      1719      1718
      1893      1716      1719      1720      1893      1894      1895      1892
      1893      1894      1895      1896      1893      1898      1899      1896
      1893      1898      1899      1900      1894      1889      1890      1885
      1894      1889      1890      1891      1894      1893      1898      1897
      1894      1893      1898      1899      1894      1895      1896      2073
      1894      1895      1896      1899      1895      1892      2069      2074
      1895      1892      2069      2070      1895      1896      2073      2078
      1895      1896      2073      2074      1895      1896      1899      1898
      1895      1896      1899      1900      1896      1899      1900      2077
      1896      1899      1900      1903      1896      2073      2078      2077
      1896      2073      2078      2079      1896      2073      2074      2069
      1896      2073      2074      2075      1897      1720      1723      1722
      1897      1720      1723      1724      1897      1898      1899      1896
      1897      1898      1899      1900      1897      1902      1903      1900
      1897      1902      1903      1904      1898      1893      1894      1889
      1898      1893      1894      1895      1898      1897      1902      1901
      1898      1897      1902      1903      1898      1899      1900      2077
      1898      1899      1900      1903      1899      1896      2073      2078
      1899      1896      2073      2074      1899      1900      2077      2082
      1899      1900      2077      2078      1899      1900      1903      1902
      1899      1900      1903      1904      1900      1903      1904      2081
      1900      1903      1904      1907      1900      2077      2082      2081
      1900      2077      2082      2083      1900      2077      2078      2073
      1900      2077      2078      2079      1901      1724      1727      1726
      1901      1724      1727      1728      1901      1902      1903      1900
      1901      1902      1903      1904      1901      1906      1907      1904
      1901      1906      1907      1908      1902      1897      1898      1893
      1902      1897      1898      1899      1902      1901      1906      1905
      1902      1901      1906      1907      1902      1903      1904      2081
      1902      1903      1904      1907      1903      1900      2077      2082
      1903      1900      2077      2078      1903      1904      2081      2082
      1903      1904      2081      2086      1903      1904      1907      1906
      1903      1904      1907      1908      1904      1907      1908      2085
      1904      1907      1908      1911      1904      2081      2082      2077
      1904      2081      2082      2083      1904      2081      2086      2085
      1904      2081      2086      2087      1905      1728      1731      1730
      1905      1728      1731      1732      1905      1906      1907      1904
      1905      1906      1907      1908      1905      1910      1911      1908
      1905      1910      1911      1912      1906      1901      1902      1897
      1906      1901      1902      1903      1906      1905      1910      1909
      1906      1905      1910      1911      1906      1907      1908      2085
      1906      1907      1908      1911      1907      1904      2081      2082
      1907      1904      2081      2086      1907      1908      2085      2086
      1907      1908      2085      2090      1907      1908      1911      1910
      1907      1908      1911      1912      1908      1911      1912      1915
      1908      1911      1912      2089      1908      2085      2086      2081
      1908      2085      2086      2087      1908      2085      2090      2089
      1908      2085      2090      2091      1909      1732      1735      1734
      1909      1732      1735      1736      1909      1910      1911      1908
      1909      1910      1911      1912      1909      1914      1915      1912
      1909      1914      1915      1916      1910      1905      1906      1901
      1910      1905      1906      1907      1910      1909      1914      1913
      1910      1909      1914      1915      1910      1911      1912      1915
      1910      1911      1912      2089      1911      1908      2085      2086
      1911      1908      2085      2090      1911      1912      1915      1914
      1911      1912      1915      1916      1911      1912      2089      2090
      1911      1912      2089      2094      1912      1915      1916      1919
      1912      1915      1916      2093      1912      2089      2090      2085
      1912      2089      2090      2091      1912      2089      2094      2093
      1912      2089      2094      2095      1913      1736      1739      1738
      1913      1736      1739      1740      1913      1914      1915      1912
      1913      1914      1915      1916      1913      1918      1919      1916
      1913      1918      1919      1920      1914      1909      1910      1905
      1914      1909      1910      1911      1914      1913      1918      1917
      1914      1913      1918      1919      1914      1915      1916      1919
      1914      1915      1916      2093      1915      1912      2089      2090
      1915      1912      2089      2094      1915      1916      1919      1918
      1915      1916      1919      1920      1915      1916      2093      2094
      1915      1916      2093      2098      1916      1919      1920      2097
      1916      1919      1920      1923      1916      2093      2094      2089
      1916      2093      2094      2095      1916      2093      2098      2097
      1916      2093      2098      2099      1917      1740      1743      1742
      1917      1740      1743      1744      1917      1918      1919      1916
      1917      1918      1919      1920      1917      1922      1923      1920
      1917      1922      1923      1924      1918      1913      1914      1909
      1918      1913      1914      1915      1918      1917      1922      1921
      1918      1917      1922      1923      1918      1919      1920      2097
      1918      1919      1920      1923      1919      1916      2093      2094
      1919      1916      2093      2098      1919      1920      2097      2098
      1919      1920      2097      2102      1919      1920      1923      1922
      1919      1920      1923      1924      1920      1923      1924      2101
      1920      1923      1924      1927      1920      2097      2098      2093
      1920      2097      2098      2099      1920      2097      2102      2101
      1920      2097      2102      2103      1921      1744      1747      1746
      1921      1744      1747      1748      1921      1922      1923      1920
      1921      1922      1923      1924      1921      1926      1927      1924
      1921      1926      1927      1928      1922      1917      1918      1913
      1922      1917      1918      1919      1922      1921      1926      1925
      1922      1921      1926      1927      1922      1923      1924      2101
      1922      1923      1924      1927      1923      1920      2097      2098
      1923      1920      2097      2102      1923      1924      2101      2102
      1923      1924      2101      2106      1923      1924      1927      1926
      1923      1924      1927      1928      1924      1927      1928      2105
      1924      1927      1928      1931      1924      2101      2102      2097
      1924      2101      2102      2103      1924      2101      2106      2105
      1924      2101      2106      2107      1925      1748      1751      1750
      1925      1748      1751      1752      1925      1926      1927      1924
      1925      1926      1927      1928      1925      1930      1931      1928
      1925      1930      1931      1932      1926      1921      1922      1917
      1926      1921      1922      1923      1926      1925      1930      1929
      1926      1925      1930      1931      1926      1927      1928      2105
      1926      1927      1928      1931      1927      1924      2101      2102
      1927      1924      2101      2106      1927      1928      2105      2106
      1927      1928      2105      2110      1927      1928      1931      1930
      1927      1928      1931      1932      1928      1931      1932      1935
      1928      1931      1932      2109      1928      2105      2106      2101
      1928      2105      2106      2107      1928      2105      2110      2109
      1928      2105      2110      2111      1929      1752      1755      1754
      1929      1752      1755      1756      1929      1930      1931      1928
      1929      1930      1931      1932      1929      1934      1935      1932
      1929      1934      1935      1936      1930      1925      1926      1921
      1930      1925      1926      1927      1930      1929      1934      1933
      1930      1929      1934      1935      1930      1931      1932      1935
      1930      1931      1932      2109      1931      1928      2105      2106
      1931      1928      2105      2110      1931      1932      1935      1934
      1931      1932      1935      1936      1931      1932      2109      2114
      1931      1932      2109      2110      1932      1935      1936      1939
      1932      1935      1936      2113      1932      2109      2114      2113
      1932      2109      2114      2115      1932      2109      2110      2105
      1932      2109      2110      2111      1933      1756      1759      1758
      1933      1756      1759      1760      1933      1934      1935      1932
      1933      1934      1935      1936      1933      1938      1939      1936
      1933      1938      1939      1940      1934      1929      1930      1925
      1934      1929      1930      1931      1934      1933      1938      1937
      1934      1933      1938      1939      1934      1935      1936      1939
      1934      1935      1936      2113      1935      1932      2109      2114
      1935      1932      2109      2110      1935      1936      1939      1938
      1935      1936      1939      1940      1935      1936      2113      2118
      1935      1936      2113      2114      1936      1939      1940      2117
      1936      1939      1940      1943      1936      2113      2118      2117
      1936      2113      2118      2119      1936      2113      2114      2109
      1936      2113      2114      2115      1937      1760      1763      1762
      1937      1760      1763      1764      1937      1938      1939      1936
      1937      1938      1939      1940      1937      1942      1943      1940
      1937      1942      1943      1944      1938      1933      1934      1929
      1938      1933      1934      1935      1938      1937      1942      1941
      1938      1937      1942      1943      1938      1939      1940      2117
      1938      1939      1940      1943      1939      1936      2113      2118
      1939      1936      2113      2114      1939      1940      2117      2122
      1939      1940      2117      2118      1939      1940      1943      1942
      1939      1940      1943      1944      1940      1943      1944      2121
      1940      1943      1944      1947      1940      2117      2122      2121
      1940      2117      2122      2123      1940      2117      2118      2113
      1940      2117      2118      2119      1941      1764      1767      1766
      1941      1764      1767      1768      1941      1942      1943      1940
      1941      1942      1943      1944      1941      1946      1947      1944
      1941      1946      1947      1948      1942      1937      1938      1933
      1942      1937      1938      1939      1942      1941      1946      1945
      1942      1941      1946      1947      1942      1943      1944      2121
      1942      1943      1944      1947      1943      1940      2117      2122
      1943      1940      2117      2118      1943      1944      2121      2122
      1943      1944      2121      2126      1943      1944      1947      1946
      1943      1944      1947      1948      1944      1947      1948      2125
      1944      1947      1948      1951      1944      2121      2122      2117
      1944      2121      2122      2123      1944      2121      2126      2125
      1944      2121      2126      2127      1945      1768      1771      1770
      1945      1768      1771      1772      1945      1946      1947      1944
      1945      1946      1947      1948      1945      1950      1951      1948
      1945      1950      1951      1952      1946      1941      1942      1937
      1946      1941      1942      1943      1946      1945      1950      1949
      1946      1945      1950      1951      1946      1947      1948      2125
      1946      1947      1948      1951      1947      1944      2121      2122
      1947      1944      2121      2126      1947      1948      2125      2126
      1947      1948      2125      2130      1947      1948      1951      1950
      1947      1948      1951      1952      1948      1951      1952      1955
      1948      1951      1952      2129      1948      2125      2126      2121
      1948      2125      2126      2127      1948      2125      2130      2129
      1948      2125      2130      2131      1949      1772      1775      1774
      1949      1772      1775      1776      1949      1950      1951      1948
      1949      1950      1951      1952      1949      1954      1955      1952
      1949      1954      1955      1956      1950      1945      1946      1941
      1950      1945      1946      1947      1950      1949      1954      1953
      1950      1949      1954      1955      1950      1951      1952      1955
      1950      1951      1952      2129      1951      1948      2125      2126
      1951      1948      2125      2130      1951      1952      1955      1954
      1951      1952      1955      1956      1951      1952      2129      2134
      1951      1952      2129      2130      1952      1955      1956      2133
      1952      1955      1956      1959      1952      2129      2134      2133
      1952      2129      2134      2135      1952      2129      2130      2125
      1952      2129      2130      2131      1953      1776      1779      1778
      1953      1776      1779      1780      1953      1954      1955      1952
      1953      1954      1955      1956      1953      1958      1959      1956
      1953      1958      1959      1960      1954      1949      1950      1945
      1954      1949      1950      1951      1954      1953      1958      1957
      1954      1953      1958      1959      1954      1955      1956      2133
      1954      1955      1956      1959      1955      1952      2129      2134
      1955      1952      2129      2130      1955      1956      2133      2138
      1955      1956      2133      2134      1955      1956      1959      1958
      1955      1956      1959      1960      1956      1959      1960      2137
      1956      1959      1960      1963      1956      2133      2138      2137
      1956      2133      2138      2139      1956      2133      2134      2129
      1956      2133      2134      2135      1957      1780      1783      1782
      1957      1780      1783      1784      1957      1958      1959      1956
      1957      1958      1959      1960      1957      1962      1963      1960
      1957      1962      1963      1964      1958      1953      1954      1949
      1958      1953      1954      1955      1958      1957      1962      1961
      1958      1957      1962      1963      1958      1959      1960      2137
      1958      1959      1960      1963      1959      1956      2133      2138
      1959      1956      2133      2134      1959      1960      2137      2142
      1959      1960      2137      2138      1959      1960      1963      1962
      1959      1960      1963      1964      1960      1963      1964      2141
      1960      1963      1964      1967      1960      2137      2142      2141
      1960      2137      2142      2143      1960      2137      2138      2133
      1960      2137      2138      2139      1961      1784      1787      1786
      1961      1784      1787      1788      1961      1962      1963      1960
      1961      1962      1963      1964      1961      1966      1967      1964
      1961      1966      1967      1968      1962      1957      1958      1953
      1962      1957      1958      1959      1962      1961      1966      1965
      1962      1961      1966      1967      1962      1963      1964      2141
      1962      1963      1964      1967      1963      1960      2137      2142
      1963      1960      2137      2138      1963      1964      2141      2142
      1963      1964      2141      2146      1963      1964      1967      1966
      1963      1964      1967      1968      1964      1967      1968      2145
      1964      1967      1968      1971      1964      2141      2142      2137
      1964      2141      2142      2143      1964      2141      2146      2145
      1964      2141      2146      2147      1965      1788      1791      1790
      1965      1788      1791      1792      1965      1966      1967      1964
      1965      1966      1967      1968      1965      1970      1971      1968
      1965      1970      1971      1972      1966      1961      1962      1957
      1966      1961      1962      1963      1966      1965      1970      1969
      1966      1965      1970      1971      1966      1967      1968      2145
      1966      1967      1968      1971      1967      1964      2141      2142
      1967      1964      2141      2146      1967      1968      2145      2146
      1967      1968      2145      2150      1967      1968      1971      1970
      1967      1968      1971      1972      1968      1971      1972      2149
      1968      1971      1972      1975      1968      2145      2146      2141
      1968      2145      2146      2147      1968      2145      2150      2149
      1968      2145      2150      2151      1969      1792      1795      1794
      1969      1792      1795      1796      1969      1970      1971      1968
      1969      1970      1971      1972      1969      1974      1975      1972
      1969      1974      1975      1976      1970      1965      1966      1961
      1970      1965      1966      1967      1970      1969      1974      1973
      1970      1969      1974      1975      1970      1971      1972      2149
      1970      1971      1972      1975      1971      1968      2145      2146
      1971      1968      2145      2150      1971      1972      2149      2154
      1971      1972      2149      2150      1971      1972      1975      1974
      1971      1972      1975      1976      1972      1975      1976      1979
      1972      1975      1976      2153      1972      2149      2154      2153
      1972      2149      2154      2155      1972      2149      2150      2145
      1972      2149      2150      2151      1973      1796      1799      1798
      1973      1796      1799      1800      1973      1974      1975      1972
      1973      1974      1975      1976      1973      1978      1979      1976
      1973      1978      1979      1980      1974      1969      1970      1965
      1974      1969      1970      1971      1974      1973      1978      1977
      1974      1973      1978      1979      1974      1975      1976      1979
      1974      1975      1976      2153      1975      1972      2149      2154
      1975      1972      2149      2150      1975      1976      1979      1978
      1975      1976      1979      1980      1975      1976      2153      2154
      1975      1976      2153      2158      1976      1979      1980      2157
      1976      2153      2154      2149      1976      2153      2154      2155
      1976      2153      2158      2157      1976      2153      2158      2159
      1977      1978      1979      1976      1977      1978      1979      1980
      1978      1973      1974      1969      1978      1973      1974      1975
      1978      1979      1980      2157      1979      1976      2153      2154
      1979      1976      2153      2158      1979      1980      2157      2158
      1980      2157      2158      2153      1980      2157      2158      2159
      1981      1804      1807      1806      1981      1804      1807      1808
      1981      1982      1983      1984      1981      1986      1987      1984
      1981      1986      1987      1988      1982      1981      1986      1985
      1982      1981      1986      1987      1982      1983      1984      2161
      1982      1983      1984      1987      1983      1984      2161      2162
      1983      1984      2161      2166      1983      1984      1987      1986
      1983      1984      1987      1988      1984      1987      1988      2165
      1984      1987      1988      1991      1984      2161      2162      2163
      1984      2161      2166      2165      1984      2161      2166      2167
      1985      1808      1811      1810      1985      1808      1811      1812
      1985      1986      1987      1984      1985      1986      1987      1988
      1985      1990      1991      1988      1985      1990      1991      1992
      1986      1981      1982      1983      1986      1985      1990      1989
      1986      1985      1990      1991      1986      1987      1988      2165
      1986      1987      1988      1991      1987      1984      2161      2162
      1987      1984      2161      2166      1987      1988      2165      2166
      1987      1988      2165      2170      1987      1988      1991      1990
      1987      1988      1991      1992      1988      1991      1992      2169
      1988      1991      1992      1995      1988      2165      2166      2161
      1988      2165      2166      2167      1988      2165      2170      2169
      1988      2165      2170      2171      1989      1812      1815      1814
      1989      1812      1815      1816      1989      1990      1991      1988
      1989      1990      1991      1992      1989      1994      1995      1992
      1989      1994      1995      1996      1990      1985      1986      1981
      1990      1985      1986      1987      1990      1989      1994      1993
      1990      1989      1994      1995      1990      1991      1992      2169
      1990      1991      1992      1995      1991      1988      2165      2166
      1991      1988      2165      2170      1991      1992      2169      2174
      1991      1992      2169      2170      1991      1992      1995      1994
      1991      1992      1995      1996      1992      1995      1996      1999
      1992      1995      1996      2173      1992      2169      2174      2173
      1992      2169      2174      2175      1992      2169      2170      2165
      1992      2169      2170      2171      1993      1816      1819      1818
      1993      1816      1819      1820      1993      1994      1995      1992
      1993      1994      1995      1996      1993      1998      1999      1996
      1993      1998      1999      2000      1994      1989      1990      1985
      1994      1989      1990      1991      1994      1993      1998      1997
      1994      1993      1998      1999      1994      1995      1996      1999
      1994      1995      1996      2173      1995      1992      2169      2174
      1995      1992      2169      2170      1995      1996      1999      1998
      1995      1996      1999      2000      1995      1996      2173      2178
      1995      1996      2173      2174      1996      1999      2000      2177
      1996      1999      2000      2003      1996      2173      2178      2177
      1996      2173      2178      2179      1996      2173      2174      2169
      1996      2173      2174      2175      1997      1820      1823      1822
      1997      1820      1823      1824      1997      1998      1999      1996
      1997      1998      1999      2000      1997      2002      2003      2000
      1997      2002      2003      2004      1998      1993      1994      1989
      1998      1993      1994      1995      1998      1997      2002      2001
      1998      1997      2002      2003      1998      1999      2000      2177
      1998      1999      2000      2003      1999      1996      2173      2178
      1999      1996      2173      2174      1999      2000      2177      2182
      1999      2000      2177      2178      1999      2000      2003      2002
      1999      2000      2003      2004      2000      2003      2004      2181
      2000      2003      2004      2007      2000      2177      2182      2181
      2000      2177      2182      2183      2000      2177      2178      2173
      2000      2177      2178      2179      2001      1824      1827      1826
      2001      1824      1827      1828      2001      2002      2003      2000
      2001      2002      2003      2004      2001      2006      2007      2004
      2001      2006      2007      2008      2002      1997      1998      1993
      2002      1997      1998      1999      2002      2001      2006      2005
      2002      2001      2006      2007      2002      2003      2004      2181
      2002      2003      2004      2007      2003      2000      2177      2182
      2003      2000      2177      2178      2003      2004      2181      2182
      2003      2004      2181      2186      2003      2004      2007      2006
      2003      2004      2007      2008      2004      2007      2008      2185
      2004      2007      2008      2011      2004      2181      2182      2177
      2004      2181      2182      2183      2004      2181      2186      2185
      2004      2181      2186      2187      2005      1828      1831      1830
      2005      1828      1831      1832      2005      2006      2007      2004
      2005      2006      2007      2008      2005      2010      2011      2008
      2005      2010      2011      2012      2006      2001      2002      1997
      2006      2001      2002      2003      2006      2005      2010      2009
      2006      2005      2010      2011      2006      2007      2008      2185
      2006      2007      2008      2011      2007      2004      2181      2182
      2007      2004      2181      2186      2007      2008      2185      2186
      2007      2008      2185      2190      2007      2008      2011      2010
      2007      2008      2011      2012      2008      2011      2012      2015
      2008      2011      2012      2189      2008      2185      2186      2181
      2008      2185      2186      2187      2008      2185      2190      2189
      2008      2185      2190      2191      2009      1832      1835      1834
      2009      1832      1835      1836      2009      2010      2011      2008
      2009      2010      2011      2012      2009      2014      2015      2012
      2009      2014      2015      2016      2010      2005      2006      2001
      2010      2005      2006      2007      2010      2009      2014      2013
      2010      2009      2014      2015      2010      2011      2012      2015
      2010      2011      2012      2189      2011      2008      2185      2186
      2011      2008      2185      2190      2011      2012      2015      2014
      2011      2012      2015      2016      2011      2012      2189      2194
      2011      2012      2189      2190      2012      2015      2016      2019
      2012      2015      2016      2193      2012      2189      2194      2193
      2012      2189      2194      2195      2012      2189      2190      2185
      2012      2189      2190      2191      2013      1836      1839      1838
      2013      1836      1839      1840      2013      2014      2015      2012
      2013      2014      2015      2016      2013      2018      2019      2016
      2013      2018      2019      2020      2014      2009      2010      2005
      2014      2009      2010      2011      2014      2013      2018      2017
      2014      2013      2018      2019      2014      2015      2016      2019
      2014      2015      2016      2193      2015      2012      2189      2194
      2015      2012      2189      2190      2015      2016      2019      2018
      2015      2016      2019      2020      2015      2016      2193      2194
      2015      2016      2193      2198      2016      2019      2020      2197
      2016      2019      2020      2023      2016      2193      2194      2189
      2016      2193      2194      2195      2016      2193      2198      2197
      2016      2193      2198      2199      2017      1840      1843      1842
      2017      1840      1843      1844      2017      2018      2019      2016
      2017      2018      2019      2020      2017      2022      2023      2020
      2017      2022      2023      2024      2018      2013      2014      2009
      2018      2013      2014      2015      2018      2017      2022      2021
      2018      2017      2022      2023      2018      2019      2020      2197
      2018      2019      2020      2023      2019      2016      2193      2194
      2019      2016      2193      2198      2019      2020      2197      2202
      2019      2020      2197      2198      2019      2020      2023      2022
      2019      2020      2023      2024      2020      2023      2024      2201
      2020      2023      2024      2027      2020      2197      2202      2201
      2020      2197      2202      2203      2020      2197      2198      2193
      2020      2197      2198      2199      2021      1844      1847      1846
      2021      1844      1847      1848      2021      2022      2023      2020
      2021      2022      2023      2024      2021      2026      2027      2024
      2021      2026      2027      2028      2022      2017      2018      2013
      2022      2017      2018      2019      2022      2021      2026      2025
      2022      2021      2026      2027      2022      2023      2024      2201
      2022      2023      2024      2027      2023      2020      2197      2202
      2023      2020      2197      2198      2023      2024      2201      2202
      2023      2024      2201      2206      2023      2024      2027      2026
      2023      2024      2027      2028      2024      2027      2028      2205
      2024      2027      2028      2031      2024      2201      2202      2197
      2024      2201      2202      2203      2024      2201      2206      2205
      2024      2201      2206      2207      2025      1848      1851      1850
      2025      1848      1851      1852      2025      2026      2027      2024
      2025      2026      2027      2028      2025      2030      2031      2028
      2025      2030      2031      2032      2026      2021      2022      2017
      2026      2021      2022      2023      2026      2025      2030      2029
      2026      2025      2030      2031      2026      2027      2028      2205
      2026      2027      2028      2031      2027      2024      2201      2202
      2027      2024      2201      2206      2027      2028      2205      2206
      2027      2028      2205      2210      2027      2028      2031      2030
      2027      2028      2031      2032      2028      2031      2032      2035
      2028      2031      2032      2209      2028      2205      2206      2201
      2028      2205      2206      2207      2028      2205      2210      2209
      2028      2205      2210      2211      2029      1852      1855      1854
      2029      1852      1855      1856      2029      2030      2031      2028
      2029      2030      2031      2032      2029      2034      2035      2032
      2029      2034      2035      2036      2030      2025      2026      2021
      2030      2025      2026      2027      2030      2029      2034      2033
      2030      2029      2034      2035      2030      2031      2032      2035
      2030      2031      2032      2209      2031      2028      2205      2206
      2031      2028      2205      2210      2031      2032      2035      2034
      2031      2032      2035      2036      2031      2032      2209      2214
      2031      2032      2209      2210      2032      2035      2036      2039
      2032      2035      2036      2213      2032      2209      2214      2213
      2032      2209      2214      2215      2032      2209      2210      2205
      2032      2209      2210      2211      2033      1856      1859      1858
      2033      1856      1859      1860      2033      2034      2035      2032
      2033      2034      2035      2036      2033      2038      2039      2036
      2033      2038      2039      2040      2034      2029      2030      2025
      2034      2029      2030      2031      2034      2033      2038      2037
      2034      2033      2038      2039      2034      2035      2036      2039
      2034      2035      2036      2213      2035      2032      2209      2214
      2035      2032      2209      2210      2035      2036      2039      2038
      2035      2036      2039      2040      2035      2036      2213      2218
      2035      2036      2213      2214      2036      2039      2040      2217
      2036      2039      2040      2043      2036      2213      2218      2217
      2036      2213      2218      2219      2036      2213      2214      2209
      2036      2213      2214      2215      2037      1860      1863      1862
      2037      1860      1863      1864      2037      2038      2039      2036
      2037      2038      2039      2040      2037      2042      2043      2040
      2037      2042      2043      2044      2038      2033      2034      2029
      2038      2033      2034      2035      2038      2037      2042      2041
      2038      2037      2042      2043      2038      2039      2040      2217
      2038      2039      2040      2043      2039      2036      2213      2218
      2039      2036      2213      2214      2039      2040      2217      2222
      2039      2040      2217      2218      2039      2040      2043      2042
      2039      2040      2043      2044      2040      2043      2044      2221
      2040      2043      2044      2047      2040      2217      2222      2221
      2040      2217      2222      2223      2040      2217      2218      2213
      2040      2217      2218      2219      2041      1864      1867      1866
      2041      1864      1867      1868      2041      2042      2043      2040
      2041      2042      2043      2044      2041      2046      2047      2044
      2041      2046      2047      2048      2042      2037      2038      2033
      2042      2037      2038      2039      2042      2041      2046      2045
      2042      2041      2046      2047      2042      2043      2044      2221
      2042      2043      2044      2047      2043      2040      2217      2222
      2043      2040      2217      2218      2043      2044      2221      2222
      2043      2044      2221      2226      2043      2044      2047      2046
      2043      2044      2047      2048      2044      2047      2048      2225
      2044      2047      2048      2051      2044      2221      2222      2217
      2044      2221      2222      2223      2044      2221      2226      2225
      2044      2221      2226      2227      2045      1868      1871      1870
      2045      1868      1871      1872      2045      2046      2047      2044
      2045      2046      2047      2048      2045      2050      2051      2048
      2045      2050      2051      2052      2046      2041      2042      2037
      2046      2041      2042      2043      2046      2045      2050      2049
      2046      2045      2050      2051      2046      2047      2048      2225
      2046      2047      2048      2051      2047      2044      2221      2222
      2047      2044      2221      2226      2047      2048      2225      2226
      2047      2048      2225      2230      2047      2048      2051      2050
      2047      2048      2051      2052      2048      2051      2052      2229
      2048      2051      2052      2055      2048      2225      2226      2221
      2048      2225      2226      2227      2048      2225      2230      2229
      2048      2225      2230      2231      2049      1872      1875      1874
      2049      1872      1875      1876      2049      2050      2051      2048
      2049      2050      2051      2052      2049      2054      2055      2052
      2049      2054      2055      2056      2050      2045      2046      2041
      2050      2045      2046      2047      2050      2049      2054      2053
      2050      2049      2054      2055      2050      2051      2052      2229
      2050      2051      2052      2055      2051      2048      2225      2226
      2051      2048      2225      2230      2051      2052      2229      2234
      2051      2052      2229      2230      2051      2052      2055      2054
      2051      2052      2055      2056      2052      2055      2056      2233
      2052      2055      2056      2059      2052      2229      2234      2233
      2052      2229      2234      2235      2052      2229      2230      2225
      2052      2229      2230      2231      2053      1876      1879      1878
      2053      1876      1879      1880      2053      2054      2055      2052
      2053      2054      2055      2056      2053      2058      2059      2056
      2053      2058      2059      2060      2054      2049      2050      2045
      2054      2049      2050      2051      2054      2053      2058      2057
      2054      2053      2058      2059      2054      2055      2056      2233
      2054      2055      2056      2059      2055      2052      2229      2234
      2055      2052      2229      2230      2055      2056      2233      2238
      2055      2056      2233      2234      2055      2056      2059      2058
      2055      2056      2059      2060      2056      2059      2060      2237
      2056      2059      2060      2063      2056      2233      2238      2237
      2056      2233      2238      2239      2056      2233      2234      2229
      2056      2233      2234      2235      2057      1880      1883      1882
      2057      1880      1883      1884      2057      2058      2059      2056
      2057      2058      2059      2060      2057      2062      2063      2060
      2057      2062      2063      2064      2058      2053      2054      2049
      2058      2053      2054      2055      2058      2057      2062      2061
      2058      2057      2062      2063      2058      2059      2060      2237
      2058      2059      2060      2063      2059      2056      2233      2238
      2059      2056      2233      2234      2059      2060      2237      2242
      2059      2060      2237      2238      2059      2060      2063      2062
      2059      2060      2063      2064      2060      2063      2064      2241
      2060      2063      2064      2067      2060      2237      2242      2241
      2060      2237      2242      2243      2060      2237      2238      2233
      2060      2237      2238      2239      2061      1884      1887      1886
      2061      1884      1887      1888      2061      2062      2063      2060
      2061      2062      2063      2064      2061      2066      2067      2064
      2061      2066      2067      2068      2062      2057      2058      2053
      2062      2057      2058      2059      2062      2061      2066      2065
      2062      2061      2066      2067      2062      2063      2064      2241
      2062      2063      2064      2067      2063      2060      2237      2242
      2063      2060      2237      2238      2063      2064      2241      2242
      2063      2064      2241      2246      2063      2064      2067      2066
      2063      2064      2067      2068      2064      2067      2068      2245
      2064      2067      2068      2071      2064      2241      2242      2237
      2064      2241      2242      2243      2064      2241      2246      2245
      2064      2241      2246      2247      2065      1888      1891      1890
      2065      1888      1891      1892      2065      2066      2067      2064
      2065      2066      2067      2068      2065      2070      2071      2068
      2065      2070      2071      2072      2066      2061      2062      2057
      2066      2061      2062      2063      2066      2065      2070      2069
      2066      2065      2070      2071      2066      2067      2068      2245
      2066      2067      2068      2071      2067      2064      2241      2242
      2067      2064      2241      2246      2067      2068      2245      2246
      2067      2068      2245      2250      2067      2068      2071      2070
      2067      2068      2071      2072      2068      2071      2072      2075
      2068      2071      2072      2249      2068      2245      2246      2241
      2068      2245      2246      2247      2068      2245      2250      2249
      2068      2245      2250      2251      2069      1892      1895      1894
      2069      1892      1895      1896      2069      2070      2071      2068
      2069      2070      2071      2072      2069      2074      2075      2072
      2069      2074      2075      2076      2070      2065      2066      2061
      2070      2065      2066      2067      2070      2069      2074      2073
      2070      2069      2074      2075      2070      2071      2072      2075
      2070      2071      2072      2249      2071      2068      2245      2246
      2071      2068      2245      2250      2071      2072      2075      2074
      2071      2072      2075      2076      2071      2072      2249      2254
      2071      2072      2249      2250      2072      2075      2076      2079
      2072      2075      2076      2253      2072      2249      2254      2253
      2072      2249      2254      2255      2072      2249      2250      2245
      2072      2249      2250      2251      2073      1896      1899      1898
      2073      1896      1899      1900      2073      2074      2075      2072
      2073      2074      2075      2076      2073      2078      2079      2076
      2073      2078      2079      2080      2074      2069      2070      2065
      2074      2069      2070      2071      2074      2073      2078      2077
      2074      2073      2078      2079      2074      2075      2076      2079
      2074      2075      2076      2253      2075      2072      2249      2254
      2075      2072      2249      2250      2075      2076      2079      2078
      2075      2076      2079      2080      2075      2076      2253      2258
      2075      2076      2253      2254      2076      2079      2080      2257
      2076      2079      2080      2083      2076      2253      2258      2257
      2076      2253      2258      2259      2076      2253      2254      2249
      2076      2253      2254      2255      2077      1900      1903      1902
      2077      1900      1903      1904      2077      2078      2079      2076
      2077      2078      2079      2080      2077      2082      2083      2080
      2077      2082      2083      2084      2078      2073      2074      2069
      2078      2073      2074      2075      2078      2077      2082      2081
      2078      2077      2082      2083      2078      2079      2080      2257
      2078      2079      2080      2083      2079      2076      2253      2258
      2079      2076      2253      2254      2079      2080      2257      2262
      2079      2080      2257      2258      2079      2080      2083      2082
      2079      2080      2083      2084      2080      2083      2084      2261
      2080      2083      2084      2087      2080      2257      2262      2261
      2080      2257      2262      2263      2080      2257      2258      2253
      2080      2257      2258      2259      2081      1904      1907      1906
      2081      1904      1907      1908      2081      2082      2083      2080
      2081      2082      2083      2084      2081      2086      2087      2084
      2081      2086      2087      2088      2082      2077      2078      2073
      2082      2077      2078      2079      2082      2081      2086      2085
      2082      2081      2086      2087      2082      2083      2084      2261
      2082      2083      2084      2087      2083      2080      2257      2262
      2083      2080      2257      2258      2083      2084      2261      2262
      2083      2084      2261      2266      2083      2084      2087      2086
      2083      2084      2087      2088      2084      2087      2088      2265
      2084      2087      2088      2091      2084      2261      2262      2257
      2084      2261      2262      2263      2084      2261      2266      2265
      2084      2261      2266      2267      2085      1908      1911      1910
      2085      1908      1911      1912      2085      2086      2087      2084
      2085      2086      2087      2088      2085      2090      2091      2088
      2085      2090      2091      2092      2086      2081      2082      2077
      2086      2081      2082      2083      2086      2085      2090      2089
      2086      2085      2090      2091      2086      2087      2088      2265
      2086      2087      2088      2091      2087      2084      2261      2262
      2087      2084      2261      2266      2087      2088      2265      2266
      2087      2088      2265      2270      2087      2088      2091      2090
      2087      2088      2091      2092      2088      2091      2092      2095
      2088      2091      2092      2269      2088      2265      2266      2261
      2088      2265      2266      2267      2088      2265      2270      2269
      2088      2265      2270      2271      2089      1912      1915      1914
      2089      1912      1915      1916      2089      2090      2091      2088
      2089      2090      2091      2092      2089      2094      2095      2092
      2089      2094      2095      2096      2090      2085      2086      2081
      2090      2085      2086      2087      2090      2089      2094      2093
      2090      2089      2094      2095      2090      2091      2092      2095
      2090      2091      2092      2269      2091      2088      2265      2266
      2091      2088      2265      2270      2091      2092      2095      2094
      2091      2092      2095      2096      2091      2092      2269      2274
      2091      2092      2269      2270      2092      2095      2096      2099
      2092      2095      2096      2273      2092      2269      2274      2273
      2092      2269      2274      2275      2092      2269      2270      2265
      2092      2269      2270      2271      2093      1916      1919      1918
      2093      1916      1919      1920      2093      2094      2095      2092
      2093      2094      2095      2096      2093      2098      2099      2096
      2093      2098      2099      2100      2094      2089      2090      2085
      2094      2089      2090      2091      2094      2093      2098      2097
      2094      2093      2098      2099      2094      2095      2096      2099
      2094      2095      2096      2273      2095      2092      2269      2274
      2095      2092      2269      2270      2095      2096      2099      2098
      2095      2096      2099      2100      2095      2096      2273      2278
      2095      2096      2273      2274      2096      2099      2100      2277
      2096      2099      2100      2103      2096      2273      2278      2277
      2096      2273      2278      2279      2096      2273      2274      2269
      2096      2273      2274      2275      2097      1920      1923      1922
      2097      1920      1923      1924      2097      2098      2099      2096
      2097      2098      2099      2100      2097      2102      2103      2100
      2097      2102      2103      2104      2098      2093      2094      2089
      2098      2093      2094      2095      2098      2097      2102      2101
      2098      2097      2102      2103      2098      2099      2100      2277
      2098      2099      2100      2103      2099      2096      2273      2278
      2099      2096      2273      2274      2099      2100      2277      2282
      2099      2100      2277      2278      2099      2100      2103      2102
      2099      2100      2103      2104      2100      2103      2104      2281
      2100      2103      2104      2107      2100      2277      2282      2281
      2100      2277      2282      2283      2100      2277      2278      2273
      2100      2277      2278      2279      2101      1924      1927      1926
      2101      1924      1927      1928      2101      2102      2103      2100
      2101      2102      2103      2104      2101      2106      2107      2104
      2101      2106      2107      2108      2102      2097      2098      2093
      2102      2097      2098      2099      2102      2101      2106      2105
      2102      2101      2106      2107      2102      2103      2104      2281
      2102      2103      2104      2107      2103      2100      2277      2282
      2103      2100      2277      2278      2103      2104      2281      2282
      2103      2104      2281      2286      2103      2104      2107      2106
      2103      2104      2107      2108      2104      2107      2108      2285
      2104      2107      2108      2111      2104      2281      2282      2277
      2104      2281      2282      2283      2104      2281      2286      2285
      2104      2281      2286      2287      2105      1928      1931      1930
      2105      1928      1931      1932      2105      2106      2107      2104
      2105      2106      2107      2108      2105      2110      2111      2108
      2105      2110      2111      2112      2106      2101      2102      2097
      2106      2101      2102      2103      2106      2105      2110      2109
      2106      2105      2110      2111      2106      2107      2108      2285
      2106      2107      2108      2111      2107      2104      2281      2282
      2107      2104      2281      2286      2107      2108      2285      2286
      2107      2108      2285      2290      2107      2108      2111      2110
      2107      2108      2111      2112      2108      2111      2112      2289
      2108      2111      2112      2115      2108      2285      2286      2281
      2108      2285      2286      2287      2108      2285      2290      2289
      2108      2285      2290      2291      2109      1932      1935      1934
      2109      1932      1935      1936      2109      2110      2111      2108
      2109      2110      2111      2112      2109      2114      2115      2112
      2109      2114      2115      2116      2110      2105      2106      2101
      2110      2105      2106      2107      2110      2109      2114      2113
      2110      2109      2114      2115      2110      2111      2112      2289
      2110      2111      2112      2115      2111      2108      2285      2286
      2111      2108      2285      2290      2111      2112      2289      2294
      2111      2112      2289      2290      2111      2112      2115      2114
      2111      2112      2115      2116      2112      2115      2116      2293
      2112      2115      2116      2119      2112      2289      2294      2293
      2112      2289      2294      2295      2112      2289      2290      2285
      2112      2289      2290      2291      2113      1936      1939      1938
      2113      1936      1939      1940      2113      2114      2115      2112
      2113      2114      2115      2116      2113      2118      2119      2116
      2113      2118      2119      2120      2114      2109      2110      2105
      2114      2109      2110      2111      2114      2113      2118      2117
      2114      2113      2118      2119      2114      2115      2116      2293
      2114      2115      2116      2119      2115      2112      2289      2294
      2115      2112      2289      2290      2115      2116      2293      2298
      2115      2116      2293      2294      2115      2116      2119      2118
      2115      2116      2119      2120      2116      2119      2120      2297
      2116      2119      2120      2123      2116      2293      2298      2297
      2116      2293      2298      2299      2116      2293      2294      2289
      2116      2293      2294      2295      2117      1940      1943      1942
      2117      1940      1943      1944      2117      2118      2119      2116
      2117      2118      2119      2120      2117      2122      2123      2120
      2117      2122      2123      2124      2118      2113      2114      2109
      2118      2113      2114      2115      2118      2117      2122      2121
      2118      2117      2122      2123      2118      2119      2120      2297
      2118      2119      2120      2123      2119      2116      2293      2298
      2119      2116      2293      2294      2119      2120      2297      2302
      2119      2120      2297      2298      2119      2120      2123      2122
      2119      2120      2123      2124      2120      2123      2124      2301
      2120      2123      2124      2127      2120      2297      2302      2301
      2120      2297      2302      2303      2120      2297      2298      2293
      2120      2297      2298      2299      2121      1944      1947      1946
      2121      1944      1947      1948      2121      2122      2123      2120
      2121      2122      2123      2124      2121      2126      2127      2124
      2121      2126      2127      2128      2122      2117      2118      2113
      2122      2117      2118      2119      2122      2121      2126      2125
      2122      2121      2126      2127      2122      2123      2124      2301
      2122      2123      2124      2127      2123      2120      2297      2302
      2123      2120      2297      2298      2123      2124      2301      2302
      2123      2124      2301      2306      2123      2124      2127      2126
      2123      2124      2127      2128      2124      2127      2128      2305
      2124      2127      2128      2131      2124      2301      2302      2297
      2124      2301      2302      2303      2124      2301      2306      2305
      2124      2301      2306      2307      2125      1948      1951      1950
      2125      1948      1951      1952      2125      2126      2127      2124
      2125      2126      2127      2128      2125      2130      2131      2128
      2125      2130      2131      2132      2126      2121      2122      2117
      2126      2121      2122      2123      2126      2125      2130      2129
      2126      2125      2130      2131      2126      2127      2128      2305
      2126      2127      2128      2131      2127      2124      2301      2302
      2127      2124      2301      2306      2127      2128      2305      2306
      2127      2128      2305      2310      2127      2128      2131      2130
      2127      2128      2131      2132      2128      2131      2132      2135
      2128      2131      2132      2309      2128      2305      2306      2301
      2128      2305      2306      2307      2128      2305      2310      2309
      2128      2305      2310      2311      2129      1952      1955      1954
      2129      1952      1955      1956      2129      2130      2131      2128
      2129      2130      2131      2132      2129      2134      2135      2132
      2129      2134      2135      2136      2130      2125      2126      2121
      2130      2125      2126      2127      2130      2129      2134      2133
      2130      2129      2134      2135      2130      2131      2132      2135
      2130      2131      2132      2309      2131      2128      2305      2306
      2131      2128      2305      2310      2131      2132      2135      2134
      2131      2132      2135      2136      2131      2132      2309      2314
      2131      2132      2309      2310      2132      2135      2136      2139
      2132      2135      2136      2313      2132      2309      2314      2313
      2132      2309      2314      2315      2132      2309      2310      2305
      2132      2309      2310      2311      2133      1956      1959      1958
      2133      1956      1959      1960      2133      2134      2135      2132
      2133      2134      2135      2136      2133      2138      2139      2136
      2133      2138      2139      2140      2134      2129      2130      2125
      2134      2129      2130      2131      2134      2133      2138      2137
      2134      2133      2138      2139      2134      2135      2136      2139
      2134      2135      2136      2313      2135      2132      2309      2314
      2135      2132      2309      2310      2135      2136      2139      2138
      2135      2136      2139      2140      2135      2136      2313      2318
      2135      2136      2313      2314      2136      2139      2140      2317
      2136      2139      2140      2143      2136      2313      2318      2317
      2136      2313      2318      2319      2136      2313      2314      2309
      2136      2313      2314      2315      2137      1960      1963      1962
      2137      1960      1963      1964      2137      2138      2139      2136
      2137      2138      2139      2140      2137      2142      2143      2140
      2137      2142      2143      2144      2138      2133      2134      2129
      2138      2133      2134      2135      2138      2137      2142      2141
      2138      2137      2142      2143      2138      2139      2140      2317
      2138      2139      2140      2143      2139      2136      2313      2318
      2139      2136      2313      2314      2139      2140      2317      2322
      2139      2140      2317      2318      2139      2140      2143      2142
      2139      2140      2143      2144      2140      2143      2144      2321
      2140      2143      2144      2147      2140      2317      2322      2321
      2140      2317      2322      2323      2140      2317      2318      2313
      2140      2317      2318      2319      2141      1964      1967      1966
      2141      1964      1967      1968      2141      2142      2143      2140
      2141      2142      2143      2144      2141      2146      2147      2144
      2141      2146      2147      2148      2142      2137      2138      2133
      2142      2137      2138      2139      2142      2141      2146      2145
      2142      2141      2146      2147      2142      2143      2144      2321
      2142      2143      2144      2147      2143      2140      2317      2322
      2143      2140      2317      2318      2143      2144      2321      2322
      2143      2144      2321      2326      2143      2144      2147      2146
      2143      2144      2147      2148      2144      2147      2148      2325
      2144      2147      2148      2151      2144      2321      2322      2317
      2144      2321      2322      2323      2144      2321      2326      2325
      2144      2321      2326      2327      2145      1968      1971      1970
      2145      1968      1971      1972      2145      2146      2147      2144
      2145      2146      2147      2148      2145      2150      2151      2148
      2145      2150      2151      2152      2146      2141      2142      2137
      2146      2141      2142      2143      2146      2145      2150      2149
      2146      2145      2150      2151      2146      2147      2148      2325
      2146      2147      2148      2151      2147      2144      2321      2322
      2147      2144      2321      2326      2147      2148      2325      2326
      2147      2148      2325      2330      2147      2148      2151      2150
      2147      2148      2151      2152      2148      2151      2152      2155
      2148      2151      2152      2329      2148      2325      2326      2321
      2148      2325      2326      2327      2148      2325      2330      2329
      2148      2325      2330      2331      2149      1972      1975      1974
      2149      1972      1975      1976      2149      2150      2151      2148
      2149      2150      2151      2152      2149      2154      2155      2152
      2149      2154      2155      2156      2150      2145      2146      2141
      2150      2145      2146      2147      2150      2149      2154      2153
      2150      2149      2154      2155      2150      2151      2152      2155
      2150      2151      2152      2329      2151      2148      2325      2326
      2151      2148      2325      2330      2151      2152      2155      2154
      2151      2152      2155      2156      2151      2152      2329      2334
      2151      2152      2329      2330      2152      2155      2156      2159
      2152      2155      2156      2333      2152      2329      2334      2333
      2152      2329      2334      2335      2152      2329      2330      2325
      2152      2329      2330      2331      2153      1976      1979      1978
      2153      1976      1979      1980      2153      2154      2155      2152
      2153      2154      2155      2156      2153      2158      2159      2156
      2153      2158      2159      2160      2154      2149      2150      2145
      2154      2149      2150      2151      2154      2153      2158      2157
      2154      2153      2158      2159      2154      2155      2156      2159
      2154      2155      2156      2333      2155      2152      2329      2334
      2155      2152      2329      2330      2155      2156      2159      2158
      2155      2156      2159      2160      2155      2156      2333      2338
      2155      2156      2333      2334      2156      2159      2160      2337
      2156      2333      2338      2337      2156      2333      2338      2339
      2156      2333      2334      2329      2156      2333      2334      2335
      2157      2158      2159      2156      2157      2158      2159      2160
      2158      2153      2154      2149      2158      2153      2154      2155
      2158      2159      2160      2337      2159      2156      2333      2338
      2159      2156      2333      2334      2159      2160      2337      2338
      2160      2337      2338      2333      2160      2337      2338      2339
      2161      1984      1987      1986      2161      1984      1987      1988
      2161      2162      2163      2164      2161      2166      2167      2164
      2161      2166      2167      2168      2162      2161      2166      2165
      2162      2161      2166      2167      2162      2163      2164      2167
      2162      2163      2164      2341      2163      2164      2167      2166
      2163      2164      2167      2168      2163      2164      2341      2342
      2163      2164      2341      2346      2164      2167      2168      2171
      2164      2167      2168      2345      2164      2341      2342      2343
      2164      2341      2346      2345      2164      2341      2346      2347
      2165      1988      1991      1990      2165      1988      1991      1992
      2165      2166      2167      2164      2165      2166      2167      2168
      2165      2170      2171      2168      2165      2170      2171      2172
      2166      2161      2162      2163      2166      2165      2170      2169
      2166      2165      2170      2171      2166      2167      2168      2171
      2166      2167      2168      2345      2167      2164      2341      2342
      2167      2164      2341      2346      2167      2168      2171      2170
      2167      2168      2171      2172      2167      2168      2345      2346
      2167      2168      2345      2350      2168      2171      2172      2175
      2168      2171      2172      2349      2168      2345      2346      2341
      2168      2345      2346      2347      2168      2345      2350      2349
      2168      2345      2350      2351      2169      1992      1995      1994
      2169      1992      1995      1996      2169      2170      2171      2168
      2169      2170      2171      2172      2169      2174      2175      2172
      2169      2174      2175      2176      2170      2165      2166      2161
      2170      2165      2166      2167      2170      2169      2174      2173
      2170      2169      2174      2175      2170      2171      2172      2175
      2170      2171      2172      2349      2171      2168      2345      2346
      2171      2168      2345      2350      2171      2172      2175      2174
      2171      2172      2175      2176      2171      2172      2349      2354
      2171      2172      2349      2350      2172      2175      2176      2179
      2172      2175      2176      2353      2172      2349      2354      2353
      2172      2349      2354      2355      2172      2349      2350      2345
      2172      2349      2350      2351      2173      1996      1999      1998
      2173      1996      1999      2000      2173      2174      2175      2172
      2173      2174      2175      2176      2173      2178      2179      2176
      2173      2178      2179      2180      2174      2169      2170      2165
      2174      2169      2170      2171      2174      2173      2178      2177
      2174      2173      2178      2179      2174      2175      2176      2179
      2174      2175      2176      2353      2175      2172      2349      2354
      2175      2172      2349      2350      2175      2176      2179      2178
      2175      2176      2179      2180      2175      2176      2353      2358
      2175      2176      2353      2354      2176      2179      2180      2183
      2176      2179      2180      2357      2176      2353      2358      2357
      2176      2353      2358      2359      2176      2353      2354      2349
      2176      2353      2354      2355      2177      2000      2003      2002
      2177      2000      2003      2004      2177      2178      2179      2176
      2177      2178      2179      2180      2177      2182      2183      2180
      2177      2182      2183      2184      2178      2173      2174      2169
      2178      2173      2174      2175      2178      2177      2182      2181
      2178      2177      2182      2183      2178      2179      2180      2183
      2178      2179      2180      2357      2179      2176      2353      2358
      2179      2176      2353      2354      2179      2180      2183      2182
      2179      2180      2183      2184      2179      2180      2357      2362
      2179      2180      2357      2358      2180      2183      2184      2187
      2180      2183      2184      2361      2180      2357      2362      2361
      2180      2357      2362      2363      2180      2357      2358      2353
      2180      2357      2358      2359      2181      2004      2007      2006
      2181      2004      2007      2008      2181      2182      2183      2180
      2181      2182      2183      2184      2181      2186      2187      2184
      2181      2186      2187      2188      2182      2177      2178      2173
      2182      2177      2178      2179      2182      2181      2186      2185
      2182      2181      2186      2187      2182      2183      2184      2187
      2182      2183      2184      2361      2183      2180      2357      2362
      2183      2180      2357      2358      2183      2184      2187      2186
      2183      2184      2187      2188      2183      2184      2361      2362
      2183      2184      2361      2366      2184      2187      2188      2191
      2184      2187      2188      2365      2184      2361      2362      2357
      2184      2361      2362      2363      2184      2361      2366      2365
      2184      2361      2366      2367      2185      2008      2011      2010
      2185      2008      2011      2012      2185      2186      2187      2184
      2185      2186      2187      2188      2185      2190      2191      2188
      2185      2190      2191      2192      2186      2181      2182      2177
      2186      2181      2182      2183      2186      2185      2190      2189
      2186      2185      2190      2191      2186      2187      2188      2191
      2186      2187      2188      2365      2187      2184      2361      2362
      2187      2184      2361      2366      2187      2188      2191      2190
      2187      2188      2191      2192      2187      2188      2365      2366
      2187      2188      2365      2370      2188      2191      2192      2195
      2188      2191      2192      2369      2188      2365      2366      2361
      2188      2365      2366      2367      2188      2365      2370      2369
      2188      2365      2370      2371      2189      2012      2015      2014
      2189      2012      2015      2016      2189      2190      2191      2188
      2189      2190      2191      2192      2189      2194      2195      2192
      2189      2194      2195      2196      2190      2185      2186      2181
      2190      2185      2186      2187      2190      2189      2194      2193
      2190      2189      2194      2195      2190      2191      2192      2195
      2190      2191      2192      2369      2191      2188      2365      2366
      2191      2188      2365      2370      2191      2192      2195      2194
      2191      2192      2195      2196      2191      2192      2369      2374
      2191      2192      2369      2370      2192      2195      2196      2199
      2192      2195      2196      2373      2192      2369      2374      2373
      2192      2369      2374      2375      2192      2369      2370      2365
      2192      2369      2370      2371      2193      2016      2019      2018
      2193      2016      2019      2020      2193      2194      2195      2192
      2193      2194      2195      2196      2193      2198      2199      2196
      2193      2198      2199      2200      2194      2189      2190      2185
      2194      2189      2190      2191      2194      2193      2198      2197
      2194      2193      2198      2199      2194      2195      2196      2199
      2194      2195      2196      2373      2195      2192      2369      2374
      2195      2192      2369      2370      2195      2196      2199      2198
      2195      2196      2199      2200      2195      2196      2373      2378
      2195      2196      2373      2374      2196      2199      2200      2203
      2196      2199      2200      2377      2196      2373      2378      2377
      2196      2373      2378      2379      2196      2373      2374      2369
      2196      2373      2374      2375      2197      2020      2023      2022
      2197      2020      2023      2024      2197      2198      2199      2196
      2197      2198      2199      2200      2197      2202      2203      2200
      2197      2202      2203      2204      2198      2193      2194      2189
      2198      2193      2194      2195      2198      2197      2202      2201
      2198      2197      2202      2203      2198      2199      2200      2203
      2198      2199      2200      2377      2199      2196      2373      2378
      2199      2196      2373      2374      2199      2200      2203      2202
      2199      2200      2203      2204      2199      2200      2377      2382
      2199      2200      2377      2378      2200      2203      2204      2207
      2200      2203      2204      2381      2200      2377      2382      2381
      2200      2377      2382      2383      2200      2377      2378      2373
      2200      2377      2378      2379      2201      2024      2027      2026
      2201      2024      2027      2028      2201      2202      2203      2200
      2201      2202      2203      2204      2201      2206      2207      2204
      2201      2206      2207      2208      2202      2197      2198      2193
      2202      2197      2198      2199      2202      2201      2206      2205
      2202      2201      2206      2207      2202      2203      2204      2207
      2202      2203      2204      2381      2203      2200      2377      2382
      2203      2200      2377      2378      2203      2204      2207      2206
      2203      2204      2207      2208      2203      2204      2381      2382
      2203      2204      2381      2386      2204      2207      2208      2211
      2204      2207      2208      2385      2204      2381      2382      2377
      2204      2381      2382      2383      2204      2381      2386      2385
      2204      2381      2386      2387      2205      2028      2031      2030
      2205      2028      2031      2032      2205      2206      2207      2204
      2205      2206      2207      2208      2205      2210      2211      2208
      2205      2210      2211      2212      2206      2201      2202      2197
      2206      2201      2202      2203      2206      2205      2210      2209
      2206      2205      2210      2211      2206      2207      2208      2211
      2206      2207      2208      2385      2207      2204      2381      2382
      2207      2204      2381      2386      2207      2208      2211      2210
      2207      2208      2211      2212      2207      2208      2385      2386
      2207      2208      2385      2390      2208      2211      2212      2215
      2208      2211      2212      2389      2208      2385      2386      2381
      2208      2385      2386      2387      2208      2385      2390      2389
      2208      2385      2390      2391      2209      2032      2035      2034
      2209      2032      2035      2036      2209      2210      2211      2208
      2209      2210      2211      2212      2209      2214      2215      2212
      2209      2214      2215      2216      2210      2205      2206      2201
      2210      2205      2206      2207      2210      2209      2214      2213
      2210      2209      2214      2215      2210      2211      2212      2215
      2210      2211      2212      2389      2211      2208      2385      2386
      2211      2208      2385      2390      2211      2212      2215      2214
      2211      2212      2215      2216      2211      2212      2389      2394
      2211      2212      2389      2390      2212      2215      2216      2219
      2212      2215      2216      2393      2212      2389      2394      2393
      2212      2389      2394      2395      2212      2389      2390      2385
      2212      2389      2390      2391      2213      2036      2039      2038
      2213      2036      2039      2040      2213      2214      2215      2212
      2213      2214      2215      2216      2213      2218      2219      2216
      2213      2218      2219      2220      2214      2209      2210      2205
      2214      2209      2210      2211      2214      2213      2218      2217
      2214      2213      2218      2219      2214      2215      2216      2219
      2214      2215      2216      2393      2215      2212      2389      2394
      2215      2212      2389      2390      2215      2216      2219      2218
      2215      2216      2219      2220      2215      2216      2393      2398
      2215      2216      2393      2394      2216      2219      2220      2223
      2216      2219      2220      2397      2216      2393      2398      2397
      2216      2393      2398      2399      2216      2393      2394      2389
      2216      2393      2394      2395      2217      2040      2043      2042
      2217      2040      2043      2044      2217      2218      2219      2216
      2217      2218      2219      2220      2217      2222      2223      2220
      2217      2222      2223      2224      2218      2213      2214      2209
      2218      2213      2214      2215      2218      2217      2222      2221
      2218      2217      2222      2223      2218      2219      2220      2223
      2218      2219      2220      2397      2219      2216      2393      2398
      2219      2216      2393      2394      2219      2220      2223      2222
      2219      2220      2223      2224      2219      2220      2397      2402
      2219      2220      2397      2398      2220      2223      2224      2227
      2220      2223      2224      2401      2220      2397      2402      2401
      2220      2397      2402      2403      2220      2397      2398      2393
      2220      2397      2398      2399      2221      2044      2047      2046
      2221      2044      2047      2048      2221      2222      2223      2220
      2221      2222      2223      2224      2221      2226      2227      2224
      2221      2226      2227      2228      2222      2217      2218      2213
      2222      2217      2218      2219      2222      2221      2226      2225
      2222      2221      2226      2227      2222      2223      2224      2227
      2222      2223      2224      2401      2223      2220      2397      2402
      2223      2220      2397      2398      2223      2224      2227      2226
      2223      2224      2227      2228      2223      2224      2401      2402
      2223      2224      2401      2406      2224      2227      2228      2231
      2224      2227      2228      2405      2224      2401      2402      2397
      2224      2401      2402      2403      2224      2401      2406      2405
      2224      2401      2406      2407      2225      2048      2051      2050
      2225      2048      2051      2052      2225      2226      2227      2224
      2225      2226      2227      2228      2225      2230      2231      2228
      2225      2230      2231      2232      2226      2221      2222      2217
      2226      2221      2222      2223      2226      2225      2230      2229
      2226      2225      2230      2231      2226      2227      2228      2231
      2226      2227      2228      2405      2227      2224      2401      2402
      2227      2224      2401      2406      2227      2228      2231      2230
      2227      2228      2231      2232      2227      2228      2405      2406
      2227      2228      2405      2410      2228      2231      2232      2235
      2228      2231      2232      2409      2228      2405      2406      2401
      2228      2405      2406      2407      2228      2405      2410      2409
      2228      2405      2410      2411      2229      2052      2055      2054
      2229      2052      2055      2056      2229      2230      2231      2228
      2229      2230      2231      2232      2229      2234      2235      2232
      2229      2234      2235      2236      2230      2225      2226      2221
      2230      2225      2226      2227      2230      2229      2234      2233
      2230      2229      2234      2235      2230      2231      2232      2235
      2230      2231      2232      2409      2231      2228      2405      2406
      2231      2228      2405      2410      2231      2232      2235      2234
      2231      2232      2235      2236      2231      2232      2409      2414
      2231      2232      2409      2410      2232      2235      2236      2239
      2232      2235      2236      2413      2232      2409      2414      2413
      2232      2409      2414      2415      2232      2409      2410      2405
      2232      2409      2410      2411      2233      2056      2059      2058
      2233      2056      2059      2060      2233      2234      2235      2232
      2233      2234      2235      2236      2233      2238      2239      2236
      2233      2238      2239      2240      2234      2229      2230      2225
      2234      2229      2230      2231      2234      2233      2238      2237
      2234      2233      2238      2239      2234      2235      2236      2239
      2234      2235      2236      2413      2235      2232      2409      2414
      2235      2232      2409      2410      2235      2236      2239      2238
      2235      2236      2239      2240      2235      2236      2413      2414
      2235      2236      2413      2418      2236      2239      2240      2243
      2236      2239      2240      2417      2236      2413      2414      2409
      2236      2413      2414      2415      2236      2413      2418      2417
      2236      2413      2418      2419      2237      2060      2063      2062
      2237      2060      2063      2064      2237      2238      2239      2236
      2237      2238      2239      2240      2237      2242      2243      2240
      2237      2242      2243      2244      2238      2233      2234      2229
      2238      2233      2234      2235      2238      2237      2242      2241
      2238      2237      2242      2243      2238      2239      2240      2243
      2238      2239      2240      2417      2239      2236      2413      2414
      2239      2236      2413      2418      2239      2240      2243      2242
      2239      2240      2243      2244      2239      2240      2417      2422
      2239      2240      2417      2418      2240      2243      2244      2247
      2240      2243      2244      2421      2240      2417      2422      2421
      2240      2417      2422      2423      2240      2417      2418      2413
      2240      2417      2418      2419      2241      2064      2067      2066
      2241      2064      2067      2068      2241      2242      2243      2240
      2241      2242      2243      2244      2241      2246      2247      2244
      2241      2246      2247      2248      2242      2237      2238      2233
      2242      2237      2238      2239      2242      2241      2246      2245
      2242      2241      2246      2247      2242      2243      2244      2247
      2242      2243      2244      2421      2243      2240      2417      2422
      2243      2240      2417      2418      2243      2244      2247      2246
      2243      2244      2247      2248      2243      2244      2421      2422
      2243      2244      2421      2426      2244      2247      2248      2251
      2244      2247      2248      2425      2244      2421      2422      2417
      2244      2421      2422      2423      2244      2421      2426      2425
      2244      2421      2426      2427      2245      2068      2071      2070
      2245      2068      2071      2072      2245      2246      2247      2244
      2245      2246      2247      2248      2245      2250      2251      2248
      2245      2250      2251      2252      2246      2241      2242      2237
      2246      2241      2242      2243      2246      2245      2250      2249
      2246      2245      2250      2251      2246      2247      2248      2251
      2246      2247      2248      2425      2247      2244      2421      2422
      2247      2244      2421      2426      2247      2248      2251      2250
      2247      2248      2251      2252      2247      2248      2425      2426
      2247      2248      2425      2430      2248      2251      2252      2255
      2248      2251      2252      2429      2248      2425      2426      2421
      2248      2425      2426      2427      2248      2425      2430      2429
      2248      2425      2430      2431      2249      2072      2075      2074
      2249      2072      2075      2076      2249      2250      2251      2248
      2249      2250      2251      2252      2249      2254      2255      2252
      2249      2254      2255      2256      2250      2245      2246      2241
      2250      2245      2246      2247      2250      2249      2254      2253
      2250      2249      2254      2255      2250      2251      2252      2255
      2250      2251      2252      2429      2251      2248      2425      2426
      2251      2248      2425      2430      2251      2252      2255      2254
      2251      2252      2255      2256      2251      2252      2429      2434
      2251      2252      2429      2430      2252      2255      2256      2259
      2252      2255      2256      2433      2252      2429      2434      2433
      2252      2429      2434      2435      2252      2429      2430      2425
      2252      2429      2430      2431      2253      2076      2079      2078
      2253      2076      2079      2080      2253      2254      2255      2252
      2253      2254      2255      2256      2253      2258      2259      2256
      2253      2258      2259      2260      2254      2249      2250      2245
      2254      2249      2250      2251      2254      2253      2258      2257
      2254      2253      2258      2259      2254      2255      2256      2259
      2254      2255      2256      2433      2255      2252      2429      2434
      2255      2252      2429      2430      2255      2256      2259      2258
      2255      2256      2259      2260      2255      2256      2433      2438
      2255      2256      2433      2434      2256      2259      2260      2263
      2256      2259      2260      2437      2256      2433      2438      2437
      2256      2433      2438      2439      2256      2433      2434      2429
      2256      2433      2434      2435      2257      2080      2083      2082
      2257      2080      2083      2084      2257      2258      2259      2256
      2257      2258      2259      2260      2257      2262      2263      2260
      2257      2262      2263      2264      2258      2253      2254      2249
      2258      2253      2254      2255      2258      2257      2262      2261
      2258      2257      2262      2263      2258      2259      2260      2263
      2258      2259      2260      2437      2259      2256      2433      2438
      2259      2256      2433      2434      2259      2260      2263      2262
      2259      2260      2263      2264      2259      2260      2437      2442
      2259      2260      2437      2438      2260      2263      2264      2267
      2260      2263      2264      2441      2260      2437      2442      2441
      2260      2437      2442      2443      2260      2437      2438      2433
      2260      2437      2438      2439      2261      2084      2087      2086
      2261      2084      2087      2088      2261      2262      2263      2260
      2261      2262      2263      2264      2261      2266      2267      2264
      2261      2266      2267      2268      2262      2257      2258      2253
      2262      2257      2258      2259      2262      2261      2266      2265
      2262      2261      2266      2267      2262      2263      2264      2267
      2262      2263      2264      2441      2263      2260      2437      2442
      2263      2260      2437      2438      2263      2264      2267      2266
      2263      2264      2267      2268      2263      2264      2441      2442
      2263      2264      2441      2446      2264      2267      2268      2271
      2264      2267      2268      2445      2264      2441      2442      2437
      2264      2441      2442      2443      2264      2441      2446      2445
      2264      2441      2446      2447      2265      2088      2091      2090
      2265      2088      2091      2092      2265      2266      2267      2264
      2265      2266      2267      2268      2265      2270      2271      2268
      2265      2270      2271      2272      2266      2261      2262      2257
      2266      2261      2262      2263      2266      2265      2270      2269
      2266      2265      2270      2271      2266      2267      2268      2271
      2266      2267      2268      2445      2267      2264      2441      2442
      2267      2264      2441      2446      2267      2268      2271      2270
      2267      2268      2271      2272      2267      2268      2445      2446
      2267      2268      2445      2450      2268      2271      2272      2275
      2268      2271      2272      2449      2268      2445      2446      2441
      2268      2445      2446      2447      2268      2445      2450      2449
      2268      2445      2450      2451      2269      2092      2095      2094
      2269      2092      2095      2096      2269      2270      2271      2268
      2269      2270      2271      2272      2269      2274      2275      2272
      2269      2274      2275      2276      2270      2265      2266      2261
      2270      2265      2266      2267      2270      2269      2274      2273
      2270      2269      2274      2275      2270      2271      2272      2275
      2270      2271      2272      2449      2271      2268      2445      2446
      2271      2268      2445      2450      2271      2272      2275      2274
      2271      2272      2275      2276      2271      2272      2449      2454
      2271      2272      2449      2450      2272      2275      2276      2279
      2272      2275      2276      2453      2272      2449      2454      2453
      2272      2449      2454      2455      2272      2449      2450      2445
      2272      2449      2450      2451      2273      2096      2099      2098
      2273      2096      2099      2100      2273      2274      2275      2272
      2273      2274      2275      2276      2273      2278      2279      2276
      2273      2278      2279      2280      2274      2269      2270      2265
      2274      2269      2270      2271      2274      2273      2278      2277
      2274      2273      2278      2279      2274      2275      2276      2279
      2274      2275      2276      2453      2275      2272      2449      2454
      2275      2272      2449      2450      2275      2276      2279      2278
      2275      2276      2279      2280      2275      2276      2453      2458
      2275      2276      2453      2454      2276      2279      2280      2283
      2276      2279      2280      2457      2276      2453      2458      2457
      2276      2453      2458      2459      2276      2453      2454      2449
      2276      2453      2454      2455      2277      2100      2103      2102
      2277      2100      2103      2104      2277      2278      2279      2276
      2277      2278      2279      2280      2277      2282      2283      2280
      2277      2282      2283      2284      2278      2273      2274      2269
      2278      2273      2274      2275      2278      2277      2282      2281
      2278      2277      2282      2283      2278      2279      2280      2283
      2278      2279      2280      2457      2279      2276      2453      2458
      2279      2276      2453      2454      2279      2280      2283      2282
      2279      2280      2283      2284      2279      2280      2457      2462
      2279      2280      2457      2458      2280      2283      2284      2287
      2280      2283      2284      2461      2280      2457      2462      2461
      2280      2457      2462      2463      2280      2457      2458      2453
      2280      2457      2458      2459      2281      2104      2107      2106
      2281      2104      2107      2108      2281      2282      2283      2280
      2281      2282      2283      2284      2281      2286      2287      2284
      2281      2286      2287      2288      2282      2277      2278      2273
      2282      2277      2278      2279      2282      2281      2286      2285
      2282      2281      2286      2287      2282      2283      2284      2287
      2282      2283      2284      2461      2283      2280      2457      2462
      2283      2280      2457      2458      2283      2284      2287      2286
      2283      2284      2287      2288      2283      2284      2461      2462
      2283      2284      2461      2466      2284      2287      2288      2291
      2284      2287      2288      2465      2284      2461      2462      2457
      2284      2461      2462      2463      2284      2461      2466      2465
      2284      2461      2466      2467      2285      2108      2111      2110
      2285      2108      2111      2112      2285      2286      2287      2284
      2285      2286      2287      2288      2285      2290      2291      2288
      2285      2290      2291      2292      2286      2281      2282      2277
      2286      2281      2282      2283      2286      2285      2290      2289
      2286      2285      2290      2291      2286      2287      2288      2291
      2286      2287      2288      2465      2287      2284      2461      2462
      2287      2284      2461      2466      2287      2288      2291      2290
      2287      2288      2291      2292      2287      2288      2465      2466
      2287      2288      2465      2470      2288      2291      2292      2295
      2288      2291      2292      2469      2288      2465      2466      2461
      2288      2465      2466      2467      2288      2465      2470      2469
      2288      2465      2470      2471      2289      2112      2115      2114
      2289      2112      2115      2116      2289      2290      2291      2288
      2289      2290      2291      2292      2289      2294      2295      2292
      2289      2294      2295      2296      2290      2285      2286      2281
      2290      2285      2286      2287      2290      2289      2294      2293
      2290      2289      2294      2295      2290      2291      2292      2295
      2290      2291      2292      2469      2291      2288      2465      2466
      2291      2288      2465      2470      2291      2292      2295      2294
      2291      2292      2295      2296      2291      2292      2469      2474
      2291      2292      2469      2470      2292      2295      2296      2299
      2292      2295      2296      2473      2292      2469      2474      2473
      2292      2469      2474      2475      2292      2469      2470      2465
      2292      2469      2470      2471      2293      2116      2119      2118
      2293      2116      2119      2120      2293      2294      2295      2292
      2293      2294      2295      2296      2293      2298      2299      2296
      2293      2298      2299      2300      2294      2289      2290      2285
      2294      2289      2290      2291      2294      2293      2298      2297
      2294      2293      2298      2299      2294      2295      2296      2299
      2294      2295      2296      2473      2295      2292      2469      2474
      2295      2292      2469      2470      2295      2296      2299      2298
      2295      2296      2299      2300      2295      2296      2473      2478
      2295      2296      2473      2474      2296      2299      2300      2303
      2296      2299      2300      2477      2296      2473      2478      2477
      2296      2473      2478      2479      2296      2473      2474      2469
      2296      2473      2474      2475      2297      2120      2123      2122
      2297      2120      2123      2124      2297      2298      2299      2296
      2297      2298      2299      2300      2297      2302      2303      2300
      2297      2302      2303      2304      2298      2293      2294      2289
      2298      2293      2294      2295      2298      2297      2302      2301
      2298      2297      2302      2303      2298      2299      2300      2303
      2298      2299      2300      2477      2299      2296      2473      2478
      2299      2296      2473      2474      2299      2300      2303      2302
      2299      2300      2303      2304      2299      2300      2477      2482
      2299      2300      2477      2478      2300      2303      2304      2307
      2300      2303      2304      2481      2300      2477      2482      2481
      2300      2477      2482      2483      2300      2477      2478      2473
      2300      2477      2478      2479      2301      2124      2127      2126
      2301      2124      2127      2128      2301      2302      2303      2300
      2301      2302      2303      2304      2301      2306      2307      2304
      2301      2306      2307      2308      2302      2297      2298      2293
      2302      2297      2298      2299      2302      2301      2306      2305
      2302      2301      2306      2307      2302      2303      2304      2307
      2302      2303      2304      2481      2303      2300      2477      2482
      2303      2300      2477      2478      2303      2304      2307      2306
      2303      2304      2307      2308      2303      2304      2481      2482
      2303      2304      2481      2486      2304      2307      2308      2311
      2304      2307      2308      2485      2304      2481      2482      2477
      2304      2481      2482      2483      2304      2481      2486      2485
      2304      2481      2486      2487      2305      2128      2131      2130
      2305      2128      2131      2132      2305      2306      2307      2304
      2305      2306      2307      2308      2305      2310      2311      2308
      2305      2310      2311      2312      2306      2301      2302      2297
      2306      2301      2302      2303      2306      2305      2310      2309
      2306      2305      2310      2311      2306      2307      2308      2311
      2306      2307      2308      2485      2307      2304      2481      2482
      2307      2304      2481      2486      2307      2308      2311      2310
      2307      2308      2311      2312      2307      2308      2485      2486
      2307      2308      2485      2490      2308      2311      2312      2315
      2308      2311      2312      2489      2308      2485      2486      2481
      2308      2485      2486      2487      2308      2485      2490      2489
      2308      2485      2490      2491      2309      2132      2135      2134
      2309      2132      2135      2136      2309      2310      2311      2308
      2309      2310      2311      2312      2309      2314      2315      2312
      2309      2314      2315      2316      2310      2305      2306      2301
      2310      2305      2306      2307      2310      2309      2314      2313
      2310      2309      2314      2315      2310      2311      2312      2315
      2310      2311      2312      2489      2311      2308      2485      2486
      2311      2308      2485      2490      2311      2312      2315      2314
      2311      2312      2315      2316      2311      2312      2489      2494
      2311      2312      2489      2490      2312      2315      2316      2319
      2312      2315      2316      2493      2312      2489      2494      2493
      2312      2489      2494      2495      2312      2489      2490      2485
      2312      2489      2490      2491      2313      2136      2139      2138
      2313      2136      2139      2140      2313      2314      2315      2312
      2313      2314      2315      2316      2313      2318      2319      2316
      2313      2318      2319      2320      2314      2309      2310      2305
      2314      2309      2310      2311      2314      2313      2318      2317
      2314      2313      2318      2319      2314      2315      2316      2319
      2314      2315      2316      2493      2315      2312      2489      2494
      2315      2312      2489      2490      2315      2316      2319      2318
      2315      2316      2319      2320      2315      2316      2493      2498
      2315      2316      2493      2494      2316      2319      2320      2323
      2316      2319      2320      2497      2316      2493      2498      2497
      2316      2493      2498      2499      2316      2493      2494      2489
      2316      2493      2494      2495      2317      2140      2143      2142
      2317      2140      2143      2144      2317      2318      2319      2316
      2317      2318      2319      2320      2317      2322      2323      2320
      2317      2322      2323      2324      2318      2313      2314      2309
      2318      2313      2314      2315      2318      2317      2322      2321
      2318      2317      2322      2323      2318      2319      2320      2323
      2318      2319      2320      2497      2319      2316      2493      2498
      2319      2316      2493      2494      2319      2320      2323      2322
      2319      2320      2323      2324      2319      2320      2497      2502
      2319      2320      2497      2498      2320      2323      2324      2327
      2320      2323      2324      2501      2320      2497      2502      2501
      2320      2497      2502      2503      2320      2497      2498      2493
      2320      2497      2498      2499      2321      2144      2147      2146
      2321      2144      2147      2148      2321      2322      2323      2320
      2321      2322      2323      2324      2321      2326      2327      2324
      2321      2326      2327      2328      2322      2317      2318      2313
      2322      2317      2318      2319      2322      2321      2326      2325
      2322      2321      2326      2327      2322      2323      2324      2327
      2322      2323      2324      2501      2323      2320      2497      2502
      2323      2320      2497      2498      2323      2324      2327      2326
      2323      2324      2327      2328      2323      2324      2501      2502
      2323      2324      2501      2506      2324      2327      2328      2331
      2324      2327      2328      2505      2324      2501      2502      2497
      2324      2501      2502      2503      2324      2501      2506      2505
      2324      2501      2506      2507      2325      2148      2151      2150
      2325      2148      2151      2152      2325      2326      2327      2324
      2325      2326      2327      2328      2325      2330      2331      2328
      2325      2330      2331      2332      2326      2321      2322      2317
      2326      2321      2322      2323      2326      2325      2330      2329
      2326      2325      2330      2331      2326      2327      2328      2331
      2326      2327      2328      2505      2327      2324      2501      2502
      2327      2324      2501      2506      2327      2328      2331      2330
      2327      2328      2331      2332      2327      2328      2505      2506
      2327      2328      2505      2510      2328      2331      2332      2335
      2328      2331      2332      2509      2328      2505      2506      2501
      2328      2505      2506      2507      2328      2505      2510      2509
      2328      2505      2510      2511      2329      2152      2155      2154
      2329      2152      2155      2156      2329      2330      2331      2328
      2329      2330      2331      2332      2329      2334      2335      2332
      2329      2334      2335      2336      2330      2325      2326      2321
      2330      2325      2326      2327      2330      2329      2334      2333
      2330      2329      2334      2335      2330      2331      2332      2335
      2330      2331      2332      2509      2331      2328      2505      2506
      2331      2328      2505      2510      2331      2332      2335      2334
      2331      2332      2335      2336      2331      2332      2509      2514
      2331      2332      2509      2510      2332      2335      2336      2339
      2332      2335      2336      2513      2332      2509      2514      2513
      2332      2509      2514      2515      2332      2509      2510      2505
      2332      2509      2510      2511      2333      2156      2159      2158
      2333      2156      2159      2160      2333      2334      2335      2332
      2333      2334      2335      2336      2333      2338      2339      2336
      2333      2338      2339      2340      2334      2329      2330      2325
      2334      2329      2330      2331      2334      2333      2338      2337
      2334      2333      2338      2339      2334      2335      2336      2339
      2334      2335      2336      2513      2335      2332      2509      2514
      2335      2332      2509      2510      2335      2336      2339      2338
      2335      2336      2339      2340      2335      2336      2513      2518
      2335      2336      2513      2514      2336      2339      2340      2517
      2336      2513      2518      2517      2336      2513      2518      2519
      2336      2513      2514      2509      2336      2513      2514      2515
      2337      2338      2339      2336      2337      2338      2339      2340
      2338      2333      2334      2329      2338      2333      2334      2335
      2338      2339      2340      2517      2339      2336      2513      2518
      2339      2336      2513      2514      2339      2340      2517      2518
      2340      2517      2518      2513      2340      2517      2518      2519
      2341      2164      2167      2166      2341      2164      2167      2168
      2341      2342      2343      2344      2341      2346      2347      2344
      2341      2346      2347      2348      2342      2341      2346      2345
      2342      2341      2346      2347      2342      2343      2344      2347
      2342      2343      2344      2521      2343      2344      2347      2346
      2343      2344      2347      2348      2343      2344      2521      2522
      2343      2344      2521      2526      2344      2347      2348      2351
      2344      2347      2348      2525      2344      2521      2522      2523
      2344      2521      2526      2525      2344      2521      2526      2527
      2345      2168      2171      2170      2345      2168      2171      2172
      2345      2346      2347      2344      2345      2346      2347      2348
      2345      2350      2351      2348      2345      2350      2351      2352
      2346      2341      2342      2343      2346      2345      2350      2349
      2346      2345      2350      2351      2346      2347      2348      2351
      2346      2347      2348      2525      2347      2344      2521      2522
      2347      2344      2521      2526      2347      2348      2351      2350
      2347      2348      2351      2352      2347      2348      2525      2526
      2347      2348      2525      2530      2348      2351      2352      2355
      2348      2351      2352      2529      2348      2525      2526      2521
      2348      2525      2526      2527      2348      2525      2530      2529
      2348      2525      2530      2531      2349      2172      2175      2174
      2349      2172      2175      2176      2349      2350      2351      2348
      2349      2350      2351      2352      2349      2354      2355      2352
      2349      2354      2355      2356      2350      2345      2346      2341
      2350      2345      2346      2347      2350      2349      2354      2353
      2350      2349      2354      2355      2350      2351      2352      2355
      2350      2351      2352      2529      2351      2348      2525      2526
      2351      2348      2525      2530      2351      2352      2355      2354
      2351      2352      2355      2356      2351      2352      2529      2534
      2351      2352      2529      2530      2352      2355      2356      2359
      2352      2355      2356      2533      2352      2529      2534      2533
      2352      2529      2534      2535      2352      2529      2530      2525
      2352      2529      2530      2531      2353      2176      2179      2178
      2353      2176      2179      2180      2353      2354      2355      2352
      2353      2354      2355      2356      2353      2358      2359      2356
      2353      2358      2359      2360      2354      2349      2350      2345
      2354      2349      2350      2351      2354      2353      2358      2357
      2354      2353      2358      2359      2354      2355      2356      2359
      2354      2355      2356      2533      2355      2352      2529      2534
      2355      2352      2529      2530      2355      2356      2359      2358
      2355      2356      2359      2360      2355      2356      2533      2538
      2355      2356      2533      2534      2356      2359      2360      2363
      2356      2359      2360      2537      2356      2533      2538      2537
      2356      2533      2538      2539      2356      2533      2534      2529
      2356      2533      2534      2535      2357      2180      2183      2182
      2357      2180      2183      2184      2357      2358      2359      2356
      2357      2358      2359      2360      2357      2362      2363      2360
      2357      2362      2363      2364      2358      2353      2354      2349
      2358      2353      2354      2355      2358      2357      2362      2361
      2358      2357      2362      2363      2358      2359      2360      2363
      2358      2359      2360      2537      2359      2356      2533      2538
      2359      2356      2533      2534      2359      2360      2363      2362
      2359      2360      2363      2364      2359      2360      2537      2542
      2359      2360      2537      2538      2360      2363      2364      2367
      2360      2363      2364      2541      2360      2537      2542      2541
      2360      2537      2542      2543      2360      2537      2538      2533
      2360      2537      2538      2539      2361      2184      2187      2186
      2361      2184      2187      2188      2361      2362      2363      2360
      2361      2362      2363      2364      2361      2366      2367      2364
      2361      2366      2367      2368      2362      2357      2358      2353
      2362      2357      2358      2359      2362      2361      2366      2365
      2362      2361      2366      2367      2362      2363      2364      2367
      2362      2363      2364      2541      2363      2360      2537      2542
      2363      2360      2537      2538      2363      2364      2367      2366
      2363      2364      2367      2368      2363      2364      2541      2542
      2363      2364      2541      2546      2364      2367      2368      2371
      2364      2367      2368      2545      2364      2541      2542      2537
      2364      2541      2542      2543      2364      2541      2546      2545
      2364      2541      2546      2547      2365      2188      2191      2190
      2365      2188      2191      2192      2365      2366      2367      2364
      2365      2366      2367      2368      2365      2370      2371      2368
      2365      2370      2371      2372      2366      2361      2362      2357
      2366      2361      2362      2363      2366      2365      2370      2369
      2366      2365      2370      2371      2366      2367      2368      2371
      2366      2367      2368      2545      2367      2364      2541      2542
      2367      2364      2541      2546      2367      2368      2371      2370
      2367      2368      2371      2372      2367      2368      2545      2546
      2367      2368      2545      2550      2368      2371      2372      2375
      2368      2371      2372      2549      2368      2545      2546      2541
      2368      2545      2546      2547      2368      2545      2550      2549
      2368      2545      2550      2551      2369      2192      2195      2194
      2369      2192      2195      2196      2369      2370      2371      2368
      2369      2370      2371      2372      2369      2374      2375      2372
      2369      2374      2375      2376      2370      2365      2366      2361
      2370      2365      2366      2367      2370      2369      2374      2373
      2370      2369      2374      2375      2370      2371      2372      2375
      2370      2371      2372      2549      2371      2368      2545      2546
      2371      2368      2545      2550      2371      2372      2375      2374
      2371      2372      2375      2376      2371      2372      2549      2554
      2371      2372      2549      2550      2372      2375      2376      2379
      2372      2375      2376      2553      2372      2549      2554      2553
      2372      2549      2554      2555      2372      2549      2550      2545
      2372      2549      2550      2551      2373      2196      2199      2198
      2373      2196      2199      2200      2373      2374      2375      2372
      2373      2374      2375      2376      2373      2378      2379      2376
      2373      2378      2379      2380      2374      2369      2370      2365
      2374      2369      2370      2371      2374      2373      2378      2377
      2374      2373      2378      2379      2374      2375      2376      2379
      2374      2375      2376      2553      2375      2372      2549      2554
      2375      2372      2549      2550      2375      2376      2379      2378
      2375      2376      2379      2380      2375      2376      2553      2558
      2375      2376      2553      2554      2376      2379      2380      2383
      2376      2379      2380      2557      2376      2553      2558      2557
      2376      2553      2558      2559      2376      2553      2554      2549
      2376      2553      2554      2555      2377      2200      2203      2202
      2377      2200      2203      2204      2377      2378      2379      2376
      2377      2378      2379      2380      2377      2382      2383      2380
      2377      2382      2383      2384      2378      2373      2374      2369
      2378      2373      2374      2375      2378      2377      2382      2381
      2378      2377      2382      2383      2378      2379      2380      2383
      2378      2379      2380      2557      2379      2376      2553      2558
      2379      2376      2553      2554      2379      2380      2383      2382
      2379      2380      2383      2384      2379      2380      2557      2562
      2379      2380      2557      2558      2380      2383      2384      2387
      2380      2383      2384      2561      2380      2557      2562      2561
      2380      2557      2562      2563      2380      2557      2558      2553
      2380      2557      2558      2559      2381      2204      2207      2206
      2381      2204      2207      2208      2381      2382      2383      2380
      2381      2382      2383      2384      2381      2386      2387      2384
      2381      2386      2387      2388      2382      2377      2378      2373
      2382      2377      2378      2379      2382      2381      2386      2385
      2382      2381      2386      2387      2382      2383      2384      2387
      2382      2383      2384      2561      2383      2380      2557      2562
      2383      2380      2557      2558      2383      2384      2387      2386
      2383      2384      2387      2388      2383      2384      2561      2562
      2383      2384      2561      2566      2384      2387      2388      2391
      2384      2387      2388      2565      2384      2561      2562      2557
      2384      2561      2562      2563      2384      2561      2566      2565
      2384      2561      2566      2567      2385      2208      2211      2210
      2385      2208      2211      2212      2385      2386      2387      2384
      2385      2386      2387      2388      2385      2390      2391      2388
      2385      2390      2391      2392      2386      2381      2382      2377
      2386      2381      2382      2383      2386      2385      2390      2389
      2386      2385      2390      2391      2386      2387      2388      2391
      2386      2387      2388      2565      2387      2384      2561      2562
      2387      2384      2561      2566      2387      2388      2391      2390
      2387      2388      2391      2392      2387      2388      2565      2566
      2387      2388      2565      2570      2388      2391      2392      2395
      2388      2391      2392      2569      2388      2565      2566      2561
      2388      2565      2566      2567      2388      2565      2570      2569
      2388      2565      2570      2571      2389      2212      2215      2214
      2389      2212      2215      2216      2389      2390      2391      2388
      2389      2390      2391      2392      2389      2394      2395      2392
      2389      2394      2395      2396      2390      2385      2386      2381
      2390      2385      2386      2387      2390      2389      2394      2393
      2390      2389      2394      2395      2390      2391      2392      2395
      2390      2391      2392      2569      2391      2388      2565      2566
      2391      2388      2565      2570      2391      2392      2395      2394
      2391      2392      2395      2396      2391      2392      2569      2574
      2391      2392      2569      2570      2392      2395      2396      2399
      2392      2395      2396      2573      2392      2569      2574      2573
      2392      2569      2574      2575      2392      2569      2570      2565
      2392      2569      2570      2571      2393      2216      2219      2218
      2393      2216      2219      2220      2393      2394      2395      2392
      2393      2394      2395      2396      2393      2398      2399      2396
      2393      2398      2399      2400      2394      2389      2390      2385
      2394      2389      2390      2391      2394      2393      2398      2397
      2394      2393      2398      2399      2394      2395      2396      2399
      2394      2395      2396      2573      2395      2392      2569      2574
      2395      2392      2569      2570      2395      2396      2399      2398
      2395      2396      2399      2400      2395      2396      2573      2578
      2395      2396      2573      2574      2396      2399      2400      2403
      2396      2399      2400      2577      2396      2573      2578      2577
      2396      2573      2578      2579      2396      2573      2574      2569
      2396      2573      2574      2575      2397      2220      2223      2222
      2397      2220      2223      2224      2397      2398      2399      2396
      2397      2398      2399      2400      2397      2402      2403      2400
      2397      2402      2403      2404      2398      2393      2394      2389
      2398      2393      2394      2395      2398      2397      2402      2401
      2398      2397      2402      2403      2398      2399      2400      2403
      2398      2399      2400      2577      2399      2396      2573      2578
      2399      2396      2573      2574      2399      2400      2403      2402
      2399      2400      2403      2404      2399      2400      2577      2582
      2399      2400      2577      2578      2400      2403      2404      2407
      2400      2403      2404      2581      2400      2577      2582      2581
      2400      2577      2582      2583      2400      2577      2578      2573
      2400      2577      2578      2579      2401      2224      2227      2226
      2401      2224      2227      2228      2401      2402      2403      2400
      2401      2402      2403      2404      2401      2406      2407      2404
      2401      2406      2407      2408      2402      2397      2398      2393
      2402      2397      2398      2399      2402      2401      2406      2405
      2402      2401      2406      2407      2402      2403      2404      2407
      2402      2403      2404      2581      2403      2400      2577      2582
      2403      2400      2577      2578      2403      2404      2407      2406
      2403      2404      2407      2408      2403      2404      2581      2582
      2403      2404      2581      2586      2404      2407      2408      2411
      2404      2407      2408      2585      2404      2581      2582      2577
      2404      2581      2582      2583      2404      2581      2586      2585
      2404      2581      2586      2587      2405      2228      2231      2230
      2405      2228      2231      2232      2405      2406      2407      2404
      2405      2406      2407      2408      2405      2410      2411      2408
      2405      2410      2411      2412      2406      2401      2402      2397
      2406      2401      2402      2403      2406      2405      2410      2409
      2406      2405      2410      2411      2406      2407      2408      2411
      2406      2407      2408      2585      2407      2404      2581      2582
      2407      2404      2581      2586      2407      2408      2411      2410
      2407      2408      2411      2412      2407      2408      2585      2586
      2407      2408      2585      2590      2408      2411      2412      2415
      2408      2411      2412      2589      2408      2585      2586      2581
      2408      2585      2586      2587      2408      2585      2590      2589
      2408      2585      2590      2591      2409      2232      2235      2234
      2409      2232      2235      2236      2409      2410      2411      2408
      2409      2410      2411      2412      2409      2414      2415      2412
      2409      2414      2415      2416      2410      2405      2406      2401
      2410      2405      2406      2407      2410      2409      2414      2413
      2410      2409      2414      2415      2410      2411      2412      2415
      2410      2411      2412      2589      2411      2408      2585      2586
      2411      2408      2585      2590      2411      2412      2415      2414
      2411      2412      2415      2416      2411      2412      2589      2594
      2411      2412      2589      2590      2412      2415      2416      2419
      2412      2415      2416      2593      2412      2589      2594      2593
      2412      2589      2594      2595      2412      2589      2590      2585
      2412      2589      2590      2591      2413      2236      2239      2238
      2413      2236      2239      2240      2413      2414      2415      2412
      2413      2414      2415      2416      2413      2418      2419      2416
      2413      2418      2419      2420      2414      2409      2410      2405
      2414      2409      2410      2411      2414      2413      2418      2417
      2414      2413      2418      2419      2414      2415      2416      2419
      2414      2415      2416      2593      2415      2412      2589      2594
      2415      2412      2589      2590      2415      2416      2419      2418
      2415      2416      2419      2420      2415      2416      2593      2598
      2415      2416      2593      2594      2416      2419      2420      2423
      2416      2419      2420      2597      2416      2593      2598      2597
      2416      2593      2598      2599      2416      2593      2594      2589
      2416      2593      2594      2595      2417      2240      2243      2242
      2417      2240      2243      2244      2417      2418      2419      2416
      2417      2418      2419      2420      2417      2422      2423      2420
      2417      2422      2423      2424      2418      2413      2414      2409
      2418      2413      2414      2415      2418      2417      2422      2421
      2418      2417      2422      2423      2418      2419      2420      2423
      2418      2419      2420      2597      2419      2416      2593      2598
      2419      2416      2593      2594      2419      2420      2423      2422
      2419      2420      2423      2424      2419      2420      2597      2602
      2419      2420      2597      2598      2420      2423      2424      2427
      2420      2423      2424      2601      2420      2597      2602      2601
      2420      2597      2602      2603      2420      2597      2598      2593
      2420      2597      2598      2599      2421      2244      2247      2246
      2421      2244      2247      2248      2421      2422      2423      2420
      2421      2422      2423      2424      2421      2426      2427      2424
      2421      2426      2427      2428      2422      2417      2418      2413
      2422      2417      2418      2419      2422      2421      2426      2425
      2422      2421      2426      2427      2422      2423      2424      2427
      2422      2423      2424      2601      2423      2420      2597      2602
      2423      2420      2597      2598      2423      2424      2427      2426
      2423      2424      2427      2428      2423      2424      2601      2602
      2423      2424      2601      2606      2424      2427      2428      2431
      2424      2427      2428      2605      2424      2601      2602      2597
      2424      2601      2602      2603      2424      2601      2606      2605
      2424      2601      2606      2607      2425      2248      2251      2250
      2425      2248      2251      2252      2425      2426      2427      2424
      2425      2426      2427      2428      2425      2430      2431      2428
      2425      2430      2431      2432      2426      2421      2422      2417
      2426      2421      2422      2423      2426      2425      2430      2429
      2426      2425      2430      2431      2426      2427      2428      2431
      2426      2427      2428      2605      2427      2424      2601      2602
      2427      2424      2601      2606      2427      2428      2431      2430
      2427      2428      2431      2432      2427      2428      2605      2606
      2427      2428      2605      2610      2428      2431      2432      2435
      2428      2431      2432      2609      2428      2605      2606      2601
      2428      2605      2606      2607      2428      2605      2610      2609
      2428      2605      2610      2611      2429      2252      2255      2254
      2429      2252      2255      2256      2429      2430      2431      2428
      2429      2430      2431      2432      2429      2434      2435      2432
      2429      2434      2435      2436      2430      2425      2426      2421
      2430      2425      2426      2427      2430      2429      2434      2433
      2430      2429      2434      2435      2430      2431      2432      2435
      2430      2431      2432      2609      2431      2428      2605      2606
      2431      2428      2605      2610      2431      2432      2435      2434
      2431      2432      2435      2436      2431      2432      2609      2614
      2431      2432      2609      2610      2432      2435      2436      2439
      2432      2435      2436      2613      2432      2609      2614      2613
      2432      2609      2614      2615      2432      2609      2610      2605
      2432      2609      2610      2611      2433      2256      2259      2258
      2433      2256      2259      2260      2433      2434      2435      2432
      2433      2434      2435      2436      2433      2438      2439      2436
      2433      2438      2439      2440      2434      2429      2430      2425
      2434      2429      2430      2431      2434      2433      2438      2437
      2434      2433      2438      2439      2434      2435      2436      2439
      2434      2435      2436      2613      2435      2432      2609      2614
      2435      2432      2609      2610      2435      2436      2439      2438
      2435      2436      2439      2440      2435      2436      2613      2618
      2435      2436      2613      2614      2436      2439      2440      2443
      2436      2439      2440      2617      2436      2613      2618      2617
      2436      2613      2618      2619      2436      2613      2614      2609
      2436      2613      2614      2615      2437      2260      2263      2262
      2437      2260      2263      2264      2437      2438      2439      2436
      2437      2438      2439      2440      2437      2442      2443      2440
      2437      2442      2443      2444      2438      2433      2434      2429
      2438      2433      2434      2435      2438      2437      2442      2441
      2438      2437      2442      2443      2438      2439      2440      2443
      2438      2439      2440      2617      2439      2436      2613      2618
      2439      2436      2613      2614      2439      2440      2443      2442
      2439      2440      2443      2444      2439      2440      2617      2622
      2439      2440      2617      2618      2440      2443      2444      2447
      2440      2443      2444      2621      2440      2617      2622      2621
      2440      2617      2622      2623      2440      2617      2618      2613
      2440      2617      2618      2619      2441      2264      2267      2266
      2441      2264      2267      2268      2441      2442      2443      2440
      2441      2442      2443      2444      2441      2446      2447      2444
      2441      2446      2447      2448      2442      2437      2438      2433
      2442      2437      2438      2439      2442      2441      2446      2445
      2442      2441      2446      2447      2442      2443      2444      2447
      2442      2443      2444      2621      2443      2440      2617      2622
      2443      2440      2617      2618      2443      2444      2447      2446
      2443      2444      2447      2448      2443      2444      2621      2622
      2443      2444      2621      2626      2444      2447      2448      2451
      2444      2447      2448      2625      2444      2621      2622      2617
      2444      2621      2622      2623      2444      2621      2626      2625
      2444      2621      2626      2627      2445      2268      2271      2270
      2445      2268      2271      2272      2445      2446      2447      2444
      2445      2446      2447      2448      2445      2450      2451      2448
      2445      2450      2451      2452      2446      2441      2442      2437
      2446      2441      2442      2443      2446      2445      2450      2449
      2446      2445      2450      2451      2446      2447      2448      2451
      2446      2447      2448      2625      2447      2444      2621      2622
      2447      2444      2621      2626      2447      2448      2451      2450
      2447      2448      2451      2452      2447      2448      2625      2626
      2447      2448      2625      2630      2448      2451      2452      2455
      2448      2451      2452      2629      2448      2625      2626      2621
      2448      2625      2626      2627      2448      2625      2630      2629
      2448      2625      2630      2631      2449      2272      2275      2274
      2449      2272      2275      2276      2449      2450      2451      2448
      2449      2450      2451      2452      2449      2454      2455      2452
      2449      2454      2455      2456      2450      2445      2446      2441
      2450      2445      2446      2447      2450      2449      2454      2453
      2450      2449      2454      2455      2450      2451      2452      2455
      2450      2451      2452      2629      2451      2448      2625      2626
      2451      2448      2625      2630      2451      2452      2455      2454
      2451      2452      2455      2456      2451      2452      2629      2634
      2451      2452      2629      2630      2452      2455      2456      2459
      2452      2455      2456      2633      2452      2629      2634      2633
      2452      2629      2634      2635      2452      2629      2630      2625
      2452      2629      2630      2631      2453      2276      2279      2278
      2453      2276      2279      2280      2453      2454      2455      2452
      2453      2454      2455      2456      2453      2458      2459      2456
      2453      2458      2459      2460      2454      2449      2450      2445
      2454      2449      2450      2451      2454      2453      2458      2457
      2454      2453      2458      2459      2454      2455      2456      2459
      2454      2455      2456      2633      2455      2452      2629      2634
      2455      2452      2629      2630      2455      2456      2459      2458
      2455      2456      2459      2460      2455      2456      2633      2634
      2455      2456      2633      2638      2456      2459      2460      2463
      2456      2459      2460      2637      2456      2633      2634      2629
      2456      2633      2634      2635      2456      2633      2638      2637
      2456      2633      2638      2639      2457      2280      2283      2282
      2457      2280      2283      2284      2457      2458      2459      2456
      2457      2458      2459      2460      2457      2462      2463      2460
      2457      2462      2463      2464      2458      2453      2454      2449
      2458      2453      2454      2455      2458      2457      2462      2461
      2458      2457      2462      2463      2458      2459      2460      2463
      2458      2459      2460      2637      2459      2456      2633      2634
      2459      2456      2633      2638      2459      2460      2463      2462
      2459      2460      2463      2464      2459      2460      2637      2642
      2459      2460      2637      2638      2460      2463      2464      2467
      2460      2463      2464      2641      2460      2637      2642      2641
      2460      2637      2642      2643      2460      2637      2638      2633
      2460      2637      2638      2639      2461      2284      2287      2286
      2461      2284      2287      2288      2461      2462      2463      2460
      2461      2462      2463      2464      2461      2466      2467      2464
      2461      2466      2467      2468      2462      2457      2458      2453
      2462      2457      2458      2459      2462      2461      2466      2465
      2462      2461      2466      2467      2462      2463      2464      2467
      2462      2463      2464      2641      2463      2460      2637      2642
      2463      2460      2637      2638      2463      2464      2467      2466
      2463      2464      2467      2468      2463      2464      2641      2642
      2463      2464      2641      2646      2464      2467      2468      2471
      2464      2467      2468      2645      2464      2641      2642      2637
      2464      2641      2642      2643      2464      2641      2646      2645
      2464      2641      2646      2647      2465      2288      2291      2290
      2465      2288      2291      2292      2465      2466      2467      2464
      2465      2466      2467      2468      2465      2470      2471      2468
      2465      2470      2471      2472      2466      2461      2462      2457
      2466      2461      2462      2463      2466      2465      2470      2469
      2466      2465      2470      2471      2466      2467      2468      2471
      2466      2467      2468      2645      2467      2464      2641      2642
      2467      2464      2641      2646      2467      2468      2471      2470
      2467      2468      2471      2472      2467      2468      2645      2646
      2467      2468      2645      2650      2468      2471      2472      2475
      2468      2471      2472      2649      2468      2645      2646      2641
      2468      2645      2646      2647      2468      2645      2650      2649
      2468      2645      2650      2651      2469      2292      2295      2294
      2469      2292      2295      2296      2469      2470      2471      2468
      2469      2470      2471      2472      2469      2474      2475      2472
      2469      2474      2475      2476      2470      2465      2466      2461
      2470      2465      2466      2467      2470      2469      2474      2473
      2470      2469      2474      2475      2470      2471      2472      2475
      2470      2471      2472      2649      2471      2468      2645      2646
      2471      2468      2645      2650      2471      2472      2475      2474
      2471      2472      2475      2476      2471      2472      2649      2654
      2471      2472      2649      2650      2472      2475      2476      2479
      2472      2475      2476      2653      2472      2649      2654      2653
      2472      2649      2654      2655      2472      2649      2650      2645
      2472      2649      2650      2651      2473      2296      2299      2298
      2473      2296      2299      2300      2473      2474      2475      2472
      2473      2474      2475      2476      2473      2478      2479      2476
      2473      2478      2479      2480      2474      2469      2470      2465
      2474      2469      2470      2471      2474      2473      2478      2477
      2474      2473      2478      2479      2474      2475      2476      2479
      2474      2475      2476      2653      2475      2472      2649      2654
      2475      2472      2649      2650      2475      2476      2479      2478
      2475      2476      2479      2480      2475      2476      2653      2658
      2475      2476      2653      2654      2476      2479      2480      2483
      2476      2479      2480      2657      2476      2653      2658      2657
      2476      2653      2658      2659      2476      2653      2654      2649
      2476      2653      2654      2655      2477      2300      2303      2302
      2477      2300      2303      2304      2477      2478      2479      2476
      2477      2478      2479      2480      2477      2482      2483      2480
      2477      2482      2483      2484      2478      2473      2474      2469
      2478      2473      2474      2475      2478      2477      2482      2481
      2478      2477      2482      2483      2478      2479      2480      2483
      2478      2479      2480      2657      2479      2476      2653      2658
      2479      2476      2653      2654      2479      2480      2483      2482
      2479      2480      2483      2484      2479      2480      2657      2662
      2479      2480      2657      2658      2480      2483      2484      2487
      2480      2483      2484      2661      2480      2657      2662      2661
      2480      2657      2662      2663      2480      2657      2658      2653
      2480      2657      2658      2659      2481      2304      2307      2306
      2481      2304      2307      2308      2481      2482      2483      2480
      2481      2482      2483      2484      2481      2486      2487      2484
      2481      2486      2487      2488      2482      2477      2478      2473
      2482      2477      2478      2479      2482      2481      2486      2485
      2482      2481      2486      2487      2482      2483      2484      2487
      2482      2483      2484      2661      2483      2480      2657      2662
      2483      2480      2657      2658      2483      2484      2487      2486
      2483      2484      2487      2488      2483      2484      2661      2662
      2483      2484      2661      2666      2484      2487      2488      2491
      2484      2487      2488      2665      2484      2661      2662      2657
      2484      2661      2662      2663      2484      2661      2666      2665
      2484      2661      2666      2667      2485      2308      2311      2310
      2485      2308      2311      2312      2485      2486      2487      2484
      2485      2486      2487      2488      2485      2490      2491      2488
      2485      2490      2491      2492      2486      2481      2482      2477
      2486      2481      2482      2483      2486      2485      2490      2489
      2486      2485      2490      2491      2486      2487      2488      2491
      2486      2487      2488      2665      2487      2484      2661      2662
      2487      2484      2661      2666      2487      2488      2491      2490
      2487      2488      2491      2492      2487      2488      2665      2666
      2487      2488      2665      2670      2488      2491      2492      2495
      2488      2491      2492      2669      2488      2665      2666      2661
      2488      2665      2666      2667      2488      2665      2670      2669
      2488      2665      2670      2671      2489      2312      2315      2314
      2489      2312      2315      2316      2489      2490      2491      2488
      2489      2490      2491      2492      2489      2494      2495      2492
      2489      2494      2495      2496      2490      2485      2486      2481
      2490      2485      2486      2487      2490      2489      2494      2493
      2490      2489      2494      2495      2490      2491      2492      2495
      2490      2491      2492      2669      2491      2488      2665      2666
      2491      2488      2665      2670      2491      2492      2495      2494
      2491      2492      2495      2496      2491      2492      2669      2674
      2491      2492      2669      2670      2492      2495      2496      2499
      2492      2495      2496      2673      2492      2669      2674      2673
      2492      2669      2674      2675      2492      2669      2670      2665
      2492      2669      2670      2671      2493      2316      2319      2318
      2493      2316      2319      2320      2493      2494      2495      2492
      2493      2494      2495      2496      2493      2498      2499      2496
      2493      2498      2499      2500      2494      2489      2490      2485
      2494      2489      2490      2491      2494      2493      2498      2497
      2494      2493      2498      2499      2494      2495      2496      2499
      2494      2495      2496      2673      2495      2492      2669      2674
      2495      2492      2669      2670      2495      2496      2499      2498
      2495      2496      2499      2500      2495      2496      2673      2678
      2495      2496      2673      2674      2496      2499      2500      2503
      2496      2499      2500      2677      2496      2673      2678      2677
      2496      2673      2678      2679      2496      2673      2674      2669
      2496      2673      2674      2675      2497      2320      2323      2322
      2497      2320      2323      2324      2497      2498      2499      2496
      2497      2498      2499      2500      2497      2502      2503      2500
      2497      2502      2503      2504      2498      2493      2494      2489
      2498      2493      2494      2495      2498      2497      2502      2501
      2498      2497      2502      2503      2498      2499      2500      2503
      2498      2499      2500      2677      2499      2496      2673      2678
      2499      2496      2673      2674      2499      2500      2503      2502
      2499      2500      2503      2504      2499      2500      2677      2682
      2499      2500      2677      2678      2500      2503      2504      2507
      2500      2503      2504      2681      2500      2677      2682      2681
      2500      2677      2682      2683      2500      2677      2678      2673
      2500      2677      2678      2679      2501      2324      2327      2326
      2501      2324      2327      2328      2501      2502      2503      2500
      2501      2502      2503      2504      2501      2506      2507      2504
      2501      2506      2507      2508      2502      2497      2498      2493
      2502      2497      2498      2499      2502      2501      2506      2505
      2502      2501      2506      2507      2502      2503      2504      2507
      2502      2503      2504      2681      2503      2500      2677      2682
      2503      2500      2677      2678      2503      2504      2507      2506
      2503      2504      2507      2508      2503      2504      2681      2682
      2503      2504      2681      2686      2504      2507      2508      2511
      2504      2507      2508      2685      2504      2681      2682      2677
      2504      2681      2682      2683      2504      2681      2686      2685
      2504      2681      2686      2687      2505      2328      2331      2330
      2505      2328      2331      2332      2505      2506      2507      2504
      2505      2506      2507      2508      2505      2510      2511      2508
      2505      2510      2511      2512      2506      2501      2502      2497
      2506      2501      2502      2503      2506      2505      2510      2509
      2506      2505      2510      2511      2506      2507      2508      2511
      2506      2507      2508      2685      2507      2504      2681      2682
      2507      2504      2681      2686      2507      2508      2511      2510
      2507      2508      2511      2512      2507      2508      2685      2686
      2507      2508      2685      2690      2508      2511      2512      2515
      2508      2511      2512      2689      2508      2685      2686      2681
      2508      2685      2686      2687      2508      2685      2690      2689
      2508      2685      2690      2691      2509      2332      2335      2334
      2509      2332      2335      2336      2509      2510      2511      2508
      2509      2510      2511      2512      2509      2514      2515      2512
      2509      2514      2515      2516      2510      2505      2506      2501
      2510      2505      2506      2507      2510      2509      2514      2513
      2510      2509      2514      2515      2510      2511      2512      2515
      2510      2511      2512      2689      2511      2508      2685      2686
      2511      2508      2685      2690      2511      2512      2515      2514
      2511      2512      2515      2516      2511      2512      2689      2694
      2511      2512      2689      2690      2512      2515      2516      2519
      2512      2515      2516      2693      2512      2689      2694      2693
      2512      2689      2694      2695      2512      2689      2690      2685
      2512      2689      2690      2691      2513      2336      2339      2338
      2513      2336      2339      2340      2513      2514      2515      2512
      2513      2514      2515      2516      2513      2518      2519      2516
      2513      2518      2519      2520      2514      2509      2510      2505
      2514      2509      2510      2511      2514      2513      2518      2517
      2514      2513      2518      2519      2514      2515      2516      2519
      2514      2515      2516      2693      2515      2512      2689      2694
      2515      2512      2689      2690      2515      2516      2519      2518
      2515      2516      2519      2520      2515      2516      2693      2698
      2515      2516      2693      2694      2516      2519      2520      2697
      2516      2693      2698      2697      2516      2693      2698      2699
      2516      2693      2694      2689      2516      2693      2694      2695
      2517      2518      2519      2516      2517      2518      2519      2520
      2518      2513      2514      2509      2518      2513      2514      2515
      2518      2519      2520      2697      2519      2516      2693      2698
      2519      2516      2693      2694      2519      2520      2697      2698
      2520      2697      2698      2693      2520      2697      2698      2699
      2521      2344      2347      2346      2521      2344      2347      2348
      2521      2522      2523      2524      2521      2526      2527      2524
      2521      2526      2527      2528      2522      2521      2526      2525
      2522      2521      2526      2527      2522      2523      2524      2527
      2522      2523      2524      2701      2523      2524      2527      2526
      2523      2524      2527      2528      2523      2524      2701      2702
      2523      2524      2701      2706      2524      2527      2528      2531
      2524      2527      2528      2705      2524      2701      2702      2703
      2524      2701      2706      2705      2524      2701      2706      2707
      2525      2348      2351      2350      2525      2348      2351      2352
      2525      2526      2527      2524      2525      2526      2527      2528
      2525      2530      2531      2528      2525      2530      2531      2532
      2526      2521      2522      2523      2526      2525      2530      2529
      2526      2525      2530      2531      2526      2527      2528      2531
      2526      2527      2528      2705      2527      2524      2701      2702
      2527      2524      2701      2706      2527      2528      2531      2530
      2527      2528      2531      2532      2527      2528      2705      2706
      2527      2528      2705      2710      2528      2531      2532      2535
      2528      2531      2532      2709      2528      2705      2706      2701
      2528      2705      2706      2707      2528      2705      2710      2709
      2528      2705      2710      2711      2529      2352      2355      2354
      2529      2352      2355      2356      2529      2530      2531      2528
      2529      2530      2531      2532      2529      2534      2535      2532
      2529      2534      2535      2536      2530      2525      2526      2521
      2530      2525      2526      2527      2530      2529      2534      2533
      2530      2529      2534      2535      2530      2531      2532      2535
      2530      2531      2532      2709      2531      2528      2705      2706
      2531      2528      2705      2710      2531      2532      2535      2534
      2531      2532      2535      2536      2531      2532      2709      2714
      2531      2532      2709      2710      2532      2535      2536      2539
      2532      2535      2536      2713      2532      2709      2714      2713
      2532      2709      2714      2715      2532      2709      2710      2705
      2532      2709      2710      2711      2533      2356      2359      2358
      2533      2356      2359      2360      2533      2534      2535      2532
      2533      2534      2535      2536      2533      2538      2539      2536
      2533      2538      2539      2540      2534      2529      2530      2525
      2534      2529      2530      2531      2534      2533      2538      2537
      2534      2533      2538      2539      2534      2535      2536      2539
      2534      2535      2536      2713      2535      2532      2709      2714
      2535      2532      2709      2710      2535      2536      2539      2538
      2535      2536      2539      2540      2535      2536      2713      2718
      2535      2536      2713      2714      2536      2539      2540      2543
      2536      2539      2540      2717      2536      2713      2718      2717
      2536      2713      2718      2719      2536      2713      2714      2709
      2536      2713      2714      2715      2537      2360      2363      2362
      2537      2360      2363      2364      2537      2538      2539      2536
      2537      2538      2539      2540      2537      2542      2543      2540
      2537      2542      2543      2544      2538      2533      2534      2529
      2538      2533      2534      2535      2538      2537      2542      2541
      2538      2537      2542      2543      2538      2539      2540      2543
      2538      2539      2540      2717      2539      2536      2713      2718
      2539      2536      2713      2714      2539      2540      2543      2542
      2539      2540      2543      2544      2539      2540      2717      2722
      2539      2540      2717      2718      2540      2543      2544      2547
      2540      2543      2544      2721      2540      2717      2722      2721
      2540      2717      2722      2723      2540      2717      2718      2713
      2540      2717      2718      2719      2541      2364      2367      2366
      2541      2364      2367      2368      2541      2542      2543      2540
      2541      2542      2543      2544      2541      2546      2547      2544
      2541      2546      2547      2548      2542      2537      2538      2533
      2542      2537      2538      2539      2542      2541      2546      2545
      2542      2541      2546      2547      2542      2543      2544      2547
      2542      2543      2544      2721      2543      2540      2717      2722
      2543      2540      2717      2718      2543      2544      2547      2546
      2543      2544      2547      2548      2543      2544      2721      2722
      2543      2544      2721      2726      2544      2547      2548      2551
      2544      2547      2548      2725      2544      2721      2722      2717
      2544      2721      2722      2723      2544      2721      2726      2725
      2544      2721      2726      2727      2545      2368      2371      2370
      2545      2368      2371      2372      2545      2546      2547      2544
      2545      2546      2547      2548      2545      2550      2551      2548
      2545      2550      2551      2552      2546      2541      2542      2537
      2546      2541      2542      2543      2546      2545      2550      2549
      2546      2545      2550      2551      2546      2547      2548      2551
      2546      2547      2548      2725      2547      2544      2721      2722
      2547      2544      2721      2726      2547      2548      2551      2550
      2547      2548      2551      2552      2547      2548      2725      2726
      2547      2548      2725      2730      2548      2551      2552      2555
      2548      2551      2552      2729      2548      2725      2726      2721
      2548      2725      2726      2727      2548      2725      2730      2729
      2548      2725      2730      2731      2549      2372      2375      2374
      2549      2372      2375      2376      2549      2550      2551      2548
      2549      2550      2551      2552      2549      2554      2555      2552
      2549      2554      2555      2556      2550      2545      2546      2541
      2550      2545      2546      2547      2550      2549      2554      2553
      2550      2549      2554      2555      2550      2551      2552      2555
      2550      2551      2552      2729      2551      2548      2725      2726
      2551      2548      2725      2730      2551      2552      2555      2554
      2551      2552      2555      2556      2551      2552      2729      2734
      2551      2552      2729      2730      2552      2555      2556      2559
      2552      2555      2556      2733      2552      2729      2734      2733
      2552      2729      2734      2735      2552      2729      2730      2725
      2552      2729      2730      2731      2553      2376      2379      2378
      2553      2376      2379      2380      2553      2554      2555      2552
      2553      2554      2555      2556      2553      2558      2559      2556
      2553      2558      2559      2560      2554      2549      2550      2545
      2554      2549      2550      2551      2554      2553      2558      2557
      2554      2553      2558      2559      2554      2555      2556      2559
      2554      2555      2556      2733      2555      2552      2729      2734
      2555      2552      2729      2730      2555      2556      2559      2558
      2555      2556      2559      2560      2555      2556      2733      2738
      2555      2556      2733      2734      2556      2559      2560      2563
      2556      2559      2560      2737      2556      2733      2738      2737
      2556      2733      2738      2739      2556      2733      2734      2729
      2556      2733      2734      2735      2557      2380      2383      2382
      2557      2380      2383      2384      2557      2558      2559      2556
      2557      2558      2559      2560      2557      2562      2563      2560
      2557      2562      2563      2564      2558      2553      2554      2549
      2558      2553      2554      2555      2558      2557      2562      2561
      2558      2557      2562      2563      2558      2559      2560      2563
      2558      2559      2560      2737      2559      2556      2733      2738
      2559      2556      2733      2734      2559      2560      2563      2562
      2559      2560      2563      2564      2559      2560      2737      2742
      2559      2560      2737      2738      2560      2563      2564      2567
      2560      2563      2564      2741      2560      2737      2742      2741
      2560      2737      2742      2743      2560      2737      2738      2733
      2560      2737      2738      2739      2561      2384      2387      2386
      2561      2384      2387      2388      2561      2562      2563      2560
      2561      2562      2563      2564      2561      2566      2567      2564
      2561      2566      2567      2568      2562      2557      2558      2553
      2562      2557      2558      2559      2562      2561      2566      2565
      2562      2561      2566      2567      2562      2563      2564      2567
      2562      2563      2564      2741      2563      2560      2737      2742
      2563      2560      2737      2738      2563      2564      2567      2566
      2563      2564      2567      2568      2563      2564      2741      2742
      2563      2564      2741      2746      2564      2567      2568      2571
      2564      2567      2568      2745      2564      2741      2742      2737
      2564      2741      2742      2743      2564      2741      2746      2745
      2564      2741      2746      2747      2565      2388      2391      2390
      2565      2388      2391      2392      2565      2566      2567      2564
      2565      2566      2567      2568      2565      2570      2571      2568
      2565      2570      2571      2572      2566      2561      2562      2557
      2566      2561      2562      2563      2566      2565      2570      2569
      2566      2565      2570      2571      2566      2567      2568      2571
      2566      2567      2568      2745      2567      2564      2741      2742
      2567      2564      2741      2746      2567      2568      2571      2570
      2567      2568      2571      2572      2567      2568      2745      2746
      2567      2568      2745      2750      2568      2571      2572      2575
      2568      2571      2572      2749      2568      2745      2746      2741
      2568      2745      2746      2747      2568      2745      2750      2749
      2568      2745      2750      2751      2569      2392      2395      2394
      2569      2392      2395      2396      2569      2570      2571      2568
      2569      2570      2571      2572      2569      2574      2575      2572
      2569      2574      2575      2576      2570      2565      2566      2561
      2570      2565      2566      2567      2570      2569      2574      2573
      2570      2569      2574      2575      2570      2571      2572      2575
      2570      2571      2572      2749      2571      2568      2745      2746
      2571      2568      2745      2750      2571      2572      2575      2574
      2571      2572      2575      2576      2571      2572      2749      2754
      2571      2572      2749      2750      2572      2575      2576      2579
      2572      2575      2576      2753      2572      2749      2754      2753
      2572      2749      2754      2755      2572      2749      2750      2745
      2572      2749      2750      2751      2573      2396      2399      2398
      2573      2396      2399      2400      2573      2574      2575      2572
      2573      2574      2575      2576      2573      2578      2579      2576
      2573      2578      2579      2580      2574      2569      2570      2565
      2574      2569      2570      2571      2574      2573      2578      2577
      2574      2573      2578      2579      2574      2575      2576      2579
      2574      2575      2576      2753      2575      2572      2749      2754
      2575      2572      2749      2750      2575      2576      2579      2578
      2575      2576      2579      2580      2575      2576      2753      2758
      2575      2576      2753      2754      2576      2579      2580      2583
      2576      2579      2580      2757      2576      2753      2758      2757
      2576      2753      2758      2759      2576      2753      2754      2749
      2576      2753      2754      2755      2577      2400      2403      2402
      2577      2400      2403      2404      2577      2578      2579      2576
      2577      2578      2579      2580      2577      2582      2583      2580
      2577      2582      2583      2584      2578      2573      2574      2569
      2578      2573      2574      2575      2578      2577      2582      2581
      2578      2577      2582      2583      2578      2579      2580      2583
      2578      2579      2580      2757      2579      2576      2753      2758
      2579      2576      2753      2754      2579      2580      2583      2582
      2579      2580      2583      2584      2579      2580      2757      2762
      2579      2580      2757      2758      2580      2583      2584      2587
      2580      2583      2584      2761      2580      2757      2762      2761
      2580      2757      2762      2763      2580      2757      2758      2753
      2580      2757      2758      2759      2581      2404      2407      2406
      2581      2404      2407      2408      2581      2582      2583      2580
      2581      2582      2583      2584      2581      2586      2587      2584
      2581      2586      2587      2588      2582      2577      2578      2573
      2582      2577      2578      2579      2582      2581      2586      2585
      2582      2581      2586      2587      2582      2583      2584      2587
      2582      2583      2584      2761      2583      2580      2757      2762
      2583      2580      2757      2758      2583      2584      2587      2586
      2583      2584      2587      2588      2583      2584      2761      2762
      2583      2584      2761      2766      2584      2587      2588      2591
      2584      2587      2588      2765      2584      2761      2762      2757
      2584      2761      2762      2763      2584      2761      2766      2765
      2584      2761      2766      2767      2585      2408      2411      2410
      2585      2408      2411      2412      2585      2586      2587      2584
      2585      2586      2587      2588      2585      2590      2591      2588
      2585      2590      2591      2592      2586      2581      2582      2577
      2586      2581      2582      2583      2586      2585      2590      2589
      2586      2585      2590      2591      2586      2587      2588      2591
      2586      2587      2588      2765      2587      2584      2761      2762
      2587      2584      2761      2766      2587      2588      2591      2590
      2587      2588      2591      2592      2587      2588      2765      2766
      2587      2588      2765      2770      2588      2591      2592      2595
      2588      2591      2592      2769      2588      2765      2766      2761
      2588      2765      2766      2767      2588      2765      2770      2769
      2588      2765      2770      2771      2589      2412      2415      2414
      2589      2412      2415      2416      2589      2590      2591      2588
      2589      2590      2591      2592      2589      2594      2595      2592
      2589      2594      2595      2596      2590      2585      2586      2581
      2590      2585      2586      2587      2590      2589      2594      2593
      2590      2589      2594      2595      2590      2591      2592      2595
      2590      2591      2592      2769      2591      2588      2765      2766
      2591      2588      2765      2770      2591      2592      2595      2594
      2591      2592      2595      2596      2591      2592      2769      2774
      2591      2592      2769      2770      2592      2595      2596      2599
      2592      2595      2596      2773      2592      2769      2774      2773
      2592      2769      2774      2775      2592      2769      2770      2765
      2592      2769      2770      2771      2593      2416      2419      2418
      2593      2416      2419      2420      2593      2594      2595      2592
      2593      2594      2595      2596      2593      2598      2599      2596
      2593      2598      2599      2600      2594      2589      2590      2585
      2594      2589      2590      2591      2594      2593      2598      2597
      2594      2593      2598      2599      2594      2595      2596      2599
      2594      2595      2596      2773      2595      2592      2769      2774
      2595      2592      2769      2770      2595      2596      2599      2598
      2595      2596      2599      2600      2595      2596      2773      2778
      2595      2596      2773      2774      2596      2599      2600      2603
      2596      2599      2600      2777      2596      2773      2778      2777
      2596      2773      2778      2779      2596      2773      2774      2769
      2596      2773      2774      2775      2597      2420      2423      2422
      2597      2420      2423      2424      2597      2598      2599      2596
      2597      2598      2599      2600      2597      2602      2603      2600
      2597      2602      2603      2604      2598      2593      2594      2589
      2598      2593      2594      2595      2598      2597      2602      2601
      2598      2597      2602      2603      2598      2599      2600      2603
      2598      2599      2600      2777      2599      2596      2773      2778
      2599      2596      2773      2774      2599      2600      2603      2602
      2599      2600      2603      2604      2599      2600      2777      2782
      2599      2600      2777      2778      2600      2603      2604      2607
      2600      2603      2604      2781      2600      2777      2782      2781
      2600      2777      2782      2783      2600      2777      2778      2773
      2600      2777      2778      2779      2601      2424      2427      2426
      2601      2424      2427      2428      2601      2602      2603      2600
      2601      2602      2603      2604      2601      2606      2607      2604
      2601      2606      2607      2608      2602      2597      2598      2593
      2602      2597      2598      2599      2602      2601      2606      2605
      2602      2601      2606      2607      2602      2603      2604      2607
      2602      2603      2604      2781      2603      2600      2777      2782
      2603      2600      2777      2778      2603      2604      2607      2606
      2603      2604      2607      2608      2603      2604      2781      2782
      2603      2604      2781      2786      2604      2607      2608      2611
      2604      2607      2608      2785      2604      2781      2782      2777
      2604      2781      2782      2783      2604      2781      2786      2785
      2604      2781      2786      2787      2605      2428      2431      2430
      2605      2428      2431      2432      2605      2606      2607      2604
      2605      2606      2607      2608      2605      2610      2611      2608
      2605      2610      2611      2612      2606      2601      2602      2597
      2606      2601      2602      2603      2606      2605      2610      2609
      2606      2605      2610      2611      2606      2607      2608      2611
      2606      2607      2608      2785      2607      2604      2781      2782
      2607      2604      2781      2786      2607      2608      2611      2610
      2607      2608      2611      2612      2607      2608      2785      2786
      2607      2608      2785      2790      2608      2611      2612      2615
      2608      2611      2612      2789      2608      2785      2786      2781
      2608      2785      2786      2787      2608      2785      2790      2789
      2608      2785      2790      2791      2609      2432      2435      2434
      2609      2432      2435      2436      2609      2610      2611      2608
      2609      2610      2611      2612      2609      2614      2615      2612
      2609      2614      2615      2616      2610      2605      2606      2601
      2610      2605      2606      2607      2610      2609      2614      2613
      2610      2609      2614      2615      2610      2611      2612      2615
      2610      2611      2612      2789      2611      2608      2785      2786
      2611      2608      2785      2790      2611      2612      2615      2614
      2611      2612      2615      2616      2611      2612      2789      2794
      2611      2612      2789      2790      2612      2615      2616      2619
      2612      2615      2616      2793      2612      2789      2794      2793
      2612      2789      2794      2795      2612      2789      2790      2785
      2612      2789      2790      2791      2613      2436      2439      2438
      2613      2436      2439      2440      2613      2614      2615      2612
      2613      2614      2615      2616      2613      2618      2619      2616
      2613      2618      2619      2620      2614      2609      2610      2605
      2614      2609      2610      2611      2614      2613      2618      2617
      2614      2613      2618      2619      2614      2615      2616      2619
      2614      2615      2616      2793      2615      2612      2789      2794
      2615      2612      2789      2790      2615      2616      2619      2618
      2615      2616      2619      2620      2615      2616      2793      2798
      2615      2616      2793      2794      2616      2619      2620      2623
      2616      2619      2620      2797      2616      2793      2798      2797
      2616      2793      2798      2799      2616      2793      2794      2789
      2616      2793      2794      2795      2617      2440      2443      2442
      2617      2440      2443      2444      2617      2618      2619      2616
      2617      2618      2619      2620      2617      2622      2623      2620
      2617      2622      2623      2624      2618      2613      2614      2609
      2618      2613      2614      2615      2618      2617      2622      2621
      2618      2617      2622      2623      2618      2619      2620      2623
      2618      2619      2620      2797      2619      2616      2793      2798
      2619      2616      2793      2794      2619      2620      2623      2622
      2619      2620      2623      2624      2619      2620      2797      2802
      2619      2620      2797      2798      2620      2623      2624      2627
      2620      2623      2624      2801      2620      2797      2802      2801
      2620      2797      2802      2803      2620      2797      2798      2793
      2620      2797      2798      2799      2621      2444      2447      2446
      2621      2444      2447      2448      2621      2622      2623      2620
      2621      2622      2623      2624      2621      2626      2627      2624
      2621      2626      2627      2628      2622      2617      2618      2613
      2622      2617      2618      2619      2622      2621      2626      2625
      2622      2621      2626      2627      2622      2623      2624      2627
      2622      2623      2624      2801      2623      2620      2797      2802
      2623      2620      2797      2798      2623      2624      2627      2626
      2623      2624      2627      2628      2623      2624      2801      2802
      2623      2624      2801      2806      2624      2627      2628      2631
      2624      2627      2628      2805      2624      2801      2802      2797
      2624      2801      2802      2803      2624      2801      2806      2805
      2624      2801      2806      2807      2625      2448      2451      2450
      2625      2448      2451      2452      2625      2626      2627      2624
      2625      2626      2627      2628      2625      2630      2631      2628
      2625      2630      2631      2632      2626      2621      2622      2617
      2626      2621      2622      2623      2626      2625      2630      2629
      2626      2625      2630      2631      2626      2627      2628      2631
      2626      2627      2628      2805      2627      2624      2801      2802
      2627      2624      2801      2806      2627      2628      2631      2630
      2627      2628      2631      2632      2627      2628      2805      2806
      2627      2628      2805      2810      2628      2631      2632      2635
      2628      2631      2632      2809      2628      2805      2806      2801
      2628      2805      2806      2807      2628      2805      2810      2809
      2628      2805      2810      2811      2629      2452      2455      2454
      2629      2452      2455      2456      2629      2630      2631      2628
      2629      2630      2631      2632      2629      2634      2635      2632
      2629      2634      2635      2636      2630      2625      2626      2621
      2630      2625      2626      2627      2630      2629      2634      2633
      2630      2629      2634      2635      2630      2631      2632      2635
      2630      2631      2632      2809      2631      2628      2805      2806
      2631      2628      2805      2810      2631      2632      2635      2634
      2631      2632      2635      2636      2631      2632      2809      2814
      2631      2632      2809      2810      2632      2635      2636      2639
      2632      2635      2636      2813      2632      2809      2814      2813
      2632      2809      2814      2815      2632      2809      2810      2805
      2632      2809      2810      2811      2633      2456      2459      2458
      2633      2456      2459      2460      2633      2634      2635      2632
      2633      2634      2635      2636      2633      2638      2639      2636
      2633      2638      2639      2640      2634      2629      2630      2625
      2634      2629      2630      2631      2634      2633      2638      2637
      2634      2633      2638      2639      2634      2635      2636      2639
      2634      2635      2636      2813      2635      2632      2809      2814
      2635      2632      2809      2810      2635      2636      2639      2638
      2635      2636      2639      2640      2635      2636      2813      2818
      2635      2636      2813      2814      2636      2639      2640      2643
      2636      2639      2640      2817      2636      2813      2818      2817
      2636      2813      2818      2819      2636      2813      2814      2809
      2636      2813      2814      2815      2637      2460      2463      2462
      2637      2460      2463      2464      2637      2638      2639      2636
      2637      2638      2639      2640      2637      2642      2643      2640
      2637      2642      2643      2644      2638      2633      2634      2629
      2638      2633      2634      2635      2638      2637      2642      2641
      2638      2637      2642      2643      2638      2639      2640      2643
      2638      2639      2640      2817      2639      2636      2813      2818
      2639      2636      2813      2814      2639      2640      2643      2642
      2639      2640      2643      2644      2639      2640      2817      2822
      2639      2640      2817      2818      2640      2643      2644      2647
      2640      2643      2644      2821      2640      2817      2822      2821
      2640      2817      2822      2823      2640      2817      2818      2813
      2640      2817      2818      2819      2641      2464      2467      2466
      2641      2464      2467      2468      2641      2642      2643      2640
      2641      2642      2643      2644      2641      2646      2647      2644
      2641      2646      2647      2648      2642      2637      2638      2633
      2642      2637      2638      2639      2642      2641      2646      2645
      2642      2641      2646      2647      2642      2643      2644      2647
      2642      2643      2644      2821      2643      2640      2817      2822
      2643      2640      2817      2818      2643      2644      2647      2646
      2643      2644      2647      2648      2643      2644      2821      2822
      2643      2644      2821      2826      2644      2647      2648      2651
      2644      2647      2648      2825      2644      2821      2822      2817
      2644      2821      2822      2823      2644      2821      2826      2825
      2644      2821      2826      2827      2645      2468      2471      2470
      2645      2468      2471      2472      2645      2646      2647      2644
      2645      2646      2647      2648      2645      2650      2651      2648
      2645      2650      2651      2652      2646      2641      2642      2637
      2646      2641      2642      2643      2646      2645      2650      2649
      2646      2645      2650      2651      2646      2647      2648      2651
      2646      2647      2648      2825      2647      2644      2821      2822
      2647      2644      2821      2826      2647      2648      2651      2650
      2647      2648      2651      2652      2647      2648      2825      2826
      2647      2648      2825      2830      2648      2651      2652      2655
      2648      2651      2652      2829      2648      2825      2826      2821
      2648      2825      2826      2827      2648      2825      2830      2829
      2648      2825      2830      2831      2649      2472      2475      2474
      2649      2472      2475      2476      2649      2650      2651      2648
      2649      2650      2651      2652      2649      2654      2655      2652
      2649      2654      2655      2656      2650      2645      2646      2641
      2650      2645      2646      2647      2650      2649      2654      2653
      2650      2649      2654      2655      2650      2651      2652      2655
      2650      2651      2652      2829      2651      2648      2825      2826
      2651      2648      2825      2830      2651      2652      2655      2654
      2651      2652      2655      2656      2651      2652      2829      2834
      2651      2652      2829      2830      2652      2655      2656      2659
      2652      2655      2656      2833      2652      2829      2834      2833
      2652      2829      2834      2835      2652      2829      2830      2825
      2652      2829      2830      2831      2653      2476      2479      2478
      2653      2476      2479      2480      2653      2654      2655      2652
      2653      2654      2655      2656      2653      2658      2659      2656
      2653      2658      2659      2660      2654      2649      2650      2645
      2654      2649      2650      2651      2654      2653      2658      2657
      2654      2653      2658      2659      2654      2655      2656      2659
      2654      2655      2656      2833      2655      2652      2829      2834
      2655      2652      2829      2830      2655      2656      2659      2658
      2655      2656      2659      2660      2655      2656      2833      2838
      2655      2656      2833      2834      2656      2659      2660      2663
      2656      2659      2660      2837      2656      2833      2838      2837
      2656      2833      2838      2839      2656      2833      2834      2829
      2656      2833      2834      2835      2657      2480      2483      2482
      2657      2480      2483      2484      2657      2658      2659      2656
      2657      2658      2659      2660      2657      2662      2663      2660
      2657      2662      2663      2664      2658      2653      2654      2649
      2658      2653      2654      2655      2658      2657      2662      2661
      2658      2657      2662      2663      2658      2659      2660      2663
      2658      2659      2660      2837      2659      2656      2833      2838
      2659      2656      2833      2834      2659      2660      2663      2662
      2659      2660      2663      2664      2659      2660      2837      2842
      2659      2660      2837      2838      2660      2663      2664      2667
      2660      2663      2664      2841      2660      2837      2842      2841
      2660      2837      2842      2843      2660      2837      2838      2833
      2660      2837      2838      2839      2661      2484      2487      2486
      2661      2484      2487      2488      2661      2662      2663      2660
      2661      2662      2663      2664      2661      2666      2667      2664
      2661      2666      2667      2668      2662      2657      2658      2653
      2662      2657      2658      2659      2662      2661      2666      2665
      2662      2661      2666      2667      2662      2663      2664      2667
      2662      2663      2664      2841      2663      2660      2837      2842
      2663      2660      2837      2838      2663      2664      2667      2666
      2663      2664      2667      2668      2663      2664      2841      2842
      2663      2664      2841      2846      2664      2667      2668      2671
      2664      2667      2668      2845      2664      2841      2842      2837
      2664      2841      2842      2843      2664      2841      2846      2845
      2664      2841      2846      2847      2665      2488      2491      2490
      2665      2488      2491      2492      2665      2666      2667      2664
      2665      2666      2667      2668      2665      2670      2671      2668
      2665      2670      2671      2672      2666      2661      2662      2657
      2666      2661      2662      2663      2666      2665      2670      2669
      2666      2665      2670      2671      2666      2667      2668      2671
      2666      2667      2668      2845      2667      2664      2841      2842
      2667      2664      2841      2846      2667      2668      2671      2670
      2667      2668      2671      2672      2667      2668      2845      2846
      2667      2668      2845      2850      2668      2671      2672      2675
      2668      2671      2672      2849      2668      2845      2846      2841
      2668      2845      2846      2847      2668      2845      2850      2849
      2668      2845      2850      2851      2669      2492      2495      2494
      2669      2492      2495      2496      2669      2670      2671      2668
      2669      2670      2671      2672      2669      2674      2675      2672
      2669      2674      2675      2676      2670      2665      2666      2661
      2670      2665      2666      2667      2670      2669      2674      2673
      2670      2669      2674      2675      2670      2671      2672      2675
      2670      2671      2672      2849      2671      2668      2845      2846
      2671      2668      2845      2850      2671      2672      2675      2674
      2671      2672      2675      2676      2671      2672      2849      2854
      2671      2672      2849      2850      2672      2675      2676      2679
      2672      2675      2676      2853      2672      2849      2854      2853
      2672      2849      2854      2855      2672      2849      2850      2845
      2672      2849      2850      2851      2673      2496      2499      2498
      2673      2496      2499      2500      2673      2674      2675      2672
      2673      2674      2675      2676      2673      2678      2679      2676
      2673      2678      2679      2680      2674      2669      2670      2665
      2674      2669      2670      2671      2674      2673      2678      2677
      2674      2673      2678      2679      2674      2675      2676      2679
      2674      2675      2676      2853      2675      2672      2849      2854
      2675      2672      2849      2850      2675      2676      2679      2678
      2675      2676      2679      2680      2675      2676      2853      2854
      2675      2676      2853      2858      2676      2679      2680      2683
      2676      2679      2680      2857      2676      2853      2854      2849
      2676      2853      2854      2855      2676      2853      2858      2857
      2676      2853      2858      2859      2677      2500      2503      2502
      2677      2500      2503      2504      2677      2678      2679      2676
      2677      2678      2679      2680      2677      2682      2683      2680
      2677      2682      2683      2684      2678      2673      2674      2669
      2678      2673      2674      2675      2678      2677      2682      2681
      2678      2677      2682      2683      2678      2679      2680      2683
      2678      2679      2680      2857      2679      2676      2853      2854
      2679      2676      2853      2858      2679      2680      2683      2682
      2679      2680      2683      2684      2679      2680      2857      2862
      2679      2680      2857      2858      2680      2683      2684      2687
      2680      2683      2684      2861      2680      2857      2862      2861
      2680      2857      2862      2863      2680      2857      2858      2853
      2680      2857      2858      2859      2681      2504      2507      2506
      2681      2504      2507      2508      2681      2682      2683      2680
      2681      2682      2683      2684      2681      2686      2687      2684
      2681      2686      2687      2688      2682      2677      2678      2673
      2682      2677      2678      2679      2682      2681      2686      2685
      2682      2681      2686      2687      2682      2683      2684      2687
      2682      2683      2684      2861      2683      2680      2857      2862
      2683      2680      2857      2858      2683      2684      2687      2686
      2683      2684      2687      2688      2683      2684      2861      2862
      2683      2684      2861      2866      2684      2687      2688      2691
      2684      2687      2688      2865      2684      2861      2862      2857
      2684      2861      2862      2863      2684      2861      2866      2865
      2684      2861      2866      2867      2685      2508      2511      2510
      2685      2508      2511      2512      2685      2686      2687      2684
      2685      2686      2687      2688      2685      2690      2691      2688
      2685      2690      2691      2692      2686      2681      2682      2677
      2686      2681      2682      2683      2686      2685      2690      2689
      2686      2685      2690      2691      2686      2687      2688      2691
      2686      2687      2688      2865      2687      2684      2861      2862
      2687      2684      2861      2866      2687      2688      2691      2690
      2687      2688      2691      2692      2687      2688      2865      2866
      2687      2688      2865      2870      2688      2691      2692      2695
      2688      2691      2692      2869      2688      2865      2866      2861
      2688      2865      2866      2867      2688      2865      2870      2869
      2688      2865      2870      2871      2689      2512      2515      2514
      2689      2512      2515      2516      2689      2690      2691      2688
      2689      2690      2691      2692      2689      2694      2695      2692
      2689      2694      2695      2696      2690      2685      2686      2681
      2690      2685      2686      2687      2690      2689      2694      2693
      2690      2689      2694      2695      2690      2691      2692      2695
      2690      2691      2692      2869      2691      2688      2865      2866
      2691      2688      2865      2870      2691      2692      2695      2694
      2691      2692      2695      2696      2691      2692      2869      2874
      2691      2692      2869      2870      2692      2695      2696      2699
      2692      2695      2696      2873      2692      2869      2874      2873
      2692      2869      2874      2875      2692      2869      2870      2865
      2692      2869      2870      2871      2693      2516      2519      2518
      2693      2516      2519      2520      2693      2694      2695      2692
      2693      2694      2695      2696      2693      2698      2699      2696
      2693      2698      2699      2700      2694      2689      2690      2685
      2694      2689      2690      2691      2694      2693      2698      2697
      2694      2693      2698      2699      2694      2695      2696      2699
      2694      2695      2696      2873      2695      2692      2869      2874
      2695      2692      2869      2870      2695      2696      2699      2698
      2695      2696      2699      2700      2695      2696      2873      2878
      2695      2696      2873      2874      2696      2699      2700      2877
      2696      2873      2878      2877      2696      2873      2878      2879
      2696      2873      2874      2869      2696      2873      2874      2875
      2697      2698      2699      2696      2697      2698      2699      2700
      2698      2693      2694      2689      2698      2693      2694      2695
      2698      2699      2700      2877      2699      2696      2873      2878
      2699      2696      2873      2874      2699      2700      2877      2878
      2700      2877      2878      2873      2700      2877      2878      2879
      2701      2524      2527      2526      2701      2524      2527      2528
      2701      2702      2703      2704      2701      2706      2707      2704
      2701      2706      2707      2708      2702      2701      2706      2705
      2702      2701      2706      2707      2702      2703      2704      2707
      2702      2703      2704      2881      2703      2704      2707      2706
      2703      2704      2707      2708      2703      2704      2881      2882
      2703      2704      2881      2886      2704      2707      2708      2711
      2704      2707      2708      2885      2704      2881      2882      2883
      2704      2881      2886      2885      2704      2881      2886      2887
      2705      2528      2531      2530      2705      2528      2531      2532
      2705      2706      2707      2704      2705      2706      2707      2708
      2705      2710      2711      2708      2705      2710      2711      2712
      2706      2701      2702      2703      2706      2705      2710      2709
      2706      2705      2710      2711      2706      2707      2708      2711
      2706      2707      2708      2885      2707      2704      2881      2882
      2707      2704      2881      2886      2707      2708      2711      2710
      2707      2708      2711      2712      2707      2708      2885      2886
      2707      2708      2885      2890      2708      2711      2712      2715
      2708      2711      2712      2889      2708      2885      2886      2881
      2708      2885      2886      2887      2708      2885      2890      2889
      2708      2885      2890      2891      2709      2532      2535      2534
      2709      2532      2535      2536      2709      2710      2711      2708
      2709      2710      2711      2712      2709      2714      2715      2712
      2709      2714      2715      2716      2710      2705      2706      2701
      2710      2705      2706      2707      2710      2709      2714      2713
      2710      2709      2714      2715      2710      2711      2712      2715
      2710      2711      2712      2889      2711      2708      2885      2886
      2711      2708      2885      2890      2711      2712      2715      2714
      2711      2712      2715      2716      2711      2712      2889      2894
      2711      2712      2889      2890      2712      2715      2716      2719
      2712      2715      2716      2893      2712      2889      2894      2893
      2712      2889      2894      2895      2712      2889      2890      2885
      2712      2889      2890      2891      2713      2536      2539      2538
      2713      2536      2539      2540      2713      2714      2715      2712
      2713      2714      2715      2716      2713      2718      2719      2716
      2713      2718      2719      2720      2714      2709      2710      2705
      2714      2709      2710      2711      2714      2713      2718      2717
      2714      2713      2718      2719      2714      2715      2716      2719
      2714      2715      2716      2893      2715      2712      2889      2894
      2715      2712      2889      2890      2715      2716      2719      2718
      2715      2716      2719      2720      2715      2716      2893      2898
      2715      2716      2893      2894      2716      2719      2720      2723
      2716      2719      2720      2897      2716      2893      2898      2897
      2716      2893      2898      2899      2716      2893      2894      2889
      2716      2893      2894      2895      2717      2540      2543      2542
      2717      2540      2543      2544      2717      2718      2719      2716
      2717      2718      2719      2720      2717      2722      2723      2720
      2717      2722      2723      2724      2718      2713      2714      2709
      2718      2713      2714      2715      2718      2717      2722      2721
      2718      2717      2722      2723      2718      2719      2720      2723
      2718      2719      2720      2897      2719      2716      2893      2898
      2719      2716      2893      2894      2719      2720      2723      2722
      2719      2720      2723      2724      2719      2720      2897      2902
      2719      2720      2897      2898      2720      2723      2724      2727
      2720      2723      2724      2901      2720      2897      2902      2901
      2720      2897      2902      2903      2720      2897      2898      2893
      2720      2897      2898      2899      2721      2544      2547      2546
      2721      2544      2547      2548      2721      2722      2723      2720
      2721      2722      2723      2724      2721      2726      2727      2724
      2721      2726      2727      2728      2722      2717      2718      2713
      2722      2717      2718      2719      2722      2721      2726      2725
      2722      2721      2726      2727      2722      2723      2724      2727
      2722      2723      2724      2901      2723      2720      2897      2902
      2723      2720      2897      2898      2723      2724      2727      2726
      2723      2724      2727      2728      2723      2724      2901      2902
      2723      2724      2901      2906      2724      2727      2728      2731
      2724      2727      2728      2905      2724      2901      2902      2897
      2724      2901      2902      2903      2724      2901      2906      2905
      2724      2901      2906      2907      2725      2548      2551      2550
      2725      2548      2551      2552      2725      2726      2727      2724
      2725      2726      2727      2728      2725      2730      2731      2728
      2725      2730      2731      2732      2726      2721      2722      2717
      2726      2721      2722      2723      2726      2725      2730      2729
      2726      2725      2730      2731      2726      2727      2728      2731
      2726      2727      2728      2905      2727      2724      2901      2902
      2727      2724      2901      2906      2727      2728      2731      2730
      2727      2728      2731      2732      2727      2728      2905      2906
      2727      2728      2905      2910      2728      2731      2732      2735
      2728      2731      2732      2909      2728      2905      2906      2901
      2728      2905      2906      2907      2728      2905      2910      2909
      2728      2905      2910      2911      2729      2552      2555      2554
      2729      2552      2555      2556      2729      2730      2731      2728
      2729      2730      2731      2732      2729      2734      2735      2732
      2729      2734      2735      2736      2730      2725      2726      2721
      2730      2725      2726      2727      2730      2729      2734      2733
      2730      2729      2734      2735      2730      2731      2732      2735
      2730      2731      2732      2909      2731      2728      2905      2906
      2731      2728      2905      2910      2731      2732      2735      2734
      2731      2732      2735      2736      2731      2732      2909      2914
      2731      2732      2909      2910      2732      2735      2736      2739
      2732      2735      2736      2913      2732      2909      2914      2913
      2732      2909      2914      2915      2732      2909      2910      2905
      2732      2909      2910      2911      2733      2556      2559      2558
      2733      2556      2559      2560      2733      2734      2735      2732
      2733      2734      2735      2736      2733      2738      2739      2736
      2733      2738      2739      2740      2734      2729      2730      2725
      2734      2729      2730      2731      2734      2733      2738      2737
      2734      2733      2738      2739      2734      2735      2736      2739
      2734      2735      2736      2913      2735      2732      2909      2914
      2735      2732      2909      2910      2735      2736      2739      2738
      2735      2736      2739      2740      2735      2736      2913      2918
      2735      2736      2913      2914      2736      2739      2740      2743
      2736      2739      2740      2917      2736      2913      2918      2917
      2736      2913      2918      2919      2736      2913      2914      2909
      2736      2913      2914      2915      2737      2560      2563      2562
      2737      2560      2563      2564      2737      2738      2739      2736
      2737      2738      2739      2740      2737      2742      2743      2740
      2737      2742      2743      2744      2738      2733      2734      2729
      2738      2733      2734      2735      2738      2737      2742      2741
      2738      2737      2742      2743      2738      2739      2740      2743
      2738      2739      2740      2917      2739      2736      2913      2918
      2739      2736      2913      2914      2739      2740      2743      2742
      2739      2740      2743      2744      2739      2740      2917      2922
      2739      2740      2917      2918      2740      2743      2744      2747
      2740      2743      2744      2921      2740      2917      2922      2921
      2740      2917      2922      2923      2740      2917      2918      2913
      2740      2917      2918      2919      2741      2564      2567      2566
      2741      2564      2567      2568      2741      2742      2743      2740
      2741      2742      2743      2744      2741      2746      2747      2744
      2741      2746      2747      2748      2742      2737      2738      2733
      2742      2737      2738      2739      2742      2741      2746      2745
      2742      2741      2746      2747      2742      2743      2744      2747
      2742      2743      2744      2921      2743      2740      2917      2922
      2743      2740      2917      2918      2743      2744      2747      2746
      2743      2744      2747      2748      2743      2744      2921      2922
      2743      2744      2921      2926      2744      2747      2748      2751
      2744      2747      2748      2925      2744      2921      2922      2917
      2744      2921      2922      2923      2744      2921      2926      2925
      2744      2921      2926      2927      2745      2568      2571      2570
      2745      2568      2571      2572      2745      2746      2747      2744
      2745      2746      2747      2748      2745      2750      2751      2748
      2745      2750      2751      2752      2746      2741      2742      2737
      2746      2741      2742      2743      2746      2745      2750      2749
      2746      2745      2750      2751      2746      2747      2748      2751
      2746      2747      2748      2925      2747      2744      2921      2922
      2747      2744      2921      2926      2747      2748      2751      2750
      2747      2748      2751      2752      2747      2748      2925      2926
      2747      2748      2925      2930      2748      2751      2752      2755
      2748      2751      2752      2929      2748      2925      2926      2921
      2748      2925      2926      2927      2748      2925      2930      2929
      2748      2925      2930      2931      2749      2572      2575      2574
      2749      2572      2575      2576      2749      2750      2751      2748
      2749      2750      2751      2752      2749      2754      2755      2752
      2749      2754      2755      2756      2750      2745      2746      2741
      2750      2745      2746      2747      2750      2749      2754      2753
      2750      2749      2754      2755      2750      2751      2752      2755
      2750      2751      2752      2929      2751      2748      2925      2926
      2751      2748      2925      2930      2751      2752      2755      2754
      2751      2752      2755      2756      2751      2752      2929      2934
      2751      2752      2929      2930      2752      2755      2756      2759
      2752      2755      2756      2933      2752      2929      2934      2933
      2752      2929      2934      2935      2752      2929      2930      2925
      2752      2929      2930      2931      2753      2576      2579      2578
      2753      2576      2579      2580      2753      2754      2755      2752
      2753      2754      2755      2756      2753      2758      2759      2756
      2753      2758      2759      2760      2754      2749      2750      2745
      2754      2749      2750      2751      2754      2753      2758      2757
      2754      2753      2758      2759      2754      2755      2756      2759
      2754      2755      2756      2933      2755      2752      2929      2934
      2755      2752      2929      2930      2755      2756      2759      2758
      2755      2756      2759      2760      2755      2756      2933      2938
      2755      2756      2933      2934      2756      2759      2760      2763
      2756      2759      2760      2937      2756      2933      2938      2937
      2756      2933      2938      2939      2756      2933      2934      2929
      2756      2933      2934      2935      2757      2580      2583      2582
      2757      2580      2583      2584      2757      2758      2759      2756
      2757      2758      2759      2760      2757      2762      2763      2760
      2757      2762      2763      2764      2758      2753      2754      2749
      2758      2753      2754      2755      2758      2757      2762      2761
      2758      2757      2762      2763      2758      2759      2760      2763
      2758      2759      2760      2937      2759      2756      2933      2938
      2759      2756      2933      2934      2759      2760      2763      2762
      2759      2760      2763      2764      2759      2760      2937      2942
      2759      2760      2937      2938      2760      2763      2764      2767
      2760      2763      2764      2941      2760      2937      2942      2941
      2760      2937      2942      2943      2760      2937      2938      2933
      2760      2937      2938      2939      2761      2584      2587      2586
      2761      2584      2587      2588      2761      2762      2763      2760
      2761      2762      2763      2764      2761      2766      2767      2764
      2761      2766      2767      2768      2762      2757      2758      2753
      2762      2757      2758      2759      2762      2761      2766      2765
      2762      2761      2766      2767      2762      2763      2764      2767
      2762      2763      2764      2941      2763      2760      2937      2942
      2763      2760      2937      2938      2763      2764      2767      2766
      2763      2764      2767      2768      2763      2764      2941      2942
      2763      2764      2941      2946      2764      2767      2768      2771
      2764      2767      2768      2945      2764      2941      2942      2937
      2764      2941      2942      2943      2764      2941      2946      2945
      2764      2941      2946      2947      2765      2588      2591      2590
      2765      2588      2591      2592      2765      2766      2767      2764
      2765      2766      2767      2768      2765      2770      2771      2768
      2765      2770      2771      2772      2766      2761      2762      2757
      2766      2761      2762      2763      2766      2765      2770      2769
      2766      2765      2770      2771      2766      2767      2768      2771
      2766      2767      2768      2945      2767      2764      2941      2942
      2767      2764      2941      2946      2767      2768      2771      2770
      2767      2768      2771      2772      2767      2768      2945      2946
      2767      2768      2945      2950      2768      2771      2772      2775
      2768      2771      2772      2949      2768      2945      2946      2941
      2768      2945      2946      2947      2768      2945      2950      2949
      2768      2945      2950      2951      2769      2592      2595      2594
      2769      2592      2595      2596      2769      2770      2771      2768
      2769      2770      2771      2772      2769      2774      2775      2772
      2769      2774      2775      2776      2770      2765      2766      2761
      2770      2765      2766      2767      2770      2769      2774      2773
      2770      2769      2774      2775      2770      2771      2772      2775
      2770      2771      2772      2949      2771      2768      2945      2946
      2771      2768      2945      2950      2771      2772      2775      2774
      2771      2772      2775      2776      2771      2772      2949      2954
      2771      2772      2949      2950      2772      2775      2776      2779
      2772      2775      2776      2953      2772      2949      2954      2953
      2772      2949      2954      2955      2772      2949      2950      2945
      2772      2949      2950      2951      2773      2596      2599      2598
      2773      2596      2599      2600      2773      2774      2775      2772
      2773      2774      2775      2776      2773      2778      2779      2776
      2773      2778      2779      2780      2774      2769      2770      2765
      2774      2769      2770      2771      2774      2773      2778      2777
      2774      2773      2778      2779      2774      2775      2776      2779
      2774      2775      2776      2953      2775      2772      2949      2954
      2775      2772      2949      2950      2775      2776      2779      2778
      2775      2776      2779      2780      2775      2776      2953      2958
      2775      2776      2953      2954      2776      2779      2780      2783
      2776      2779      2780      2957      2776      2953      2958      2957
      2776      2953      2958      2959      2776      2953      2954      2949
      2776      2953      2954      2955      2777      2600      2603      2602
      2777      2600      2603      2604      2777      2778      2779      2776
      2777      2778      2779      2780      2777      2782      2783      2780
      2777      2782      2783      2784      2778      2773      2774      2769
      2778      2773      2774      2775      2778      2777      2782      2781
      2778      2777      2782      2783      2778      2779      2780      2783
      2778      2779      2780      2957      2779      2776      2953      2958
      2779      2776      2953      2954      2779      2780      2783      2782
      2779      2780      2783      2784      2779      2780      2957      2962
      2779      2780      2957      2958      2780      2783      2784      2787
      2780      2783      2784      2961      2780      2957      2962      2961
      2780      2957      2962      2963      2780      2957      2958      2953
      2780      2957      2958      2959      2781      2604      2607      2606
      2781      2604      2607      2608      2781      2782      2783      2780
      2781      2782      2783      2784      2781      2786      2787      2784
      2781      2786      2787      2788      2782      2777      2778      2773
      2782      2777      2778      2779      2782      2781      2786      2785
      2782      2781      2786      2787      2782      2783      2784      2787
      2782      2783      2784      2961      2783      2780      2957      2962
      2783      2780      2957      2958      2783      2784      2787      2786
      2783      2784      2787      2788      2783      2784      2961      2962
      2783      2784      2961      2966      2784      2787      2788      2791
      2784      2787      2788      2965      2784      2961      2962      2957
      2784      2961      2962      2963      2784      2961      2966      2965
      2784      2961      2966      2967      2785      2608      2611      2610
      2785      2608      2611      2612      2785      2786      2787      2784
      2785      2786      2787      2788      2785      2790      2791      2788
      2785      2790      2791      2792      2786      2781      2782      2777
      2786      2781      2782      2783      2786      2785      2790      2789
      2786      2785      2790      2791      2786      2787      2788      2791
      2786      2787      2788      2965      2787      2784      2961      2962
      2787      2784      2961      2966      2787      2788      2791      2790
      2787      2788      2791      2792      2787      2788      2965      2966
      2787      2788      2965      2970      2788      2791      2792      2795
      2788      2791      2792      2969      2788      2965      2966      2961
      2788      2965      2966      2967      2788      2965      2970      2969
      2788      2965      2970      2971      2789      2612      2615      2614
      2789      2612      2615      2616      2789      2790      2791      2788
      2789      2790      2791      2792      2789      2794      2795      2792
      2789      2794      2795      2796      2790      2785      2786      2781
      2790      2785      2786      2787      2790      2789      2794      2793
      2790      2789      2794      2795      2790      2791      2792      2795
      2790      2791      2792      2969      2791      2788      2965      2966
      2791      2788      2965      2970      2791      2792      2795      2794
      2791      2792      2795      2796      2791      2792      2969      2974
      2791      2792      2969      2970      2792      2795      2796      2799
      2792      2795      2796      2973      2792      2969      2974      2973
      2792      2969      2974      2975      2792      2969      2970      2965
      2792      2969      2970      2971      2793      2616      2619      2618
      2793      2616      2619      2620      2793      2794      2795      2792
      2793      2794      2795      2796      2793      2798      2799      2796
      2793      2798      2799      2800      2794      2789      2790      2785
      2794      2789      2790      2791      2794      2793      2798      2797
      2794      2793      2798      2799      2794      2795      2796      2799
      2794      2795      2796      2973      2795      2792      2969      2974
      2795      2792      2969      2970      2795      2796      2799      2798
      2795      2796      2799      2800      2795      2796      2973      2978
      2795      2796      2973      2974      2796      2799      2800      2803
      2796      2799      2800      2977      2796      2973      2978      2977
      2796      2973      2978      2979      2796      2973      2974      2969
      2796      2973      2974      2975      2797      2620      2623      2622
      2797      2620      2623      2624      2797      2798      2799      2796
      2797      2798      2799      2800      2797      2802      2803      2800
      2797      2802      2803      2804      2798      2793      2794      2789
      2798      2793      2794      2795      2798      2797      2802      2801
      2798      2797      2802      2803      2798      2799      2800      2803
      2798      2799      2800      2977      2799      2796      2973      2978
      2799      2796      2973      2974      2799      2800      2803      2802
      2799      2800      2803      2804      2799      2800      2977      2982
      2799      2800      2977      2978      2800      2803      2804      2807
      2800      2803      2804      2981      2800      2977      2982      2981
      2800      2977      2982      2983      2800      2977      2978      2973
      2800      2977      2978      2979      2801      2624      2627      2626
      2801      2624      2627      2628      2801      2802      2803      2800
      2801      2802      2803      2804      2801      2806      2807      2804
      2801      2806      2807      2808      2802      2797      2798      2793
      2802      2797      2798      2799      2802      2801      2806      2805
      2802      2801      2806      2807      2802      2803      2804      2807
      2802      2803      2804      2981      2803      2800      2977      2982
      2803      2800      2977      2978      2803      2804      2807      2806
      2803      2804      2807      2808      2803      2804      2981      2982
      2803      2804      2981      2986      2804      2807      2808      2811
      2804      2807      2808      2985      2804      2981      2982      2977
      2804      2981      2982      2983      2804      2981      2986      2985
      2804      2981      2986      2987      2805      2628      2631      2630
      2805      2628      2631      2632      2805      2806      2807      2804
      2805      2806      2807      2808      2805      2810      2811      2808
      2805      2810      2811      2812      2806      2801      2802      2797
      2806      2801      2802      2803      2806      2805      2810      2809
      2806      2805      2810      2811      2806      2807      2808      2811
      2806      2807      2808      2985      2807      2804      2981      2982
      2807      2804      2981      2986      2807      2808      2811      2810
      2807      2808      2811      2812      2807      2808      2985      2986
      2807      2808      2985      2990      2808      2811      2812      2815
      2808      2811      2812      2989      2808      2985      2986      2981
      2808      2985      2986      2987      2808      2985      2990      2989
      2808      2985      2990      2991      2809      2632      2635      2634
      2809      2632      2635      2636      2809      2810      2811      2808
      2809      2810      2811      2812      2809      2814      2815      2812
      2809      2814      2815      2816      2810      2805      2806      2801
      2810      2805      2806      2807      2810      2809      2814      2813
      2810      2809      2814      2815      2810      2811      2812      2815
      2810      2811      2812      2989      2811      2808      2985      2986
      2811      2808      2985      2990      2811      2812      2815      2814
      2811      2812      2815      2816      2811      2812      2989      2994
      2811      2812      2989      2990      2812      2815      2816      2819
      2812      2815      2816      2993      2812      2989      2994      2993
      2812      2989      2994      2995      2812      2989      2990      2985
      2812      2989      2990      2991      2813      2636      2639      2638
      2813      2636      2639      2640      2813      2814      2815      2812
      2813      2814      2815      2816      2813      2818      2819      2816
      2813      2818      2819      2820      2814      2809      2810      2805
      2814      2809      2810      2811      2814      2813      2818      2817
      2814      2813      2818      2819      2814      2815      2816      2819
      2814      2815      2816      2993      2815      2812      2989      2994
      2815      2812      2989      2990      2815      2816      2819      2818
      2815      2816      2819      2820      2815      2816      2993      2998
      2815      2816      2993      2994      2816      2819      2820      2823
      2816      2819      2820      2997      2816      2993      2998      2997
      2816      2993      2998      2999      2816      2993      2994      2989
      2816      2993      2994      2995      2817      2640      2643      2642
      2817      2640      2643      2644      2817      2818      2819      2816
      2817      2818      2819      2820      2817      2822      2823      2820
      2817      2822      2823      2824      2818      2813      2814      2809
      2818      2813      2814      2815      2818      2817      2822      2821
      2818      2817      2822      2823      2818      2819      2820      2823
      2818      2819      2820      2997      2819      2816      2993      2998
      2819      2816      2993      2994      2819      2820      2823      2822
      2819      2820      2823      2824      2819      2820      2997      3002
      2819      2820      2997      2998      2820      2823      2824      2827
      2820      2823      2824      3001      2820      2997      3002      3001
      2820      2997      3002      3003      2820      2997      2998      2993
      2820      2997      2998      2999      2821      2644      2647      2646
      2821      2644      2647      2648      2821      2822      2823      2820
      2821      2822      2823      2824      2821      2826      2827      2824
      2821      2826      2827      2828      2822      2817      2818      2813
      2822      2817      2818      2819      2822      2821      2826      2825
      2822      2821      2826      2827      2822      2823      2824      2827
      2822      2823      2824      3001      2823      2820      2997      3002
      2823      2820      2997      2998      2823      2824      2827      2826
      2823      2824      2827      2828      2823      2824      3001      3002
      2823      2824      3001      3006      2824      2827      2828      2831
      2824      2827      2828      3005      2824      3001      3002      2997
      2824      3001      3002      3003      2824      3001      3006      3005
      2824      3001      3006      3007      2825      2648      2651      2650
      2825      2648      2651      2652      2825      2826      2827      2824
      2825      2826      2827      2828      2825      2830      2831      2828
      2825      2830      2831      2832      2826      2821      2822      2817
      2826      2821      2822      2823      2826      2825      2830      2829
      2826      2825      2830      2831      2826      2827      2828      2831
      2826      2827      2828      3005      2827      2824      3001      3002
      2827      2824      3001      3006      2827      2828      2831      2830
      2827      2828      2831      2832      2827      2828      3005      3006
      2827      2828      3005      3010      2828      2831      2832      2835
      2828      2831      2832      3009      2828      3005      3006      3001
      2828      3005      3006      3007      2828      3005      3010      3009
      2828      3005      3010      3011      2829      2652      2655      2654
      2829      2652      2655      2656      2829      2830      2831      2828
      2829      2830      2831      2832      2829      2834      2835      2832
      2829      2834      2835      2836      2830      2825      2826      2821
      2830      2825      2826      2827      2830      2829      2834      2833
      2830      2829      2834      2835      2830      2831      2832      2835
      2830      2831      2832      3009      2831      2828      3005      3006
      2831      2828      3005      3010      2831      2832      2835      2834
      2831      2832      2835      2836      2831      2832      3009      3014
      2831      2832      3009      3010      2832      2835      2836      2839
      2832      2835      2836      3013      2832      3009      3014      3013
      2832      3009      3014      3015      2832      3009      3010      3005
      2832      3009      3010      3011      2833      2656      2659      2658
      2833      2656      2659      2660      2833      2834      2835      2832
      2833      2834      2835      2836      2833      2838      2839      2836
      2833      2838      2839      2840      2834      2829      2830      2825
      2834      2829      2830      2831      2834      2833      2838      2837
      2834      2833      2838      2839      2834      2835      2836      2839
      2834      2835      2836      3013      2835      2832      3009      3014
      2835      2832      3009      3010      2835      2836      2839      2838
      2835      2836      2839      2840      2835      2836      3013      3018
      2835      2836      3013      3014      2836      2839      2840      2843
      2836      2839      2840      3017      2836      3013      3018      3017
      2836      3013      3018      3019      2836      3013      3014      3009
      2836      3013      3014      3015      2837      2660      2663      2662
      2837      2660      2663      2664      2837      2838      2839      2836
      2837      2838      2839      2840      2837      2842      2843      2840
      2837      2842      2843      2844      2838      2833      2834      2829
      2838      2833      2834      2835      2838      2837      2842      2841
      2838      2837      2842      2843      2838      2839      2840      2843
      2838      2839      2840      3017      2839      2836      3013      3018
      2839      2836      3013      3014      2839      2840      2843      2842
      2839      2840      2843      2844      2839      2840      3017      3022
      2839      2840      3017      3018      2840      2843      2844      2847
      2840      2843      2844      3021      2840      3017      3022      3021
      2840      3017      3022      3023      2840      3017      3018      3013
      2840      3017      3018      3019      2841      2664      2667      2666
      2841      2664      2667      2668      2841      2842      2843      2840
      2841      2842      2843      2844      2841      2846      2847      2844
      2841      2846      2847      2848      2842      2837      2838      2833
      2842      2837      2838      2839      2842      2841      2846      2845
      2842      2841      2846      2847      2842      2843      2844      2847
      2842      2843      2844      3021      2843      2840      3017      3022
      2843      2840      3017      3018      2843      2844      2847      2846
      2843      2844      2847      2848      2843      2844      3021      3022
      2843      2844      3021      3026      2844      2847      2848      2851
      2844      2847      2848      3025      2844      3021      3022      3017
      2844      3021      3022      3023      2844      3021      3026      3025
      2844      3021      3026      3027      2845      2668      2671      2670
      2845      2668      2671      2672      2845      2846      2847      2844
      2845      2846      2847      2848      2845      2850      2851      2848
      2845      2850      2851      2852      2846      2841      2842      2837
      2846      2841      2842      2843      2846      2845      2850      2849
      2846      2845      2850      2851      2846      2847      2848      2851
      2846      2847      2848      3025      2847      2844      3021      3022
      2847      2844      3021      3026      2847      2848      2851      2850
      2847      2848      2851      2852      2847      2848      3025      3026
      2847      2848      3025      3030      2848      2851      2852      2855
      2848      2851      2852      3029      2848      3025      3026      3021
      2848      3025      3026      3027      2848      3025      3030      3029
      2848      3025      3030      3031      2849      2672      2675      2674
      2849      2672      2675      2676      2849      2850      2851      2848
      2849      2850      2851      2852      2849      2854      2855      2852
      2849      2854      2855      2856      2850      2845      2846      2841
      2850      2845      2846      2847      2850      2849      2854      2853
      2850      2849      2854      2855      2850      2851      2852      2855
      2850      2851      2852      3029      2851      2848      3025      3026
      2851      2848      3025      3030      2851      2852      2855      2854
      2851      2852      2855      2856      2851      2852      3029      3034
      2851      2852      3029      3030      2852      2855      2856      2859
      2852      2855      2856      3033      2852      3029      3034      3033
      2852      3029      3034      3035      2852      3029      3030      3025
      2852      3029      3030      3031      2853      2676      2679      2678
      2853      2676      2679      2680      2853      2854      2855      2852
      2853      2854      2855      2856      2853      2858      2859      2856
      2853      2858      2859      2860      2854      2849      2850      2845
      2854      2849      2850      2851      2854      2853      2858      2857
      2854      2853      2858      2859      2854      2855      2856      2859
      2854      2855      2856      3033      2855      2852      3029      3034
      2855      2852      3029      3030      2855      2856      2859      2858
      2855      2856      2859      2860      2855      2856      3033      3038
      2855      2856      3033      3034      2856      2859      2860      2863
      2856      2859      2860      3037      2856      3033      3038      3037
      2856      3033      3038      3039      2856      3033      3034      3029
      2856      3033      3034      3035      2857      2680      2683      2682
      2857      2680      2683      2684      2857      2858      2859      2856
      2857      2858      2859      2860      2857      2862      2863      2860
      2857      2862      2863      2864      2858      2853      2854      2849
      2858      2853      2854      2855      2858      2857      2862      2861
      2858      2857      2862      2863      2858      2859      2860      2863
      2858      2859      2860      3037      2859      2856      3033      3038
      2859      2856      3033      3034      2859      2860      2863      2862
      2859      2860      2863      2864      2859      2860      3037      3042
      2859      2860      3037      3038      2860      2863      2864      2867
      2860      2863      2864      3041      2860      3037      3042      3041
      2860      3037      3042      3043      2860      3037      3038      3033
      2860      3037      3038      3039      2861      2684      2687      2686
      2861      2684      2687      2688      2861      2862      2863      2860
      2861      2862      2863      2864      2861      2866      2867      2864
      2861      2866      2867      2868      2862      2857      2858      2853
      2862      2857      2858      2859      2862      2861      2866      2865
      2862      2861      2866      2867      2862      2863      2864      2867
      2862      2863      2864      3041      2863      2860      3037      3042
      2863      2860      3037      3038      2863      2864      2867      2866
      2863      2864      2867      2868      2863      2864      3041      3042
      2863      2864      3041      3046      2864      2867      2868      2871
      2864      2867      2868      3045      2864      3041      3042      3037
      2864      3041      3042      3043      2864      3041      3046      3045
      2864      3041      3046      3047      2865      2688      2691      2690
      2865      2688      2691      2692      2865      2866      2867      2864
      2865      2866      2867      2868      2865      2870      2871      2868
      2865      2870      2871      2872      2866      2861      2862      2857
      2866      2861      2862      2863      2866      2865      2870      2869
      2866      2865      2870      2871      2866      2867      2868      2871
      2866      2867      2868      3045      2867      2864      3041      3042
      2867      2864      3041      3046      2867      2868      2871      2870
      2867      2868      2871      2872      2867      2868      3045      3046
      2867      2868      3045      3050      2868      2871      2872      2875
      2868      2871      2872      3049      2868      3045      3046      3041
      2868      3045      3046      3047      2868      3045      3050      3049
      2868      3045      3050      3051      2869      2692      2695      2694
      2869      2692      2695      2696      2869      2870      2871      2868
      2869      2870      2871      2872      2869      2874      2875      2872
      2869      2874      2875      2876      2870      2865      2866      2861
      2870      2865      2866      2867      2870      2869      2874      2873
      2870      2869      2874      2875      2870      2871      2872      2875
      2870      2871      2872      3049      2871      2868      3045      3046
      2871      2868      3045      3050      2871      2872      2875      2874
      2871      2872      2875      2876      2871      2872      3049      3054
      2871      2872      3049      3050      2872      2875      2876      2879
      2872      2875      2876      3053      2872      3049      3054      3053
      2872      3049      3054      3055      2872      3049      3050      3045
      2872      3049      3050      3051      2873      2696      2699      2698
      2873      2696      2699      2700      2873      2874      2875      2872
      2873      2874      2875      2876      2873      2878      2879      2876
      2873      2878      2879      2880      2874      2869      2870      2865
      2874      2869      2870      2871      2874      2873      2878      2877
      2874      2873      2878      2879      2874      2875      2876      2879
      2874      2875      2876      3053      2875      2872      3049      3054
      2875      2872      3049      3050      2875      2876      2879      2878
      2875      2876      2879      2880      2875      2876      3053      3058
      2875      2876      3053      3054      2876      2879      2880      3057
      2876      3053      3058      3057      2876      3053      3058      3059
      2876      3053      3054      3049      2876      3053      3054      3055
      2877      2878      2879      2876      2877      2878      2879      2880
      2878      2873      2874      2869      2878      2873      2874      2875
      2878      2879      2880      3057      2879      2876      3053      3058
      2879      2876      3053      3054      2879      2880      3057      3058
      2880      3057      3058      3053      2880      3057      3058      3059
      2881      2704      2707      2706      2881      2704      2707      2708
      2881      2882      2883      2884      2881      2886      2887      2884
      2881      2886      2887      2888      2882      2881      2886      2885
      2882      2881      2886      2887      2882      2883      2884      2887
      2882      2883      2884      3061      2883      2884      2887      2886
      2883      2884      2887      2888      2883      2884      3061      3062
      2883      2884      3061      3066      2884      2887      2888      2891
      2884      2887      2888      3065      2884      3061      3062      3063
      2884      3061      3066      3065      2884      3061      3066      3067
      2885      2708      2711      2710      2885      2708      2711      2712
      2885      2886      2887      2884      2885      2886      2887      2888
      2885      2890      2891      2888      2885      2890      2891      2892
      2886      2881      2882      2883      2886      2885      2890      2889
      2886      2885      2890      2891      2886      2887      2888      2891
      2886      2887      2888      3065      2887      2884      3061      3062
      2887      2884      3061      3066      2887      2888      2891      2890
      2887      2888      2891      2892      2887      2888      3065      3066
      2887      2888      3065      3070      2888      2891      2892      2895
      2888      2891      2892      3069      2888      3065      3066      3061
      2888      3065      3066      3067      2888      3065      3070      3069
      2888      3065      3070      3071      2889      2712      2715      2714
      2889      2712      2715      2716      2889      2890      2891      2888
      2889      2890      2891      2892      2889      2894      2895      2892
      2889      2894      2895      2896      2890      2885      2886      2881
      2890      2885      2886      2887      2890      2889      2894      2893
      2890      2889      2894      2895      2890      2891      2892      2895
      2890      2891      2892      3069      2891      2888      3065      3066
      2891      2888      3065      3070      2891      2892      2895      2894
      2891      2892      2895      2896      2891      2892      3069      3074
      2891      2892      3069      3070      2892      2895      2896      2899
      2892      2895      2896      3073      2892      3069      3074      3073
      2892      3069      3074      3075      2892      3069      3070      3065
      2892      3069      3070      3071      2893      2716      2719      2718
      2893      2716      2719      2720      2893      2894      2895      2892
      2893      2894      2895      2896      2893      2898      2899      2896
      2893      2898      2899      2900      2894      2889      2890      2885
      2894      2889      2890      2891      2894      2893      2898      2897
      2894      2893      2898      2899      2894      2895      2896      2899
      2894      2895      2896      3073      2895      2892      3069      3074
      2895      2892      3069      3070      2895      2896      2899      2898
      2895      2896      2899      2900      2895      2896      3073      3078
      2895      2896      3073      3074      2896      2899      2900      2903
      2896      2899      2900      3077      2896      3073      3078      3077
      2896      3073      3078      3079      2896      3073      3074      3069
      2896      3073      3074      3075      2897      2720      2723      2722
      2897      2720      2723      2724      2897      2898      2899      2896
      2897      2898      2899      2900      2897      2902      2903      2900
      2897      2902      2903      2904      2898      2893      2894      2889
      2898      2893      2894      2895      2898      2897      2902      2901
      2898      2897      2902      2903      2898      2899      2900      2903
      2898      2899      2900      3077      2899      2896      3073      3078
      2899      2896      3073      3074      2899      2900      2903      2902
      2899      2900      2903      2904      2899      2900      3077      3082
      2899      2900      3077      3078      2900      2903      2904      2907
      2900      2903      2904      3081      2900      3077      3082      3081
      2900      3077      3082      3083      2900      3077      3078      3073
      2900      3077      3078      3079      2901      2724      2727      2726
      2901      2724      2727      2728      2901      2902      2903      2900
      2901      2902      2903      2904      2901      2906      2907      2904
      2901      2906      2907      2908      2902      2897      2898      2893
      2902      2897      2898      2899      2902      2901      2906      2905
      2902      2901      2906      2907      2902      2903      2904      2907
      2902      2903      2904      3081      2903      2900      3077      3082
      2903      2900      3077      3078      2903      2904      2907      2906
      2903      2904      2907      2908      2903      2904      3081      3082
      2903      2904      3081      3086      2904      2907      2908      2911
      2904      2907      2908      3085      2904      3081      3082      3077
      2904      3081      3082      3083      2904      3081      3086      3085
      2904      3081      3086      3087      2905      2728      2731      2730
      2905      2728      2731      2732      2905      2906      2907      2904
      2905      2906      2907      2908      2905      2910      2911      2908
      2905      2910      2911      2912      2906      2901      2902      2897
      2906      2901      2902      2903      2906      2905      2910      2909
      2906      2905      2910      2911      2906      2907      2908      2911
      2906      2907      2908      3085      2907      2904      3081      3082
      2907      2904      3081      3086      2907      2908      2911      2910
      2907      2908      2911      2912      2907      2908      3085      3086
      2907      2908      3085      3090      2908      2911      2912      2915
      2908      2911      2912      3089      2908      3085      3086      3081
      2908      3085      3086      3087      2908      3085      3090      3089
      2908      3085      3090      3091      2909      2732      2735      2734
      2909      2732      2735      2736      2909      2910      2911      2908
      2909      2910      2911      2912      2909      2914      2915      2912
      2909      2914      2915      2916      2910      2905      2906      2901
      2910      2905      2906      2907      2910      2909      2914      2913
      2910      2909      2914      2915      2910      2911      2912      2915
      2910      2911      2912      3089      2911      2908      3085      3086
      2911      2908      3085      3090      2911      2912      2915      2914
      2911      2912      2915      2916      2911      2912      3089      3094
      2911      2912      3089      3090      2912      2915      2916      2919
      2912      2915      2916      3093      2912      3089      3094      3093
      2912      3089      3094      3095      2912      3089      3090      3085
      2912      3089      3090      3091      2913      2736      2739      2738
      2913      2736      2739      2740      2913      2914      2915      2912
      2913      2914      2915      2916      2913      2918      2919      2916
      2913      2918      2919      2920      2914      2909      2910      2905
      2914      2909      2910      2911      2914      2913      2918      2917
      2914      2913      2918      2919      2914      2915      2916      2919
      2914      2915      2916      3093      2915      2912      3089      3094
      2915      2912      3089      3090      2915      2916      2919      2918
      2915      2916      2919      2920      2915      2916      3093      3094
      2915      2916      3093      3098      2916      2919      2920      2923
      2916      2919      2920      3097      2916      3093      3094      3089
      2916      3093      3094      3095      2916      3093      3098      3097
      2916      3093      3098      3099      2917      2740      2743      2742
      2917      2740      2743      2744      2917      2918      2919      2916
      2917      2918      2919      2920      2917      2922      2923      2920
      2917      2922      2923      2924      2918      2913      2914      2909
      2918      2913      2914      2915      2918      2917      2922      2921
      2918      2917      2922      2923      2918      2919      2920      2923
      2918      2919      2920      3097      2919      2916      3093      3094
      2919      2916      3093      3098      2919      2920      2923      2922
      2919      2920      2923      2924      2919      2920      3097      3102
      2919      2920      3097      3098      2920      2923      2924      2927
      2920      2923      2924      3101      2920      3097      3102      3101
      2920      3097      3102      3103      2920      3097      3098      3093
      2920      3097      3098      3099      2921      2744      2747      2746
      2921      2744      2747      2748      2921      2922      2923      2920
      2921      2922      2923      2924      2921      2926      2927      2924
      2921      2926      2927      2928      2922      2917      2918      2913
      2922      2917      2918      2919      2922      2921      2926      2925
      2922      2921      2926      2927      2922      2923      2924      2927
      2922      2923      2924      3101      2923      2920      3097      3102
      2923      2920      3097      3098      2923      2924      2927      2926
      2923      2924      2927      2928      2923      2924      3101      3102
      2923      2924      3101      3106      2924      2927      2928      2931
      2924      2927      2928      3105      2924      3101      3102      3097
      2924      3101      3102      3103      2924      3101      3106      3105
      2924      3101      3106      3107      2925      2748      2751      2750
      2925      2748      2751      2752      2925      2926      2927      2924
      2925      2926      2927      2928      2925      2930      2931      2928
      2925      2930      2931      2932      2926      2921      2922      2917
      2926      2921      2922      2923      2926      2925      2930      2929
      2926      2925      2930      2931      2926      2927      2928      2931
      2926      2927      2928      3105      2927      2924      3101      3102
      2927      2924      3101      3106      2927      2928      2931      2930
      2927      2928      2931      2932      2927      2928      3105      3106
      2927      2928      3105      3110      2928      2931      2932      2935
      2928      2931      2932      3109      2928      3105      3106      3101
      2928      3105      3106      3107      2928      3105      3110      3109
      2928      3105      3110      3111      2929      2752      2755      2754
      2929      2752      2755      2756      2929      2930      2931      2928
      2929      2930      2931      2932      2929      2934      2935      2932
      2929      2934      2935      2936      2930      2925      2926      2921
      2930      2925      2926      2927      2930      2929      2934      2933
      2930      2929      2934      2935      2930      2931      2932      2935
      2930      2931      2932      3109      2931      2928      3105      3106
      2931      2928      3105      3110      2931      2932      2935      2934
      2931      2932      2935      2936      2931      2932      3109      3114
      2931      2932      3109      3110      2932      2935      2936      2939
      2932      2935      2936      3113      2932      3109      3114      3113
      2932      3109      3114      3115      2932      3109      3110      3105
      2932      3109      3110      3111      2933      2756      2759      2758
      2933      2756      2759      2760      2933      2934      2935      2932
      2933      2934      2935      2936      2933      2938      2939      2936
      2933      2938      2939      2940      2934      2929      2930      2925
      2934      2929      2930      2931      2934      2933      2938      2937
      2934      2933      2938      2939      2934      2935      2936      2939
      2934      2935      2936      3113      2935      2932      3109      3114
      2935      2932      3109      3110      2935      2936      2939      2938
      2935      2936      2939      2940      2935      2936      3113      3118
      2935      2936      3113      3114      2936      2939      2940      2943
      2936      2939      2940      3117      2936      3113      3118      3117
      2936      3113      3118      3119      2936      3113      3114      3109
      2936      3113      3114      3115      2937      2760      2763      2762
      2937      2760      2763      2764      2937      2938      2939      2936
      2937      2938      2939      2940      2937      2942      2943      2940
      2937      2942      2943      2944      2938      2933      2934      2929
      2938      2933      2934      2935      2938      2937      2942      2941
      2938      2937      2942      2943      2938      2939      2940      2943
      2938      2939      2940      3117      2939      2936      3113      3118
      2939      2936      3113      3114      2939      2940      2943      2942
      2939      2940      2943      2944      2939      2940      3117      3122
      2939      2940      3117      3118      2940      2943      2944      2947
      2940      2943      2944      3121      2940      3117      3122      3121
      2940      3117      3122      3123      2940      3117      3118      3113
      2940      3117      3118      3119      2941      2764      2767      2766
      2941      2764      2767      2768      2941      2942      2943      2940
      2941      2942      2943      2944      2941      2946      2947      2944
      2941      2946      2947      2948      2942      2937      2938      2933
      2942      2937      2938      2939      2942      2941      2946      2945
      2942      2941      2946      2947      2942      2943      2944      2947
      2942      2943      2944      3121      2943      2940      3117      3122
      2943      2940      3117      3118      2943      2944      2947      2946
      2943      2944      2947      2948      2943      2944      3121      3122
      2943      2944      3121      3126      2944      2947      2948      2951
      2944      2947      2948      3125      2944      3121      3122      3117
      2944      3121      3122      3123      2944      3121      3126      3125
      2944      3121      3126      3127      2945      2768      2771      2770
      2945      2768      2771      2772      2945      2946      2947      2944
      2945      2946      2947      2948      2945      2950      2951      2948
      2945      2950      2951      2952      2946      2941      2942      2937
      2946      2941      2942      2943      2946      2945      2950      2949
      2946      2945      2950      2951      2946      2947      2948      2951
      2946      2947      2948      3125      2947      2944      3121      3122
      2947      2944      3121      3126      2947      2948      2951      2950
      2947      2948      2951      2952      2947      2948      3125      3126
      2947      2948      3125      3130      2948      2951      2952      2955
      2948      2951      2952      3129      2948      3125      3126      3121
      2948      3125      3126      3127      2948      3125      3130      3129
      2948      3125      3130      3131      2949      2772      2775      2774
      2949      2772      2775      2776      2949      2950      2951      2948
      2949      2950      2951      2952      2949      2954      2955      2952
      2949      2954      2955      2956      2950      2945      2946      2941
      2950      2945      2946      2947      2950      2949      2954      2953
      2950      2949      2954      2955      2950      2951      2952      2955
      2950      2951      2952      3129      2951      2948      3125      3126
      2951      2948      3125      3130      2951      2952      2955      2954
      2951      2952      2955      2956      2951      2952      3129      3134
      2951      2952      3129      3130      2952      2955      2956      2959
      2952      2955      2956      3133      2952      3129      3134      3133
      2952      3129      3134      3135      2952      3129      3130      3125
      2952      3129      3130      3131      2953      2776      2779      2778
      2953      2776      2779      2780      2953      2954      2955      2952
      2953      2954      2955      2956      2953      2958      2959      2956
      2953      2958      2959      2960      2954      2949      2950      2945
      2954      2949      2950      2951      2954      2953      2958      2957
      2954      2953      2958      2959      2954      2955      2956      2959
      2954      2955      2956      3133      2955      2952      3129      3134
      2955      2952      3129      3130      2955      2956      2959      2958
      2955      2956      2959      2960      2955      2956      3133      3138
      2955      2956      3133      3134      2956      2959      2960      2963
      2956      2959      2960      3137      2956      3133      3138      3137
      2956      3133      3138      3139      2956      3133      3134      3129
      2956      3133      3134      3135      2957      2780      2783      2782
      2957      2780      2783      2784      2957      2958      2959      2956
      2957      2958      2959      2960      2957      2962      2963      2960
      2957      2962      2963      2964      2958      2953      2954      2949
      2958      2953      2954      2955      2958      2957      2962      2961
      2958      2957      2962      2963      2958      2959      2960      2963
      2958      2959      2960      3137      2959      2956      3133      3138
      2959      2956      3133      3134      2959      2960      2963      2962
      2959      2960      2963      2964      2959      2960      3137      3142
      2959      2960      3137      3138      2960      2963      2964      2967
      2960      2963      2964      3141      2960      3137      3142      3141
      2960      3137      3142      3143      2960      3137      3138      3133
      2960      3137      3138      3139      2961      2784      2787      2786
      2961      2784      2787      2788      2961      2962      2963      2960
      2961      2962      2963      2964      2961      2966      2967      2964
      2961      2966      2967      2968      2962      2957      2958      2953
      2962      2957      2958      2959      2962      2961      2966      2965
      2962      2961      2966      2967      2962      2963      2964      2967
      2962      2963      2964      3141      2963      2960      3137      3142
      2963      2960      3137      3138      2963      2964      2967      2966
      2963      2964      2967      2968      2963      2964      3141      3142
      2963      2964      3141      3146      2964      2967      2968      2971
      2964      2967      2968      3145      2964      3141      3142      3137
      2964      3141      3142      3143      2964      3141      3146      3145
      2964      3141      3146      3147      2965      2788      2791      2790
      2965      2788      2791      2792      2965      2966      2967      2964
      2965      2966      2967      2968      2965      2970      2971      2968
      2965      2970      2971      2972      2966      2961      2962      2957
      2966      2961      2962      2963      2966      2965      2970      2969
      2966      2965      2970      2971      2966      2967      2968      2971
      2966      2967      2968      3145      2967      2964      3141      3142
      2967      2964      3141      3146      2967      2968      2971      2970
      2967      2968      2971      2972      2967      2968      3145      3146
      2967      2968      3145      3150      2968      2971      2972      2975
      2968      2971      2972      3149      2968      3145      3146      3141
      2968      3145      3146      3147      2968      3145      3150      3149
      2968      3145      3150      3151      2969      2792      2795      2794
      2969      2792      2795      2796      2969      2970      2971      2968
      2969      2970      2971      2972      2969      2974      2975      2972
      2969      2974      2975      2976      2970      2965      2966      2961
      2970      2965      2966      2967      2970      2969      2974      2973
      2970      2969      2974      2975      2970      2971      2972      2975
      2970      2971      2972      3149      2971      2968      3145      3146
      2971      2968      3145      3150      2971      2972      2975      2974
      2971      2972      2975      2976      2971      2972      3149      3154
      2971      2972      3149      3150      2972      2975      2976      2979
      2972      2975      2976      3153      2972      3149      3154      3153
      2972      3149      3154      3155      2972      3149      3150      3145
      2972      3149      3150      3151      2973      2796      2799      2798
      2973      2796      2799      2800      2973      2974      2975      2972
      2973      2974      2975      2976      2973      2978      2979      2976
      2973      2978      2979      2980      2974      2969      2970      2965
      2974      2969      2970      2971      2974      2973      2978      2977
      2974      2973      2978      2979      2974      2975      2976      2979
      2974      2975      2976      3153      2975      2972      3149      3154
      2975      2972      3149      3150      2975      2976      2979      2978
      2975      2976      2979      2980      2975      2976      3153      3158
      2975      2976      3153      3154      2976      2979      2980      2983
      2976      2979      2980      3157      2976      3153      3158      3157
      2976      3153      3158      3159      2976      3153      3154      3149
      2976      3153      3154      3155      2977      2800      2803      2802
      2977      2800      2803      2804      2977      2978      2979      2976
      2977      2978      2979      2980      2977      2982      2983      2980
      2977      2982      2983      2984      2978      2973      2974      2969
      2978      2973      2974      2975      2978      2977      2982      2981
      2978      2977      2982      2983      2978      2979      2980      2983
      2978      2979      2980      3157      2979      2976      3153      3158
      2979      2976      3153      3154      2979      2980      2983      2982
      2979      2980      2983      2984      2979      2980      3157      3162
      2979      2980      3157      3158      2980      2983      2984      2987
      2980      2983      2984      3161      2980      3157      3162      3161
      2980      3157      3162      3163      2980      3157      3158      3153
      2980      3157      3158      3159      2981      2804      2807      2806
      2981      2804      2807      2808      2981      2982      2983      2980
      2981      2982      2983      2984      2981      2986      2987      2984
      2981      2986      2987      2988      2982      2977      2978      2973
      2982      2977      2978      2979      2982      2981      2986      2985
      2982      2981      2986      2987      2982      2983      2984      2987
      2982      2983      2984      3161      2983      2980      3157      3162
      2983      2980      3157      3158      2983      2984      2987      2986
      2983      2984      2987      2988      2983      2984      3161      3162
      2983      2984      3161      3166      2984      2987      2988      2991
      2984      2987      2988      3165      2984      3161      3162      3157
      2984      3161      3162      3163      2984      3161      3166      3165
      2984      3161      3166      3167      2985      2808      2811      2810
      2985      2808      2811      2812      2985      2986      2987      2984
      2985      2986      2987      2988      2985      2990      2991      2988
      2985      2990      2991      2992      2986      2981      2982      2977
      2986      2981      2982      2983      2986      2985      2990      2989
      2986      2985      2990      2991      2986      2987      2988      2991
      2986      2987      2988      3165      2987      2984      3161      3162
      2987      2984      3161      3166      2987      2988      2991      2990
      2987      2988      2991      2992      2987      2988      3165      3166
      2987      2988      3165      3170      2988      2991      2992      2995
      2988      2991      2992      3169      2988      3165      3166      3161
      2988      3165      3166      3167      2988      3165      3170      3169
      2988      3165      3170      3171      2989      2812      2815      2814
      2989      2812      2815      2816      2989      2990      2991      2988
      2989      2990      2991      2992      2989      2994      2995      2992
      2989      2994      2995      2996      2990      2985      2986      2981
      2990      2985      2986      2987      2990      2989      2994      2993
      2990      2989      2994      2995      2990      2991      2992      2995
      2990      2991      2992      3169      2991      2988      3165      3166
      2991      2988      3165      3170      2991      2992      2995      2994
      2991      2992      2995      2996      2991      2992      3169      3174
      2991      2992      3169      3170      2992      2995      2996      2999
      2992      2995      2996      3173      2992      3169      3174      3173
      2992      3169      3174      3175      2992      3169      3170      3165
      2992      3169      3170      3171      2993      2816      2819      2818
      2993      2816      2819      2820      2993      2994      2995      2992
      2993      2994      2995      2996      2993      2998      2999      2996
      2993      2998      2999      3000      2994      2989      2990      2985
      2994      2989      2990      2991      2994      2993      2998      2997
      2994      2993      2998      2999      2994      2995      2996      2999
      2994      2995      2996      3173      2995      2992      3169      3174
      2995      2992      3169      3170      2995      2996      2999      2998
      2995      2996      2999      3000      2995      2996      3173      3178
      2995      2996      3173      3174      2996      2999      3000      3003
      2996      2999      3000      3177      2996      3173      3178      3177
      2996      3173      3178      3179      2996      3173      3174      3169
      2996      3173      3174      3175      2997      2820      2823      2822
      2997      2820      2823      2824      2997      2998      2999      2996
      2997      2998      2999      3000      2997      3002      3003      3000
      2997      3002      3003      3004      2998      2993      2994      2989
      2998      2993      2994      2995      2998      2997      3002      3001
      2998      2997      3002      3003      2998      2999      3000      3003
      2998      2999      3000      3177      2999      2996      3173      3178
      2999      2996      3173      3174      2999      3000      3003      3002
      2999      3000      3003      3004      2999      3000      3177      3182
      2999      3000      3177      3178      3000      3003      3004      3007
      3000      3003      3004      3181      3000      3177      3182      3181
      3000      3177      3182      3183      3000      3177      3178      3173
      3000      3177      3178      3179      3001      2824      2827      2826
      3001      2824      2827      2828      3001      3002      3003      3000
      3001      3002      3003      3004      3001      3006      3007      3004
      3001      3006      3007      3008      3002      2997      2998      2993
      3002      2997      2998      2999      3002      3001      3006      3005
      3002      3001      3006      3007      3002      3003      3004      3007
      3002      3003      3004      3181      3003      3000      3177      3182
      3003      3000      3177      3178      3003      3004      3007      3006
      3003      3004      3007      3008      3003      3004      3181      3182
      3003      3004      3181      3186      3004      3007      3008      3011
      3004      3007      3008      3185      3004      3181      3182      3177
      3004      3181      3182      3183      3004      3181      3186      3185
      3004      3181      3186      3187      3005      2828      2831      2830
      3005      2828      2831      2832      3005      3006      3007      3004
      3005      3006      3007      3008      3005      3010      3011      3008
      3005      3010      3011      3012      3006      3001      3002      2997
      3006      3001      3002      3003      3006      3005      3010      3009
      3006      3005      3010      3011      3006      3007      3008      3011
      3006      3007      3008      3185      3007      3004      3181      3182
      3007      3004      3181      3186      3007      3008      3011      3010
      3007      3008      3011      3012      3007      3008      3185      3186
      3007      3008      3185      3190      3008      3011      3012      3015
      3008      3011      3012      3189      3008      3185      3186      3181
      3008      3185      3186      3187      3008      3185      3190      3189
      3008      3185      3190      3191      3009      2832      2835      2834
      3009      2832      2835      2836      3009      3010      3011      3008
      3009      3010      3011      3012      3009      3014      3015      3012
      3009      3014      3015      3016      3010      3005      3006      3001
      3010      3005      3006      3007      3010      3009      3014      3013
      3010      3009      3014      3015      3010      3011      3012      3015
      3010      3011      3012      3189      3011      3008      3185      3186
      3011      3008      3185      3190      3011      3012      3015      3014
      3011      3012      3015      3016      3011      3012      3189      3194
      3011      3012      3189      3190      3012      3015      3016      3019
      3012      3015      3016      3193      3012      3189      3194      3193
      3012      3189      3194      3195      3012      3189      3190      3185
      3012      3189      3190      3191      3013      2836      2839      2838
      3013      2836      2839      2840      3013      3014      3015      3012
      3013      3014      3015      3016      3013      3018      3019      3016
      3013      3018      3019      3020      3014      3009      3010      3005
      3014      3009      3010      3011      3014      3013      3018      3017
      3014      3013      3018      3019      3014      3015      3016      3019
      3014      3015      3016      3193      3015      3012      3189      3194
      3015      3012      3189      3190      3015      3016      3019      3018
      3015      3016      3019      3020      3015      3016      3193      3198
      3015      3016      3193      3194      3016      3019      3020      3023
      3016      3019      3020      3197      3016      3193      3198      3197
      3016      3193      3198      3199      3016      3193      3194      3189
      3016      3193      3194      3195      3017      2840      2843      2842
      3017      2840      2843      2844      3017      3018      3019      3016
      3017      3018      3019      3020      3017      3022      3023      3020
      3017      3022      3023      3024      3018      3013      3014      3009
      3018      3013      3014      3015      3018      3017      3022      3021
      3018      3017      3022      3023      3018      3019      3020      3023
      3018      3019      3020      3197      3019      3016      3193      3198
      3019      3016      3193      3194      3019      3020      3023      3022
      3019      3020      3023      3024      3019      3020      3197      3202
      3019      3020      3197      3198      3020      3023      3024      3027
      3020      3023      3024      3201      3020      3197      3202      3201
      3020      3197      3202      3203      3020      3197      3198      3193
      3020      3197      3198      3199      3021      2844      2847      2846
      3021      2844      2847      2848      3021      3022      3023      3020
      3021      3022      3023      3024      3021      3026      3027      3024
      3021      3026      3027      3028      3022      3017      3018      3013
      3022      3017      3018      3019      3022      3021      3026      3025
      3022      3021      3026      3027      3022      3023      3024      3027
      3022      3023      3024      3201      3023      3020      3197      3202
      3023      3020      3197      3198      3023      3024      3027      3026
      3023      3024      3027      3028      3023      3024      3201      3202
      3023      3024      3201      3206      3024      3027      3028      3031
      3024      3027      3028      3205      3024      3201      3202      3197
      3024      3201      3202      3203      3024      3201      3206      3205
      3024      3201      3206      3207      3025      2848      2851      2850
      3025      2848      2851      2852      3025      3026      3027      3024
      3025      3026      3027      3028      3025      3030      3031      3028
      3025      3030      3031      3032      3026      3021      3022      3017
      3026      3021      3022      3023      3026      3025      3030      3029
      3026      3025      3030      3031      3026      3027      3028      3031
      3026      3027      3028      3205      3027      3024      3201      3202
      3027      3024      3201      3206      3027      3028      3031      3030
      3027      3028      3031      3032      3027      3028      3205      3206
      3027      3028      3205      3210      3028      3031      3032      3035
      3028      3031      3032      3209      3028      3205      3206      3201
      3028      3205      3206      3207      3028      3205      3210      3209
      3028      3205      3210      3211      3029      2852      2855      2854
      3029      2852      2855      2856      3029      3030      3031      3028
      3029      3030      3031      3032      3029      3034      3035      3032
      3029      3034      3035      3036      3030      3025      3026      3021
      3030      3025      3026      3027      3030      3029      3034      3033
      3030      3029      3034      3035      3030      3031      3032      3035
      3030      3031      3032      3209      3031      3028      3205      3206
      3031      3028      3205      3210      3031      3032      3035      3034
      3031      3032      3035      3036      3031      3032      3209      3214
      3031      3032      3209      3210      3032      3035      3036      3039
      3032      3035      3036      3213      3032      3209      3214      3213
      3032      3209      3214      3215      3032      3209      3210      3205
      3032      3209      3210      3211      3033      2856      2859      2858
      3033      2856      2859      2860      3033      3034      3035      3032
      3033      3034      3035      3036      3033      3038      3039      3036
      3033      3038      3039      3040      3034      3029      3030      3025
      3034      3029      3030      3031      3034      3033      3038      3037
      3034      3033      3038      3039      3034      3035      3036      3039
      3034      3035      3036      3213      3035      3032      3209      3214
      3035      3032      3209      3210      3035      3036      3039      3038
      3035      3036      3039      3040      3035      3036      3213      3218
      3035      3036      3213      3214      3036      3039      3040      3043
      3036      3039      3040      3217      3036      3213      3218      3217
      3036      3213      3218      3219      3036      3213      3214      3209
      3036      3213      3214      3215      3037      2860      2863      2862
      3037      2860      2863      2864      3037      3038      3039      3036
      3037      3038      3039      3040      3037      3042      3043      3040
      3037      3042      3043      3044      3038      3033      3034      3029
      3038      3033      3034      3035      3038      3037      3042      3041
      3038      3037      3042      3043      3038      3039      3040      3043
      3038      3039      3040      3217      3039      3036      3213      3218
      3039      3036      3213      3214      3039      3040      3043      3042
      3039      3040      3043      3044      3039      3040      3217      3222
      3039      3040      3217      3218      3040      3043      3044      3047
      3040      3043      3044      3221      3040      3217      3222      3221
      3040      3217      3222      3223      3040      3217      3218      3213
      3040      3217      3218      3219      3041      2864      2867      2866
      3041      2864      2867      2868      3041      3042      3043      3040
      3041      3042      3043      3044      3041      3046      3047      3044
      3041      3046      3047      3048      3042      3037      3038      3033
      3042      3037      3038      3039      3042      3041      3046      3045
      3042      3041      3046      3047      3042      3043      3044      3047
      3042      3043      3044      3221      3043      3040      3217      3222
      3043      3040      3217      3218      3043      3044      3047      3046
      3043      3044      3047      3048      3043      3044      3221      3222
      3043      3044      3221      3226      3044      3047      3048      3051
      3044      3047      3048      3225      3044      3221      3222      3217
      3044      3221      3222      3223      3044      3221      3226      3225
      3044      3221      3226      3227      3045      2868      2871      2870
      3045      2868      2871      2872      3045      3046      3047      3044
      3045      3046      3047      3048      3045      3050      3051      3048
      3045      3050      3051      3052      3046      3041      3042      3037
      3046      3041      3042      3043      3046      3045      3050      3049
      3046      3045      3050      3051      3046      3047      3048      3051
      3046      3047      3048      3225      3047      3044      3221      3222
      3047      3044      3221      3226      3047      3048      3051      3050
      3047      3048      3051      3052      3047      3048      3225      3226
      3047      3048      3225      3230      3048      3051      3052      3055
      3048      3051      3052      3229      3048      3225      3226      3221
      3048      3225      3226      3227      3048      3225      3230      3229
      3048      3225      3230      3231      3049      2872      2875      2874
      3049      2872      2875      2876      3049      3050      3051      3048
      3049      3050      3051      3052      3049      3054      3055      3052
      3049      3054      3055      3056      3050      3045      3046      3041
      3050      3045      3046      3047      3050      3049      3054      3053
      3050      3049      3054      3055      3050      3051      3052      3055
      3050      3051      3052      3229      3051      3048      3225      3226
      3051      3048      3225      3230      3051      3052      3055      3054
      3051      3052      3055      3056      3051      3052      3229      3234
      3051      3052      3229      3230      3052      3055      3056      3059
      3052      3055      3056      3233      3052      3229      3234      3233
      3052      3229      3234      3235      3052      3229      3230      3225
      3052      3229      3230      3231      3053      2876      2879      2878
      3053      2876      2879      2880      3053      3054      3055      3052
      3053      3054      3055      3056      3053      3058      3059      3056
      3053      3058      3059      3060      3054      3049      3050      3045
      3054      3049      3050      3051      3054      3053      3058      3057
      3054      3053      3058      3059      3054      3055      3056      3059
      3054      3055      3056      3233      3055      3052      3229      3234
      3055      3052      3229      3230      3055      3056      3059      3058
      3055      3056      3059      3060      3055      3056      3233      3238
      3055      3056      3233      3234      3056      3059      3060      3237
      3056      3233      3238      3237      3056      3233      3238      3239
      3056      3233      3234      3229      3056      3233      3234      3235
      3057      3058      3059      3056      3057      3058      3059      3060
      3058      3053      3054      3049      3058      3053      3054      3055
      3058      3059      3060      3237      3059      3056      3233      3238
      3059      3056      3233      3234      3059      3060      3237      3238
      3060      3237      3238      3233      3060      3237      3238      3239
      3061      2884      2887      2886      3061      2884      2887      2888
      3061      3062      3063      3064      3061      3066      3067      3064
      3061      3066      3067      3068      3062      3061      3066      3065
      3062      3061      3066      3067      3062      3063      3064      3067
      3062      3063      3064      3241      3063      3064      3067      3066
      3063      3064      3067      3068      3063      3064      3241      3242
      3063      3064      3241      3246      3064      3067      3068      3071
      3064      3067      3068      3245      3064      3241      3242      3243
      3064      3241      3246      3245      3064      3241      3246      3247
      3065      2888      2891      2890      3065      2888      2891      2892
      3065      3066      3067      3064      3065      3066      3067      3068
      3065      3070      3071      3068      3065      3070      3071      3072
      3066      3061      3062      3063      3066      3065      3070      3069
      3066      3065      3070      3071      3066      3067      3068      3071
      3066      3067      3068      3245      3067      3064      3241      3242
      3067      3064      3241      3246      3067      3068      3071      3070
      3067      3068      3071      3072      3067      3068      3245      3246
      3067      3068      3245      3250      3068      3071      3072      3075
      3068      3071      3072      3249      3068      3245      3246      3241
      3068      3245      3246      3247      3068      3245      3250      3249
      3068      3245      3250      3251      3069      2892      2895      2894
      3069      2892      2895      2896      3069      3070      3071      3068
      3069      3070      3071      3072      3069      3074      3075      3072
      3069      3074      3075      3076      3070      3065      3066      3061
      3070      3065      3066      3067      3070      3069      3074      3073
      3070      3069      3074      3075      3070      3071      3072      3075
      3070      3071      3072      3249      3071      3068      3245      3246
      3071      3068      3245      3250      3071      3072      3075      3074
      3071      3072      3075      3076      3071      3072      3249      3254
      3071      3072      3249      3250      3072      3075      3076      3079
      3072      3075      3076      3253      3072      3249      3254      3253
      3072      3249      3254      3255      3072      3249      3250      3245
      3072      3249      3250      3251      3073      2896      2899      2898
      3073      2896      2899      2900      3073      3074      3075      3072
      3073      3074      3075      3076      3073      3078      3079      3076
      3073      3078      3079      3080      3074      3069      3070      3065
      3074      3069      3070      3071      3074      3073      3078      3077
      3074      3073      3078      3079      3074      3075      3076      3079
      3074      3075      3076      3253      3075      3072      3249      3254
      3075      3072      3249      3250      3075      3076      3079      3078
      3075      3076      3079      3080      3075      3076      3253      3258
      3075      3076      3253      3254      3076      3079      3080      3083
      3076      3079      3080      3257      3076      3253      3258      3257
      3076      3253      3258      3259      3076      3253      3254      3249
      3076      3253      3254      3255      3077      2900      2903      2902
      3077      2900      2903      2904      3077      3078      3079      3076
      3077      3078      3079      3080      3077      3082      3083      3080
      3077      3082      3083      3084      3078      3073      3074      3069
      3078      3073      3074      3075      3078      3077      3082      3081
      3078      3077      3082      3083      3078      3079      3080      3083
      3078      3079      3080      3257      3079      3076      3253      3258
      3079      3076      3253      3254      3079      3080      3083      3082
      3079      3080      3083      3084      3079      3080      3257      3262
      3079      3080      3257      3258      3080      3083      3084      3087
      3080      3083      3084      3261      3080      3257      3262      3261
      3080      3257      3262      3263      3080      3257      3258      3253
      3080      3257      3258      3259      3081      2904      2907      2906
      3081      2904      2907      2908      3081      3082      3083      3080
      3081      3082      3083      3084      3081      3086      3087      3084
      3081      3086      3087      3088      3082      3077      3078      3073
      3082      3077      3078      3079      3082      3081      3086      3085
      3082      3081      3086      3087      3082      3083      3084      3087
      3082      3083      3084      3261      3083      3080      3257      3262
      3083      3080      3257      3258      3083      3084      3087      3086
      3083      3084      3087      3088      3083      3084      3261      3262
      3083      3084      3261      3266      3084      3087      3088      3091
      3084      3087      3088      3265      3084      3261      3262      3257
      3084      3261      3262      3263      3084      3261      3266      3265
      3084      3261      3266      3267      3085      2908      2911      2910
      3085      2908      2911      2912      3085      3086      3087      3084
      3085      3086      3087      3088      3085      3090      3091      3088
      3085      3090      3091      3092      3086      3081      3082      3077
      3086      3081      3082      3083      3086      3085      3090      3089
      3086      3085      3090      3091      3086      3087      3088      3091
      3086      3087      3088      3265      3087      3084      3261      3262
      3087      3084      3261      3266      3087      3088      3091      3090
      3087      3088      3091      3092      3087      3088      3265      3266
      3087      3088      3265      3270      3088      3091      3092      3095
      3088      3091      3092      3269      3088      3265      3266      3261
      3088      3265      3266      3267      3088      3265      3270      3269
      3088      3265      3270      3271      3089      2912      2915      2914
      3089      2912      2915      2916      3089      3090      3091      3088
      3089      3090      3091      3092      3089      3094      3095      3092
      3089      3094      3095      3096      3090      3085      3086      3081
      3090      3085      3086      3087      3090      3089      3094      3093
      3090      3089      3094      3095      3090      3091      3092      3095
      3090      3091      3092      3269      3091      3088      3265      3266
      3091      3088      3265      3270      3091      3092      3095      3094
      3091      3092      3095      3096      3091      3092      3269      3274
      3091      3092      3269      3270      3092      3095      3096      3099
      3092      3095      3096      3273      3092      3269      3274      3273
      3092      3269      3274      3275      3092      3269      3270      3265
      3092      3269      3270      3271      3093      2916      2919      2918
      3093      2916      2919      2920      3093      3094      3095      3092
      3093      3094      3095      3096      3093      3098      3099      3096
      3093      3098      3099      3100      3094      3089      3090      3085
      3094      3089      3090      3091      3094      3093      3098      3097
      3094      3093      3098      3099      3094      3095      3096      3099
      3094      3095      3096      3273      3095      3092      3269      3274
      3095      3092      3269      3270      3095      3096      3099      3098
      3095      3096      3099      3100      3095      3096      3273      3278
      3095      3096      3273      3274      3096      3099      3100      3103
      3096      3099      3100      3277      3096      3273      3278      3277
      3096      3273      3278      3279      3096      3273      3274      3269
      3096      3273      3274      3275      3097      2920      2923      2922
      3097      2920      2923      2924      3097      3098      3099      3096
      3097      3098      3099      3100      3097      3102      3103      3100
      3097      3102      3103      3104      3098      3093      3094      3089
      3098      3093      3094      3095      3098      3097      3102      3101
      3098      3097      3102      3103      3098      3099      3100      3103
      3098      3099      3100      3277      3099      3096      3273      3278
      3099      3096      3273      3274      3099      3100      3103      3102
      3099      3100      3103      3104      3099      3100      3277      3282
      3099      3100      3277      3278      3100      3103      3104      3107
      3100      3103      3104      3281      3100      3277      3282      3281
      3100      3277      3282      3283      3100      3277      3278      3273
      3100      3277      3278      3279      3101      2924      2927      2926
      3101      2924      2927      2928      3101      3102      3103      3100
      3101      3102      3103      3104      3101      3106      3107      3104
      3101      3106      3107      3108      3102      3097      3098      3093
      3102      3097      3098      3099      3102      3101      3106      3105
      3102      3101      3106      3107      3102      3103      3104      3107
      3102      3103      3104      3281      3103      3100      3277      3282
      3103      3100      3277      3278      3103      3104      3107      3106
      3103      3104      3107      3108      3103      3104      3281      3282
      3103      3104      3281      3286      3104      3107      3108      3111
      3104      3107      3108      3285      3104      3281      3282      3277
      3104      3281      3282      3283      3104      3281      3286      3285
      3104      3281      3286      3287      3105      2928      2931      2930
      3105      2928      2931      2932      3105      3106      3107      3104
      3105      3106      3107      3108      3105      3110      3111      3108
      3105      3110      3111      3112      3106      3101      3102      3097
      3106      3101      3102      3103      3106      3105      3110      3109
      3106      3105      3110      3111      3106      3107      3108      3111
      3106      3107      3108      3285      3107      3104      3281      3282
      3107      3104      3281      3286      3107      3108      3111      3110
      3107      3108      3111      3112      3107      3108      3285      3286
      3107      3108      3285      3290      3108      3111      3112      3115
      3108      3111      3112      3289      3108      3285      3286      3281
      3108      3285      3286      3287      3108      3285      3290      3289
      3108      3285      3290      3291      3109      2932      2935      2934
      3109      2932      2935      2936      3109      3110      3111      3108
      3109      3110      3111      3112      3109      3114      3115      3112
      3109      3114      3115      3116      3110      3105      3106      3101
      3110      3105      3106      3107      3110      3109      3114      3113
      3110      3109      3114      3115      3110      3111      3112      3115
      3110      3111      3112      3289      3111      3108      3285      3286
      3111      3108      3285      3290      3111      3112      3115      3114
      3111      3112      3115      3116      3111      3112      3289      3294
      3111      3112      3289      3290      3112      3115      3116      3119
      3112      3115      3116      3293      3112      3289      3294      3293
      3112      3289      3294      3295      3112      3289      3290      3285
      3112      3289      3290      3291      3113      2936      2939      2938
      3113      2936      2939      2940      3113      3114      3115      3112
      3113      3114      3115      3116      3113      3118      3119      3116
      3113      3118      3119      3120      3114      3109      3110      3105
      3114      3109      3110      3111      3114      3113      3118      3117
      3114      3113      3118      3119      3114      3115      3116      3119
      3114      3115      3116      3293      3115      3112      3289      3294
      3115      3112      3289      3290      3115      3116      3119      3118
      3115      3116      3119      3120      3115      3116      3293      3298
      3115      3116      3293      3294      3116      3119      3120      3123
      3116      3119      3120      3297      3116      3293      3298      3297
      3116      3293      3298      3299      3116      3293      3294      3289
      3116      3293      3294      3295      3117      2940      2943      2942
      3117      2940      2943      2944      3117      3118      3119      3116
      3117      3118      3119      3120      3117      3122      3123      3120
      3117      3122      3123      3124      3118      3113      3114      3109
      3118      3113      3114      3115      3118      3117      3122      3121
      3118      3117      3122      3123      3118      3119      3120      3123
      3118      3119      3120      3297      3119      3116      3293      3298
      3119      3116      3293      3294      3119      3120      3123      3122
      3119      3120      3123      3124      3119      3120      3297      3302
      3119      3120      3297      3298      3120      3123      3124      3127
      3120      3123      3124      3301      3120      3297      3302      3301
      3120      3297      3302      3303      3120      3297      3298      3293
      3120      3297      3298      3299      3121      2944      2947      2946
      3121      2944      2947      2948      3121      3122      3123      3120
      3121      3122      3123      3124      3121      3126      3127      3124
      3121      3126      3127      3128      3122      3117      3118      3113
      3122      3117      3118      3119      3122      3121      3126      3125
      3122      3121      3126      3127      3122      3123      3124      3127
      3122      3123      3124      3301      3123      3120      3297      3302
      3123      3120      3297      3298      3123      3124      3127      3126
      3123      3124      3127      3128      3123      3124      3301      3302
      3123      3124      3301      3306      3124      3127      3128      3131
      3124      3127      3128      3305      3124      3301      3302      3297
      3124      3301      3302      3303      3124      3301      3306      3305
      3124      3301      3306      3307      3125      2948      2951      2950
      3125      2948      2951      2952      3125      3126      3127      3124
      3125      3126      3127      3128      3125      3130      3131      3128
      3125      3130      3131      3132      3126      3121      3122      3117
      3126      3121      3122      3123      3126      3125      3130      3129
      3126      3125      3130      3131      3126      3127      3128      3131
      3126      3127      3128      3305      3127      3124      3301      3302
      3127      3124      3301      3306      3127      3128      3131      3130
      3127      3128      3131      3132      3127      3128      3305      3306
      3127      3128      3305      3310      3128      3131      3132      3135
      3128      3131      3132      3309      3128      3305      3306      3301
      3128      3305      3306      3307      3128      3305      3310      3309
      3128      3305      3310      3311      3129      2952      2955      2954
      3129      2952      2955      2956      3129      3130      3131      3128
      3129      3130      3131      3132      3129      3134      3135      3132
      3129      3134      3135      3136      3130      3125      3126      3121
      3130      3125      3126      3127      3130      3129      3134      3133
      3130      3129      3134      3135      3130      3131      3132      3135
      3130      3131      3132      3309      3131      3128      3305      3306
      3131      3128      3305      3310      3131      3132      3135      3134
      3131      3132      3135      3136      3131      3132      3309      3314
      3131      3132      3309      3310      3132      3135      3136      3139
      3132      3135      3136      3313      3132      3309      3314      3313
      3132      3309      3314      3315      3132      3309      3310      3305
      3132      3309      3310      3311      3133      2956      2959      2958
      3133      2956      2959      2960      3133      3134      3135      3132
      3133      3134      3135      3136      3133      3138      3139      3136
      3133      3138      3139      3140      3134      3129      3130      3125
      3134      3129      3130      3131      3134      3133      3138      3137
      3134      3133      3138      3139      3134      3135      3136      3139
      3134      3135      3136      3313      3135      3132      3309      3314
      3135      3132      3309      3310      3135      3136      3139      3138
      3135      3136      3139      3140      3135      3136      3313      3314
      3135      3136      3313      3318      3136      3139      3140      3143
      3136      3139      3140      3317      3136      3313      3314      3309
      3136      3313      3314      3315      3136      3313      3318      3317
      3136      3313      3318      3319      3137      2960      2963      2962
      3137      2960      2963      2964      3137      3138      3139      3136
      3137      3138      3139      3140      3137      3142      3143      3140
      3137      3142      3143      3144      3138      3133      3134      3129
      3138      3133      3134      3135      3138      3137      3142      3141
      3138      3137      3142      3143      3138      3139      3140      3143
      3138      3139      3140      3317      3139      3136      3313      3314
      3139      3136      3313      3318      3139      3140      3143      3142
      3139      3140      3143      3144      3139      3140      3317      3322
      3139      3140      3317      3318      3140      3143      3144      3147
      3140      3143      3144      3321      3140      3317      3322      3321
      3140      3317      3322      3323      3140      3317      3318      3313
      3140      3317      3318      3319      3141      2964      2967      2966
      3141      2964      2967      2968      3141      3142      3143      3140
      3141      3142      3143      3144      3141      3146      3147      3144
      3141      3146      3147      3148      3142      3137      3138      3133
      3142      3137      3138      3139      3142      3141      3146      3145
      3142      3141      3146      3147      3142      3143      3144      3147
      3142      3143      3144      3321      3143      3140      3317      3322
      3143      3140      3317      3318      3143      3144      3147      3146
      3143      3144      3147      3148      3143      3144      3321      3322
      3143      3144      3321      3326      3144      3147      3148      3151
      3144      3147      3148      3325      3144      3321      3322      3317
      3144      3321      3322      3323      3144      3321      3326      3325
      3144      3321      3326      3327      3145      2968      2971      2970
      3145      2968      2971      2972      3145      3146      3147      3144
      3145      3146      3147      3148      3145      3150      3151      3148
      3145      3150      3151      3152      3146      3141      3142      3137
      3146      3141      3142      3143      3146      3145      3150      3149
      3146      3145      3150      3151      3146      3147      3148      3151
      3146      3147      3148      3325      3147      3144      3321      3322
      3147      3144      3321      3326      3147      3148      3151      3150
      3147      3148      3151      3152      3147      3148      3325      3326
      3147      3148      3325      3330      3148      3151      3152      3155
      3148      3151      3152      3329      3148      3325      3326      3321
      3148      3325      3326      3327      3148      3325      3330      3329
      3148      3325      3330      3331      3149      2972      2975      2974
      3149      2972      2975      2976      3149      3150      3151      3148
      3149      3150      3151      3152      3149      3154      3155      3152
      3149      3154      3155      3156      3150      3145      3146      3141
      3150      3145      3146      3147      3150      3149      3154      3153
      3150      3149      3154      3155      3150      3151      3152      3155
      3150      3151      3152      3329      3151      3148      3325      3326
      3151      3148      3325      3330      3151      3152      3155      3154
      3151      3152      3155      3156      3151      3152      3329      3334
      3151      3152      3329      3330      3152      3155      3156      3159
      3152      3155      3156      3333      3152      3329      3334      3333
      3152      3329      3334      3335      3152      3329      3330      3325
      3152      3329      3330      3331      3153      2976      2979      2978
      3153      2976      2979      2980      3153      3154      3155      3152
      3153      3154      3155      3156      3153      3158      3159      3156
      3153      3158      3159      3160      3154      3149      3150      3145
      3154      3149      3150      3151      3154      3153      3158      3157
      3154      3153      3158      3159      3154      3155      3156      3159
      3154      3155      3156      3333      3155      3152      3329      3334
      3155      3152      3329      3330      3155      3156      3159      3158
      3155      3156      3159      3160      3155      3156      3333      3338
      3155      3156      3333      3334      3156      3159      3160      3163
      3156      3159      3160      3337      3156      3333      3338      3337
      3156      3333      3338      3339      3156      3333      3334      3329
      3156      3333      3334      3335      3157      2980      2983      2982
      3157      2980      2983      2984      3157      3158      3159      3156
      3157      3158      3159      3160      3157      3162      3163      3160
      3157      3162      3163      3164      3158      3153      3154      3149
      3158      3153      3154      3155      3158      3157      3162      3161
      3158      3157      3162      3163      3158      3159      3160      3163
      3158      3159      3160      3337      3159      3156      3333      3338
      3159      3156      3333      3334      3159      3160      3163      3162
      3159      3160      3163      3164      3159      3160      3337      3342
      3159      3160      3337      3338      3160      3163      3164      3167
      3160      3163      3164      3341      3160      3337      3342      3341
      3160      3337      3342      3343      3160      3337      3338      3333
      3160      3337      3338      3339      3161      2984      2987      2986
      3161      2984      2987      2988      3161      3162      3163      3160
      3161      3162      3163      3164      3161      3166      3167      3164
      3161      3166      3167      3168      3162      3157      3158      3153
      3162      3157      3158      3159      3162      3161      3166      3165
      3162      3161      3166      3167      3162      3163      3164      3167
      3162      3163      3164      3341      3163      3160      3337      3342
      3163      3160      3337      3338      3163      3164      3167      3166
      3163      3164      3167      3168      3163      3164      3341      3342
      3163      3164      3341      3346      3164      3167      3168      3171
      3164      3167      3168      3345      3164      3341      3342      3337
      3164      3341      3342      3343      3164      3341      3346      3345
      3164      3341      3346      3347      3165      2988      2991      2990
      3165      2988      2991      2992      3165      3166      3167      3164
      3165      3166      3167      3168      3165      3170      3171      3168
      3165      3170      3171      3172      3166      3161      3162      3157
      3166      3161      3162      3163      3166      3165      3170      3169
      3166      3165      3170      3171      3166      3167      3168      3171
      3166      3167      3168      3345      3167      3164      3341      3342
      3167      3164      3341      3346      3167      3168      3171      3170
      3167      3168      3171      3172      3167      3168      3345      3346
      3167      3168      3345      3350      3168      3171      3172      3175
      3168      3171      3172      3349      3168      3345      3346      3341
      3168      3345      3346      3347      3168      3345      3350      3349
      3168      3345      3350      3351      3169      2992      2995      2994
      3169      2992      2995      2996      3169      3170      3171      3168
      3169      3170      3171      3172      3169      3174      3175      3172
      3169      3174      3175      3176      3170      3165      3166      3161
      3170      3165      3166      3167      3170      3169      3174      3173
      3170      3169      3174      3175      3170      3171      3172      3175
      3170      3171      3172      3349      3171      3168      3345      3346
      3171      3168      3345      3350      3171      3172      3175      3174
      3171      3172      3175      3176      3171      3172      3349      3354
      3171      3172      3349      3350      3172      3175      3176      3179
      3172      3175      3176      3353      3172      3349      3354      3353
      3172      3349      3354      3355      3172      3349      3350      3345
      3172      3349      3350      3351      3173      2996      2999      2998
      3173      2996      2999      3000      3173      3174      3175      3172
      3173      3174      3175      3176      3173      3178      3179      3176
      3173      3178      3179      3180      3174      3169      3170      3165
      3174      3169      3170      3171      3174      3173      3178      3177
      3174      3173      3178      3179      3174      3175      3176      3179
      3174      3175      3176      3353      3175      3172      3349      3354
      3175      3172      3349      3350      3175      3176      3179      3178
      3175      3176      3179      3180      3175      3176      3353      3358
      3175      3176      3353      3354      3176      3179      3180      3183
      3176      3179      3180      3357      3176      3353      3358      3357
      3176      3353      3358      3359      3176      3353      3354      3349
      3176      3353      3354      3355      3177      3000      3003      3002
      3177      3000      3003      3004      3177      3178      3179      3176
      3177      3178      3179      3180      3177      3182      3183      3180
      3177      3182      3183      3184      3178      3173      3174      3169
      3178      3173      3174      3175      3178      3177      3182      3181
      3178      3177      3182      3183      3178      3179      3180      3183
      3178      3179      3180      3357      3179      3176      3353      3358
      3179      3176      3353      3354      3179      3180      3183      3182
      3179      3180      3183      3184      3179      3180      3357      3362
      3179      3180      3357      3358      3180      3183      3184      3187
      3180      3183      3184      3361      3180      3357      3362      3361
      3180      3357      3362      3363      3180      3357      3358      3353
      3180      3357      3358      3359      3181      3004      3007      3006
      3181      3004      3007      3008      3181      3182      3183      3180
      3181      3182      3183      3184      3181      3186      3187      3184
      3181      3186      3187      3188      3182      3177      3178      3173
      3182      3177      3178      3179      3182      3181      3186      3185
      3182      3181      3186      3187      3182      3183      3184      3187
      3182      3183      3184      3361      3183      3180      3357      3362
      3183      3180      3357      3358      3183      3184      3187      3186
      3183      3184      3187      3188      3183      3184      3361      3362
      3183      3184      3361      3366      3184      3187      3188      3191
      3184      3187      3188      3365      3184      3361      3362      3357
      3184      3361      3362      3363      3184      3361      3366      3365
      3184      3361      3366      3367      3185      3008      3011      3010
      3185      3008      3011      3012      3185      3186      3187      3184
      3185      3186      3187      3188      3185      3190      3191      3188
      3185      3190      3191      3192      3186      3181      3182      3177
      3186      3181      3182      3183      3186      3185      3190      3189
      3186      3185      3190      3191      3186      3187      3188      3191
      3186      3187      3188      3365      3187      3184      3361      3362
      3187      3184      3361      3366      3187      3188      3191      3190
      3187      3188      3191      3192      3187      3188      3365      3366
      3187      3188      3365      3370      3188      3191      3192      3195
      3188      3191      3192      3369      3188      3365      3366      3361
      3188      3365      3366      3367      3188      3365      3370      3369
      3188      3365      3370      3371      3189      3012      3015      3014
      3189      3012      3015      3016      3189      3190      3191      3188
      3189      3190      3191      3192      3189      3194      3195      3192
      3189      3194      3195      3196      3190      3185      3186      3181
      3190      3185      3186      3187      3190      3189      3194      3193
      3190      3189      3194      3195      3190      3191      3192      3195
      3190      3191      3192      3369      3191      3188      3365      3366
      3191      3188      3365      3370      3191      3192      3195      3194
      3191      3192      3195      3196      3191      3192      3369      3374
      3191      3192      3369      3370      3192      3195      3196      3199
      3192      3195      3196      3373      3192      3369      3374      3373
      3192      3369      3374      3375      3192      3369      3370      3365
      3192      3369      3370      3371      3193      3016      3019      3018
      3193      3016      3019      3020      3193      3194      3195      3192
      3193      3194      3195      3196      3193      3198      3199      3196
      3193      3198      3199      3200      3194      3189      3190      3185
      3194      3189      3190      3191      3194      3193      3198      3197
      3194      3193      3198      3199      3194      3195      3196      3199
      3194      3195      3196      3373      3195      3192      3369      3374
      3195      3192      3369      3370      3195      3196      3199      3198
      3195      3196      3199      3200      3195      3196      3373      3378
      3195      3196      3373      3374      3196      3199      3200      3203
      3196      3199      3200      3377      3196      3373      3378      3377
      3196      3373      3378      3379      3196      3373      3374      3369
      3196      3373      3374      3375      3197      3020      3023      3022
      3197      3020      3023      3024      3197      3198      3199      3196
      3197      3198      3199      3200      3197      3202      3203      3200
      3197      3202      3203      3204      3198      3193      3194      3189
      3198      3193      3194      3195      3198      3197      3202      3201
      3198      3197      3202      3203      3198      3199      3200      3203
      3198      3199      3200      3377      3199      3196      3373      3378
      3199      3196      3373      3374      3199      3200      3203      3202
      3199      3200      3203      3204      3199      3200      3377      3382
      3199      3200      3377      3378      3200      3203      3204      3207
      3200      3203      3204      3381      3200      3377      3382      3381
      3200      3377      3382      3383      3200      3377      3378      3373
      3200      3377      3378      3379      3201      3024      3027      3026
      3201      3024      3027      3028      3201      3202      3203      3200
      3201      3202      3203      3204      3201      3206      3207      3204
      3201      3206      3207      3208      3202      3197      3198      3193
      3202      3197      3198      3199      3202      3201      3206      3205
      3202      3201      3206      3207      3202      3203      3204      3207
      3202      3203      3204      3381      3203      3200      3377      3382
      3203      3200      3377      3378      3203      3204      3207      3206
      3203      3204      3207      3208      3203      3204      3381      3382
      3203      3204      3381      3386      3204      3207      3208      3211
      3204      3207      3208      3385      3204      3381      3382      3377
      3204      3381      3382      3383      3204      3381      3386      3385
      3204      3381      3386      3387      3205      3028      3031      3030
      3205      3028      3031      3032      3205      3206      3207      3204
      3205      3206      3207      3208      3205      3210      3211      3208
      3205      3210      3211      3212      3206      3201      3202      3197
      3206      3201      3202      3203      3206      3205      3210      3209
      3206      3205      3210      3211      3206      3207      3208      3211
      3206      3207      3208      3385      3207      3204      3381      3382
      3207      3204      3381      3386      3207      3208      3211      3210
      3207      3208      3211      3212      3207      3208      3385      3386
      3207      3208      3385      3390      3208      3211      3212      3215
      3208      3211      3212      3389      3208      3385      3386      3381
      3208      3385      3386      3387      3208      3385      3390      3389
      3208      3385      3390      3391      3209      3032      3035      3034
      3209      3032      3035      3036      3209      3210      3211      3208
      3209      3210      3211      3212      3209      3214      3215      3212
      3209      3214      3215      3216      3210      3205      3206      3201
      3210      3205      3206      3207      3210      3209      3214      3213
      3210      3209      3214      3215      3210      3211      3212      3215
      3210      3211      3212      3389      3211      3208      3385      3386
      3211      3208      3385      3390      3211      3212      3215      3214
      3211      3212      3215      3216      3211      3212      3389      3394
      3211      3212      3389      3390      3212      3215      3216      3219
      3212      3215      3216      3393      3212      3389      3394      3393
      3212      3389      3394      3395      3212      3389      3390      3385
      3212      3389      3390      3391      3213      3036      3039      3038
      3213      3036      3039      3040      3213      3214      3215      3212
      3213      3214      3215      3216      3213      3218      3219      3216
      3213      3218      3219      3220      3214      3209      3210      3205
      3214      3209      3210      3211      3214      3213      3218      3217
      3214      3213      3218      3219      3214      3215      3216      3219
      3214      3215      3216      3393      3215      3212      3389      3394
      3215      3212      3389      3390      3215      3216      3219      3218
      3215      3216      3219      3220      3215      3216      3393      3398
      3215      3216      3393      3394      3216      3219      3220      3223
      3216      3219      3220      3397      3216      3393      3398      3397
      3216      3393      3398      3399      3216      3393      3394      3389
      3216      3393      3394      3395      3217      3040      3043      3042
      3217      3040      3043      3044      3217      3218      3219      3216
      3217      3218      3219      3220      3217      3222      3223      3220
      3217      3222      3223      3224      3218      3213      3214      3209
      3218      3213      3214      3215      3218      3217      3222      3221
      3218      3217      3222      3223      3218      3219      3220      3223
      3218      3219      3220      3397      3219      3216      3393      3398
      3219      3216      3393      3394      3219      3220      3223      3222
      3219      3220      3223      3224      3219      3220      3397      3402
      3219      3220      3397      3398      3220      3223      3224      3227
      3220      3223      3224      3401      3220      3397      3402      3401
      3220      3397      3402      3403      3220      3397      3398      3393
      3220      3397      3398      3399      3221      3044      3047      3046
      3221      3044      3047      3048      3221      3222      3223      3220
      3221      3222      3223      3224      3221      3226      3227      3224
      3221      3226      3227      3228      3222      3217      3218      3213
      3222      3217      3218      3219      3222      3221      3226      3225
      3222      3221      3226      3227      3222      3223      3224      3227
      3222      3223      3224      3401      3223      3220      3397      3402
      3223      3220      3397      3398      3223      3224      3227      3226
      3223      3224      3227      3228      3223      3224      3401      3402
      3223      3224      3401      3406      3224      3227      3228      3231
      3224      3227      3228      3405      3224      3401      3402      3397
      3224      3401      3402      3403      3224      3401      3406      3405
      3224      3401      3406      3407      3225      3048      3051      3050
      3225      3048      3051      3052      3225      3226      3227      3224
      3225      3226      3227      3228      3225      3230      3231      3228
      3225      3230      3231      3232      3226      3221      3222      3217
      3226      3221      3222      3223      3226      3225      3230      3229
      3226      3225      3230      3231      3226      3227      3228      3231
      3226      3227      3228      3405      3227      3224      3401      3402
      3227      3224      3401      3406      3227      3228      3231      3230
      3227      3228      3231      3232      3227      3228      3405      3406
      3227      3228      3405      3410      3228      3231      3232      3235
      3228      3231      3232      3409      3228      3405      3406      3401
      3228      3405      3406      3407      3228      3405      3410      3409
      3228      3405      3410      3411      3229      3052      3055      3054
      3229      3052      3055      3056      3229      3230      3231      3228
      3229      3230      3231      3232      3229      3234      3235      3232
      3229      3234      3235      3236      3230      3225      3226      3221
      3230      3225      3226      3227      3230      3229      3234      3233
      3230      3229      3234      3235      3230      3231      3232      3235
      3230      3231      3232      3409      3231      3228      3405      3406
      3231      3228      3405      3410      3231      3232      3235      3234
      3231      3232      3235      3236      3231      3232      3409      3414
      3231      3232      3409      3410      3232      3235      3236      3239
      3232      3235      3236      3413      3232      3409      3414      3413
      3232      3409      3414      3415      3232      3409      3410      3405
      3232      3409      3410      3411      3233      3056      3059      3058
      3233      3056      3059      3060      3233      3234      3235      3232
      3233      3234      3235      3236      3233      3238      3239      3236
      3233      3238      3239      3240      3234      3229      3230      3225
      3234      3229      3230      3231      3234      3233      3238      3237
      3234      3233      3238      3239      3234      3235      3236      3239
      3234      3235      3236      3413      3235      3232      3409      3414
      3235      3232      3409      3410      3235      3236      3239      3238
      3235      3236      3239      3240      3235      3236      3413      3418
      3235      3236      3413      3414      3236      3239      3240      3417
      3236      3413      3418      3417      3236      3413      3418      3419
      3236      3413      3414      3409      3236      3413      3414      3415
      3237      3238      3239      3236      3237      3238      3239      3240
      3238      3233      3234      3229      3238      3233      3234      3235
      3238      3239      3240      3417      3239      3236      3413      3418
      3239      3236      3413      3414      3239      3240      3417      3418
      3240      3417      3418      3413      3240      3417      3418      3419
      3241      3064      3067      3066      3241      3064      3067      3068
      3241      3242      3243      3244      3241      3246      3247      3244
      3241      3246      3247      3248      3242      3241      3246      3245
      3242      3241      3246      3247      3242      3243      3244      3247
      3242      3243      3244      3421      3243      3244      3247      3246
      3243      3244      3247      3248      3243      3244      3421      3422
      3243      3244      3421      3426      3244      3247      3248      3251
      3244      3247      3248      3425      3244      3421      3422      3423
      3244      3421      3426      3425      3244      3421      3426      3427
      3245      3068      3071      3070      3245      3068      3071      3072
      3245      3246      3247      3244      3245      3246      3247      3248
      3245      3250      3251      3248      3245      3250      3251      3252
      3246      3241      3242      3243      3246      3245      3250      3249
      3246      3245      3250      3251      3246      3247      3248      3251
      3246      3247      3248      3425      3247      3244      3421      3422
      3247      3244      3421      3426      3247      3248      3251      3250
      3247      3248      3251      3252      3247      3248      3425      3426
      3247      3248      3425      3430      3248      3251      3252      3255
      3248      3251      3252      3429      3248      3425      3426      3421
      3248      3425      3426      3427      3248      3425      3430      3429
      3248      3425      3430      3431      3249      3072      3075      3074
      3249      3072      3075      3076      3249      3250      3251      3248
      3249      3250      3251      3252      3249      3254      3255      3252
      3249      3254      3255      3256      3250      3245      3246      3241
      3250      3245      3246      3247      3250      3249      3254      3253
      3250      3249      3254      3255      3250      3251      3252      3255
      3250      3251      3252      3429      3251      3248      3425      3426
      3251      3248      3425      3430      3251      3252      3255      3254
      3251      3252      3255      3256      3251      3252      3429      3434
      3251      3252      3429      3430      3252      3255      3256      3259
      3252      3255      3256      3433      3252      3429      3434      3433
      3252      3429      3434      3435      3252      3429      3430      3425
      3252      3429      3430      3431      3253      3076      3079      3078
      3253      3076      3079      3080      3253      3254      3255      3252
      3253      3254      3255      3256      3253      3258      3259      3256
      3253      3258      3259      3260      3254      3249      3250      3245
      3254      3249      3250      3251      3254      3253      3258      3257
      3254      3253      3258      3259      3254      3255      3256      3259
      3254      3255      3256      3433      3255      3252      3429      3434
      3255      3252      3429      3430      3255      3256      3259      3258
      3255      3256      3259      3260      3255      3256      3433      3438
      3255      3256      3433      3434      3256      3259      3260      3263
      3256      3259      3260      3437      3256      3433      3438      3437
      3256      3433      3438      3439      3256      3433      3434      3429
      3256      3433      3434      3435      3257      3080      3083      3082
      3257      3080      3083      3084      3257      3258      3259      3256
      3257      3258      3259      3260      3257      3262      3263      3260
      3257      3262      3263      3264      3258      3253      3254      3249
      3258      3253      3254      3255      3258      3257      3262      3261
      3258      3257      3262      3263      3258      3259      3260      3263
      3258      3259      3260      3437      3259      3256      3433      3438
      3259      3256      3433      3434      3259      3260      3263      3262
      3259      3260      3263      3264      3259      3260      3437      3442
      3259      3260      3437      3438      3260      3263      3264      3267
      3260      3263      3264      3441      3260      3437      3442      3441
      3260      3437      3442      3443      3260      3437      3438      3433
      3260      3437      3438      3439      3261      3084      3087      3086
      3261      3084      3087      3088      3261      3262      3263      3260
      3261      3262      3263      3264      3261      3266      3267      3264
      3261      3266      3267      3268      3262      3257      3258      3253
      3262      3257      3258      3259      3262      3261      3266      3265
      3262      3261      3266      3267      3262      3263      3264      3267
      3262      3263      3264      3441      3263      3260      3437      3442
      3263      3260      3437      3438      3263      3264      3267      3266
      3263      3264      3267      3268      3263      3264      3441      3442
      3263      3264      3441      3446      3264      3267      3268      3271
      3264      3267      3268      3445      3264      3441      3442      3437
      3264      3441      3442      3443      3264      3441      3446      3445
      3264      3441      3446      3447      3265      3088      3091      3090
      3265      3088      3091      3092      3265      3266      3267      3264
      3265      3266      3267      3268      3265      3270      3271      3268
      3265      3270      3271      3272      3266      3261      3262      3257
      3266      3261      3262      3263      3266      3265      3270      3269
      3266      3265      3270      3271      3266      3267      3268      3271
      3266      3267      3268      3445      3267      3264      3441      3442
      3267      3264      3441      3446      3267      3268      3271      3270
      3267      3268      3271      3272      3267      3268      3445      3446
      3267      3268      3445      3450      3268      3271      3272      3275
      3268      3271      3272      3449      3268      3445      3446      3441
      3268      3445      3446      3447      3268      3445      3450      3449
      3268      3445      3450      3451      3269      3092      3095      3094
      3269      3092      3095      3096      3269      3270      3271      3268
      3269      3270      3271      3272      3269      3274      3275      3272
      3269      3274      3275      3276      3270      3265      3266      3261
      3270      3265      3266      3267      3270      3269      3274      3273
      3270      3269      3274      3275      3270      3271      3272      3275
      3270      3271      3272      3449      3271      3268      3445      3446
      3271      3268      3445      3450      3271      3272      3275      3274
      3271      3272      3275      3276      3271      3272      3449      3454
      3271      3272      3449      3450      3272      3275      3276      3279
      3272      3275      3276      3453      3272      3449      3454      3453
      3272      3449      3454      3455      3272      3449      3450      3445
      3272      3449      3450      3451      3273      3096      3099      3098
      3273      3096      3099      3100      3273      3274      3275      3272
      3273      3274      3275      3276      3273      3278      3279      3276
      3273      3278      3279      3280      3274      3269      3270      3265
      3274      3269      3270      3271      3274      3273      3278      3277
      3274      3273      3278      3279      3274      3275      3276      3279
      3274      3275      3276      3453      3275      3272      3449      3454
      3275      3272      3449      3450      3275      3276      3279      3278
      3275      3276      3279      3280      3275      3276      3453      3458
      3275      3276      3453      3454      3276      3279      3280      3283
      3276      3279      3280      3457      3276      3453      3458      3457
      3276      3453      3458      3459      3276      3453      3454      3449
      3276      3453      3454      3455      3277      3100      3103      3102
      3277      3100      3103      3104      3277      3278      3279      3276
      3277      3278      3279      3280      3277      3282      3283      3280
      3277      3282      3283      3284      3278      3273      3274      3269
      3278      3273      3274      3275      3278      3277      3282      3281
      3278      3277      3282      3283      3278      3279      3280      3283
      3278      3279      3280      3457      3279      3276      3453      3458
      3279      3276      3453      3454      3279      3280      3283      3282
      3279      3280      3283      3284      3279      3280      3457      3462
      3279      3280      3457      3458      3280      3283      3284      3287
      3280      3283      3284      3461      3280      3457      3462      3461
      3280      3457      3462      3463      3280      3457      3458      3453
      3280      3457      3458      3459      3281      3104      3107      3106
      3281      3104      3107      3108      3281      3282      3283      3280
      3281      3282      3283      3284      3281      3286      3287      3284
      3281      3286      3287      3288      3282      3277      3278      3273
      3282      3277      3278      3279      3282      3281      3286      3285
      3282      3281      3286      3287      3282      3283      3284      3287
      3282      3283      3284      3461      3283      3280      3457      3462
      3283      3280      3457      3458      3283      3284      3287      3286
      3283      3284      3287      3288      3283      3284      3461      3462
      3283      3284      3461      3466      3284      3287      3288      3291
      3284      3287      3288      3465      3284      3461      3462      3457
      3284      3461      3462      3463      3284      3461      3466      3465
      3284      3461      3466      3467      3285      3108      3111      3110
      3285      3108      3111      3112      3285      3286      3287      3284
      3285      3286      3287      3288      3285      3290      3291      3288
      3285      3290      3291      3292      3286      3281      3282      3277
      3286      3281      3282      3283      3286      3285      3290      3289
      3286      3285      3290      3291      3286      3287      3288      3291
      3286      3287      3288      3465      3287      3284      3461      3462
      3287      3284      3461      3466      3287      3288      3291      3290
      3287      3288      3291      3292      3287      3288      3465      3466
      3287      3288      3465      3470      3288      3291      3292      3295
      3288      3291      3292      3469      3288      3465      3466      3461
      3288      3465      3466      3467      3288      3465      3470      3469
      3288      3465      3470      3471      3289      3112      3115      3114
      3289      3112      3115      3116      3289      3290      3291      3288
      3289      3290      3291      3292      3289      3294      3295      3292
      3289      3294      3295      3296      3290      3285      3286      3281
      3290      3285      3286      3287      3290      3289      3294      3293
      3290      3289      3294      3295      3290      3291      3292      3295
      3290      3291      3292      3469      3291      3288      3465      3466
      3291      3288      3465      3470      3291      3292      3295      3294
      3291      3292      3295      3296      3291      3292      3469      3474
      3291      3292      3469      3470      3292      3295      3296      3299
      3292      3295      3296      3473      3292      3469      3474      3473
      3292      3469      3474      3475      3292      3469      3470      3465
      3292      3469      3470      3471      3293      3116      3119      3118
      3293      3116      3119      3120      3293      3294      3295      3292
      3293      3294      3295      3296      3293      3298      3299      3296
      3293      3298      3299      3300      3294      3289      3290      3285
      3294      3289      3290      3291      3294      3293      3298      3297
      3294      3293      3298      3299      3294      3295      3296      3299
      3294      3295      3296      3473      3295      3292      3469      3474
      3295      3292      3469      3470      3295      3296      3299      3298
      3295      3296      3299      3300      3295      3296      3473      3478
      3295      3296      3473      3474      3296      3299      3300      3303
      3296      3299      3300      3477      3296      3473      3478      3477
      3296      3473      3478      3479      3296      3473      3474      3469
      3296      3473      3474      3475      3297      3120      3123      3122
      3297      3120      3123      3124      3297      3298      3299      3296
      3297      3298      3299      3300      3297      3302      3303      3300
      3297      3302      3303      3304      3298      3293      3294      3289
      3298      3293      3294      3295      3298      3297      3302      3301
      3298      3297      3302      3303      3298      3299      3300      3303
      3298      3299      3300      3477      3299      3296      3473      3478
      3299      3296      3473      3474      3299      3300      3303      3302
      3299      3300      3303      3304      3299      3300      3477      3482
      3299      3300      3477      3478      3300      3303      3304      3307
      3300      3303      3304      3481      3300      3477      3482      3481
      3300      3477      3482      3483      3300      3477      3478      3473
      3300      3477      3478      3479      3301      3124      3127      3126
      3301      3124      3127      3128      3301      3302      3303      3300
      3301      3302      3303      3304      3301      3306      3307      3304
      3301      3306      3307      3308      3302      3297      3298      3293
      3302      3297      3298      3299      3302      3301      3306      3305
      3302      3301      3306      3307      3302      3303      3304      3307
      3302      3303      3304      3481      3303      3300      3477      3482
      3303      3300      3477      3478      3303      3304      3307      3306
      3303      3304      3307      3308      3303      3304      3481      3482
      3303      3304      3481      3486      3304      3307      3308      3311
      3304      3307      3308      3485      3304      3481      3482      3477
      3304      3481      3482      3483      3304      3481      3486      3485
      3304      3481      3486      3487      3305      3128      3131      3130
      3305      3128      3131      3132      3305      3306      3307      3304
      3305      3306      3307      3308      3305      3310      3311      3308
      3305      3310      3311      3312      3306      3301      3302      3297
      3306      3301      3302      3303      3306      3305      3310      3309
      3306      3305      3310      3311      3306      3307      3308      3311
      3306      3307      3308      3485      3307      3304      3481      3482
      3307      3304      3481      3486      3307      3308      3311      3310
      3307      3308      3311      3312      3307      3308      3485      3486
      3307      3308      3485      3490      3308      3311      3312      3315
      3308      3311      3312      3489      3308      3485      3486      3481
      3308      3485      3486      3487      3308      3485      3490      3489
      3308      3485      3490      3491      3309      3132      3135      3134
      3309      3132      3135      3136      3309      3310      3311      3308
      3309      3310      3311      3312      3309      3314      3315      3312
      3309      3314      3315      3316      3310      3305      3306      3301
      3310      3305      3306      3307      3310      3309      3314      3313
      3310      3309      3314      3315      3310      3311      3312      3315
      3310      3311      3312      3489      3311      3308      3485      3486
      3311      3308      3485      3490      3311      3312      3315      3314
      3311      3312      3315      3316      3311      3312      3489      3494
      3311      3312      3489      3490      3312      3315      3316      3319
      3312      3315      3316      3493      3312      3489      3494      3493
      3312      3489      3494      3495      3312      3489      3490      3485
      3312      3489      3490      3491      3313      3136      3139      3138
      3313      3136      3139      3140      3313      3314      3315      3312
      3313      3314      3315      3316      3313      3318      3319      3316
      3313      3318      3319      3320      3314      3309      3310      3305
      3314      3309      3310      3311      3314      3313      3318      3317
      3314      3313      3318      3319      3314      3315      3316      3319
      3314      3315      3316      3493      3315      3312      3489      3494
      3315      3312      3489      3490      3315      3316      3319      3318
      3315      3316      3319      3320      3315      3316      3493      3498
      3315      3316      3493      3494      3316      3319      3320      3323
      3316      3319      3320      3497      3316      3493      3498      3497
      3316      3493      3498      3499      3316      3493      3494      3489
      3316      3493      3494      3495      3317      3140      3143      3142
      3317      3140      3143      3144      3317      3318      3319      3316
      3317      3318      3319      3320      3317      3322      3323      3320
      3317      3322      3323      3324      3318      3313      3314      3309
      3318      3313      3314      3315      3318      3317      3322      3321
      3318      3317      3322      3323      3318      3319      3320      3323
      3318      3319      3320      3497      3319      3316      3493      3498
      3319      3316      3493      3494      3319      3320      3323      3322
      3319      3320      3323      3324      3319      3320      3497      3502
      3319      3320      3497      3498      3320      3323      3324      3327
      3320      3323      3324      3501      3320      3497      3502      3501
      3320      3497      3502      3503      3320      3497      3498      3493
      3320      3497      3498      3499      3321      3144      3147      3146
      3321      3144      3147      3148      3321      3322      3323      3320
      3321      3322      3323      3324      3321      3326      3327      3324
      3321      3326      3327      3328      3322      3317      3318      3313
      3322      3317      3318      3319      3322      3321      3326      3325
      3322      3321      3326      3327      3322      3323      3324      3327
      3322      3323      3324      3501      3323      3320      3497      3502
      3323      3320      3497      3498      3323      3324      3327      3326
      3323      3324      3327      3328      3323      3324      3501      3502
      3323      3324      3501      3506      3324      3327      3328      3331
      3324      3327      3328      3505      3324      3501      3502      3497
      3324      3501      3502      3503      3324      3501      3506      3505
      3324      3501      3506      3507      3325      3148      3151      3150
      3325      3148      3151      3152      3325      3326      3327      3324
      3325      3326      3327      3328      3325      3330      3331      3328
      3325      3330      3331      3332      3326      3321      3322      3317
      3326      3321      3322      3323      3326      3325      3330      3329
      3326      3325      3330      3331      3326      3327      3328      3331
      3326      3327      3328      3505      3327      3324      3501      3502
      3327      3324      3501      3506      3327      3328      3331      3330
      3327      3328      3331      3332      3327      3328      3505      3506
      3327      3328      3505      3510      3328      3331      3332      3335
      3328      3331      3332      3509      3328      3505      3506      3501
      3328      3505      3506      3507      3328      3505      3510      3509
      3328      3505      3510      3511      3329      3152      3155      3154
      3329      3152      3155      3156      3329      3330      3331      3328
      3329      3330      3331      3332      3329      3334      3335      3332
      3329      3334      3335      3336      3330      3325      3326      3321
      3330      3325      3326      3327      3330      3329      3334      3333
      3330      3329      3334      3335      3330      3331      3332      3335
      3330      3331      3332      3509      3331      3328      3505      3506
      3331      3328      3505      3510      3331      3332      3335      3334
      3331      3332      3335      3336      3331      3332      3509      3514
      3331      3332      3509      3510      3332      3335      3336      3339
      3332      3335      3336      3513      3332      3509      3514      3513
      3332      3509      3514      3515      3332      3509      3510      3505
      3332      3509      3510      3511      3333      3156      3159      3158
      3333      3156      3159      3160      3333      3334      3335      3332
      3333      3334      3335      3336      3333      3338      3339      3336
      3333      3338      3339      3340      3334      3329      3330      3325
      3334      3329      3330      3331      3334      3333      3338      3337
      3334      3333      3338      3339      3334      3335      3336      3339
      3334      3335      3336      3513      3335      3332      3509      3514
      3335      3332      3509      3510      3335      3336      3339      3338
      3335      3336      3339      3340      3335      3336      3513      3518
      3335      3336      3513      3514      3336      3339      3340      3343
      3336      3339      3340      3517      3336      3513      3518      3517
      3336      3513      3518      3519      3336      3513      3514      3509
      3336      3513      3514      3515      3337      3160      3163      3162
      3337      3160      3163      3164      3337      3338      3339      3336
      3337      3338      3339      3340      3337      3342      3343      3340
      3337      3342      3343      3344      3338      3333      3334      3329
      3338      3333      3334      3335      3338      3337      3342      3341
      3338      3337      3342      3343      3338      3339      3340      3343
      3338      3339      3340      3517      3339      3336      3513      3518
      3339      3336      3513      3514      3339      3340      3343      3342
      3339      3340      3343      3344      3339      3340      3517      3522
      3339      3340      3517      3518      3340      3343      3344      3347
      3340      3343      3344      3521      3340      3517      3522      3521
      3340      3517      3522      3523      3340      3517      3518      3513
      3340      3517      3518      3519      3341      3164      3167      3166
      3341      3164      3167      3168      3341      3342      3343      3340
      3341      3342      3343      3344      3341      3346      3347      3344
      3341      3346      3347      3348      3342      3337      3338      3333
      3342      3337      3338      3339      3342      3341      3346      3345
      3342      3341      3346      3347      3342      3343      3344      3347
      3342      3343      3344      3521      3343      3340      3517      3522
      3343      3340      3517      3518      3343      3344      3347      3346
      3343      3344      3347      3348      3343      3344      3521      3522
      3343      3344      3521      3526      3344      3347      3348      3351
      3344      3347      3348      3525      3344      3521      3522      3517
      3344      3521      3522      3523      3344      3521      3526      3525
      3344      3521      3526      3527      3345      3168      3171      3170
      3345      3168      3171      3172      3345      3346      3347      3344
      3345      3346      3347      3348      3345      3350      3351      3348
      3345      3350      3351      3352      3346      3341      3342      3337
      3346      3341      3342      3343      3346      3345      3350      3349
      3346      3345      3350      3351      3346      3347      3348      3351
      3346      3347      3348      3525      3347      3344      3521      3522
      3347      3344      3521      3526      3347      3348      3351      3350
      3347      3348      3351      3352      3347      3348      3525      3526
      3347      3348      3525      3530      3348      3351      3352      3355
      3348      3351      3352      3529      3348      3525      3526      3521
      3348      3525      3526      3527      3348      3525      3530      3529
      3348      3525      3530      3531      3349      3172      3175      3174
      3349      3172      3175      3176      3349      3350      3351      3348
      3349      3350      3351      3352      3349      3354      3355      3352
      3349      3354      3355      3356      3350      3345      3346      3341
      3350      3345      3346      3347      3350      3349      3354      3353
      3350      3349      3354      3355      3350      3351      3352      3355
      3350      3351      3352      3529      3351      3348      3525      3526
      3351      3348      3525      3530      3351      3352      3355      3354
      3351      3352      3355      3356      3351      3352      3529      3534
      3351      3352      3529      3530      3352      3355      3356      3359
      3352      3355      3356      3533      3352      3529      3534      3533
      3352      3529      3534      3535      3352      3529      3530      3525
      3352      3529      3530      3531      3353      3176      3179      3178
      3353      3176      3179      3180      3353      3354      3355      3352
      3353      3354      3355      3356      3353      3358      3359      3356
      3353      3358      3359      3360      3354      3349      3350      3345
      3354      3349      3350      3351      3354      3353      3358      3357
      3354      3353      3358      3359      3354      3355      3356      3359
      3354      3355      3356      3533      3355      3352      3529      3534
      3355      3352      3529      3530      3355      3356      3359      3358
      3355      3356      3359      3360      3355      3356      3533      3534
      3355      3356      3533      3538      3356      3359      3360      3363
      3356      3359      3360      3537      3356      3533      3534      3529
      3356      3533      3534      3535      3356      3533      3538      3537
      3356      3533      3538      3539      3357      3180      3183      3182
      3357      3180      3183      3184      3357      3358      3359      3356
      3357      3358      3359      3360      3357      3362      3363      3360
      3357      3362      3363      3364      3358      3353      3354      3349
      3358      3353      3354      3355      3358      3357      3362      3361
      3358      3357      3362      3363      3358      3359      3360      3363
      3358      3359      3360      3537      3359      3356      3533      3534
      3359      3356      3533      3538      3359      3360      3363      3362
      3359      3360      3363      3364      3359      3360      3537      3542
      3359      3360      3537      3538      3360      3363      3364      3367
      3360      3363      3364      3541      3360      3537      3542      3541
      3360      3537      3542      3543      3360      3537      3538      3533
      3360      3537      3538      3539      3361      3184      3187      3186
      3361      3184      3187      3188      3361      3362      3363      3360
      3361      3362      3363      3364      3361      3366      3367      3364
      3361      3366      3367      3368      3362      3357      3358      3353
      3362      3357      3358      3359      3362      3361      3366      3365
      3362      3361      3366      3367      3362      3363      3364      3367
      3362      3363      3364      3541      3363      3360      3537      3542
      3363      3360      3537      3538      3363      3364      3367      3366
      3363      3364      3367      3368      3363      3364      3541      3542
      3363      3364      3541      3546      3364      3367      3368      3371
      3364      3367      3368      3545      3364      3541      3542      3537
      3364      3541      3542      3543      3364      3541      3546      3545
      3364      3541      3546      3547      3365      3188      3191      3190
      3365      3188      3191      3192      3365      3366      3367      3364
      3365      3366      3367      3368      3365      3370      3371      3368
      3365      3370      3371      3372      3366      3361      3362      3357
      3366      3361      3362      3363      3366      3365      3370      3369
      3366      3365      3370      3371      3366      3367      3368      3371
      3366      3367      3368      3545      3367      3364      3541      3542
      3367      3364      3541      3546      3367      3368      3371      3370
      3367      3368      3371      3372      3367      3368      3545      3546
      3367      3368      3545      3550      3368      3371      3372      3375
      3368      3371      3372      3549      3368      3545      3546      3541
      3368      3545      3546      3547      3368      3545      3550      3549
      3368      3545      3550      3551      3369      3192      3195      3194
      3369      3192      3195      3196      3369      3370      3371      3368
      3369      3370      3371      3372      3369      3374      3375      3372
      3369      3374      3375      3376      3370      3365      3366      3361
      3370      3365      3366      3367      3370      3369      3374      3373
      3370      3369      3374      3375      3370      3371      3372      3375
      3370      3371      3372      3549      3371      3368      3545      3546
      3371      3368      3545      3550      3371      3372      3375      3374
      3371      3372      3375      3376      3371      3372      3549      3554
      3371      3372      3549      3550      3372      3375      3376      3379
      3372      3375      3376      3553      3372      3549      3554      3553
      3372      3549      3554      3555      3372      3549      3550      3545
      3372      3549      3550      3551      3373      3196      3199      3198
      3373      3196      3199      3200      3373      3374      3375      3372
      3373      3374      3375      3376      3373      3378      3379      3376
      3373      3378      3379      3380      3374      3369      3370      3365
      3374      3369      3370      3371      3374      3373      3378      3377
      3374      3373      3378      3379      3374      3375      3376      3379
      3374      3375      3376      3553      3375      3372      3549      3554
      3375      3372      3549      3550      3375      3376      3379      3378
      3375      3376      3379      3380      3375      3376      3553      3558
      3375      3376      3553      3554      3376      3379      3380      3383
      3376      3379      3380      3557      3376      3553      3558      3557
      3376      3553      3558      3559      3376      3553      3554      3549
      3376      3553      3554      3555      3377      3200      3203      3202
      3377      3200      3203      3204      3377      3378      3379      3376
      3377      3378      3379      3380      3377      3382      3383      3380
      3377      3382      3383      3384      3378      3373      3374      3369
      3378      3373      3374      3375      3378      3377      3382      3381
      3378      3377      3382      3383      3378      3379      3380      3383
      3378      3379      3380      3557      3379      3376      3553      3558
      3379      3376      3553      3554      3379      3380      3383      3382
      3379      3380      3383      3384      3379      3380      3557      3562
      3379      3380      3557      3558      3380      3383      3384      3387
      3380      3383      3384      3561      3380      3557      3562      3561
      3380      3557      3562      3563      3380      3557      3558      3553
      3380      3557      3558      3559      3381      3204      3207      3206
      3381      3204      3207      3208      3381      3382      3383      3380
      3381      3382      3383      3384      3381      3386      3387      3384
      3381      3386      3387      3388      3382      3377      3378      3373
      3382      3377      3378      3379      3382      3381      3386      3385
      3382      3381      3386      3387      3382      3383      3384      3387
      3382      3383      3384      3561      3383      3380      3557      3562
      3383      3380      3557      3558      3383      3384      3387      3386
      3383      3384      3387      3388      3383      3384      3561      3562
      3383      3384      3561      3566      3384      3387      3388      3391
      3384      3387      3388      3565      3384      3561      3562      3557
      3384      3561      3562      3563      3384      3561      3566      3565
      3384      3561      3566      3567      3385      3208      3211      3210
      3385      3208      3211      3212      3385      3386      3387      3384
      3385      3386      3387      3388      3385      3390      3391      3388
      3385      3390      3391      3392      3386      3381      3382      3377
      3386      3381      3382      3383      3386      3385      3390      3389
      3386      3385      3390      3391      3386      3387      3388      3391
      3386      3387      3388      3565      3387      3384      3561      3562
      3387      3384      3561      3566      3387      3388      3391      3390
      3387      3388      3391      3392      3387      3388      3565      3566
      3387      3388      3565      3570      3388      3391      3392      3395
      3388      3391      3392      3569      3388      3565      3566      3561
      3388      3565      3566      3567      3388      3565      3570      3569
      3388      3565      3570      3571      3389      3212      3215      3214
      3389      3212      3215      3216      3389      3390      3391      3388
      3389      3390      3391      3392      3389      3394      3395      3392
      3389      3394      3395      3396      3390      3385      3386      3381
      3390      3385      3386      3387      3390      3389      3394      3393
      3390      3389      3394      3395      3390      3391      3392      3395
      3390      3391      3392      3569      3391      3388      3565      3566
      3391      3388      3565      3570      3391      3392      3395      3394
      3391      3392      3395      3396      3391      3392      3569      3574
      3391      3392      3569      3570      3392      3395      3396      3399
      3392      3395      3396      3573      3392      3569      3574      3573
      3392      3569      3574      3575      3392      3569      3570      3565
      3392      3569      3570      3571      3393      3216      3219      3218
      3393      3216      3219      3220      3393      3394      3395      3392
      3393      3394      3395      3396      3393      3398      3399      3396
      3393      3398      3399      3400      3394      3389      3390      3385
      3394      3389      3390      3391      3394      3393      3398      3397
      3394      3393      3398      3399      3394      3395      3396      3399
      3394      3395      3396      3573      3395      3392      3569      3574
      3395      3392      3569      3570      3395      3396      3399      3398
      3395      3396      3399      3400      3395      3396      3573      3578
      3395      3396      3573      3574      3396      3399      3400      3403
      3396      3399      3400      3577      3396      3573      3578      3577
      3396      3573      3578      3579      3396      3573      3574      3569
      3396      3573      3574      3575      3397      3220      3223      3222
      3397      3220      3223      3224      3397      3398      3399      3396
      3397      3398      3399      3400      3397      3402      3403      3400
      3397      3402      3403      3404      3398      3393      3394      3389
      3398      3393      3394      3395      3398      3397      3402      3401
      3398      3397      3402      3403      3398      3399      3400      3403
      3398      3399      3400      3577      3399      3396      3573      3578
      3399      3396      3573      3574      3399      3400      3403      3402
      3399      3400      3403      3404      3399      3400      3577      3582
      3399      3400      3577      3578      3400      3403      3404      3407
      3400      3403      3404      3581      3400      3577      3582      3581
      3400      3577      3582      3583      3400      3577      3578      3573
      3400      3577      3578      3579      3401      3224      3227      3226
      3401      3224      3227      3228      3401      3402      3403      3400
      3401      3402      3403      3404      3401      3406      3407      3404
      3401      3406      3407      3408      3402      3397      3398      3393
      3402      3397      3398      3399      3402      3401      3406      3405
      3402      3401      3406      3407      3402      3403      3404      3407
      3402      3403      3404      3581      3403      3400      3577      3582
      3403      3400      3577      3578      3403      3404      3407      3406
      3403      3404      3407      3408      3403      3404      3581      3582
      3403      3404      3581      3586      3404      3407      3408      3411
      3404      3407      3408      3585      3404      3581      3582      3577
      3404      3581      3582      3583      3404      3581      3586      3585
      3404      3581      3586      3587      3405      3228      3231      3230
      3405      3228      3231      3232      3405      3406      3407      3404
      3405      3406      3407      3408      3405      3410      3411      3408
      3405      3410      3411      3412      3406      3401      3402      3397
      3406      3401      3402      3403      3406      3405      3410      3409
      3406      3405      3410      3411      3406      3407      3408      3411
      3406      3407      3408      3585      3407      3404      3581      3582
      3407      3404      3581      3586      3407      3408      3411      3410
      3407      3408      3411      3412      3407      3408      3585      3586
      3407      3408      3585      3590      3408      3411      3412      3415
      3408      3411      3412      3589      3408      3585      3586      3581
      3408      3585      3586      3587      3408      3585      3590      3589
      3408      3585      3590      3591      3409      3232      3235      3234
      3409      3232      3235      3236      3409      3410      3411      3408
      3409      3410      3411      3412      3409      3414      3415      3412
      3409      3414      3415      3416      3410      3405      3406      3401
      3410      3405      3406      3407      3410      3409      3414      3413
      3410      3409      3414      3415      3410      3411      3412      3415
      3410      3411      3412      3589      3411      3408      3585      3586
      3411      3408      3585      3590      3411      3412      3415      3414
      3411      3412      3415      3416      3411      3412      3589      3594
      3411      3412      3589      3590      3412      3415      3416      3419
      3412      3415      3416      3593      3412      3589      3594      3593
      3412      3589      3594      3595      3412      3589      3590      3585
      3412      3589      3590      3591      3413      3236      3239      3238
      3413      3236      3239      3240      3413      3414      3415      3412
      3413      3414      3415      3416      3413      3418      3419      3416
      3413      3418      3419      3420      3414      3409      3410      3405
      3414      3409      3410      3411      3414      3413      3418      3417
      3414      3413      3418      3419      3414      3415      3416      3419
      3414      3415      3416      3593      3415      3412      3589      3594
      3415      3412      3589      3590      3415      3416      3419      3418
      3415      3416      3419      3420      3415      3416      3593      3598
      3415      3416      3593      3594      3416      3419      3420      3597
      3416      3593      3598      3597      3416      3593      3598      3599
      3416      3593      3594      3589      3416      3593      3594      3595
      3417      3418      3419      3416      3417      3418      3419      3420
      3418      3413      3414      3409      3418      3413      3414      3415
      3418      3419      3420      3597      3419      3416      3593      3598
      3419      3416      3593      3594      3419      3420      3597      3598
      3420      3597      3598      3593      3420      3597      3598      3599
      3421      3244      3247      3246      3421      3244      3247      3248
      3421      3422      3423      3424      3421      3426      3427      3424
      3421      3426      3427      3428      3422      3421      3426      3425
      3422      3421      3426      3427      3422      3423      3424      3427
      3422      3423      3424      3601      3423      3424      3427      3426
      3423      3424      3427      3428      3423      3424      3601      3602
      3423      3424      3601      3606      3424      3427      3428      3431
      3424      3427      3428      3605      3424      3601      3602      3603
      3424      3601      3606      3605      3424      3601      3606      3607
      3425      3248      3251      3250      3425      3248      3251      3252
      3425      3426      3427      3424      3425      3426      3427      3428
      3425      3430      3431      3428      3425      3430      3431      3432
      3426      3421      3422      3423      3426      3425      3430      3429
      3426      3425      3430      3431      3426      3427      3428      3431
      3426      3427      3428      3605      3427      3424      3601      3602
      3427      3424      3601      3606      3427      3428      3431      3430
      3427      3428      3431      3432      3427      3428      3605      3606
      3427      3428      3605      3610      3428      3431      3432      3435
      3428      3431      3432      3609      3428      3605      3606      3601
      3428      3605      3606      3607      3428      3605      3610      3609
      3428      3605      3610      3611      3429      3252      3255      3254
      3429      3252      3255      3256      3429      3430      3431      3428
      3429      3430      3431      3432      3429      3434      3435      3432
      3429      3434      3435      3436      3430      3425      3426      3421
      3430      3425      3426      3427      3430      3429      3434      3433
      3430      3429      3434      3435      3430      3431      3432      3435
      3430      3431      3432      3609      3431      3428      3605      3606
      3431      3428      3605      3610      3431      3432      3435      3434
      3431      3432      3435      3436      3431      3432      3609      3614
      3431      3432      3609      3610      3432      3435      3436      3439
      3432      3435      3436      3613      3432      3609      3614      3613
      3432      3609      3614      3615      3432      3609      3610      3605
      3432      3609      3610      3611      3433      3256      3259      3258
      3433      3256      3259      3260      3433      3434      3435      3432
      3433      3434      3435      3436      3433      3438      3439      3436
      3433      3438      3439      3440      3434      3429      3430      3425
      3434      3429      3430      3431      3434      3433      3438      3437
      3434      3433      3438      3439      3434      3435      3436      3439
      3434      3435      3436      3613      3435      3432      3609      3614
      3435      3432      3609      3610      3435      3436      3439      3438
      3435      3436      3439      3440      3435      3436      3613      3618
      3435      3436      3613      3614      3436      3439      3440      3443
      3436      3439      3440      3617      3436      3613      3618      3617
      3436      3613      3618      3619      3436      3613      3614      3609
      3436      3613      3614      3615      3437      3260      3263      3262
      3437      3260      3263      3264      3437      3438      3439      3436
      3437      3438      3439      3440      3437      3442      3443      3440
      3437      3442      3443      3444      3438      3433      3434      3429
      3438      3433      3434      3435      3438      3437      3442      3441
      3438      3437      3442      3443      3438      3439      3440      3443
      3438      3439      3440      3617      3439      3436      3613      3618
      3439      3436      3613      3614      3439      3440      3443      3442
      3439      3440      3443      3444      3439      3440      3617      3622
      3439      3440      3617      3618      3440      3443      3444      3447
      3440      3443      3444      3621      3440      3617      3622      3621
      3440      3617      3622      3623      3440      3617      3618      3613
      3440      3617      3618      3619      3441      3264      3267      3266
      3441      3264      3267      3268      3441      3442      3443      3440
      3441      3442      3443      3444      3441      3446      3447      3444
      3441      3446      3447      3448      3442      3437      3438      3433
      3442      3437      3438      3439      3442      3441      3446      3445
      3442      3441      3446      3447      3442      3443      3444      3447
      3442      3443      3444      3621      3443      3440      3617      3622
      3443      3440      3617      3618      3443      3444      3447      3446
      3443      3444      3447      3448      3443      3444      3621      3622
      3443      3444      3621      3626      3444      3447      3448      3451
      3444      3447      3448      3625      3444      3621      3622      3617
      3444      3621      3622      3623      3444      3621      3626      3625
      3444      3621      3626      3627      3445      3268      3271      3270
      3445      3268      3271      3272      3445      3446      3447      3444
      3445      3446      3447      3448      3445      3450      3451      3448
      3445      3450      3451      3452      3446      3441      3442      3437
      3446      3441      3442      3443      3446      3445      3450      3449
      3446      3445      3450      3451      3446      3447      3448      3451
      3446      3447      3448      3625      3447      3444      3621      3622
      3447      3444      3621      3626      3447      3448      3451      3450
      3447      3448      3451      3452      3447      3448      3625      3626
      3447      3448      3625      3630      3448      3451      3452      3455
      3448      3451      3452      3629      3448      3625      3626      3621
      3448      3625      3626      3627      3448      3625      3630      3629
      3448      3625      3630      3631      3449      3272      3275      3274
      3449      3272      3275      3276      3449      3450      3451      3448
      3449      3450      3451      3452      3449      3454      3455      3452
      3449      3454      3455      3456      3450      3445      3446      3441
      3450      3445      3446      3447      3450      3449      3454      3453
      3450      3449      3454      3455      3450      3451      3452      3455
      3450      3451      3452      3629      3451      3448      3625      3626
      3451      3448      3625      3630      3451      3452      3455      3454
      3451      3452      3455      3456      3451      3452      3629      3630
      3451      3452      3629      3634      3452      3455      3456      3459
      3452      3455      3456      3633      3452      3629      3630      3625
      3452      3629      3630      3631      3452      3629      3634      3633
      3452      3629      3634      3635      3453      3276      3279      3278
      3453      3276      3279      3280      3453      3454      3455      3452
      3453      3454      3455      3456      3453      3458      3459      3456
      3453      3458      3459      3460      3454      3449      3450      3445
      3454      3449      3450      3451      3454      3453      3458      3457
      3454      3453      3458      3459      3454      3455      3456      3459
      3454      3455      3456      3633      3455      3452      3629      3630
      3455      3452      3629      3634      3455      3456      3459      3458
      3455      3456      3459      3460      3455      3456      3633      3634
      3455      3456      3633      3638      3456      3459      3460      3463
      3456      3459      3460      3637      3456      3633      3634      3629
      3456      3633      3634      3635      3456      3633      3638      3637
      3456      3633      3638      3639      3457      3280      3283      3282
      3457      3280      3283      3284      3457      3458      3459      3456
      3457      3458      3459      3460      3457      3462      3463      3460
      3457      3462      3463      3464      3458      3453      3454      3449
      3458      3453      3454      3455      3458      3457      3462      3461
      3458      3457      3462      3463      3458      3459      3460      3463
      3458      3459      3460      3637      3459      3456      3633      3634
      3459      3456      3633      3638      3459      3460      3463      3462
      3459      3460      3463      3464      3459      3460      3637      3638
      3459      3460      3637      3642      3460      3463      3464      3467
      3460      3463      3464      3641      3460      3637      3638      3633
      3460      3637      3638      3639      3460      3637      3642      3641
      3460      3637      3642      3643      3461      3284      3287      3286
      3461      3284      3287      3288      3461      3462      3463      3460
      3461      3462      3463      3464      3461      3466      3467      3464
      3461      3466      3467      3468      3462      3457      3458      3453
      3462      3457      3458      3459      3462      3461      3466      3465
      3462      3461      3466      3467      3462      3463      3464      3467
      3462      3463      3464      3641      3463      3460      3637      3638
      3463      3460      3637      3642      3463      3464      3467      3466
      3463      3464      3467      3468      3463      3464      3641      3642
      3463      3464      3641      3646      3464      3467      3468      3471
      3464      3467      3468      3645      3464      3641      3642      3637
      3464      3641      3642      3643      3464      3641      3646      3645
      3464      3641      3646      3647      3465      3288      3291      3290
      3465      3288      3291      3292      3465      3466      3467      3464
      3465      3466      3467      3468      3465      3470      3471      3468
      3465      3470      3471      3472      3466      3461      3462      3457
      3466      3461      3462      3463      3466      3465      3470      3469
      3466      3465      3470      3471      3466      3467      3468      3471
      3466      3467      3468      3645      3467      3464      3641      3642
      3467      3464      3641      3646      3467      3468      3471      3470
      3467      3468      3471      3472      3467      3468      3645      3646
      3467      3468      3645      3650      3468      3471      3472      3475
      3468      3471      3472      3649      3468      3645      3646      3641
      3468      3645      3646      3647      3468      3645      3650      3649
      3468      3645      3650      3651      3469      3292      3295      3294
      3469      3292      3295      3296      3469      3470      3471      3468
      3469      3470      3471      3472      3469      3474      3475      3472
      3469      3474      3475      3476      3470      3465      3466      3461
      3470      3465      3466      3467      3470      3469      3474      3473
      3470      3469      3474      3475      3470      3471      3472      3475
      3470      3471      3472      3649      3471      3468      3645      3646
      3471      3468      3645      3650      3471      3472      3475      3474
      3471      3472      3475      3476      3471      3472      3649      3654
      3471      3472      3649      3650      3472      3475      3476      3479
      3472      3475      3476      3653      3472      3649      3654      3653
      3472      3649      3654      3655      3472      3649      3650      3645
      3472      3649      3650      3651      3473      3296      3299      3298
      3473      3296      3299      3300      3473      3474      3475      3472
      3473      3474      3475      3476      3473      3478      3479      3476
      3473      3478      3479      3480      3474      3469      3470      3465
      3474      3469      3470      3471      3474      3473      3478      3477
      3474      3473      3478      3479      3474      3475      3476      3479
      3474      3475      3476      3653      3475      3472      3649      3654
      3475      3472      3649      3650      3475      3476      3479      3478
      3475      3476      3479      3480      3475      3476      3653      3658
      3475      3476      3653      3654      3476      3479      3480      3483
      3476      3479      3480      3657      3476      3653      3658      3657
      3476      3653      3658      3659      3476      3653      3654      3649
      3476      3653      3654      3655      3477      3300      3303      3302
      3477      3300      3303      3304      3477      3478      3479      3476
      3477      3478      3479      3480      3477      3482      3483      3480
      3477      3482      3483      3484      3478      3473      3474      3469
      3478      3473      3474      3475      3478      3477      3482      3481
      3478      3477      3482      3483      3478      3479      3480      3483
      3478      3479      3480      3657      3479      3476      3653      3658
      3479      3476      3653      3654      3479      3480      3483      3482
      3479      3480      3483      3484      3479      3480      3657      3662
      3479      3480      3657      3658      3480      3483      3484      3487
      3480      3483      3484      3661      3480      3657      3662      3661
      3480      3657      3662      3663      3480      3657      3658      3653
      3480      3657      3658      3659      3481      3304      3307      3306
      3481      3304      3307      3308      3481      3482      3483      3480
      3481      3482      3483      3484      3481      3486      3487      3484
      3481      3486      3487      3488      3482      3477      3478      3473
      3482      3477      3478      3479      3482      3481      3486      3485
      3482      3481      3486      3487      3482      3483      3484      3487
      3482      3483      3484      3661      3483      3480      3657      3662
      3483      3480      3657      3658      3483      3484      3487      3486
      3483      3484      3487      3488      3483      3484      3661      3662
      3483      3484      3661      3666      3484      3487      3488      3491
      3484      3487      3488      3665      3484      3661      3662      3657
      3484      3661      3662      3663      3484      3661      3666      3665
      3484      3661      3666      3667      3485      3308      3311      3310
      3485      3308      3311      3312      3485      3486      3487      3484
      3485      3486      3487      3488      3485      3490      3491      3488
      3485      3490      3491      3492      3486      3481      3482      3477
      3486      3481      3482      3483      3486      3485      3490      3489
      3486      3485      3490      3491      3486      3487      3488      3491
      3486      3487      3488      3665      3487      3484      3661      3662
      3487      3484      3661      3666      3487      3488      3491      3490
      3487      3488      3491      3492      3487      3488      3665      3666
      3487      3488      3665      3670      3488      3491      3492      3495
      3488      3491      3492      3669      3488      3665      3666      3661
      3488      3665      3666      3667      3488      3665      3670      3669
      3488      3665      3670      3671      3489      3312      3315      3314
      3489      3312      3315      3316      3489      3490      3491      3488
      3489      3490      3491      3492      3489      3494      3495      3492
      3489      3494      3495      3496      3490      3485      3486      3481
      3490      3485      3486      3487      3490      3489      3494      3493
      3490      3489      3494      3495      3490      3491      3492      3495
      3490      3491      3492      3669      3491      3488      3665      3666
      3491      3488      3665      3670      3491      3492      3495      3494
      3491      3492      3495      3496      3491      3492      3669      3674
      3491      3492      3669      3670      3492      3495      3496      3499
      3492      3495      3496      3673      3492      3669      3674      3673
      3492      3669      3674      3675      3492      3669      3670      3665
      3492      3669      3670      3671      3493      3316      3319      3318
      3493      3316      3319      3320      3493      3494      3495      3492
      3493      3494      3495      3496      3493      3498      3499      3496
      3493      3498      3499      3500      3494      3489      3490      3485
      3494      3489      3490      3491      3494      3493      3498      3497
      3494      3493      3498      3499      3494      3495      3496      3499
      3494      3495      3496      3673      3495      3492      3669      3674
      3495      3492      3669      3670      3495      3496      3499      3498
      3495      3496      3499      3500      3495      3496      3673      3678
      3495      3496      3673      3674      3496      3499      3500      3503
      3496      3499      3500      3677      3496      3673      3678      3677
      3496      3673      3678      3679      3496      3673      3674      3669
      3496      3673      3674      3675      3497      3320      3323      3322
      3497      3320      3323      3324      3497      3498      3499      3496
      3497      3498      3499      3500      3497      3502      3503      3500
      3497      3502      3503      3504      3498      3493      3494      3489
      3498      3493      3494      3495      3498      3497      3502      3501
      3498      3497      3502      3503      3498      3499      3500      3503
      3498      3499      3500      3677      3499      3496      3673      3678
      3499      3496      3673      3674      3499      3500      3503      3502
      3499      3500      3503      3504      3499      3500      3677      3682
      3499      3500      3677      3678      3500      3503      3504      3507
      3500      3503      3504      3681      3500      3677      3682      3681
      3500      3677      3682      3683      3500      3677      3678      3673
      3500      3677      3678      3679      3501      3324      3327      3326
      3501      3324      3327      3328      3501      3502      3503      3500
      3501      3502      3503      3504      3501      3506      3507      3504
      3501      3506      3507      3508      3502      3497      3498      3493
      3502      3497      3498      3499      3502      3501      3506      3505
      3502      3501      3506      3507      3502      3503      3504      3507
      3502      3503      3504      3681      3503      3500      3677      3682
      3503      3500      3677      3678      3503      3504      3507      3506
      3503      3504      3507      3508      3503      3504      3681      3682
      3503      3504      3681      3686      3504      3507      3508      3511
      3504      3507      3508      3685      3504      3681      3682      3677
      3504      3681      3682      3683      3504      3681      3686      3685
      3504      3681      3686      3687      3505      3328      3331      3330
      3505      3328      3331      3332      3505      3506      3507      3504
      3505      3506      3507      3508      3505      3510      3511      3508
      3505      3510      3511      3512      3506      3501      3502      3497
      3506      3501      3502      3503      3506      3505      3510      3509
      3506      3505      3510      3511      3506      3507      3508      3511
      3506      3507      3508      3685      3507      3504      3681      3682
      3507      3504      3681      3686      3507      3508      3511      3510
      3507      3508      3511      3512      3507      3508      3685      3686
      3507      3508      3685      3690      3508      3511      3512      3515
      3508      3511      3512      3689      3508      3685      3686      3681
      3508      3685      3686      3687      3508      3685      3690      3689
      3508      3685      3690      3691      3509      3332      3335      3334
      3509      3332      3335      3336      3509      3510      3511      3508
      3509      3510      3511      3512      3509      3514      3515      3512
      3509      3514      3515      3516      3510      3505      3506      3501
      3510      3505      3506      3507      3510      3509      3514      3513
      3510      3509      3514      3515      3510      3511      3512      3515
      3510      3511      3512      3689      3511      3508      3685      3686
      3511      3508      3685      3690      3511      3512      3515      3514
      3511      3512      3515      3516      3511      3512      3689      3690
      3511      3512      3689      3694      3512      3515      3516      3519
      3512      3515      3516      3693      3512      3689      3690      3685
      3512      3689      3690      3691      3512      3689      3694      3693
      3512      3689      3694      3695      3513      3336      3339      3338
      3513      3336      3339      3340      3513      3514      3515      3512
      3513      3514      3515      3516      3513      3518      3519      3516
      3513      3518      3519      3520      3514      3509      3510      3505
      3514      3509      3510      3511      3514      3513      3518      3517
      3514      3513      3518      3519      3514      3515      3516      3519
      3514      3515      3516      3693      3515      3512      3689      3690
      3515      3512      3689      3694      3515      3516      3519      3518
      3515      3516      3519      3520      3515      3516      3693      3694
      3515      3516      3693      3698      3516      3519      3520      3523
      3516      3519      3520      3697      3516      3693      3694      3689
      3516      3693      3694      3695      3516      3693      3698      3697
      3516      3693      3698      3699      3517      3340      3343      3342
      3517      3340      3343      3344      3517      3518      3519      3516
      3517      3518      3519      3520      3517      3522      3523      3520
      3517      3522      3523      3524      3518      3513      3514      3509
      3518      3513      3514      3515      3518      3517      3522      3521
      3518      3517      3522      3523      3518      3519      3520      3523
      3518      3519      3520      3697      3519      3516      3693      3694
      3519      3516      3693      3698      3519      3520      3523      3522
      3519      3520      3523      3524      3519      3520      3697      3698
      3519      3520      3697      3702      3520      3523      3524      3527
      3520      3523      3524      3701      3520      3697      3698      3693
      3520      3697      3698      3699      3520      3697      3702      3701
      3520      3697      3702      3703      3521      3344      3347      3346
      3521      3344      3347      3348      3521      3522      3523      3520
      3521      3522      3523      3524      3521      3526      3527      3524
      3521      3526      3527      3528      3522      3517      3518      3513
      3522      3517      3518      3519      3522      3521      3526      3525
      3522      3521      3526      3527      3522      3523      3524      3527
      3522      3523      3524      3701      3523      3520      3697      3698
      3523      3520      3697      3702      3523      3524      3527      3526
      3523      3524      3527      3528      3523      3524      3701      3702
      3523      3524      3701      3706      3524      3527      3528      3531
      3524      3527      3528      3705      3524      3701      3702      3697
      3524      3701      3702      3703      3524      3701      3706      3705
      3524      3701      3706      3707      3525      3348      3351      3350
      3525      3348      3351      3352      3525      3526      3527      3524
      3525      3526      3527      3528      3525      3530      3531      3528
      3525      3530      3531      3532      3526      3521      3522      3517
      3526      3521      3522      3523      3526      3525      3530      3529
      3526      3525      3530      3531      3526      3527      3528      3531
      3526      3527      3528      3705      3527      3524      3701      3702
      3527      3524      3701      3706      3527      3528      3531      3530
      3527      3528      3531      3532      3527      3528      3705      3706
      3527      3528      3705      3710      3528      3531      3532      3535
      3528      3531      3532      3709      3528      3705      3706      3701
      3528      3705      3706      3707      3528      3705      3710      3709
      3528      3705      3710      3711      3529      3352      3355      3354
      3529      3352      3355      3356      3529      3530      3531      3528
      3529      3530      3531      3532      3529      3534      3535      3532
      3529      3534      3535      3536      3530      3525      3526      3521
      3530      3525      3526      3527      3530      3529      3534      3533
      3530      3529      3534      3535      3530      3531      3532      3535
      3530      3531      3532      3709      3531      3528      3705      3706
      3531      3528      3705      3710      3531      3532      3535      3534
      3531      3532      3535      3536      3531      3532      3709      3714
      3531      3532      3709      3710      3532      3535      3536      3539
      3532      3535      3536      3713      3532      3709      3714      3713
      3532      3709      3714      3715      3532      3709      3710      3705
      3532      3709      3710      3711      3533      3356      3359      3358
      3533      3356      3359      3360      3533      3534      3535      3532
      3533      3534      3535      3536      3533      3538      3539      3536
      3533      3538      3539      3540      3534      3529      3530      3525
      3534      3529      3530      3531      3534      3533      3538      3537
      3534      3533      3538      3539      3534      3535      3536      3539
      3534      3535      3536      3713      3535      3532      3709      3714
      3535      3532      3709      3710      3535      3536      3539      3538
      3535      3536      3539      3540      3535      3536      3713      3718
      3535      3536      3713      3714      3536      3539      3540      3543
      3536      3539      3540      3717      3536      3713      3718      3717
      3536      3713      3718      3719      3536      3713      3714      3709
      3536      3713      3714      3715      3537      3360      3363      3362
      3537      3360      3363      3364      3537      3538      3539      3536
      3537      3538      3539      3540      3537      3542      3543      3540
      3537      3542      3543      3544      3538      3533      3534      3529
      3538      3533      3534      3535      3538      3537      3542      3541
      3538      3537      3542      3543      3538      3539      3540      3543
      3538      3539      3540      3717      3539      3536      3713      3718
      3539      3536      3713      3714      3539      3540      3543      3542
      3539      3540      3543      3544      3539      3540      3717      3722
      3539      3540      3717      3718      3540      3543      3544      3547
      3540      3543      3544      3721      3540      3717      3722      3721
      3540      3717      3722      3723      3540      3717      3718      3713
      3540      3717      3718      3719      3541      3364      3367      3366
      3541      3364      3367      3368      3541      3542      3543      3540
      3541      3542      3543      3544      3541      3546      3547      3544
      3541      3546      3547      3548      3542      3537      3538      3533
      3542      3537      3538      3539      3542      3541      3546      3545
      3542      3541      3546      3547      3542      3543      3544      3547
      3542      3543      3544      3721      3543      3540      3717      3722
      3543      3540      3717      3718      3543      3544      3547      3546
      3543      3544      3547      3548      3543      3544      3721      3722
      3543      3544      3721      3726      3544      3547      3548      3551
      3544      3547      3548      3725      3544      3721      3722      3717
      3544      3721      3722      3723      3544      3721      3726      3725
      3544      3721      3726      3727      3545      3368      3371      3370
      3545      3368      3371      3372      3545      3546      3547      3544
      3545      3546      3547      3548      3545      3550      3551      3548
      3545      3550      3551      3552      3546      3541      3542      3537
      3546      3541      3542      3543      3546      3545      3550      3549
      3546      3545      3550      3551      3546      3547      3548      3551
      3546      3547      3548      3725      3547      3544      3721      3722
      3547      3544      3721      3726      3547      3548      3551      3550
      3547      3548      3551      3552      3547      3548      3725      3726
      3547      3548      3725      3730      3548      3551      3552      3555
      3548      3551      3552      3729      3548      3725      3726      3721
      3548      3725      3726      3727      3548      3725      3730      3729
      3548      3725      3730      3731      3549      3372      3375      3374
      3549      3372      3375      3376      3549      3550      3551      3548
      3549      3550      3551      3552      3549      3554      3555      3552
      3549      3554      3555      3556      3550      3545      3546      3541
      3550      3545      3546      3547      3550      3549      3554      3553
      3550      3549      3554      3555      3550      3551      3552      3555
      3550      3551      3552      3729      3551      3548      3725      3726
      3551      3548      3725      3730      3551      3552      3555      3554
      3551      3552      3555      3556      3551      3552      3729      3734
      3551      3552      3729      3730      3552      3555      3556      3559
      3552      3555      3556      3733      3552      3729      3734      3733
      3552      3729      3734      3735      3552      3729      3730      3725
      3552      3729      3730      3731      3553      3376      3379      3378
      3553      3376      3379      3380      3553      3554      3555      3552
      3553      3554      3555      3556      3553      3558      3559      3556
      3553      3558      3559      3560      3554      3549      3550      3545
      3554      3549      3550      3551      3554      3553      3558      3557
      3554      3553      3558      3559      3554      3555      3556      3559
      3554      3555      3556      3733      3555      3552      3729      3734
      3555      3552      3729      3730      3555      3556      3559      3558
      3555      3556      3559      3560      3555      3556      3733      3738
      3555      3556      3733      3734      3556      3559      3560      3563
      3556      3559      3560      3737      3556      3733      3738      3737
      3556      3733      3738      3739      3556      3733      3734      3729
      3556      3733      3734      3735      3557      3380      3383      3382
      3557      3380      3383      3384      3557      3558      3559      3556
      3557      3558      3559      3560      3557      3562      3563      3560
      3557      3562      3563      3564      3558      3553      3554      3549
      3558      3553      3554      3555      3558      3557      3562      3561
      3558      3557      3562      3563      3558      3559      3560      3563
      3558      3559      3560      3737      3559      3556      3733      3738
      3559      3556      3733      3734      3559      3560      3563      3562
      3559      3560      3563      3564      3559      3560      3737      3742
      3559      3560      3737      3738      3560      3563      3564      3567
      3560      3563      3564      3741      3560      3737      3742      3741
      3560      3737      3742      3743      3560      3737      3738      3733
      3560      3737      3738      3739      3561      3384      3387      3386
      3561      3384      3387      3388      3561      3562      3563      3560
      3561      3562      3563      3564      3561      3566      3567      3564
      3561      3566      3567      3568      3562      3557      3558      3553
      3562      3557      3558      3559      3562      3561      3566      3565
      3562      3561      3566      3567      3562      3563      3564      3567
      3562      3563      3564      3741      3563      3560      3737      3742
      3563      3560      3737      3738      3563      3564      3567      3566
      3563      3564      3567      3568      3563      3564      3741      3742
      3563      3564      3741      3746      3564      3567      3568      3571
      3564      3567      3568      3745      3564      3741      3742      3737
      3564      3741      3742      3743      3564      3741      3746      3745
      3564      3741      3746      3747      3565      3388      3391      3390
      3565      3388      3391      3392      3565      3566      3567      3564
      3565      3566      3567      3568      3565      3570      3571      3568
      3565      3570      3571      3572      3566      3561      3562      3557
      3566      3561      3562      3563      3566      3565      3570      3569
      3566      3565      3570      3571      3566      3567      3568      3571
      3566      3567      3568      3745      3567      3564      3741      3742
      3567      3564      3741      3746      3567      3568      3571      3570
      3567      3568      3571      3572      3567      3568      3745      3746
      3567      3568      3745      3750      3568      3571      3572      3575
      3568      3571      3572      3749      3568      3745      3746      3741
      3568      3745      3746      3747      3568      3745      3750      3749
      3568      3745      3750      3751      3569      3392      3395      3394
      3569      3392      3395      3396      3569      3570      3571      3568
      3569      3570      3571      3572      3569      3574      3575      3572
      3569      3574      3575      3576      3570      3565      3566      3561
      3570      3565      3566      3567      3570      3569      3574      3573
      3570      3569      3574      3575      3570      3571      3572      3575
      3570      3571      3572      3749      3571      3568      3745      3746
      3571      3568      3745      3750      3571      3572      3575      3574
      3571      3572      3575      3576      3571      3572      3749      3754
      3571      3572      3749      3750      3572      3575      3576      3579
      3572      3575      3576      3753      3572      3749      3754      3753
      3572      3749      3754      3755      3572      3749      3750      3745
      3572      3749      3750      3751      3573      3396      3399      3398
      3573      3396      3399      3400      3573      3574      3575      3572
      3573      3574      3575      3576      3573      3578      3579      3576
      3573      3578      3579      3580      3574      3569      3570      3565
      3574      3569      3570      3571      3574      3573      3578      3577
      3574      3573      3578      3579      3574      3575      3576      3579
      3574      3575      3576      3753      3575      3572      3749      3754
      3575      3572      3749      3750      3575      3576      3579      3578
      3575      3576      3579      3580      3575      3576      3753      3754
      3575      3576      3753      3758      3576      3579      3580      3583
      3576      3579      3580      3757      3576      3753      3754      3749
      3576      3753      3754      3755      3576      3753      3758      3757
      3576      3753      3758      3759      3577      3400      3403      3402
      3577      3400      3403      3404      3577      3578      3579      3576
      3577      3578      3579      3580      3577      3582      3583      3580
      3577      3582      3583      3584      3578      3573      3574      3569
      3578      3573      3574      3575      3578      3577      3582      3581
      3578      3577      3582      3583      3578      3579      3580      3583
      3578      3579      3580      3757      3579      3576      3753      3754
      3579      3576      3753      3758      3579      3580      3583      3582
      3579      3580      3583      3584      3579      3580      3757      3758
      3579      3580      3757      3762      3580      3583      3584      3587
      3580      3583      3584      3761      3580      3757      3758      3753
      3580      3757      3758      3759      3580      3757      3762      3761
      3580      3757      3762      3763      3581      3404      3407      3406
      3581      3404      3407      3408      3581      3582      3583      3580
      3581      3582      3583      3584      3581      3586      3587      3584
      3581      3586      3587      3588      3582      3577      3578      3573
      3582      3577      3578      3579      3582      3581      3586      3585
      3582      3581      3586      3587      3582      3583      3584      3587
      3582      3583      3584      3761      3583      3580      3757      3758
      3583      3580      3757      3762      3583      3584      3587      3586
      3583      3584      3587      3588      3583      3584      3761      3762
      3583      3584      3761      3766      3584      3587      3588      3591
      3584      3587      3588      3765      3584      3761      3762      3757
      3584      3761      3762      3763      3584      3761      3766      3765
      3584      3761      3766      3767      3585      3408      3411      3410
      3585      3408      3411      3412      3585      3586      3587      3584
      3585      3586      3587      3588      3585      3590      3591      3588
      3585      3590      3591      3592      3586      3581      3582      3577
      3586      3581      3582      3583      3586      3585      3590      3589
      3586      3585      3590      3591      3586      3587      3588      3591
      3586      3587      3588      3765      3587      3584      3761      3762
      3587      3584      3761      3766      3587      3588      3591      3590
      3587      3588      3591      3592      3587      3588      3765      3766
      3587      3588      3765      3770      3588      3591      3592      3595
      3588      3591      3592      3769      3588      3765      3766      3761
      3588      3765      3766      3767      3588      3765      3770      3769
      3588      3765      3770      3771      3589      3412      3415      3414
      3589      3412      3415      3416      3589      3590      3591      3588
      3589      3590      3591      3592      3589      3594      3595      3592
      3589      3594      3595      3596      3590      3585      3586      3581
      3590      3585      3586      3587      3590      3589      3594      3593
      3590      3589      3594      3595      3590      3591      3592      3595
      3590      3591      3592      3769      3591      3588      3765      3766
      3591      3588      3765      3770      3591      3592      3595      3594
      3591      3592      3595      3596      3591      3592      3769      3770
      3591      3592      3769      3774      3592      3595      3596      3599
      3592      3595      3596      3773      3592      3769      3770      3765
      3592      3769      3770      3771      3592      3769      3774      3773
      3592      3769      3774      3775      3593      3416      3419      3418
      3593      3416      3419      3420      3593      3594      3595      3592
      3593      3594      3595      3596      3593      3598      3599      3596
      3593      3598      3599      3600      3594      3589      3590      3585
      3594      3589      3590      3591      3594      3593      3598      3597
      3594      3593      3598      3599      3594      3595      3596      3599
      3594      3595      3596      3773      3595      3592      3769      3770
      3595      3592      3769      3774      3595      3596      3599      3598
      3595      3596      3599      3600      3595      3596      3773      3774
      3595      3596      3773      3778      3596      3599      3600      3777
      3596      3773      3774      3769      3596      3773      3774      3775
      3596      3773      3778      3777      3596      3773      3778      3779
      3597      3598      3599      3596      3597      3598      3599      3600
      3598      3593      3594      3589      3598      3593      3594      3595
      3598      3599      3600      3777      3599      3596      3773      3774
      3599      3596      3773      3778      3599      3600      3777      3778
      3600      3777      3778      3773      3600      3777      3778      3779
      3601      3424      3427      3426      3601      3424      3427      3428
      3601      3602      3603      3604      3601      3606      3607      3604
      3601      3606      3607      3608      3602      3601      3606      3605
      3602      3601      3606      3607      3602      3603      3604      3781
      3602      3603      3604      3607      3603      3604      3781      3782
      3603      3604      3781      3786      3603      3604      3607      3606
      3603      3604      3607      3608      3604      3607      3608      3785
      3604      3607      3608      3611      3604      3781      3782      3783
      3604      3781      3786      3785      3604      3781      3786      3787
      3605      3428      3431      3430      3605      3428      3431      3432
      3605      3606      3607      3604      3605      3606      3607      3608
      3605      3610      3611      3608      3605      3610      3611      3612
      3606      3601      3602      3603      3606      3605      3610      3609
      3606      3605      3610      3611      3606      3607      3608      3785
      3606      3607      3608      3611      3607      3604      3781      3782
      3607      3604      3781      3786      3607      3608      3785      3786
      3607      3608      3785      3790      3607      3608      3611      3610
      3607      3608      3611      3612      3608      3611      3612      3615
      3608      3611      3612      3789      3608      3785      3786      3781
      3608      3785      3786      3787      3608      3785      3790      3789
      3608      3785      3790      3791      3609      3432      3435      3434
      3609      3432      3435      3436      3609      3610      3611      3608
      3609      3610      3611      3612      3609      3614      3615      3612
      3609      3614      3615      3616      3610      3605      3606      3601
      3610      3605      3606      3607      3610      3609      3614      3613
      3610      3609      3614      3615      3610      3611      3612      3615
      3610      3611      3612      3789      3611      3608      3785      3786
      3611      3608      3785      3790      3611      3612      3615      3614
      3611      3612      3615      3616      3611      3612      3789      3790
      3611      3612      3789      3794      3612      3615      3616      3619
      3612      3615      3616      3793      3612      3789      3790      3785
      3612      3789      3790      3791      3612      3789      3794      3793
      3612      3789      3794      3795      3613      3436      3439      3438
      3613      3436      3439      3440      3613      3614      3615      3612
      3613      3614      3615      3616      3613      3618      3619      3616
      3613      3618      3619      3620      3614      3609      3610      3605
      3614      3609      3610      3611      3614      3613      3618      3617
      3614      3613      3618      3619      3614      3615      3616      3619
      3614      3615      3616      3793      3615      3612      3789      3790
      3615      3612      3789      3794      3615      3616      3619      3618
      3615      3616      3619      3620      3615      3616      3793      3794
      3615      3616      3793      3798      3616      3619      3620      3797
      3616      3619      3620      3623      3616      3793      3794      3789
      3616      3793      3794      3795      3616      3793      3798      3797
      3616      3793      3798      3799      3617      3440      3443      3442
      3617      3440      3443      3444      3617      3618      3619      3616
      3617      3618      3619      3620      3617      3622      3623      3620
      3617      3622      3623      3624      3618      3613      3614      3609
      3618      3613      3614      3615      3618      3617      3622      3621
      3618      3617      3622      3623      3618      3619      3620      3797
      3618      3619      3620      3623      3619      3616      3793      3794
      3619      3616      3793      3798      3619      3620      3797      3802
      3619      3620      3797      3798      3619      3620      3623      3622
      3619      3620      3623      3624      3620      3623      3624      3801
      3620      3623      3624      3627      3620      3797      3802      3801
      3620      3797      3802      3803      3620      3797      3798      3793
      3620      3797      3798      3799      3621      3444      3447      3446
      3621      3444      3447      3448      3621      3622      3623      3620
      3621      3622      3623      3624      3621      3626      3627      3624
      3621      3626      3627      3628      3622      3617      3618      3613
      3622      3617      3618      3619      3622      3621      3626      3625
      3622      3621      3626      3627      3622      3623      3624      3801
      3622      3623      3624      3627      3623      3620      3797      3802
      3623      3620      3797      3798      3623      3624      3801      3802
      3623      3624      3801      3806      3623      3624      3627      3626
      3623      3624      3627      3628      3624      3627      3628      3805
      3624      3627      3628      3631      3624      3801      3802      3797
      3624      3801      3802      3803      3624      3801      3806      3805
      3624      3801      3806      3807      3625      3448      3451      3450
      3625      3448      3451      3452      3625      3626      3627      3624
      3625      3626      3627      3628      3625      3630      3631      3628
      3625      3630      3631      3632      3626      3621      3622      3617
      3626      3621      3622      3623      3626      3625      3630      3629
      3626      3625      3630      3631      3626      3627      3628      3805
      3626      3627      3628      3631      3627      3624      3801      3802
      3627      3624      3801      3806      3627      3628      3805      3806
      3627      3628      3805      3810      3627      3628      3631      3630
      3627      3628      3631      3632      3628      3631      3632      3635
      3628      3631      3632      3809      3628      3805      3806      3801
      3628      3805      3806      3807      3628      3805      3810      3809
      3628      3805      3810      3811      3629      3452      3455      3454
      3629      3452      3455      3456      3629      3630      3631      3628
      3629      3630      3631      3632      3629      3634      3635      3632
      3629      3634      3635      3636      3630      3625      3626      3621
      3630      3625      3626      3627      3630      3629      3634      3633
      3630      3629      3634      3635      3630      3631      3632      3635
      3630      3631      3632      3809      3631      3628      3805      3806
      3631      3628      3805      3810      3631      3632      3635      3634
      3631      3632      3635      3636      3631      3632      3809      3814
      3631      3632      3809      3810      3632      3635      3636      3639
      3632      3635      3636      3813      3632      3809      3814      3813
      3632      3809      3814      3815      3632      3809      3810      3805
      3632      3809      3810      3811      3633      3456      3459      3458
      3633      3456      3459      3460      3633      3634      3635      3632
      3633      3634      3635      3636      3633      3638      3639      3636
      3633      3638      3639      3640      3634      3629      3630      3625
      3634      3629      3630      3631      3634      3633      3638      3637
      3634      3633      3638      3639      3634      3635      3636      3639
      3634      3635      3636      3813      3635      3632      3809      3814
      3635      3632      3809      3810      3635      3636      3639      3638
      3635      3636      3639      3640      3635      3636      3813      3818
      3635      3636      3813      3814      3636      3639      3640      3817
      3636      3639      3640      3643      3636      3813      3818      3817
      3636      3813      3818      3819      3636      3813      3814      3809
      3636      3813      3814      3815      3637      3460      3463      3462
      3637      3460      3463      3464      3637      3638      3639      3636
      3637      3638      3639      3640      3637      3642      3643      3640
      3637      3642      3643      3644      3638      3633      3634      3629
      3638      3633      3634      3635      3638      3637      3642      3641
      3638      3637      3642      3643      3638      3639      3640      3817
      3638      3639      3640      3643      3639      3636      3813      3818
      3639      3636      3813      3814      3639      3640      3817      3822
      3639      3640      3817      3818      3639      3640      3643      3642
      3639      3640      3643      3644      3640      3643      3644      3821
      3640      3643      3644      3647      3640      3817      3822      3821
      3640      3817      3822      3823      3640      3817      3818      3813
      3640      3817      3818      3819      3641      3464      3467      3466
      3641      3464      3467      3468      3641      3642      3643      3640
      3641      3642      3643      3644      3641      3646      3647      3644
      3641      3646      3647      3648      3642      3637      3638      3633
      3642      3637      3638      3639      3642      3641      3646      3645
      3642      3641      3646      3647      3642      3643      3644      3821
      3642      3643      3644      3647      3643      3640      3817      3822
      3643      3640      3817      3818      3643      3644      3821      3822
      3643      3644      3821      3826      3643      3644      3647      3646
      3643      3644      3647      3648      3644      3647      3648      3825
      3644      3647      3648      3651      3644      3821      3822      3817
      3644      3821      3822      3823      3644      3821      3826      3825
      3644      3821      3826      3827      3645      3468      3471      3470
      3645      3468      3471      3472      3645      3646      3647      3644
      3645      3646      3647      3648      3645      3650      3651      3648
      3645      3650      3651      3652      3646      3641      3642      3637
      3646      3641      3642      3643      3646      3645      3650      3649
      3646      3645      3650      3651      3646      3647      3648      3825
      3646      3647      3648      3651      3647      3644      3821      3822
      3647      3644      3821      3826      3647      3648      3825      3826
      3647      3648      3825      3830      3647      3648      3651      3650
      3647      3648      3651      3652      3648      3651      3652      3829
      3648      3651      3652      3655      3648      3825      3826      3821
      3648      3825      3826      3827      3648      3825      3830      3829
      3648      3825      3830      3831      3649      3472      3475      3474
      3649      3472      3475      3476      3649      3650      3651      3648
      3649      3650      3651      3652      3649      3654      3655      3652
      3649      3654      3655      3656      3650      3645      3646      3641
      3650      3645      3646      3647      3650      3649      3654      3653
      3650      3649      3654      3655      3650      3651      3652      3829
      3650      3651      3652      3655      3651      3648      3825      3826
      3651      3648      3825      3830      3651      3652      3829      3834
      3651      3652      3829      3830      3651      3652      3655      3654
      3651      3652      3655      3656      3652      3655      3656      3833
      3652      3655      3656      3659      3652      3829      3834      3833
      3652      3829      3834      3835      3652      3829      3830      3825
      3652      3829      3830      3831      3653      3476      3479      3478
      3653      3476      3479      3480      3653      3654      3655      3652
      3653      3654      3655      3656      3653      3658      3659      3656
      3653      3658      3659      3660      3654      3649      3650      3645
      3654      3649      3650      3651      3654      3653      3658      3657
      3654      3653      3658      3659      3654      3655      3656      3833
      3654      3655      3656      3659      3655      3652      3829      3834
      3655      3652      3829      3830      3655      3656      3833      3838
      3655      3656      3833      3834      3655      3656      3659      3658
      3655      3656      3659      3660      3656      3659      3660      3837
      3656      3659      3660      3663      3656      3833      3838      3837
      3656      3833      3838      3839      3656      3833      3834      3829
      3656      3833      3834      3835      3657      3480      3483      3482
      3657      3480      3483      3484      3657      3658      3659      3656
      3657      3658      3659      3660      3657      3662      3663      3660
      3657      3662      3663      3664      3658      3653      3654      3649
      3658      3653      3654      3655      3658      3657      3662      3661
      3658      3657      3662      3663      3658      3659      3660      3837
      3658      3659      3660      3663      3659      3656      3833      3838
      3659      3656      3833      3834      3659      3660      3837      3842
      3659      3660      3837      3838      3659      3660      3663      3662
      3659      3660      3663      3664      3660      3663      3664      3841
      3660      3663      3664      3667      3660      3837      3842      3841
      3660      3837      3842      3843      3660      3837      3838      3833
      3660      3837      3838      3839      3661      3484      3487      3486
      3661      3484      3487      3488      3661      3662      3663      3660
      3661      3662      3663      3664      3661      3666      3667      3664
      3661      3666      3667      3668      3662      3657      3658      3653
      3662      3657      3658      3659      3662      3661      3666      3665
      3662      3661      3666      3667      3662      3663      3664      3841
      3662      3663      3664      3667      3663      3660      3837      3842
      3663      3660      3837      3838      3663      3664      3841      3842
      3663      3664      3841      3846      3663      3664      3667      3666
      3663      3664      3667      3668      3664      3667      3668      3845
      3664      3667      3668      3671      3664      3841      3842      3837
      3664      3841      3842      3843      3664      3841      3846      3845
      3664      3841      3846      3847      3665      3488      3491      3490
      3665      3488      3491      3492      3665      3666      3667      3664
      3665      3666      3667      3668      3665      3670      3671      3668
      3665      3670      3671      3672      3666      3661      3662      3657
      3666      3661      3662      3663      3666      3665      3670      3669
      3666      3665      3670      3671      3666      3667      3668      3845
      3666      3667      3668      3671      3667      3664      3841      3842
      3667      3664      3841      3846      3667      3668      3845      3846
      3667      3668      3845      3850      3667      3668      3671      3670
      3667      3668      3671      3672      3668      3671      3672      3675
      3668      3671      3672      3849      3668      3845      3846      3841
      3668      3845      3846      3847      3668      3845      3850      3849
      3668      3845      3850      3851      3669      3492      3495      3494
      3669      3492      3495      3496      3669      3670      3671      3668
      3669      3670      3671      3672      3669      3674      3675      3672
      3669      3674      3675      3676      3670      3665      3666      3661
      3670      3665      3666      3667      3670      3669      3674      3673
      3670      3669      3674      3675      3670      3671      3672      3675
      3670      3671      3672      3849      3671      3668      3845      3846
      3671      3668      3845      3850      3671      3672      3675      3674
      3671      3672      3675      3676      3671      3672      3849      3850
      3671      3672      3849      3854      3672      3675      3676      3679
      3672      3675      3676      3853      3672      3849      3850      3845
      3672      3849      3850      3851      3672      3849      3854      3853
      3672      3849      3854      3855      3673      3496      3499      3498
      3673      3496      3499      3500      3673      3674      3675      3672
      3673      3674      3675      3676      3673      3678      3679      3676
      3673      3678      3679      3680      3674      3669      3670      3665
      3674      3669      3670      3671      3674      3673      3678      3677
      3674      3673      3678      3679      3674      3675      3676      3679
      3674      3675      3676      3853      3675      3672      3849      3850
      3675      3672      3849      3854      3675      3676      3679      3678
      3675      3676      3679      3680      3675      3676      3853      3854
      3675      3676      3853      3858      3676      3679      3680      3857
      3676      3679      3680      3683      3676      3853      3854      3849
      3676      3853      3854      3855      3676      3853      3858      3857
      3676      3853      3858      3859      3677      3500      3503      3502
      3677      3500      3503      3504      3677      3678      3679      3676
      3677      3678      3679      3680      3677      3682      3683      3680
      3677      3682      3683      3684      3678      3673      3674      3669
      3678      3673      3674      3675      3678      3677      3682      3681
      3678      3677      3682      3683      3678      3679      3680      3857
      3678      3679      3680      3683      3679      3676      3853      3854
      3679      3676      3853      3858      3679      3680      3857      3858
      3679      3680      3857      3862      3679      3680      3683      3682
      3679      3680      3683      3684      3680      3683      3684      3861
      3680      3683      3684      3687      3680      3857      3858      3853
      3680      3857      3858      3859      3680      3857      3862      3861
      3680      3857      3862      3863      3681      3504      3507      3506
      3681      3504      3507      3508      3681      3682      3683      3680
      3681      3682      3683      3684      3681      3686      3687      3684
      3681      3686      3687      3688      3682      3677      3678      3673
      3682      3677      3678      3679      3682      3681      3686      3685
      3682      3681      3686      3687      3682      3683      3684      3861
      3682      3683      3684      3687      3683      3680      3857      3858
      3683      3680      3857      3862      3683      3684      3861      3862
      3683      3684      3861      3866      3683      3684      3687      3686
      3683      3684      3687      3688      3684      3687      3688      3865
      3684      3687      3688      3691      3684      3861      3862      3857
      3684      3861      3862      3863      3684      3861      3866      3865
      3684      3861      3866      3867      3685      3508      3511      3510
      3685      3508      3511      3512      3685      3686      3687      3684
      3685      3686      3687      3688      3685      3690      3691      3688
      3685      3690      3691      3692      3686      3681      3682      3677
      3686      3681      3682      3683      3686      3685      3690      3689
      3686      3685      3690      3691      3686      3687      3688      3865
      3686      3687      3688      3691      3687      3684      3861      3862
      3687      3684      3861      3866      3687      3688      3865      3866
      3687      3688      3865      3870      3687      3688      3691      3690
      3687      3688      3691      3692      3688      3691      3692      3695
      3688      3691      3692      3869      3688      3865      3866      3861
      3688      3865      3866      3867      3688      3865      3870      3869
      3688      3865      3870      3871      3689      3512      3515      3514
      3689      3512      3515      3516      3689      3690      3691      3688
      3689      3690      3691      3692      3689      3694      3695      3692
      3689      3694      3695      3696      3690      3685      3686      3681
      3690      3685      3686      3687      3690      3689      3694      3693
      3690      3689      3694      3695      3690      3691      3692      3695
      3690      3691      3692      3869      3691      3688      3865      3866
      3691      3688      3865      3870      3691      3692      3695      3694
      3691      3692      3695      3696      3691      3692      3869      3874
      3691      3692      3869      3870      3692      3695      3696      3699
      3692      3695      3696      3873      3692      3869      3874      3873
      3692      3869      3874      3875      3692      3869      3870      3865
      3692      3869      3870      3871      3693      3516      3519      3518
      3693      3516      3519      3520      3693      3694      3695      3692
      3693      3694      3695      3696      3693      3698      3699      3696
      3693      3698      3699      3700      3694      3689      3690      3685
      3694      3689      3690      3691      3694      3693      3698      3697
      3694      3693      3698      3699      3694      3695      3696      3699
      3694      3695      3696      3873      3695      3692      3869      3874
      3695      3692      3869      3870      3695      3696      3699      3698
      3695      3696      3699      3700      3695      3696      3873      3878
      3695      3696      3873      3874      3696      3699      3700      3877
      3696      3699      3700      3703      3696      3873      3878      3877
      3696      3873      3878      3879      3696      3873      3874      3869
      3696      3873      3874      3875      3697      3520      3523      3522
      3697      3520      3523      3524      3697      3698      3699      3696
      3697      3698      3699      3700      3697      3702      3703      3700
      3697      3702      3703      3704      3698      3693      3694      3689
      3698      3693      3694      3695      3698      3697      3702      3701
      3698      3697      3702      3703      3698      3699      3700      3877
      3698      3699      3700      3703      3699      3696      3873      3878
      3699      3696      3873      3874      3699      3700      3877      3882
      3699      3700      3877      3878      3699      3700      3703      3702
      3699      3700      3703      3704      3700      3703      3704      3881
      3700      3703      3704      3707      3700      3877      3882      3881
      3700      3877      3882      3883      3700      3877      3878      3873
      3700      3877      3878      3879      3701      3524      3527      3526
      3701      3524      3527      3528      3701      3702      3703      3700
      3701      3702      3703      3704      3701      3706      3707      3704
      3701      3706      3707      3708      3702      3697      3698      3693
      3702      3697      3698      3699      3702      3701      3706      3705
      3702      3701      3706      3707      3702      3703      3704      3881
      3702      3703      3704      3707      3703      3700      3877      3882
      3703      3700      3877      3878      3703      3704      3881      3882
      3703      3704      3881      3886      3703      3704      3707      3706
      3703      3704      3707      3708      3704      3707      3708      3885
      3704      3707      3708      3711      3704      3881      3882      3877
      3704      3881      3882      3883      3704      3881      3886      3885
      3704      3881      3886      3887      3705      3528      3531      3530
      3705      3528      3531      3532      3705      3706      3707      3704
      3705      3706      3707      3708      3705      3710      3711      3708
      3705      3710      3711      3712      3706      3701      3702      3697
      3706      3701      3702      3703      3706      3705      3710      3709
      3706      3705      3710      3711      3706      3707      3708      3885
      3706      3707      3708      3711      3707      3704      3881      3882
      3707      3704      3881      3886      3707      3708      3885      3886
      3707      3708      3885      3890      3707      3708      3711      3710
      3707      3708      3711      3712      3708      3711      3712      3889
      3708      3711      3712      3715      3708      3885      3886      3881
      3708      3885      3886      3887      3708      3885      3890      3889
      3708      3885      3890      3891      3709      3532      3535      3534
      3709      3532      3535      3536      3709      3710      3711      3708
      3709      3710      3711      3712      3709      3714      3715      3712
      3709      3714      3715      3716      3710      3705      3706      3701
      3710      3705      3706      3707      3710      3709      3714      3713
      3710      3709      3714      3715      3710      3711      3712      3889
      3710      3711      3712      3715      3711      3708      3885      3886
      3711      3708      3885      3890      3711      3712      3889      3894
      3711      3712      3889      3890      3711      3712      3715      3714
      3711      3712      3715      3716      3712      3715      3716      3893
      3712      3715      3716      3719      3712      3889      3894      3893
      3712      3889      3894      3895      3712      3889      3890      3885
      3712      3889      3890      3891      3713      3536      3539      3538
      3713      3536      3539      3540      3713      3714      3715      3712
      3713      3714      3715      3716      3713      3718      3719      3716
      3713      3718      3719      3720      3714      3709      3710      3705
      3714      3709      3710      3711      3714      3713      3718      3717
      3714      3713      3718      3719      3714      3715      3716      3893
      3714      3715      3716      3719      3715      3712      3889      3894
      3715      3712      3889      3890      3715      3716      3893      3898
      3715      3716      3893      3894      3715      3716      3719      3718
      3715      3716      3719      3720      3716      3719      3720      3897
      3716      3719      3720      3723      3716      3893      3898      3897
      3716      3893      3898      3899      3716      3893      3894      3889
      3716      3893      3894      3895      3717      3540      3543      3542
      3717      3540      3543      3544      3717      3718      3719      3716
      3717      3718      3719      3720      3717      3722      3723      3720
      3717      3722      3723      3724      3718      3713      3714      3709
      3718      3713      3714      3715      3718      3717      3722      3721
      3718      3717      3722      3723      3718      3719      3720      3897
      3718      3719      3720      3723      3719      3716      3893      3898
      3719      3716      3893      3894      3719      3720      3897      3902
      3719      3720      3897      3898      3719      3720      3723      3722
      3719      3720      3723      3724      3720      3723      3724      3901
      3720      3723      3724      3727      3720      3897      3902      3901
      3720      3897      3902      3903      3720      3897      3898      3893
      3720      3897      3898      3899      3721      3544      3547      3546
      3721      3544      3547      3548      3721      3722      3723      3720
      3721      3722      3723      3724      3721      3726      3727      3724
      3721      3726      3727      3728      3722      3717      3718      3713
      3722      3717      3718      3719      3722      3721      3726      3725
      3722      3721      3726      3727      3722      3723      3724      3901
      3722      3723      3724      3727      3723      3720      3897      3902
      3723      3720      3897      3898      3723      3724      3901      3902
      3723      3724      3901      3906      3723      3724      3727      3726
      3723      3724      3727      3728      3724      3727      3728      3905
      3724      3727      3728      3731      3724      3901      3902      3897
      3724      3901      3902      3903      3724      3901      3906      3905
      3724      3901      3906      3907      3725      3548      3551      3550
      3725      3548      3551      3552      3725      3726      3727      3724
      3725      3726      3727      3728      3725      3730      3731      3728
      3725      3730      3731      3732      3726      3721      3722      3717
      3726      3721      3722      3723      3726      3725      3730      3729
      3726      3725      3730      3731      3726      3727      3728      3905
      3726      3727      3728      3731      3727      3724      3901      3902
      3727      3724      3901      3906      3727      3728      3905      3906
      3727      3728      3905      3910      3727      3728      3731      3730
      3727      3728      3731      3732      3728      3731      3732      3735
      3728      3731      3732      3909      3728      3905      3906      3901
      3728      3905      3906      3907      3728      3905      3910      3909
      3728      3905      3910      3911      3729      3552      3555      3554
      3729      3552      3555      3556      3729      3730      3731      3728
      3729      3730      3731      3732      3729      3734      3735      3732
      3729      3734      3735      3736      3730      3725      3726      3721
      3730      3725      3726      3727      3730      3729      3734      3733
      3730      3729      3734      3735      3730      3731      3732      3735
      3730      3731      3732      3909      3731      3728      3905      3906
      3731      3728      3905      3910      3731      3732      3735      3734
      3731      3732      3735      3736      3731      3732      3909      3910
      3731      3732      3909      3914      3732      3735      3736      3739
      3732      3735      3736      3913      3732      3909      3910      3905
      3732      3909      3910      3911      3732      3909      3914      3913
      3732      3909      3914      3915      3733      3556      3559      3558
      3733      3556      3559      3560      3733      3734      3735      3732
      3733      3734      3735      3736      3733      3738      3739      3736
      3733      3738      3739      3740      3734      3729      3730      3725
      3734      3729      3730      3731      3734      3733      3738      3737
      3734      3733      3738      3739      3734      3735      3736      3739
      3734      3735      3736      3913      3735      3732      3909      3910
      3735      3732      3909      3914      3735      3736      3739      3738
      3735      3736      3739      3740      3735      3736      3913      3914
      3735      3736      3913      3918      3736      3739      3740      3917
      3736      3739      3740      3743      3736      3913      3914      3909
      3736      3913      3914      3915      3736      3913      3918      3917
      3736      3913      3918      3919      3737      3560      3563      3562
      3737      3560      3563      3564      3737      3738      3739      3736
      3737      3738      3739      3740      3737      3742      3743      3740
      3737      3742      3743      3744      3738      3733      3734      3729
      3738      3733      3734      3735      3738      3737      3742      3741
      3738      3737      3742      3743      3738      3739      3740      3917
      3738      3739      3740      3743      3739      3736      3913      3914
      3739      3736      3913      3918      3739      3740      3917      3918
      3739      3740      3917      3922      3739      3740      3743      3742
      3739      3740      3743      3744      3740      3743      3744      3921
      3740      3743      3744      3747      3740      3917      3918      3913
      3740      3917      3918      3919      3740      3917      3922      3921
      3740      3917      3922      3923      3741      3564      3567      3566
      3741      3564      3567      3568      3741      3742      3743      3740
      3741      3742      3743      3744      3741      3746      3747      3744
      3741      3746      3747      3748      3742      3737      3738      3733
      3742      3737      3738      3739      3742      3741      3746      3745
      3742      3741      3746      3747      3742      3743      3744      3921
      3742      3743      3744      3747      3743      3740      3917      3918
      3743      3740      3917      3922      3743      3744      3921      3922
      3743      3744      3921      3926      3743      3744      3747      3746
      3743      3744      3747      3748      3744      3747      3748      3925
      3744      3747      3748      3751      3744      3921      3922      3917
      3744      3921      3922      3923      3744      3921      3926      3925
      3744      3921      3926      3927      3745      3568      3571      3570
      3745      3568      3571      3572      3745      3746      3747      3744
      3745      3746      3747      3748      3745      3750      3751      3748
      3745      3750      3751      3752      3746      3741      3742      3737
      3746      3741      3742      3743      3746      3745      3750      3749
      3746      3745      3750      3751      3746      3747      3748      3925
      3746      3747      3748      3751      3747      3744      3921      3922
      3747      3744      3921      3926      3747      3748      3925      3926
      3747      3748      3925      3930      3747      3748      3751      3750
      3747      3748      3751      3752      3748      3751      3752      3755
      3748      3751      3752      3929      3748      3925      3926      3921
      3748      3925      3926      3927      3748      3925      3930      3929
      3748      3925      3930      3931      3749      3572      3575      3574
      3749      3572      3575      3576      3749      3750      3751      3748
      3749      3750      3751      3752      3749      3754      3755      3752
      3749      3754      3755      3756      3750      3745      3746      3741
      3750      3745      3746      3747      3750      3749      3754      3753
      3750      3749      3754      3755      3750      3751      3752      3755
      3750      3751      3752      3929      3751      3748      3925      3926
      3751      3748      3925      3930      3751      3752      3755      3754
      3751      3752      3755      3756      3751      3752      3929      3934
      3751      3752      3929      3930      3752      3755      3756      3759
      3752      3755      3756      3933      3752      3929      3934      3933
      3752      3929      3934      3935      3752      3929      3930      3925
      3752      3929      3930      3931      3753      3576      3579      3578
      3753      3576      3579      3580      3753      3754      3755      3752
      3753      3754      3755      3756      3753      3758      3759      3756
      3753      3758      3759      3760      3754      3749      3750      3745
      3754      3749      3750      3751      3754      3753      3758      3757
      3754      3753      3758      3759      3754      3755      3756      3759
      3754      3755      3756      3933      3755      3752      3929      3934
      3755      3752      3929      3930      3755      3756      3759      3758
      3755      3756      3759      3760      3755      3756      3933      3938
      3755      3756      3933      3934      3756      3759      3760      3937
      3756      3759      3760      3763      3756      3933      3938      3937
      3756      3933      3938      3939      3756      3933      3934      3929
      3756      3933      3934      3935      3757      3580      3583      3582
      3757      3580      3583      3584      3757      3758      3759      3756
      3757      3758      3759      3760      3757      3762      3763      3760
      3757      3762      3763      3764      3758      3753      3754      3749
      3758      3753      3754      3755      3758      3757      3762      3761
      3758      3757      3762      3763      3758      3759      3760      3937
      3758      3759      3760      3763      3759      3756      3933      3938
      3759      3756      3933      3934      3759      3760      3937      3942
      3759      3760      3937      3938      3759      3760      3763      3762
      3759      3760      3763      3764      3760      3763      3764      3941
      3760      3763      3764      3767      3760      3937      3942      3941
      3760      3937      3942      3943      3760      3937      3938      3933
      3760      3937      3938      3939      3761      3584      3587      3586
      3761      3584      3587      3588      3761      3762      3763      3760
      3761      3762      3763      3764      3761      3766      3767      3764
      3761      3766      3767      3768      3762      3757      3758      3753
      3762      3757      3758      3759      3762      3761      3766      3765
      3762      3761      3766      3767      3762      3763      3764      3941
      3762      3763      3764      3767      3763      3760      3937      3942
      3763      3760      3937      3938      3763      3764      3941      3942
      3763      3764      3941      3946      3763      3764      3767      3766
      3763      3764      3767      3768      3764      3767      3768      3945
      3764      3767      3768      3771      3764      3941      3942      3937
      3764      3941      3942      3943      3764      3941      3946      3945
      3764      3941      3946      3947      3765      3588      3591      3590
      3765      3588      3591      3592      3765      3766      3767      3764
      3765      3766      3767      3768      3765      3770      3771      3768
      3765      3770      3771      3772      3766      3761      3762      3757
      3766      3761      3762      3763      3766      3765      3770      3769
      3766      3765      3770      3771      3766      3767      3768      3945
      3766      3767      3768      3771      3767      3764      3941      3942
      3767      3764      3941      3946      3767      3768      3945      3946
      3767      3768      3945      3950      3767      3768      3771      3770
      3767      3768      3771      3772      3768      3771      3772      3775
      3768      3771      3772      3949      3768      3945      3946      3941
      3768      3945      3946      3947      3768      3945      3950      3949
      3768      3945      3950      3951      3769      3592      3595      3594
      3769      3592      3595      3596      3769      3770      3771      3768
      3769      3770      3771      3772      3769      3774      3775      3772
      3769      3774      3775      3776      3770      3765      3766      3761
      3770      3765      3766      3767      3770      3769      3774      3773
      3770      3769      3774      3775      3770      3771      3772      3775
      3770      3771      3772      3949      3771      3768      3945      3946
      3771      3768      3945      3950      3771      3772      3775      3774
      3771      3772      3775      3776      3771      3772      3949      3954
      3771      3772      3949      3950      3772      3775      3776      3953
      3772      3775      3776      3779      3772      3949      3954      3953
      3772      3949      3954      3955      3772      3949      3950      3945
      3772      3949      3950      3951      3773      3596      3599      3598
      3773      3596      3599      3600      3773      3774      3775      3772
      3773      3774      3775      3776      3773      3778      3779      3776
      3773      3778      3779      3780      3774      3769      3770      3765
      3774      3769      3770      3771      3774      3773      3778      3777
      3774      3773      3778      3779      3774      3775      3776      3953
      3774      3775      3776      3779      3775      3772      3949      3954
      3775      3772      3949      3950      3775      3776      3953      3958
      3775      3776      3953      3954      3775      3776      3779      3778
      3775      3776      3779      3780      3776      3779      3780      3957
      3776      3953      3958      3957      3776      3953      3958      3959
      3776      3953      3954      3949      3776      3953      3954      3955
      3777      3778      3779      3776      3777      3778      3779      3780
      3778      3773      3774      3769      3778      3773      3774      3775
      3778      3779      3780      3957      3779      3776      3953      3958
      3779      3776      3953      3954      3779      3780      3957      3958
      3780      3957      3958      3953      3780      3957      3958      3959
      3781      3604      3607      3606      3781      3604      3607      3608
      3781      3782      3783      3784      3781      3786      3787      3784
      3781      3786      3787      3788      3782      3781      3786      3785
      3782      3781      3786      3787      3782      3783      3784      3961
      3782      3783      3784      3787      3783      3784      3961      3962
      3783      3784      3961      3966      3783      3784      3787      3786
      3783      3784      3787      3788      3784      3787      3788      3965
      3784      3787      3788      3791      3784      3961      3962      3963
      3784      3961      3966      3965      3784      3961      3966      3967
      3785      3608      3611      3610      3785      3608      3611      3612
      3785      3786      3787      3784      3785      3786      3787      3788
      3785      3790      3791      3788      3785      3790      3791      3792
      3786      3781      3782      3783      3786      3785      3790      3789
      3786      3785      3790      3791      3786      3787      3788      3965
      3786      3787      3788      3791      3787      3784      3961      3962
      3787      3784      3961      3966      3787      3788      3965      3966
      3787      3788      3965      3970      3787      3788      3791      3790
      3787      3788      3791      3792      3788      3791      3792      3795
      3788      3791      3792      3969      3788      3965      3966      3961
      3788      3965      3966      3967      3788      3965      3970      3969
      3788      3965      3970      3971      3789      3612      3615      3614
      3789      3612      3615      3616      3789      3790      3791      3788
      3789      3790      3791      3792      3789      3794      3795      3792
      3789      3794      3795      3796      3790      3785      3786      3781
      3790      3785      3786      3787      3790      3789      3794      3793
      3790      3789      3794      3795      3790      3791      3792      3795
      3790      3791      3792      3969      3791      3788      3965      3966
      3791      3788      3965      3970      3791      3792      3795      3794
      3791      3792      3795      3796      3791      3792      3969      3974
      3791      3792      3969      3970      3792      3795      3796      3973
      3792      3795      3796      3799      3792      3969      3974      3973
      3792      3969      3974      3975      3792      3969      3970      3965
      3792      3969      3970      3971      3793      3616      3619      3618
      3793      3616      3619      3620      3793      3794      3795      3792
      3793      3794      3795      3796      3793      3798      3799      3796
      3793      3798      3799      3800      3794      3789      3790      3785
      3794      3789      3790      3791      3794      3793      3798      3797
      3794      3793      3798      3799      3794      3795      3796      3973
      3794      3795      3796      3799      3795      3792      3969      3974
      3795      3792      3969      3970      3795      3796      3973      3978
      3795      3796      3973      3974      3795      3796      3799      3798
      3795      3796      3799      3800      3796      3799      3800      3977
      3796      3799      3800      3803      3796      3973      3978      3977
      3796      3973      3978      3979      3796      3973      3974      3969
      3796      3973      3974      3975      3797      3620      3623      3622
      3797      3620      3623      3624      3797      3798      3799      3796
      3797      3798      3799      3800      3797      3802      3803      3800
      3797      3802      3803      3804      3798      3793      3794      3789
      3798      3793      3794      3795      3798      3797      3802      3801
      3798      3797      3802      3803      3798      3799      3800      3977
      3798      3799      3800      3803      3799      3796      3973      3978
      3799      3796      3973      3974      3799      3800      3977      3982
      3799      3800      3977      3978      3799      3800      3803      3802
      3799      3800      3803      3804      3800      3803      3804      3981
      3800      3803      3804      3807      3800      3977      3982      3981
      3800      3977      3982      3983      3800      3977      3978      3973
      3800      3977      3978      3979      3801      3624      3627      3626
      3801      3624      3627      3628      3801      3802      3803      3800
      3801      3802      3803      3804      3801      3806      3807      3804
      3801      3806      3807      3808      3802      3797      3798      3793
      3802      3797      3798      3799      3802      3801      3806      3805
      3802      3801      3806      3807      3802      3803      3804      3981
      3802      3803      3804      3807      3803      3800      3977      3982
      3803      3800      3977      3978      3803      3804      3981      3982
      3803      3804      3981      3986      3803      3804      3807      3806
      3803      3804      3807      3808      3804      3807      3808      3985
      3804      3807      3808      3811      3804      3981      3982      3977
      3804      3981      3982      3983      3804      3981      3986      3985
      3804      3981      3986      3987      3805      3628      3631      3630
      3805      3628      3631      3632      3805      3806      3807      3804
      3805      3806      3807      3808      3805      3810      3811      3808
      3805      3810      3811      3812      3806      3801      3802      3797
      3806      3801      3802      3803      3806      3805      3810      3809
      3806      3805      3810      3811      3806      3807      3808      3985
      3806      3807      3808      3811      3807      3804      3981      3982
      3807      3804      3981      3986      3807      3808      3985      3986
      3807      3808      3985      3990      3807      3808      3811      3810
      3807      3808      3811      3812      3808      3811      3812      3989
      3808      3811      3812      3815      3808      3985      3986      3981
      3808      3985      3986      3987      3808      3985      3990      3989
      3808      3985      3990      3991      3809      3632      3635      3634
      3809      3632      3635      3636      3809      3810      3811      3808
      3809      3810      3811      3812      3809      3814      3815      3812
      3809      3814      3815      3816      3810      3805      3806      3801
      3810      3805      3806      3807      3810      3809      3814      3813
      3810      3809      3814      3815      3810      3811      3812      3989
      3810      3811      3812      3815      3811      3808      3985      3986
      3811      3808      3985      3990      3811      3812      3989      3994
      3811      3812      3989      3990      3811      3812      3815      3814
      3811      3812      3815      3816      3812      3815      3816      3819
      3812      3815      3816      3993      3812      3989      3994      3993
      3812      3989      3994      3995      3812      3989      3990      3985
      3812      3989      3990      3991      3813      3636      3639      3638
      3813      3636      3639      3640      3813      3814      3815      3812
      3813      3814      3815      3816      3813      3818      3819      3816
      3813      3818      3819      3820      3814      3809      3810      3805
      3814      3809      3810      3811      3814      3813      3818      3817
      3814      3813      3818      3819      3814      3815      3816      3819
      3814      3815      3816      3993      3815      3812      3989      3994
      3815      3812      3989      3990      3815      3816      3819      3818
      3815      3816      3819      3820      3815      3816      3993      3994
      3815      3816      3993      3998      3816      3819      3820      3997
      3816      3819      3820      3823      3816      3993      3994      3989
      3816      3993      3994      3995      3816      3993      3998      3997
      3816      3993      3998      3999      3817      3640      3643      3642
      3817      3640      3643      3644      3817      3818      3819      3816
      3817      3818      3819      3820      3817      3822      3823      3820
      3817      3822      3823      3824      3818      3813      3814      3809
      3818      3813      3814      3815      3818      3817      3822      3821
      3818      3817      3822      3823      3818      3819      3820      3997
      3818      3819      3820      3823      3819      3816      3993      3994
      3819      3816      3993      3998      3819      3820      3997      3998
      3819      3820      3997      4002      3819      3820      3823      3822
      3819      3820      3823      3824      3820      3823      3824      4001
      3820      3823      3824      3827      3820      3997      3998      3993
      3820      3997      3998      3999      3820      3997      4002      4001
      3820      3997      4002      4003      3821      3644      3647      3646
      3821      3644      3647      3648      3821      3822      3823      3820
      3821      3822      3823      3824      3821      3826      3827      3824
      3821      3826      3827      3828      3822      3817      3818      3813
      3822      3817      3818      3819      3822      3821      3826      3825
      3822      3821      3826      3827      3822      3823      3824      4001
      3822      3823      3824      3827      3823      3820      3997      3998
      3823      3820      3997      4002      3823      3824      4001      4002
      3823      3824      4001      4006      3823      3824      3827      3826
      3823      3824      3827      3828      3824      3827      3828      4005
      3824      3827      3828      3831      3824      4001      4002      3997
      3824      4001      4002      4003      3824      4001      4006      4005
      3824      4001      4006      4007      3825      3648      3651      3650
      3825      3648      3651      3652      3825      3826      3827      3824
      3825      3826      3827      3828      3825      3830      3831      3828
      3825      3830      3831      3832      3826      3821      3822      3817
      3826      3821      3822      3823      3826      3825      3830      3829
      3826      3825      3830      3831      3826      3827      3828      4005
      3826      3827      3828      3831      3827      3824      4001      4002
      3827      3824      4001      4006      3827      3828      4005      4006
      3827      3828      4005      4010      3827      3828      3831      3830
      3827      3828      3831      3832      3828      3831      3832      3835
      3828      3831      3832      4009      3828      4005      4006      4001
      3828      4005      4006      4007      3828      4005      4010      4009
      3828      4005      4010      4011      3829      3652      3655      3654
      3829      3652      3655      3656      3829      3830      3831      3828
      3829      3830      3831      3832      3829      3834      3835      3832
      3829      3834      3835      3836      3830      3825      3826      3821
      3830      3825      3826      3827      3830      3829      3834      3833
      3830      3829      3834      3835      3830      3831      3832      3835
      3830      3831      3832      4009      3831      3828      4005      4006
      3831      3828      4005      4010      3831      3832      3835      3834
      3831      3832      3835      3836      3831      3832      4009      4010
      3831      3832      4009      4014      3832      3835      3836      3839
      3832      3835      3836      4013      3832      4009      4010      4005
      3832      4009      4010      4011      3832      4009      4014      4013
      3832      4009      4014      4015      3833      3656      3659      3658
      3833      3656      3659      3660      3833      3834      3835      3832
      3833      3834      3835      3836      3833      3838      3839      3836
      3833      3838      3839      3840      3834      3829      3830      3825
      3834      3829      3830      3831      3834      3833      3838      3837
      3834      3833      3838      3839      3834      3835      3836      3839
      3834      3835      3836      4013      3835      3832      4009      4010
      3835      3832      4009      4014      3835      3836      3839      3838
      3835      3836      3839      3840      3835      3836      4013      4014
      3835      3836      4013      4018      3836      3839      3840      4017
      3836      3839      3840      3843      3836      4013      4014      4009
      3836      4013      4014      4015      3836      4013      4018      4017
      3836      4013      4018      4019      3837      3660      3663      3662
      3837      3660      3663      3664      3837      3838      3839      3836
      3837      3838      3839      3840      3837      3842      3843      3840
      3837      3842      3843      3844      3838      3833      3834      3829
      3838      3833      3834      3835      3838      3837      3842      3841
      3838      3837      3842      3843      3838      3839      3840      4017
      3838      3839      3840      3843      3839      3836      4013      4014
      3839      3836      4013      4018      3839      3840      4017      4022
      3839      3840      4017      4018      3839      3840      3843      3842
      3839      3840      3843      3844      3840      3843      3844      4021
      3840      3843      3844      3847      3840      4017      4022      4021
      3840      4017      4022      4023      3840      4017      4018      4013
      3840      4017      4018      4019      3841      3664      3667      3666
      3841      3664      3667      3668      3841      3842      3843      3840
      3841      3842      3843      3844      3841      3846      3847      3844
      3841      3846      3847      3848      3842      3837      3838      3833
      3842      3837      3838      3839      3842      3841      3846      3845
      3842      3841      3846      3847      3842      3843      3844      4021
      3842      3843      3844      3847      3843      3840      4017      4022
      3843      3840      4017      4018      3843      3844      4021      4022
      3843      3844      4021      4026      3843      3844      3847      3846
      3843      3844      3847      3848      3844      3847      3848      4025
      3844      3847      3848      3851      3844      4021      4022      4017
      3844      4021      4022      4023      3844      4021      4026      4025
      3844      4021      4026      4027      3845      3668      3671      3670
      3845      3668      3671      3672      3845      3846      3847      3844
      3845      3846      3847      3848      3845      3850      3851      3848
      3845      3850      3851      3852      3846      3841      3842      3837
      3846      3841      3842      3843      3846      3845      3850      3849
      3846      3845      3850      3851      3846      3847      3848      4025
      3846      3847      3848      3851      3847      3844      4021      4022
      3847      3844      4021      4026      3847      3848      4025      4026
      3847      3848      4025      4030      3847      3848      3851      3850
      3847      3848      3851      3852      3848      3851      3852      3855
      3848      3851      3852      4029      3848      4025      4026      4021
      3848      4025      4026      4027      3848      4025      4030      4029
      3848      4025      4030      4031      3849      3672      3675      3674
      3849      3672      3675      3676      3849      3850      3851      3848
      3849      3850      3851      3852      3849      3854      3855      3852
      3849      3854      3855      3856      3850      3845      3846      3841
      3850      3845      3846      3847      3850      3849      3854      3853
      3850      3849      3854      3855      3850      3851      3852      3855
      3850      3851      3852      4029      3851      3848      4025      4026
      3851      3848      4025      4030      3851      3852      3855      3854
      3851      3852      3855      3856      3851      3852      4029      4034
      3851      3852      4029      4030      3852      3855      3856      3859
      3852      3855      3856      4033      3852      4029      4034      4033
      3852      4029      4034      4035      3852      4029      4030      4025
      3852      4029      4030      4031      3853      3676      3679      3678
      3853      3676      3679      3680      3853      3854      3855      3852
      3853      3854      3855      3856      3853      3858      3859      3856
      3853      3858      3859      3860      3854      3849      3850      3845
      3854      3849      3850      3851      3854      3853      3858      3857
      3854      3853      3858      3859      3854      3855      3856      3859
      3854      3855      3856      4033      3855      3852      4029      4034
      3855      3852      4029      4030      3855      3856      3859      3858
      3855      3856      3859      3860      3855      3856      4033      4038
      3855      3856      4033      4034      3856      3859      3860      4037
      3856      3859      3860      3863      3856      4033      4038      4037
      3856      4033      4038      4039      3856      4033      4034      4029
      3856      4033      4034      4035      3857      3680      3683      3682
      3857      3680      3683      3684      3857      3858      3859      3856
      3857      3858      3859      3860      3857      3862      3863      3860
      3857      3862      3863      3864      3858      3853      3854      3849
      3858      3853      3854      3855      3858      3857      3862      3861
      3858      3857      3862      3863      3858      3859      3860      4037
      3858      3859      3860      3863      3859      3856      4033      4038
      3859      3856      4033      4034      3859      3860      4037      4042
      3859      3860      4037      4038      3859      3860      3863      3862
      3859      3860      3863      3864      3860      3863      3864      4041
      3860      3863      3864      3867      3860      4037      4042      4041
      3860      4037      4042      4043      3860      4037      4038      4033
      3860      4037      4038      4039      3861      3684      3687      3686
      3861      3684      3687      3688      3861      3862      3863      3860
      3861      3862      3863      3864      3861      3866      3867      3864
      3861      3866      3867      3868      3862      3857      3858      3853
      3862      3857      3858      3859      3862      3861      3866      3865
      3862      3861      3866      3867      3862      3863      3864      4041
      3862      3863      3864      3867      3863      3860      4037      4042
      3863      3860      4037      4038      3863      3864      4041      4042
      3863      3864      4041      4046      3863      3864      3867      3866
      3863      3864      3867      3868      3864      3867      3868      4045
      3864      3867      3868      3871      3864      4041      4042      4037
      3864      4041      4042      4043      3864      4041      4046      4045
      3864      4041      4046      4047      3865      3688      3691      3690
      3865      3688      3691      3692      3865      3866      3867      3864
      3865      3866      3867      3868      3865      3870      3871      3868
      3865      3870      3871      3872      3866      3861      3862      3857
      3866      3861      3862      3863      3866      3865      3870      3869
      3866      3865      3870      3871      3866      3867      3868      4045
      3866      3867      3868      3871      3867      3864      4041      4042
      3867      3864      4041      4046      3867      3868      4045      4046
      3867      3868      4045      4050      3867      3868      3871      3870
      3867      3868      3871      3872      3868      3871      3872      4049
      3868      3871      3872      3875      3868      4045      4046      4041
      3868      4045      4046      4047      3868      4045      4050      4049
      3868      4045      4050      4051      3869      3692      3695      3694
      3869      3692      3695      3696      3869      3870      3871      3868
      3869      3870      3871      3872      3869      3874      3875      3872
      3869      3874      3875      3876      3870      3865      3866      3861
      3870      3865      3866      3867      3870      3869      3874      3873
      3870      3869      3874      3875      3870      3871      3872      4049
      3870      3871      3872      3875      3871      3868      4045      4046
      3871      3868      4045      4050      3871      3872      4049      4054
      3871      3872      4049      4050      3871      3872      3875      3874
      3871      3872      3875      3876      3872      3875      3876      4053
      3872      3875      3876      3879      3872      4049      4054      4053
      3872      4049      4054      4055      3872      4049      4050      4045
      3872      4049      4050      4051      3873      3696      3699      3698
      3873      3696      3699      3700      3873      3874      3875      3872
      3873      3874      3875      3876      3873      3878      3879      3876
      3873      3878      3879      3880      3874      3869      3870      3865
      3874      3869      3870      3871      3874      3873      3878      3877
      3874      3873      3878      3879      3874      3875      3876      4053
      3874      3875      3876      3879      3875      3872      4049      4054
      3875      3872      4049      4050      3875      3876      4053      4058
      3875      3876      4053      4054      3875      3876      3879      3878
      3875      3876      3879      3880      3876      3879      3880      4057
      3876      3879      3880      3883      3876      4053      4058      4057
      3876      4053      4058      4059      3876      4053      4054      4049
      3876      4053      4054      4055      3877      3700      3703      3702
      3877      3700      3703      3704      3877      3878      3879      3876
      3877      3878      3879      3880      3877      3882      3883      3880
      3877      3882      3883      3884      3878      3873      3874      3869
      3878      3873      3874      3875      3878      3877      3882      3881
      3878      3877      3882      3883      3878      3879      3880      4057
      3878      3879      3880      3883      3879      3876      4053      4058
      3879      3876      4053      4054      3879      3880      4057      4062
      3879      3880      4057      4058      3879      3880      3883      3882
      3879      3880      3883      3884      3880      3883      3884      4061
      3880      3883      3884      3887      3880      4057      4062      4061
      3880      4057      4062      4063      3880      4057      4058      4053
      3880      4057      4058      4059      3881      3704      3707      3706
      3881      3704      3707      3708      3881      3882      3883      3880
      3881      3882      3883      3884      3881      3886      3887      3884
      3881      3886      3887      3888      3882      3877      3878      3873
      3882      3877      3878      3879      3882      3881      3886      3885
      3882      3881      3886      3887      3882      3883      3884      4061
      3882      3883      3884      3887      3883      3880      4057      4062
      3883      3880      4057      4058      3883      3884      4061      4062
      3883      3884      4061      4066      3883      3884      3887      3886
      3883      3884      3887      3888      3884      3887      3888      4065
      3884      3887      3888      3891      3884      4061      4062      4057
      3884      4061      4062      4063      3884      4061      4066      4065
      3884      4061      4066      4067      3885      3708      3711      3710
      3885      3708      3711      3712      3885      3886      3887      3884
      3885      3886      3887      3888      3885      3890      3891      3888
      3885      3890      3891      3892      3886      3881      3882      3877
      3886      3881      3882      3883      3886      3885      3890      3889
      3886      3885      3890      3891      3886      3887      3888      4065
      3886      3887      3888      3891      3887      3884      4061      4062
      3887      3884      4061      4066      3887      3888      4065      4066
      3887      3888      4065      4070      3887      3888      3891      3890
      3887      3888      3891      3892      3888      3891      3892      3895
      3888      3891      3892      4069      3888      4065      4066      4061
      3888      4065      4066      4067      3888      4065      4070      4069
      3888      4065      4070      4071      3889      3712      3715      3714
      3889      3712      3715      3716      3889      3890      3891      3888
      3889      3890      3891      3892      3889      3894      3895      3892
      3889      3894      3895      3896      3890      3885      3886      3881
      3890      3885      3886      3887      3890      3889      3894      3893
      3890      3889      3894      3895      3890      3891      3892      3895
      3890      3891      3892      4069      3891      3888      4065      4066
      3891      3888      4065      4070      3891      3892      3895      3894
      3891      3892      3895      3896      3891      3892      4069      4070
      3891      3892      4069      4074      3892      3895      3896      3899
      3892      3895      3896      4073      3892      4069      4070      4065
      3892      4069      4070      4071      3892      4069      4074      4073
      3892      4069      4074      4075      3893      3716      3719      3718
      3893      3716      3719      3720      3893      3894      3895      3892
      3893      3894      3895      3896      3893      3898      3899      3896
      3893      3898      3899      3900      3894      3889      3890      3885
      3894      3889      3890      3891      3894      3893      3898      3897
      3894      3893      3898      3899      3894      3895      3896      3899
      3894      3895      3896      4073      3895      3892      4069      4070
      3895      3892      4069      4074      3895      3896      3899      3898
      3895      3896      3899      3900      3895      3896      4073      4074
      3895      3896      4073      4078      3896      3899      3900      4077
      3896      3899      3900      3903      3896      4073      4074      4069
      3896      4073      4074      4075      3896      4073      4078      4077
      3896      4073      4078      4079      3897      3720      3723      3722
      3897      3720      3723      3724      3897      3898      3899      3896
      3897      3898      3899      3900      3897      3902      3903      3900
      3897      3902      3903      3904      3898      3893      3894      3889
      3898      3893      3894      3895      3898      3897      3902      3901
      3898      3897      3902      3903      3898      3899      3900      4077
      3898      3899      3900      3903      3899      3896      4073      4074
      3899      3896      4073      4078      3899      3900      4077      4078
      3899      3900      4077      4082      3899      3900      3903      3902
      3899      3900      3903      3904      3900      3903      3904      4081
      3900      3903      3904      3907      3900      4077      4078      4073
      3900      4077      4078      4079      3900      4077      4082      4081
      3900      4077      4082      4083      3901      3724      3727      3726
      3901      3724      3727      3728      3901      3902      3903      3900
      3901      3902      3903      3904      3901      3906      3907      3904
      3901      3906      3907      3908      3902      3897      3898      3893
      3902      3897      3898      3899      3902      3901      3906      3905
      3902      3901      3906      3907      3902      3903      3904      4081
      3902      3903      3904      3907      3903      3900      4077      4078
      3903      3900      4077      4082      3903      3904      4081      4082
      3903      3904      4081      4086      3903      3904      3907      3906
      3903      3904      3907      3908      3904      3907      3908      4085
      3904      3907      3908      3911      3904      4081      4082      4077
      3904      4081      4082      4083      3904      4081      4086      4085
      3904      4081      4086      4087      3905      3728      3731      3730
      3905      3728      3731      3732      3905      3906      3907      3904
      3905      3906      3907      3908      3905      3910      3911      3908
      3905      3910      3911      3912      3906      3901      3902      3897
      3906      3901      3902      3903      3906      3905      3910      3909
      3906      3905      3910      3911      3906      3907      3908      4085
      3906      3907      3908      3911      3907      3904      4081      4082
      3907      3904      4081      4086      3907      3908      4085      4086
      3907      3908      4085      4090      3907      3908      3911      3910
      3907      3908      3911      3912      3908      3911      3912      3915
      3908      3911      3912      4089      3908      4085      4086      4081
      3908      4085      4086      4087      3908      4085      4090      4089
      3908      4085      4090      4091      3909      3732      3735      3734
      3909      3732      3735      3736      3909      3910      3911      3908
      3909      3910      3911      3912      3909      3914      3915      3912
      3909      3914      3915      3916      3910      3905      3906      3901
      3910      3905      3906      3907      3910      3909      3914      3913
      3910      3909      3914      3915      3910      3911      3912      3915
      3910      3911      3912      4089      3911      3908      4085      4086
      3911      3908      4085      4090      3911      3912      3915      3914
      3911      3912      3915      3916      3911      3912      4089      4094
      3911      3912      4089      4090      3912      3915      3916      3919
      3912      3915      3916      4093      3912      4089      4094      4093
      3912      4089      4094      4095      3912      4089      4090      4085
      3912      4089      4090      4091      3913      3736      3739      3738
      3913      3736      3739      3740      3913      3914      3915      3912
      3913      3914      3915      3916      3913      3918      3919      3916
      3913      3918      3919      3920      3914      3909      3910      3905
      3914      3909      3910      3911      3914      3913      3918      3917
      3914      3913      3918      3919      3914      3915      3916      3919
      3914      3915      3916      4093      3915      3912      4089      4094
      3915      3912      4089      4090      3915      3916      3919      3918
      3915      3916      3919      3920      3915      3916      4093      4098
      3915      3916      4093      4094      3916      3919      3920      4097
      3916      3919      3920      3923      3916      4093      4098      4097
      3916      4093      4098      4099      3916      4093      4094      4089
      3916      4093      4094      4095      3917      3740      3743      3742
      3917      3740      3743      3744      3917      3918      3919      3916
      3917      3918      3919      3920      3917      3922      3923      3920
      3917      3922      3923      3924      3918      3913      3914      3909
      3918      3913      3914      3915      3918      3917      3922      3921
      3918      3917      3922      3923      3918      3919      3920      4097
      3918      3919      3920      3923      3919      3916      4093      4098
      3919      3916      4093      4094      3919      3920      4097      4102
      3919      3920      4097      4098      3919      3920      3923      3922
      3919      3920      3923      3924      3920      3923      3924      4101
      3920      3923      3924      3927      3920      4097      4102      4101
      3920      4097      4102      4103      3920      4097      4098      4093
      3920      4097      4098      4099      3921      3744      3747      3746
      3921      3744      3747      3748      3921      3922      3923      3920
      3921      3922      3923      3924      3921      3926      3927      3924
      3921      3926      3927      3928      3922      3917      3918      3913
      3922      3917      3918      3919      3922      3921      3926      3925
      3922      3921      3926      3927      3922      3923      3924      4101
      3922      3923      3924      3927      3923      3920      4097      4102
      3923      3920      4097      4098      3923      3924      4101      4102
      3923      3924      4101      4106      3923      3924      3927      3926
      3923      3924      3927      3928      3924      3927      3928      4105
      3924      3927      3928      3931      3924      4101      4102      4097
      3924      4101      4102      4103      3924      4101      4106      4105
      3924      4101      4106      4107      3925      3748      3751      3750
      3925      3748      3751      3752      3925      3926      3927      3924
      3925      3926      3927      3928      3925      3930      3931      3928
      3925      3930      3931      3932      3926      3921      3922      3917
      3926      3921      3922      3923      3926      3925      3930      3929
      3926      3925      3930      3931      3926      3927      3928      4105
      3926      3927      3928      3931      3927      3924      4101      4102
      3927      3924      4101      4106      3927      3928      4105      4106
      3927      3928      4105      4110      3927      3928      3931      3930
      3927      3928      3931      3932      3928      3931      3932      4109
      3928      3931      3932      3935      3928      4105      4106      4101
      3928      4105      4106      4107      3928      4105      4110      4109
      3928      4105      4110      4111      3929      3752      3755      3754
      3929      3752      3755      3756      3929      3930      3931      3928
      3929      3930      3931      3932      3929      3934      3935      3932
      3929      3934      3935      3936      3930      3925      3926      3921
      3930      3925      3926      3927      3930      3929      3934      3933
      3930      3929      3934      3935      3930      3931      3932      4109
      3930      3931      3932      3935      3931      3928      4105      4106
      3931      3928      4105      4110      3931      3932      4109      4114
      3931      3932      4109      4110      3931      3932      3935      3934
      3931      3932      3935      3936      3932      3935      3936      4113
      3932      3935      3936      3939      3932      4109      4114      4113
      3932      4109      4114      4115      3932      4109      4110      4105
      3932      4109      4110      4111      3933      3756      3759      3758
      3933      3756      3759      3760      3933      3934      3935      3932
      3933      3934      3935      3936      3933      3938      3939      3936
      3933      3938      3939      3940      3934      3929      3930      3925
      3934      3929      3930      3931      3934      3933      3938      3937
      3934      3933      3938      3939      3934      3935      3936      4113
      3934      3935      3936      3939      3935      3932      4109      4114
      3935      3932      4109      4110      3935      3936      4113      4118
      3935      3936      4113      4114      3935      3936      3939      3938
      3935      3936      3939      3940      3936      3939      3940      4117
      3936      3939      3940      3943      3936      4113      4118      4117
      3936      4113      4118      4119      3936      4113      4114      4109
      3936      4113      4114      4115      3937      3760      3763      3762
      3937      3760      3763      3764      3937      3938      3939      3936
      3937      3938      3939      3940      3937      3942      3943      3940
      3937      3942      3943      3944      3938      3933      3934      3929
      3938      3933      3934      3935      3938      3937      3942      3941
      3938      3937      3942      3943      3938      3939      3940      4117
      3938      3939      3940      3943      3939      3936      4113      4118
      3939      3936      4113      4114      3939      3940      4117      4122
      3939      3940      4117      4118      3939      3940      3943      3942
      3939      3940      3943      3944      3940      3943      3944      4121
      3940      3943      3944      3947      3940      4117      4122      4121
      3940      4117      4122      4123      3940      4117      4118      4113
      3940      4117      4118      4119      3941      3764      3767      3766
      3941      3764      3767      3768      3941      3942      3943      3940
      3941      3942      3943      3944      3941      3946      3947      3944
      3941      3946      3947      3948      3942      3937      3938      3933
      3942      3937      3938      3939      3942      3941      3946      3945
      3942      3941      3946      3947      3942      3943      3944      4121
      3942      3943      3944      3947      3943      3940      4117      4122
      3943      3940      4117      4118      3943      3944      4121      4122
      3943      3944      4121      4126      3943      3944      3947      3946
      3943      3944      3947      3948      3944      3947      3948      4125
      3944      3947      3948      3951      3944      4121      4122      4117
      3944      4121      4122      4123      3944      4121      4126      4125
      3944      4121      4126      4127      3945      3768      3771      3770
      3945      3768      3771      3772      3945      3946      3947      3944
      3945      3946      3947      3948      3945      3950      3951      3948
      3945      3950      3951      3952      3946      3941      3942      3937
      3946      3941      3942      3943      3946      3945      3950      3949
      3946      3945      3950      3951      3946      3947      3948      4125
      3946      3947      3948      3951      3947      3944      4121      4122
      3947      3944      4121      4126      3947      3948      4125      4126
      3947      3948      4125      4130      3947      3948      3951      3950
      3947      3948      3951      3952      3948      3951      3952      3955
      3948      3951      3952      4129      3948      4125      4126      4121
      3948      4125      4126      4127      3948      4125      4130      4129
      3948      4125      4130      4131      3949      3772      3775      3774
      3949      3772      3775      3776      3949      3950      3951      3948
      3949      3950      3951      3952      3949      3954      3955      3952
      3949      3954      3955      3956      3950      3945      3946      3941
      3950      3945      3946      3947      3950      3949      3954      3953
      3950      3949      3954      3955      3950      3951      3952      3955
      3950      3951      3952      4129      3951      3948      4125      4126
      3951      3948      4125      4130      3951      3952      3955      3954
      3951      3952      3955      3956      3951      3952      4129      4130
      3951      3952      4129      4134      3952      3955      3956      3959
      3952      3955      3956      4133      3952      4129      4130      4125
      3952      4129      4130      4131      3952      4129      4134      4133
      3952      4129      4134      4135      3953      3776      3779      3778
      3953      3776      3779      3780      3953      3954      3955      3952
      3953      3954      3955      3956      3953      3958      3959      3956
      3953      3958      3959      3960      3954      3949      3950      3945
      3954      3949      3950      3951      3954      3953      3958      3957
      3954      3953      3958      3959      3954      3955      3956      3959
      3954      3955      3956      4133      3955      3952      4129      4130
      3955      3952      4129      4134      3955      3956      3959      3958
      3955      3956      3959      3960      3955      3956      4133      4134
      3955      3956      4133      4138      3956      3959      3960      4137
      3956      4133      4134      4129      3956      4133      4134      4135
      3956      4133      4138      4137      3956      4133      4138      4139
      3957      3958      3959      3956      3957      3958      3959      3960
      3958      3953      3954      3949      3958      3953      3954      3955
      3958      3959      3960      4137      3959      3956      4133      4134
      3959      3956      4133      4138      3959      3960      4137      4138
      3960      4137      4138      4133      3960      4137      4138      4139
      3961      3784      3787      3786      3961      3784      3787      3788
      3961      3962      3963      3964      3961      3966      3967      3964
      3961      3966      3967      3968      3962      3961      3966      3965
      3962      3961      3966      3967      3962      3963      3964      4141
      3962      3963      3964      3967      3963      3964      4141      4142
      3963      3964      4141      4146      3963      3964      3967      3966
      3963      3964      3967      3968      3964      3967      3968      4145
      3964      3967      3968      3971      3964      4141      4142      4143
      3964      4141      4146      4145      3964      4141      4146      4147
      3965      3788      3791      3790      3965      3788      3791      3792
      3965      3966      3967      3964      3965      3966      3967      3968
      3965      3970      3971      3968      3965      3970      3971      3972
      3966      3961      3962      3963      3966      3965      3970      3969
      3966      3965      3970      3971      3966      3967      3968      4145
      3966      3967      3968      3971      3967      3964      4141      4142
      3967      3964      4141      4146      3967      3968      4145      4146
      3967      3968      4145      4150      3967      3968      3971      3970
      3967      3968      3971      3972      3968      3971      3972      3975
      3968      3971      3972      4149      3968      4145      4146      4141
      3968      4145      4146      4147      3968      4145      4150      4149
      3968      4145      4150      4151      3969      3792      3795      3794
      3969      3792      3795      3796      3969      3970      3971      3968
      3969      3970      3971      3972      3969      3974      3975      3972
      3969      3974      3975      3976      3970      3965      3966      3961
      3970      3965      3966      3967      3970      3969      3974      3973
      3970      3969      3974      3975      3970      3971      3972      3975
      3970      3971      3972      4149      3971      3968      4145      4146
      3971      3968      4145      4150      3971      3972      3975      3974
      3971      3972      3975      3976      3971      3972      4149      4150
      3971      3972      4149      4154      3972      3975      3976      3979
      3972      3975      3976      4153      3972      4149      4150      4145
      3972      4149      4150      4151      3972      4149      4154      4153
      3972      4149      4154      4155      3973      3796      3799      3798
      3973      3796      3799      3800      3973      3974      3975      3972
      3973      3974      3975      3976      3973      3978      3979      3976
      3973      3978      3979      3980      3974      3969      3970      3965
      3974      3969      3970      3971      3974      3973      3978      3977
      3974      3973      3978      3979      3974      3975      3976      3979
      3974      3975      3976      4153      3975      3972      4149      4150
      3975      3972      4149      4154      3975      3976      3979      3978
      3975      3976      3979      3980      3975      3976      4153      4154
      3975      3976      4153      4158      3976      3979      3980      4157
      3976      3979      3980      3983      3976      4153      4154      4149
      3976      4153      4154      4155      3976      4153      4158      4157
      3976      4153      4158      4159      3977      3800      3803      3802
      3977      3800      3803      3804      3977      3978      3979      3976
      3977      3978      3979      3980      3977      3982      3983      3980
      3977      3982      3983      3984      3978      3973      3974      3969
      3978      3973      3974      3975      3978      3977      3982      3981
      3978      3977      3982      3983      3978      3979      3980      4157
      3978      3979      3980      3983      3979      3976      4153      4154
      3979      3976      4153      4158      3979      3980      4157      4158
      3979      3980      4157      4162      3979      3980      3983      3982
      3979      3980      3983      3984      3980      3983      3984      4161
      3980      3983      3984      3987      3980      4157      4158      4153
      3980      4157      4158      4159      3980      4157      4162      4161
      3980      4157      4162      4163      3981      3804      3807      3806
      3981      3804      3807      3808      3981      3982      3983      3980
      3981      3982      3983      3984      3981      3986      3987      3984
      3981      3986      3987      3988      3982      3977      3978      3973
      3982      3977      3978      3979      3982      3981      3986      3985
      3982      3981      3986      3987      3982      3983      3984      4161
      3982      3983      3984      3987      3983      3980      4157      4158
      3983      3980      4157      4162      3983      3984      4161      4162
      3983      3984      4161      4166      3983      3984      3987      3986
      3983      3984      3987      3988      3984      3987      3988      4165
      3984      3987      3988      3991      3984      4161      4162      4157
      3984      4161      4162      4163      3984      4161      4166      4165
      3984      4161      4166      4167      3985      3808      3811      3810
      3985      3808      3811      3812      3985      3986      3987      3984
      3985      3986      3987      3988      3985      3990      3991      3988
      3985      3990      3991      3992      3986      3981      3982      3977
      3986      3981      3982      3983      3986      3985      3990      3989
      3986      3985      3990      3991      3986      3987      3988      4165
      3986      3987      3988      3991      3987      3984      4161      4162
      3987      3984      4161      4166      3987      3988      4165      4166
      3987      3988      4165      4170      3987      3988      3991      3990
      3987      3988      3991      3992      3988      3991      3992      3995
      3988      3991      3992      4169      3988      4165      4166      4161
      3988      4165      4166      4167      3988      4165      4170      4169
      3988      4165      4170      4171      3989      3812      3815      3814
      3989      3812      3815      3816      3989      3990      3991      3988
      3989      3990      3991      3992      3989      3994      3995      3992
      3989      3994      3995      3996      3990      3985      3986      3981
      3990      3985      3986      3987      3990      3989      3994      3993
      3990      3989      3994      3995      3990      3991      3992      3995
      3990      3991      3992      4169      3991      3988      4165      4166
      3991      3988      4165      4170      3991      3992      3995      3994
      3991      3992      3995      3996      3991      3992      4169      4174
      3991      3992      4169      4170      3992      3995      3996      3999
      3992      3995      3996      4173      3992      4169      4174      4173
      3992      4169      4174      4175      3992      4169      4170      4165
      3992      4169      4170      4171      3993      3816      3819      3818
      3993      3816      3819      3820      3993      3994      3995      3992
      3993      3994      3995      3996      3993      3998      3999      3996
      3993      3998      3999      4000      3994      3989      3990      3985
      3994      3989      3990      3991      3994      3993      3998      3997
      3994      3993      3998      3999      3994      3995      3996      3999
      3994      3995      3996      4173      3995      3992      4169      4174
      3995      3992      4169      4170      3995      3996      3999      3998
      3995      3996      3999      4000      3995      3996      4173      4178
      3995      3996      4173      4174      3996      3999      4000      4177
      3996      3999      4000      4003      3996      4173      4178      4177
      3996      4173      4178      4179      3996      4173      4174      4169
      3996      4173      4174      4175      3997      3820      3823      3822
      3997      3820      3823      3824      3997      3998      3999      3996
      3997      3998      3999      4000      3997      4002      4003      4000
      3997      4002      4003      4004      3998      3993      3994      3989
      3998      3993      3994      3995      3998      3997      4002      4001
      3998      3997      4002      4003      3998      3999      4000      4177
      3998      3999      4000      4003      3999      3996      4173      4178
      3999      3996      4173      4174      3999      4000      4177      4182
      3999      4000      4177      4178      3999      4000      4003      4002
      3999      4000      4003      4004      4000      4003      4004      4181
      4000      4003      4004      4007      4000      4177      4182      4181
      4000      4177      4182      4183      4000      4177      4178      4173
      4000      4177      4178      4179      4001      3824      3827      3826
      4001      3824      3827      3828      4001      4002      4003      4000
      4001      4002      4003      4004      4001      4006      4007      4004
      4001      4006      4007      4008      4002      3997      3998      3993
      4002      3997      3998      3999      4002      4001      4006      4005
      4002      4001      4006      4007      4002      4003      4004      4181
      4002      4003      4004      4007      4003      4000      4177      4182
      4003      4000      4177      4178      4003      4004      4181      4182
      4003      4004      4181      4186      4003      4004      4007      4006
      4003      4004      4007      4008      4004      4007      4008      4185
      4004      4007      4008      4011      4004      4181      4182      4177
      4004      4181      4182      4183      4004      4181      4186      4185
      4004      4181      4186      4187      4005      3828      3831      3830
      4005      3828      3831      3832      4005      4006      4007      4004
      4005      4006      4007      4008      4005      4010      4011      4008
      4005      4010      4011      4012      4006      4001      4002      3997
      4006      4001      4002      4003      4006      4005      4010      4009
      4006      4005      4010      4011      4006      4007      4008      4185
      4006      4007      4008      4011      4007      4004      4181      4182
      4007      4004      4181      4186      4007      4008      4185      4186
      4007      4008      4185      4190      4007      4008      4011      4010
      4007      4008      4011      4012      4008      4011      4012      4015
      4008      4011      4012      4189      4008      4185      4186      4181
      4008      4185      4186      4187      4008      4185      4190      4189
      4008      4185      4190      4191      4009      3832      3835      3834
      4009      3832      3835      3836      4009      4010      4011      4008
      4009      4010      4011      4012      4009      4014      4015      4012
      4009      4014      4015      4016      4010      4005      4006      4001
      4010      4005      4006      4007      4010      4009      4014      4013
      4010      4009      4014      4015      4010      4011      4012      4015
      4010      4011      4012      4189      4011      4008      4185      4186
      4011      4008      4185      4190      4011      4012      4015      4014
      4011      4012      4015      4016      4011      4012      4189      4194
      4011      4012      4189      4190      4012      4015      4016      4193
      4012      4015      4016      4019      4012      4189      4194      4193
      4012      4189      4194      4195      4012      4189      4190      4185
      4012      4189      4190      4191      4013      3836      3839      3838
      4013      3836      3839      3840      4013      4014      4015      4012
      4013      4014      4015      4016      4013      4018      4019      4016
      4013      4018      4019      4020      4014      4009      4010      4005
      4014      4009      4010      4011      4014      4013      4018      4017
      4014      4013      4018      4019      4014      4015      4016      4193
      4014      4015      4016      4019      4015      4012      4189      4194
      4015      4012      4189      4190      4015      4016      4193      4198
      4015      4016      4193      4194      4015      4016      4019      4018
      4015      4016      4019      4020      4016      4019      4020      4197
      4016      4019      4020      4023      4016      4193      4198      4197
      4016      4193      4198      4199      4016      4193      4194      4189
      4016      4193      4194      4195      4017      3840      3843      3842
      4017      3840      3843      3844      4017      4018      4019      4016
      4017      4018      4019      4020      4017      4022      4023      4020
      4017      4022      4023      4024      4018      4013      4014      4009
      4018      4013      4014      4015      4018      4017      4022      4021
      4018      4017      4022      4023      4018      4019      4020      4197
      4018      4019      4020      4023      4019      4016      4193      4198
      4019      4016      4193      4194      4019      4020      4197      4202
      4019      4020      4197      4198      4019      4020      4023      4022
      4019      4020      4023      4024      4020      4023      4024      4201
      4020      4023      4024      4027      4020      4197      4202      4201
      4020      4197      4202      4203      4020      4197      4198      4193
      4020      4197      4198      4199      4021      3844      3847      3846
      4021      3844      3847      3848      4021      4022      4023      4020
      4021      4022      4023      4024      4021      4026      4027      4024
      4021      4026      4027      4028      4022      4017      4018      4013
      4022      4017      4018      4019      4022      4021      4026      4025
      4022      4021      4026      4027      4022      4023      4024      4201
      4022      4023      4024      4027      4023      4020      4197      4202
      4023      4020      4197      4198      4023      4024      4201      4202
      4023      4024      4201      4206      4023      4024      4027      4026
      4023      4024      4027      4028      4024      4027      4028      4205
      4024      4027      4028      4031      4024      4201      4202      4197
      4024      4201      4202      4203      4024      4201      4206      4205
      4024      4201      4206      4207      4025      3848      3851      3850
      4025      3848      3851      3852      4025      4026      4027      4024
      4025      4026      4027      4028      4025      4030      4031      4028
      4025      4030      4031      4032      4026      4021      4022      4017
      4026      4021      4022      4023      4026      4025      4030      4029
      4026      4025      4030      4031      4026      4027      4028      4205
      4026      4027      4028      4031      4027      4024      4201      4202
      4027      4024      4201      4206      4027      4028      4205      4206
      4027      4028      4205      4210      4027      4028      4031      4030
      4027      4028      4031      4032      4028      4031      4032      4209
      4028      4031      4032      4035      4028      4205      4206      4201
      4028      4205      4206      4207      4028      4205      4210      4209
      4028      4205      4210      4211      4029      3852      3855      3854
      4029      3852      3855      3856      4029      4030      4031      4028
      4029      4030      4031      4032      4029      4034      4035      4032
      4029      4034      4035      4036      4030      4025      4026      4021
      4030      4025      4026      4027      4030      4029      4034      4033
      4030      4029      4034      4035      4030      4031      4032      4209
      4030      4031      4032      4035      4031      4028      4205      4206
      4031      4028      4205      4210      4031      4032      4209      4214
      4031      4032      4209      4210      4031      4032      4035      4034
      4031      4032      4035      4036      4032      4035      4036      4039
      4032      4035      4036      4213      4032      4209      4214      4213
      4032      4209      4214      4215      4032      4209      4210      4205
      4032      4209      4210      4211      4033      3856      3859      3858
      4033      3856      3859      3860      4033      4034      4035      4032
      4033      4034      4035      4036      4033      4038      4039      4036
      4033      4038      4039      4040      4034      4029      4030      4025
      4034      4029      4030      4031      4034      4033      4038      4037
      4034      4033      4038      4039      4034      4035      4036      4039
      4034      4035      4036      4213      4035      4032      4209      4214
      4035      4032      4209      4210      4035      4036      4039      4038
      4035      4036      4039      4040      4035      4036      4213      4214
      4035      4036      4213      4218      4036      4039      4040      4217
      4036      4039      4040      4043      4036      4213      4214      4209
      4036      4213      4214      4215      4036      4213      4218      4217
      4036      4213      4218      4219      4037      3860      3863      3862
      4037      3860      3863      3864      4037      4038      4039      4036
      4037      4038      4039      4040      4037      4042      4043      4040
      4037      4042      4043      4044      4038      4033      4034      4029
      4038      4033      4034      4035      4038      4037      4042      4041
      4038      4037      4042      4043      4038      4039      4040      4217
      4038      4039      4040      4043      4039      4036      4213      4214
      4039      4036      4213      4218      4039      4040      4217      4218
      4039      4040      4217      4222      4039      4040      4043      4042
      4039      4040      4043      4044      4040      4043      4044      4221
      4040      4043      4044      4047      4040      4217      4218      4213
      4040      4217      4218      4219      4040      4217      4222      4221
      4040      4217      4222      4223      4041      3864      3867      3866
      4041      3864      3867      3868      4041      4042      4043      4040
      4041      4042      4043      4044      4041      4046      4047      4044
      4041      4046      4047      4048      4042      4037      4038      4033
      4042      4037      4038      4039      4042      4041      4046      4045
      4042      4041      4046      4047      4042      4043      4044      4221
      4042      4043      4044      4047      4043      4040      4217      4218
      4043      4040      4217      4222      4043      4044      4221      4222
      4043      4044      4221      4226      4043      4044      4047      4046
      4043      4044      4047      4048      4044      4047      4048      4225
      4044      4047      4048      4051      4044      4221      4222      4217
      4044      4221      4222      4223      4044      4221      4226      4225
      4044      4221      4226      4227      4045      3868      3871      3870
      4045      3868      3871      3872      4045      4046      4047      4044
      4045      4046      4047      4048      4045      4050      4051      4048
      4045      4050      4051      4052      4046      4041      4042      4037
      4046      4041      4042      4043      4046      4045      4050      4049
      4046      4045      4050      4051      4046      4047      4048      4225
      4046      4047      4048      4051      4047      4044      4221      4222
      4047      4044      4221      4226      4047      4048      4225      4226
      4047      4048      4225      4230      4047      4048      4051      4050
      4047      4048      4051      4052      4048      4051      4052      4055
      4048      4051      4052      4229      4048      4225      4226      4221
      4048      4225      4226      4227      4048      4225      4230      4229
      4048      4225      4230      4231      4049      3872      3875      3874
      4049      3872      3875      3876      4049      4050      4051      4048
      4049      4050      4051      4052      4049      4054      4055      4052
      4049      4054      4055      4056      4050      4045      4046      4041
      4050      4045      4046      4047      4050      4049      4054      4053
      4050      4049      4054      4055      4050      4051      4052      4055
      4050      4051      4052      4229      4051      4048      4225      4226
      4051      4048      4225      4230      4051      4052      4055      4054
      4051      4052      4055      4056      4051      4052      4229      4230
      4051      4052      4229      4234      4052      4055      4056      4059
      4052      4055      4056      4233      4052      4229      4230      4225
      4052      4229      4230      4231      4052      4229      4234      4233
      4052      4229      4234      4235      4053      3876      3879      3878
      4053      3876      3879      3880      4053      4054      4055      4052
      4053      4054      4055      4056      4053      4058      4059      4056
      4053      4058      4059      4060      4054      4049      4050      4045
      4054      4049      4050      4051      4054      4053      4058      4057
      4054      4053      4058      4059      4054      4055      4056      4059
      4054      4055      4056      4233      4055      4052      4229      4230
      4055      4052      4229      4234      4055      4056      4059      4058
      4055      4056      4059      4060      4055      4056      4233      4234
      4055      4056      4233      4238      4056      4059      4060      4237
      4056      4059      4060      4063      4056      4233      4234      4229
      4056      4233      4234      4235      4056      4233      4238      4237
      4056      4233      4238      4239      4057      3880      3883      3882
      4057      3880      3883      3884      4057      4058      4059      4056
      4057      4058      4059      4060      4057      4062      4063      4060
      4057      4062      4063      4064      4058      4053      4054      4049
      4058      4053      4054      4055      4058      4057      4062      4061
      4058      4057      4062      4063      4058      4059      4060      4237
      4058      4059      4060      4063      4059      4056      4233      4234
      4059      4056      4233      4238      4059      4060      4237      4242
      4059      4060      4237      4238      4059      4060      4063      4062
      4059      4060      4063      4064      4060      4063      4064      4241
      4060      4063      4064      4067      4060      4237      4242      4241
      4060      4237      4242      4243      4060      4237      4238      4233
      4060      4237      4238      4239      4061      3884      3887      3886
      4061      3884      3887      3888      4061      4062      4063      4060
      4061      4062      4063      4064      4061      4066      4067      4064
      4061      4066      4067      4068      4062      4057      4058      4053
      4062      4057      4058      4059      4062      4061      4066      4065
      4062      4061      4066      4067      4062      4063      4064      4241
      4062      4063      4064      4067      4063      4060      4237      4242
      4063      4060      4237      4238      4063      4064      4241      4242
      4063      4064      4241      4246      4063      4064      4067      4066
      4063      4064      4067      4068      4064      4067      4068      4245
      4064      4067      4068      4071      4064      4241      4242      4237
      4064      4241      4242      4243      4064      4241      4246      4245
      4064      4241      4246      4247      4065      3888      3891      3890
      4065      3888      3891      3892      4065      4066      4067      4064
      4065      4066      4067      4068      4065      4070      4071      4068
      4065      4070      4071      4072      4066      4061      4062      4057
      4066      4061      4062      4063      4066      4065      4070      4069
      4066      4065      4070      4071      4066      4067      4068      4245
      4066      4067      4068      4071      4067      4064      4241      4242
      4067      4064      4241      4246      4067      4068      4245      4246
      4067      4068      4245      4250      4067      4068      4071      4070
      4067      4068      4071      4072      4068      4071      4072      4075
      4068      4071      4072      4249      4068      4245      4246      4241
      4068      4245      4246      4247      4068      4245      4250      4249
      4068      4245      4250      4251      4069      3892      3895      3894
      4069      3892      3895      3896      4069      4070      4071      4068
      4069      4070      4071      4072      4069      4074      4075      4072
      4069      4074      4075      4076      4070      4065      4066      4061
      4070      4065      4066      4067      4070      4069      4074      4073
      4070      4069      4074      4075      4070      4071      4072      4075
      4070      4071      4072      4249      4071      4068      4245      4246
      4071      4068      4245      4250      4071      4072      4075      4074
      4071      4072      4075      4076      4071      4072      4249      4254
      4071      4072      4249      4250      4072      4075      4076      4079
      4072      4075      4076      4253      4072      4249      4254      4253
      4072      4249      4254      4255      4072      4249      4250      4245
      4072      4249      4250      4251      4073      3896      3899      3898
      4073      3896      3899      3900      4073      4074      4075      4072
      4073      4074      4075      4076      4073      4078      4079      4076
      4073      4078      4079      4080      4074      4069      4070      4065
      4074      4069      4070      4071      4074      4073      4078      4077
      4074      4073      4078      4079      4074      4075      4076      4079
      4074      4075      4076      4253      4075      4072      4249      4254
      4075      4072      4249      4250      4075      4076      4079      4078
      4075      4076      4079      4080      4075      4076      4253      4258
      4075      4076      4253      4254      4076      4079      4080      4257
      4076      4079      4080      4083      4076      4253      4258      4257
      4076      4253      4258      4259      4076      4253      4254      4249
      4076      4253      4254      4255      4077      3900      3903      3902
      4077      3900      3903      3904      4077      4078      4079      4076
      4077      4078      4079      4080      4077      4082      4083      4080
      4077      4082      4083      4084      4078      4073      4074      4069
      4078      4073      4074      4075      4078      4077      4082      4081
      4078      4077      4082      4083      4078      4079      4080      4257
      4078      4079      4080      4083      4079      4076      4253      4258
      4079      4076      4253      4254      4079      4080      4257      4262
      4079      4080      4257      4258      4079      4080      4083      4082
      4079      4080      4083      4084      4080      4083      4084      4261
      4080      4083      4084      4087      4080      4257      4262      4261
      4080      4257      4262      4263      4080      4257      4258      4253
      4080      4257      4258      4259      4081      3904      3907      3906
      4081      3904      3907      3908      4081      4082      4083      4080
      4081      4082      4083      4084      4081      4086      4087      4084
      4081      4086      4087      4088      4082      4077      4078      4073
      4082      4077      4078      4079      4082      4081      4086      4085
      4082      4081      4086      4087      4082      4083      4084      4261
      4082      4083      4084      4087      4083      4080      4257      4262
      4083      4080      4257      4258      4083      4084      4261      4262
      4083      4084      4261      4266      4083      4084      4087      4086
      4083      4084      4087      4088      4084      4087      4088      4265
      4084      4087      4088      4091      4084      4261      4262      4257
      4084      4261      4262      4263      4084      4261      4266      4265
      4084      4261      4266      4267      4085      3908      3911      3910
      4085      3908      3911      3912      4085      4086      4087      4084
      4085      4086      4087      4088      4085      4090      4091      4088
      4085      4090      4091      4092      4086      4081      4082      4077
      4086      4081      4082      4083      4086      4085      4090      4089
      4086      4085      4090      4091      4086      4087      4088      4265
      4086      4087      4088      4091      4087      4084      4261      4262
      4087      4084      4261      4266      4087      4088      4265      4266
      4087      4088      4265      4270      4087      4088      4091      4090
      4087      4088      4091      4092      4088      4091      4092      4269
      4088      4091      4092      4095      4088      4265      4266      4261
      4088      4265      4266      4267      4088      4265      4270      4269
      4088      4265      4270      4271      4089      3912      3915      3914
      4089      3912      3915      3916      4089      4090      4091      4088
      4089      4090      4091      4092      4089      4094      4095      4092
      4089      4094      4095      4096      4090      4085      4086      4081
      4090      4085      4086      4087      4090      4089      4094      4093
      4090      4089      4094      4095      4090      4091      4092      4269
      4090      4091      4092      4095      4091      4088      4265      4266
      4091      4088      4265      4270      4091      4092      4269      4274
      4091      4092      4269      4270      4091      4092      4095      4094
      4091      4092      4095      4096      4092      4095      4096      4273
      4092      4095      4096      4099      4092      4269      4274      4273
      4092      4269      4274      4275      4092      4269      4270      4265
      4092      4269      4270      4271      4093      3916      3919      3918
      4093      3916      3919      3920      4093      4094      4095      4092
      4093      4094      4095      4096      4093      4098      4099      4096
      4093      4098      4099      4100      4094      4089      4090      4085
      4094      4089      4090      4091      4094      4093      4098      4097
      4094      4093      4098      4099      4094      4095      4096      4273
      4094      4095      4096      4099      4095      4092      4269      4274
      4095      4092      4269      4270      4095      4096      4273      4278
      4095      4096      4273      4274      4095      4096      4099      4098
      4095      4096      4099      4100      4096      4099      4100      4277
      4096      4099      4100      4103      4096      4273      4278      4277
      4096      4273      4278      4279      4096      4273      4274      4269
      4096      4273      4274      4275      4097      3920      3923      3922
      4097      3920      3923      3924      4097      4098      4099      4096
      4097      4098      4099      4100      4097      4102      4103      4100
      4097      4102      4103      4104      4098      4093      4094      4089
      4098      4093      4094      4095      4098      4097      4102      4101
      4098      4097      4102      4103      4098      4099      4100      4277
      4098      4099      4100      4103      4099      4096      4273      4278
      4099      4096      4273      4274      4099      4100      4277      4282
      4099      4100      4277      4278      4099      4100      4103      4102
      4099      4100      4103      4104      4100      4103      4104      4281
      4100      4103      4104      4107      4100      4277      4282      4281
      4100      4277      4282      4283      4100      4277      4278      4273
      4100      4277      4278      4279      4101      3924      3927      3926
      4101      3924      3927      3928      4101      4102      4103      4100
      4101      4102      4103      4104      4101      4106      4107      4104
      4101      4106      4107      4108      4102      4097      4098      4093
      4102      4097      4098      4099      4102      4101      4106      4105
      4102      4101      4106      4107      4102      4103      4104      4281
      4102      4103      4104      4107      4103      4100      4277      4282
      4103      4100      4277      4278      4103      4104      4281      4282
      4103      4104      4281      4286      4103      4104      4107      4106
      4103      4104      4107      4108      4104      4107      4108      4285
      4104      4107      4108      4111      4104      4281      4282      4277
      4104      4281      4282      4283      4104      4281      4286      4285
      4104      4281      4286      4287      4105      3928      3931      3930
      4105      3928      3931      3932      4105      4106      4107      4104
      4105      4106      4107      4108      4105      4110      4111      4108
      4105      4110      4111      4112      4106      4101      4102      4097
      4106      4101      4102      4103      4106      4105      4110      4109
      4106      4105      4110      4111      4106      4107      4108      4285
      4106      4107      4108      4111      4107      4104      4281      4282
      4107      4104      4281      4286      4107      4108      4285      4286
      4107      4108      4285      4290      4107      4108      4111      4110
      4107      4108      4111      4112      4108      4111      4112      4115
      4108      4111      4112      4289      4108      4285      4286      4281
      4108      4285      4286      4287      4108      4285      4290      4289
      4108      4285      4290      4291      4109      3932      3935      3934
      4109      3932      3935      3936      4109      4110      4111      4108
      4109      4110      4111      4112      4109      4114      4115      4112
      4109      4114      4115      4116      4110      4105      4106      4101
      4110      4105      4106      4107      4110      4109      4114      4113
      4110      4109      4114      4115      4110      4111      4112      4115
      4110      4111      4112      4289      4111      4108      4285      4286
      4111      4108      4285      4290      4111      4112      4115      4114
      4111      4112      4115      4116      4111      4112      4289      4290
      4111      4112      4289      4294      4112      4115      4116      4119
      4112      4115      4116      4293      4112      4289      4290      4285
      4112      4289      4290      4291      4112      4289      4294      4293
      4112      4289      4294      4295      4113      3936      3939      3938
      4113      3936      3939      3940      4113      4114      4115      4112
      4113      4114      4115      4116      4113      4118      4119      4116
      4113      4118      4119      4120      4114      4109      4110      4105
      4114      4109      4110      4111      4114      4113      4118      4117
      4114      4113      4118      4119      4114      4115      4116      4119
      4114      4115      4116      4293      4115      4112      4289      4290
      4115      4112      4289      4294      4115      4116      4119      4118
      4115      4116      4119      4120      4115      4116      4293      4294
      4115      4116      4293      4298      4116      4119      4120      4297
      4116      4119      4120      4123      4116      4293      4294      4289
      4116      4293      4294      4295      4116      4293      4298      4297
      4116      4293      4298      4299      4117      3940      3943      3942
      4117      3940      3943      3944      4117      4118      4119      4116
      4117      4118      4119      4120      4117      4122      4123      4120
      4117      4122      4123      4124      4118      4113      4114      4109
      4118      4113      4114      4115      4118      4117      4122      4121
      4118      4117      4122      4123      4118      4119      4120      4297
      4118      4119      4120      4123      4119      4116      4293      4294
      4119      4116      4293      4298      4119      4120      4297      4298
      4119      4120      4297      4302      4119      4120      4123      4122
      4119      4120      4123      4124      4120      4123      4124      4301
      4120      4123      4124      4127      4120      4297      4298      4293
      4120      4297      4298      4299      4120      4297      4302      4301
      4120      4297      4302      4303      4121      3944      3947      3946
      4121      3944      3947      3948      4121      4122      4123      4120
      4121      4122      4123      4124      4121      4126      4127      4124
      4121      4126      4127      4128      4122      4117      4118      4113
      4122      4117      4118      4119      4122      4121      4126      4125
      4122      4121      4126      4127      4122      4123      4124      4301
      4122      4123      4124      4127      4123      4120      4297      4298
      4123      4120      4297      4302      4123      4124      4301      4302
      4123      4124      4301      4306      4123      4124      4127      4126
      4123      4124      4127      4128      4124      4127      4128      4305
      4124      4127      4128      4131      4124      4301      4302      4297
      4124      4301      4302      4303      4124      4301      4306      4305
      4124      4301      4306      4307      4125      3948      3951      3950
      4125      3948      3951      3952      4125      4126      4127      4124
      4125      4126      4127      4128      4125      4130      4131      4128
      4125      4130      4131      4132      4126      4121      4122      4117
      4126      4121      4122      4123      4126      4125      4130      4129
      4126      4125      4130      4131      4126      4127      4128      4305
      4126      4127      4128      4131      4127      4124      4301      4302
      4127      4124      4301      4306      4127      4128      4305      4306
      4127      4128      4305      4310      4127      4128      4131      4130
      4127      4128      4131      4132      4128      4131      4132      4135
      4128      4131      4132      4309      4128      4305      4306      4301
      4128      4305      4306      4307      4128      4305      4310      4309
      4128      4305      4310      4311      4129      3952      3955      3954
      4129      3952      3955      3956      4129      4130      4131      4128
      4129      4130      4131      4132      4129      4134      4135      4132
      4129      4134      4135      4136      4130      4125      4126      4121
      4130      4125      4126      4127      4130      4129      4134      4133
      4130      4129      4134      4135      4130      4131      4132      4135
      4130      4131      4132      4309      4131      4128      4305      4306
      4131      4128      4305      4310      4131      4132      4135      4134
      4131      4132      4135      4136      4131      4132      4309      4314
      4131      4132      4309      4310      4132      4135      4136      4139
      4132      4135      4136      4313      4132      4309      4314      4313
      4132      4309      4314      4315      4132      4309      4310      4305
      4132      4309      4310      4311      4133      3956      3959      3958
      4133      3956      3959      3960      4133      4134      4135      4132
      4133      4134      4135      4136      4133      4138      4139      4136
      4133      4138      4139      4140      4134      4129      4130      4125
      4134      4129      4130      4131      4134      4133      4138      4137
      4134      4133      4138      4139      4134      4135      4136      4139
      4134      4135      4136      4313      4135      4132      4309      4314
      4135      4132      4309      4310      4135      4136      4139      4138
      4135      4136      4139      4140      4135      4136      4313      4318
      4135      4136      4313      4314      4136      4139      4140      4317
      4136      4313      4318      4317      4136      4313      4318      4319
      4136      4313      4314      4309      4136      4313      4314      4315
      4137      4138      4139      4136      4137      4138      4139      4140
      4138      4133      4134      4129      4138      4133      4134      4135
      4138      4139      4140      4317      4139      4136      4313      4318
      4139      4136      4313      4314      4139      4140      4317      4318
      4140      4317      4318      4313      4140      4317      4318      4319
      4141      3964      3967      3966      4141      3964      3967      3968
      4141      4142      4143      4144      4141      4146      4147      4144
      4141      4146      4147      4148      4142      4141      4146      4145
      4142      4141      4146      4147      4142      4143      4144      4321
      4142      4143      4144      4147      4143      4144      4321      4322
      4143      4144      4321      4326      4143      4144      4147      4146
      4143      4144      4147      4148      4144      4147      4148      4325
      4144      4147      4148      4151      4144      4321      4322      4323
      4144      4321      4326      4325      4144      4321      4326      4327
      4145      3968      3971      3970      4145      3968      3971      3972
      4145      4146      4147      4144      4145      4146      4147      4148
      4145      4150      4151      4148      4145      4150      4151      4152
      4146      4141      4142      4143      4146      4145      4150      4149
      4146      4145      4150      4151      4146      4147      4148      4325
      4146      4147      4148      4151      4147      4144      4321      4322
      4147      4144      4321      4326      4147      4148      4325      4326
      4147      4148      4325      4330      4147      4148      4151      4150
      4147      4148      4151      4152      4148      4151      4152      4155
      4148      4151      4152      4329      4148      4325      4326      4321
      4148      4325      4326      4327      4148      4325      4330      4329
      4148      4325      4330      4331      4149      3972      3975      3974
      4149      3972      3975      3976      4149      4150      4151      4148
      4149      4150      4151      4152      4149      4154      4155      4152
      4149      4154      4155      4156      4150      4145      4146      4141
      4150      4145      4146      4147      4150      4149      4154      4153
      4150      4149      4154      4155      4150      4151      4152      4155
      4150      4151      4152      4329      4151      4148      4325      4326
      4151      4148      4325      4330      4151      4152      4155      4154
      4151      4152      4155      4156      4151      4152      4329      4334
      4151      4152      4329      4330      4152      4155      4156      4159
      4152      4155      4156      4333      4152      4329      4334      4333
      4152      4329      4334      4335      4152      4329      4330      4325
      4152      4329      4330      4331      4153      3976      3979      3978
      4153      3976      3979      3980      4153      4154      4155      4152
      4153      4154      4155      4156      4153      4158      4159      4156
      4153      4158      4159      4160      4154      4149      4150      4145
      4154      4149      4150      4151      4154      4153      4158      4157
      4154      4153      4158      4159      4154      4155      4156      4159
      4154      4155      4156      4333      4155      4152      4329      4334
      4155      4152      4329      4330      4155      4156      4159      4158
      4155      4156      4159      4160      4155      4156      4333      4338
      4155      4156      4333      4334      4156      4159      4160      4337
      4156      4159      4160      4163      4156      4333      4338      4337
      4156      4333      4338      4339      4156      4333      4334      4329
      4156      4333      4334      4335      4157      3980      3983      3982
      4157      3980      3983      3984      4157      4158      4159      4156
      4157      4158      4159      4160      4157      4162      4163      4160
      4157      4162      4163      4164      4158      4153      4154      4149
      4158      4153      4154      4155      4158      4157      4162      4161
      4158      4157      4162      4163      4158      4159      4160      4337
      4158      4159      4160      4163      4159      4156      4333      4338
      4159      4156      4333      4334      4159      4160      4337      4342
      4159      4160      4337      4338      4159      4160      4163      4162
      4159      4160      4163      4164      4160      4163      4164      4341
      4160      4163      4164      4167      4160      4337      4342      4341
      4160      4337      4342      4343      4160      4337      4338      4333
      4160      4337      4338      4339      4161      3984      3987      3986
      4161      3984      3987      3988      4161      4162      4163      4160
      4161      4162      4163      4164      4161      4166      4167      4164
      4161      4166      4167      4168      4162      4157      4158      4153
      4162      4157      4158      4159      4162      4161      4166      4165
      4162      4161      4166      4167      4162      4163      4164      4341
      4162      4163      4164      4167      4163      4160      4337      4342
      4163      4160      4337      4338      4163      4164      4341      4342
      4163      4164      4341      4346      4163      4164      4167      4166
      4163      4164      4167      4168      4164      4167      4168      4345
      4164      4167      4168      4171      4164      4341      4342      4337
      4164      4341      4342      4343      4164      4341      4346      4345
      4164      4341      4346      4347      4165      3988      3991      3990
      4165      3988      3991      3992      4165      4166      4167      4164
      4165      4166      4167      4168      4165      4170      4171      4168
      4165      4170      4171      4172      4166      4161      4162      4157
      4166      4161      4162      4163      4166      4165      4170      4169
      4166      4165      4170      4171      4166      4167      4168      4345
      4166      4167      4168      4171      4167      4164      4341      4342
      4167      4164      4341      4346      4167      4168      4345      4346
      4167      4168      4345      4350      4167      4168      4171      4170
      4167      4168      4171      4172      4168      4171      4172      4349
      4168      4171      4172      4175      4168      4345      4346      4341
      4168      4345      4346      4347      4168      4345      4350      4349
      4168      4345      4350      4351      4169      3992      3995      3994
      4169      3992      3995      3996      4169      4170      4171      4168
      4169      4170      4171      4172      4169      4174      4175      4172
      4169      4174      4175      4176      4170      4165      4166      4161
      4170      4165      4166      4167      4170      4169      4174      4173
      4170      4169      4174      4175      4170      4171      4172      4349
      4170      4171      4172      4175      4171      4168      4345      4346
      4171      4168      4345      4350      4171      4172      4349      4354
      4171      4172      4349      4350      4171      4172      4175      4174
      4171      4172      4175      4176      4172      4175      4176      4353
      4172      4175      4176      4179      4172      4349      4354      4353
      4172      4349      4354      4355      4172      4349      4350      4345
      4172      4349      4350      4351      4173      3996      3999      3998
      4173      3996      3999      4000      4173      4174      4175      4172
      4173      4174      4175      4176      4173      4178      4179      4176
      4173      4178      4179      4180      4174      4169      4170      4165
      4174      4169      4170      4171      4174      4173      4178      4177
      4174      4173      4178      4179      4174      4175      4176      4353
      4174      4175      4176      4179      4175      4172      4349      4354
      4175      4172      4349      4350      4175      4176      4353      4358
      4175      4176      4353      4354      4175      4176      4179      4178
      4175      4176      4179      4180      4176      4179      4180      4357
      4176      4179      4180      4183      4176      4353      4358      4357
      4176      4353      4358      4359      4176      4353      4354      4349
      4176      4353      4354      4355      4177      4000      4003      4002
      4177      4000      4003      4004      4177      4178      4179      4176
      4177      4178      4179      4180      4177      4182      4183      4180
      4177      4182      4183      4184      4178      4173      4174      4169
      4178      4173      4174      4175      4178      4177      4182      4181
      4178      4177      4182      4183      4178      4179      4180      4357
      4178      4179      4180      4183      4179      4176      4353      4358
      4179      4176      4353      4354      4179      4180      4357      4362
      4179      4180      4357      4358      4179      4180      4183      4182
      4179      4180      4183      4184      4180      4183      4184      4361
      4180      4183      4184      4187      4180      4357      4362      4361
      4180      4357      4362      4363      4180      4357      4358      4353
      4180      4357      4358      4359      4181      4004      4007      4006
      4181      4004      4007      4008      4181      4182      4183      4180
      4181      4182      4183      4184      4181      4186      4187      4184
      4181      4186      4187      4188      4182      4177      4178      4173
      4182      4177      4178      4179      4182      4181      4186      4185
      4182      4181      4186      4187      4182      4183      4184      4361
      4182      4183      4184      4187      4183      4180      4357      4362
      4183      4180      4357      4358      4183      4184      4361      4362
      4183      4184      4361      4366      4183      4184      4187      4186
      4183      4184      4187      4188      4184      4187      4188      4365
      4184      4187      4188      4191      4184      4361      4362      4357
      4184      4361      4362      4363      4184      4361      4366      4365
      4184      4361      4366      4367      4185      4008      4011      4010
      4185      4008      4011      4012      4185      4186      4187      4184
      4185      4186      4187      4188      4185      4190      4191      4188
      4185      4190      4191      4192      4186      4181      4182      4177
      4186      4181      4182      4183      4186      4185      4190      4189
      4186      4185      4190      4191      4186      4187      4188      4365
      4186      4187      4188      4191      4187      4184      4361      4362
      4187      4184      4361      4366      4187      4188      4365      4366
      4187      4188      4365      4370      4187      4188      4191      4190
      4187      4188      4191      4192      4188      4191      4192      4195
      4188      4191      4192      4369      4188      4365      4366      4361
      4188      4365      4366      4367      4188      4365      4370      4369
      4188      4365      4370      4371      4189      4012      4015      4014
      4189      4012      4015      4016      4189      4190      4191      4188
      4189      4190      4191      4192      4189      4194      4195      4192
      4189      4194      4195      4196      4190      4185      4186      4181
      4190      4185      4186      4187      4190      4189      4194      4193
      4190      4189      4194      4195      4190      4191      4192      4195
      4190      4191      4192      4369      4191      4188      4365      4366
      4191      4188      4365      4370      4191      4192      4195      4194
      4191      4192      4195      4196      4191      4192      4369      4374
      4191      4192      4369      4370      4192      4195      4196      4199
      4192      4195      4196      4373      4192      4369      4374      4373
      4192      4369      4374      4375      4192      4369      4370      4365
      4192      4369      4370      4371      4193      4016      4019      4018
      4193      4016      4019      4020      4193      4194      4195      4192
      4193      4194      4195      4196      4193      4198      4199      4196
      4193      4198      4199      4200      4194      4189      4190      4185
      4194      4189      4190      4191      4194      4193      4198      4197
      4194      4193      4198      4199      4194      4195      4196      4199
      4194      4195      4196      4373      4195      4192      4369      4374
      4195      4192      4369      4370      4195      4196      4199      4198
      4195      4196      4199      4200      4195      4196      4373      4378
      4195      4196      4373      4374      4196      4199      4200      4377
      4196      4199      4200      4203      4196      4373      4378      4377
      4196      4373      4378      4379      4196      4373      4374      4369
      4196      4373      4374      4375      4197      4020      4023      4022
      4197      4020      4023      4024      4197      4198      4199      4196
      4197      4198      4199      4200      4197      4202      4203      4200
      4197      4202      4203      4204      4198      4193      4194      4189
      4198      4193      4194      4195      4198      4197      4202      4201
      4198      4197      4202      4203      4198      4199      4200      4377
      4198      4199      4200      4203      4199      4196      4373      4378
      4199      4196      4373      4374      4199      4200      4377      4382
      4199      4200      4377      4378      4199      4200      4203      4202
      4199      4200      4203      4204      4200      4203      4204      4381
      4200      4203      4204      4207      4200      4377      4382      4381
      4200      4377      4382      4383      4200      4377      4378      4373
      4200      4377      4378      4379      4201      4024      4027      4026
      4201      4024      4027      4028      4201      4202      4203      4200
      4201      4202      4203      4204      4201      4206      4207      4204
      4201      4206      4207      4208      4202      4197      4198      4193
      4202      4197      4198      4199      4202      4201      4206      4205
      4202      4201      4206      4207      4202      4203      4204      4381
      4202      4203      4204      4207      4203      4200      4377      4382
      4203      4200      4377      4378      4203      4204      4381      4382
      4203      4204      4381      4386      4203      4204      4207      4206
      4203      4204      4207      4208      4204      4207      4208      4385
      4204      4207      4208      4211      4204      4381      4382      4377
      4204      4381      4382      4383      4204      4381      4386      4385
      4204      4381      4386      4387      4205      4028      4031      4030
      4205      4028      4031      4032      4205      4206      4207      4204
      4205      4206      4207      4208      4205      4210      4211      4208
      4205      4210      4211      4212      4206      4201      4202      4197
      4206      4201      4202      4203      4206      4205      4210      4209
      4206      4205      4210      4211      4206      4207      4208      4385
      4206      4207      4208      4211      4207      4204      4381      4382
      4207      4204      4381      4386      4207      4208      4385      4386
      4207      4208      4385      4390      4207      4208      4211      4210
      4207      4208      4211      4212      4208      4211      4212      4215
      4208      4211      4212      4389      4208      4385      4386      4381
      4208      4385      4386      4387      4208      4385      4390      4389
      4208      4385      4390      4391      4209      4032      4035      4034
      4209      4032      4035      4036      4209      4210      4211      4208
      4209      4210      4211      4212      4209      4214      4215      4212
      4209      4214      4215      4216      4210      4205      4206      4201
      4210      4205      4206      4207      4210      4209      4214      4213
      4210      4209      4214      4215      4210      4211      4212      4215
      4210      4211      4212      4389      4211      4208      4385      4386
      4211      4208      4385      4390      4211      4212      4215      4214
      4211      4212      4215      4216      4211      4212      4389      4394
      4211      4212      4389      4390      4212      4215      4216      4219
      4212      4215      4216      4393      4212      4389      4394      4393
      4212      4389      4394      4395      4212      4389      4390      4385
      4212      4389      4390      4391      4213      4036      4039      4038
      4213      4036      4039      4040      4213      4214      4215      4212
      4213      4214      4215      4216      4213      4218      4219      4216
      4213      4218      4219      4220      4214      4209      4210      4205
      4214      4209      4210      4211      4214      4213      4218      4217
      4214      4213      4218      4219      4214      4215      4216      4219
      4214      4215      4216      4393      4215      4212      4389      4394
      4215      4212      4389      4390      4215      4216      4219      4218
      4215      4216      4219      4220      4215      4216      4393      4398
      4215      4216      4393      4394      4216      4219      4220      4397
      4216      4219      4220      4223      4216      4393      4398      4397
      4216      4393      4398      4399      4216      4393      4394      4389
      4216      4393      4394      4395      4217      4040      4043      4042
      4217      4040      4043      4044      4217      4218      4219      4216
      4217      4218      4219      4220      4217      4222      4223      4220
      4217      4222      4223      4224      4218      4213      4214      4209
      4218      4213      4214      4215      4218      4217      4222      4221
      4218      4217      4222      4223      4218      4219      4220      4397
      4218      4219      4220      4223      4219      4216      4393      4398
      4219      4216      4393      4394      4219      4220      4397      4402
      4219      4220      4397      4398      4219      4220      4223      4222
      4219      4220      4223      4224      4220      4223      4224      4401
      4220      4223      4224      4227      4220      4397      4402      4401
      4220      4397      4402      4403      4220      4397      4398      4393
      4220      4397      4398      4399      4221      4044      4047      4046
      4221      4044      4047      4048      4221      4222      4223      4220
      4221      4222      4223      4224      4221      4226      4227      4224
      4221      4226      4227      4228      4222      4217      4218      4213
      4222      4217      4218      4219      4222      4221      4226      4225
      4222      4221      4226      4227      4222      4223      4224      4401
      4222      4223      4224      4227      4223      4220      4397      4402
      4223      4220      4397      4398      4223      4224      4401      4402
      4223      4224      4401      4406      4223      4224      4227      4226
      4223      4224      4227      4228      4224      4227      4228      4405
      4224      4227      4228      4231      4224      4401      4402      4397
      4224      4401      4402      4403      4224      4401      4406      4405
      4224      4401      4406      4407      4225      4048      4051      4050
      4225      4048      4051      4052      4225      4226      4227      4224
      4225      4226      4227      4228      4225      4230      4231      4228
      4225      4230      4231      4232      4226      4221      4222      4217
      4226      4221      4222      4223      4226      4225      4230      4229
      4226      4225      4230      4231      4226      4227      4228      4405
      4226      4227      4228      4231      4227      4224      4401      4402
      4227      4224      4401      4406      4227      4228      4405      4406
      4227      4228      4405      4410      4227      4228      4231      4230
      4227      4228      4231      4232      4228      4231      4232      4235
      4228      4231      4232      4409      4228      4405      4406      4401
      4228      4405      4406      4407      4228      4405      4410      4409
      4228      4405      4410      4411      4229      4052      4055      4054
      4229      4052      4055      4056      4229      4230      4231      4228
      4229      4230      4231      4232      4229      4234      4235      4232
      4229      4234      4235      4236      4230      4225      4226      4221
      4230      4225      4226      4227      4230      4229      4234      4233
      4230      4229      4234      4235      4230      4231      4232      4235
      4230      4231      4232      4409      4231      4228      4405      4406
      4231      4228      4405      4410      4231      4232      4235      4234
      4231      4232      4235      4236      4231      4232      4409      4414
      4231      4232      4409      4410      4232      4235      4236      4413
      4232      4235      4236      4239      4232      4409      4414      4413
      4232      4409      4414      4415      4232      4409      4410      4405
      4232      4409      4410      4411      4233      4056      4059      4058
      4233      4056      4059      4060      4233      4234      4235      4232
      4233      4234      4235      4236      4233      4238      4239      4236
      4233      4238      4239      4240      4234      4229      4230      4225
      4234      4229      4230      4231      4234      4233      4238      4237
      4234      4233      4238      4239      4234      4235      4236      4413
      4234      4235      4236      4239      4235      4232      4409      4414
      4235      4232      4409      4410      4235      4236      4413      4418
      4235      4236      4413      4414      4235      4236      4239      4238
      4235      4236      4239      4240      4236      4239      4240      4417
      4236      4239      4240      4243      4236      4413      4418      4417
      4236      4413      4418      4419      4236      4413      4414      4409
      4236      4413      4414      4415      4237      4060      4063      4062
      4237      4060      4063      4064      4237      4238      4239      4236
      4237      4238      4239      4240      4237      4242      4243      4240
      4237      4242      4243      4244      4238      4233      4234      4229
      4238      4233      4234      4235      4238      4237      4242      4241
      4238      4237      4242      4243      4238      4239      4240      4417
      4238      4239      4240      4243      4239      4236      4413      4418
      4239      4236      4413      4414      4239      4240      4417      4422
      4239      4240      4417      4418      4239      4240      4243      4242
      4239      4240      4243      4244      4240      4243      4244      4421
      4240      4243      4244      4247      4240      4417      4422      4421
      4240      4417      4422      4423      4240      4417      4418      4413
      4240      4417      4418      4419      4241      4064      4067      4066
      4241      4064      4067      4068      4241      4242      4243      4240
      4241      4242      4243      4244      4241      4246      4247      4244
      4241      4246      4247      4248      4242      4237      4238      4233
      4242      4237      4238      4239      4242      4241      4246      4245
      4242      4241      4246      4247      4242      4243      4244      4421
      4242      4243      4244      4247      4243      4240      4417      4422
      4243      4240      4417      4418      4243      4244      4421      4422
      4243      4244      4421      4426      4243      4244      4247      4246
      4243      4244      4247      4248      4244      4247      4248      4425
      4244      4247      4248      4251      4244      4421      4422      4417
      4244      4421      4422      4423      4244      4421      4426      4425
      4244      4421      4426      4427      4245      4068      4071      4070
      4245      4068      4071      4072      4245      4246      4247      4244
      4245      4246      4247      4248      4245      4250      4251      4248
      4245      4250      4251      4252      4246      4241      4242      4237
      4246      4241      4242      4243      4246      4245      4250      4249
      4246      4245      4250      4251      4246      4247      4248      4425
      4246      4247      4248      4251      4247      4244      4421      4422
      4247      4244      4421      4426      4247      4248      4425      4426
      4247      4248      4425      4430      4247      4248      4251      4250
      4247      4248      4251      4252      4248      4251      4252      4429
      4248      4251      4252      4255      4248      4425      4426      4421
      4248      4425      4426      4427      4248      4425      4430      4429
      4248      4425      4430      4431      4249      4072      4075      4074
      4249      4072      4075      4076      4249      4250      4251      4248
      4249      4250      4251      4252      4249      4254      4255      4252
      4249      4254      4255      4256      4250      4245      4246      4241
      4250      4245      4246      4247      4250      4249      4254      4253
      4250      4249      4254      4255      4250      4251      4252      4429
      4250      4251      4252      4255      4251      4248      4425      4426
      4251      4248      4425      4430      4251      4252      4429      4434
      4251      4252      4429      4430      4251      4252      4255      4254
      4251      4252      4255      4256      4252      4255      4256      4259
      4252      4255      4256      4433      4252      4429      4434      4433
      4252      4429      4434      4435      4252      4429      4430      4425
      4252      4429      4430      4431      4253      4076      4079      4078
      4253      4076      4079      4080      4253      4254      4255      4252
      4253      4254      4255      4256      4253      4258      4259      4256
      4253      4258      4259      4260      4254      4249      4250      4245
      4254      4249      4250      4251      4254      4253      4258      4257
      4254      4253      4258      4259      4254      4255      4256      4259
      4254      4255      4256      4433      4255      4252      4429      4434
      4255      4252      4429      4430      4255      4256      4259      4258
      4255      4256      4259      4260      4255      4256      4433      4438
      4255      4256      4433      4434      4256      4259      4260      4437
      4256      4259      4260      4263      4256      4433      4438      4437
      4256      4433      4438      4439      4256      4433      4434      4429
      4256      4433      4434      4435      4257      4080      4083      4082
      4257      4080      4083      4084      4257      4258      4259      4256
      4257      4258      4259      4260      4257      4262      4263      4260
      4257      4262      4263      4264      4258      4253      4254      4249
      4258      4253      4254      4255      4258      4257      4262      4261
      4258      4257      4262      4263      4258      4259      4260      4437
      4258      4259      4260      4263      4259      4256      4433      4438
      4259      4256      4433      4434      4259      4260      4437      4442
      4259      4260      4437      4438      4259      4260      4263      4262
      4259      4260      4263      4264      4260      4263      4264      4441
      4260      4263      4264      4267      4260      4437      4442      4441
      4260      4437      4442      4443      4260      4437      4438      4433
      4260      4437      4438      4439      4261      4084      4087      4086
      4261      4084      4087      4088      4261      4262      4263      4260
      4261      4262      4263      4264      4261      4266      4267      4264
      4261      4266      4267      4268      4262      4257      4258      4253
      4262      4257      4258      4259      4262      4261      4266      4265
      4262      4261      4266      4267      4262      4263      4264      4441
      4262      4263      4264      4267      4263      4260      4437      4442
      4263      4260      4437      4438      4263      4264      4441      4442
      4263      4264      4441      4446      4263      4264      4267      4266
      4263      4264      4267      4268      4264      4267      4268      4445
      4264      4267      4268      4271      4264      4441      4442      4437
      4264      4441      4442      4443      4264      4441      4446      4445
      4264      4441      4446      4447      4265      4088      4091      4090
      4265      4088      4091      4092      4265      4266      4267      4264
      4265      4266      4267      4268      4265      4270      4271      4268
      4265      4270      4271      4272      4266      4261      4262      4257
      4266      4261      4262      4263      4266      4265      4270      4269
      4266      4265      4270      4271      4266      4267      4268      4445
      4266      4267      4268      4271      4267      4264      4441      4442
      4267      4264      4441      4446      4267      4268      4445      4446
      4267      4268      4445      4450      4267      4268      4271      4270
      4267      4268      4271      4272      4268      4271      4272      4275
      4268      4271      4272      4449      4268      4445      4446      4441
      4268      4445      4446      4447      4268      4445      4450      4449
      4268      4445      4450      4451      4269      4092      4095      4094
      4269      4092      4095      4096      4269      4270      4271      4268
      4269      4270      4271      4272      4269      4274      4275      4272
      4269      4274      4275      4276      4270      4265      4266      4261
      4270      4265      4266      4267      4270      4269      4274      4273
      4270      4269      4274      4275      4270      4271      4272      4275
      4270      4271      4272      4449      4271      4268      4445      4446
      4271      4268      4445      4450      4271      4272      4275      4274
      4271      4272      4275      4276      4271      4272      4449      4454
      4271      4272      4449      4450      4272      4275      4276      4279
      4272      4275      4276      4453      4272      4449      4454      4453
      4272      4449      4454      4455      4272      4449      4450      4445
      4272      4449      4450      4451      4273      4096      4099      4098
      4273      4096      4099      4100      4273      4274      4275      4272
      4273      4274      4275      4276      4273      4278      4279      4276
      4273      4278      4279      4280      4274      4269      4270      4265
      4274      4269      4270      4271      4274      4273      4278      4277
      4274      4273      4278      4279      4274      4275      4276      4279
      4274      4275      4276      4453      4275      4272      4449      4454
      4275      4272      4449      4450      4275      4276      4279      4278
      4275      4276      4279      4280      4275      4276      4453      4454
      4275      4276      4453      4458      4276      4279      4280      4457
      4276      4279      4280      4283      4276      4453      4454      4449
      4276      4453      4454      4455      4276      4453      4458      4457
      4276      4453      4458      4459      4277      4100      4103      4102
      4277      4100      4103      4104      4277      4278      4279      4276
      4277      4278      4279      4280      4277      4282      4283      4280
      4277      4282      4283      4284      4278      4273      4274      4269
      4278      4273      4274      4275      4278      4277      4282      4281
      4278      4277      4282      4283      4278      4279      4280      4457
      4278      4279      4280      4283      4279      4276      4453      4454
      4279      4276      4453      4458      4279      4280      4457      4462
      4279      4280      4457      4458      4279      4280      4283      4282
      4279      4280      4283      4284      4280      4283      4284      4461
      4280      4283      4284      4287      4280      4457      4462      4461
      4280      4457      4462      4463      4280      4457      4458      4453
      4280      4457      4458      4459      4281      4104      4107      4106
      4281      4104      4107      4108      4281      4282      4283      4280
      4281      4282      4283      4284      4281      4286      4287      4284
      4281      4286      4287      4288      4282      4277      4278      4273
      4282      4277      4278      4279      4282      4281      4286      4285
      4282      4281      4286      4287      4282      4283      4284      4461
      4282      4283      4284      4287      4283      4280      4457      4462
      4283      4280      4457      4458      4283      4284      4461      4462
      4283      4284      4461      4466      4283      4284      4287      4286
      4283      4284      4287      4288      4284      4287      4288      4465
      4284      4287      4288      4291      4284      4461      4462      4457
      4284      4461      4462      4463      4284      4461      4466      4465
      4284      4461      4466      4467      4285      4108      4111      4110
      4285      4108      4111      4112      4285      4286      4287      4284
      4285      4286      4287      4288      4285      4290      4291      4288
      4285      4290      4291      4292      4286      4281      4282      4277
      4286      4281      4282      4283      4286      4285      4290      4289
      4286      4285      4290      4291      4286      4287      4288      4465
      4286      4287      4288      4291      4287      4284      4461      4462
      4287      4284      4461      4466      4287      4288      4465      4466
      4287      4288      4465      4470      4287      4288      4291      4290
      4287      4288      4291      4292      4288      4291      4292      4295
      4288      4291      4292      4469      4288      4465      4466      4461
      4288      4465      4466      4467      4288      4465      4470      4469
      4288      4465      4470      4471      4289      4112      4115      4114
      4289      4112      4115      4116      4289      4290      4291      4288
      4289      4290      4291      4292      4289      4294      4295      4292
      4289      4294      4295      4296      4290      4285      4286      4281
      4290      4285      4286      4287      4290      4289      4294      4293
      4290      4289      4294      4295      4290      4291      4292      4295
      4290      4291      4292      4469      4291      4288      4465      4466
      4291      4288      4465      4470      4291      4292      4295      4294
      4291      4292      4295      4296      4291      4292      4469      4474
      4291      4292      4469      4470      4292      4295      4296      4299
      4292      4295      4296      4473      4292      4469      4474      4473
      4292      4469      4474      4475      4292      4469      4470      4465
      4292      4469      4470      4471      4293      4116      4119      4118
      4293      4116      4119      4120      4293      4294      4295      4292
      4293      4294      4295      4296      4293      4298      4299      4296
      4293      4298      4299      4300      4294      4289      4290      4285
      4294      4289      4290      4291      4294      4293      4298      4297
      4294      4293      4298      4299      4294      4295      4296      4299
      4294      4295      4296      4473      4295      4292      4469      4474
      4295      4292      4469      4470      4295      4296      4299      4298
      4295      4296      4299      4300      4295      4296      4473      4478
      4295      4296      4473      4474      4296      4299      4300      4477
      4296      4299      4300      4303      4296      4473      4478      4477
      4296      4473      4478      4479      4296      4473      4474      4469
      4296      4473      4474      4475      4297      4120      4123      4122
      4297      4120      4123      4124      4297      4298      4299      4296
      4297      4298      4299      4300      4297      4302      4303      4300
      4297      4302      4303      4304      4298      4293      4294      4289
      4298      4293      4294      4295      4298      4297      4302      4301
      4298      4297      4302      4303      4298      4299      4300      4477
      4298      4299      4300      4303      4299      4296      4473      4478
      4299      4296      4473      4474      4299      4300      4477      4482
      4299      4300      4477      4478      4299      4300      4303      4302
      4299      4300      4303      4304      4300      4303      4304      4481
      4300      4303      4304      4307      4300      4477      4482      4481
      4300      4477      4482      4483      4300      4477      4478      4473
      4300      4477      4478      4479      4301      4124      4127      4126
      4301      4124      4127      4128      4301      4302      4303      4300
      4301      4302      4303      4304      4301      4306      4307      4304
      4301      4306      4307      4308      4302      4297      4298      4293
      4302      4297      4298      4299      4302      4301      4306      4305
      4302      4301      4306      4307      4302      4303      4304      4481
      4302      4303      4304      4307      4303      4300      4477      4482
      4303      4300      4477      4478      4303      4304      4481      4482
      4303      4304      4481      4486      4303      4304      4307      4306
      4303      4304      4307      4308      4304      4307      4308      4485
      4304      4307      4308      4311      4304      4481      4482      4477
      4304      4481      4482      4483      4304      4481      4486      4485
      4304      4481      4486      4487      4305      4128      4131      4130
      4305      4128      4131      4132      4305      4306      4307      4304
      4305      4306      4307      4308      4305      4310      4311      4308
      4305      4310      4311      4312      4306      4301      4302      4297
      4306      4301      4302      4303      4306      4305      4310      4309
      4306      4305      4310      4311      4306      4307      4308      4485
      4306      4307      4308      4311      4307      4304      4481      4482
      4307      4304      4481      4486      4307      4308      4485      4486
      4307      4308      4485      4490      4307      4308      4311      4310
      4307      4308      4311      4312      4308      4311      4312      4489
      4308      4311      4312      4315      4308      4485      4486      4481
      4308      4485      4486      4487      4308      4485      4490      4489
      4308      4485      4490      4491      4309      4132      4135      4134
      4309      4132      4135      4136      4309      4310      4311      4308
      4309      4310      4311      4312      4309      4314      4315      4312
      4309      4314      4315      4316      4310      4305      4306      4301
      4310      4305      4306      4307      4310      4309      4314      4313
      4310      4309      4314      4315      4310      4311      4312      4489
      4310      4311      4312      4315      4311      4308      4485      4486
      4311      4308      4485      4490      4311      4312      4489      4494
      4311      4312      4489      4490      4311      4312      4315      4314
      4311      4312      4315      4316      4312      4315      4316      4493
      4312      4315      4316      4319      4312      4489      4494      4493
      4312      4489      4494      4495      4312      4489      4490      4485
      4312      4489      4490      4491      4313      4136      4139      4138
      4313      4136      4139      4140      4313      4314      4315      4312
      4313      4314      4315      4316      4313      4318      4319      4316
      4313      4318      4319      4320      4314      4309      4310      4305
      4314      4309      4310      4311      4314      4313      4318      4317
      4314      4313      4318      4319      4314      4315      4316      4493
      4314      4315      4316      4319      4315      4312      4489      4494
      4315      4312      4489      4490      4315      4316      4493      4498
      4315      4316      4493      4494      4315      4316      4319      4318
      4315      4316      4319      4320      4316      4319      4320      4497
      4316      4493      4498      4497      4316      4493      4498      4499
      4316      4493      4494      4489      4316      4493      4494      4495
      4317      4318      4319      4316      4317      4318      4319      4320
      4318      4313      4314      4309      4318      4313      4314      4315
      4318      4319      4320      4497      4319      4316      4493      4498
      4319      4316      4493      4494      4319      4320      4497      4498
      4320      4497      4498      4493      4320      4497      4498      4499
      4321      4144      4147      4146      4321      4144      4147      4148
      4321      4322      4323      4324      4321      4326      4327      4324
      4321      4326      4327      4328      4322      4321      4326      4325
      4322      4321      4326      4327      4322      4323      4324      4327
      4322      4323      4324      4501      4323      4324      4327      4326
      4323      4324      4327      4328      4323      4324      4501      4502
      4323      4324      4501      4506      4324      4327      4328      4331
      4324      4327      4328      4505      4324      4501      4502      4503
      4324      4501      4506      4505      4324      4501      4506      4507
      4325      4148      4151      4150      4325      4148      4151      4152
      4325      4326      4327      4324      4325      4326      4327      4328
      4325      4330      4331      4328      4325      4330      4331      4332
      4326      4321      4322      4323      4326      4325      4330      4329
      4326      4325      4330      4331      4326      4327      4328      4331
      4326      4327      4328      4505      4327      4324      4501      4502
      4327      4324      4501      4506      4327      4328      4331      4330
      4327      4328      4331      4332      4327      4328      4505      4506
      4327      4328      4505      4510      4328      4331      4332      4335
      4328      4331      4332      4509      4328      4505      4506      4501
      4328      4505      4506      4507      4328      4505      4510      4509
      4328      4505      4510      4511      4329      4152      4155      4154
      4329      4152      4155      4156      4329      4330      4331      4328
      4329      4330      4331      4332      4329      4334      4335      4332
      4329      4334      4335      4336      4330      4325      4326      4321
      4330      4325      4326      4327      4330      4329      4334      4333
      4330      4329      4334      4335      4330      4331      4332      4335
      4330      4331      4332      4509      4331      4328      4505      4506
      4331      4328      4505      4510      4331      4332      4335      4334
      4331      4332      4335      4336      4331      4332      4509      4514
      4331      4332      4509      4510      4332      4335      4336      4339
      4332      4335      4336      4513      4332      4509      4514      4513
      4332      4509      4514      4515      4332      4509      4510      4505
      4332      4509      4510      4511      4333      4156      4159      4158
      4333      4156      4159      4160      4333      4334      4335      4332
      4333      4334      4335      4336      4333      4338      4339      4336
      4333      4338      4339      4340      4334      4329      4330      4325
      4334      4329      4330      4331      4334      4333      4338      4337
      4334      4333      4338      4339      4334      4335      4336      4339
      4334      4335      4336      4513      4335      4332      4509      4514
      4335      4332      4509      4510      4335      4336      4339      4338
      4335      4336      4339      4340      4335      4336      4513      4518
      4335      4336      4513      4514      4336      4339      4340      4343
      4336      4339      4340      4517      4336      4513      4518      4517
      4336      4513      4518      4519      4336      4513      4514      4509
      4336      4513      4514      4515      4337      4160      4163      4162
      4337      4160      4163      4164      4337      4338      4339      4336
      4337      4338      4339      4340      4337      4342      4343      4340
      4337      4342      4343      4344      4338      4333      4334      4329
      4338      4333      4334      4335      4338      4337      4342      4341
      4338      4337      4342      4343      4338      4339      4340      4343
      4338      4339      4340      4517      4339      4336      4513      4518
      4339      4336      4513      4514      4339      4340      4343      4342
      4339      4340      4343      4344      4339      4340      4517      4522
      4339      4340      4517      4518      4340      4343      4344      4347
      4340      4343      4344      4521      4340      4517      4522      4521
      4340      4517      4522      4523      4340      4517      4518      4513
      4340      4517      4518      4519      4341      4164      4167      4166
      4341      4164      4167      4168      4341      4342      4343      4340
      4341      4342      4343      4344      4341      4346      4347      4344
      4341      4346      4347      4348      4342      4337      4338      4333
      4342      4337      4338      4339      4342      4341      4346      4345
      4342      4341      4346      4347      4342      4343      4344      4347
      4342      4343      4344      4521      4343      4340      4517      4522
      4343      4340      4517      4518      4343      4344      4347      4346
      4343      4344      4347      4348      4343      4344      4521      4522
      4343      4344      4521      4526      4344      4347      4348      4351
      4344      4347      4348      4525      4344      4521      4522      4517
      4344      4521      4522      4523      4344      4521      4526      4525
      4344      4521      4526      4527      4345      4168      4171      4170
      4345      4168      4171      4172      4345      4346      4347      4344
      4345      4346      4347      4348      4345      4350      4351      4348
      4345      4350      4351      4352      4346      4341      4342      4337
      4346      4341      4342      4343      4346      4345      4350      4349
      4346      4345      4350      4351      4346      4347      4348      4351
      4346      4347      4348      4525      4347      4344      4521      4522
      4347      4344      4521      4526      4347      4348      4351      4350
      4347      4348      4351      4352      4347      4348      4525      4526
      4347      4348      4525      4530      4348      4351      4352      4355
      4348      4351      4352      4529      4348      4525      4526      4521
      4348      4525      4526      4527      4348      4525      4530      4529
      4348      4525      4530      4531      4349      4172      4175      4174
      4349      4172      4175      4176      4349      4350      4351      4348
      4349      4350      4351      4352      4349      4354      4355      4352
      4349      4354      4355      4356      4350      4345      4346      4341
      4350      4345      4346      4347      4350      4349      4354      4353
      4350      4349      4354      4355      4350      4351      4352      4355
      4350      4351      4352      4529      4351      4348      4525      4526
      4351      4348      4525      4530      4351      4352      4355      4354
      4351      4352      4355      4356      4351      4352      4529      4534
      4351      4352      4529      4530      4352      4355      4356      4359
      4352      4355      4356      4533      4352      4529      4534      4533
      4352      4529      4534      4535      4352      4529      4530      4525
      4352      4529      4530      4531      4353      4176      4179      4178
      4353      4176      4179      4180      4353      4354      4355      4352
      4353      4354      4355      4356      4353      4358      4359      4356
      4353      4358      4359      4360      4354      4349      4350      4345
      4354      4349      4350      4351      4354      4353      4358      4357
      4354      4353      4358      4359      4354      4355      4356      4359
      4354      4355      4356      4533      4355      4352      4529      4534
      4355      4352      4529      4530      4355      4356      4359      4358
      4355      4356      4359      4360      4355      4356      4533      4538
      4355      4356      4533      4534      4356      4359      4360      4363
      4356      4359      4360      4537      4356      4533      4538      4537
      4356      4533      4538      4539      4356      4533      4534      4529
      4356      4533      4534      4535      4357      4180      4183      4182
      4357      4180      4183      4184      4357      4358      4359      4356
      4357      4358      4359      4360      4357      4362      4363      4360
      4357      4362      4363      4364      4358      4353      4354      4349
      4358      4353      4354      4355      4358      4357      4362      4361
      4358      4357      4362      4363      4358      4359      4360      4363
      4358      4359      4360      4537      4359      4356      4533      4538
      4359      4356      4533      4534      4359      4360      4363      4362
      4359      4360      4363      4364      4359      4360      4537      4542
      4359      4360      4537      4538      4360      4363      4364      4367
      4360      4363      4364      4541      4360      4537      4542      4541
      4360      4537      4542      4543      4360      4537      4538      4533
      4360      4537      4538      4539      4361      4184      4187      4186
      4361      4184      4187      4188      4361      4362      4363      4360
      4361      4362      4363      4364      4361      4366      4367      4364
      4361      4366      4367      4368      4362      4357      4358      4353
      4362      4357      4358      4359      4362      4361      4366      4365
      4362      4361      4366      4367      4362      4363      4364      4367
      4362      4363      4364      4541      4363      4360      4537      4542
      4363      4360      4537      4538      4363      4364      4367      4366
      4363      4364      4367      4368      4363      4364      4541      4542
      4363      4364      4541      4546      4364      4367      4368      4371
      4364      4367      4368      4545      4364      4541      4542      4537
      4364      4541      4542      4543      4364      4541      4546      4545
      4364      4541      4546      4547      4365      4188      4191      4190
      4365      4188      4191      4192      4365      4366      4367      4364
      4365      4366      4367      4368      4365      4370      4371      4368
      4365      4370      4371      4372      4366      4361      4362      4357
      4366      4361      4362      4363      4366      4365      4370      4369
      4366      4365      4370      4371      4366      4367      4368      4371
      4366      4367      4368      4545      4367      4364      4541      4542
      4367      4364      4541      4546      4367      4368      4371      4370
      4367      4368      4371      4372      4367      4368      4545      4546
      4367      4368      4545      4550      4368      4371      4372      4375
      4368      4371      4372      4549      4368      4545      4546      4541
      4368      4545      4546      4547      4368      4545      4550      4549
      4368      4545      4550      4551      4369      4192      4195      4194
      4369      4192      4195      4196      4369      4370      4371      4368
      4369      4370      4371      4372      4369      4374      4375      4372
      4369      4374      4375      4376      4370      4365      4366      4361
      4370      4365      4366      4367      4370      4369      4374      4373
      4370      4369      4374      4375      4370      4371      4372      4375
      4370      4371      4372      4549      4371      4368      4545      4546
      4371      4368      4545      4550      4371      4372      4375      4374
      4371      4372      4375      4376      4371      4372      4549      4554
      4371      4372      4549      4550      4372      4375      4376      4379
      4372      4375      4376      4553      4372      4549      4554      4553
      4372      4549      4554      4555      4372      4549      4550      4545
      4372      4549      4550      4551      4373      4196      4199      4198
      4373      4196      4199      4200      4373      4374      4375      4372
      4373      4374      4375      4376      4373      4378      4379      4376
      4373      4378      4379      4380      4374      4369      4370      4365
      4374      4369      4370      4371      4374      4373      4378      4377
      4374      4373      4378      4379      4374      4375      4376      4379
      4374      4375      4376      4553      4375      4372      4549      4554
      4375      4372      4549      4550      4375      4376      4379      4378
      4375      4376      4379      4380      4375      4376      4553      4558
      4375      4376      4553      4554      4376      4379      4380      4383
      4376      4379      4380      4557      4376      4553      4558      4557
      4376      4553      4558      4559      4376      4553      4554      4549
      4376      4553      4554      4555      4377      4200      4203      4202
      4377      4200      4203      4204      4377      4378      4379      4376
      4377      4378      4379      4380      4377      4382      4383      4380
      4377      4382      4383      4384      4378      4373      4374      4369
      4378      4373      4374      4375      4378      4377      4382      4381
      4378      4377      4382      4383      4378      4379      4380      4383
      4378      4379      4380      4557      4379      4376      4553      4558
      4379      4376      4553      4554      4379      4380      4383      4382
      4379      4380      4383      4384      4379      4380      4557      4562
      4379      4380      4557      4558      4380      4383      4384      4387
      4380      4383      4384      4561      4380      4557      4562      4561
      4380      4557      4562      4563      4380      4557      4558      4553
      4380      4557      4558      4559      4381      4204      4207      4206
      4381      4204      4207      4208      4381      4382      4383      4380
      4381      4382      4383      4384      4381      4386      4387      4384
      4381      4386      4387      4388      4382      4377      4378      4373
      4382      4377      4378      4379      4382      4381      4386      4385
      4382      4381      4386      4387      4382      4383      4384      4387
      4382      4383      4384      4561      4383      4380      4557      4562
      4383      4380      4557      4558      4383      4384      4387      4386
      4383      4384      4387      4388      4383      4384      4561      4562
      4383      4384      4561      4566      4384      4387      4388      4391
      4384      4387      4388      4565      4384      4561      4562      4557
      4384      4561      4562      4563      4384      4561      4566      4565
      4384      4561      4566      4567      4385      4208      4211      4210
      4385      4208      4211      4212      4385      4386      4387      4384
      4385      4386      4387      4388      4385      4390      4391      4388
      4385      4390      4391      4392      4386      4381      4382      4377
      4386      4381      4382      4383      4386      4385      4390      4389
      4386      4385      4390      4391      4386      4387      4388      4391
      4386      4387      4388      4565      4387      4384      4561      4562
      4387      4384      4561      4566      4387      4388      4391      4390
      4387      4388      4391      4392      4387      4388      4565      4566
      4387      4388      4565      4570      4388      4391      4392      4395
      4388      4391      4392      4569      4388      4565      4566      4561
      4388      4565      4566      4567      4388      4565      4570      4569
      4388      4565      4570      4571      4389      4212      4215      4214
      4389      4212      4215      4216      4389      4390      4391      4388
      4389      4390      4391      4392      4389      4394      4395      4392
      4389      4394      4395      4396      4390      4385      4386      4381
      4390      4385      4386      4387      4390      4389      4394      4393
      4390      4389      4394      4395      4390      4391      4392      4395
      4390      4391      4392      4569      4391      4388      4565      4566
      4391      4388      4565      4570      4391      4392      4395      4394
      4391      4392      4395      4396      4391      4392      4569      4574
      4391      4392      4569      4570      4392      4395      4396      4399
      4392      4395      4396      4573      4392      4569      4574      4573
      4392      4569      4574      4575      4392      4569      4570      4565
      4392      4569      4570      4571      4393      4216      4219      4218
      4393      4216      4219      4220      4393      4394      4395      4392
      4393      4394      4395      4396      4393      4398      4399      4396
      4393      4398      4399      4400      4394      4389      4390      4385
      4394      4389      4390      4391      4394      4393      4398      4397
      4394      4393      4398      4399      4394      4395      4396      4399
      4394      4395      4396      4573      4395      4392      4569      4574
      4395      4392      4569      4570      4395      4396      4399      4398
      4395      4396      4399      4400      4395      4396      4573      4578
      4395      4396      4573      4574      4396      4399      4400      4403
      4396      4399      4400      4577      4396      4573      4578      4577
      4396      4573      4578      4579      4396      4573      4574      4569
      4396      4573      4574      4575      4397      4220      4223      4222
      4397      4220      4223      4224      4397      4398      4399      4396
      4397      4398      4399      4400      4397      4402      4403      4400
      4397      4402      4403      4404      4398      4393      4394      4389
      4398      4393      4394      4395      4398      4397      4402      4401
      4398      4397      4402      4403      4398      4399      4400      4403
      4398      4399      4400      4577      4399      4396      4573      4578
      4399      4396      4573      4574      4399      4400      4403      4402
      4399      4400      4403      4404      4399      4400      4577      4582
      4399      4400      4577      4578      4400      4403      4404      4407
      4400      4403      4404      4581      4400      4577      4582      4581
      4400      4577      4582      4583      4400      4577      4578      4573
      4400      4577      4578      4579      4401      4224      4227      4226
      4401      4224      4227      4228      4401      4402      4403      4400
      4401      4402      4403      4404      4401      4406      4407      4404
      4401      4406      4407      4408      4402      4397      4398      4393
      4402      4397      4398      4399      4402      4401      4406      4405
      4402      4401      4406      4407      4402      4403      4404      4407
      4402      4403      4404      4581      4403      4400      4577      4582
      4403      4400      4577      4578      4403      4404      4407      4406
      4403      4404      4407      4408      4403      4404      4581      4582
      4403      4404      4581      4586      4404      4407      4408      4411
      4404      4407      4408      4585      4404      4581      4582      4577
      4404      4581      4582      4583      4404      4581      4586      4585
      4404      4581      4586      4587      4405      4228      4231      4230
      4405      4228      4231      4232      4405      4406      4407      4404
      4405      4406      4407      4408      4405      4410      4411      4408
      4405      4410      4411      4412      4406      4401      4402      4397
      4406      4401      4402      4403      4406      4405      4410      4409
      4406      4405      4410      4411      4406      4407      4408      4411
      4406      4407      4408      4585      4407      4404      4581      4582
      4407      4404      4581      4586      4407      4408      4411      4410
      4407      4408      4411      4412      4407      4408      4585      4586
      4407      4408      4585      4590      4408      4411      4412      4415
      4408      4411      4412      4589      4408      4585      4586      4581
      4408      4585      4586      4587      4408      4585      4590      4589
      4408      4585      4590      4591      4409      4232      4235      4234
      4409      4232      4235      4236      4409      4410      4411      4408
      4409      4410      4411      4412      4409      4414      4415      4412
      4409      4414      4415      4416      4410      4405      4406      4401
      4410      4405      4406      4407      4410      4409      4414      4413
      4410      4409      4414      4415      4410      4411      4412      4415
      4410      4411      4412      4589      4411      4408      4585      4586
      4411      4408      4585      4590      4411      4412      4415      4414
      4411      4412      4415      4416      4411      4412      4589      4594
      4411      4412      4589      4590      4412      4415      4416      4419
      4412      4415      4416      4593      4412      4589      4594      4593
      4412      4589      4594      4595      4412      4589      4590      4585
      4412      4589      4590      4591      4413      4236      4239      4238
      4413      4236      4239      4240      4413      4414      4415      4412
      4413      4414      4415      4416      4413      4418      4419      4416
      4413      4418      4419      4420      4414      4409      4410      4405
      4414      4409      4410      4411      4414      4413      4418      4417
      4414      4413      4418      4419      4414      4415      4416      4419
      4414      4415      4416      4593      4415      4412      4589      4594
      4415      4412      4589      4590      4415      4416      4419      4418
      4415      4416      4419      4420      4415      4416      4593      4598
      4415      4416      4593      4594      4416      4419      4420      4423
      4416      4419      4420      4597      4416      4593      4598      4597
      4416      4593      4598      4599      4416      4593      4594      4589
      4416      4593      4594      4595      4417      4240      4243      4242
      4417      4240      4243      4244      4417      4418      4419      4416
      4417      4418      4419      4420      4417      4422      4423      4420
      4417      4422      4423      4424      4418      4413      4414      4409
      4418      4413      4414      4415      4418      4417      4422      4421
      4418      4417      4422      4423      4418      4419      4420      4423
      4418      4419      4420      4597      4419      4416      4593      4598
      4419      4416      4593      4594      4419      4420      4423      4422
      4419      4420      4423      4424      4419      4420      4597      4602
      4419      4420      4597      4598      4420      4423      4424      4427
      4420      4423      4424      4601      4420      4597      4602      4601
      4420      4597      4602      4603      4420      4597      4598      4593
      4420      4597      4598      4599      4421      4244      4247      4246
      4421      4244      4247      4248      4421      4422      4423      4420
      4421      4422      4423      4424      4421      4426      4427      4424
      4421      4426      4427      4428      4422      4417      4418      4413
      4422      4417      4418      4419      4422      4421      4426      4425
      4422      4421      4426      4427      4422      4423      4424      4427
      4422      4423      4424      4601      4423      4420      4597      4602
      4423      4420      4597      4598      4423      4424      4427      4426
      4423      4424      4427      4428      4423      4424      4601      4602
      4423      4424      4601      4606      4424      4427      4428      4431
      4424      4427      4428      4605      4424      4601      4602      4597
      4424      4601      4602      4603      4424      4601      4606      4605
      4424      4601      4606      4607      4425      4248      4251      4250
      4425      4248      4251      4252      4425      4426      4427      4424
      4425      4426      4427      4428      4425      4430      4431      4428
      4425      4430      4431      4432      4426      4421      4422      4417
      4426      4421      4422      4423      4426      4425      4430      4429
      4426      4425      4430      4431      4426      4427      4428      4431
      4426      4427      4428      4605      4427      4424      4601      4602
      4427      4424      4601      4606      4427      4428      4431      4430
      4427      4428      4431      4432      4427      4428      4605      4606
      4427      4428      4605      4610      4428      4431      4432      4435
      4428      4431      4432      4609      4428      4605      4606      4601
      4428      4605      4606      4607      4428      4605      4610      4609
      4428      4605      4610      4611      4429      4252      4255      4254
      4429      4252      4255      4256      4429      4430      4431      4428
      4429      4430      4431      4432      4429      4434      4435      4432
      4429      4434      4435      4436      4430      4425      4426      4421
      4430      4425      4426      4427      4430      4429      4434      4433
      4430      4429      4434      4435      4430      4431      4432      4435
      4430      4431      4432      4609      4431      4428      4605      4606
      4431      4428      4605      4610      4431      4432      4435      4434
      4431      4432      4435      4436      4431      4432      4609      4614
      4431      4432      4609      4610      4432      4435      4436      4439
      4432      4435      4436      4613      4432      4609      4614      4613
      4432      4609      4614      4615      4432      4609      4610      4605
      4432      4609      4610      4611      4433      4256      4259      4258
      4433      4256      4259      4260      4433      4434      4435      4432
      4433      4434      4435      4436      4433      4438      4439      4436
      4433      4438      4439      4440      4434      4429      4430      4425
      4434      4429      4430      4431      4434      4433      4438      4437
      4434      4433      4438      4439      4434      4435      4436      4439
      4434      4435      4436      4613      4435      4432      4609      4614
      4435      4432      4609      4610      4435      4436      4439      4438
      4435      4436      4439      4440      4435      4436      4613      4618
      4435      4436      4613      4614      4436      4439      4440      4443
      4436      4439      4440      4617      4436      4613      4618      4617
      4436      4613      4618      4619      4436      4613      4614      4609
      4436      4613      4614      4615      4437      4260      4263      4262
      4437      4260      4263      4264      4437      4438      4439      4436
      4437      4438      4439      4440      4437      4442      4443      4440
      4437      4442      4443      4444      4438      4433      4434      4429
      4438      4433      4434      4435      4438      4437      4442      4441
      4438      4437      4442      4443      4438      4439      4440      4443
      4438      4439      4440      4617      4439      4436      4613      4618
      4439      4436      4613      4614      4439      4440      4443      4442
      4439      4440      4443      4444      4439      4440      4617      4622
      4439      4440      4617      4618      4440      4443      4444      4447
      4440      4443      4444      4621      4440      4617      4622      4621
      4440      4617      4622      4623      4440      4617      4618      4613
      4440      4617      4618      4619      4441      4264      4267      4266
      4441      4264      4267      4268      4441      4442      4443      4440
      4441      4442      4443      4444      4441      4446      4447      4444
      4441      4446      4447      4448      4442      4437      4438      4433
      4442      4437      4438      4439      4442      4441      4446      4445
      4442      4441      4446      4447      4442      4443      4444      4447
      4442      4443      4444      4621      4443      4440      4617      4622
      4443      4440      4617      4618      4443      4444      4447      4446
      4443      4444      4447      4448      4443      4444      4621      4622
      4443      4444      4621      4626      4444      4447      4448      4451
      4444      4447      4448      4625      4444      4621      4622      4617
      4444      4621      4622      4623      4444      4621      4626      4625
      4444      4621      4626      4627      4445      4268      4271      4270
      4445      4268      4271      4272      4445      4446      4447      4444
      4445      4446      4447      4448      4445      4450      4451      4448
      4445      4450      4451      4452      4446      4441      4442      4437
      4446      4441      4442      4443      4446      4445      4450      4449
      4446      4445      4450      4451      4446      4447      4448      4451
      4446      4447      4448      4625      4447      4444      4621      4622
      4447      4444      4621      4626      4447      4448      4451      4450
      4447      4448      4451      4452      4447      4448      4625      4626
      4447      4448      4625      4630      4448      4451      4452      4455
      4448      4451      4452      4629      4448      4625      4626      4621
      4448      4625      4626      4627      4448      4625      4630      4629
      4448      4625      4630      4631      4449      4272      4275      4274
      4449      4272      4275      4276      4449      4450      4451      4448
      4449      4450      4451      4452      4449      4454      4455      4452
      4449      4454      4455      4456      4450      4445      4446      4441
      4450      4445      4446      4447      4450      4449      4454      4453
      4450      4449      4454      4455      4450      4451      4452      4455
      4450      4451      4452      4629      4451      4448      4625      4626
      4451      4448      4625      4630      4451      4452      4455      4454
      4451      4452      4455      4456      4451      4452      4629      4634
      4451      4452      4629      4630      4452      4455      4456      4459
      4452      4455      4456      4633      4452      4629      4634      4633
      4452      4629      4634      4635      4452      4629      4630      4625
      4452      4629      4630      4631      4453      4276      4279      4278
      4453      4276      4279      4280      4453      4454      4455      4452
      4453      4454      4455      4456      4453      4458      4459      4456
      4453      4458      4459      4460      4454      4449      4450      4445
      4454      4449      4450      4451      4454      4453      4458      4457
      4454      4453      4458      4459      4454      4455      4456      4459
      4454      4455      4456      4633      4455      4452      4629      4634
      4455      4452      4629      4630      4455      4456      4459      4458
      4455      4456      4459      4460      4455      4456      4633      4638
      4455      4456      4633      4634      4456      4459      4460      4463
      4456      4459      4460      4637      4456      4633      4638      4637
      4456      4633      4638      4639      4456      4633      4634      4629
      4456      4633      4634      4635      4457      4280      4283      4282
      4457      4280      4283      4284      4457      4458      4459      4456
      4457      4458      4459      4460      4457      4462      4463      4460
      4457      4462      4463      4464      4458      4453      4454      4449
      4458      4453      4454      4455      4458      4457      4462      4461
      4458      4457      4462      4463      4458      4459      4460      4463
      4458      4459      4460      4637      4459      4456      4633      4638
      4459      4456      4633      4634      4459      4460      4463      4462
      4459      4460      4463      4464      4459      4460      4637      4642
      4459      4460      4637      4638      4460      4463      4464      4467
      4460      4463      4464      4641      4460      4637      4642      4641
      4460      4637      4642      4643      4460      4637      4638      4633
      4460      4637      4638      4639      4461      4284      4287      4286
      4461      4284      4287      4288      4461      4462      4463      4460
      4461      4462      4463      4464      4461      4466      4467      4464
      4461      4466      4467      4468      4462      4457      4458      4453
      4462      4457      4458      4459      4462      4461      4466      4465
      4462      4461      4466      4467      4462      4463      4464      4467
      4462      4463      4464      4641      4463      4460      4637      4642
      4463      4460      4637      4638      4463      4464      4467      4466
      4463      4464      4467      4468      4463      4464      4641      4642
      4463      4464      4641      4646      4464      4467      4468      4471
      4464      4467      4468      4645      4464      4641      4642      4637
      4464      4641      4642      4643      4464      4641      4646      4645
      4464      4641      4646      4647      4465      4288      4291      4290
      4465      4288      4291      4292      4465      4466      4467      4464
      4465      4466      4467      4468      4465      4470      4471      4468
      4465      4470      4471      4472      4466      4461      4462      4457
      4466      4461      4462      4463      4466      4465      4470      4469
      4466      4465      4470      4471      4466      4467      4468      4471
      4466      4467      4468      4645      4467      4464      4641      4642
      4467      4464      4641      4646      4467      4468      4471      4470
      4467      4468      4471      4472      4467      4468      4645      4646
      4467      4468      4645      4650      4468      4471      4472      4475
      4468      4471      4472      4649      4468      4645      4646      4641
      4468      4645      4646      4647      4468      4645      4650      4649
      4468      4645      4650      4651      4469      4292      4295      4294
      4469      4292      4295      4296      4469      4470      4471      4468
      4469      4470      4471      4472      4469      4474      4475      4472
      4469      4474      4475      4476      4470      4465      4466      4461
      4470      4465      4466      4467      4470      4469      4474      4473
      4470      4469      4474      4475      4470      4471      4472      4475
      4470      4471      4472      4649      4471      4468      4645      4646
      4471      4468      4645      4650      4471      4472      4475      4474
      4471      4472      4475      4476      4471      4472      4649      4654
      4471      4472      4649      4650      4472      4475      4476      4479
      4472      4475      4476      4653      4472      4649      4654      4653
      4472      4649      4654      4655      4472      4649      4650      4645
      4472      4649      4650      4651      4473      4296      4299      4298
      4473      4296      4299      4300      4473      4474      4475      4472
      4473      4474      4475      4476      4473      4478      4479      4476
      4473      4478      4479      4480      4474      4469      4470      4465
      4474      4469      4470      4471      4474      4473      4478      4477
      4474      4473      4478      4479      4474      4475      4476      4479
      4474      4475      4476      4653      4475      4472      4649      4654
      4475      4472      4649      4650      4475      4476      4479      4478
      4475      4476      4479      4480      4475      4476      4653      4658
      4475      4476      4653      4654      4476      4479      4480      4483
      4476      4479      4480      4657      4476      4653      4658      4657
      4476      4653      4658      4659      4476      4653      4654      4649
      4476      4653      4654      4655      4477      4300      4303      4302
      4477      4300      4303      4304      4477      4478      4479      4476
      4477      4478      4479      4480      4477      4482      4483      4480
      4477      4482      4483      4484      4478      4473      4474      4469
      4478      4473      4474      4475      4478      4477      4482      4481
      4478      4477      4482      4483      4478      4479      4480      4483
      4478      4479      4480      4657      4479      4476      4653      4658
      4479      4476      4653      4654      4479      4480      4483      4482
      4479      4480      4483      4484      4479      4480      4657      4662
      4479      4480      4657      4658      4480      4483      4484      4487
      4480      4483      4484      4661      4480      4657      4662      4661
      4480      4657      4662      4663      4480      4657      4658      4653
      4480      4657      4658      4659      4481      4304      4307      4306
      4481      4304      4307      4308      4481      4482      4483      4480
      4481      4482      4483      4484      4481      4486      4487      4484
      4481      4486      4487      4488      4482      4477      4478      4473
      4482      4477      4478      4479      4482      4481      4486      4485
      4482      4481      4486      4487      4482      4483      4484      4487
      4482      4483      4484      4661      4483      4480      4657      4662
      4483      4480      4657      4658      4483      4484      4487      4486
      4483      4484      4487      4488      4483      4484      4661      4662
      4483      4484      4661      4666      4484      4487      4488      4491
      4484      4487      4488      4665      4484      4661      4662      4657
      4484      4661      4662      4663      4484      4661      4666      4665
      4484      4661      4666      4667      4485      4308      4311      4310
      4485      4308      4311      4312      4485      4486      4487      4484
      4485      4486      4487      4488      4485      4490      4491      4488
      4485      4490      4491      4492      4486      4481      4482      4477
      4486      4481      4482      4483      4486      4485      4490      4489
      4486      4485      4490      4491      4486      4487      4488      4491
      4486      4487      4488      4665      4487      4484      4661      4662
      4487      4484      4661      4666      4487      4488      4491      4490
      4487      4488      4491      4492      4487      4488      4665      4666
      4487      4488      4665      4670      4488      4491      4492      4495
      4488      4491      4492      4669      4488      4665      4666      4661
      4488      4665      4666      4667      4488      4665      4670      4669
      4488      4665      4670      4671      4489      4312      4315      4314
      4489      4312      4315      4316      4489      4490      4491      4488
      4489      4490      4491      4492      4489      4494      4495      4492
      4489      4494      4495      4496      4490      4485      4486      4481
      4490      4485      4486      4487      4490      4489      4494      4493
      4490      4489      4494      4495      4490      4491      4492      4495
      4490      4491      4492      4669      4491      4488      4665      4666
      4491      4488      4665      4670      4491      4492      4495      4494
      4491      4492      4495      4496      4491      4492      4669      4674
      4491      4492      4669      4670      4492      4495      4496      4499
      4492      4495      4496      4673      4492      4669      4674      4673
      4492      4669      4674      4675      4492      4669      4670      4665
      4492      4669      4670      4671      4493      4316      4319      4318
      4493      4316      4319      4320      4493      4494      4495      4492
      4493      4494      4495      4496      4493      4498      4499      4496
      4493      4498      4499      4500      4494      4489      4490      4485
      4494      4489      4490      4491      4494      4493      4498      4497
      4494      4493      4498      4499      4494      4495      4496      4499
      4494      4495      4496      4673      4495      4492      4669      4674
      4495      4492      4669      4670      4495      4496      4499      4498
      4495      4496      4499      4500      4495      4496      4673      4674
      4495      4496      4673      4678      4496      4499      4500      4677
      4496      4673      4674      4669      4496      4673      4674      4675
      4496      4673      4678      4677      4496      4673      4678      4679
      4497      4498      4499      4496      4497      4498      4499      4500
      4498      4493      4494      4489      4498      4493      4494      4495
      4498      4499      4500      4677      4499      4496      4673      4674
      4499      4496      4673      4678      4499      4500      4677      4678
      4500      4677      4678      4673      4500      4677      4678      4679
      4501      4324      4327      4326      4501      4324      4327      4328
      4501      4502      4503      4504      4501      4506      4507      4504
      4501      4506      4507      4508      4502      4501      4506      4505
      4502      4501      4506      4507      4502      4503      4504      4507
      4503      4504      4507      4506      4503      4504      4507      4508
      4504      4507      4508      4511      4505      4328      4331      4330
      4505      4328      4331      4332      4505      4506      4507      4504
      4505      4506      4507      4508      4505      4510      4511      4508
      4505      4510      4511      4512      4506      4501      4502      4503
      4506      4505      4510      4509      4506      4505      4510      4511
      4506      4507      4508      4511      4507      4508      4511      4510
      4507      4508      4511      4512      4508      4511      4512      4515
      4509      4332      4335      4334      4509      4332      4335      4336
      4509      4510      4511      4508      4509      4510      4511      4512
      4509      4514      4515      4512      4509      4514      4515      4516
      4510      4505      4506      4501      4510      4505      4506      4507
      4510      4509      4514      4513      4510      4509      4514      4515
      4510      4511      4512      4515      4511      4512      4515      4514
      4511      4512      4515      4516      4512      4515      4516      4519
      4513      4336      4339      4338      4513      4336      4339      4340
      4513      4514      4515      4512      4513      4514      4515      4516
      4513      4518      4519      4516      4513      4518      4519      4520
      4514      4509      4510      4505      4514      4509      4510      4511
      4514      4513      4518      4517      4514      4513      4518      4519
      4514      4515      4516      4519      4515      4516      4519      4518
      4515      4516      4519      4520      4516      4519      4520      4523
      4517      4340      4343      4342      4517      4340      4343      4344
      4517      4518      4519      4516      4517      4518      4519      4520
      4517      4522      4523      4520      4517      4522      4523      4524
      4518      4513      4514      4509      4518      4513      4514      4515
      4518      4517      4522      4521      4518      4517      4522      4523
      4518      4519      4520      4523      4519      4520      4523      4522
      4519      4520      4523      4524      4520      4523      4524      4527
      4521      4344      4347      4346      4521      4344      4347      4348
      4521      4522      4523      4520      4521      4522      4523      4524
      4521      4526      4527      4524      4521      4526      4527      4528
      4522      4517      4518      4513      4522      4517      4518      4519
      4522      4521      4526      4525      4522      4521      4526      4527
      4522      4523      4524      4527      4523      4524      4527      4526
      4523      4524      4527      4528      4524      4527      4528      4531
      4525      4348      4351      4350      4525      4348      4351      4352
      4525      4526      4527      4524      4525      4526      4527      4528
      4525      4530      4531      4528      4525      4530      4531      4532
      4526      4521      4522      4517      4526      4521      4522      4523
      4526      4525      4530      4529      4526      4525      4530      4531
      4526      4527      4528      4531      4527      4528      4531      4530
      4527      4528      4531      4532      4528      4531      4532      4535
      4529      4352      4355      4354      4529      4352      4355      4356
      4529      4530      4531      4528      4529      4530      4531      4532
      4529      4534      4535      4532      4529      4534      4535      4536
      4530      4525      4526      4521      4530      4525      4526      4527
      4530      4529      4534      4533      4530      4529      4534      4535
      4530      4531      4532      4535      4531      4532      4535      4534
      4531      4532      4535      4536      4532      4535      4536      4539
      4533      4356      4359      4358      4533      4356      4359      4360
      4533      4534      4535      4532      4533      4534      4535      4536
      4533      4538      4539      4536      4533      4538      4539      4540
      4534      4529      4530      4525      4534      4529      4530      4531
      4534      4533      4538      4537      4534      4533      4538      4539
      4534      4535      4536      4539      4535      4536      4539      4538
      4535      4536      4539      4540      4536      4539      4540      4543
      4537      4360      4363      4362      4537      4360      4363      4364
      4537      4538      4539      4536      4537      4538      4539      4540
      4537      4542      4543      4540      4537      4542      4543      4544
      4538      4533      4534      4529      4538      4533      4534      4535
      4538      4537      4542      4541      4538      4537      4542      4543
      4538      4539      4540      4543      4539      4540      4543      4542
      4539      4540      4543      4544      4540      4543      4544      4547
      4541      4364      4367      4366      4541      4364      4367      4368
      4541      4542      4543      4540      4541      4542      4543      4544
      4541      4546      4547      4544      4541      4546      4547      4548
      4542      4537      4538      4533      4542      4537      4538      4539
      4542      4541      4546      4545      4542      4541      4546      4547
      4542      4543      4544      4547      4543      4544      4547      4546
      4543      4544      4547      4548      4544      4547      4548      4551
      4545      4368      4371      4370      4545      4368      4371      4372
      4545      4546      4547      4544      4545      4546      4547      4548
      4545      4550      4551      4548      4545      4550      4551      4552
      4546      4541      4542      4537      4546      4541      4542      4543
      4546      4545      4550      4549      4546      4545      4550      4551
      4546      4547      4548      4551      4547      4548      4551      4550
      4547      4548      4551      4552      4548      4551      4552      4555
      4549      4372      4375      4374      4549      4372      4375      4376
      4549      4550      4551      4548      4549      4550      4551      4552
      4549      4554      4555      4552      4549      4554      4555      4556
      4550      4545      4546      4541      4550      4545      4546      4547
      4550      4549      4554      4553      4550      4549      4554      4555
      4550      4551      4552      4555      4551      4552      4555      4554
      4551      4552      4555      4556      4552      4555      4556      4559
      4553      4376      4379      4378      4553      4376      4379      4380
      4553      4554      4555      4552      4553      4554      4555      4556
      4553      4558      4559      4556      4553      4558      4559      4560
      4554      4549      4550      4545      4554      4549      4550      4551
      4554      4553      4558      4557      4554      4553      4558      4559
      4554      4555      4556      4559      4555      4556      4559      4558
      4555      4556      4559      4560      4556      4559      4560      4563
      4557      4380      4383      4382      4557      4380      4383      4384
      4557      4558      4559      4556      4557      4558      4559      4560
      4557      4562      4563      4560      4557      4562      4563      4564
      4558      4553      4554      4549      4558      4553      4554      4555
      4558      4557      4562      4561      4558      4557      4562      4563
      4558      4559      4560      4563      4559      4560      4563      4562
      4559      4560      4563      4564      4560      4563      4564      4567
      4561      4384      4387      4386      4561      4384      4387      4388
      4561      4562      4563      4560      4561      4562      4563      4564
      4561      4566      4567      4564      4561      4566      4567      4568
      4562      4557      4558      4553      4562      4557      4558      4559
      4562      4561      4566      4565      4562      4561      4566      4567
      4562      4563      4564      4567      4563      4564      4567      4566
      4563      4564      4567      4568      4564      4567      4568      4571
      4565      4388      4391      4390      4565      4388      4391      4392
      4565      4566      4567      4564      4565      4566      4567      4568
      4565      4570      4571      4568      4565      4570      4571      4572
      4566      4561      4562      4557      4566      4561      4562      4563
      4566      4565      4570      4569      4566      4565      4570      4571
      4566      4567      4568      4571      4567      4568      4571      4570
      4567      4568      4571      4572      4568      4571      4572      4575
      4569      4392      4395      4394      4569      4392      4395      4396
      4569      4570      4571      4568      4569      4570      4571      4572
      4569      4574      4575      4572      4569      4574      4575      4576
      4570      4565      4566      4561      4570      4565      4566      4567
      4570      4569      4574      4573      4570      4569      4574      4575
      4570      4571      4572      4575      4571      4572      4575      4574
      4571      4572      4575      4576      4572      4575      4576      4579
      4573      4396      4399      4398      4573      4396      4399      4400
      4573      4574      4575      4572      4573      4574      4575      4576
      4573      4578      4579      4576      4573      4578      4579      4580
      4574      4569      4570      4565      4574      4569      4570      4571
      4574      4573      4578      4577      4574      4573      4578      4579
      4574      4575      4576      4579      4575      4576      4579      4578
      4575      4576      4579      4580      4576      4579      4580      4583
      4577      4400      4403      4402      4577      4400      4403      4404
      4577      4578      4579      4576      4577      4578      4579      4580
      4577      4582      4583      4580      4577      4582      4583      4584
      4578      4573      4574      4569      4578      4573      4574      4575
      4578      4577      4582      4581      4578      4577      4582      4583
      4578      4579      4580      4583      4579      4580      4583      4582
      4579      4580      4583      4584      4580      4583      4584      4587
      4581      4404      4407      4406      4581      4404      4407      4408
      4581      4582      4583      4580      4581      4582      4583      4584
      4581      4586      4587      4584      4581      4586      4587      4588
      4582      4577      4578      4573      4582      4577      4578      4579
      4582      4581      4586      4585      4582      4581      4586      4587
      4582      4583      4584      4587      4583      4584      4587      4586
      4583      4584      4587      4588      4584      4587      4588      4591
      4585      4408      4411      4410      4585      4408      4411      4412
      4585      4586      4587      4584      4585      4586      4587      4588
      4585      4590      4591      4588      4585      4590      4591      4592
      4586      4581      4582      4577      4586      4581      4582      4583
      4586      4585      4590      4589      4586      4585      4590      4591
      4586      4587      4588      4591      4587      4588      4591      4590
      4587      4588      4591      4592      4588      4591      4592      4595
      4589      4412      4415      4414      4589      4412      4415      4416
      4589      4590      4591      4588      4589      4590      4591      4592
      4589      4594      4595      4592      4589      4594      4595      4596
      4590      4585      4586      4581      4590      4585      4586      4587
      4590      4589      4594      4593      4590      4589      4594      4595
      4590      4591      4592      4595      4591      4592      4595      4594
      4591      4592      4595      4596      4592      4595      4596      4599
      4593      4416      4419      4418      4593      4416      4419      4420
      4593      4594      4595      4592      4593      4594      4595      4596
      4593      4598      4599      4596      4593      4598      4599      4600
      4594      4589      4590      4585      4594      4589      4590      4591
      4594      4593      4598      4597      4594      4593      4598      4599
      4594      4595      4596      4599      4595      4596      4599      4598
      4595      4596      4599      4600      4596      4599      4600      4603
      4597      4420      4423      4422      4597      4420      4423      4424
      4597      4598      4599      4596      4597      4598      4599      4600
      4597      4602      4603      4600      4597      4602      4603      4604
      4598      4593      4594      4589      4598      4593      4594      4595
      4598      4597      4602      4601      4598      4597      4602      4603
      4598      4599      4600      4603      4599      4600      4603      4602
      4599      4600      4603      4604      4600      4603      4604      4607
      4601      4424      4427      4426      4601      4424      4427      4428
      4601      4602      4603      4600      4601      4602      4603      4604
      4601      4606      4607      4604      4601      4606      4607      4608
      4602      4597      4598      4593      4602      4597      4598      4599
      4602      4601      4606      4605      4602      4601      4606      4607
      4602      4603      4604      4607      4603      4604      4607      4606
      4603      4604      4607      4608      4604      4607      4608      4611
      4605      4428      4431      4430      4605      4428      4431      4432
      4605      4606      4607      4604      4605      4606      4607      4608
      4605      4610      4611      4608      4605      4610      4611      4612
      4606      4601      4602      4597      4606      4601      4602      4603
      4606      4605      4610      4609      4606      4605      4610      4611
      4606      4607      4608      4611      4607      4608      4611      4610
      4607      4608      4611      4612      4608      4611      4612      4615
      4609      4432      4435      4434      4609      4432      4435      4436
      4609      4610      4611      4608      4609      4610      4611      4612
      4609      4614      4615      4612      4609      4614      4615      4616
      4610      4605      4606      4601      4610      4605      4606      4607
      4610      4609      4614      4613      4610      4609      4614      4615
      4610      4611      4612      4615      4611      4612      4615      4614
      4611      4612      4615      4616      4612      4615      4616      4619
      4613      4436      4439      4438      4613      4436      4439      4440
      4613      4614      4615      4612      4613      4614      4615      4616
      4613      4618      4619      4616      4613      4618      4619      4620
      4614      4609      4610      4605      4614      4609      4610      4611
      4614      4613      4618      4617      4614      4613      4618      4619
      4614      4615      4616      4619      4615      4616      4619      4618
      4615      4616      4619      4620      4616      4619      4620      4623
      4617      4440      4443      4442      4617      4440      4443      4444
      4617      4618      4619      4616      4617      4618      4619      4620
      4617      4622      4623      4620      4617      4622      4623      4624
      4618      4613      4614      4609      4618      4613      4614      4615
      4618      4617      4622      4621      4618      4617      4622      4623
      4618      4619      4620      4623      4619      4620      4623      4622
      4619      4620      4623      4624      4620      4623      4624      4627
      4621      4444      4447      4446      4621      4444      4447      4448
      4621      4622      4623      4620      4621      4622      4623      4624
      4621      4626      4627      4624      4621      4626      4627      4628
      4622      4617      4618      4613      4622      4617      4618      4619
      4622      4621      4626      4625      4622      4621      4626      4627
      4622      4623      4624      4627      4623      4624      4627      4626
      4623      4624      4627      4628      4624      4627      4628      4631
      4625      4448      4451      4450      4625      4448      4451      4452
      4625      4626      4627      4624      4625      4626      4627      4628
      4625      4630      4631      4628      4625      4630      4631      4632
      4626      4621      4622      4617      4626      4621      4622      4623
      4626      4625      4630      4629      4626      4625      4630      4631
      4626      4627      4628      4631      4627      4628      4631      4630
      4627      4628      4631      4632      4628      4631      4632      4635
      4629      4452      4455      4454      4629      4452      4455      4456
      4629      4630      4631      4628      4629      4630      4631      4632
      4629      4634      4635      4632      4629      4634      4635      4636
      4630      4625      4626      4621      4630      4625      4626      4627
      4630      4629      4634      4633      4630      4629      4634      4635
      4630      4631      4632      4635      4631      4632      4635      4634
      4631      4632      4635      4636      4632      4635      4636      4639
      4633      4456      4459      4458      4633      4456      4459      4460
      4633      4634      4635      4632      4633      4634      4635      4636
      4633      4638      4639      4636      4633      4638      4639      4640
      4634      4629      4630      4625      4634      4629      4630      4631
      4634      4633      4638      4637      4634      4633      4638      4639
      4634      4635      4636      4639      4635      4636      4639      4638
      4635      4636      4639      4640      4636      4639      4640      4643
      4637      4460      4463      4462      4637      4460      4463      4464
      4637      4638      4639      4636      4637      4638      4639      4640
      4637      4642      4643      4640      4637      4642      4643      4644
      4638      4633      4634      4629      4638      4633      4634      4635
      4638      4637      4642      4641      4638      4637      4642      4643
      4638      4639      4640      4643      4639      4640      4643      4642
      4639      4640      4643      4644      4640      4643      4644      4647
      4641      4464      4467      4466      4641      4464      4467      4468
      4641      4642      4643      4640      4641      4642      4643      4644
      4641      4646      4647      4644      4641      4646      4647      4648
      4642      4637      4638      4633      4642      4637      4638      4639
      4642      4641      4646      4645      4642      4641      4646      4647
      4642      4643      4644      4647      4643      4644      4647      4646
      4643      4644      4647      4648      4644      4647      4648      4651
      4645      4468      4471      4470      4645      4468      4471      4472
      4645      4646      4647      4644      4645      4646      4647      4648
      4645      4650      4651      4648      4645      4650      4651      4652
      4646      4641      4642      4637      4646      4641      4642      4643
      4646      4645      4650      4649      4646      4645      4650      4651
      4646      4647      4648      4651      4647      4648      4651      4650
      4647      4648      4651      4652      4648      4651      4652      4655
      4649      4472      4475      4474      4649      4472      4475      4476
      4649      4650      4651      4648      4649      4650      4651      4652
      4649      4654      4655      4652      4649      4654      4655      4656
      4650      4645      4646      4641      4650      4645      4646      4647
      4650      4649      4654      4653      4650      4649      4654      4655
      4650      4651      4652      4655      4651      4652      4655      4654
      4651      4652      4655      4656      4652      4655      4656      4659
      4653      4476      4479      4478      4653      4476      4479      4480
      4653      4654      4655      4652      4653      4654      4655      4656
      4653      4658      4659      4656      4653      4658      4659      4660
      4654      4649      4650      4645      4654      4649      4650      4651
      4654      4653      4658      4657      4654      4653      4658      4659
      4654      4655      4656      4659      4655      4656      4659      4658
      4655      4656      4659      4660      4656      4659      4660      4663
      4657      4480      4483      4482      4657      4480      4483      4484
      4657      4658      4659      4656      4657      4658      4659      4660
      4657      4662      4663      4660      4657      4662      4663      4664
      4658      4653      4654      4649      4658      4653      4654      4655
      4658      4657      4662      4661      4658      4657      4662      4663
      4658      4659      4660      4663      4659      4660      4663      4662
      4659      4660      4663      4664      4660      4663      4664      4667
      4661      4484      4487      4486      4661      4484      4487      4488
      4661      4662      4663      4660      4661      4662      4663      4664
      4661      4666      4667      4664      4661      4666      4667      4668
      4662      4657      4658      4653      4662      4657      4658      4659
      4662      4661      4666      4665      4662      4661      4666      4667
      4662      4663      4664      4667      4663      4664      4667      4666
      4663      4664      4667      4668      4664      4667      4668      4671
      4665      4488      4491      4490      4665      4488      4491      4492
      4665      4666      4667      4664      4665      4666      4667      4668
      4665      4670      4671      4668      4665      4670      4671      4672
      4666      4661      4662      4657      4666      4661      4662      4663
      4666      4665      4670      4669      4666      4665      4670      4671
      4666      4667      4668      4671      4667      4668      4671      4670
      4667      4668      4671      4672      4668      4671      4672      4675
      4669      4492      4495      4494      4669      4492      4495      4496
      4669      4670      4671      4668      4669      4670      4671      4672
      4669      4674      4675      4672      4669      4674      4675      4676
      4670      4665      4666      4661      4670      4665      4666      4667
      4670      4669      4674      4673      4670      4669      4674      4675
      4670      4671      4672      4675      4671      4672      4675      4674
      4671      4672      4675      4676      4672      4675      4676      4679
      4673      4496      4499      4498      4673      4496      4499      4500
      4673      4674      4675      4672      4673      4674      4675      4676
      4673      4678      4679      4676      4673      4678      4679      4680
      4674      4669      4670      4665      4674      4669      4670      4671
      4674      4673      4678      4677      4674      4673      4678      4679
      4674      4675      4676      4679      4675      4676      4679      4678
      4675      4676      4679      4680      4677      4678      4679      4676
      4677      4678      4679      4680      4678      4673      4674      4669
      4678      4673      4674      4675      4945      4944      4948      4949
      4946      4944      4948      4949      4947      4944      4948      4949
      4951      4950      4954      4955      4952      4950      4954      4955
      4953      4950      4954      4955      4957      4956      4960      4961
      4958      4956      4960      4961      4959      4956      4960      4961
      4963      4962      4966      4967      4964      4962      4966      4967
      4965      4962      4966      4967      4969      4968      4972      4973
      4970      4968      4972      4973      4971      4968      4972      4973
      4975      4974      4978      4979      4976      4974      4978      4979
      4977      4974      4978      4979      4981      4980      4984      4985
      4982      4980      4984      4985      4983      4980      4984      4985
      4987      4986      4990      4991      4988      4986      4990      4991
      4989      4986      4990      4991      4993      4992      4996      4997
      4994      4992      4996      4997      4995      4992      4996      4997
      4999      4998      5002      5003      5000      4998      5002      5003
      5001      4998      5002      5003      5005      5004      5008      5009
      5006      5004      5008      5009      5007      5004      5008      5009
      5011      5010      5014      5015      5012      5010      5014      5015
      5013      5010      5014      5015      5017      5016      5020      5021
      5018      5016      5020      5021      5019      5016      5020      5021
      5023      5022      5026      5027      5024      5022      5026      5027
      5025      5022      5026      5027      5029      5028      5032      5033
      5030      5028      5032      5033      5031      5028      5032      5033
      5035      5034      5038      5039      5036      5034      5038      5039
      5037      5034      5038      5039      5041      5040      5044      5045
      5042      5040      5044      5045      5043      5040      5044      5045
      5047      5046      5050      5051      5048      5046      5050      5051
      5049      5046      5050      5051      5053      5052      5056      5057
      5054      5052      5056      5057      5055      5052      5056      5057
      5059      5058      5062      5063      5060      5058      5062      5063
      5061      5058      5062      5063      5065      5064      5068      5069
      5066      5064      5068      5069      5067      5064      5068      5069
      5071      5070      5074      5075      5072      5070      5074      5075
      5073      5070      5074      5075      5077      5076      5080      5081
      5078      5076      5080      5081      5079      5076      5080      5081
      5083      5082      5086      5087      5084      5082      5086      5087
      5085      5082      5086      5087      5089      5088      5092      5093
      5090      5088      5092      5093      5091      5088      5092      5093
      5095      5094      5098      5099      5096      5094      5098      5099
      5097      5094      5098      5099      5101      5100      5104      5105
      5102      5100      5104      5105      5103      5100      5104      5105
      5107      5106      5110      5111      5108      5106      5110      5111
      5109      5106      5110      5111      5113      5112      5116      5117
      5114      5112      5116      5117      5115      5112      5116      5117
      5119      5118      5122      5123      5120      5118      5122      5123
      5121      5118      5122      5123      5125      5124      5128      5129
      5126      5124      5128      5129      5127      5124      5128      5129
      5131      5130      5134      5135      5132      5130      5134      5135
      5133      5130      5134      5135      5137      5136      5140      5141
      5138      5136      5140      5141      5139      5136      5140      5141
      5143      5142      5146      5147      5144      5142      5146      5147
      5145      5142      5146      5147      5149      5148      5152      5153
      5150      5148      5152      5153      5151      5148      5152      5153
      5155      5154      5158      5159      5156      5154      5158      5159
      5157      5154      5158      5159      5161      5160      5164      5165
      5162      5160      5164      5165      5163      5160      5164      5165
      5167      5166      5170      5171      5168      5166      5170      5171
      5169      5166      5170      5171      5173      5172      5176      5177
      5174      5172      5176      5177      5175      5172      5176      5177
      5179      5178      5182      5183      5180      5178      5182      5183
      5181      5178      5182      5183      5185      5184      5188      5189
      5186      5184      5188      5189      5187      5184      5188      5189
      5191      5190      5194      5195      5192      5190      5194      5195
      5193      5190      5194      5195      5197      5196      5200      5201
      5198      5196      5200      5201      5199      5196      5200      5201
      5203      5202      5206      5207      5204      5202      5206      5207
      5205      5202      5206      5207      5209      5208      5212      5213
      5210      5208      5212      5213      5211      5208      5212      5213
      5215      5214      5218      5219      5216      5214      5218      5219
      5217      5214      5218      5219      5221      5220      5224      5225
      5222      5220      5224      5225      5223      5220      5224      5225
      5227      5226      5230      5231      5228      5226      5230      5231
      5229      5226      5230      5231      5233      5232      5236      5237
      5234      5232      5236      5237      5235      5232      5236      5237
      5239      5238      5242      5243      5240      5238      5242      5243
      5241      5238      5242      5243      5245      5244      5248      5249
      5246      5244      5248      5249      5247      5244      5248      5249
      5251      5250      5254      5255      5252      5250      5254      5255
      5253      5250      5254      5255      5257      5256      5260      5261
      5258      5256      5260      5261      5259      5256      5260      5261
      5263      5262      5266      5267      5264      5262      5266      5267
      5265      5262      5266      5267      5269      5268      5272      5273
      5270      5268      5272      5273      5271      5268      5272      5273
      5275      5274      5278      5279      5276      5274      5278      5279
      5277      5274      5278      5279      5281      5280      5284      5285
      5282      5280      5284      5285      5283      5280      5284      5285
      5287      5286      5290      5291      5288      5286      5290      5291
      5289      5286      5290      5291      5293      5292      5296      5297
      5294      5292      5296      5297      5295      5292      5296      5297
      5299      5298      5302      5303      5300      5298      5302      5303
      5301      5298      5302      5303      5305      5304      5308      5309
      5306      5304      5308      5309      5307      5304      5308      5309
      5311      5310      5314      5315      5312      5310      5314      5315
      5313      5310      5314      5315      5317      5316      5320      5321
      5318      5316      5320      5321      5319      5316      5320      5321
      5323      5322      5326      5327      5324      5322      5326      5327
      5325      5322      5326      5327      5329      5328      5332      5333
      5330      5328      5332      5333      5331      5328      5332      5333
      5335      5334      5338      5339      5336      5334      5338      5339
      5337      5334      5338      5339      5341      5340      5344      5345
      5342      5340      5344      5345      5343      5340      5344      5345
      5347      5346      5350      5351      5348      5346      5350      5351
      5349      5346      5350      5351      5353      5352      5356      5357
      5354      5352      5356      5357      5355      5352      5356      5357
      5359      5358      5362      5363      5360      5358      5362      5363
      5361      5358      5362      5363      5365      5364      5368      5369
      5366      5364      5368      5369      5367      5364      5368      5369
      5371      5370      5374      5375      5372      5370      5374      5375
      5373      5370      5374      5375      5377      5376      5380      5381
      5378      5376      5380      5381      5379      5376      5380      5381
      5383      5382      5386      5387      5384      5382      5386      5387
      5385      5382      5386      5387      5389      5388      5392      5393
      5390      5388      5392      5393      5391      5388      5392      5393
      5395      5394      5398      5399      5396      5394      5398      5399
      5397      5394      5398      5399      5401      5400      5404      5405
      5402      5400      5404      5405      5403      5400      5404      5405
      5407      5406      5410      5411      5408      5406      5410      5411
      5409      5406      5410      5411      5413      5412      5416      5417
      5414      5412      5416      5417      5415      5412      5416      5417
      5419      5418      5422      5423      5420      5418      5422      5423
      5421      5418      5422      5423      5425      5424      5428      5429
      5426      5424      5428      5429      5427      5424      5428      5429
      5431      5430      5434      5435      5432      5430      5434      5435
      5433      5430      5434      5435      5437      5436      5440      5441
      5438      5436      5440      5441      5439      5436      5440      5441
      5443      5442      5446      5447      5444      5442      5446      5447
      5445      5442      5446      5447      5449      5448      5452      5453
      5450      5448      5452      5453      5451      5448      5452      5453
      5455      5454      5458      5459      5456      5454      5458      5459
      5457      5454      5458      5459      5461      5460      5464      5465
      5462      5460      5464      5465      5463      5460      5464      5465
      5467      5466      5470      5471      5468      5466      5470      5471
      5469      5466      5470      5471      5473      5472      5476      5477
      5474      5472      5476      5477      5475      5472      5476      5477
      5479      5478      5482      5483      5480      5478      5482      5483
      5481      5478      5482      5483      5485      5484      5488      5489
      5486      5484      5488      5489      5487      5484      5488      5489
      5491      5490      5494      5495      5492      5490      5494      5495
      5493      5490      5494      5495      5497      5496      5500      5501
      5498      5496      5500      5501      5499      5496      5500      5501
      5503      5502      5506      5507      5504      5502      5506      5507
      5505      5502      5506      5507      5509      5508      5512      5513
      5510      5508      5512      5513      5511      5508      5512      5513
      5515      5514      5518      5519      5516      5514      5518      5519
      5517      5514      5518      5519      5521      5520      5524      5525
      5522      5520      5524      5525      5523      5520      5524      5525
      5527      5526      5530      5531      5528      5526      5530      5531
      5529      5526      5530      5531      5533      5532      5536      5537
      5534      5532      5536      5537      5535      5532      5536      5537
      5539      5538      5542      5543      5540      5538      5542      5543
      5541      5538      5542      5543      5545      5544      5548      5549
      5546      5544      5548      5549      5547      5544      5548      5549
      5551      5550      5554      5555      5552      5550      5554      5555
      5553      5550      5554      5555      5557      5556      5560      5561
      5558      5556      5560      5561      5559      5556      5560      5561
      5563      5562      5566      5567      5564      5562      5566      5567
      5565      5562      5566      5567      5569      5568      5572      5573
      5570      5568      5572      5573      5571      5568      5572      5573
      5575      5574      5578      5579      5576      5574      5578      5579
      5577      5574      5578      5579      5581      5580      5584      5585
      5582      5580      5584      5585      5583      5580      5584      5585
      5587      5586      5590      5591      5588      5586      5590      5591
      5589      5586      5590      5591      5593      5592      5596      5597
      5594      5592      5596      5597      5595      5592      5596      5597
      5599      5598      5602      5603      5600      5598      5602      5603
      5601      5598      5602      5603      5605      5604      5608      5609
      5606      5604      5608      5609      5607      5604      5608      5609
      5611      5610      5614      5615      5612      5610      5614      5615
      5613      5610      5614      5615      5617      5616      5620      5621
      5618      5616      5620      5621      5619      5616      5620      5621
      5623      5622      5626      5627      5624      5622      5626      5627
      5625      5622      5626      5627      5629      5628      5632      5633
      5630      5628      5632      5633      5631      5628      5632      5633
      5635      5634      5638      5639      5636      5634      5638      5639
      5637      5634      5638      5639      5641      5640      5644      5645
      5642      5640      5644      5645      5643      5640      5644      5645
      5647      5646      5650      5651      5648      5646      5650      5651
      5649      5646      5650      5651      5653      5652      5656      5657
      5654      5652      5656      5657      5655      5652      5656      5657
      5659      5658      5662      5663      5660      5658      5662      5663
      5661      5658      5662      5663      5665      5664      5668      5669
      5666      5664      5668      5669      5667      5664      5668      5669
      5671      5670      5674      5675      5672      5670      5674      5675
      5673      5670      5674      5675      5677      5676      5680      5681
      5678      5676      5680      5681      5679      5676      5680      5681
      5683      5682      5686      5687      5684      5682      5686      5687
      5685      5682      5686      5687      5689      5688      5692      5693
      5690      5688      5692      5693      5691      5688      5692      5693
      5695      5694      5698      5699      5696      5694      5698      5699
      5697      5694      5698      5699      5701      5700      5704      5705
      5702      5700      5704      5705      5703      5700      5704      5705
      5707      5706      5710      5711      5708      5706      5710      5711
      5709      5706      5710      5711      5713      5712      5716      5717
      5714      5712      5716      5717      5715      5712      5716      5717
      5719      5718      5722      5723      5720      5718      5722      5723
      5721      5718      5722      5723      5725      5724      5728      5729
      5726      5724      5728      5729      5727      5724      5728      5729
      5731      5730      5734      5735      5732      5730      5734      5735
      5733      5730      5734      5735      5737      5736      5740      5741
      5738      5736      5740      5741      5739      5736      5740      5741
      5743      5742      5746      5747      5744      5742      5746      5747
      5745      5742      5746      5747      5749      5748      5752      5753
      5750      5748      5752      5753      5751      5748      5752      5753
      5755      5754      5758      5759      5756      5754      5758      5759
      5757      5754      5758      5759      5761      5760      5764      5765
      5762      5760      5764      5765      5763      5760      5764      5765
      5767      5766      5770      5771      5768      5766      5770      5771
      5769      5766      5770      5771      5773      5772      5776      5777
      5774      5772      5776      5777      5775      5772      5776      5777
      5779      5778      5782      5783      5780      5778      5782      5783
      5781      5778      5782      5783      5785      5784      5788      5789
      5786      5784      5788      5789      5787      5784      5788      5789
      5791      5790      5794      5795      5792      5790      5794      5795
      5793      5790      5794      5795      5797      5796      5800      5801
      5798      5796      5800      5801      5799      5796      5800      5801
      5803      5802      5806      5807      5804      5802      5806      5807
      5805      5802      5806      5807      5809      5808      5812      5813
      5810      5808      5812      5813      5811      5808      5812      5813
      5815      5814      5818      5819      5816      5814      5818      5819
      5817      5814      5818      5819      5821      5820      5824      5825
      5822      5820      5824      5825      5823      5820      5824      5825
      5827      5826      5830      5831      5828      5826      5830      5831
      5829      5826      5830      5831      5833      5832      5836      5837
      5834      5832      5836      5837      5835      5832      5836      5837
      5839      5838      5842      5843      5840      5838      5842      5843
      5841      5838      5842      5843      5845      5844      5848      5849
      5846      5844      5848      5849      5847      5844      5848      5849
      5851      5850      5854      5855      5852      5850      5854      5855
      5853      5850      5854      5855      5857      5856      5860      5861
      5858      5856      5860      5861      5859      5856      5860      5861
      5863      5862      5866      5867      5864      5862      5866      5867
      5865      5862      5866      5867      5869      5868      5872      5873
      5870      5868      5872      5873      5871      5868      5872      5873
      5875      5874      5878      5879      5876      5874      5878      5879
      5877      5874      5878      5879      5881      5880      5884      5885
      5882      5880      5884      5885      5883      5880      5884      5885
      5887      5886      5890      5891      5888      5886      5890      5891
      5889      5886      5890      5891      5893      5892      5896      5897
      5894      5892      5896      5897      5895      5892      5896      5897
      5899      5898      5902      5903      5900      5898      5902      5903
      5901      5898      5902      5903      5905      5904      5908      5909
      5906      5904      5908      5909      5907      5904      5908      5909
      5911      5910      5914      5915      5912      5910      5914      5915
      5913      5910      5914      5915      5917      5916      5920      5921
      5918      5916      5920      5921      5919      5916      5920      5921
      5923      5922      5926      5927      5924      5922      5926      5927
      5925      5922      5926      5927      5929      5928      5932      5933
      5930      5928      5932      5933      5931      5928      5932      5933
      5935      5934      5938      5939      5936      5934      5938      5939
      5937      5934      5938      5939      5941      5940      5944      5945
      5942      5940      5944      5945      5943      5940      5944      5945
      5947      5946      5950      5951      5948      5946      5950      5951
      5949      5946      5950      5951      5953      5952      5956      5957
      5954      5952      5956      5957      5955      5952      5956      5957
      5959      5958      5962      5963      5960      5958      5962      5963
      5961      5958      5962      5963      5965      5964      5968      5969
      5966      5964      5968      5969      5967      5964      5968      5969
      5971      5970      5974      5975      5972      5970      5974      5975
      5973      5970      5974      5975      5977      5976      5980      5981
      5978      5976      5980      5981      5979      5976      5980      5981
      5983      5982      5986      5987      5984      5982      5986      5987
      5985      5982      5986      5987      5989      5988      5992      5993
      5990      5988      5992      5993      5991      5988      5992      5993
      5995      5994      5998      5999      5996      5994      5998      5999
      5997      5994      5998      5999      6001      6000      6004      6005
      6002      6000      6004      6005      6003      6000      6004      6005
      6007      6006      6010      6011      6008      6006      6010      6011
      6009      6006      6010      6011      6013      6012      6016      6017
      6014      6012      6016      6017      6015      6012      6016      6017
      6019      6018      6022      6023      6020      6018      6022      6023
      6021      6018      6022      6023      6025      6024      6028      6029
      6026      6024      6028      6029      6027      6024      6028      6029
      6031      6030      6034      6035      6032      6030      6034      6035
      6033      6030      6034      6035      6037      6036      6040      6041
      6038      6036      6040      6041      6039      6036      6040      6041
      6043      6042      6046      6047      6044      6042      6046      6047
      6045      6042      6046      6047      6049      6048      6052      6053
      6050      6048      6052      6053      6051      6048      6052      6053
      6055      6054      6058      6059      6056      6054      6058      6059
      6057      6054      6058      6059      6061      6060      6064      6065
      6062      6060      6064      6065      6063      6060      6064      6065
      6067      6066      6070      6071      6068      6066      6070      6071
      6069      6066      6070      6071      6073      6072      6076      6077
      6074      6072      6076      6077      6075      6072      6076      6077
      6079      6078      6082      6083      6080      6078      6082      6083
      6081      6078      6082      6083      6085      6084      6088      6089
      6086      6084      6088      6089      6087      6084      6088      6089
      6091      6090      6094      6095      6092      6090      6094      6095
      6093      6090      6094      6095      6097      6096      6100      6101
      6098      6096      6100      6101      6099      6096      6100      6101
      6103      6102      6106      6107      6104      6102      6106      6107
      6105      6102      6106      6107      6109      6108      6112      6113
      6110      6108      6112      6113      6111      6108      6112      6113
      6115      6114      6118      6119      6116      6114      6118      6119
      6117      6114      6118      6119      6121      6120      6124      6125
      6122      6120      6124      6125      6123      6120      6124      6125
      6127      6126      6130      6131      6128      6126      6130      6131
      6129      6126      6130      6131      6133      6132      6136      6137
      6134      6132      6136      6137      6135      6132      6136      6137
      6139      6138      6142      6143      6140      6138      6142      6143
      6141      6138      6142      6143      6145      6144      6148      6149
      6146      6144      6148      6149      6147      6144      6148      6149
      6151      6150      6154      6155      6152      6150      6154      6155
      6153      6150      6154      6155      6157      6156      6160      6161
      6158      6156      6160      6161      6159      6156      6160      6161
      6163      6162      6166      6167      6164      6162      6166      6167
      6165      6162      6166      6167      6169      6168      6172      6173
      6170      6168      6172      6173      6171      6168      6172      6173
      6175      6174      6178      6179      6176      6174      6178      6179
      6177      6174      6178      6179      6181      6180      6184      6185
      6182      6180      6184      6185      6183      6180      6184      6185
      6187      6186      6190      6191      6188      6186      6190      6191
      6189      6186      6190      6191      6193      6192      6196      6197
      6194      6192      6196      6197      6195      6192      6196      6197
      6199      6198      6202      6203      6200      6198      6202      6203
      6201      6198      6202      6203      6205      6204      6208      6209
      6206      6204      6208      6209      6207      6204      6208      6209
      6211      6210      6214      6215      6212      6210      6214      6215
      6213      6210      6214      6215      6217      6216      6220      6221
      6218      6216      6220      6221      6219      6216      6220      6221
      6223      6222      6226      6227      6224      6222      6226      6227
      6225      6222      6226      6227      6229      6228      6232      6233
      6230      6228      6232      6233      6231      6228      6232      6233
      6235      6234      6238      6239      6236      6234      6238      6239
      6237      6234      6238      6239      6241      6240      6244      6245
      6242      6240      6244      6245      6243      6240      6244      6245
      6247      6246      6250      6251      6248      6246      6250      6251
      6249      6246      6250      6251      6253      6252      6256      6257
      6254      6252      6256      6257      6255      6252      6256      6257
      6259      6258      6262      6263      6260      6258      6262      6263
      6261      6258      6262      6263      6265      6264      6268      6269
      6266      6264      6268      6269      6267      6264      6268      6269
      6271      6270      6274      6275      6272      6270      6274      6275
      6273      6270      6274      6275      6277      6276      6280      6281
      6278      6276      6280      6281      6279      6276      6280      6281
      6283      6282      6286      6287      6284      6282      6286      6287
      6285      6282      6286      6287      6289      6288      6292      6293
      6290      6288      6292      6293      6291      6288      6292      6293
      6295      6294      6298      6299      6296      6294      6298      6299
      6297      6294      6298      6299      6301      6300      6304      6305
      6302      6300      6304      6305      6303      6300      6304      6305
      6307      6306      6310      6311      6308      6306      6310      6311
      6309      6306      6310      6311      6313      6312      6316      6317
      6314      6312      6316      6317      6315      6312      6316      6317
      6319      6318      6322      6323      6320      6318      6322      6323
      6321      6318      6322      6323      6325      6324      6328      6329
      6326      6324      6328      6329      6327      6324      6328      6329
      6331      6330      6334      6335      6332      6330      6334      6335
      6333      6330      6334      6335      6337      6336      6340      6341
      6338      6336      6340      6341      6339      6336      6340      6341
      6343      6342      6346      6347      6344      6342      6346      6347
      6345      6342      6346      6347      6349      6348      6352      6353
      6350      6348      6352      6353      6351      6348      6352      6353
      6355      6354      6358      6359      6356      6354      6358      6359
      6357      6354      6358      6359      6361      6360      6364      6365
      6362      6360      6364      6365      6363      6360      6364      6365
      6367      6366      6370      6371      6368      6366      6370      6371
      6369      6366      6370      6371      6373      6372      6376      6377
      6374      6372      6376      6377      6375      6372      6376      6377
      6379      6378      6382      6383      6380      6378      6382      6383
      6381      6378      6382      6383      6385      6384      6388      6389
      6386      6384      6388      6389      6387      6384      6388      6389
      6391      6390      6394      6395      6392      6390      6394      6395
      6393      6390      6394      6395      6397      6396      6400      6401
      6398      6396      6400      6401      6399      6396      6400      6401
      6403      6402      6406      6407      6404      6402      6406      6407
      6405      6402      6406      6407      6409      6408      6412      6413
      6410      6408      6412      6413      6411      6408      6412      6413
      6415      6414      6418      6419      6416      6414      6418      6419
      6417      6414      6418      6419      6421      6420      6424      6425
      6422      6420      6424      6425      6423      6420      6424      6425
      6427      6426      6430      6431      6428      6426      6430      6431
      6429      6426      6430      6431      6433      6432      6436      6437
      6434      6432      6436      6437      6435      6432      6436      6437
      6439      6438      6442      6443      6440      6438      6442      6443
      6441      6438      6442      6443      6445      6444      6448      6449
      6446      6444      6448      6449      6447      6444      6448      6449
      6451      6450      6454      6455      6452      6450      6454      6455
      6453      6450      6454      6455      6457      6456      6460      6461
      6458      6456      6460      6461      6459      6456      6460      6461
      6463      6462      6466      6467      6464      6462      6466      6467
      6465      6462      6466      6467      6469      6468      6472      6473
      6470      6468      6472      6473      6471      6468      6472      6473
      6475      6474      6478      6479      6476      6474      6478      6479
      6477      6474      6478      6479      6481      6480      6484      6485
      6482      6480      6484      6485      6483      6480      6484      6485
      6487      6486      6490      6491      6488      6486      6490      6491
      6489      6486      6490      6491      6493      6492      6496      6497
      6494      6492      6496      6497      6495      6492      6496      6497
      6499      6498      6502      6503      6500      6498      6502      6503
      6501      6498      6502      6503      6505      6504      6508      6509
      6506      6504      6508      6509      6507      6504      6508      6509
      6511      6510      6514      6515      6512      6510      6514      6515
      6513      6510      6514      6515      6517      6516      6520      6521
      6518      6516      6520      6521      6519      6516      6520      6521
      6523      6522      6526      6527      6524      6522      6526      6527
      6525      6522      6526      6527      6529      6528      6532      6533
      6530      6528      6532      6533      6531      6528      6532      6533
      6535      6534      6538      6539      6536      6534      6538      6539
      6537      6534      6538      6539      6541      6540      6544      6545
      6542      6540      6544      6545      6543      6540      6544      6545
      6547      6546      6550      6551      6548      6546      6550      6551
      6549      6546      6550      6551      6553      6552      6556      6557
      6554      6552      6556      6557      6555      6552      6556      6557
      6559      6558      6562      6563      6560      6558      6562      6563
      6561      6558      6562      6563      6565      6564      6568      6569
      6566      6564      6568      6569      6567      6564      6568      6569
      6571      6570      6574      6575      6572      6570      6574      6575
      6573      6570      6574      6575      6577      6576      6580      6581
      6578      6576      6580      6581      6579      6576      6580      6581
      6583      6582      6586      6587      6584      6582      6586      6587
      6585      6582      6586      6587      6589      6588      6592      6593
      6590      6588      6592      6593      6591      6588      6592      6593
      6595      6594      6598      6599      6596      6594      6598      6599
      6597      6594      6598      6599      6601      6600      6604      6605
      6602      6600      6604      6605      6603      6600      6604      6605
      6607      6606      6610      6611      6608      6606      6610      6611
      6609      6606      6610      6611      6613      6612      6616      6617
      6614      6612      6616      6617      6615      6612      6616      6617
      6619      6618      6622      6623      6620      6618      6622      6623
      6621      6618      6622      6623      6625      6624      6628      6629
      6626      6624      6628      6629      6627      6624      6628      6629
      6631      6630      6634      6635      6632      6630      6634      6635
      6633      6630      6634      6635      6637      6636      6640      6641
      6638      6636      6640      6641      6639      6636      6640      6641
      6643      6642      6646      6647      6644      6642      6646      6647
      6645      6642      6646      6647      6649      6648      6652      6653
      6650      6648      6652      6653      6651      6648      6652      6653
      6655      6654      6658      6659      6656      6654      6658      6659
      6657      6654      6658      6659      6661      6660      6664      6665
      6662      6660      6664      6665      6663      6660      6664      6665
      6667      6666      6670      6671      6668      6666      6670      6671
      6669      6666      6670      6671      6673      6672      6676      6677
      6674      6672      6676      6677      6675      6672      6676      6677
      6679      6678      6682      6683      6680      6678      6682      6683
      6681      6678      6682      6683      6685      6684      6688      6689
      6686      6684      6688      6689      6687      6684      6688      6689
      6691      6690      6694      6695      6692      6690      6694      6695
      6693      6690      6694      6695      6697      6696      6700      6701
      6698      6696      6700      6701      6699      6696      6700      6701
      6703      6702      6706      6707      6704      6702      6706      6707
      6705      6702      6706      6707      6709      6708      6712      6713
      6710      6708      6712      6713      6711      6708      6712      6713
      6715      6714      6718      6719      6716      6714      6718      6719
      6717      6714      6718      6719      6721      6720      6724      6725
      6722      6720      6724      6725      6723      6720      6724      6725
      6727      6726      6730      6731      6728      6726      6730      6731
      6729      6726      6730      6731      6733      6732      6736      6737
      6734      6732      6736      6737      6735      6732      6736      6737
      6739      6738      6742      6743      6740      6738      6742      6743
      6741      6738      6742      6743      6745      6744      6748      6749
      6746      6744      6748      6749      6747      6744      6748      6749
      6751      6750      6754      6755      6752      6750      6754      6755
      6753      6750      6754      6755      6757      6756      6760      6761
      6758      6756      6760      6761      6759      6756      6760      6761
      6763      6762      6766      6767      6764      6762      6766      6767
      6765      6762      6766      6767      6769      6768      6772      6773
      6770      6768      6772      6773      6771      6768      6772      6773
      6775      6774      6778      6779      6776      6774      6778      6779
      6777      6774      6778      6779      6781      6780      6784      6785
      6782      6780      6784      6785      6783      6780      6784      6785
      6787      6786      6790      6791      6788      6786      6790      6791
      6789      6786      6790      6791      6793      6792      6796      6797
      6794      6792      6796      6797      6795      6792      6796      6797
      6799      6798      6802      6803      6800      6798      6802      6803
      6801      6798      6802      6803      6805      6804      6808      6809
      6806      6804      6808      6809      6807      6804      6808      6809
      6811      6810      6814      6815      6812      6810      6814      6815
      6813      6810      6814      6815      6817      6816      6820      6821
      6818      6816      6820      6821      6819      6816      6820      6821
      6823      6822      6826      6827      6824      6822      6826      6827
      6825      6822      6826      6827      6829      6828      6832      6833
      6830      6828      6832      6833      6831      6828      6832      6833
      6835      6834      6838      6839      6836      6834      6838      6839
      6837      6834      6838      6839      6841      6840      6844      6845
      6842      6840      6844      6845      6843      6840      6844      6845
      6847      6846      6850      6851      6848      6846      6850      6851
      6849      6846      6850      6851      6853      6852      6856      6857
      6854      6852      6856      6857      6855      6852      6856      6857
      6859      6858      6862      6863      6860      6858      6862      6863
      6861      6858      6862      6863      6865      6864      6868      6869
      6866      6864      6868      6869      6867      6864      6868      6869
      6871      6870      6874      6875      6872      6870      6874      6875
      6873      6870      6874      6875      6877      6876      6880      6881
      6878      6876      6880      6881      6879      6876      6880      6881
      6883      6882      6886      6887      6884      6882      6886      6887
      6885      6882      6886      6887      6889      6888      6892      6893
      6890      6888      6892      6893      6891      6888      6892      6893
      6895      6894      6898      6899      6896      6894      6898      6899
      6897      6894      6898      6899      6901      6900      6904      6905
      6902      6900      6904      6905      6903      6900      6904      6905
      6907      6906      6910      6911      6908      6906      6910      6911
      6909      6906      6910      6911      6913      6912      6916      6917
      6914      6912      6916      6917      6915      6912      6916      6917
      6919      6918      6922      6923      6920      6918      6922      6923
      6921      6918      6922      6923      6925      6924      6928      6929
      6926      6924      6928      6929      6927      6924      6928      6929
      6931      6930      6934      6935      6932      6930      6934      6935
      6933      6930      6934      6935      6937      6936      6940      6941
      6938      6936      6940      6941      6939      6936      6940      6941
      6943      6942      6946      6947      6944      6942      6946      6947
      6945      6942      6946      6947      6949      6948      6952      6953
      6950      6948      6952      6953      6951      6948      6952      6953
      6955      6954      6958      6959      6956      6954      6958      6959
      6957      6954      6958      6959      6961      6960      6964      6965
      6962      6960      6964      6965      6963      6960      6964      6965
      6967      6966      6970      6971      6968      6966      6970      6971
      6969      6966      6970      6971      6973      6972      6976      6977
      6974      6972      6976      6977      6975      6972      6976      6977
      6979      6978      6982      6983      6980      6978      6982      6983
      6981      6978      6982      6983      6985      6984      6988      6989
      6986      6984      6988      6989      6987      6984      6988      6989
      6991      6990      6994      6995      6992      6990      6994      6995
      6993      6990      6994      6995      6997      6996      7000      7001
      6998      6996      7000      7001      6999      6996      7000      7001
      7003      7002      7006      7007      7004      7002      7006      7007
      7005      7002      7006      7007      7009      7008      7012      7013
      7010      7008      7012      7013      7011      7008      7012      7013
      7015      7014      7018      7019      7016      7014      7018      7019
      7017      7014      7018      7019      7021      7020      7024      7025
      7022      7020      7024      7025      7023      7020      7024      7025
      7027      7026      7030      7031      7028      7026      7030      7031
      7029      7026      7030      7031      7033      7032      7036      7037
      7034      7032      7036      7037      7035      7032      7036      7037
      7039      7038      7042      7043      7040      7038      7042      7043
      7041      7038      7042      7043      7045      7044      7048      7049
      7046      7044      7048      7049      7047      7044      7048      7049
      7051      7050      7054      7055      7052      7050      7054      7055
      7053      7050      7054      7055      7057      7056      7060      7061
      7058      7056      7060      7061      7059      7056      7060      7061
      7063      7062      7066      7067      7064      7062      7066      7067
      7065      7062      7066      7067      7069      7068      7072      7073
      7070      7068      7072      7073      7071      7068      7072      7073
      7075      7074      7078      7079      7076      7074      7078      7079
      7077      7074      7078      7079      7081      7080      7084      7085
      7082      7080      7084      7085      7083      7080      7084      7085
      7087      7086      7090      7091      7088      7086      7090      7091
      7089      7086      7090      7091      7093      7092      7096      7097
      7094      7092      7096      7097      7095      7092      7096      7097
      7099      7098      7102      7103      7100      7098      7102      7103
      7101      7098      7102      7103      7105      7104      7108      7109
      7106      7104      7108      7109      7107      7104      7108      7109
      7111      7110      7114      7115      7112      7110      7114      7115
      7113      7110      7114      7115      7117      7116      7120      7121
      7118      7116      7120      7121      7119      7116      7120      7121
      7123      7122      7126      7127      7124      7122      7126      7127
      7125      7122      7126      7127      7129      7128      7132      7133
      7130      7128      7132      7133      7131      7128      7132      7133
      7135      7134      7138      7139      7136      7134      7138      7139
      7137      7134      7138      7139      7141      7140      7144      7145
      7142      7140      7144      7145      7143      7140      7144      7145
      7147      7146      7150      7151      7148      7146      7150      7151
      7149      7146      7150      7151      7153      7152      7156      7157
      7154      7152      7156      7157      7155      7152      7156      7157
      7159      7158      7162      7163      7160      7158      7162      7163
      7161      7158      7162      7163      7165      7164      7168      7169
      7166      7164      7168      7169      7167      7164      7168      7169
      7171      7170      7174      7175      7172      7170      7174      7175
      7173      7170      7174      7175      7177      7176      7180      7181
      7178      7176      7180      7181      7179      7176      7180      7181
      7183      7182      7186      7187      7184      7182      7186      7187
      7185      7182      7186      7187      7189      7188      7192      7193
      7190      7188      7192      7193      7191      7188      7192      7193
      7195      7194      7198      7199      7196      7194      7198      7199
      7197      7194      7198      7199      7201      7200      7204      7205
      7202      7200      7204      7205      7203      7200      7204      7205
      7207      7206      7210      7211      7208      7206      7210      7211
      7209      7206      7210      7211      7213      7212      7216      7217
      7214      7212      7216      7217      7215      7212      7216      7217
      7219      7218      7222      7223      7220      7218      7222      7223
      7221      7218      7222      7223      7225      7224      7228      7229
      7226      7224      7228      7229      7227      7224      7228      7229
      7231      7230      7234      7235      7232      7230      7234      7235
      7233      7230      7234      7235      7237      7236      7240      7241
      7238      7236      7240      7241      7239      7236      7240      7241
      7243      7242      7246      7247      7244      7242      7246      7247
      7245      7242      7246      7247      7249      7248      7252      7253
      7250      7248      7252      7253      7251      7248      7252      7253
      7255      7254      7258      7259      7256      7254      7258      7259
      7257      7254      7258      7259      7261      7260      7264      7265
      7262      7260      7264      7265      7263      7260      7264      7265
      7267      7266      7270      7271      7268      7266      7270      7271
      7269      7266      7270      7271      7273      7272      7276      7277
      7274      7272      7276      7277      7275      7272      7276      7277
      7279      7278      7282      7283      7280      7278      7282      7283
      7281      7278      7282      7283      7285      7284      7288      7289
      7286      7284      7288      7289      7287      7284      7288      7289
      7291      7290      7294      7295      7292      7290      7294      7295
      7293      7290      7294      7295      7297      7296      7300      7301
      7298      7296      7300      7301      7299      7296      7300      7301
      7303      7302      7306      7307      7304      7302      7306      7307
      7305      7302      7306      7307      7309      7308      7312      7313
      7310      7308      7312      7313      7311      7308      7312      7313
      7315      7314      7318      7319      7316      7314      7318      7319
      7317      7314      7318      7319      7321      7320      7324      7325
      7322      7320      7324      7325      7323      7320      7324      7325
      7327      7326      7330      7331      7328      7326      7330      7331
      7329      7326      7330      7331      7333      7332      7336      7337
      7334      7332      7336      7337      7335      7332      7336      7337
      7339      7338      7342      7343      7340      7338      7342      7343
      7341      7338      7342      7343      7345      7344      7348      7349
      7346      7344      7348      7349      7347      7344      7348      7349
      7351      7350      7354      7355      7352      7350      7354      7355
      7353      7350      7354      7355      7357      7356      7360      7361
      7358      7356      7360      7361      7359      7356      7360      7361
      7363      7362      7366      7367      7364      7362      7366      7367
      7365      7362      7366      7367      7369      7368      7372      7373
      7370      7368      7372      7373      7371      7368      7372      7373
      7375      7374      7378      7379      7376      7374      7378      7379
      7377      7374      7378      7379      7381      7380      7384      7385
      7382      7380      7384      7385      7383      7380      7384      7385
      7387      7386      7390      7391      7388      7386      7390      7391
      7389      7386      7390      7391      7393      7392      7396      7397
      7394      7392      7396      7397      7395      7392      7396      7397
      7399      7398      7402      7403      7400      7398      7402      7403
      7401      7398      7402      7403      7405      7404      7408      7409
      7406      7404      7408      7409      7407      7404      7408      7409
      7411      7410      7414      7415      7412      7410      7414      7415
      7413      7410      7414      7415      7417      7416      7420      7421
      7418      7416      7420      7421      7419      7416      7420      7421
      7423      7422      7426      7427      7424      7422      7426      7427
      7425      7422      7426      7427      7429      7428      7432      7433
      7430      7428      7432      7433      7431      7428      7432      7433
      7435      7434      7438      7439      7436      7434      7438      7439
      7437      7434      7438      7439      7441      7440      7444      7445
      7442      7440      7444      7445      7443      7440      7444      7445
      7447      7446      7450      7451      7448      7446      7450      7451
      7449      7446      7450      7451      7453      7452      7456      7457
      7454      7452      7456      7457      7455      7452      7456      7457
      7459      7458      7462      7463      7460      7458      7462      7463
      7461      7458      7462      7463      7465      7464      7468      7469
      7466      7464      7468      7469      7467      7464      7468      7469
      7471      7470      7474      7475      7472      7470      7474      7475
      7473      7470      7474      7475      7477      7476      7480      7481
      7478      7476      7480      7481      7479      7476      7480      7481
      7483      7482      7486      7487      7484      7482      7486      7487
      7485      7482      7486      7487      7489      7488      7492      7493
      7490      7488      7492      7493      7491      7488      7492      7493
      7495      7494      7498      7499      7496      7494      7498      7499
      7497      7494      7498      7499      7501      7500      7504      7505
      7502      7500      7504      7505      7503      7500      7504      7505
      7507      7506      7510      7511      7508      7506      7510      7511
      7509      7506      7510      7511      7513      7512      7516      7517
      7514      7512      7516      7517      7515      7512      7516      7517
      7519      7518      7522      7523      7520      7518      7522      7523
      7521      7518      7522      7523      7525      7524      7528      7529
      7526      7524      7528      7529      7527      7524      7528      7529
      7531      7530      7534      7535      7532      7530      7534      7535
      7533      7530      7534      7535      7537      7536      7540      7541
      7538      7536      7540      7541      7539      7536      7540      7541
      7543      7542      7546      7547      7544      7542      7546      7547
      7545      7542      7546      7547      7549      7548      7552      7553
      7550      7548      7552      7553      7551      7548      7552      7553
      7555      7554      7558      7559      7556      7554      7558      7559
      7557      7554      7558      7559      7561      7560      7564      7565
      7562      7560      7564      7565      7563      7560      7564      7565
      7567      7566      7570      7571      7568      7566      7570      7571
      7569      7566      7570      7571      7573      7572      7576      7577
      7574      7572      7576      7577      7575      7572      7576      7577
      7579      7578      7582      7583      7580      7578      7582      7583
      7581      7578      7582      7583      7585      7584      7588      7589
      7586      7584      7588      7589      7587      7584      7588      7589
      7591      7590      7594      7595      7592      7590      7594      7595
      7593      7590      7594      7595      7597      7596      7600      7601
      7598      7596      7600      7601      7599      7596      7600      7601
      7603      7602      7606      7607      7604      7602      7606      7607
      7605      7602      7606      7607      7609      7608      7612      7613
      7610      7608      7612      7613      7611      7608      7612      7613
      7615      7614      7618      7619      7616      7614      7618      7619
      7617      7614      7618      7619      7621      7620      7624      7625
      7622      7620      7624      7625      7623      7620      7624      7625
      7627      7626      7630      7631      7628      7626      7630      7631
      7629      7626      7630      7631      7633      7632      7636      7637
      7634      7632      7636      7637      7635      7632      7636      7637
      7639      7638      7642      7643      7640      7638      7642      7643
      7641      7638      7642      7643      7645      7644      7648      7649
      7646      7644      7648      7649      7647      7644      7648      7649
      7651      7650      7654      7655      7652      7650      7654      7655
      7653      7650      7654      7655      7657      7656      7660      7661
      7658      7656      7660      7661      7659      7656      7660      7661
      7663      7662      7666      7667      7664      7662      7666      7667
      7665      7662      7666      7667      7669      7668      7672      7673
      7670      7668      7672      7673      7671      7668      7672      7673
      7675      7674      7678      7679      7676      7674      7678      7679
      7677      7674      7678      7679      7681      7680      7684      7685
      7682      7680      7684      7685      7683      7680      7684      7685
      7687      7686      7690      7691      7688      7686      7690      7691
      7689      7686      7690      7691      7693      7692      7696      7697
      7694      7692      7696      7697      7695      7692      7696      7697
      7699      7698      7702      7703      7700      7698      7702      7703
      7701      7698      7702      7703      7705      7704      7708      7709
      7706      7704      7708      7709      7707      7704      7708      7709
      7711      7710      7714      7715      7712      7710      7714      7715
      7713      7710      7714      7715      7717      7716      7720      7721
      7718      7716      7720      7721      7719      7716      7720      7721
      7723      7722      7726      7727      7724      7722      7726      7727
      7725      7722      7726      7727      7729      7728      7732      7733
      7730      7728      7732      7733      7731      7728      7732      7733
      7735      7734      7738      7739      7736      7734      7738      7739
      7737      7734      7738      7739      7741      7740      7744      7745
      7742      7740      7744      7745      7743      7740      7744      7745
      7747      7746      7750      7751      7748      7746      7750      7751
      7749      7746      7750      7751      7753      7752      7756      7757
      7754      7752      7756      7757      7755      7752      7756      7757
      7759      7758      7762      7763      7760      7758      7762      7763
      7761      7758      7762      7763      7765      7764      7768      7769
      7766      7764      7768      7769      7767      7764      7768      7769
      7771      7770      7774      7775      7772      7770      7774      7775
      7773      7770      7774      7775      7777      7776      7780      7781
      7778      7776      7780      7781      7779      7776      7780      7781
      7783      7782      7786      7787      7784      7782      7786      7787
      7785      7782      7786      7787      7789      7788      7792      7793
      7790      7788      7792      7793      7791      7788      7792      7793
      7795      7794      7798      7799      7796      7794      7798      7799
      7797      7794      7798      7799      7801      7800      7804      7805
      7802      7800      7804      7805      7803      7800      7804      7805
      7807      7806      7810      7811      7808      7806      7810      7811
      7809      7806      7810      7811      7813      7812      7816      7817
      7814      7812      7816      7817      7815      7812      7816      7817
      7819      7818      7822      7823      7820      7818      7822      7823
      7821      7818      7822      7823      7825      7824      7828      7829
      7826      7824      7828      7829      7827      7824      7828      7829
      7831      7830      7834      7835      7832      7830      7834      7835
      7833      7830      7834      7835      7837      7836      7840      7841
      7838      7836      7840      7841      7839      7836      7840      7841
      7843      7842      7846      7847      7844      7842      7846      7847
      7845      7842      7846      7847      7849      7848      7852      7853
      7850      7848      7852      7853      7851      7848      7852      7853
      7855      7854      7858      7859      7856      7854      7858      7859
      7857      7854      7858      7859      7861      7860      7864      7865
      7862      7860      7864      7865      7863      7860      7864      7865
      7867      7866      7870      7871      7868      7866      7870      7871
      7869      7866      7870      7871      7873      7872      7876      7877
      7874      7872      7876      7877      7875      7872      7876      7877
      7879      7878      7882      7883      7880      7878      7882      7883
      7881      7878      7882      7883      7885      7884      7888      7889
      7886      7884      7888      7889      7887      7884      7888      7889
      7891      7890      7894      7895      7892      7890      7894      7895
      7893      7890      7894      7895      7897      7896      7900      7901
      7898      7896      7900      7901      7899      7896      7900      7901
      7903      7902      7906      7907      7904      7902      7906      7907
      7905      7902      7906      7907      7909      7908      7912      7913
      7910      7908      7912      7913      7911      7908      7912      7913
      7915      7914      7918      7919      7916      7914      7918      7919
      7917      7914      7918      7919      7921      7920      7924      7925
      7922      7920      7924      7925      7923      7920      7924      7925
      7927      7926      7930      7931      7928      7926      7930      7931
      7929      7926      7930      7931      7933      7932      7936      7937
      7934      7932      7936      7937      7935      7932      7936      7937
      7939      7938      7942      7943      7940      7938      7942      7943
      7941      7938      7942      7943      7945      7944      7948      7949
      7946      7944      7948      7949      7947      7944      7948      7949
      7951      7950      7954      7955      7952      7950      7954      7955
      7953      7950      7954      7955      7957      7956      7960      7961
      7958      7956      7960      7961      7959      7956      7960      7961
      7963      7962      7966      7967      7964      7962      7966      7967
      7965      7962      7966      7967      7969      7968      7972      7973
      7970      7968      7972      7973      7971      7968      7972      7973
      7975      7974      7978      7979      7976      7974      7978      7979
      7977      7974      7978      7979      7981      7980      7984      7985
      7982      7980      7984      7985      7983      7980      7984      7985
      7987      7986      7990      7991      7988      7986      7990      7991
      7989      7986      7990      7991      7993      7992      7996      7997
      7994      7992      7996      7997      7995      7992      7996      7997
      7999      7998      8002      8003      8000      7998      8002      8003
      8001      7998      8002      8003      8005      8004      8008      8009
      8006      8004      8008      8009      8007      8004      8008      8009
      8011      8010      8014      8015      8012      8010      8014      8015
      8013      8010      8014      8015      8017      8016      8020      8021
      8018      8016      8020      8021      8019      8016      8020      8021
      8023      8022      8026      8027      8024      8022      8026      8027
      8025      8022      8026      8027      8029      8028      8032      8033
      8030      8028      8032      8033      8031      8028      8032      8033
      8035      8034      8038      8039      8036      8034      8038      8039
      8037      8034      8038      8039      8041      8040      8044      8045
      8042      8040      8044      8045      8043      8040      8044      8045
      8047      8046      8050      8051      8048      8046      8050      8051
      8049      8046      8050      8051      8053      8052      8056      8057
      8054      8052      8056      8057      8055      8052      8056      8057
      8059      8058      8062      8063      8060      8058      8062      8063
      8061      8058      8062      8063      8065      8064      8068      8069
      8066      8064      8068      8069      8067      8064      8068      8069
      8071      8070      8074      8075      8072      8070      8074      8075
      8073      8070      8074      8075      8077      8076      8080      8081
      8078      8076      8080      8081      8079      8076      8080      8081
      8083      8082      8086      8087      8084      8082      8086      8087
      8085      8082      8086      8087      8089      8088      8092      8093
      8090      8088      8092      8093      8091      8088      8092      8093
      8095      8094      8098      8099      8096      8094      8098      8099
      8097      8094      8098      8099      8101      8100      8104      8105
      8102      8100      8104      8105      8103      8100      8104      8105
      8107      8106      8110      8111      8108      8106      8110      8111
      8109      8106      8110      8111      8113      8112      8116      8117
      8114      8112      8116      8117      8115      8112      8116      8117
      8119      8118      8122      8123      8120      8118      8122      8123
      8121      8118      8122      8123      8125      8124      8128      8129
      8126      8124      8128      8129      8127      8124      8128      8129
      8131      8130      8134      8135      8132      8130      8134      8135
      8133      8130      8134      8135      8137      8136      8140      8141
      8138      8136      8140      8141      8139      8136      8140      8141
      8143      8142      8146      8147      8144      8142      8146      8147
      8145      8142      8146      8147      8149      8148      8152      8153
      8150      8148      8152      8153      8151      8148      8152      8153
      8155      8154      8158      8159      8156      8154      8158      8159
      8157      8154      8158      8159      8161      8160      8164      8165
      8162      8160      8164      8165      8163      8160      8164      8165
      8167      8166      8170      8171      8168      8166      8170      8171
      8169      8166      8170      8171      8173      8172      8176      8177
      8174      8172      8176      8177      8175      8172      8176      8177
      8179      8178      8182      8183      8180      8178      8182      8183
      8181      8178      8182      8183      8185      8184      8188      8189
      8186      8184      8188      8189      8187      8184      8188      8189
      8191      8190      8194      8195      8192      8190      8194      8195
      8193      8190      8194      8195      8197      8196      8200      8201
      8198      8196      8200      8201      8199      8196      8200      8201
      8203      8202      8206      8207      8204      8202      8206      8207
      8205      8202      8206      8207      8209      8208      8212      8213
      8210      8208      8212      8213      8211      8208      8212      8213
      8215      8214      8218      8219      8216      8214      8218      8219
      8217      8214      8218      8219      8221      8220      8224      8225
      8222      8220      8224      8225      8223      8220      8224      8225
      8227      8226      8230      8231      8228      8226      8230      8231
      8229      8226      8230      8231      8233      8232      8236      8237
      8234      8232      8236      8237      8235      8232      8236      8237
      8239      8238      8242      8243      8240      8238      8242      8243
      8241      8238      8242      8243      8245      8244      8248      8249
      8246      8244      8248      8249      8247      8244      8248      8249
      8251      8250      8254      8255      8252      8250      8254      8255
      8253      8250      8254      8255      8257      8256      8260      8261
      8258      8256      8260      8261      8259      8256      8260      8261
      8263      8262      8266      8267      8264      8262      8266      8267
      8265      8262      8266      8267      8269      8268      8272      8273
      8270      8268      8272      8273      8271      8268      8272      8273
      8275      8274      8278      8279      8276      8274      8278      8279
      8277      8274      8278      8279      8281      8280      8284      8285
      8282      8280      8284      8285      8283      8280      8284      8285
      8287      8286      8290      8291      8288      8286      8290      8291
      8289      8286      8290      8291      8293      8292      8296      8297
      8294      8292      8296      8297      8295      8292      8296      8297
      8299      8298      8302      8303      8300      8298      8302      8303
      8301      8298      8302      8303      8305      8304      8308      8309
      8306      8304      8308      8309      8307      8304      8308      8309
      8311      8310      8314      8315      8312      8310      8314      8315
      8313      8310      8314      8315      8317      8316      8320      8321
      8318      8316      8320      8321      8319      8316      8320      8321
      8323      8322      8326      8327      8324      8322      8326      8327
      8325      8322      8326      8327      8329      8328      8332      8333
      8330      8328      8332      8333      8331      8328      8332      8333
      8335      8334      8338      8339      8336      8334      8338      8339
      8337      8334      8338      8339      8341      8340      8344      8345
      8342      8340      8344      8345      8343      8340      8344      8345
      8347      8346      8350      8351      8348      8346      8350      8351
      8349      8346      8350      8351      8353      8352      8356      8357
      8354      8352      8356      8357      8355      8352      8356      8357
      8359      8358      8362      8363      8360      8358      8362      8363
      8361      8358      8362      8363      8365      8364      8368      8369
      8366      8364      8368      8369      8367      8364      8368      8369
      8371      8370      8374      8375      8372      8370      8374      8375
      8373      8370      8374      8375      8377      8376      8380      8381
      8378      8376      8380      8381      8379      8376      8380      8381
      8383      8382      8386      8387      8384      8382      8386      8387
      8385      8382      8386      8387      8389      8388      8392      8393
      8390      8388      8392      8393      8391      8388      8392      8393
      8395      8394      8398      8399      8396      8394      8398      8399
      8397      8394      8398      8399      8401      8400      8404      8405
      8402      8400      8404      8405      8403      8400      8404      8405
      8407      8406      8410      8411      8408      8406      8410      8411
      8409      8406      8410      8411      8413      8412      8416      8417
      8414      8412      8416      8417      8415      8412      8416      8417
      8419      8418      8422      8423      8420      8418      8422      8423
      8421      8418      8422      8423      8425      8424      8428      8429
      8426      8424      8428      8429      8427      8424      8428      8429
      8431      8430      8434      8435      8432      8430      8434      8435
      8433      8430      8434      8435      8437      8436      8440      8441
      8438      8436      8440      8441      8439      8436      8440      8441
      8443      8442      8446      8447      8444      8442      8446      8447
      8445      8442      8446      8447      8449      8448      8452      8453
      8450      8448      8452      8453      8451      8448      8452      8453
      8455      8454      8458      8459      8456      8454      8458      8459
      8457      8454      8458      8459      8461      8460      8464      8465
      8462      8460      8464      8465      8463      8460      8464      8465
      8467      8466      8470      8471      8468      8466      8470      8471
      8469      8466      8470      8471      8473      8472      8476      8477
      8474      8472      8476      8477      8475      8472      8476      8477
      8479      8478      8482      8483      8480      8478      8482      8483
      8481      8478      8482      8483      8485      8484      8488      8489
      8486      8484      8488      8489      8487      8484      8488      8489
      8491      8490      8494      8495      8492      8490      8494      8495
      8493      8490      8494      8495      8497      8496      8500      8501
      8498      8496      8500      8501      8499      8496      8500      8501
      8503      8502      8506      8507      8504      8502      8506      8507
      8505      8502      8506      8507      8509      8508      8512      8513
      8510      8508      8512      8513      8511      8508      8512      8513
      8515      8514      8518      8519      8516      8514      8518      8519
      8517      8514      8518      8519      8521      8520      8524      8525
      8522      8520      8524      8525      8523      8520      8524      8525
      8527      8526      8530      8531      8528      8526      8530      8531
      8529      8526      8530      8531      8533      8532      8536      8537
      8534      8532      8536      8537      8535      8532      8536      8537
      8539      8538      8542      8543      8540      8538      8542      8543
      8541      8538      8542      8543      8545      8544      8548      8549
      8546      8544      8548      8549      8547      8544      8548      8549
      8551      8550      8554      8555      8552      8550      8554      8555
      8553      8550      8554      8555      8557      8556      8560      8561
      8558      8556      8560      8561      8559      8556      8560      8561
      8563      8562      8566      8567      8564      8562      8566      8567
      8565      8562      8566      8567      8569      8568      8572      8573
      8570      8568      8572      8573      8571      8568      8572      8573
      8575      8574      8578      8579      8576      8574      8578      8579
      8577      8574      8578      8579      8581      8580      8584      8585
      8582      8580      8584      8585      8583      8580      8584      8585
      8587      8586      8590      8591      8588      8586      8590      8591
      8589      8586      8590      8591      8593      8592      8596      8597
      8594      8592      8596      8597      8595      8592      8596      8597
      8599      8598      8602      8603      8600      8598      8602      8603
      8601      8598      8602      8603      8605      8604      8608      8609
      8606      8604      8608      8609      8607      8604      8608      8609
      8611      8610      8614      8615      8612      8610      8614      8615
      8613      8610      8614      8615      8617      8616      8620      8621
      8618      8616      8620      8621      8619      8616      8620      8621
      8623      8622      8626      8627      8624      8622      8626      8627
      8625      8622      8626      8627      8629      8628      8632      8633
      8630      8628      8632      8633      8631      8628      8632      8633
      8635      8634      8638      8639      8636      8634      8638      8639
      8637      8634      8638      8639      8641      8640      8644      8645
      8642      8640      8644      8645      8643      8640      8644      8645
      8647      8646      8650      8651      8648      8646      8650      8651
      8649      8646      8650      8651      8653      8652      8656      8657
      8654      8652      8656      8657      8655      8652      8656      8657
      8659      8658      8662      8663      8660      8658      8662      8663
      8661      8658      8662      8663      8665      8664      8668      8669
      8666      8664      8668      8669      8667      8664      8668      8669
      8671      8670      8674      8675      8672      8670      8674      8675
      8673      8670      8674      8675      8677      8676      8680      8681
      8678      8676      8680      8681      8679      8676      8680      8681
      8683      8682      8686      8687      8684      8682      8686      8687
      8685      8682      8686      8687      8689      8688      8692      8693
      8690      8688      8692      8693      8691      8688      8692      8693
      8695      8694      8698      8699      8696      8694      8698      8699
      8697      8694      8698      8699      8701      8700      8704      8705
      8702      8700      8704      8705      8703      8700      8704      8705
      8707      8706      8710      8711      8708      8706      8710      8711
      8709      8706      8710      8711      8713      8712      8716      8717
      8714      8712      8716      8717      8715      8712      8716      8717
      8719      8718      8722      8723      8720      8718      8722      8723
      8721      8718      8722      8723      8725      8724      8728      8729
      8726      8724      8728      8729      8727      8724      8728      8729
      8731      8730      8734      8735      8732      8730      8734      8735
      8733      8730      8734      8735      8737      8736      8740      8741
      8738      8736      8740      8741      8739      8736      8740      8741
      8743      8742      8746      8747      8744      8742      8746      8747
      8745      8742      8746      8747      8749      8748      8752      8753
      8750      8748      8752      8753      8751      8748      8752      8753
      8755      8754      8758      8759      8756      8754      8758      8759
      8757      8754      8758      8759      8761      8760      8764      8765
      8762      8760      8764      8765      8763      8760      8764      8765
      8767      8766      8770      8771      8768      8766      8770      8771
      8769      8766      8770      8771      8773      8772      8776      8777
      8774      8772      8776      8777      8775      8772      8776      8777
      8779      8778      8782      8783      8780      8778      8782      8783
      8781      8778      8782      8783      8785      8784      8788      8789
      8786      8784      8788      8789      8787      8784      8788      8789
      8791      8790      8794      8795      8792      8790      8794      8795
      8793      8790      8794      8795      8797      8796      8800      8801
      8798      8796      8800      8801      8799      8796      8800      8801
      8803      8802      8806      8807      8804      8802      8806      8807
      8805      8802      8806      8807      8809      8808      8812      8813
      8810      8808      8812      8813      8811      8808      8812      8813
      8815      8814      8818      8819      8816      8814      8818      8819
      8817      8814      8818      8819      8821      8820      8824      8825
      8822      8820      8824      8825      8823      8820      8824      8825
      8827      8826      8830      8831      8828      8826      8830      8831
      8829      8826      8830      8831      8833      8832      8836      8837
      8834      8832      8836      8837      8835      8832      8836      8837
      8839      8838      8842      8843      8840      8838      8842      8843
      8841      8838      8842      8843      8845      8844      8848      8849
      8846      8844      8848      8849      8847      8844      8848      8849
      8851      8850      8854      8855      8852      8850      8854      8855
      8853      8850      8854      8855      8857      8856      8860      8861
      8858      8856      8860      8861      8859      8856      8860      8861
      8863      8862      8866      8867      8864      8862      8866      8867
      8865      8862      8866      8867      8869      8868      8872      8873
      8870      8868      8872      8873      8871      8868      8872      8873
      8875      8874      8878      8879      8876      8874      8878      8879
      8877      8874      8878      8879      8881      8880      8884      8885
      8882      8880      8884      8885      8883      8880      8884      8885
      8887      8886      8890      8891      8888      8886      8890      8891
      8889      8886      8890      8891      8893      8892      8896      8897
      8894      8892      8896      8897      8895      8892      8896      8897
      8899      8898      8902      8903      8900      8898      8902      8903
      8901      8898      8902      8903      8905      8904      8908      8909
      8906      8904      8908      8909      8907      8904      8908      8909
      8911      8910      8914      8915      8912      8910      8914      8915
      8913      8910      8914      8915      8917      8916      8920      8921
      8918      8916      8920      8921      8919      8916      8920      8921
      8923      8922      8926      8927      8924      8922      8926      8927
      8925      8922      8926      8927      8929      8928      8932      8933
      8930      8928      8932      8933      8931      8928      8932      8933
      8935      8934      8938      8939      8936      8934      8938      8939
      8937      8934      8938      8939      8941      8940      8944      8945
      8942      8940      8944      8945      8943      8940      8944      8945
      8947      8946      8950      8951      8948      8946      8950      8951
      8949      8946      8950      8951      8953      8952      8956      8957
      8954      8952      8956      8957      8955      8952      8956      8957
      8959      8958      8962      8963      8960      8958      8962      8963
      8961      8958      8962      8963      8965      8964      8968      8969
      8966      8964      8968      8969      8967      8964      8968      8969
      8971      8970      8974      8975      8972      8970      8974      8975
      8973      8970      8974      8975      8977      8976      8980      8981
      8978      8976      8980      8981      8979      8976      8980      8981
      8983      8982      8986      8987      8984      8982      8986      8987
      8985      8982      8986      8987      8989      8988      8992      8993
      8990      8988      8992      8993      8991      8988      8992      8993
      8995      8994      8998      8999      8996      8994      8998      8999
      8997      8994      8998      8999      9001      9000      9004      9005
      9002      9000      9004      9005      9003      9000      9004      9005
      9007      9006      9010      9011      9008      9006      9010      9011
      9009      9006      9010      9011      9013      9012      9016      9017
      9014      9012      9016      9017      9015      9012      9016      9017
      9019      9018      9022      9023      9020      9018      9022      9023
      9021      9018      9022      9023      9025      9024      9028      9029
      9026      9024      9028      9029      9027      9024      9028      9029
      9031      9030      9034      9035      9032      9030      9034      9035
      9033      9030      9034      9035      9037      9036      9040      9041
      9038      9036      9040      9041      9039      9036      9040      9041
      9043      9042      9046      9047      9044      9042      9046      9047
      9045      9042      9046      9047      9049      9048      9052      9053
      9050      9048      9052      9053      9051      9048      9052      9053
      9055      9054      9058      9059      9056      9054      9058      9059
      9057      9054      9058      9059      9061      9060      9064      9065
      9062      9060      9064      9065      9063      9060      9064      9065
      9067      9066      9070      9071      9068      9066      9070      9071
      9069      9066      9070      9071      9073      9072      9076      9077
      9074      9072      9076      9077      9075      9072      9076      9077
      9079      9078      9082      9083      9080      9078      9082      9083
      9081      9078      9082      9083      9085      9084      9088      9089
      9086      9084      9088      9089      9087      9084      9088      9089
      9091      9090      9094      9095      9092      9090      9094      9095
      9093      9090      9094      9095      9097      9096      9100      9101
      9098      9096      9100      9101      9099      9096      9100      9101
      9103      9102      9106      9107      9104      9102      9106      9107
      9105      9102      9106      9107      9109      9108      9112      9113
      9110      9108      9112      9113      9111      9108      9112      9113
      9115      9114      9118      9119      9116      9114      9118      9119
      9117      9114      9118      9119      9121      9120      9124      9125
      9122      9120      9124      9125      9123      9120      9124      9125
      9127      9126      9130      9131      9128      9126      9130      9131
      9129      9126      9130      9131      9133      9132      9136      9137
      9134      9132      9136      9137      9135      9132      9136      9137
      9139      9138      9142      9143      9140      9138      9142      9143
      9141      9138      9142      9143      9145      9144      9148      9149
      9146      9144      9148      9149      9147      9144      9148      9149
      9151      9150      9154      9155      9152      9150      9154      9155
      9153      9150      9154      9155      9157      9156      9160      9161
      9158      9156      9160      9161      9159      9156      9160      9161
      9163      9162      9166      9167      9164      9162      9166      9167
      9165      9162      9166      9167      9169      9168      9172      9173
      9170      9168      9172      9173      9171      9168      9172      9173
      9175      9174      9178      9179      9176      9174      9178      9179
      9177      9174      9178      9179      9181      9180      9184      9185
      9182      9180      9184      9185      9183      9180      9184      9185
      9187      9186      9190      9191      9188      9186      9190      9191
      9189      9186      9190      9191      9193      9192      9196      9197
      9194      9192      9196      9197      9195      9192      9196      9197
      9199      9198      9202      9203      9200      9198      9202      9203
      9201      9198      9202      9203      9205      9204      9208      9209
      9206      9204      9208      9209      9207      9204      9208      9209
      9211      9210      9214      9215      9212      9210      9214      9215
      9213      9210      9214      9215      9217      9216      9220      9221
      9218      9216      9220      9221      9219      9216      9220      9221
      9223      9222      9226      9227      9224      9222      9226      9227
      9225      9222      9226      9227      9229      9228      9232      9233
      9230      9228      9232      9233      9231      9228      9232      9233
      9235      9234      9238      9239      9236      9234      9238      9239
      9237      9234      9238      9239      9241      9240      9244      9245
      9242      9240      9244      9245      9243      9240      9244      9245
      9247      9246      9250      9251      9248      9246      9250      9251
      9249      9246      9250      9251      9253      9252      9256      9257
      9254      9252      9256      9257      9255      9252      9256      9257
      9259      9258      9262      9263      9260      9258      9262      9263
      9261      9258      9262      9263      9265      9264      9268      9269
      9266      9264      9268      9269      9267      9264      9268      9269
      9271      9270      9274      9275      9272      9270      9274      9275
      9273      9270      9274      9275      9277      9276      9280      9281
      9278      9276      9280      9281      9279      9276      9280      9281
      9283      9282      9286      9287      9284      9282      9286      9287
      9285      9282      9286      9287      9289      9288      9292      9293
      9290      9288      9292      9293      9291      9288      9292      9293
      9295      9294      9298      9299      9296      9294      9298      9299
      9297      9294      9298      9299      9301      9300      9304      9305
      9302      9300      9304      9305      9303      9300      9304      9305
      9307      9306      9310      9311      9308      9306      9310      9311
      9309      9306      9310      9311      9313      9312      9316      9317
      9314      9312      9316      9317      9315      9312      9316      9317
      9319      9318      9322      9323      9320      9318      9322      9323
      9321      9318      9322      9323      9325      9324      9328      9329
      9326      9324      9328      9329      9327      9324      9328      9329
      9331      9330      9334      9335      9332      9330      9334      9335
      9333      9330      9334      9335      9337      9336      9340      9341
      9338      9336      9340      9341      9339      9336      9340      9341
      9343      9342      9346      9347      9344      9342      9346      9347
      9345      9342      9346      9347      9349      9348      9352      9353
      9350      9348      9352      9353      9351      9348      9352      9353
      9355      9354      9358      9359      9356      9354      9358      9359
      9357      9354      9358      9359      9361      9360      9364      9365
      9362      9360      9364      9365      9363      9360      9364      9365
      9367      9366      9370      9371      9368      9366      9370      9371
      9369      9366      9370      9371      9373      9372      9376      9377
      9374      9372      9376      9377      9375      9372      9376      9377
      9379      9378      9382      9383      9380      9378      9382      9383
      9381      9378      9382      9383      9385      9384      9388      9389
      9386      9384      9388      9389      9387      9384      9388      9389
      9391      9390      9394      9395      9392      9390      9394      9395
      9393      9390      9394      9395      9397      9396      9400      9401
      9398      9396      9400      9401      9399      9396      9400      9401
      9403      9402      9406      9407      9404      9402      9406      9407
      9405      9402      9406      9407      9409      9408      9412      9413
      9410      9408      9412      9413      9411      9408      9412      9413
      9415      9414      9418      9419      9416      9414      9418      9419
      9417      9414      9418      9419      9421      9420      9424      9425
      9422      9420      9424      9425      9423      9420      9424      9425
      9427      9426      9430      9431      9428      9426      9430      9431
      9429      9426      9430      9431      9433      9432      9436      9437
      9434      9432      9436      9437      9435      9432      9436      9437
      9439      9438      9442      9443      9440      9438      9442      9443
      9441      9438      9442      9443      9445      9444      9448      9449
      9446      9444      9448      9449      9447      9444      9448      9449
      9451      9450      9454      9455      9452      9450      9454      9455
      9453      9450      9454      9455      9457      9456      9460      9461
      9458      9456      9460      9461      9459      9456      9460      9461
      9463      9462      9466      9467      9464      9462      9466      9467
      9465      9462      9466      9467      9469      9468      9472      9473
      9470      9468      9472      9473      9471      9468      9472      9473
      9475      9474      9478      9479      9476      9474      9478      9479
      9477      9474      9478      9479      9481      9480      9484      9485
      9482      9480      9484      9485      9483      9480      9484      9485
      9487      9486      9490      9491      9488      9486      9490      9491
      9489      9486      9490      9491      9493      9492      9496      9497
      9494      9492      9496      9497      9495      9492      9496      9497
      9499      9498      9502      9503      9500      9498      9502      9503
      9501      9498      9502      9503      9505      9504      9508      9509
      9506      9504      9508      9509      9507      9504      9508      9509
      9511      9510      9514      9515      9512      9510      9514      9515
      9513      9510      9514      9515      9517      9516      9520      9521
      9518      9516      9520      9521      9519      9516      9520      9521
      9523      9522      9526      9527      9524      9522      9526      9527
      9525      9522      9526      9527      9529      9528      9532      9533
      9530      9528      9532      9533      9531      9528      9532      9533
      9535      9534      9538      9539      9536      9534      9538      9539
      9537      9534      9538      9539      9541      9540      9544      9545
      9542      9540      9544      9545      9543      9540      9544      9545
      9547      9546      9550      9551      9548      9546      9550      9551
      9549      9546      9550      9551      9553      9552      9556      9557
      9554      9552      9556      9557      9555      9552      9556      9557
      9559      9558      9562      9563      9560      9558      9562      9563
      9561      9558      9562      9563      9565      9564      9568      9569
      9566      9564      9568      9569      9567      9564      9568      9569
      9571      9570      9574      9575      9572      9570      9574      9575
      9573      9570      9574      9575      9577      9576      9580      9581
      9578      9576      9580      9581      9579      9576      9580      9581
      9583      9582      9586      9587      9584      9582      9586      9587
      9585      9582      9586      9587      9589      9588      9592      9593
      9590      9588      9592      9593      9591      9588      9592      9593
      9595      9594      9598      9599      9596      9594      9598      9599
      9597      9594      9598      9599      9601      9600      9604      9605
      9602      9600      9604      9605      9603      9600      9604      9605
      9607      9606      9610      9611      9608      9606      9610      9611
      9609      9606      9610      9611      9613      9612      9616      9617
      9614      9612      9616      9617      9615      9612      9616      9617
      9619      9618      9622      9623      9620      9618      9622      9623
      9621      9618      9622      9623      9625      9624      9628      9629
      9626      9624      9628      9629      9627      9624      9628      9629
      9631      9630      9634      9635      9632      9630      9634      9635
      9633      9630      9634      9635      9637      9636      9640      9641
      9638      9636      9640      9641      9639      9636      9640      9641
      9643      9642      9646      9647      9644      9642      9646      9647
      9645      9642      9646      9647      9649      9648      9652      9653
      9650      9648      9652      9653      9651      9648      9652      9653
      9655      9654      9658      9659      9656      9654      9658      9659
      9657      9654      9658      9659      9661      9660      9664      9665
      9662      9660      9664      9665      9663      9660      9664      9665
      9667      9666      9670      9671      9668      9666      9670      9671
      9669      9666      9670      9671      9673      9672      9676      9677
      9674      9672      9676      9677      9675      9672      9676      9677
      9679      9678      9682      9683      9680      9678      9682      9683
      9681      9678      9682      9683      9685      9684      9688      9689
      9686      9684      9688      9689      9687      9684      9688      9689
      9691      9690      9694      9695      9692      9690      9694      9695
      9693      9690      9694      9695      9697      9696      9700      9701
      9698      9696      9700      9701      9699      9696      9700      9701
      9703      9702      9706      9707      9704      9702      9706      9707
      9705      9702      9706      9707      9709      9708      9712      9713
      9710      9708      9712      9713      9711      9708      9712      9713
      9715      9714      9718      9719      9716      9714      9718      9719
      9717      9714      9718      9719      9721      9720      9724      9725
      9722      9720      9724      9725      9723      9720      9724      9725
      9727      9726      9730      9731      9728      9726      9730      9731
      9729      9726      9730      9731      9733      9732      9736      9737
      9734      9732      9736      9737      9735      9732      9736      9737
      9739      9738      9742      9743      9740      9738      9742      9743
      9741      9738      9742      9743      9745      9744      9748      9749
      9746      9744      9748      9749      9747      9744      9748      9749
      9751      9750      9754      9755      9752      9750      9754      9755
      9753      9750      9754      9755      9757      9756      9760      9761
      9758      9756      9760      9761      9759      9756      9760      9761
      9763      9762      9766      9767      9764      9762      9766      9767
      9765      9762      9766      9767      9769      9768      9772      9773
      9770      9768      9772      9773      9771      9768      9772      9773
      9775      9774      9778      9779      9776      9774      9778      9779
      9777      9774      9778      9779      9781      9780      9784      9785
      9782      9780      9784      9785      9783      9780      9784      9785
      9787      9786      9790      9791      9788      9786      9790      9791
      9789      9786      9790      9791      9793      9792      9796      9797
      9794      9792      9796      9797      9795      9792      9796      9797
      9799      9798      9802      9803      9800      9798      9802      9803
      9801      9798      9802      9803      9805      9804      9808      9809
      9806      9804      9808      9809      9807      9804      9808      9809
      9811      9810      9814      9815      9812      9810      9814      9815
      9813      9810      9814      9815      9817      9816      9820      9821
      9818      9816      9820      9821      9819      9816      9820      9821
      9823      9822      9826      9827      9824      9822      9826      9827
      9825      9822      9826      9827      9829      9828      9832      9833
      9830      9828      9832      9833      9831      9828      9832      9833
      9835      9834      9838      9839      9836      9834      9838      9839
      9837      9834      9838      9839      9841      9840      9844      9845
      9842      9840      9844      9845      9843      9840      9844      9845
      9847      9846      9850      9851      9848      9846      9850      9851
      9849      9846      9850      9851      9853      9852      9856      9857
      9854      9852      9856      9857      9855      9852      9856      9857
      9859      9858      9862      9863      9860      9858      9862      9863
      9861      9858      9862      9863      9865      9864      9868      9869
      9866      9864      9868      9869      9867      9864      9868      9869
      9871      9870      9874      9875      9872      9870      9874      9875
      9873      9870      9874      9875      9877      9876      9880      9881
      9878      9876      9880      9881      9879      9876      9880      9881
      9883      9882      9886      9887      9884      9882      9886      9887
      9885      9882      9886      9887      9889      9888      9892      9893
      9890      9888      9892      9893      9891      9888      9892      9893
      9895      9894      9898      9899      9896      9894      9898      9899
      9897      9894      9898      9899      9901      9900      9904      9905
      9902      9900      9904      9905      9903      9900      9904      9905
      9907      9906      9910      9911      9908      9906      9910      9911
      9909      9906      9910      9911      9913      9912      9916      9917
      9914      9912      9916      9917      9915      9912      9916      9917
      9919      9918      9922      9923      9920      9918      9922      9923
      9921      9918      9922      9923      9925      9924      9928      9929
      9926      9924      9928      9929      9927      9924      9928      9929
      9931      9930      9934      9935      9932      9930      9934      9935
      9933      9930      9934      9935      9937      9936      9940      9941
      9938      9936      9940      9941      9939      9936      9940      9941
      9943      9942      9946      9947      9944      9942      9946      9947
      9945      9942      9946      9947      9949      9948      9952      9953
      9950      9948      9952      9953      9951      9948      9952      9953
      9955      9954      9958      9959      9956      9954      9958      9959
      9957      9954      9958      9959      9961      9960      9964      9965
      9962      9960      9964      9965      9963      9960      9964      9965
      9967      9966      9970      9971      9968      9966      9970      9971
      9969      9966      9970      9971      9973      9972      9976      9977
      9974      9972      9976      9977      9975      9972      9976      9977
      9979      9978      9982      9983      9980      9978      9982      9983
      9981      9978      9982      9983      9985      9984      9988      9989
      9986      9984      9988      9989      9987      9984      9988      9989
      9991      9990      9994      9995      9992      9990      9994      9995
      9993      9990      9994      9995      9997      9996     10000     10001
      9998      9996     10000     10001      9999      9996     10000     10001
     10003     10002     10006     10007     10004     10002     10006     10007
     10005     10002     10006     10007     10009     10008     10012     10013
     10010     10008     10012     10013     10011     10008     10012     10013
     10015     10014     10018     10019     10016     10014     10018     10019
     10017     10014     10018     10019     10021     10020     10024     10025
     10022     10020     10024     10025     10023     10020     10024     10025
     10027     10026     10030     10031     10028     10026     10030     10031
     10029     10026     10030     10031     10033     10032     10036     10037
     10034     10032     10036     10037     10035     10032     10036     10037
     10039     10038     10042     10043     10040     10038     10042     10043
     10041     10038     10042     10043     10045     10044     10048     10049
     10046     10044     10048     10049     10047     10044     10048     10049
     10051     10050     10054     10055     10052     10050     10054     10055
     10053     10050     10054     10055     10057     10056     10060     10061
     10058     10056     10060     10061     10059     10056     10060     10061
     10063     10062     10066     10067     10064     10062     10066     10067
     10065     10062     10066     10067     10069     10068     10072     10073
     10070     10068     10072     10073     10071     10068     10072     10073
     10075     10074     10078     10079     10076     10074     10078     10079
     10077     10074     10078     10079     10081     10080     10084     10085
     10082     10080     10084     10085     10083     10080     10084     10085
     10087     10086     10090     10091     10088     10086     10090     10091
     10089     10086     10090     10091     10093     10092     10096     10097
     10094     10092     10096     10097     10095     10092     10096     10097
     10099     10098     10102     10103     10100     10098     10102     10103
     10101     10098     10102     10103     10105     10104     10108     10109
     10106     10104     10108     10109     10107     10104     10108     10109
     10111     10110     10114     10115     10112     10110     10114     10115
     10113     10110     10114     10115     10117     10116     10120     10121
     10118     10116     10120     10121     10119     10116     10120     10121
     10123     10122     10126     10127     10124     10122     10126     10127
     10125     10122     10126     10127     10129     10128     10132     10133
     10130     10128     10132     10133     10131     10128     10132     10133
     10135     10134     10138     10139     10136     10134     10138     10139
     10137     10134     10138     10139     10141     10140     10144     10145
     10142     10140     10144     10145     10143     10140     10144     10145
     10147     10146     10150     10151     10148     10146     10150     10151
     10149     10146     10150     10151     10153     10152     10156     10157
     10154     10152     10156     10157     10155     10152     10156     10157
     10159     10158     10162     10163     10160     10158     10162     10163
     10161     10158     10162     10163     10165     10164     10168     10169
     10166     10164     10168     10169     10167     10164     10168     10169
     10171     10170     10174     10175     10172     10170     10174     10175
     10173     10170     10174     10175     10177     10176     10180     10181
     10178     10176     10180     10181     10179     10176     10180     10181
     10183     10182     10186     10187     10184     10182     10186     10187
     10185     10182     10186     10187     10189     10188     10192     10193
     10190     10188     10192     10193     10191     10188     10192     10193
     10195     10194     10198     10199     10196     10194     10198     10199
     10197     10194     10198     10199     10201     10200     10204     10205
     10202     10200     10204     10205     10203     10200     10204     10205
     10207     10206     10210     10211     10208     10206     10210     10211
     10209     10206     10210     10211     10213     10212     10216     10217
     10214     10212     10216     10217     10215     10212     10216     10217
     10219     10218     10222     10223     10220     10218     10222     10223
     10221     10218     10222     10223     10225     10224     10228     10229
     10226     10224     10228     10229     10227     10224     10228     10229
     10231     10230     10234     10235     10232     10230     10234     10235
     10233     10230     10234     10235     10237     10236     10240     10241
     10238     10236     10240     10241     10239     10236     10240     10241
     10243     10242     10246     10247     10244     10242     10246     10247
     10245     10242     10246     10247     10249     10248     10252     10253
     10250     10248     10252     10253     10251     10248     10252     10253
     10255     10254     10258     10259     10256     10254     10258     10259
     10257     10254     10258     10259     10261     10260     10264     10265
     10262     10260     10264     10265     10263     10260     10264     10265
     10267     10266     10270     10271     10268     10266     10270     10271
     10269     10266     10270     10271     10273     10272     10276     10277
     10274     10272     10276     10277     10275     10272     10276     10277
     10279     10278     10282     10283     10280     10278     10282     10283
     10281     10278     10282     10283     10285     10284     10288     10289
     10286     10284     10288     10289     10287     10284     10288     10289
     10291     10290     10294     10295     10292     10290     10294     10295
     10293     10290     10294     10295     10297     10296     10300     10301
     10298     10296     10300     10301     10299     10296     10300     10301
     10303     10302     10306     10307     10304     10302     10306     10307
     10305     10302     10306     10307     10309     10308     10312     10313
     10310     10308     10312     10313     10311     10308     10312     10313
     10315     10314     10318     10319     10316     10314     10318     10319
     10317     10314     10318     10319     10321     10320     10324     10325
     10322     10320     10324     10325     10323     10320     10324     10325
     10327     10326     10330     10331     10328     10326     10330     10331
     10329     10326     10330     10331     10333     10332     10336     10337
     10334     10332     10336     10337     10335     10332     10336     10337
     10339     10338     10342     10343     10340     10338     10342     10343
     10341     10338     10342     10343     10345     10344     10348     10349
     10346     10344     10348     10349     10347     10344     10348     10349
     10351     10350     10354     10355     10352     10350     10354     10355
     10353     10350     10354     10355     10357     10356     10360     10361
     10358     10356     10360     10361     10359     10356     10360     10361
     10363     10362     10366     10367     10364     10362     10366     10367
     10365     10362     10366     10367     10369     10368     10372     10373
     10370     10368     10372     10373     10371     10368     10372     10373
     10375     10374     10378     10379     10376     10374     10378     10379
     10377     10374     10378     10379     10381     10380     10384     10385
     10382     10380     10384     10385     10383     10380     10384     10385
     10387     10386     10390     10391     10388     10386     10390     10391
     10389     10386     10390     10391     10393     10392     10396     10397
     10394     10392     10396     10397     10395     10392     10396     10397
     10399     10398     10402     10403     10400     10398     10402     10403
     10401     10398     10402     10403     10405     10404     10408     10409
     10406     10404     10408     10409     10407     10404     10408     10409
     10411     10410     10414     10415     10412     10410     10414     10415
     10413     10410     10414     10415     10417     10416     10420     10421
     10418     10416     10420     10421     10419     10416     10420     10421
     10423     10422     10426     10427     10424     10422     10426     10427
     10425     10422     10426     10427     10429     10428     10432     10433
     10430     10428     10432     10433     10431     10428     10432     10433
     10435     10434     10438     10439     10436     10434     10438     10439
     10437     10434     10438     10439     10441     10440     10444     10445
     10442     10440     10444     10445     10443     10440     10444     10445
     10447     10446     10450     10451     10448     10446     10450     10451
     10449     10446     10450     10451     10453     10452     10456     10457
     10454     10452     10456     10457     10455     10452     10456     10457
     10459     10458     10462     10463     10460     10458     10462     10463
     10461     10458     10462     10463     10465     10464     10468     10469
     10466     10464     10468     10469     10467     10464     10468     10469
     10471     10470     10474     10475     10472     10470     10474     10475
     10473     10470     10474     10475     10477     10476     10480     10481
     10478     10476     10480     10481     10479     10476     10480     10481
     10483     10482     10486     10487     10484     10482     10486     10487
     10485     10482     10486     10487     10489     10488     10492     10493
     10490     10488     10492     10493     10491     10488     10492     10493
     10495     10494     10498     10499     10496     10494     10498     10499
     10497     10494     10498     10499     10501     10500     10504     10505
     10502     10500     10504     10505     10503     10500     10504     10505
     10507     10506     10510     10511     10508     10506     10510     10511
     10509     10506     10510     10511     10513     10512     10516     10517
     10514     10512     10516     10517     10515     10512     10516     10517
     10519     10518     10522     10523     10520     10518     10522     10523
     10521     10518     10522     10523     10525     10524     10528     10529
     10526     10524     10528     10529     10527     10524     10528     10529
     10531     10530     10534     10535     10532     10530     10534     10535
     10533     10530     10534     10535     10537     10536     10540     10541
     10538     10536     10540     10541     10539     10536     10540     10541
     10543     10542     10546     10547     10544     10542     10546     10547
     10545     10542     10546     10547     10549     10548     10552     10553
     10550     10548     10552     10553     10551     10548     10552     10553
     10555     10554     10558     10559     10556     10554     10558     10559
     10557     10554     10558     10559     10561     10560     10564     10565
     10562     10560     10564     10565     10563     10560     10564     10565
     10567     10566     10570     10571     10568     10566     10570     10571
     10569     10566     10570     10571     10573     10572     10576     10577
     10574     10572     10576     10577     10575     10572     10576     10577
     10579     10578     10582     10583     10580     10578     10582     10583
     10581     10578     10582     10583     10585     10584     10588     10589
     10586     10584     10588     10589     10587     10584     10588     10589
     10591     10590     10594     10595     10592     10590     10594     10595
     10593     10590     10594     10595     10597     10596     10600     10601
     10598     10596     10600     10601     10599     10596     10600     10601
     10603     10602     10606     10607     10604     10602     10606     10607
     10605     10602     10606     10607     10609     10608     10612     10613
     10610     10608     10612     10613     10611     10608     10612     10613
     10615     10614     10618     10619     10616     10614     10618     10619
     10617     10614     10618     10619     10621     10620     10624     10625
     10622     10620     10624     10625     10623     10620     10624     10625
     10627     10626     10630     10631     10628     10626     10630     10631
     10629     10626     10630     10631     10633     10632     10636     10637
     10634     10632     10636     10637     10635     10632     10636     10637
     10639     10638     10642     10643     10640     10638     10642     10643
     10641     10638     10642     10643     10645     10644     10648     10649
     10646     10644     10648     10649     10647     10644     10648     10649
     10651     10650     10654     10655     10652     10650     10654     10655
     10653     10650     10654     10655     10657     10656     10660     10661
     10658     10656     10660     10661     10659     10656     10660     10661
     10663     10662     10666     10667     10664     10662     10666     10667
     10665     10662     10666     10667     10669     10668     10672     10673
     10670     10668     10672     10673     10671     10668     10672     10673
     10675     10674     10678     10679     10676     10674     10678     10679
     10677     10674     10678     10679     10681     10680     10684     10685
     10682     10680     10684     10685     10683     10680     10684     10685
     10687     10686     10690     10691     10688     10686     10690     10691
     10689     10686     10690     10691     10693     10692     10696     10697
     10694     10692     10696     10697     10695     10692     10696     10697
     10699     10698     10702     10703     10700     10698     10702     10703
     10701     10698     10702     10703     10705     10704     10708     10709
     10706     10704     10708     10709     10707     10704     10708     10709
     10711     10710     10714     10715     10712     10710     10714     10715
     10713     10710     10714     10715     10717     10716     10720     10721
     10718     10716     10720     10721     10719     10716     10720     10721
     10723     10722     10726     10727     10724     10722     10726     10727
     10725     10722     10726     10727     10729     10728     10732     10733
     10730     10728     10732     10733     10731     10728     10732     10733
     10735     10734     10738     10739     10736     10734     10738     10739
     10737     10734     10738     10739     10741     10740     10744     10745
     10742     10740     10744     10745     10743     10740     10744     10745
     10747     10746     10750     10751     10748     10746     10750     10751
     10749     10746     10750     10751     10753     10752     10756     10757
     10754     10752     10756     10757     10755     10752     10756     10757
     10759     10758     10762     10763     10760     10758     10762     10763
     10761     10758     10762     10763     10765     10764     10768     10769
     10766     10764     10768     10769     10767     10764     10768     10769
     10771     10770     10774     10775     10772     10770     10774     10775
     10773     10770     10774     10775     10777     10776     10780     10781
     10778     10776     10780     10781     10779     10776     10780     10781
     10783     10782     10786     10787     10784     10782     10786     10787
     10785     10782     10786     10787     10789     10788     10792     10793
     10790     10788     10792     10793     10791     10788     10792     10793
     10795     10794     10798     10799     10796     10794     10798     10799
     10797     10794     10798     10799     10801     10800     10804     10805
     10802     10800     10804     10805     10803     10800     10804     10805
     10807     10806     10810     10811     10808     10806     10810     10811
     10809     10806     10810     10811     10813     10812     10816     10817
     10814     10812     10816     10817     10815     10812     10816     10817
     10819     10818     10822     10823     10820     10818     10822     10823
     10821     10818     10822     10823     10825     10824     10828     10829
     10826     10824     10828     10829     10827     10824     10828     10829
     10831     10830     10834     10835     10832     10830     10834     10835
     10833     10830     10834     10835     10837     10836     10840     10841
     10838     10836     10840     10841     10839     10836     10840     10841
     10843     10842     10846     10847     10844     10842     10846     10847
     10845     10842     10846     10847     10849     10848     10852     10853
     10850     10848     10852     10853     10851     10848     10852     10853
     10855     10854     10858     10859     10856     10854     10858     10859
     10857     10854     10858     10859     10861     10860     10864     10865
     10862     10860     10864     10865     10863     10860     10864     10865
     10867     10866     10870     10871     10868     10866     10870     10871
     10869     10866     10870     10871     10873     10872     10876     10877
     10874     10872     10876     10877     10875     10872     10876     10877
     10879     10878     10882     10883     10880     10878     10882     10883
     10881     10878     10882     10883     10885     10884     10888     10889
     10886     10884     10888     10889     10887     10884     10888     10889
     10891     10890     10894     10895     10892     10890     10894     10895
     10893     10890     10894     10895     10897     10896     10900     10901
     10898     10896     10900     10901     10899     10896     10900     10901
     10903     10902     10906     10907     10904     10902     10906     10907
     10905     10902     10906     10907     10909     10908     10912     10913
     10910     10908     10912     10913     10911     10908     10912     10913
     10915     10914     10918     10919     10916     10914     10918     10919
     10917     10914     10918     10919     10921     10920     10924     10925
     10922     10920     10924     10925     10923     10920     10924     10925
     10927     10926     10930     10931     10928     10926     10930     10931
     10929     10926     10930     10931     10933     10932     10936     10937
     10934     10932     10936     10937     10935     10932     10936     10937
     10939     10938     10942     10943     10940     10938     10942     10943
     10941     10938     10942     10943     10945     10944     10948     10949
     10946     10944     10948     10949     10947     10944     10948     10949
     10951     10950     10954     10955     10952     10950     10954     10955
     10953     10950     10954     10955     10957     10956     10960     10961
     10958     10956     10960     10961     10959     10956     10960     10961
     10963     10962     10966     10967     10964     10962     10966     10967
     10965     10962     10966     10967     10969     10968     10972     10973
     10970     10968     10972     10973     10971     10968     10972     10973
     10975     10974     10978     10979     10976     10974     10978     10979
     10977     10974     10978     10979     10981     10980     10984     10985
     10982     10980     10984     10985     10983     10980     10984     10985
     10987     10986     10990     10991     10988     10986     10990     10991
     10989     10986     10990     10991     10993     10992     10996     10997
     10994     10992     10996     10997     10995     10992     10996     10997
     10999     10998     11002     11003     11000     10998     11002     11003
     11001     10998     11002     11003     11005     11004     11008     11009
     11006     11004     11008     11009     11007     11004     11008     11009
     11011     11010     11014     11015     11012     11010     11014     11015
     11013     11010     11014     11015     11017     11016     11020     11021
     11018     11016     11020     11021     11019     11016     11020     11021
     11023     11022     11026     11027     11024     11022     11026     11027
     11025     11022     11026     11027     11029     11028     11032     11033
     11030     11028     11032     11033     11031     11028     11032     11033
     11035     11034     11038     11039     11036     11034     11038     11039
     11037     11034     11038     11039     11041     11040     11044     11045
     11042     11040     11044     11045     11043     11040     11044     11045
     11047     11046     11050     11051     11048     11046     11050     11051
     11049     11046     11050     11051     11053     11052     11056     11057
     11054     11052     11056     11057     11055     11052     11056     11057
     11059     11058     11062     11063     11060     11058     11062     11063
     11061     11058     11062     11063     11065     11064     11068     11069
     11066     11064     11068     11069     11067     11064     11068     11069
     11071     11070     11074     11075     11072     11070     11074     11075
     11073     11070     11074     11075     11077     11076     11080     11081
     11078     11076     11080     11081     11079     11076     11080     11081
     11083     11082     11086     11087     11084     11082     11086     11087
     11085     11082     11086     11087     11089     11088     11092     11093
     11090     11088     11092     11093     11091     11088     11092     11093
     11095     11094     11098     11099     11096     11094     11098     11099
     11097     11094     11098     11099     11101     11100     11104     11105
     11102     11100     11104     11105     11103     11100     11104     11105
     11107     11106     11110     11111     11108     11106     11110     11111
     11109     11106     11110     11111     11113     11112     11116     11117
     11114     11112     11116     11117     11115     11112     11116     11117
     11119     11118     11122     11123     11120     11118     11122     11123
     11121     11118     11122     11123     11125     11124     11128     11129
     11126     11124     11128     11129     11127     11124     11128     11129
     11131     11130     11134     11135     11132     11130     11134     11135
     11133     11130     11134     11135     11137     11136     11140     11141
     11138     11136     11140     11141     11139     11136     11140     11141
     11143     11142     11146     11147     11144     11142     11146     11147
     11145     11142     11146     11147     11149     11148     11152     11153
     11150     11148     11152     11153     11151     11148     11152     11153
     11155     11154     11158     11159     11156     11154     11158     11159
     11157     11154     11158     11159     11161     11160     11164     11165
     11162     11160     11164     11165     11163     11160     11164     11165
     11167     11166     11170     11171     11168     11166     11170     11171
     11169     11166     11170     11171     11173     11172     11176     11177
     11174     11172     11176     11177     11175     11172     11176     11177
     11179     11178     11182     11183     11180     11178     11182     11183
     11181     11178     11182     11183     11185     11184     11188     11189
     11186     11184     11188     11189     11187     11184     11188     11189
     11191     11190     11194     11195     11192     11190     11194     11195
     11193     11190     11194     11195     11197     11196     11200     11201
     11198     11196     11200     11201     11199     11196     11200     11201
     11203     11202     11206     11207     11204     11202     11206     11207
     11205     11202     11206     11207     11209     11208     11212     11213
     11210     11208     11212     11213     11211     11208     11212     11213
     11215     11214     11218     11219     11216     11214     11218     11219
     11217     11214     11218     11219     11221     11220     11224     11225
     11222     11220     11224     11225     11223     11220     11224     11225
     11227     11226     11230     11231     11228     11226     11230     11231
     11229     11226     11230     11231     11233     11232     11236     11237
     11234     11232     11236     11237     11235     11232     11236     11237
     11239     11238     11242     11243     11240     11238     11242     11243
     11241     11238     11242     11243     11245     11244     11248     11249
     11246     11244     11248     11249     11247     11244     11248     11249
     11251     11250     11254     11255     11252     11250     11254     11255
     11253     11250     11254     11255     11257     11256     11260     11261
     11258     11256     11260     11261     11259     11256     11260     11261
     11263     11262     11266     11267     11264     11262     11266     11267
     11265     11262     11266     11267     11269     11268     11272     11273
     11270     11268     11272     11273     11271     11268     11272     11273
     11275     11274     11278     11279     11276     11274     11278     11279
     11277     11274     11278     11279     11281     11280     11284     11285
     11282     11280     11284     11285     11283     11280     11284     11285
     11287     11286     11290     11291     11288     11286     11290     11291
     11289     11286     11290     11291     11293     11292     11296     11297
     11294     11292     11296     11297     11295     11292     11296     11297
     11299     11298     11302     11303     11300     11298     11302     11303
     11301     11298     11302     11303     11305     11304     11308     11309
     11306     11304     11308     11309     11307     11304     11308     11309
     11311     11310     11314     11315     11312     11310     11314     11315
     11313     11310     11314     11315     11317     11316     11320     11321
     11318     11316     11320     11321     11319     11316     11320     11321
     11323     11322     11326     11327     11324     11322     11326     11327
     11325     11322     11326     11327     11329     11328     11332     11333
     11330     11328     11332     11333     11331     11328     11332     11333
     11335     11334     11338     11339     11336     11334     11338     11339
     11337     11334     11338     11339     11341     11340     11344     11345
     11342     11340     11344     11345     11343     11340     11344     11345
     11347     11346     11350     11351     11348     11346     11350     11351
     11349     11346     11350     11351     11353     11352     11356     11357
     11354     11352     11356     11357     11355     11352     11356     11357
     11359     11358     11362     11363     11360     11358     11362     11363
     11361     11358     11362     11363     11365     11364     11368     11369
     11366     11364     11368     11369     11367     11364     11368     11369
     11371     11370     11374     11375     11372     11370     11374     11375
     11373     11370     11374     11375     11377     11376     11380     11381
     11378     11376     11380     11381     11379     11376     11380     11381
     11383     11382     11386     11387     11384     11382     11386     11387
     11385     11382     11386     11387     11389     11388     11392     11393
     11390     11388     11392     11393     11391     11388     11392     11393
     11395     11394     11398     11399     11396     11394     11398     11399
     11397     11394     11398     11399     11401     11400     11404     11405
     11402     11400     11404     11405     11403     11400     11404     11405
     11407     11406     11410     11411     11408     11406     11410     11411
     11409     11406     11410     11411     11413     11412     11416     11417
     11414     11412     11416     11417     11415     11412     11416     11417
     11419     11418     11422     11423     11420     11418     11422     11423
     11421     11418     11422     11423     11425     11424     11428     11429
     11426     11424     11428     11429     11427     11424     11428     11429
     11431     11430     11434     11435     11432     11430     11434     11435
     11433     11430     11434     11435     11437     11436     11440     11441
     11438     11436     11440     11441     11439     11436     11440     11441
     11443     11442     11446     11447     11444     11442     11446     11447
     11445     11442     11446     11447     11449     11448     11452     11453
     11450     11448     11452     11453     11451     11448     11452     11453
     11455     11454     11458     11459     11456     11454     11458     11459
     11457     11454     11458     11459     11461     11460     11464     11465
     11462     11460     11464     11465     11463     11460     11464     11465
     11467     11466     11470     11471     11468     11466     11470     11471
     11469     11466     11470     11471     11473     11472     11476     11477
     11474     11472     11476     11477     11475     11472     11476     11477
     11479     11478     11482     11483     11480     11478     11482     11483
     11481     11478     11482     11483     11485     11484     11488     11489
     11486     11484     11488     11489     11487     11484     11488     11489
     11491     11490     11494     11495     11492     11490     11494     11495
     11493     11490     11494     11495     11497     11496     11500     11501
     11498     11496     11500     11501     11499     11496     11500     11501
     11503     11502     11506     11507     11504     11502     11506     11507
     11505     11502     11506     11507     11509     11508     11512     11513
     11510     11508     11512     11513     11511     11508     11512     11513
     11515     11514     11518     11519     11516     11514     11518     11519
     11517     11514     11518     11519     11521     11520     11524     11525
     11522     11520     11524     11525     11523     11520     11524     11525
     11527     11526     11530     11531     11528     11526     11530     11531
     11529     11526     11530     11531     11533     11532     11536     11537
     11534     11532     11536     11537     11535     11532     11536     11537
     11539     11538     11542     11543     11540     11538     11542     11543
     11541     11538     11542     11543     11545     11544     11548     11549
     11546     11544     11548     11549     11547     11544     11548     11549
     11551     11550     11554     11555     11552     11550     11554     11555
     11553     11550     11554     11555     11557     11556     11560     11561
     11558     11556     11560     11561     11559     11556     11560     11561
     11563     11562     11566     11567     11564     11562     11566     11567
     11565     11562     11566     11567     11569     11568     11572     11573
     11570     11568     11572     11573     11571     11568     11572     11573
     11575     11574     11578     11579     11576     11574     11578     11579
     11577     11574     11578     11579     11581     11580     11584     11585
     11582     11580     11584     11585     11583     11580     11584     11585
     11587     11586     11590     11591     11588     11586     11590     11591
     11589     11586     11590     11591     11593     11592     11596     11597
     11594     11592     11596     11597     11595     11592     11596     11597
     11599     11598     11602     11603     11600     11598     11602     11603
     11601     11598     11602     11603     11605     11604     11608     11609
     11606     11604     11608     11609     11607     11604     11608     11609
     11611     11610     11614     11615     11612     11610     11614     11615
     11613     11610     11614     11615     11617     11616     11620     11621
     11618     11616     11620     11621     11619     11616     11620     11621
     11623     11622     11626     11627     11624     11622     11626     11627
     11625     11622     11626     11627     11629     11628     11632     11633
     11630     11628     11632     11633     11631     11628     11632     11633
     11635     11634     11638     11639     11636     11634     11638     11639
     11637     11634     11638     11639     11641     11640     11644     11645
     11642     11640     11644     11645     11643     11640     11644     11645
     11647     11646     11650     11651     11648     11646     11650     11651
     11649     11646     11650     11651     11653     11652     11656     11657
     11654     11652     11656     11657     11655     11652     11656     11657
     11659     11658     11662     11663     11660     11658     11662     11663
     11661     11658     11662     11663     11665     11664     11668     11669
     11666     11664     11668     11669     11667     11664     11668     11669
     11671     11670     11674     11675     11672     11670     11674     11675
     11673     11670     11674     11675     11677     11676     11680     11681
     11678     11676     11680     11681     11679     11676     11680     11681
     11683     11682     11686     11687     11684     11682     11686     11687
     11685     11682     11686     11687     11689     11688     11692     11693
     11690     11688     11692     11693     11691     11688     11692     11693
     11695     11694     11698     11699     11696     11694     11698     11699
     11697     11694     11698     11699     11701     11700     11704     11705
     11702     11700     11704     11705     11703     11700     11704     11705
     11707     11706     11710     11711     11708     11706     11710     11711
     11709     11706     11710     11711     11713     11712     11716     11717
     11714     11712     11716     11717     11715     11712     11716     11717
     11719     11718     11722     11723     11720     11718     11722     11723
     11721     11718     11722     11723     11725     11724     11728     11729
     11726     11724     11728     11729     11727     11724     11728     11729
     11731     11730     11734     11735     11732     11730     11734     11735
     11733     11730     11734     11735     11737     11736     11740     11741
     11738     11736     11740     11741     11739     11736     11740     11741
     11743     11742     11746     11747     11744     11742     11746     11747
     11745     11742     11746     11747     11749     11748     11752     11753
     11750     11748     11752     11753     11751     11748     11752     11753
     11755     11754     11758     11759     11756     11754     11758     11759
     11757     11754     11758     11759     11761     11760     11764     11765
     11762     11760     11764     11765     11763     11760     11764     11765
     11767     11766     11770     11771     11768     11766     11770     11771
     11769     11766     11770     11771     11773     11772     11776     11777
     11774     11772     11776     11777     11775     11772     11776     11777
     11779     11778     11782     11783     11780     11778     11782     11783
     11781     11778     11782     11783     11785     11784     11788     11789
     11786     11784     11788     11789     11787     11784     11788     11789
     11791     11790     11794     11795     11792     11790     11794     11795
     11793     11790     11794     11795     11797     11796     11800     11801
     11798     11796     11800     11801     11799     11796     11800     11801
     11803     11802     11806     11807     11804     11802     11806     11807
     11805     11802     11806     11807     11809     11808     11812     11813
     11810     11808     11812     11813     11811     11808     11812     11813
     11815     11814     11818     11819     11816     11814     11818     11819
     11817     11814     11818     11819     11821     11820     11824     11825
     11822     11820     11824     11825     11823     11820     11824     11825
     11827     11826     11830     11831     11828     11826     11830     11831
     11829     11826     11830     11831     11833     11832     11836     11837
     11834     11832     11836     11837     11835     11832     11836     11837
     11839     11838     11842     11843     11840     11838     11842     11843
     11841     11838     11842     11843     11845     11844     11848     11849
     11846     11844     11848     11849     11847     11844     11848     11849
     11851     11850     11854     11855     11852     11850     11854     11855
     11853     11850     11854     11855     11857     11856     11860     11861
     11858     11856     11860     11861     11859     11856     11860     11861
     11863     11862     11866     11867     11864     11862     11866     11867
     11865     11862     11866     11867     11869     11868     11872     11873
     11870     11868     11872     11873     11871     11868     11872     11873
     11875     11874     11878     11879     11876     11874     11878     11879
     11877     11874     11878     11879     11881     11880     11884     11885
     11882     11880     11884     11885     11883     11880     11884     11885
     11887     11886     11890     11891     11888     11886     11890     11891
     11889     11886     11890     11891     11893     11892     11896     11897
     11894     11892     11896     11897     11895     11892     11896     11897
     11899     11898     11902     11903     11900     11898     11902     11903
     11901     11898     11902     11903     11905     11904     11908     11909
     11906     11904     11908     11909     11907     11904     11908     11909
     11911     11910     11914     11915     11912     11910     11914     11915
     11913     11910     11914     11915     11917     11916     11920     11921
     11918     11916     11920     11921     11919     11916     11920     11921
     11923     11922     11926     11927     11924     11922     11926     11927
     11925     11922     11926     11927     11929     11928     11932     11933
     11930     11928     11932     11933     11931     11928     11932     11933
     11935     11934     11938     11939     11936     11934     11938     11939
     11937     11934     11938     11939     11941     11940     11944     11945
     11942     11940     11944     11945     11943     11940     11944     11945
     11947     11946     11950     11951     11948     11946     11950     11951
     11949     11946     11950     11951     11953     11952     11956     11957
     11954     11952     11956     11957     11955     11952     11956     11957
     11959     11958     11962     11963     11960     11958     11962     11963
     11961     11958     11962     11963     11965     11964     11968     11969
     11966     11964     11968     11969     11967     11964     11968     11969
     11971     11970     11974     11975     11972     11970     11974     11975
     11973     11970     11974     11975     11977     11976     11980     11981
     11978     11976     11980     11981     11979     11976     11980     11981
     11983     11982     11986     11987     11984     11982     11986     11987
     11985     11982     11986     11987     11989     11988     11992     11993
     11990     11988     11992     11993     11991     11988     11992     11993
     11995     11994     11998     11999     11996     11994     11998     11999
     11997     11994     11998     11999     12001     12000     12004     12005
     12002     12000     12004     12005     12003     12000     12004     12005
     12007     12006     12010     12011     12008     12006     12010     12011
     12009     12006     12010     12011     12013     12012     12016     12017
     12014     12012     12016     12017     12015     12012     12016     12017
     12019     12018     12022     12023     12020     12018     12022     12023
     12021     12018     12022     12023     12025     12024     12028     12029
     12026     12024     12028     12029     12027     12024     12028     12029
     12031     12030     12034     12035     12032     12030     12034     12035
     12033     12030     12034     12035     12037     12036     12040     12041
     12038     12036     12040     12041     12039     12036     12040     12041
     12043     12042     12046     12047     12044     12042     12046     12047
     12045     12042     12046     12047     12049     12048     12052     12053
     12050     12048     12052     12053     12051     12048     12052     12053
     12055     12054     12058     12059     12056     12054     12058     12059
     12057     12054     12058     12059     12061     12060     12064     12065
     12062     12060     12064     12065     12063     12060     12064     12065
     12067     12066     12070     12071     12068     12066     12070     12071
     12069     12066     12070     12071     12073     12072     12076     12077
     12074     12072     12076     12077     12075     12072     12076     12077
     12079     12078     12082     12083     12080     12078     12082     12083
     12081     12078     12082     12083     12085     12084     12088     12089
     12086     12084     12088     12089     12087     12084     12088     12089
     12091     12090     12094     12095     12092     12090     12094     12095
     12093     12090     12094     12095     12097     12096     12100     12101
     12098     12096     12100     12101     12099     12096     12100     12101
     12103     12102     12106     12107     12104     12102     12106     12107
     12105     12102     12106     12107     12109     12108     12112     12113
     12110     12108     12112     12113     12111     12108     12112     12113
     12115     12114     12118     12119     12116     12114     12118     12119
     12117     12114     12118     12119     12121     12120     12124     12125
     12122     12120     12124     12125     12123     12120     12124     12125
     12127     12126     12130     12131     12128     12126     12130     12131
     12129     12126     12130     12131     12133     12132     12136     12137
     12134     12132     12136     12137     12135     12132     12136     12137
     12139     12138     12142     12143     12140     12138     12142     12143
     12141     12138     12142     12143     12145     12144     12148     12149
     12146     12144     12148     12149     12147     12144     12148     12149
     12151     12150     12154     12155     12152     12150     12154     12155
     12153     12150     12154     12155     12157     12156     12160     12161
     12158     12156     12160     12161     12159     12156     12160     12161
     12163     12162     12166     12167     12164     12162     12166     12167
     12165     12162     12166     12167     12169     12168     12172     12173
     12170     12168     12172     12173     12171     12168     12172     12173
     12175     12174     12178     12179     12176     12174     12178     12179
     12177     12174     12178     12179     12181     12180     12184     12185
     12182     12180     12184     12185     12183     12180     12184     12185
     12187     12186     12190     12191     12188     12186     12190     12191
     12189     12186     12190     12191     12193     12192     12196     12197
     12194     12192     12196     12197     12195     12192     12196     12197
     12199     12198     12202     12203     12200     12198     12202     12203
     12201     12198     12202     12203     12205     12204     12208     12209
     12206     12204     12208     12209     12207     12204     12208     12209
     12211     12210     12214     12215     12212     12210     12214     12215
     12213     12210     12214     12215     12217     12216     12220     12221
     12218     12216     12220     12221     12219     12216     12220     12221
     12223     12222     12226     12227     12224     12222     12226     12227
     12225     12222     12226     12227     12229     12228     12232     12233
     12230     12228     12232     12233     12231     12228     12232     12233
     12235     12234     12238     12239     12236     12234     12238     12239
     12237     12234     12238     12239     12241     12240     12244     12245
     12242     12240     12244     12245     12243     12240     12244     12245
     12247     12246     12250     12251     12248     12246     12250     12251
     12249     12246     12250     12251     12253     12252     12256     12257
     12254     12252     12256     12257     12255     12252     12256     12257
     12259     12258     12262     12263     12260     12258     12262     12263
     12261     12258     12262     12263     12265     12264     12268     12269
     12266     12264     12268     12269     12267     12264     12268     12269
     12271     12270     12274     12275     12272     12270     12274     12275
     12273     12270     12274     12275     12277     12276     12280     12281
     12278     12276     12280     12281     12279     12276     12280     12281
     12283     12282     12286     12287     12284     12282     12286     12287
     12285     12282     12286     12287     12289     12288     12292     12293
     12290     12288     12292     12293     12291     12288     12292     12293
     12295     12294     12298     12299     12296     12294     12298     12299
     12297     12294     12298     12299     12301     12300     12304     12305
     12302     12300     12304     12305     12303     12300     12304     12305
     12307     12306     12310     12311     12308     12306     12310     12311
     12309     12306     12310     12311     12313     12312     12316     12317
     12314     12312     12316     12317     12315     12312     12316     12317
     12319     12318     12322     12323     12320     12318     12322     12323
     12321     12318     12322     12323     12325     12324     12328     12329
     12326     12324     12328     12329     12327     12324     12328     12329
     12331     12330     12334     12335     12332     12330     12334     12335
     12333     12330     12334     12335     12337     12336     12340     12341
     12338     12336     12340     12341     12339     12336     12340     12341
     12343     12342     12346     12347     12344     12342     12346     12347
     12345     12342     12346     12347     12349     12348     12352     12353
     12350     12348     12352     12353     12351     12348     12352     12353
     12355     12354     12358     12359     12356     12354     12358     12359
     12357     12354     12358     12359     12361     12360     12364     12365
     12362     12360     12364     12365     12363     12360     12364     12365
     12367     12366     12370     12371     12368     12366     12370     12371
     12369     12366     12370     12371     12373     12372     12376     12377
     12374     12372     12376     12377     12375     12372     12376     12377
     12379     12378     12382     12383     12380     12378     12382     12383
     12381     12378     12382     12383     12385     12384     12388     12389
     12386     12384     12388     12389     12387     12384     12388     12389
     12391     12390     12394     12395     12392     12390     12394     12395
     12393     12390     12394     12395     12397     12396     12400     12401
     12398     12396     12400     12401     12399     12396     12400     12401
     12403     12402     12406     12407     12404     12402     12406     12407
     12405     12402     12406     12407     12409     12408     12412     12413
     12410     12408     12412     12413     12411     12408     12412     12413
     12415     12414     12418     12419     12416     12414     12418     12419
     12417     12414     12418     12419     12421     12420     12424     12425
     12422     12420     12424     12425     12423     12420     12424     12425
     12427     12426     12430     12431     12428     12426     12430     12431
     12429     12426     12430     12431     12433     12432     12436     12437
     12434     12432     12436     12437     12435     12432     12436     12437
     12439     12438     12442     12443     12440     12438     12442     12443
     12441     12438     12442     12443     12445     12444     12448     12449
     12446     12444     12448     12449     12447     12444     12448     12449
     12451     12450     12454     12455     12452     12450     12454     12455
     12453     12450     12454     12455     12457     12456     12460     12461
     12458     12456     12460     12461     12459     12456     12460     12461
     12463     12462     12466     12467     12464     12462     12466     12467
     12465     12462     12466     12467     12469     12468     12472     12473
     12470     12468     12472     12473     12471     12468     12472     12473
     12475     12474     12478     12479     12476     12474     12478     12479
     12477     12474     12478     12479     12481     12480     12484     12485
     12482     12480     12484     12485     12483     12480     12484     12485
     12487     12486     12490     12491     12488     12486     12490     12491
     12489     12486     12490     12491     12493     12492     12496     12497
     12494     12492     12496     12497     12495     12492     12496     12497
     12499     12498     12502     12503     12500     12498     12502     12503
     12501     12498     12502     12503     12505     12504     12508     12509
     12506     12504     12508     12509     12507     12504     12508     12509
     12511     12510     12514     12515     12512     12510     12514     12515
     12513     12510     12514     12515     12517     12516     12520     12521
     12518     12516     12520     12521     12519     12516     12520     12521
     12523     12522     12526     12527     12524     12522     12526     12527
     12525     12522     12526     12527     12529     12528     12532     12533
     12530     12528     12532     12533     12531     12528     12532     12533
     12535     12534     12538     12539     12536     12534     12538     12539
     12537     12534     12538     12539     12541     12540     12544     12545
     12542     12540     12544     12545     12543     12540     12544     12545
     12547     12546     12550     12551     12548     12546     12550     12551
     12549     12546     12550     12551     12553     12552     12556     12557
     12554     12552     12556     12557     12555     12552     12556     12557
     12559     12558     12562     12563     12560     12558     12562     12563
     12561     12558     12562     12563     12565     12564     12568     12569
     12566     12564     12568     12569     12567     12564     12568     12569
     12571     12570     12574     12575     12572     12570     12574     12575
     12573     12570     12574     12575     12577     12576     12580     12581
     12578     12576     12580     12581     12579     12576     12580     12581
     12583     12582     12586     12587     12584     12582     12586     12587
     12585     12582     12586     12587     12589     12588     12592     12593
     12590     12588     12592     12593     12591     12588     12592     12593
     12595     12594     12598     12599     12596     12594     12598     12599
     12597     12594     12598     12599     12601     12600     12604     12605
     12602     12600     12604     12605     12603     12600     12604     12605
     12607     12606     12610     12611     12608     12606     12610     12611
     12609     12606     12610     12611     12613     12612     12616     12617
     12614     12612     12616     12617     12615     12612     12616     12617
     12619     12618     12622     12623     12620     12618     12622     12623
     12621     12618     12622     12623     12625     12624     12628     12629
     12626     12624     12628     12629     12627     12624     12628     12629
     12631     12630     12634     12635     12632     12630     12634     12635
     12633     12630     12634     12635     12637     12636     12640     12641
     12638     12636     12640     12641     12639     12636     12640     12641
     12643     12642     12646     12647     12644     12642     12646     12647
     12645     12642     12646     12647     12649     12648     12652     12653
     12650     12648     12652     12653     12651     12648     12652     12653
     12655     12654     12658     12659     12656     12654     12658     12659
     12657     12654     12658     12659     12661     12660     12664     12665
     12662     12660     12664     12665     12663     12660     12664     12665
     12667     12666     12670     12671     12668     12666     12670     12671
     12669     12666     12670     12671     12673     12672     12676     12677
     12674     12672     12676     12677     12675     12672     12676     12677
     12679     12678     12682     12683     12680     12678     12682     12683
     12681     12678     12682     12683     12685     12684     12688     12689
     12686     12684     12688     12689     12687     12684     12688     12689
     12691     12690     12694     12695     12692     12690     12694     12695
     12693     12690     12694     12695     12697     12696     12700     12701
     12698     12696     12700     12701     12699     12696     12700     12701
     12703     12702     12706     12707     12704     12702     12706     12707
     12705     12702     12706     12707     12709     12708     12712     12713
     12710     12708     12712     12713     12711     12708     12712     12713
     12715     12714     12718     12719     12716     12714     12718     12719
     12717     12714     12718     12719     12721     12720     12724     12725
     12722     12720     12724     12725     12723     12720     12724     12725
     12727     12726     12730     12731     12728     12726     12730     12731
     12729     12726     12730     12731     12733     12732     12736     12737
     12734     12732     12736     12737     12735     12732     12736     12737
     12739     12738     12742     12743     12740     12738     12742     12743
     12741     12738     12742     12743     12745     12744     12748     12749
     12746     12744     12748     12749     12747     12744     12748     12749
     12751     12750     12754     12755     12752     12750     12754     12755
     12753     12750     12754     12755     12757     12756     12760     12761
     12758     12756     12760     12761     12759     12756     12760     12761
     12763     12762     12766     12767     12764     12762     12766     12767
     12765     12762     12766     12767     12769     12768     12772     12773
     12770     12768     12772     12773     12771     12768     12772     12773
     12775     12774     12778     12779     12776     12774     12778     12779
     12777     12774     12778     12779     12781     12780     12784     12785
     12782     12780     12784     12785     12783     12780     12784     12785
     12787     12786     12790     12791     12788     12786     12790     12791
     12789     12786     12790     12791     12793     12792     12796     12797
     12794     12792     12796     12797     12795     12792     12796     12797
     12799     12798     12802     12803     12800     12798     12802     12803
     12801     12798     12802     12803     12805     12804     12808     12809
     12806     12804     12808     12809     12807     12804     12808     12809
     12811     12810     12814     12815     12812     12810     12814     12815
     12813     12810     12814     12815     12817     12816     12820     12821
     12818     12816     12820     12821     12819     12816     12820     12821
     12823     12822     12826     12827     12824     12822     12826     12827
     12825     12822     12826     12827     12829     12828     12832     12833
     12830     12828     12832     12833     12831     12828     12832     12833
     12835     12834     12838     12839     12836     12834     12838     12839
     12837     12834     12838     12839     12841     12840     12844     12845
     12842     12840     12844     12845     12843     12840     12844     12845
     12847     12846     12850     12851     12848     12846     12850     12851
     12849     12846     12850     12851     12853     12852     12856     12857
     12854     12852     12856     12857     12855     12852     12856     12857
     12859     12858     12862     12863     12860     12858     12862     12863
     12861     12858     12862     12863     12865     12864     12868     12869
     12866     12864     12868     12869     12867     12864     12868     12869
     12871     12870     12874     12875     12872     12870     12874     12875
     12873     12870     12874     12875     12877     12876     12880     12881
     12878     12876     12880     12881     12879     12876     12880     12881
     12883     12882     12886     12887     12884     12882     12886     12887
     12885     12882     12886     12887     12889     12888     12892     12893
     12890     12888     12892     12893     12891     12888     12892     12893
     12895     12894     12898     12899     12896     12894     12898     12899
     12897     12894     12898     12899     12901     12900     12904     12905
     12902     12900     12904     12905     12903     12900     12904     12905
     12907     12906     12910     12911     12908     12906     12910     12911
     12909     12906     12910     12911     12913     12912     12916     12917
     12914     12912     12916     12917     12915     12912     12916     12917
     12919     12918     12922     12923     12920     12918     12922     12923
     12921     12918     12922     12923     12925     12924     12928     12929
     12926     12924     12928     12929     12927     12924     12928     12929
     12931     12930     12934     12935     12932     12930     12934     12935
     12933     12930     12934     12935     12937     12936     12940     12941
     12938     12936     12940     12941     12939     12936     12940     12941
     12943     12942     12946     12947     12944     12942     12946     12947
     12945     12942     12946     12947     12949     12948     12952     12953
     12950     12948     12952     12953     12951     12948     12952     12953
     12955     12954     12958     12959     12956     12954     12958     12959
     12957     12954     12958     12959     12961     12960     12964     12965
     12962     12960     12964     12965     12963     12960     12964     12965
     12967     12966     12970     12971     12968     12966     12970     12971
     12969     12966     12970     12971     12973     12972     12976     12977
     12974     12972     12976     12977     12975     12972     12976     12977
     12979     12978     12982     12983     12980     12978     12982     12983
     12981     12978     12982     12983     12985     12984     12988     12989
     12986     12984     12988     12989     12987     12984     12988     12989
     12991     12990     12994     12995     12992     12990     12994     12995
     12993     12990     12994     12995     12997     12996     13000     13001
     12998     12996     13000     13001     12999     12996     13000     13001
     13003     13002     13006     13007     13004     13002     13006     13007
     13005     13002     13006     13007     13009     13008     13012     13013
     13010     13008     13012     13013     13011     13008     13012     13013
     13015     13014     13018     13019     13016     13014     13018     13019
     13017     13014     13018     13019     13021     13020     13024     13025
     13022     13020     13024     13025     13023     13020     13024     13025
     13027     13026     13030     13031     13028     13026     13030     13031
     13029     13026     13030     13031     13033     13032     13036     13037
     13034     13032     13036     13037     13035     13032     13036     13037
     13039     13038     13042     13043     13040     13038     13042     13043
     13041     13038     13042     13043     13045     13044     13048     13049
     13046     13044     13048     13049     13047     13044     13048     13049
     13051     13050     13054     13055     13052     13050     13054     13055
     13053     13050     13054     13055     13057     13056     13060     13061
     13058     13056     13060     13061     13059     13056     13060     13061
     13063     13062     13066     13067     13064     13062     13066     13067
     13065     13062     13066     13067     13069     13068     13072     13073
     13070     13068     13072     13073     13071     13068     13072     13073
     13075     13074     13078     13079     13076     13074     13078     13079
     13077     13074     13078     13079     13081     13080     13084     13085
     13082     13080     13084     13085     13083     13080     13084     13085
     13087     13086     13090     13091     13088     13086     13090     13091
     13089     13086     13090     13091     13093     13092     13096     13097
     13094     13092     13096     13097     13095     13092     13096     13097
     13099     13098     13102     13103     13100     13098     13102     13103
     13101     13098     13102     13103     13105     13104     13108     13109
     13106     13104     13108     13109     13107     13104     13108     13109
     13111     13110     13114     13115     13112     13110     13114     13115
     13113     13110     13114     13115     13117     13116     13120     13121
     13118     13116     13120     13121     13119     13116     13120     13121
     13123     13122     13126     13127     13124     13122     13126     13127
     13125     13122     13126     13127     13129     13128     13132     13133
     13130     13128     13132     13133     13131     13128     13132     13133
     13135     13134     13138     13139     13136     13134     13138     13139
     13137     13134     13138     13139     13141     13140     13144     13145
     13142     13140     13144     13145     13143     13140     13144     13145
     13147     13146     13150     13151     13148     13146     13150     13151
     13149     13146     13150     13151     13153     13152     13156     13157
     13154     13152     13156     13157     13155     13152     13156     13157
     13159     13158     13162     13163     13160     13158     13162     13163
     13161     13158     13162     13163     13165     13164     13168     13169
     13166     13164     13168     13169     13167     13164     13168     13169
     13171     13170     13174     13175     13172     13170     13174     13175
     13173     13170     13174     13175     13177     13176     13180     13181
     13178     13176     13180     13181     13179     13176     13180     13181
     13183     13182     13186     13187     13184     13182     13186     13187
     13185     13182     13186     13187     13189     13188     13192     13193
     13190     13188     13192     13193     13191     13188     13192     13193
     13195     13194     13198     13199     13196     13194     13198     13199
     13197     13194     13198     13199     13201     13200     13204     13205
     13202     13200     13204     13205     13203     13200     13204     13205
     13207     13206     13210     13211     13208     13206     13210     13211
     13209     13206     13210     13211     13213     13212     13216     13217
     13214     13212     13216     13217     13215     13212     13216     13217
     13219     13218     13222     13223     13220     13218     13222     13223
     13221     13218     13222     13223     13225     13224     13228     13229
     13226     13224     13228     13229     13227     13224     13228     13229
     13231     13230     13234     13235     13232     13230     13234     13235
     13233     13230     13234     13235     13237     13236     13240     13241
     13238     13236     13240     13241     13239     13236     13240     13241
     13243     13242     13246     13247     13244     13242     13246     13247
     13245     13242     13246     13247     13249     13248     13252     13253
     13250     13248     13252     13253     13251     13248     13252     13253
     13255     13254     13258     13259     13256     13254     13258     13259
     13257     13254     13258     13259     13261     13260     13264     13265
     13262     13260     13264     13265     13263     13260     13264     13265
     13267     13266     13270     13271     13268     13266     13270     13271
     13269     13266     13270     13271     13273     13272     13276     13277
     13274     13272     13276     13277     13275     13272     13276     13277
     13279     13278     13282     13283     13280     13278     13282     13283
     13281     13278     13282     13283     13285     13284     13288     13289
     13286     13284     13288     13289     13287     13284     13288     13289
     13291     13290     13294     13295     13292     13290     13294     13295
     13293     13290     13294     13295     13297     13296     13300     13301
     13298     13296     13300     13301     13299     13296     13300     13301
     13303     13302     13306     13307     13304     13302     13306     13307
     13305     13302     13306     13307     13309     13308     13312     13313
     13310     13308     13312     13313     13311     13308     13312     13313
     13315     13314     13318     13319     13316     13314     13318     13319
     13317     13314     13318     13319     13321     13320     13324     13325
     13322     13320     13324     13325     13323     13320     13324     13325
     13327     13326     13330     13331     13328     13326     13330     13331
     13329     13326     13330     13331     13333     13332     13336     13337
     13334     13332     13336     13337     13335     13332     13336     13337
     13339     13338     13342     13343     13340     13338     13342     13343
     13341     13338     13342     13343     13345     13344     13348     13349
     13346     13344     13348     13349     13347     13344     13348     13349
     13351     13350     13354     13355     13352     13350     13354     13355
     13353     13350     13354     13355     13357     13356     13360     13361
     13358     13356     13360     13361     13359     13356     13360     13361
     13363     13362     13366     13367     13364     13362     13366     13367
     13365     13362     13366     13367     13369     13368     13372     13373
     13370     13368     13372     13373     13371     13368     13372     13373
     13375     13374     13378     13379     13376     13374     13378     13379
     13377     13374     13378     13379     13381     13380     13384     13385
     13382     13380     13384     13385     13383     13380     13384     13385
     13387     13386     13390     13391     13388     13386     13390     13391
     13389     13386     13390     13391     13393     13392     13396     13397
     13394     13392     13396     13397     13395     13392     13396     13397
     13399     13398     13402     13403     13400     13398     13402     13403
     13401     13398     13402     13403     13405     13404     13408     13409
     13406     13404     13408     13409     13407     13404     13408     13409
     13411     13410     13414     13415     13412     13410     13414     13415
     13413     13410     13414     13415     13417     13416     13420     13421
     13418     13416     13420     13421     13419     13416     13420     13421
     13423     13422     13426     13427     13424     13422     13426     13427
     13425     13422     13426     13427     13429     13428     13432     13433
     13430     13428     13432     13433     13431     13428     13432     13433
     13435     13434     13438     13439     13436     13434     13438     13439
     13437     13434     13438     13439     13441     13440     13444     13445
     13442     13440     13444     13445     13443     13440     13444     13445
     13447     13446     13450     13451     13448     13446     13450     13451
     13449     13446     13450     13451     13453     13452     13456     13457
     13454     13452     13456     13457     13455     13452     13456     13457
     13459     13458     13462     13463     13460     13458     13462     13463
     13461     13458     13462     13463     13465     13464     13468     13469
     13466     13464     13468     13469     13467     13464     13468     13469
     13471     13470     13474     13475     13472     13470     13474     13475
     13473     13470     13474     13475     13477     13476     13480     13481
     13478     13476     13480     13481     13479     13476     13480     13481
     13483     13482     13486     13487     13484     13482     13486     13487
     13485     13482     13486     13487     13489     13488     13492     13493
     13490     13488     13492     13493     13491     13488     13492     13493
     13495     13494     13498     13499     13496     13494     13498     13499
     13497     13494     13498     13499     13501     13500     13504     13505
     13502     13500     13504     13505     13503     13500     13504     13505
     13507     13506     13510     13511     13508     13506     13510     13511
     13509     13506     13510     13511     13513     13512     13516     13517
     13514     13512     13516     13517     13515     13512     13516     13517
     13519     13518     13522     13523     13520     13518     13522     13523
     13521     13518     13522     13523     13525     13524     13528     13529
     13526     13524     13528     13529     13527     13524     13528     13529
     13531     13530     13534     13535     13532     13530     13534     13535
     13533     13530     13534     13535     13537     13536     13540     13541
     13538     13536     13540     13541     13539     13536     13540     13541
     13543     13542     13546     13547     13544     13542     13546     13547
     13545     13542     13546     13547     13549     13548     13552     13553
     13550     13548     13552     13553     13551     13548     13552     13553
     13555     13554     13558     13559     13556     13554     13558     13559
     13557     13554     13558     13559     13561     13560     13564     13565
     13562     13560     13564     13565     13563     13560     13564     13565
     13567     13566     13570     13571     13568     13566     13570     13571
     13569     13566     13570     13571     13573     13572     13576     13577
     13574     13572     13576     13577     13575     13572     13576     13577
     13579     13578     13582     13583     13580     13578     13582     13583
     13581     13578     13582     13583     13585     13584     13588     13589
     13586     13584     13588     13589     13587     13584     13588     13589
     13591     13590     13594     13595     13592     13590     13594     13595
     13593     13590     13594     13595     13597     13596     13600     13601
     13598     13596     13600     13601     13599     13596     13600     13601
     13603     13602     13606     13607     13604     13602     13606     13607
     13605     13602     13606     13607     13609     13608     13612     13613
     13610     13608     13612     13613     13611     13608     13612     13613
     13615     13614     13618     13619     13616     13614     13618     13619
     13617     13614     13618     13619     13621     13620     13624     13625
     13622     13620     13624     13625     13623     13620     13624     13625
     13627     13626     13630     13631     13628     13626     13630     13631
     13629     13626     13630     13631     13633     13632     13636     13637
     13634     13632     13636     13637     13635     13632     13636     13637
     13639     13638     13642     13643     13640     13638     13642     13643
     13641     13638     13642     13643     13645     13644     13648     13649
     13646     13644     13648     13649     13647     13644     13648     13649
     13651     13650     13654     13655     13652     13650     13654     13655
     13653     13650     13654     13655     13657     13656     13660     13661
     13658     13656     13660     13661     13659     13656     13660     13661
     13663     13662     13666     13667     13664     13662     13666     13667
     13665     13662     13666     13667     13669     13668     13672     13673
     13670     13668     13672     13673     13671     13668     13672     13673
     13675     13674     13678     13679     13676     13674     13678     13679
     13677     13674     13678     13679     13681     13680     13684     13685
     13682     13680     13684     13685     13683     13680     13684     13685
     13687     13686     13690     13691     13688     13686     13690     13691
     13689     13686     13690     13691     13693     13692     13696     13697
     13694     13692     13696     13697     13695     13692     13696     13697
     13699     13698     13702     13703     13700     13698     13702     13703
     13701     13698     13702     13703     13705     13704     13708     13709
     13706     13704     13708     13709     13707     13704     13708     13709
     13711     13710     13714     13715     13712     13710     13714     13715
     13713     13710     13714     13715     13717     13716     13720     13721
     13718     13716     13720     13721     13719     13716     13720     13721
     13723     13722     13726     13727     13724     13722     13726     13727
     13725     13722     13726     13727     13729     13728     13732     13733
     13730     13728     13732     13733     13731     13728     13732     13733
     13735     13734     13738     13739     13736     13734     13738     13739
     13737     13734     13738     13739     13741     13740     13744     13745
     13742     13740     13744     13745     13743     13740     13744     13745
     13747     13746     13750     13751     13748     13746     13750     13751
     13749     13746     13750     13751     13753     13752     13756     13757
     13754     13752     13756     13757     13755     13752     13756     13757
     13759     13758     13762     13763     13760     13758     13762     13763
     13761     13758     13762     13763     13765     13764     13768     13769
     13766     13764     13768     13769     13767     13764     13768     13769
     13771     13770     13774     13775     13772     13770     13774     13775
     13773     13770     13774     13775     13777     13776     13780     13781
     13778     13776     13780     13781     13779     13776     13780     13781
     13783     13782     13786     13787     13784     13782     13786     13787
     13785     13782     13786     13787     13789     13788     13792     13793
     13790     13788     13792     13793     13791     13788     13792     13793
     13795     13794     13798     13799     13796     13794     13798     13799
     13797     13794     13798     13799     13801     13800     13804     13805
     13802     13800     13804     13805     13803     13800     13804     13805
     13807     13806     13810     13811     13808     13806     13810     13811
     13809     13806     13810     13811     13813     13812     13816     13817
     13814     13812     13816     13817     13815     13812     13816     13817
     13819     13818     13822     13823     13820     13818     13822     13823
     13821     13818     13822     13823     13825     13824     13828     13829
     13826     13824     13828     13829     13827     13824     13828     13829
     13831     13830     13834     13835     13832     13830     13834     13835
     13833     13830     13834     13835     13837     13836     13840     13841
     13838     13836     13840     13841     13839     13836     13840     13841
     13843     13842     13846     13847     13844     13842     13846     13847
     13845     13842     13846     13847     13849     13848     13852     13853
     13850     13848     13852     13853     13851     13848     13852     13853
     13855     13854     13858     13859     13856     13854     13858     13859
     13857     13854     13858     13859     13861     13860     13864     13865
     13862     13860     13864     13865     13863     13860     13864     13865
     13867     13866     13870     13871     13868     13866     13870     13871
     13869     13866     13870     13871     13873     13872     13876     13877
     13874     13872     13876     13877     13875     13872     13876     13877
     13879     13878     13882     13883     13880     13878     13882     13883
     13881     13878     13882     13883     13885     13884     13888     13889
     13886     13884     13888     13889     13887     13884     13888     13889
     13891     13890     13894     13895     13892     13890     13894     13895
     13893     13890     13894     13895     13897     13896     13900     13901
     13898     13896     13900     13901     13899     13896     13900     13901
     13903     13902     13906     13907     13904     13902     13906     13907
     13905     13902     13906     13907     13909     13908     13912     13913
     13910     13908     13912     13913     13911     13908     13912     13913
     13915     13914     13918     13919     13916     13914     13918     13919
     13917     13914     13918     13919     13921     13920     13924     13925
     13922     13920     13924     13925     13923     13920     13924     13925
     13927     13926     13930     13931     13928     13926     13930     13931
     13929     13926     13930     13931     13933     13932     13936     13937
     13934     13932     13936     13937     13935     13932     13936     13937
     13939     13938     13942     13943     13940     13938     13942     13943
     13941     13938     13942     13943     13945     13944     13948     13949
     13946     13944     13948     13949     13947     13944     13948     13949
     13951     13950     13954     13955     13952     13950     13954     13955
     13953     13950     13954     13955     13957     13956     13960     13961
     13958     13956     13960     13961     13959     13956     13960     13961
     13963     13962     13966     13967     13964     13962     13966     13967
     13965     13962     13966     13967     13969     13968     13972     13973
     13970     13968     13972     13973     13971     13968     13972     13973
     13975     13974     13978     13979     13976     13974     13978     13979
     13977     13974     13978     13979     13981     13980     13984     13985
     13982     13980     13984     13985     13983     13980     13984     13985
     13987     13986     13990     13991     13988     13986     13990     13991
     13989     13986     13990     13991     13993     13992     13996     13997
     13994     13992     13996     13997     13995     13992     13996     13997
     13999     13998     14002     14003     14000     13998     14002     14003
     14001     13998     14002     14003     14005     14004     14008     14009
     14006     14004     14008     14009     14007     14004     14008     14009
     14011     14010     14014     14015     14012     14010     14014     14015
     14013     14010     14014     14015     14017     14016     14020     14021
     14018     14016     14020     14021     14019     14016     14020     14021
     14023     14022     14026     14027     14024     14022     14026     14027
     14025     14022     14026     14027     14029     14028     14032     14033
     14030     14028     14032     14033     14031     14028     14032     14033
     14035     14034     14038     14039     14036     14034     14038     14039
     14037     14034     14038     14039     14041     14040     14044     14045
     14042     14040     14044     14045     14043     14040     14044     14045
     14047     14046     14050     14051     14048     14046     14050     14051
     14049     14046     14050     14051     14053     14052     14056     14057
     14054     14052     14056     14057     14055     14052     14056     14057
     14059     14058     14062     14063     14060     14058     14062     14063
     14061     14058     14062     14063     14065     14064     14068     14069
     14066     14064     14068     14069     14067     14064     14068     14069
     14071     14070     14074     14075     14072     14070     14074     14075
     14073     14070     14074     14075     14077     14076     14080     14081
     14078     14076     14080     14081     14079     14076     14080     14081
     14083     14082     14086     14087     14084     14082     14086     14087
     14085     14082     14086     14087     14089     14088     14092     14093
     14090     14088     14092     14093     14091     14088     14092     14093
     14095     14094     14098     14099     14096     14094     14098     14099
     14097     14094     14098     14099     14101     14100     14104     14105
     14102     14100     14104     14105     14103     14100     14104     14105
     14107     14106     14110     14111     14108     14106     14110     14111
     14109     14106     14110     14111     14113     14112     14116     14117
     14114     14112     14116     14117     14115     14112     14116     14117
     14119     14118     14122     14123     14120     14118     14122     14123
     14121     14118     14122     14123     14125     14124     14128     14129
     14126     14124     14128     14129     14127     14124     14128     14129
     14131     14130     14134     14135     14132     14130     14134     14135
     14133     14130     14134     14135     14137     14136     14140     14141
     14138     14136     14140     14141     14139     14136     14140     14141
     14143     14142     14146     14147     14144     14142     14146     14147
     14145     14142     14146     14147     14149     14148     14152     14153
     14150     14148     14152     14153     14151     14148     14152     14153
     14155     14154     14158     14159     14156     14154     14158     14159
     14157     14154     14158     14159     14161     14160     14164     14165
     14162     14160     14164     14165     14163     14160     14164     14165
     14167     14166     14170     14171     14168     14166     14170     14171
     14169     14166     14170     14171     14173     14172     14176     14177
     14174     14172     14176     14177     14175     14172     14176     14177
     14179     14178     14182     14183     14180     14178     14182     14183
     14181     14178     14182     14183     14185     14184     14188     14189
     14186     14184     14188     14189     14187     14184     14188     14189
     14191     14190     14194     14195     14192     14190     14194     14195
     14193     14190     14194     14195     14197     14196     14200     14201
     14198     14196     14200     14201     14199     14196     14200     14201
     14203     14202     14206     14207     14204     14202     14206     14207
     14205     14202     14206     14207     14209     14208     14212     14213
     14210     14208     14212     14213     14211     14208     14212     14213
     14215     14214     14218     14219     14216     14214     14218     14219
     14217     14214     14218     14219     14221     14220     14224     14225
     14222     14220     14224     14225     14223     14220     14224     14225
     14227     14226     14230     14231     14228     14226     14230     14231
     14229     14226     14230     14231     14233     14232     14236     14237
     14234     14232     14236     14237     14235     14232     14236     14237
     14239     14238     14242     14243     14240     14238     14242     14243
     14241     14238     14242     14243     14245     14244     14248     14249
     14246     14244     14248     14249     14247     14244     14248     14249
     14251     14250     14254     14255     14252     14250     14254     14255
     14253     14250     14254     14255     14257     14256     14260     14261
     14258     14256     14260     14261     14259     14256     14260     14261
     14263     14262     14266     14267     14264     14262     14266     14267
     14265     14262     14266     14267     14269     14268     14272     14273
     14270     14268     14272     14273     14271     14268     14272     14273
     14275     14274     14278     14279     14276     14274     14278     14279
     14277     14274     14278     14279     14281     14280     14284     14285
     14282     14280     14284     14285     14283     14280     14284     14285
     14287     14286     14290     14291     14288     14286     14290     14291
     14289     14286     14290     14291     14293     14292     14296     14297
     14294     14292     14296     14297     14295     14292     14296     14297
     14299     14298     14302     14303     14300     14298     14302     14303
     14301     14298     14302     14303     14305     14304     14308     14309
     14306     14304     14308     14309     14307     14304     14308     14309
     14311     14310     14314     14315     14312     14310     14314     14315
     14313     14310     14314     14315     14317     14316     14320     14321
     14318     14316     14320     14321     14319     14316     14320     14321
     14323     14322     14326     14327     14324     14322     14326     14327
     14325     14322     14326     14327     14329     14328     14332     14333
     14330     14328     14332     14333     14331     14328     14332     14333
     14335     14334     14338     14339     14336     14334     14338     14339
     14337     14334     14338     14339     14341     14340     14344     14345
     14342     14340     14344     14345     14343     14340     14344     14345
     14347     14346     14350     14351     14348     14346     14350     14351
     14349     14346     14350     14351     14353     14352     14356     14357
     14354     14352     14356     14357     14355     14352     14356     14357
     14359     14358     14362     14363     14360     14358     14362     14363
     14361     14358     14362     14363     14365     14364     14368     14369
     14366     14364     14368     14369     14367     14364     14368     14369
     14371     14370     14374     14375     14372     14370     14374     14375
     14373     14370     14374     14375     14377     14376     14380     14381
     14378     14376     14380     14381     14379     14376     14380     14381
     14383     14382     14386     14387     14384     14382     14386     14387
     14385     14382     14386     14387     14389     14388     14392     14393
     14390     14388     14392     14393     14391     14388     14392     14393
     14395     14394     14398     14399     14396     14394     14398     14399
     14397     14394     14398     14399     14401     14400     14404     14405
     14402     14400     14404     14405     14403     14400     14404     14405
     14407     14406     14410     14411     14408     14406     14410     14411
     14409     14406     14410     14411     14413     14412     14416     14417
     14414     14412     14416     14417     14415     14412     14416     14417
     14419     14418     14422     14423     14420     14418     14422     14423
     14421     14418     14422     14423     14425     14424     14428     14429
     14426     14424     14428     14429     14427     14424     14428     14429
     14431     14430     14434     14435     14432     14430     14434     14435
     14433     14430     14434     14435     14437     14436     14440     14441
     14438     14436     14440     14441     14439     14436     14440     14441
     14443     14442     14446     14447     14444     14442     14446     14447
     14445     14442     14446     14447     14449     14448     14452     14453
     14450     14448     14452     14453     14451     14448     14452     14453
     14455     14454     14458     14459     14456     14454     14458     14459
     14457     14454     14458     14459     14461     14460     14464     14465
     14462     14460     14464     14465     14463     14460     14464     14465
     14467     14466     14470     14471     14468     14466     14470     14471
     14469     14466     14470     14471     14473     14472     14476     14477
     14474     14472     14476     14477     14475     14472     14476     14477
     14479     14478     14482     14483     14480     14478     14482     14483
     14481     14478     14482     14483     14485     14484     14488     14489
     14486     14484     14488     14489     14487     14484     14488     14489
     14491     14490     14494     14495     14492     14490     14494     14495
     14493     14490     14494     14495     14497     14496     14500     14501
     14498     14496     14500     14501     14499     14496     14500     14501
     14503     14502     14506     14507     14504     14502     14506     14507
     14505     14502     14506     14507     14509     14508     14512     14513
     14510     14508     14512     14513     14511     14508     14512     14513
     14515     14514     14518     14519     14516     14514     14518     14519
     14517     14514     14518     14519     14521     14520     14524     14525
     14522     14520     14524     14525     14523     14520     14524     14525
     14527     14526     14530     14531     14528     14526     14530     14531
     14529     14526     14530     14531     14533     14532     14536     14537
     14534     14532     14536     14537     14535     14532     14536     14537
     14539     14538     14542     14543     14540     14538     14542     14543
     14541     14538     14542     14543     14545     14544     14548     14549
     14546     14544     14548     14549     14547     14544     14548     14549
     14551     14550     14554     14555     14552     14550     14554     14555
     14553     14550     14554     14555     14557     14556     14560     14561
     14558     14556     14560     14561     14559     14556     14560     14561
     14563     14562     14566     14567     14564     14562     14566     14567
     14565     14562     14566     14567     14569     14568     14572     14573
     14570     14568     14572     14573     14571     14568     14572     14573
     14575     14574     14578     14579     14576     14574     14578     14579
     14577     14574     14578     14579     14581     14580     14584     14585
     14582     14580     14584     14585     14583     14580     14584     14585
     14587     14586     14590     14591     14588     14586     14590     14591
     14589     14586     14590     14591     14593     14592     14596     14597
     14594     14592     14596     14597     14595     14592     14596     14597
     14599     14598     14602     14603     14600     14598     14602     14603
     14601     14598     14602     14603     14605     14604     14608     14609
     14606     14604     14608     14609     14607     14604     14608     14609
     14611     14610     14614     14615     14612     14610     14614     14615
     14613     14610     14614     14615     14617     14616     14620     14621
     14618     14616     14620     14621     14619     14616     14620     14621
     14623     14622     14626     14627     14624     14622     14626     14627
     14625     14622     14626     14627     14629     14628     14632     14633
     14630     14628     14632     14633     14631     14628     14632     14633
     14635     14634     14638     14639     14636     14634     14638     14639
     14637     14634     14638     14639     14641     14640     14644     14645
     14642     14640     14644     14645     14643     14640     14644     14645
     14647     14646     14650     14651     14648     14646     14650     14651
     14649     14646     14650     14651     14653     14652     14656     14657
     14654     14652     14656     14657     14655     14652     14656     14657
     14659     14658     14662     14663     14660     14658     14662     14663
     14661     14658     14662     14663     14665     14664     14668     14669
     14666     14664     14668     14669     14667     14664     14668     14669
     14671     14670     14674     14675     14672     14670     14674     14675
     14673     14670     14674     14675     14677     14676     14680     14681
     14678     14676     14680     14681     14679     14676     14680     14681
     14683     14682     14686     14687     14684     14682     14686     14687
     14685     14682     14686     14687     14689     14688     14692     14693
     14690     14688     14692     14693     14691     14688     14692     14693
     14695     14694     14698     14699     14696     14694     14698     14699
     14697     14694     14698     14699     14701     14700     14704     14705
     14702     14700     14704     14705     14703     14700     14704     14705
     14707     14706     14710     14711     14708     14706     14710     14711
     14709     14706     14710     14711     14713     14712     14716     14717
     14714     14712     14716     14717     14715     14712     14716     14717
     14719     14718     14722     14723     14720     14718     14722     14723
     14721     14718     14722     14723     14725     14724     14728     14729
     14726     14724     14728     14729     14727     14724     14728     14729
     14731     14730     14734     14735     14732     14730     14734     14735
     14733     14730     14734     14735     14737     14736     14740     14741
     14738     14736     14740     14741     14739     14736     14740     14741
     14743     14742     14746     14747     14744     14742     14746     14747
     14745     14742     14746     14747     14749     14748     14752     14753
     14750     14748     14752     14753     14751     14748     14752     14753
     14755     14754     14758     14759     14756     14754     14758     14759
     14757     14754     14758     14759     14761     14760     14764     14765
     14762     14760     14764     14765     14763     14760     14764     14765
     14767     14766     14770     14771     14768     14766     14770     14771
     14769     14766     14770     14771     14773     14772     14776     14777
     14774     14772     14776     14777     14775     14772     14776     14777
     14779     14778     14782     14783     14780     14778     14782     14783
     14781     14778     14782     14783     14785     14784     14788     14789
     14786     14784     14788     14789     14787     14784     14788     14789
     14791     14790     14794     14795     14792     14790     14794     14795
     14793     14790     14794     14795     14797     14796     14800     14801
     14798     14796     14800     14801     14799     14796     14800     14801
     14803     14802     14806     14807     14804     14802     14806     14807
     14805     14802     14806     14807     14809     14808     14812     14813
     14810     14808     14812     14813     14811     14808     14812     14813
     14815     14814     14818     14819     14816     14814     14818     14819
     14817     14814     14818     14819     14821     14820     14824     14825
     14822     14820     14824     14825     14823     14820     14824     14825
     14827     14826     14830     14831     14828     14826     14830     14831
     14829     14826     14830     14831     14833     14832     14836     14837
     14834     14832     14836     14837     14835     14832     14836     14837
     14839     14838     14842     14843     14840     14838     14842     14843
     14841     14838     14842     14843     14845     14844     14848     14849
     14846     14844     14848     14849     14847     14844     14848     14849
     14851     14850     14854     14855     14852     14850     14854     14855
     14853     14850     14854     14855     14857     14856     14860     14861
     14858     14856     14860     14861     14859     14856     14860     14861
     14863     14862     14866     14867     14864     14862     14866     14867
     14865     14862     14866     14867     14869     14868     14872     14873
     14870     14868     14872     14873     14871     14868     14872     14873
     14875     14874     14878     14879     14876     14874     14878     14879
     14877     14874     14878     14879     14881     14880     14884     14885
     14882     14880     14884     14885     14883     14880     14884     14885
     14887     14886     14890     14891     14888     14886     14890     14891
     14889     14886     14890     14891     14893     14892     14896     14897
     14894     14892     14896     14897     14895     14892     14896     14897
     14899     14898     14902     14903     14900     14898     14902     14903
     14901     14898     14902     14903     14905     14904     14908     14909
     14906     14904     14908     14909     14907     14904     14908     14909
     14911     14910     14914     14915     14912     14910     14914     14915
     14913     14910     14914     14915     14917     14916     14920     14921
     14918     14916     14920     14921     14919     14916     14920     14921
     14923     14922     14926     14927     14924     14922     14926     14927
     14925     14922     14926     14927     14929     14928     14932     14933
     14930     14928     14932     14933     14931     14928     14932     14933
     14935     14934     14938     14939     14936     14934     14938     14939
     14937     14934     14938     14939     14941     14940     14944     14945
     14942     14940     14944     14945     14943     14940     14944     14945
     14947     14946     14950     14951     14948     14946     14950     14951
     14949     14946     14950     14951     14953     14952     14956     14957
     14954     14952     14956     14957     14955     14952     14956     14957
     14959     14958     14962     14963     14960     14958     14962     14963
     14961     14958     14962     14963     14965     14964     14968     14969
     14966     14964     14968     14969     14967     14964     14968     14969
     14971     14970     14974     14975     14972     14970     14974     14975
     14973     14970     14974     14975     14977     14976     14980     14981
     14978     14976     14980     14981     14979     14976     14980     14981
     14983     14982     14986     14987     14984     14982     14986     14987
     14985     14982     14986     14987     14989     14988     14992     14993
     14990     14988     14992     14993     14991     14988     14992     14993
     14995     14994     14998     14999     14996     14994     14998     14999
     14997     14994     14998     14999     15001     15000     15004     15005
     15002     15000     15004     15005     15003     15000     15004     15005
     15007     15006     15010     15011     15008     15006     15010     15011
     15009     15006     15010     15011     15013     15012     15016     15017
     15014     15012     15016     15017     15015     15012     15016     15017
     15019     15018     15022     15023     15020     15018     15022     15023
     15021     15018     15022     15023     15025     15024     15028     15029
     15026     15024     15028     15029     15027     15024     15028     15029
     15031     15030     15034     15035     15032     15030     15034     15035
     15033     15030     15034     15035     15037     15036     15040     15041
     15038     15036     15040     15041     15039     15036     15040     15041
     15043     15042     15046     15047     15044     15042     15046     15047
     15045     15042     15046     15047     15049     15048     15052     15053
     15050     15048     15052     15053     15051     15048     15052     15053
     15055     15054     15058     15059     15056     15054     15058     15059
     15057     15054     15058     15059     15061     15060     15064     15065
     15062     15060     15064     15065     15063     15060     15064     15065
     15067     15066     15070     15071     15068     15066     15070     15071
     15069     15066     15070     15071     15073     15072     15076     15077
     15074     15072     15076     15077     15075     15072     15076     15077
     15079     15078     15082     15083     15080     15078     15082     15083
     15081     15078     15082     15083     15085     15084     15088     15089
     15086     15084     15088     15089     15087     15084     15088     15089
     15091     15090     15094     15095     15092     15090     15094     15095
     15093     15090     15094     15095     15097     15096     15100     15101
     15098     15096     15100     15101     15099     15096     15100     15101
     15103     15102     15106     15107     15104     15102     15106     15107
     15105     15102     15106     15107     15109     15108     15112     15113
     15110     15108     15112     15113     15111     15108     15112     15113
     15115     15114     15118     15119     15116     15114     15118     15119
     15117     15114     15118     15119     15121     15120     15124     15125
     15122     15120     15124     15125     15123     15120     15124     15125
     15127     15126     15130     15131     15128     15126     15130     15131
     15129     15126     15130     15131     15133     15132     15136     15137
     15134     15132     15136     15137     15135     15132     15136     15137
     15139     15138     15142     15143     15140     15138     15142     15143
     15141     15138     15142     15143     15145     15144     15148     15149
     15146     15144     15148     15149     15147     15144     15148     15149
     15151     15150     15154     15155     15152     15150     15154     15155
     15153     15150     15154     15155     15157     15156     15160     15161
     15158     15156     15160     15161     15159     15156     15160     15161
     15163     15162     15166     15167     15164     15162     15166     15167
     15165     15162     15166     15167     15169     15168     15172     15173
     15170     15168     15172     15173     15171     15168     15172     15173
     15175     15174     15178     15179     15176     15174     15178     15179
     15177     15174     15178     15179     15181     15180     15184     15185
     15182     15180     15184     15185     15183     15180     15184     15185
     15187     15186     15190     15191     15188     15186     15190     15191
     15189     15186     15190     15191     15193     15192     15196     15197
     15194     15192     15196     15197     15195     15192     15196     15197
     15199     15198     15202     15203     15200     15198     15202     15203
     15201     15198     15202     15203     15205     15204     15208     15209
     15206     15204     15208     15209     15207     15204     15208     15209
     15211     15210     15214     15215     15212     15210     15214     15215
     15213     15210     15214     15215     15217     15216     15220     15221
     15218     15216     15220     15221     15219     15216     15220     15221
     15223     15222     15226     15227     15224     15222     15226     15227
     15225     15222     15226     15227     15229     15228     15232     15233
     15230     15228     15232     15233     15231     15228     15232     15233
     15235     15234     15238     15239     15236     15234     15238     15239
     15237     15234     15238     15239     15241     15240     15244     15245
     15242     15240     15244     15245     15243     15240     15244     15245
     15247     15246     15250     15251     15248     15246     15250     15251
     15249     15246     15250     15251     15253     15252     15256     15257
     15254     15252     15256     15257     15255     15252     15256     15257
     15259     15258     15262     15263     15260     15258     15262     15263
     15261     15258     15262     15263     15265     15264     15268     15269
     15266     15264     15268     15269     15267     15264     15268     15269
     15271     15270     15274     15275     15272     15270     15274     15275
     15273     15270     15274     15275     15277     15276     15280     15281
     15278     15276     15280     15281     15279     15276     15280     15281
     15283     15282     15286     15287     15284     15282     15286     15287
     15285     15282     15286     15287     15289     15288     15292     15293
     15290     15288     15292     15293     15291     15288     15292     15293
     15295     15294     15298     15299     15296     15294     15298     15299
     15297     15294     15298     15299     15301     15300     15304     15305
     15302     15300     15304     15305     15303     15300     15304     15305
     15307     15306     15310     15311     15308     15306     15310     15311
     15309     15306     15310     15311     15313     15312     15316     15317
     15314     15312     15316     15317     15315     15312     15316     15317
     15319     15318     15322     15323     15320     15318     15322     15323
     15321     15318     15322     15323     15325     15324     15328     15329
     15326     15324     15328     15329     15327     15324     15328     15329
     15331     15330     15334     15335     15332     15330     15334     15335
     15333     15330     15334     15335     15337     15336     15340     15341
     15338     15336     15340     15341     15339     15336     15340     15341
     15343     15342     15346     15347     15344     15342     15346     15347
     15345     15342     15346     15347     15349     15348     15352     15353
     15350     15348     15352     15353     15351     15348     15352     15353
     15355     15354     15358     15359     15356     15354     15358     15359
     15357     15354     15358     15359     15361     15360     15364     15365
     15362     15360     15364     15365     15363     15360     15364     15365
     15367     15366     15370     15371     15368     15366     15370     15371
     15369     15366     15370     15371     15373     15372     15376     15377
     15374     15372     15376     15377     15375     15372     15376     15377
     15379     15378     15382     15383     15380     15378     15382     15383
     15381     15378     15382     15383     15385     15384     15388     15389
     15386     15384     15388     15389     15387     15384     15388     15389
     15391     15390     15394     15395     15392     15390     15394     15395
     15393     15390     15394     15395     15397     15396     15400     15401
     15398     15396     15400     15401     15399     15396     15400     15401
     15403     15402     15406     15407     15404     15402     15406     15407
     15405     15402     15406     15407     15409     15408     15412     15413
     15410     15408     15412     15413     15411     15408     15412     15413
     15415     15414     15418     15419     15416     15414     15418     15419
     15417     15414     15418     15419     15421     15420     15424     15425
     15422     15420     15424     15425     15423     15420     15424     15425
     15427     15426     15430     15431     15428     15426     15430     15431
     15429     15426     15430     15431     15433     15432     15436     15437
     15434     15432     15436     15437     15435     15432     15436     15437
     15439     15438     15442     15443     15440     15438     15442     15443
     15441     15438     15442     15443     15445     15444     15448     15449
     15446     15444     15448     15449     15447     15444     15448     15449
     15451     15450     15454     15455     15452     15450     15454     15455
     15453     15450     15454     15455     15457     15456     15460     15461
     15458     15456     15460     15461     15459     15456     15460     15461
     15463     15462     15466     15467     15464     15462     15466     15467
     15465     15462     15466     15467     15469     15468     15472     15473
     15470     15468     15472     15473     15471     15468     15472     15473
     15475     15474     15478     15479     15476     15474     15478     15479
     15477     15474     15478     15479     15481     15480     15484     15485
     15482     15480     15484     15485     15483     15480     15484     15485
     15487     15486     15490     15491     15488     15486     15490     15491
     15489     15486     15490     15491     15493     15492     15496     15497
     15494     15492     15496     15497     15495     15492     15496     15497
     15499     15498     15502     15503     15500     15498     15502     15503
     15501     15498     15502     15503     15505     15504     15508     15509
     15506     15504     15508     15509     15507     15504     15508     15509
     15511     15510     15514     15515     15512     15510     15514     15515
     15513     15510     15514     15515     15517     15516     15520     15521
     15518     15516     15520     15521     15519     15516     15520     15521
     15523     15522     15526     15527     15524     15522     15526     15527
     15525     15522     15526     15527     15529     15528     15532     15533
     15530     15528     15532     15533     15531     15528     15532     15533
     15535     15534     15538     15539     15536     15534     15538     15539
     15537     15534     15538     15539     15541     15540     15544     15545
     15542     15540     15544     15545     15543     15540     15544     15545
     15547     15546     15550     15551     15548     15546     15550     15551
     15549     15546     15550     15551     15553     15552     15556     15557
     15554     15552     15556     15557     15555     15552     15556     15557
     15559     15558     15562     15563     15560     15558     15562     15563
     15561     15558     15562     15563     15565     15564     15568     15569
     15566     15564     15568     15569     15567     15564     15568     15569
     15571     15570     15574     15575     15572     15570     15574     15575
     15573     15570     15574     15575     15577     15576     15580     15581
     15578     15576     15580     15581     15579     15576     15580     15581
     15583     15582     15586     15587     15584     15582     15586     15587
     15585     15582     15586     15587     15589     15588     15592     15593
     15590     15588     15592     15593     15591     15588     15592     15593
     15595     15594     15598     15599     15596     15594     15598     15599
     15597     15594     15598     15599     15601     15600     15604     15605
     15602     15600     15604     15605     15603     15600     15604     15605
     15607     15606     15610     15611     15608     15606     15610     15611
     15609     15606     15610     15611     15613     15612     15616     15617
     15614     15612     15616     15617     15615     15612     15616     15617
     15619     15618     15622     15623     15620     15618     15622     15623
     15621     15618     15622     15623     15625     15624     15628     15629
     15626     15624     15628     15629     15627     15624     15628     15629
     15631     15630     15634     15635     15632     15630     15634     15635
     15633     15630     15634     15635     15637     15636     15640     15641
     15638     15636     15640     15641     15639     15636     15640     15641
     15643     15642     15646     15647     15644     15642     15646     15647
     15645     15642     15646     15647     15649     15648     15652     15653
     15650     15648     15652     15653     15651     15648     15652     15653
     15655     15654     15658     15659     15656     15654     15658     15659
     15657     15654     15658     15659     15661     15660     15664     15665
     15662     15660     15664     15665     15663     15660     15664     15665
     15667     15666     15670     15671     15668     15666     15670     15671
     15669     15666     15670     15671     15673     15672     15676     15677
     15674     15672     15676     15677     15675     15672     15676     15677
     15679     15678     15682     15683     15680     15678     15682     15683
     15681     15678     15682     15683     15685     15684     15688     15689
     15686     15684     15688     15689     15687     15684     15688     15689
     15691     15690     15694     15695     15692     15690     15694     15695
     15693     15690     15694     15695     15697     15696     15700     15701
     15698     15696     15700     15701     15699     15696     15700     15701
     15703     15702     15706     15707     15704     15702     15706     15707
     15705     15702     15706     15707     15709     15708     15712     15713
     15710     15708     15712     15713     15711     15708     15712     15713
     15715     15714     15718     15719     15716     15714     15718     15719
     15717     15714     15718     15719     15721     15720     15724     15725
     15722     15720     15724     15725     15723     15720     15724     15725
     15727     15726     15730     15731     15728     15726     15730     15731
     15729     15726     15730     15731     15733     15732     15736     15737
     15734     15732     15736     15737     15735     15732     15736     15737
     15739     15738     15742     15743     15740     15738     15742     15743
     15741     15738     15742     15743     15745     15744     15748     15749
     15746     15744     15748     15749     15747     15744     15748     15749
     15751     15750     15754     15755     15752     15750     15754     15755
     15753     15750     15754     15755     15757     15756     15760     15761
     15758     15756     15760     15761     15759     15756     15760     15761
     15763     15762     15766     15767     15764     15762     15766     15767
     15765     15762     15766     15767     15769     15768     15772     15773
     15770     15768     15772     15773     15771     15768     15772     15773
     15775     15774     15778     15779     15776     15774     15778     15779
     15777     15774     15778     15779     15781     15780     15784     15785
     15782     15780     15784     15785     15783     15780     15784     15785
     15787     15786     15790     15791     15788     15786     15790     15791
     15789     15786     15790     15791     15793     15792     15796     15797
     15794     15792     15796     15797     15795     15792     15796     15797
     15799     15798     15802     15803     15800     15798     15802     15803
     15801     15798     15802     15803     15805     15804     15808     15809
     15806     15804     15808     15809     15807     15804     15808     15809
     15811     15810     15814     15815     15812     15810     15814     15815
     15813     15810     15814     15815     15817     15816     15820     15821
     15818     15816     15820     15821     15819     15816     15820     15821
     15823     15822     15826     15827     15824     15822     15826     15827
     15825     15822     15826     15827     15829     15828     15832     15833
     15830     15828     15832     15833     15831     15828     15832     15833
     15835     15834     15838     15839     15836     15834     15838     15839
     15837     15834     15838     15839     15841     15840     15844     15845
     15842     15840     15844     15845     15843     15840     15844     15845
     15847     15846     15850     15851     15848     15846     15850     15851
     15849     15846     15850     15851     15853     15852     15856     15857
     15854     15852     15856     15857     15855     15852     15856     15857
     15859     15858     15862     15863     15860     15858     15862     15863
     15861     15858     15862     15863     15865     15864     15868     15869
     15866     15864     15868     15869     15867     15864     15868     15869
     15871     15870     15874     15875     15872     15870     15874     15875
     15873     15870     15874     15875     15877     15876     15880     15881
     15878     15876     15880     15881     15879     15876     15880     15881
     15883     15882     15886     15887     15884     15882     15886     15887
     15885     15882     15886     15887     15889     15888     15892     15893
     15890     15888     15892     15893     15891     15888     15892     15893
     15895     15894     15898     15899     15896     15894     15898     15899
     15897     15894     15898     15899     15901     15900     15904     15905
     15902     15900     15904     15905     15903     15900     15904     15905
     15907     15906     15910     15911     15908     15906     15910     15911
     15909     15906     15910     15911     15913     15912     15916     15917
     15914     15912     15916     15917     15915     15912     15916     15917
     15919     15918     15922     15923     15920     15918     15922     15923
     15921     15918     15922     15923     15925     15924     15928     15929
     15926     15924     15928     15929     15927     15924     15928     15929
     15931     15930     15934     15935     15932     15930     15934     15935
     15933     15930     15934     15935     15937     15936     15940     15941
     15938     15936     15940     15941     15939     15936     15940     15941
     15943     15942     15946     15947     15944     15942     15946     15947
     15945     15942     15946     15947     15949     15948     15952     15953
     15950     15948     15952     15953     15951     15948     15952     15953
     15955     15954     15958     15959     15956     15954     15958     15959
     15957     15954     15958     15959     15961     15960     15964     15965
     15962     15960     15964     15965     15963     15960     15964     15965
     15967     15966     15970     15971     15968     15966     15970     15971
     15969     15966     15970     15971     15973     15972     15976     15977
     15974     15972     15976     15977     15975     15972     15976     15977
     15979     15978     15982     15983     15980     15978     15982     15983
     15981     15978     15982     15983     15985     15984     15988     15989
     15986     15984     15988     15989     15987     15984     15988     15989
     15991     15990     15994     15995     15992     15990     15994     15995
     15993     15990     15994     15995     15997     15996     16000     16001
     15998     15996     16000     16001     15999     15996     16000     16001
     16003     16002     16006     16007     16004     16002     16006     16007
     16005     16002     16006     16007     16009     16008     16012     16013
     16010     16008     16012     16013     16011     16008     16012     16013
     16015     16014     16018     16019     16016     16014     16018     16019
     16017     16014     16018     16019     16021     16020     16024     16025
     16022     16020     16024     16025     16023     16020     16024     16025
     16027     16026     16030     16031     16028     16026     16030     16031
     16029     16026     16030     16031     16033     16032     16036     16037
     16034     16032     16036     16037     16035     16032     16036     16037
     16039     16038     16042     16043     16040     16038     16042     16043
     16041     16038     16042     16043     16045     16044     16048     16049
     16046     16044     16048     16049     16047     16044     16048     16049
     16051     16050     16054     16055     16052     16050     16054     16055
     16053     16050     16054     16055     16057     16056     16060     16061
     16058     16056     16060     16061     16059     16056     16060     16061
     16063     16062     16066     16067     16064     16062     16066     16067
     16065     16062     16066     16067     16069     16068     16072     16073
     16070     16068     16072     16073     16071     16068     16072     16073
     16075     16074     16078     16079     16076     16074     16078     16079
     16077     16074     16078     16079     16081     16080     16084     16085
     16082     16080     16084     16085     16083     16080     16084     16085
     16087     16086     16090     16091     16088     16086     16090     16091
     16089     16086     16090     16091     16093     16092     16096     16097
     16094     16092     16096     16097     16095     16092     16096     16097
     16099     16098     16102     16103     16100     16098     16102     16103
     16101     16098     16102     16103     16105     16104     16108     16109
     16106     16104     16108     16109     16107     16104     16108     16109
     16111     16110     16114     16115     16112     16110     16114     16115
     16113     16110     16114     16115     16117     16116     16120     16121
     16118     16116     16120     16121     16119     16116     16120     16121
     16123     16122     16126     16127     16124     16122     16126     16127
     16125     16122     16126     16127     16129     16128     16132     16133
     16130     16128     16132     16133     16131     16128     16132     16133
     16135     16134     16138     16139     16136     16134     16138     16139
     16137     16134     16138     16139     16141     16140     16144     16145
     16142     16140     16144     16145     16143     16140     16144     16145
     16147     16146     16150     16151     16148     16146     16150     16151
     16149     16146     16150     16151     16153     16152     16156     16157
     16154     16152     16156     16157     16155     16152     16156     16157
     16159     16158     16162     16163     16160     16158     16162     16163
     16161     16158     16162     16163     16165     16164     16168     16169
     16166     16164     16168     16169     16167     16164     16168     16169
     16171     16170     16174     16175     16172     16170     16174     16175
     16173     16170     16174     16175     16177     16176     16180     16181
     16178     16176     16180     16181     16179     16176     16180     16181
     16183     16182     16186     16187     16184     16182     16186     16187
     16185     16182     16186     16187     16189     16188     16192     16193
     16190     16188     16192     16193     16191     16188     16192     16193
     16195     16194     16198     16199     16196     16194     16198     16199
     16197     16194     16198     16199     16201     16200     16204     16205
     16202     16200     16204     16205     16203     16200     16204     16205
     16207     16206     16210     16211     16208     16206     16210     16211
     16209     16206     16210     16211     16213     16212     16216     16217
     16214     16212     16216     16217     16215     16212     16216     16217
     16219     16218     16222     16223     16220     16218     16222     16223
     16221     16218     16222     16223     16225     16224     16228     16229
     16226     16224     16228     16229     16227     16224     16228     16229
     16231     16230     16234     16235     16232     16230     16234     16235
     16233     16230     16234     16235     16237     16236     16240     16241
     16238     16236     16240     16241     16239     16236     16240     16241
     16243     16242     16246     16247     16244     16242     16246     16247
     16245     16242     16246     16247     16249     16248     16252     16253
     16250     16248     16252     16253     16251     16248     16252     16253
     16255     16254     16258     16259     16256     16254     16258     16259
     16257     16254     16258     16259     16261     16260     16264     16265
     16262     16260     16264     16265     16263     16260     16264     16265
     16267     16266     16270     16271     16268     16266     16270     16271
     16269     16266     16270     16271     16273     16272     16276     16277
     16274     16272     16276     16277     16275     16272     16276     16277
     16279     16278     16282     16283     16280     16278     16282     16283
     16281     16278     16282     16283     16285     16284     16288     16289
     16286     16284     16288     16289     16287     16284     16288     16289
     16291     16290     16294     16295     16292     16290     16294     16295
     16293     16290     16294     16295     16297     16296     16300     16301
     16298     16296     16300     16301     16299     16296     16300     16301
     16303     16302     16306     16307     16304     16302     16306     16307
     16305     16302     16306     16307     16309     16308     16312     16313
     16310     16308     16312     16313     16311     16308     16312     16313
     16315     16314     16318     16319     16316     16314     16318     16319
     16317     16314     16318     16319     16321     16320     16324     16325
     16322     16320     16324     16325     16323     16320     16324     16325
     16327     16326     16330     16331     16328     16326     16330     16331
     16329     16326     16330     16331     16333     16332     16336     16337
     16334     16332     16336     16337     16335     16332     16336     16337
     16339     16338     16342     16343     16340     16338     16342     16343
     16341     16338     16342     16343     16345     16344     16348     16349
     16346     16344     16348     16349     16347     16344     16348     16349
     16351     16350     16354     16355     16352     16350     16354     16355
     16353     16350     16354     16355     16357     16356     16360     16361
     16358     16356     16360     16361     16359     16356     16360     16361
     16363     16362     16366     16367     16364     16362     16366     16367
     16365     16362     16366     16367     16369     16368     16372     16373
     16370     16368     16372     16373     16371     16368     16372     16373
     16375     16374     16378     16379     16376     16374     16378     16379
     16377     16374     16378     16379     16381     16380     16384     16385
     16382     16380     16384     16385     16383     16380     16384     16385
     16387     16386     16390     16391     16388     16386     16390     16391
     16389     16386     16390     16391     16393     16392     16396     16397
     16394     16392     16396     16397     16395     16392     16396     16397
     16399     16398     16402     16403     16400     16398     16402     16403
     16401     16398     16402     16403     16405     16404     16408     16409
     16406     16404     16408     16409     16407     16404     16408     16409
     16411     16410     16414     16415     16412     16410     16414     16415
     16413     16410     16414     16415     16417     16416     16420     16421
     16418     16416     16420     16421     16419     16416     16420     16421
     16423     16422     16426     16427     16424     16422     16426     16427
     16425     16422     16426     16427     16429     16428     16432     16433
     16430     16428     16432     16433     16431     16428     16432     16433
     16435     16434     16438     16439     16436     16434     16438     16439
     16437     16434     16438     16439     16441     16440     16444     16445
     16442     16440     16444     16445     16443     16440     16444     16445
     16447     16446     16450     16451     16448     16446     16450     16451
     16449     16446     16450     16451     16453     16452     16456     16457
     16454     16452     16456     16457     16455     16452     16456     16457
     16459     16458     16462     16463     16460     16458     16462     16463
     16461     16458     16462     16463     16465     16464     16468     16469
     16466     16464     16468     16469     16467     16464     16468     16469
     16471     16470     16474     16475     16472     16470     16474     16475
     16473     16470     16474     16475     16477     16476     16480     16481
     16478     16476     16480     16481     16479     16476     16480     16481
     16483     16482     16486     16487     16484     16482     16486     16487
     16485     16482     16486     16487     16489     16488     16492     16493
     16490     16488     16492     16493     16491     16488     16492     16493
     16495     16494     16498     16499     16496     16494     16498     16499
     16497     16494     16498     16499     16501     16500     16504     16505
     16502     16500     16504     16505     16503     16500     16504     16505
     16507     16506     16510     16511     16508     16506     16510     16511
     16509     16506     16510     16511     16513     16512     16516     16517
     16514     16512     16516     16517     16515     16512     16516     16517
     16519     16518     16522     16523     16520     16518     16522     16523
     16521     16518     16522     16523     16525     16524     16528     16529
     16526     16524     16528     16529     16527     16524     16528     16529
     16531     16530     16534     16535     16532     16530     16534     16535
     16533     16530     16534     16535     16537     16536     16540     16541
     16538     16536     16540     16541     16539     16536     16540     16541
     16543     16542     16546     16547     16544     16542     16546     16547
     16545     16542     16546     16547     16549     16548     16552     16553
     16550     16548     16552     16553     16551     16548     16552     16553
     16555     16554     16558     16559     16556     16554     16558     16559
     16557     16554     16558     16559     16561     16560     16564     16565
     16562     16560     16564     16565     16563     16560     16564     16565
     16567     16566     16570     16571     16568     16566     16570     16571
     16569     16566     16570     16571     16573     16572     16576     16577
     16574     16572     16576     16577     16575     16572     16576     16577
     16579     16578     16582     16583     16580     16578     16582     16583
     16581     16578     16582     16583     16585     16584     16588     16589
     16586     16584     16588     16589     16587     16584     16588     16589
     16591     16590     16594     16595     16592     16590     16594     16595
     16593     16590     16594     16595     16597     16596     16600     16601
     16598     16596     16600     16601     16599     16596     16600     16601
     16603     16602     16606     16607     16604     16602     16606     16607
     16605     16602     16606     16607     16609     16608     16612     16613
     16610     16608     16612     16613     16611     16608     16612     16613
     16615     16614     16618     16619     16616     16614     16618     16619
     16617     16614     16618     16619     16621     16620     16624     16625
     16622     16620     16624     16625     16623     16620     16624     16625
     16627     16626     16630     16631     16628     16626     16630     16631
     16629     16626     16630     16631     16633     16632     16636     16637
     16634     16632     16636     16637     16635     16632     16636     16637
     16639     16638     16642     16643     16640     16638     16642     16643
     16641     16638     16642     16643     16645     16644     16648     16649
     16646     16644     16648     16649     16647     16644     16648     16649
     16651     16650     16654     16655     16652     16650     16654     16655
     16653     16650     16654     16655     16657     16656     16660     16661
     16658     16656     16660     16661     16659     16656     16660     16661
     16663     16662     16666     16667     16664     16662     16666     16667
     16665     16662     16666     16667     16669     16668     16672     16673
     16670     16668     16672     16673     16671     16668     16672     16673
     16675     16674     16678     16679     16676     16674     16678     16679
     16677     16674     16678     16679     16681     16680     16684     16685
     16682     16680     16684     16685     16683     16680     16684     16685
     16687     16686     16690     16691     16688     16686     16690     16691
     16689     16686     16690     16691     16693     16692     16696     16697
     16694     16692     16696     16697     16695     16692     16696     16697
     16699     16698     16702     16703     16700     16698     16702     16703
     16701     16698     16702     16703     16705     16704     16708     16709
     16706     16704     16708     16709     16707     16704     16708     16709
     16711     16710     16714     16715     16712     16710     16714     16715
     16713     16710     16714     16715     16717     16716     16720     16721
     16718     16716     16720     16721     16719     16716     16720     16721
     16723     16722     16726     16727     16724     16722     16726     16727
     16725     16722     16726     16727     16729     16728     16732     16733
     16730     16728     16732     16733     16731     16728     16732     16733
     16735     16734     16738     16739     16736     16734     16738     16739
     16737     16734     16738     16739     16741     16740     16744     16745
     16742     16740     16744     16745     16743     16740     16744     16745
     16747     16746     16750     16751     16748     16746     16750     16751
     16749     16746     16750     16751     16753     16752     16756     16757
     16754     16752     16756     16757     16755     16752     16756     16757
     16759     16758     16762     16763     16760     16758     16762     16763
     16761     16758     16762     16763     16765     16764     16768     16769
     16766     16764     16768     16769     16767     16764     16768     16769
     16771     16770     16774     16775     16772     16770     16774     16775
     16773     16770     16774     16775     16777     16776     16780     16781
     16778     16776     16780     16781     16779     16776     16780     16781
     16783     16782     16786     16787     16784     16782     16786     16787
     16785     16782     16786     16787     16789     16788     16792     16793
     16790     16788     16792     16793     16791     16788     16792     16793
     16795     16794     16798     16799     16796     16794     16798     16799
     16797     16794     16798     16799     16801     16800     16804     16805
     16802     16800     16804     16805     16803     16800     16804     16805
     16807     16806     16810     16811     16808     16806     16810     16811
     16809     16806     16810     16811     16813     16812     16816     16817
     16814     16812     16816     16817     16815     16812     16816     16817
     16819     16818     16822     16823     16820     16818     16822     16823
     16821     16818     16822     16823     16825     16824     16828     16829
     16826     16824     16828     16829     16827     16824     16828     16829
     16831     16830     16834     16835     16832     16830     16834     16835
     16833     16830     16834     16835     16837     16836     16840     16841
     16838     16836     16840     16841     16839     16836     16840     16841
     16843     16842     16846     16847     16844     16842     16846     16847
     16845     16842     16846     16847     16849     16848     16852     16853
     16850     16848     16852     16853     16851     16848     16852     16853
     16855     16854     16858     16859     16856     16854     16858     16859
     16857     16854     16858     16859     16861     16860     16864     16865
     16862     16860     16864     16865     16863     16860     16864     16865
     16867     16866     16870     16871     16868     16866     16870     16871
     16869     16866     16870     16871     16873     16872     16876     16877
     16874     16872     16876     16877     16875     16872     16876     16877
     16879     16878     16882     16883     16880     16878     16882     16883
     16881     16878     16882     16883     16885     16884     16888     16889
     16886     16884     16888     16889     16887     16884     16888     16889
     16891     16890     16894     16895     16892     16890     16894     16895
     16893     16890     16894     16895     16897     16896     16900     16901
     16898     16896     16900     16901     16899     16896     16900     16901
     16903     16902     16906     16907     16904     16902     16906     16907
     16905     16902     16906     16907     16909     16908     16912     16913
     16910     16908     16912     16913     16911     16908     16912     16913
     16915     16914     16918     16919     16916     16914     16918     16919
     16917     16914     16918     16919     16921     16920     16924     16925
     16922     16920     16924     16925     16923     16920     16924     16925
     16927     16926     16930     16931     16928     16926     16930     16931
     16929     16926     16930     16931     16933     16932     16936     16937
     16934     16932     16936     16937     16935     16932     16936     16937
     16939     16938     16942     16943     16940     16938     16942     16943
     16941     16938     16942     16943     16945     16944     16948     16949
     16946     16944     16948     16949     16947     16944     16948     16949
     16951     16950     16954     16955     16952     16950     16954     16955
     16953     16950     16954     16955     16957     16956     16960     16961
     16958     16956     16960     16961     16959     16956     16960     16961
     16963     16962     16966     16967     16964     16962     16966     16967
     16965     16962     16966     16967     16969     16968     16972     16973
     16970     16968     16972     16973     16971     16968     16972     16973
     16975     16974     16978     16979     16976     16974     16978     16979
     16977     16974     16978     16979     16981     16980     16984     16985
     16982     16980     16984     16985     16983     16980     16984     16985
     16987     16986     16990     16991     16988     16986     16990     16991
     16989     16986     16990     16991     16993     16992     16996     16997
     16994     16992     16996     16997     16995     16992     16996     16997
     16999     16998     17002     17003     17000     16998     17002     17003
     17001     16998     17002     17003     17005     17004     17008     17009
     17006     17004     17008     17009     17007     17004     17008     17009
     17011     17010     17014     17015     17012     17010     17014     17015
     17013     17010     17014     17015     17017     17016     17020     17021
     17018     17016     17020     17021     17019     17016     17020     17021
     17023     17022     17026     17027     17024     17022     17026     17027
     17025     17022     17026     17027     17029     17028     17032     17033
     17030     17028     17032     17033     17031     17028     17032     17033
     17035     17034     17038     17039     17036     17034     17038     17039
     17037     17034     17038     17039     17041     17040     17044     17045
     17042     17040     17044     17045     17043     17040     17044     17045
     17047     17046     17050     17051     17048     17046     17050     17051
     17049     17046     17050     17051     17053     17052     17056     17057
     17054     17052     17056     17057     17055     17052     17056     17057
     17059     17058     17062     17063     17060     17058     17062     17063
     17061     17058     17062     17063     17065     17064     17068     17069
     17066     17064     17068     17069     17067     17064     17068     17069
     17071     17070     17074     17075     17072     17070     17074     17075
     17073     17070     17074     17075     17077     17076     17080     17081
     17078     17076     17080     17081     17079     17076     17080     17081
     17083     17082     17086     17087     17084     17082     17086     17087
     17085     17082     17086     17087     17089     17088     17092     17093
     17090     17088     17092     17093     17091     17088     17092     17093
     17095     17094     17098     17099     17096     17094     17098     17099
     17097     17094     17098     17099     17101     17100     17104     17105
     17102     17100     17104     17105     17103     17100     17104     17105
     17107     17106     17110     17111     17108     17106     17110     17111
     17109     17106     17110     17111     17113     17112     17116     17117
     17114     17112     17116     17117     17115     17112     17116     17117
     17119     17118     17122     17123     17120     17118     17122     17123
     17121     17118     17122     17123     17125     17124     17128     17129
     17126     17124     17128     17129     17127     17124     17128     17129
     17131     17130     17134     17135     17132     17130     17134     17135
     17133     17130     17134     17135     17137     17136     17140     17141
     17138     17136     17140     17141     17139     17136     17140     17141
     17143     17142     17146     17147     17144     17142     17146     17147
     17145     17142     17146     17147     17149     17148     17152     17153
     17150     17148     17152     17153     17151     17148     17152     17153
     17155     17154     17158     17159     17156     17154     17158     17159
     17157     17154     17158     17159     17161     17160     17164     17165
     17162     17160     17164     17165     17163     17160     17164     17165
     17167     17166     17170     17171     17168     17166     17170     17171
     17169     17166     17170     17171     17173     17172     17176     17177
     17174     17172     17176     17177     17175     17172     17176     17177
     17179     17178     17182     17183     17180     17178     17182     17183
     17181     17178     17182     17183     17185     17184     17188     17189
     17186     17184     17188     17189     17187     17184     17188     17189
     17191     17190     17194     17195     17192     17190     17194     17195
     17193     17190     17194     17195     17197     17196     17200     17201
     17198     17196     17200     17201     17199     17196     17200     17201
     17203     17202     17206     17207     17204     17202     17206     17207
     17205     17202     17206     17207     17209     17208     17212     17213
     17210     17208     17212     17213     17211     17208     17212     17213
     17215     17214     17218     17219     17216     17214     17218     17219
     17217     17214     17218     17219     17221     17220     17224     17225
     17222     17220     17224     17225     17223     17220     17224     17225
     17227     17226     17230     17231     17228     17226     17230     17231
     17229     17226     17230     17231     17233     17232     17236     17237
     17234     17232     17236     17237     17235     17232     17236     17237
     17239     17238     17242     17243     17240     17238     17242     17243
     17241     17238     17242     17243     17245     17244     17248     17249
     17246     17244     17248     17249     17247     17244     17248     17249
     17251     17250     17254     17255     17252     17250     17254     17255
     17253     17250     17254     17255     17257     17256     17260     17261
     17258     17256     17260     17261     17259     17256     17260     17261
     17263     17262     17266     17267     17264     17262     17266     17267
     17265     17262     17266     17267     17269     17268     17272     17273
     17270     17268     17272     17273     17271     17268     17272     17273
     17275     17274     17278     17279     17276     17274     17278     17279
     17277     17274     17278     17279     17281     17280     17284     17285
     17282     17280     17284     17285     17283     17280     17284     17285
     17287     17286     17290     17291     17288     17286     17290     17291
     17289     17286     17290     17291     17293     17292     17296     17297
     17294     17292     17296     17297     17295     17292     17296     17297
     17299     17298     17302     17303     17300     17298     17302     17303
     17301     17298     17302     17303     17305     17304     17308     17309
     17306     17304     17308     17309     17307     17304     17308     17309
     17311     17310     17314     17315     17312     17310     17314     17315
     17313     17310     17314     17315     17317     17316     17320     17321
     17318     17316     17320     17321     17319     17316     17320     17321
     17323     17322     17326     17327     17324     17322     17326     17327
     17325     17322     17326     17327     17329     17328     17332     17333
     17330     17328     17332     17333     17331     17328     17332     17333
     17335     17334     17338     17339     17336     17334     17338     17339
     17337     17334     17338     17339     17341     17340     17344     17345
     17342     17340     17344     17345     17343     17340     17344     17345
     17347     17346     17350     17351     17348     17346     17350     17351
     17349     17346     17350     17351     17353     17352     17356     17357
     17354     17352     17356     17357     17355     17352     17356     17357
     17359     17358     17362     17363     17360     17358     17362     17363
     17361     17358     17362     17363     17365     17364     17368     17369
     17366     17364     17368     17369     17367     17364     17368     17369
     17371     17370     17374     17375     17372     17370     17374     17375
     17373     17370     17374     17375     17377     17376     17380     17381
     17378     17376     17380     17381     17379     17376     17380     17381
     17383     17382     17386     17387     17384     17382     17386     17387
     17385     17382     17386     17387     17389     17388     17392     17393
     17390     17388     17392     17393     17391     17388     17392     17393
     17395     17394     17398     17399     17396     17394     17398     17399
     17397     17394     17398     17399     17401     17400     17404     17405
     17402     17400     17404     17405     17403     17400     17404     17405
     17407     17406     17410     17411     17408     17406     17410     17411
     17409     17406     17410     17411     17413     17412     17416     17417
     17414     17412     17416     17417     17415     17412     17416     17417
     17419     17418     17422     17423     17420     17418     17422     17423
     17421     17418     17422     17423     17425     17424     17428     17429
     17426     17424     17428     17429     17427     17424     17428     17429
     17431     17430     17434     17435     17432     17430     17434     17435
     17433     17430     17434     17435     17437     17436     17440     17441
     17438     17436     17440     17441     17439     17436     17440     17441
     17443     17442     17446     17447     17444     17442     17446     17447
     17445     17442     17446     17447     17449     17448     17452     17453
     17450     17448     17452     17453     17451     17448     17452     17453
     17455     17454     17458     17459     17456     17454     17458     17459
     17457     17454     17458     17459     17461     17460     17464     17465
     17462     17460     17464     17465     17463     17460     17464     17465
     17467     17466     17470     17471     17468     17466     17470     17471
     17469     17466     17470     17471     17473     17472     17476     17477
     17474     17472     17476     17477     17475     17472     17476     17477
     17479     17478     17482     17483     17480     17478     17482     17483
     17481     17478     17482     17483     17485     17484     17488     17489
     17486     17484     17488     17489     17487     17484     17488     17489
     17491     17490     17494     17495     17492     17490     17494     17495
     17493     17490     17494     17495     17497     17496     17500     17501
     17498     17496     17500     17501     17499     17496     17500     17501
     17503     17502     17506     17507     17504     17502     17506     17507
     17505     17502     17506     17507     17509     17508     17512     17513
     17510     17508     17512     17513     17511     17508     17512     17513
     17515     17514     17518     17519     17516     17514     17518     17519
     17517     17514     17518     17519     17521     17520     17524     17525
     17522     17520     17524     17525     17523     17520     17524     17525
     17527     17526     17530     17531     17528     17526     17530     17531
     17529     17526     17530     17531     17533     17532     17536     17537
     17534     17532     17536     17537     17535     17532     17536     17537
     17539     17538     17542     17543     17540     17538     17542     17543
     17541     17538     17542     17543     17545     17544     17548     17549
     17546     17544     17548     17549     17547     17544     17548     17549
     17551     17550     17554     17555     17552     17550     17554     17555
     17553     17550     17554     17555     17557     17556     17560     17561
     17558     17556     17560     17561     17559     17556     17560     17561
     17563     17562     17566     17567     17564     17562     17566     17567
     17565     17562     17566     17567     17569     17568     17572     17573
     17570     17568     17572     17573     17571     17568     17572     17573
     17575     17574     17578     17579     17576     17574     17578     17579
     17577     17574     17578     17579     17581     17580     17584     17585
     17582     17580     17584     17585     17583     17580     17584     17585
     17587     17586     17590     17591     17588     17586     17590     17591
     17589     17586     17590     17591     17593     17592     17596     17597
     17594     17592     17596     17597     17595     17592     17596     17597
     17599     17598     17602     17603     17600     17598     17602     17603
     17601     17598     17602     17603     17605     17604     17608     17609
     17606     17604     17608     17609     17607     17604     17608     17609
     17611     17610     17614     17615     17612     17610     17614     17615
     17613     17610     17614     17615     17617     17616     17620     17621
     17618     17616     17620     17621     17619     17616     17620     17621
     17623     17622     17626     17627     17624     17622     17626     17627
     17625     17622     17626     17627     17629     17628     17632     17633
     17630     17628     17632     17633     17631     17628     17632     17633
     17635     17634     17638     17639     17636     17634     17638     17639
     17637     17634     17638     17639     17641     17640     17644     17645
     17642     17640     17644     17645     17643     17640     17644     17645
     17647     17646     17650     17651     17648     17646     17650     17651
     17649     17646     17650     17651     17653     17652     17656     17657
     17654     17652     17656     17657     17655     17652     17656     17657
     17659     17658     17662     17663     17660     17658     17662     17663
     17661     17658     17662     17663     17665     17664     17668     17669
     17666     17664     17668     17669     17667     17664     17668     17669
     17671     17670     17674     17675     17672     17670     17674     17675
     17673     17670     17674     17675     17677     17676     17680     17681
     17678     17676     17680     17681     17679     17676     17680     17681
     17683     17682     17686     17687     17684     17682     17686     17687
     17685     17682     17686     17687     17689     17688     17692     17693
     17690     17688     17692     17693     17691     17688     17692     17693
     17695     17694     17698     17699     17696     17694     17698     17699
     17697     17694     17698     17699     17701     17700     17704     17705
     17702     17700     17704     17705     17703     17700     17704     17705
     17707     17706     17710     17711     17708     17706     17710     17711
     17709     17706     17710     17711     17713     17712     17716     17717
     17714     17712     17716     17717     17715     17712     17716     17717
     17719     17718     17722     17723     17720     17718     17722     17723
     17721     17718     17722     17723     17725     17724     17728     17729
     17726     17724     17728     17729     17727     17724     17728     17729
     17731     17730     17734     17735     17732     17730     17734     17735
     17733     17730     17734     17735     17737     17736     17740     17741
     17738     17736     17740     17741     17739     17736     17740     17741
     17743     17742     17746     17747     17744     17742     17746     17747
     17745     17742     17746     17747     17749     17748     17752     17753
     17750     17748     17752     17753     17751     17748     17752     17753
     17755     17754     17758     17759     17756     17754     17758     17759
     17757     17754     17758     17759     17761     17760     17764     17765
     17762     17760     17764     17765     17763     17760     17764     17765
     17767     17766     17770     17771     17768     17766     17770     17771
     17769     17766     17770     17771     17773     17772     17776     17777
     17774     17772     17776     17777     17775     17772     17776     17777
     17779     17778     17782     17783     17780     17778     17782     17783
     17781     17778     17782     17783     17785     17784     17788     17789
     17786     17784     17788     17789     17787     17784     17788     17789
     17791     17790     17794     17795     17792     17790     17794     17795
     17793     17790     17794     17795     17797     17796     17800     17801
     17798     17796     17800     17801     17799     17796     17800     17801
     17803     17802     17806     17807     17804     17802     17806     17807
     17805     17802     17806     17807     17809     17808     17812     17813
     17810     17808     17812     17813     17811     17808     17812     17813
     17815     17814     17818     17819     17816     17814     17818     17819
     17817     17814     17818     17819     17821     17820     17824     17825
     17822     17820     17824     17825     17823     17820     17824     17825
     17827     17826     17830     17831     17828     17826     17830     17831
     17829     17826     17830     17831     17833     17832     17836     17837
     17834     17832     17836     17837     17835     17832     17836     17837
     17839     17838     17842     17843     17840     17838     17842     17843
     17841     17838     17842     17843     17845     17844     17848     17849
     17846     17844     17848     17849     17847     17844     17848     17849
     17851     17850     17854     17855     17852     17850     17854     17855
     17853     17850     17854     17855     17857     17856     17860     17861
     17858     17856     17860     17861     17859     17856     17860     17861
     17863     17862     17866     17867     17864     17862     17866     17867
     17865     17862     17866     17867     17869     17868     17872     17873
     17870     17868     17872     17873     17871     17868     17872     17873
     17875     17874     17878     17879     17876     17874     17878     17879
     17877     17874     17878     17879     17881     17880     17884     17885
     17882     17880     17884     17885     17883     17880     17884     17885
     17887     17886     17890     17891     17888     17886     17890     17891
     17889     17886     17890     17891     17893     17892     17896     17897
     17894     17892     17896     17897     17895     17892     17896     17897
     17899     17898     17902     17903     17900     17898     17902     17903
     17901     17898     17902     17903     17905     17904     17908     17909
     17906     17904     17908     17909     17907     17904     17908     17909
     17911     17910     17914     17915     17912     17910     17914     17915
     17913     17910     17914     17915     17917     17916     17920     17921
     17918     17916     17920     17921     17919     17916     17920     17921
     17923     17922     17926     17927     17924     17922     17926     17927
     17925     17922     17926     17927     17929     17928     17932     17933
     17930     17928     17932     17933     17931     17928     17932     17933
     17935     17934     17938     17939     17936     17934     17938     17939
     17937     17934     17938     17939     17941     17940     17944     17945
     17942     17940     17944     17945     17943     17940     17944     17945
     17947     17946     17950     17951     17948     17946     17950     17951
     17949     17946     17950     17951     17953     17952     17956     17957
     17954     17952     17956     17957     17955     17952     17956     17957
     17959     17958     17962     17963     17960     17958     17962     17963
     17961     17958     17962     17963     17965     17964     17968     17969
     17966     17964     17968     17969     17967     17964     17968     17969
     17971     17970     17974     17975     17972     17970     17974     17975
     17973     17970     17974     17975     17977     17976     17980     17981
     17978     17976     17980     17981     17979     17976     17980     17981
     17983     17982     17986     17987     17984     17982     17986     17987
     17985     17982     17986     17987     17989     17988     17992     17993
     17990     17988     17992     17993     17991     17988     17992     17993
     17995     17994     17998     17999     17996     17994     17998     17999
     17997     17994     17998     17999     18001     18000     18004     18005
     18002     18000     18004     18005     18003     18000     18004     18005
     18007     18006     18010     18011     18008     18006     18010     18011
     18009     18006     18010     18011     18013     18012     18016     18017
     18014     18012     18016     18017     18015     18012     18016     18017
     18019     18018     18022     18023     18020     18018     18022     18023
     18021     18018     18022     18023     18025     18024     18028     18029
     18026     18024     18028     18029     18027     18024     18028     18029
     18031     18030     18034     18035     18032     18030     18034     18035
     18033     18030     18034     18035     18037     18036     18040     18041
     18038     18036     18040     18041     18039     18036     18040     18041
     18043     18042     18046     18047     18044     18042     18046     18047
     18045     18042     18046     18047     18049     18048     18052     18053
     18050     18048     18052     18053     18051     18048     18052     18053
     18055     18054     18058     18059     18056     18054     18058     18059
     18057     18054     18058     18059     18061     18060     18064     18065
     18062     18060     18064     18065     18063     18060     18064     18065
     18067     18066     18070     18071     18068     18066     18070     18071
     18069     18066     18070     18071     18073     18072     18076     18077
     18074     18072     18076     18077     18075     18072     18076     18077
     18079     18078     18082     18083     18080     18078     18082     18083
     18081     18078     18082     18083     18085     18084     18088     18089
     18086     18084     18088     18089     18087     18084     18088     18089
     18091     18090     18094     18095     18092     18090     18094     18095
     18093     18090     18094     18095     18097     18096     18100     18101
     18098     18096     18100     18101     18099     18096     18100     18101
     18103     18102     18106     18107     18104     18102     18106     18107
     18105     18102     18106     18107     18109     18108     18112     18113
     18110     18108     18112     18113     18111     18108     18112     18113
     18115     18114     18118     18119     18116     18114     18118     18119
     18117     18114     18118     18119     18121     18120     18124     18125
     18122     18120     18124     18125     18123     18120     18124     18125
     18127     18126     18130     18131     18128     18126     18130     18131
     18129     18126     18130     18131     18133     18132     18136     18137
     18134     18132     18136     18137     18135     18132     18136     18137
     18139     18138     18142     18143     18140     18138     18142     18143
     18141     18138     18142     18143     18145     18144     18148     18149
     18146     18144     18148     18149     18147     18144     18148     18149
     18151     18150     18154     18155     18152     18150     18154     18155
     18153     18150     18154     18155     18157     18156     18160     18161
     18158     18156     18160     18161     18159     18156     18160     18161
     18163     18162     18166     18167     18164     18162     18166     18167
     18165     18162     18166     18167     18169     18168     18172     18173
     18170     18168     18172     18173     18171     18168     18172     18173
     18175     18174     18178     18179     18176     18174     18178     18179
     18177     18174     18178     18179     18181     18180     18184     18185
     18182     18180     18184     18185     18183     18180     18184     18185
     18187     18186     18190     18191     18188     18186     18190     18191
     18189     18186     18190     18191     18193     18192     18196     18197
     18194     18192     18196     18197     18195     18192     18196     18197
     18199     18198     18202     18203     18200     18198     18202     18203
     18201     18198     18202     18203     18205     18204     18208     18209
     18206     18204     18208     18209     18207     18204     18208     18209
     18211     18210     18214     18215     18212     18210     18214     18215
     18213     18210     18214     18215     18217     18216     18220     18221
     18218     18216     18220     18221     18219     18216     18220     18221
     18223     18222     18226     18227     18224     18222     18226     18227
     18225     18222     18226     18227     18229     18228     18232     18233
     18230     18228     18232     18233     18231     18228     18232     18233
     18235     18234     18238     18239     18236     18234     18238     18239
     18237     18234     18238     18239     18241     18240     18244     18245
     18242     18240     18244     18245     18243     18240     18244     18245
     18247     18246     18250     18251     18248     18246     18250     18251
     18249     18246     18250     18251     18253     18252     18256     18257
     18254     18252     18256     18257     18255     18252     18256     18257
     18259     18258     18262     18263     18260     18258     18262     18263
     18261     18258     18262     18263     18265     18264     18268     18269
     18266     18264     18268     18269     18267     18264     18268     18269
     18271     18270     18274     18275     18272     18270     18274     18275
     18273     18270     18274     18275     18277     18276     18280     18281
     18278     18276     18280     18281     18279     18276     18280     18281
     18283     18282     18286     18287     18284     18282     18286     18287
     18285     18282     18286     18287     18289     18288     18292     18293
     18290     18288     18292     18293     18291     18288     18292     18293
     18295     18294     18298     18299     18296     18294     18298     18299
     18297     18294     18298     18299     18301     18300     18304     18305
     18302     18300     18304     18305     18303     18300     18304     18305
     18307     18306     18310     18311     18308     18306     18310     18311
     18309     18306     18310     18311     18313     18312     18316     18317
     18314     18312     18316     18317     18315     18312     18316     18317
     18319     18318     18322     18323     18320     18318     18322     18323
     18321     18318     18322     18323     18325     18324     18328     18329
     18326     18324     18328     18329     18327     18324     18328     18329
     18331     18330     18334     18335     18332     18330     18334     18335
     18333     18330     18334     18335     18337     18336     18340     18341
     18338     18336     18340     18341     18339     18336     18340     18341
     18343     18342     18346     18347     18344     18342     18346     18347
     18345     18342     18346     18347     18349     18348     18352     18353
     18350     18348     18352     18353     18351     18348     18352     18353
     18355     18354     18358     18359     18356     18354     18358     18359
     18357     18354     18358     18359     18361     18360     18364     18365
     18362     18360     18364     18365     18363     18360     18364     18365
     18367     18366     18370     18371     18368     18366     18370     18371
     18369     18366     18370     18371     18373     18372     18376     18377
     18374     18372     18376     18377     18375     18372     18376     18377
     18379     18378     18382     18383     18380     18378     18382     18383
     18381     18378     18382     18383     18385     18384     18388     18389
     18386     18384     18388     18389     18387     18384     18388     18389
     18391     18390     18394     18395     18392     18390     18394     18395
     18393     18390     18394     18395     18397     18396     18400     18401
     18398     18396     18400     18401     18399     18396     18400     18401
     18403     18402     18406     18407     18404     18402     18406     18407
     18405     18402     18406     18407     18409     18408     18412     18413
     18410     18408     18412     18413     18411     18408     18412     18413
     18415     18414     18418     18419     18416     18414     18418     18419
     18417     18414     18418     18419     18421     18420     18424     18425
     18422     18420     18424     18425     18423     18420     18424     18425
     18427     18426     18430     18431     18428     18426     18430     18431
     18429     18426     18430     18431     18433     18432     18436     18437
     18434     18432     18436     18437     18435     18432     18436     18437
     18439     18438     18442     18443     18440     18438     18442     18443
     18441     18438     18442     18443     18445     18444     18448     18449
     18446     18444     18448     18449     18447     18444     18448     18449
     18451     18450     18454     18455     18452     18450     18454     18455
     18453     18450     18454     18455     18457     18456     18460     18461
     18458     18456     18460     18461     18459     18456     18460     18461
     18463     18462     18466     18467     18464     18462     18466     18467
     18465     18462     18466     18467     18469     18468     18472     18473
     18470     18468     18472     18473     18471     18468     18472     18473
     18475     18474     18478     18479     18476     18474     18478     18479
     18477     18474     18478     18479     18481     18480     18484     18485
     18482     18480     18484     18485     18483     18480     18484     18485
     18487     18486     18490     18491     18488     18486     18490     18491
     18489     18486     18490     18491     18493     18492     18496     18497
     18494     18492     18496     18497     18495     18492     18496     18497
     18499     18498     18502     18503     18500     18498     18502     18503
     18501     18498     18502     18503     18505     18504     18508     18509
     18506     18504     18508     18509     18507     18504     18508     18509
     18511     18510     18514     18515     18512     18510     18514     18515
     18513     18510     18514     18515     18517     18516     18520     18521
     18518     18516     18520     18521     18519     18516     18520     18521
     18523     18522     18526     18527     18524     18522     18526     18527
     18525     18522     18526     18527     18529     18528     18532     18533
     18530     18528     18532     18533     18531     18528     18532     18533
     18535     18534     18538     18539     18536     18534     18538     18539
     18537     18534     18538     18539     18541     18540     18544     18545
     18542     18540     18544     18545     18543     18540     18544     18545
     18547     18546     18550     18551     18548     18546     18550     18551
     18549     18546     18550     18551     18553     18552     18556     18557
     18554     18552     18556     18557     18555     18552     18556     18557
     18559     18558     18562     18563     18560     18558     18562     18563
     18561     18558     18562     18563     18565     18564     18568     18569
     18566     18564     18568     18569     18567     18564     18568     18569
     18571     18570     18574     18575     18572     18570     18574     18575
     18573     18570     18574     18575     18577     18576     18580     18581
     18578     18576     18580     18581     18579     18576     18580     18581
     18583     18582     18586     18587     18584     18582     18586     18587
     18585     18582     18586     18587     18589     18588     18592     18593
     18590     18588     18592     18593     18591     18588     18592     18593
     18595     18594     18598     18599     18596     18594     18598     18599
     18597     18594     18598     18599     18601     18600     18604     18605
     18602     18600     18604     18605     18603     18600     18604     18605
     18607     18606     18610     18611     18608     18606     18610     18611
     18609     18606     18610     18611     18613     18612     18616     18617
     18614     18612     18616     18617     18615     18612     18616     18617
     18619     18618     18622     18623     18620     18618     18622     18623
     18621     18618     18622     18623     18625     18624     18628     18629
     18626     18624     18628     18629     18627     18624     18628     18629
     18631     18630     18634     18635     18632     18630     18634     18635
     18633     18630     18634     18635     18637     18636     18640     18641
     18638     18636     18640     18641     18639     18636     18640     18641
     18643     18642     18646     18647     18644     18642     18646     18647
     18645     18642     18646     18647     18649     18648     18652     18653
     18650     18648     18652     18653     18651     18648     18652     18653
     18655     18654     18658     18659     18656     18654     18658     18659
     18657     18654     18658     18659     18661     18660     18664     18665
     18662     18660     18664     18665     18663     18660     18664     18665
     18667     18666     18670     18671     18668     18666     18670     18671
     18669     18666     18670     18671     18673     18672     18676     18677
     18674     18672     18676     18677     18675     18672     18676     18677
     18679     18678     18682     18683     18680     18678     18682     18683
     18681     18678     18682     18683     18685     18684     18688     18689
     18686     18684     18688     18689     18687     18684     18688     18689
     18691     18690     18694     18695     18692     18690     18694     18695
     18693     18690     18694     18695     18697     18696     18700     18701
     18698     18696     18700     18701     18699     18696     18700     18701
     18703     18702     18706     18707     18704     18702     18706     18707
     18705     18702     18706     18707     18709     18708     18712     18713
     18710     18708     18712     18713     18711     18708     18712     18713
     18715     18714     18718     18719     18716     18714     18718     18719
     18717     18714     18718     18719     18721     18720     18724     18725
     18722     18720     18724     18725     18723     18720     18724     18725
     18727     18726     18730     18731     18728     18726     18730     18731
     18729     18726     18730     18731     18733     18732     18736     18737
     18734     18732     18736     18737     18735     18732     18736     18737
     18739     18738     18742     18743     18740     18738     18742     18743
     18741     18738     18742     18743     18745     18744     18748     18749
     18746     18744     18748     18749     18747     18744     18748     18749
     18751     18750     18754     18755     18752     18750     18754     18755
     18753     18750     18754     18755     18757     18756     18760     18761
     18758     18756     18760     18761     18759     18756     18760     18761
     18763     18762     18766     18767     18764     18762     18766     18767
     18765     18762     18766     18767     18769     18768     18772     18773
     18770     18768     18772     18773     18771     18768     18772     18773
     18775     18774     18778     18779     18776     18774     18778     18779
     18777     18774     18778     18779     18781     18780     18784     18785
     18782     18780     18784     18785     18783     18780     18784     18785
     18787     18786     18790     18791     18788     18786     18790     18791
     18789     18786     18790     18791     18793     18792     18796     18797
     18794     18792     18796     18797     18795     18792     18796     18797
     18799     18798     18802     18803     18800     18798     18802     18803
     18801     18798     18802     18803     18805     18804     18808     18809
     18806     18804     18808     18809     18807     18804     18808     18809
     18811     18810     18814     18815     18812     18810     18814     18815
     18813     18810     18814     18815     18817     18816     18820     18821
     18818     18816     18820     18821     18819     18816     18820     18821
     18823     18822     18826     18827     18824     18822     18826     18827
     18825     18822     18826     18827     18829     18828     18832     18833
     18830     18828     18832     18833     18831     18828     18832     18833
     18835     18834     18838     18839     18836     18834     18838     18839
     18837     18834     18838     18839     18841     18840     18844     18845
     18842     18840     18844     18845     18843     18840     18844     18845
     18847     18846     18850     18851     18848     18846     18850     18851
     18849     18846     18850     18851     18853     18852     18856     18857
     18854     18852     18856     18857     18855     18852     18856     18857
     18859     18858     18862     18863     18860     18858     18862     18863
     18861     18858     18862     18863     18865     18864     18868     18869
     18866     18864     18868     18869     18867     18864     18868     18869
     18871     18870     18874     18875     18872     18870     18874     18875
     18873     18870     18874     18875     18877     18876     18880     18881
     18878     18876     18880     18881     18879     18876     18880     18881
     18883     18882     18886     18887     18884     18882     18886     18887
     18885     18882     18886     18887     18889     18888     18892     18893
     18890     18888     18892     18893     18891     18888     18892     18893
     18895     18894     18898     18899     18896     18894     18898     18899
     18897     18894     18898     18899     18901     18900     18904     18905
     18902     18900     18904     18905     18903     18900     18904     18905
     18907     18906     18910     18911     18908     18906     18910     18911
     18909     18906     18910     18911     18913     18912     18916     18917
     18914     18912     18916     18917     18915     18912     18916     18917
     18919     18918     18922     18923     18920     18918     18922     18923
     18921     18918     18922     18923     18925     18924     18928     18929
     18926     18924     18928     18929     18927     18924     18928     18929
     18931     18930     18934     18935     18932     18930     18934     18935
     18933     18930     18934     18935     18937     18936     18940     18941
     18938     18936     18940     18941     18939     18936     18940     18941
     18943     18942     18946     18947     18944     18942     18946     18947
     18945     18942     18946     18947     18949     18948     18952     18953
     18950     18948     18952     18953     18951     18948     18952     18953
     18955     18954     18958     18959     18956     18954     18958     18959
     18957     18954     18958     18959     18961     18960     18964     18965
     18962     18960     18964     18965     18963     18960     18964     18965
     18967     18966     18970     18971     18968     18966     18970     18971
     18969     18966     18970     18971     18973     18972     18976     18977
     18974     18972     18976     18977     18975     18972     18976     18977
     18979     18978     18982     18983     18980     18978     18982     18983
     18981     18978     18982     18983     18985     18984     18988     18989
     18986     18984     18988     18989     18987     18984     18988     18989
     18991     18990     18994     18995     18992     18990     18994     18995
     18993     18990     18994     18995     18997     18996     19000     19001
     18998     18996     19000     19001     18999     18996     19000     19001
     19003     19002     19006     19007     19004     19002     19006     19007
     19005     19002     19006     19007     19009     19008     19012     19013
     19010     19008     19012     19013     19011     19008     19012     19013
     19015     19014     19018     19019     19016     19014     19018     19019
     19017     19014     19018     19019     19021     19020     19024     19025
     19022     19020     19024     19025     19023     19020     19024     19025
     19027     19026     19030     19031     19028     19026     19030     19031
     19029     19026     19030     19031     19033     19032     19036     19037
     19034     19032     19036     19037     19035     19032     19036     19037
     19039     19038     19042     19043     19040     19038     19042     19043
     19041     19038     19042     19043     19045     19044     19048     19049
     19046     19044     19048     19049     19047     19044     19048     19049
     19051     19050     19054     19055     19052     19050     19054     19055
     19053     19050     19054     19055     19057     19056     19060     19061
     19058     19056     19060     19061     19059     19056     19060     19061
     19063     19062     19066     19067     19064     19062     19066     19067
     19065     19062     19066     19067     19069     19068     19072     19073
     19070     19068     19072     19073     19071     19068     19072     19073
     19075     19074     19078     19079     19076     19074     19078     19079
     19077     19074     19078     19079     19081     19080     19084     19085
     19082     19080     19084     19085     19083     19080     19084     19085
     19087     19086     19090     19091     19088     19086     19090     19091
     19089     19086     19090     19091     19093     19092     19096     19097
     19094     19092     19096     19097     19095     19092     19096     19097
     19099     19098     19102     19103     19100     19098     19102     19103
     19101     19098     19102     19103     19105     19104     19108     19109
     19106     19104     19108     19109     19107     19104     19108     19109
     19111     19110     19114     19115     19112     19110     19114     19115
     19113     19110     19114     19115     19117     19116     19120     19121
     19118     19116     19120     19121     19119     19116     19120     19121
     19123     19122     19126     19127     19124     19122     19126     19127
     19125     19122     19126     19127     19129     19128     19132     19133
     19130     19128     19132     19133     19131     19128     19132     19133
     19135     19134     19138     19139     19136     19134     19138     19139
     19137     19134     19138     19139     19141     19140     19144     19145
     19142     19140     19144     19145     19143     19140     19144     19145
     19147     19146     19150     19151     19148     19146     19150     19151
     19149     19146     19150     19151     19153     19152     19156     19157
     19154     19152     19156     19157     19155     19152     19156     19157
     19159     19158     19162     19163     19160     19158     19162     19163
     19161     19158     19162     19163     19165     19164     19168     19169
     19166     19164     19168     19169     19167     19164     19168     19169
     19171     19170     19174     19175     19172     19170     19174     19175
     19173     19170     19174     19175     19177     19176     19180     19181
     19178     19176     19180     19181     19179     19176     19180     19181
     19183     19182     19186     19187     19184     19182     19186     19187
     19185     19182     19186     19187     19189     19188     19192     19193
     19190     19188     19192     19193     19191     19188     19192     19193
     19195     19194     19198     19199     19196     19194     19198     19199
     19197     19194     19198     19199     19201     19200     19204     19205
     19202     19200     19204     19205     19203     19200     19204     19205
     19207     19206     19210     19211     19208     19206     19210     19211
     19209     19206     19210     19211     19213     19212     19216     19217
     19214     19212     19216     19217     19215     19212     19216     19217
     19219     19218     19222     19223     19220     19218     19222     19223
     19221     19218     19222     19223     19225     19224     19228     19229
     19226     19224     19228     19229     19227     19224     19228     19229
     19231     19230     19234     19235     19232     19230     19234     19235
     19233     19230     19234     19235     19237     19236     19240     19241
     19238     19236     19240     19241     19239     19236     19240     19241
     19243     19242     19246     19247     19244     19242     19246     19247
     19245     19242     19246     19247     19249     19248     19252     19253
     19250     19248     19252     19253     19251     19248     19252     19253
     19255     19254     19258     19259     19256     19254     19258     19259
     19257     19254     19258     19259     19261     19260     19264     19265
     19262     19260     19264     19265     19263     19260     19264     19265
     19267     19266     19270     19271     19268     19266     19270     19271
     19269     19266     19270     19271     19273     19272     19276     19277
     19274     19272     19276     19277     19275     19272     19276     19277
     19279     19278     19282     19283     19280     19278     19282     19283
     19281     19278     19282     19283     19285     19284     19288     19289
     19286     19284     19288     19289     19287     19284     19288     19289
     19291     19290     19294     19295     19292     19290     19294     19295
     19293     19290     19294     19295     19297     19296     19300     19301
     19298     19296     19300     19301     19299     19296     19300     19301
     19303     19302     19306     19307     19304     19302     19306     19307
     19305     19302     19306     19307     19309     19308     19312     19313
     19310     19308     19312     19313     19311     19308     19312     19313
     19315     19314     19318     19319     19316     19314     19318     19319
     19317     19314     19318     19319     19321     19320     19324     19325
     19322     19320     19324     19325     19323     19320     19324     19325
     19327     19326     19330     19331     19328     19326     19330     19331
     19329     19326     19330     19331     19333     19332     19336     19337
     19334     19332     19336     19337     19335     19332     19336     19337
     19339     19338     19342     19343     19340     19338     19342     19343
     19341     19338     19342     19343     19345     19344     19348     19349
     19346     19344     19348     19349     19347     19344     19348     19349
     19351     19350     19354     19355     19352     19350     19354     19355
     19353     19350     19354     19355     19357     19356     19360     19361
     19358     19356     19360     19361     19359     19356     19360     19361
     19363     19362     19366     19367     19364     19362     19366     19367
     19365     19362     19366     19367     19369     19368     19372     19373
     19370     19368     19372     19373     19371     19368     19372     19373
     19375     19374     19378     19379     19376     19374     19378     19379
     19377     19374     19378     19379     19381     19380     19384     19385
     19382     19380     19384     19385     19383     19380     19384     19385
     19387     19386     19390     19391     19388     19386     19390     19391
     19389     19386     19390     19391     19393     19392     19396     19397
     19394     19392     19396     19397     19395     19392     19396     19397
     19399     19398     19402     19403     19400     19398     19402     19403
     19401     19398     19402     19403     19405     19404     19408     19409
     19406     19404     19408     19409     19407     19404     19408     19409
     19411     19410     19414     19415     19412     19410     19414     19415
     19413     19410     19414     19415     19417     19416     19420     19421
     19418     19416     19420     19421     19419     19416     19420     19421
     19423     19422     19426     19427     19424     19422     19426     19427
     19425     19422     19426     19427     19429     19428     19432     19433
     19430     19428     19432     19433     19431     19428     19432     19433
     19435     19434     19438     19439     19436     19434     19438     19439
     19437     19434     19438     19439     19441     19440     19444     19445
     19442     19440     19444     19445     19443     19440     19444     19445
     19447     19446     19450     19451     19448     19446     19450     19451
     19449     19446     19450     19451     19453     19452     19456     19457
     19454     19452     19456     19457     19455     19452     19456     19457
     19459     19458     19462     19463     19460     19458     19462     19463
     19461     19458     19462     19463     19465     19464     19468     19469
     19466     19464     19468     19469     19467     19464     19468     19469
     19471     19470     19474     19475     19472     19470     19474     19475
     19473     19470     19474     19475     19477     19476     19480     19481
     19478     19476     19480     19481     19479     19476     19480     19481
     19483     19482     19486     19487     19484     19482     19486     19487
     19485     19482     19486     19487     19489     19488     19492     19493
     19490     19488     19492     19493     19491     19488     19492     19493
     19495     19494     19498     19499     19496     19494     19498     19499
     19497     19494     19498     19499     19501     19500     19504     19505
     19502     19500     19504     19505     19503     19500     19504     19505
     19507     19506     19510     19511     19508     19506     19510     19511
     19509     19506     19510     19511     19513     19512     19516     19517
     19514     19512     19516     19517     19515     19512     19516     19517
     19519     19518     19522     19523     19520     19518     19522     19523
     19521     19518     19522     19523     19525     19524     19528     19529
     19526     19524     19528     19529     19527     19524     19528     19529
     19531     19530     19534     19535     19532     19530     19534     19535
     19533     19530     19534     19535     19537     19536     19540     19541
     19538     19536     19540     19541     19539     19536     19540     19541
     19543     19542     19546     19547     19544     19542     19546     19547
     19545     19542     19546     19547     19549     19548     19552     19553
     19550     19548     19552     19553     19551     19548     19552     19553
     19555     19554     19558     19559     19556     19554     19558     19559
     19557     19554     19558     19559     19561     19560     19564     19565
     19562     19560     19564     19565     19563     19560     19564     19565
     19567     19566     19570     19571     19568     19566     19570     19571
     19569     19566     19570     19571     19573     19572     19576     19577
     19574     19572     19576     19577     19575     19572     19576     19577
     19579     19578     19582     19583     19580     19578     19582     19583
     19581     19578     19582     19583     19585     19584     19588     19589
     19586     19584     19588     19589     19587     19584     19588     19589
     19591     19590     19594     19595     19592     19590     19594     19595
     19593     19590     19594     19595     19597     19596     19600     19601
     19598     19596     19600     19601     19599     19596     19600     19601
     19603     19602     19606     19607     19604     19602     19606     19607
     19605     19602     19606     19607     19609     19608     19612     19613
     19610     19608     19612     19613     19611     19608     19612     19613
     19615     19614     19618     19619     19616     19614     19618     19619
     19617     19614     19618     19619     19621     19620     19624     19625
     19622     19620     19624     19625     19623     19620     19624     19625
     19627     19626     19630     19631     19628     19626     19630     19631
     19629     19626     19630     19631     19633     19632     19636     19637
     19634     19632     19636     19637     19635     19632     19636     19637
     19639     19638     19642     19643     19640     19638     19642     19643
     19641     19638     19642     19643     19645     19644     19648     19649
     19646     19644     19648     19649     19647     19644     19648     19649
     19651     19650     19654     19655     19652     19650     19654     19655
     19653     19650     19654     19655     19657     19656     19660     19661
     19658     19656     19660     19661     19659     19656     19660     19661
     19663     19662     19666     19667     19664     19662     19666     19667
     19665     19662     19666     19667     19669     19668     19672     19673
     19670     19668     19672     19673     19671     19668     19672     19673
     19675     19674     19678     19679     19676     19674     19678     19679
     19677     19674     19678     19679     19681     19680     19684     19685
     19682     19680     19684     19685     19683     19680     19684     19685
     19687     19686     19690     19691     19688     19686     19690     19691
     19689     19686     19690     19691     19693     19692     19696     19697
     19694     19692     19696     19697     19695     19692     19696     19697
     19699     19698     19702     19703     19700     19698     19702     19703
     19701     19698     19702     19703     19705     19704     19708     19709
     19706     19704     19708     19709     19707     19704     19708     19709
     19711     19710     19714     19715     19712     19710     19714     19715
     19713     19710     19714     19715     19717     19716     19720     19721
     19718     19716     19720     19721     19719     19716     19720     19721
     19723     19722     19726     19727     19724     19722     19726     19727
     19725     19722     19726     19727     19729     19728     19732     19733
     19730     19728     19732     19733     19731     19728     19732     19733
     19735     19734     19738     19739     19736     19734     19738     19739
     19737     19734     19738     19739     19741     19740     19744     19745
     19742     19740     19744     19745     19743     19740     19744     19745
     19747     19746     19750     19751     19748     19746     19750     19751
     19749     19746     19750     19751     19753     19752     19756     19757
     19754     19752     19756     19757     19755     19752     19756     19757
     19759     19758     19762     19763     19760     19758     19762     19763
     19761     19758     19762     19763     19765     19764     19768     19769
     19766     19764     19768     19769     19767     19764     19768     19769
     19771     19770     19774     19775     19772     19770     19774     19775
     19773     19770     19774     19775     19777     19776     19780     19781
     19778     19776     19780     19781     19779     19776     19780     19781
     19783     19782     19786     19787     19784     19782     19786     19787
     19785     19782     19786     19787     19789     19788     19792     19793
     19790     19788     19792     19793     19791     19788     19792     19793
     19795     19794     19798     19799     19796     19794     19798     19799
     19797     19794     19798     19799     19801     19800     19804     19805
     19802     19800     19804     19805     19803     19800     19804     19805
     19807     19806     19810     19811     19808     19806     19810     19811
     19809     19806     19810     19811     19813     19812     19816     19817
     19814     19812     19816     19817     19815     19812     19816     19817
     19819     19818     19822     19823     19820     19818     19822     19823
     19821     19818     19822     19823     19825     19824     19828     19829
     19826     19824     19828     19829     19827     19824     19828     19829
     19831     19830     19834     19835     19832     19830     19834     19835
     19833     19830     19834     19835     19837     19836     19840     19841
     19838     19836     19840     19841     19839     19836     19840     19841
     19843     19842     19846     19847     19844     19842     19846     19847
     19845     19842     19846     19847     19849     19848     19852     19853
     19850     19848     19852     19853     19851     19848     19852     19853
     19855     19854     19858     19859     19856     19854     19858     19859
     19857     19854     19858     19859     19861     19860     19864     19865
     19862     19860     19864     19865     19863     19860     19864     19865
     19867     19866     19870     19871     19868     19866     19870     19871
     19869     19866     19870     19871     19873     19872     19876     19877
     19874     19872     19876     19877     19875     19872     19876     19877
     19879     19878     19882     19883     19880     19878     19882     19883
     19881     19878     19882     19883     19885     19884     19888     19889
     19886     19884     19888     19889     19887     19884     19888     19889
     19891     19890     19894     19895     19892     19890     19894     19895
     19893     19890     19894     19895     19897     19896     19900     19901
     19898     19896     19900     19901     19899     19896     19900     19901
     19903     19902     19906     19907     19904     19902     19906     19907
     19905     19902     19906     19907     19909     19908     19912     19913
     19910     19908     19912     19913     19911     19908     19912     19913
     19915     19914     19918     19919     19916     19914     19918     19919
     19917     19914     19918     19919     19921     19920     19924     19925
     19922     19920     19924     19925     19923     19920     19924     19925
     19927     19926     19930     19931     19928     19926     19930     19931
     19929     19926     19930     19931     19933     19932     19936     19937
     19934     19932     19936     19937     19935     19932     19936     19937
     19939     19938     19942     19943     19940     19938     19942     19943
     19941     19938     19942     19943     19945     19944     19948     19949
     19946     19944     19948     19949     19947     19944     19948     19949
     19951     19950     19954     19955     19952     19950     19954     19955
     19953     19950     19954     19955     19957     19956     19960     19961
     19958     19956     19960     19961     19959     19956     19960     19961
     19963     19962     19966     19967     19964     19962     19966     19967
     19965     19962     19966     19967     19969     19968     19972     19973
     19970     19968     19972     19973     19971     19968     19972     19973
     19975     19974     19978     19979     19976     19974     19978     19979
     19977     19974     19978     19979     19981     19980     19984     19985
     19982     19980     19984     19985     19983     19980     19984     19985
     19987     19986     19990     19991     19988     19986     19990     19991
     19989     19986     19990     19991     19993     19992     19996     19997
     19994     19992     19996     19997     19995     19992     19996     19997
     19999     19998     20002     20003     20000     19998     20002     20003
     20001     19998     20002     20003     20005     20004     20008     20009
     20006     20004     20008     20009     20007     20004     20008     20009
     20011     20010     20014     20015     20012     20010     20014     20015
     20013     20010     20014     20015     20017     20016     20020     20021
     20018     20016     20020     20021     20019     20016     20020     20021
     20023     20022     20026     20027     20024     20022     20026     20027
     20025     20022     20026     20027     20029     20028     20032     20033
     20030     20028     20032     20033     20031     20028     20032     20033
     20035     20034     20038     20039     20036     20034     20038     20039
     20037     20034     20038     20039     20041     20040     20044     20045
     20042     20040     20044     20045     20043     20040     20044     20045
     20047     20046     20050     20051     20048     20046     20050     20051
     20049     20046     20050     20051     20053     20052     20056     20057
     20054     20052     20056     20057     20055     20052     20056     20057
     20059     20058     20062     20063     20060     20058     20062     20063
     20061     20058     20062     20063     20065     20064     20068     20069
     20066     20064     20068     20069     20067     20064     20068     20069
     20071     20070     20074     20075     20072     20070     20074     20075
     20073     20070     20074     20075     20077     20076     20080     20081
     20078     20076     20080     20081     20079     20076     20080     20081
     20083     20082     20086     20087     20084     20082     20086     20087
     20085     20082     20086     20087     20089     20088     20092     20093
     20090     20088     20092     20093     20091     20088     20092     20093
     20095     20094     20098     20099     20096     20094     20098     20099
     20097     20094     20098     20099     20101     20100     20104     20105
     20102     20100     20104     20105     20103     20100     20104     20105
     20107     20106     20110     20111     20108     20106     20110     20111
     20109     20106     20110     20111     20113     20112     20116     20117
     20114     20112     20116     20117     20115     20112     20116     20117
     20119     20118     20122     20123     20120     20118     20122     20123
     20121     20118     20122     20123     20125     20124     20128     20129
     20126     20124     20128     20129     20127     20124     20128     20129
     20131     20130     20134     20135     20132     20130     20134     20135
     20133     20130     20134     20135     20137     20136     20140     20141
     20138     20136     20140     20141     20139     20136     20140     20141
     20143     20142     20146     20147     20144     20142     20146     20147
     20145     20142     20146     20147     20149     20148     20152     20153
     20150     20148     20152     20153     20151     20148     20152     20153
     20155     20154     20158     20159     20156     20154     20158     20159
     20157     20154     20158     20159     20161     20160     20164     20165
     20162     20160     20164     20165     20163     20160     20164     20165
     20167     20166     20170     20171     20168     20166     20170     20171
     20169     20166     20170     20171     20173     20172     20176     20177
     20174     20172     20176     20177     20175     20172     20176     20177
     20179     20178     20182     20183     20180     20178     20182     20183
     20181     20178     20182     20183     20185     20184     20188     20189
     20186     20184     20188     20189     20187     20184     20188     20189
     20191     20190     20194     20195     20192     20190     20194     20195
     20193     20190     20194     20195     20197     20196     20200     20201
     20198     20196     20200     20201     20199     20196     20200     20201
     20203     20202     20206     20207     20204     20202     20206     20207
     20205     20202     20206     20207     20209     20208     20212     20213
     20210     20208     20212     20213     20211     20208     20212     20213
     20215     20214     20218     20219     20216     20214     20218     20219
     20217     20214     20218     20219     20221     20220     20224     20225
     20222     20220     20224     20225     20223     20220     20224     20225
     20227     20226     20230     20231     20228     20226     20230     20231
     20229     20226     20230     20231     20233     20232     20236     20237
     20234     20232     20236     20237     20235     20232     20236     20237
     20239     20238     20242     20243     20240     20238     20242     20243
     20241     20238     20242     20243     20245     20244     20248     20249
     20246     20244     20248     20249     20247     20244     20248     20249
     20251     20250     20254     20255     20252     20250     20254     20255
     20253     20250     20254     20255     20257     20256     20260     20261
     20258     20256     20260     20261     20259     20256     20260     20261
     20263     20262     20266     20267     20264     20262     20266     20267
     20265     20262     20266     20267     20269     20268     20272     20273
     20270     20268     20272     20273     20271     20268     20272     20273
     20275     20274     20278     20279     20276     20274     20278     20279
     20277     20274     20278     20279     20281     20280     20284     20285
     20282     20280     20284     20285     20283     20280     20284     20285
     20287     20286     20290     20291     20288     20286     20290     20291
     20289     20286     20290     20291     20293     20292     20296     20297
     20294     20292     20296     20297     20295     20292     20296     20297
     20299     20298     20302     20303     20300     20298     20302     20303
     20301     20298     20302     20303     20305     20304     20308     20309
     20306     20304     20308     20309     20307     20304     20308     20309
     20311     20310     20314     20315     20312     20310     20314     20315
     20313     20310     20314     20315     20317     20316     20320     20321
     20318     20316     20320     20321     20319     20316     20320     20321
     20323     20322     20326     20327     20324     20322     20326     20327
     20325     20322     20326     20327     20329     20328     20332     20333
     20330     20328     20332     20333     20331     20328     20332     20333
     20335     20334     20338     20339     20336     20334     20338     20339
     20337     20334     20338     20339     20341     20340     20344     20345
     20342     20340     20344     20345     20343     20340     20344     20345
     20347     20346     20350     20351     20348     20346     20350     20351
     20349     20346     20350     20351     20353     20352     20356     20357
     20354     20352     20356     20357     20355     20352     20356     20357
     20359     20358     20362     20363     20360     20358     20362     20363
     20361     20358     20362     20363     20365     20364     20368     20369
     20366     20364     20368     20369     20367     20364     20368     20369
     20371     20370     20374     20375     20372     20370     20374     20375
     20373     20370     20374     20375     20377     20376     20380     20381
     20378     20376     20380     20381     20379     20376     20380     20381
     20383     20382     20386     20387     20384     20382     20386     20387
     20385     20382     20386     20387     20389     20388     20392     20393
     20390     20388     20392     20393     20391     20388     20392     20393
     20395     20394     20398     20399     20396     20394     20398     20399
     20397     20394     20398     20399     20401     20400     20404     20405
     20402     20400     20404     20405     20403     20400     20404     20405
     20407     20406     20410     20411     20408     20406     20410     20411
     20409     20406     20410     20411     20413     20412     20416     20417
     20414     20412     20416     20417     20415     20412     20416     20417
     20419     20418     20422     20423     20420     20418     20422     20423
     20421     20418     20422     20423     20425     20424     20428     20429
     20426     20424     20428     20429     20427     20424     20428     20429
     20431     20430     20434     20435     20432     20430     20434     20435
     20433     20430     20434     20435     20437     20436     20440     20441
     20438     20436     20440     20441     20439     20436     20440     20441
     20443     20442     20446     20447     20444     20442     20446     20447
     20445     20442     20446     20447     20449     20448     20452     20453
     20450     20448     20452     20453     20451     20448     20452     20453
     20455     20454     20458     20459     20456     20454     20458     20459
     20457     20454     20458     20459     20461     20460     20464     20465
     20462     20460     20464     20465     20463     20460     20464     20465
     20467     20466     20470     20471     20468     20466     20470     20471
     20469     20466     20470     20471     20473     20472     20476     20477
     20474     20472     20476     20477     20475     20472     20476     20477
     20479     20478     20482     20483     20480     20478     20482     20483
     20481     20478     20482     20483     20485     20484     20488     20489
     20486     20484     20488     20489     20487     20484     20488     20489
     20491     20490     20494     20495     20492     20490     20494     20495
     20493     20490     20494     20495     20497     20496     20500     20501
     20498     20496     20500     20501     20499     20496     20500     20501
     20503     20502     20506     20507     20504     20502     20506     20507
     20505     20502     20506     20507     20509     20508     20512     20513
     20510     20508     20512     20513     20511     20508     20512     20513
     20515     20514     20518     20519     20516     20514     20518     20519
     20517     20514     20518     20519     20521     20520     20524     20525
     20522     20520     20524     20525     20523     20520     20524     20525
     20527     20526     20530     20531     20528     20526     20530     20531
     20529     20526     20530     20531     20533     20532     20536     20537
     20534     20532     20536     20537     20535     20532     20536     20537
     20539     20538     20542     20543     20540     20538     20542     20543
     20541     20538     20542     20543     20545     20544     20548     20549
     20546     20544     20548     20549     20547     20544     20548     20549
     20551     20550     20554     20555     20552     20550     20554     20555
     20553     20550     20554     20555     20557     20556     20560     20561
     20558     20556     20560     20561     20559     20556     20560     20561
     20563     20562     20566     20567     20564     20562     20566     20567
     20565     20562     20566     20567     20569     20568     20572     20573
     20570     20568     20572     20573     20571     20568     20572     20573
     20575     20574     20578     20579     20576     20574     20578     20579
     20577     20574     20578     20579     20581     20580     20584     20585
     20582     20580     20584     20585     20583     20580     20584     20585
     20587     20586     20590     20591     20588     20586     20590     20591
     20589     20586     20590     20591     20593     20592     20596     20597
     20594     20592     20596     20597     20595     20592     20596     20597
     20599     20598     20602     20603     20600     20598     20602     20603
     20601     20598     20602     20603     20605     20604     20608     20609
     20606     20604     20608     20609     20607     20604     20608     20609
     20611     20610     20614     20615     20612     20610     20614     20615
     20613     20610     20614     20615     20617     20616     20620     20621
     20618     20616     20620     20621     20619     20616     20620     20621
     20623     20622     20626     20627     20624     20622     20626     20627
     20625     20622     20626     20627     20629     20628     20632     20633
     20630     20628     20632     20633     20631     20628     20632     20633
     20635     20634     20638     20639     20636     20634     20638     20639
     20637     20634     20638     20639     20641     20640     20644     20645
     20642     20640     20644     20645     20643     20640     20644     20645
     20647     20646     20650     20651     20648     20646     20650     20651
     20649     20646     20650     20651     20653     20652     20656     20657
     20654     20652     20656     20657     20655     20652     20656     20657
     20659     20658     20662     20663     20660     20658     20662     20663
     20661     20658     20662     20663     20665     20664     20668     20669
     20666     20664     20668     20669     20667     20664     20668     20669
     20671     20670     20674     20675     20672     20670     20674     20675
     20673     20670     20674     20675     20677     20676     20680     20681
     20678     20676     20680     20681     20679     20676     20680     20681
     20683     20682     20686     20687     20684     20682     20686     20687
     20685     20682     20686     20687     20689     20688     20692     20693
     20690     20688     20692     20693     20691     20688     20692     20693
     20695     20694     20698     20699     20696     20694     20698     20699
     20697     20694     20698     20699     20701     20700     20704     20705
     20702     20700     20704     20705     20703     20700     20704     20705
     20707     20706     20710     20711     20708     20706     20710     20711
     20709     20706     20710     20711     20713     20712     20716     20717
     20714     20712     20716     20717     20715     20712     20716     20717
     20719     20718     20722     20723     20720     20718     20722     20723
     20721     20718     20722     20723     20725     20724     20728     20729
     20726     20724     20728     20729     20727     20724     20728     20729
     20731     20730     20734     20735     20732     20730     20734     20735
     20733     20730     20734     20735     20737     20736     20740     20741
     20738     20736     20740     20741     20739     20736     20740     20741
     20743     20742     20746     20747     20744     20742     20746     20747
     20745     20742     20746     20747     20749     20748     20752     20753
     20750     20748     20752     20753     20751     20748     20752     20753
     20755     20754     20758     20759     20756     20754     20758     20759
     20757     20754     20758     20759     20761     20760     20764     20765
     20762     20760     20764     20765     20763     20760     20764     20765
     20767     20766     20770     20771     20768     20766     20770     20771
     20769     20766     20770     20771     20773     20772     20776     20777
     20774     20772     20776     20777     20775     20772     20776     20777
     20779     20778     20782     20783     20780     20778     20782     20783
     20781     20778     20782     20783     20785     20784     20788     20789
     20786     20784     20788     20789     20787     20784     20788     20789
     20791     20790     20794     20795     20792     20790     20794     20795
     20793     20790     20794     20795     20797     20796     20800     20801
     20798     20796     20800     20801     20799     20796     20800     20801
     20803     20802     20806     20807     20804     20802     20806     20807
     20805     20802     20806     20807     20809     20808     20812     20813
     20810     20808     20812     20813     20811     20808     20812     20813
     20815     20814     20818     20819     20816     20814     20818     20819
     20817     20814     20818     20819     20821     20820     20824     20825
     20822     20820     20824     20825     20823     20820     20824     20825
     20827     20826     20830     20831     20828     20826     20830     20831
     20829     20826     20830     20831     20833     20832     20836     20837
     20834     20832     20836     20837     20835     20832     20836     20837
     20839     20838     20842     20843     20840     20838     20842     20843
     20841     20838     20842     20843     20845     20844     20848     20849
     20846     20844     20848     20849     20847     20844     20848     20849
     20851     20850     20854     20855     20852     20850     20854     20855
     20853     20850     20854     20855     20857     20856     20860     20861
     20858     20856     20860     20861     20859     20856     20860     20861
     20863     20862     20866     20867     20864     20862     20866     20867
     20865     20862     20866     20867     20869     20868     20872     20873
     20870     20868     20872     20873     20871     20868     20872     20873
     20875     20874     20878     20879     20876     20874     20878     20879
     20877     20874     20878     20879     20881     20880     20884     20885
     20882     20880     20884     20885     20883     20880     20884     20885
     20887     20886     20890     20891     20888     20886     20890     20891
     20889     20886     20890     20891     20893     20892     20896     20897
     20894     20892     20896     20897     20895     20892     20896     20897
     20899     20898     20902     20903     20900     20898     20902     20903
     20901     20898     20902     20903     20905     20904     20908     20909
     20906     20904     20908     20909     20907     20904     20908     20909
     20911     20910     20914     20915     20912     20910     20914     20915
     20913     20910     20914     20915     20917     20916     20920     20921
     20918     20916     20920     20921     20919     20916     20920     20921
     20923     20922     20926     20927     20924     20922     20926     20927
     20925     20922     20926     20927     20929     20928     20932     20933
     20930     20928     20932     20933     20931     20928     20932     20933
     20935     20934     20938     20939     20936     20934     20938     20939
     20937     20934     20938     20939     20941     20940     20944     20945
     20942     20940     20944     20945     20943     20940     20944     20945
     20947     20946     20950     20951     20948     20946     20950     20951
     20949     20946     20950     20951     20953     20952     20956     20957
     20954     20952     20956     20957     20955     20952     20956     20957
     20959     20958     20962     20963     20960     20958     20962     20963
     20961     20958     20962     20963     20965     20964     20968     20969
     20966     20964     20968     20969     20967     20964     20968     20969
     20971     20970     20974     20975     20972     20970     20974     20975
     20973     20970     20974     20975     20977     20976     20980     20981
     20978     20976     20980     20981     20979     20976     20980     20981
     20983     20982     20986     20987     20984     20982     20986     20987
     20985     20982     20986     20987     20989     20988     20992     20993
     20990     20988     20992     20993     20991     20988     20992     20993
     20995     20994     20998     20999     20996     20994     20998     20999
     20997     20994     20998     20999     21001     21000     21004     21005
     21002     21000     21004     21005     21003     21000     21004     21005
     21007     21006     21010     21011     21008     21006     21010     21011
     21009     21006     21010     21011     21013     21012     21016     21017
     21014     21012     21016     21017     21015     21012     21016     21017
     21019     21018     21022     21023     21020     21018     21022     21023
     21021     21018     21022     21023     21025     21024     21028     21029
     21026     21024     21028     21029     21027     21024     21028     21029
     21031     21030     21034     21035     21032     21030     21034     21035
     21033     21030     21034     21035     21037     21036     21040     21041
     21038     21036     21040     21041     21039     21036     21040     21041
     21043     21042     21046     21047     21044     21042     21046     21047
     21045     21042     21046     21047     21049     21048     21052     21053
     21050     21048     21052     21053     21051     21048     21052     21053
     21055     21054     21058     21059     21056     21054     21058     21059
     21057     21054     21058     21059     21061     21060     21064     21065
     21062     21060     21064     21065     21063     21060     21064     21065
     21067     21066     21070     21071     21068     21066     21070     21071
     21069     21066     21070     21071     21073     21072     21076     21077
     21074     21072     21076     21077     21075     21072     21076     21077
     21079     21078     21082     21083     21080     21078     21082     21083
     21081     21078     21082     21083     21085     21084     21088     21089
     21086     21084     21088     21089     21087     21084     21088     21089
     21091     21090     21094     21095     21092     21090     21094     21095
     21093     21090     21094     21095     21097     21096     21100     21101
     21098     21096     21100     21101     21099     21096     21100     21101
     21103     21102     21106     21107     21104     21102     21106     21107
     21105     21102     21106     21107     21109     21108     21112     21113
     21110     21108     21112     21113     21111     21108     21112     21113
     21115     21114     21118     21119     21116     21114     21118     21119
     21117     21114     21118     21119     21121     21120     21124     21125
     21122     21120     21124     21125     21123     21120     21124     21125
     21127     21126     21130     21131     21128     21126     21130     21131
     21129     21126     21130     21131     21133     21132     21136     21137
     21134     21132     21136     21137     21135     21132     21136     21137
     21139     21138     21142     21143     21140     21138     21142     21143
     21141     21138     21142     21143     21145     21144     21148     21149
     21146     21144     21148     21149     21147     21144     21148     21149
     21151     21150     21154     21155     21152     21150     21154     21155
     21153     21150     21154     21155     21157     21156     21160     21161
     21158     21156     21160     21161     21159     21156     21160     21161
     21163     21162     21166     21167     21164     21162     21166     21167
     21165     21162     21166     21167     21169     21168     21172     21173
     21170     21168     21172     21173     21171     21168     21172     21173
     21175     21174     21178     21179     21176     21174     21178     21179
     21177     21174     21178     21179     21181     21180     21184     21185
     21182     21180     21184     21185     21183     21180     21184     21185
     21187     21186     21190     21191     21188     21186     21190     21191
     21189     21186     21190     21191     21193     21192     21196     21197
     21194     21192     21196     21197     21195     21192     21196     21197
     21199     21198     21202     21203     21200     21198     21202     21203
     21201     21198     21202     21203     21205     21204     21208     21209
     21206     21204     21208     21209     21207     21204     21208     21209
     21211     21210     21214     21215     21212     21210     21214     21215
     21213     21210     21214     21215     21217     21216     21220     21221
     21218     21216     21220     21221     21219     21216     21220     21221
     21223     21222     21226     21227     21224     21222     21226     21227
     21225     21222     21226     21227     21229     21228     21232     21233
     21230     21228     21232     21233     21231     21228     21232     21233
     21235     21234     21238     21239     21236     21234     21238     21239
     21237     21234     21238     21239     21241     21240     21244     21245
     21242     21240     21244     21245     21243     21240     21244     21245
     21247     21246     21250     21251     21248     21246     21250     21251
     21249     21246     21250     21251     21253     21252     21256     21257
     21254     21252     21256     21257     21255     21252     21256     21257
     21259     21258     21262     21263     21260     21258     21262     21263
     21261     21258     21262     21263     21265     21264     21268     21269
     21266     21264     21268     21269     21267     21264     21268     21269
     21271     21270     21274     21275     21272     21270     21274     21275
     21273     21270     21274     21275     21277     21276     21280     21281
     21278     21276     21280     21281     21279     21276     21280     21281
     21283     21282     21286     21287     21284     21282     21286     21287
     21285     21282     21286     21287     21289     21288     21292     21293
     21290     21288     21292     21293     21291     21288     21292     21293
     21295     21294     21298     21299     21296     21294     21298     21299
     21297     21294     21298     21299     21301     21300     21304     21305
     21302     21300     21304     21305     21303     21300     21304     21305
     21307     21306     21310     21311     21308     21306     21310     21311
     21309     21306     21310     21311     21313     21312     21316     21317
     21314     21312     21316     21317     21315     21312     21316     21317
     21319     21318     21322     21323     21320     21318     21322     21323
     21321     21318     21322     21323     21325     21324     21328     21329
     21326     21324     21328     21329     21327     21324     21328     21329
     21331     21330     21334     21335     21332     21330     21334     21335
     21333     21330     21334     21335     21337     21336     21340     21341
     21338     21336     21340     21341     21339     21336     21340     21341
     21343     21342     21346     21347     21344     21342     21346     21347
     21345     21342     21346     21347     21349     21348     21352     21353
     21350     21348     21352     21353     21351     21348     21352     21353
     21355     21354     21358     21359     21356     21354     21358     21359
     21357     21354     21358     21359     21361     21360     21364     21365
     21362     21360     21364     21365     21363     21360     21364     21365
     21367     21366     21370     21371     21368     21366     21370     21371
     21369     21366     21370     21371     21373     21372     21376     21377
     21374     21372     21376     21377     21375     21372     21376     21377
     21379     21378     21382     21383     21380     21378     21382     21383
     21381     21378     21382     21383     21385     21384     21388     21389
     21386     21384     21388     21389     21387     21384     21388     21389
     21391     21390     21394     21395     21392     21390     21394     21395
     21393     21390     21394     21395     21397     21396     21400     21401
     21398     21396     21400     21401     21399     21396     21400     21401
     21403     21402     21406     21407     21404     21402     21406     21407
     21405     21402     21406     21407     21409     21408     21412     21413
     21410     21408     21412     21413     21411     21408     21412     21413
     21415     21414     21418     21419     21416     21414     21418     21419
     21417     21414     21418     21419     21421     21420     21424     21425
     21422     21420     21424     21425     21423     21420     21424     21425
     21427     21426     21430     21431     21428     21426     21430     21431
     21429     21426     21430     21431     21433     21432     21436     21437
     21434     21432     21436     21437     21435     21432     21436     21437
     21439     21438     21442     21443     21440     21438     21442     21443
     21441     21438     21442     21443     21445     21444     21448     21449
     21446     21444     21448     21449     21447     21444     21448     21449
     21451     21450     21454     21455     21452     21450     21454     21455
     21453     21450     21454     21455     21457     21456     21460     21461
     21458     21456     21460     21461     21459     21456     21460     21461
     21463     21462     21466     21467     21464     21462     21466     21467
     21465     21462     21466     21467     21469     21468     21472     21473
     21470     21468     21472     21473     21471     21468     21472     21473
     21475     21474     21478     21479     21476     21474     21478     21479
     21477     21474     21478     21479     21481     21480     21484     21485
     21482     21480     21484     21485     21483     21480     21484     21485
     21487     21486     21490     21491     21488     21486     21490     21491
     21489     21486     21490     21491     21493     21492     21496     21497
     21494     21492     21496     21497     21495     21492     21496     21497
     21499     21498     21502     21503     21500     21498     21502     21503
     21501     21498     21502     21503     21505     21504     21508     21509
     21506     21504     21508     21509     21507     21504     21508     21509
     21511     21510     21514     21515     21512     21510     21514     21515
     21513     21510     21514     21515     21517     21516     21520     21521
     21518     21516     21520     21521     21519     21516     21520     21521
     21523     21522     21526     21527     21524     21522     21526     21527
     21525     21522     21526     21527     21529     21528     21532     21533
     21530     21528     21532     21533     21531     21528     21532     21533
     21535     21534     21538     21539     21536     21534     21538     21539
     21537     21534     21538     21539     21541     21540     21544     21545
     21542     21540     21544     21545     21543     21540     21544     21545
     21547     21546     21550     21551     21548     21546     21550     21551
     21549     21546     21550     21551     21553     21552     21556     21557
     21554     21552     21556     21557     21555     21552     21556     21557
     21559     21558     21562     21563     21560     21558     21562     21563
     21561     21558     21562     21563     21565     21564     21568     21569
     21566     21564     21568     21569     21567     21564     21568     21569
     21571     21570     21574     21575     21572     21570     21574     21575
     21573     21570     21574     21575     21577     21576     21580     21581
     21578     21576     21580     21581     21579     21576     21580     21581
     21583     21582     21586     21587     21584     21582     21586     21587
     21585     21582     21586     21587     21589     21588     21592     21593
     21590     21588     21592     21593     21591     21588     21592     21593
     21595     21594     21598     21599     21596     21594     21598     21599
     21597     21594     21598     21599     21601     21600     21604     21605
     21602     21600     21604     21605     21603     21600     21604     21605
     21607     21606     21610     21611     21608     21606     21610     21611
     21609     21606     21610     21611     21613     21612     21616     21617
     21614     21612     21616     21617     21615     21612     21616     21617
     21619     21618     21622     21623     21620     21618     21622     21623
     21621     21618     21622     21623     21625     21624     21628     21629
     21626     21624     21628     21629     21627     21624     21628     21629
     21631     21630     21634     21635     21632     21630     21634     21635
     21633     21630     21634     21635     21637     21636     21640     21641
     21638     21636     21640     21641     21639     21636     21640     21641
     21643     21642     21646     21647     21644     21642     21646     21647
     21645     21642     21646     21647     21649     21648     21652     21653
     21650     21648     21652     21653     21651     21648     21652     21653
     21655     21654     21658     21659     21656     21654     21658     21659
     21657     21654     21658     21659     21661     21660     21664     21665
     21662     21660     21664     21665     21663     21660     21664     21665
     21667     21666     21670     21671     21668     21666     21670     21671
     21669     21666     21670     21671     21673     21672     21676     21677
     21674     21672     21676     21677     21675     21672     21676     21677
     21679     21678     21682     21683     21680     21678     21682     21683
     21681     21678     21682     21683     21685     21684     21688     21689
     21686     21684     21688     21689     21687     21684     21688     21689
     21691     21690     21694     21695     21692     21690     21694     21695
     21693     21690     21694     21695     21697     21696     21700     21701
     21698     21696     21700     21701     21699     21696     21700     21701
     21703     21702     21706     21707     21704     21702     21706     21707
     21705     21702     21706     21707     21709     21708     21712     21713
     21710     21708     21712     21713     21711     21708     21712     21713
     21715     21714     21718     21719     21716     21714     21718     21719
     21717     21714     21718     21719     21721     21720     21724     21725
     21722     21720     21724     21725     21723     21720     21724     21725
     21727     21726     21730     21731     21728     21726     21730     21731
     21729     21726     21730     21731     21733     21732     21736     21737
     21734     21732     21736     21737     21735     21732     21736     21737
     21739     21738     21742     21743     21740     21738     21742     21743
     21741     21738     21742     21743     21745     21744     21748     21749
     21746     21744     21748     21749     21747     21744     21748     21749
     21751     21750     21754     21755     21752     21750     21754     21755
     21753     21750     21754     21755     21757     21756     21760     21761
     21758     21756     21760     21761     21759     21756     21760     21761
     21763     21762     21766     21767     21764     21762     21766     21767
     21765     21762     21766     21767     21769     21768     21772     21773
     21770     21768     21772     21773     21771     21768     21772     21773
     21775     21774     21778     21779     21776     21774     21778     21779
     21777     21774     21778     21779     21781     21780     21784     21785
     21782     21780     21784     21785     21783     21780     21784     21785
     21787     21786     21790     21791     21788     21786     21790     21791
     21789     21786     21790     21791     21793     21792     21796     21797
     21794     21792     21796     21797     21795     21792     21796     21797
     21799     21798     21802     21803     21800     21798     21802     21803
     21801     21798     21802     21803     21805     21804     21808     21809
     21806     21804     21808     21809     21807     21804     21808     21809
     21811     21810     21814     21815     21812     21810     21814     21815
     21813     21810     21814     21815     21817     21816     21820     21821
     21818     21816     21820     21821     21819     21816     21820     21821
     21823     21822     21826     21827     21824     21822     21826     21827
     21825     21822     21826     21827     21829     21828     21832     21833
     21830     21828     21832     21833     21831     21828     21832     21833
     21835     21834     21838     21839     21836     21834     21838     21839
     21837     21834     21838     21839     21841     21840     21844     21845
     21842     21840     21844     21845     21843     21840     21844     21845
     21847     21846     21850     21851     21848     21846     21850     21851
     21849     21846     21850     21851     21853     21852     21856     21857
     21854     21852     21856     21857     21855     21852     21856     21857
     21859     21858     21862     21863     21860     21858     21862     21863
     21861     21858     21862     21863     21865     21864     21868     21869
     21866     21864     21868     21869     21867     21864     21868     21869
     21871     21870     21874     21875     21872     21870     21874     21875
     21873     21870     21874     21875     21877     21876     21880     21881
     21878     21876     21880     21881     21879     21876     21880     21881
     21883     21882     21886     21887     21884     21882     21886     21887
     21885     21882     21886     21887     21889     21888     21892     21893
     21890     21888     21892     21893     21891     21888     21892     21893
     21895     21894     21898     21899     21896     21894     21898     21899
     21897     21894     21898     21899     21901     21900     21904     21905
     21902     21900     21904     21905     21903     21900     21904     21905
     21907     21906     21910     21911     21908     21906     21910     21911
     21909     21906     21910     21911     21913     21912     21916     21917
     21914     21912     21916     21917     21915     21912     21916     21917
     21919     21918     21922     21923     21920     21918     21922     21923
     21921     21918     21922     21923     21925     21924     21928     21929
     21926     21924     21928     21929     21927     21924     21928     21929
     21931     21930     21934     21935     21932     21930     21934     21935
     21933     21930     21934     21935     21937     21936     21940     21941
     21938     21936     21940     21941     21939     21936     21940     21941
     21943     21942     21946     21947     21944     21942     21946     21947
     21945     21942     21946     21947     21949     21948     21952     21953
     21950     21948     21952     21953     21951     21948     21952     21953
     21955     21954     21958     21959     21956     21954     21958     21959
     21957     21954     21958     21959     21961     21960     21964     21965
     21962     21960     21964     21965     21963     21960     21964     21965
     21967     21966     21970     21971     21968     21966     21970     21971
     21969     21966     21970     21971     21973     21972     21976     21977
     21974     21972     21976     21977     21975     21972     21976     21977
     21979     21978     21982     21983     21980     21978     21982     21983
     21981     21978     21982     21983     21985     21984     21988     21989
     21986     21984     21988     21989     21987     21984     21988     21989
     21991     21990     21994     21995     21992     21990     21994     21995
     21993     21990     21994     21995     21997     21996     22000     22001
     21998     21996     22000     22001     21999     21996     22000     22001
     22003     22002     22006     22007     22004     22002     22006     22007
     22005     22002     22006     22007     22009     22008     22012     22013
     22010     22008     22012     22013     22011     22008     22012     22013
     22015     22014     22018     22019     22016     22014     22018     22019
     22017     22014     22018     22019     22021     22020     22024     22025
     22022     22020     22024     22025     22023     22020     22024     22025
     22027     22026     22030     22031     22028     22026     22030     22031
     22029     22026     22030     22031     22033     22032     22036     22037
     22034     22032     22036     22037     22035     22032     22036     22037
     22039     22038     22042     22043     22040     22038     22042     22043
     22041     22038     22042     22043     22045     22044     22048     22049
     22046     22044     22048     22049     22047     22044     22048     22049
     22051     22050     22054     22055     22052     22050     22054     22055
     22053     22050     22054     22055     22057     22056     22060     22061
     22058     22056     22060     22061     22059     22056     22060     22061
     22063     22062     22066     22067     22064     22062     22066     22067
     22065     22062     22066     22067     22069     22068     22072     22073
     22070     22068     22072     22073     22071     22068     22072     22073
     22075     22074     22078     22079     22076     22074     22078     22079
     22077     22074     22078     22079     22081     22080     22084     22085
     22082     22080     22084     22085     22083     22080     22084     22085
     22087     22086     22090     22091     22088     22086     22090     22091
     22089     22086     22090     22091     22093     22092     22096     22097
     22094     22092     22096     22097     22095     22092     22096     22097
     22099     22098     22102     22103     22100     22098     22102     22103
     22101     22098     22102     22103     22105     22104     22108     22109
     22106     22104     22108     22109     22107     22104     22108     22109
     22111     22110     22114     22115     22112     22110     22114     22115
     22113     22110     22114     22115     22117     22116     22120     22121
     22118     22116     22120     22121     22119     22116     22120     22121
     22123     22122     22126     22127     22124     22122     22126     22127
     22125     22122     22126     22127     22129     22128     22132     22133
     22130     22128     22132     22133     22131     22128     22132     22133
     22135     22134     22138     22139     22136     22134     22138     22139
     22137     22134     22138     22139     22141     22140     22144     22145
     22142     22140     22144     22145     22143     22140     22144     22145
     22147     22146     22150     22151     22148     22146     22150     22151
     22149     22146     22150     22151     22153     22152     22156     22157
     22154     22152     22156     22157     22155     22152     22156     22157
     22159     22158     22162     22163     22160     22158     22162     22163
     22161     22158     22162     22163     22165     22164     22168     22169
     22166     22164     22168     22169     22167     22164     22168     22169
     22171     22170     22174     22175     22172     22170     22174     22175
     22173     22170     22174     22175     22177     22176     22180     22181
     22178     22176     22180     22181     22179     22176     22180     22181
     22183     22182     22186     22187     22184     22182     22186     22187
     22185     22182     22186     22187     22189     22188     22192     22193
     22190     22188     22192     22193     22191     22188     22192     22193
     22195     22194     22198     22199     22196     22194     22198     22199
     22197     22194     22198     22199     22201     22200     22204     22205
     22202     22200     22204     22205     22203     22200     22204     22205
     22207     22206     22210     22211     22208     22206     22210     22211
     22209     22206     22210     22211     22213     22212     22216     22217
     22214     22212     22216     22217     22215     22212     22216     22217
     22219     22218     22222     22223     22220     22218     22222     22223
     22221     22218     22222     22223     22225     22224     22228     22229
     22226     22224     22228     22229     22227     22224     22228     22229
     22231     22230     22234     22235     22232     22230     22234     22235
     22233     22230     22234     22235     22237     22236     22240     22241
     22238     22236     22240     22241     22239     22236     22240     22241
     22243     22242     22246     22247     22244     22242     22246     22247
     22245     22242     22246     22247     22249     22248     22252     22253
     22250     22248     22252     22253     22251     22248     22252     22253
     22255     22254     22258     22259     22256     22254     22258     22259
     22257     22254     22258     22259     22261     22260     22264     22265
     22262     22260     22264     22265     22263     22260     22264     22265
     22267     22266     22270     22271     22268     22266     22270     22271
     22269     22266     22270     22271     22273     22272     22276     22277
     22274     22272     22276     22277     22275     22272     22276     22277
     22279     22278     22282     22283     22280     22278     22282     22283
     22281     22278     22282     22283     22285     22284     22288     22289
     22286     22284     22288     22289     22287     22284     22288     22289
     22291     22290     22294     22295     22292     22290     22294     22295
     22293     22290     22294     22295     22297     22296     22300     22301
     22298     22296     22300     22301     22299     22296     22300     22301
     22303     22302     22306     22307     22304     22302     22306     22307
     22305     22302     22306     22307     22309     22308     22312     22313
     22310     22308     22312     22313     22311     22308     22312     22313
     22315     22314     22318     22319     22316     22314     22318     22319
     22317     22314     22318     22319     22321     22320     22324     22325
     22322     22320     22324     22325     22323     22320     22324     22325
     22327     22326     22330     22331     22328     22326     22330     22331
     22329     22326     22330     22331     22333     22332     22336     22337
     22334     22332     22336     22337     22335     22332     22336     22337
     22339     22338     22342     22343     22340     22338     22342     22343
     22341     22338     22342     22343     22345     22344     22348     22349
     22346     22344     22348     22349     22347     22344     22348     22349
     22351     22350     22354     22355     22352     22350     22354     22355
     22353     22350     22354     22355     22357     22356     22360     22361
     22358     22356     22360     22361     22359     22356     22360     22361
     22363     22362     22366     22367     22364     22362     22366     22367
     22365     22362     22366     22367     22369     22368     22372     22373
     22370     22368     22372     22373     22371     22368     22372     22373
     22375     22374     22378     22379     22376     22374     22378     22379
     22377     22374     22378     22379     22381     22380     22384     22385
     22382     22380     22384     22385     22383     22380     22384     22385
     22387     22386     22390     22391     22388     22386     22390     22391
     22389     22386     22390     22391     22393     22392     22396     22397
     22394     22392     22396     22397     22395     22392     22396     22397
     22399     22398     22402     22403     22400     22398     22402     22403
     22401     22398     22402     22403     22405     22404     22408     22409
     22406     22404     22408     22409     22407     22404     22408     22409
     22411     22410     22414     22415     22412     22410     22414     22415
     22413     22410     22414     22415     22417     22416     22420     22421
     22418     22416     22420     22421     22419     22416     22420     22421
     22423     22422     22426     22427     22424     22422     22426     22427
     22425     22422     22426     22427     22429     22428     22432     22433
     22430     22428     22432     22433     22431     22428     22432     22433
     22435     22434     22438     22439     22436     22434     22438     22439
     22437     22434     22438     22439     22441     22440     22444     22445
     22442     22440     22444     22445     22443     22440     22444     22445
     22447     22446     22450     22451     22448     22446     22450     22451
     22449     22446     22450     22451     22453     22452     22456     22457
     22454     22452     22456     22457     22455     22452     22456     22457
     22459     22458     22462     22463     22460     22458     22462     22463
     22461     22458     22462     22463     22465     22464     22468     22469
     22466     22464     22468     22469     22467     22464     22468     22469
     22471     22470     22474     22475     22472     22470     22474     22475
     22473     22470     22474     22475     22477     22476     22480     22481
     22478     22476     22480     22481     22479     22476     22480     22481
     22483     22482     22486     22487     22484     22482     22486     22487
     22485     22482     22486     22487     22489     22488     22492     22493
     22490     22488     22492     22493     22491     22488     22492     22493
     22495     22494     22498     22499     22496     22494     22498     22499
     22497     22494     22498     22499     22501     22500     22504     22505
     22502     22500     22504     22505     22503     22500     22504     22505
     22507     22506     22510     22511     22508     22506     22510     22511
     22509     22506     22510     22511     22513     22512     22516     22517
     22514     22512     22516     22517     22515     22512     22516     22517
     22519     22518     22522     22523     22520     22518     22522     22523
     22521     22518     22522     22523     22525     22524     22528     22529
     22526     22524     22528     22529     22527     22524     22528     22529
     22531     22530     22534     22535     22532     22530     22534     22535
     22533     22530     22534     22535     22537     22536     22540     22541
     22538     22536     22540     22541     22539     22536     22540     22541
     22543     22542     22546     22547     22544     22542     22546     22547
     22545     22542     22546     22547     22549     22548     22552     22553
     22550     22548     22552     22553     22551     22548     22552     22553
     22555     22554     22558     22559     22556     22554     22558     22559
     22557     22554     22558     22559     22561     22560     22564     22565
     22562     22560     22564     22565     22563     22560     22564     22565
     22567     22566     22570     22571     22568     22566     22570     22571
     22569     22566     22570     22571     22573     22572     22576     22577
     22574     22572     22576     22577     22575     22572     22576     22577
     22579     22578     22582     22583     22580     22578     22582     22583
     22581     22578     22582     22583     22585     22584     22588     22589
     22586     22584     22588     22589     22587     22584     22588     22589
     22591     22590     22594     22595     22592     22590     22594     22595
     22593     22590     22594     22595     22597     22596     22600     22601
     22598     22596     22600     22601     22599     22596     22600     22601
     22603     22602     22606     22607     22604     22602     22606     22607
     22605     22602     22606     22607     22609     22608     22612     22613
     22610     22608     22612     22613     22611     22608     22612     22613
     22615     22614     22618     22619     22616     22614     22618     22619
     22617     22614     22618     22619     22621     22620     22624     22625
     22622     22620     22624     22625     22623     22620     22624     22625
     22627     22626     22630     22631     22628     22626     22630     22631
     22629     22626     22630     22631     22633     22632     22636     22637
     22634     22632     22636     22637     22635     22632     22636     22637
     22639     22638     22642     22643     22640     22638     22642     22643
     22641     22638     22642     22643     22645     22644     22648     22649
     22646     22644     22648     22649     22647     22644     22648     22649
     22651     22650     22654     22655     22652     22650     22654     22655
     22653     22650     22654     22655     22657     22656     22660     22661
     22658     22656     22660     22661     22659     22656     22660     22661
     22663     22662     22666     22667     22664     22662     22666     22667
     22665     22662     22666     22667     22669     22668     22672     22673
     22670     22668     22672     22673     22671     22668     22672     22673
     22675     22674     22678     22679     22676     22674     22678     22679
     22677     22674     22678     22679     22681     22680     22684     22685
     22682     22680     22684     22685     22683     22680     22684     22685
     22687     22686     22690     22691     22688     22686     22690     22691
     22689     22686     22690     22691     22693     22692     22696     22697
     22694     22692     22696     22697     22695     22692     22696     22697
     22699     22698     22702     22703     22700     22698     22702     22703
     22701     22698     22702     22703     22705     22704     22708     22709
     22706     22704     22708     22709     22707     22704     22708     22709
     22711     22710     22714     22715     22712     22710     22714     22715
     22713     22710     22714     22715     22717     22716     22720     22721
     22718     22716     22720     22721     22719     22716     22720     22721
     22723     22722     22726     22727     22724     22722     22726     22727
     22725     22722     22726     22727     22729     22728     22732     22733
     22730     22728     22732     22733     22731     22728     22732     22733
     22735     22734     22738     22739     22736     22734     22738     22739
     22737     22734     22738     22739     22741     22740     22744     22745
     22742     22740     22744     22745     22743     22740     22744     22745
     22747     22746     22750     22751     22748     22746     22750     22751
     22749     22746     22750     22751     22753     22752     22756     22757
     22754     22752     22756     22757     22755     22752     22756     22757
     22759     22758     22762     22763     22760     22758     22762     22763
     22761     22758     22762     22763     22765     22764     22768     22769
     22766     22764     22768     22769     22767     22764     22768     22769
     22771     22770     22774     22775     22772     22770     22774     22775
     22773     22770     22774     22775     22777     22776     22780     22781
     22778     22776     22780     22781     22779     22776     22780     22781
     22783     22782     22786     22787     22784     22782     22786     22787
     22785     22782     22786     22787     22789     22788     22792     22793
     22790     22788     22792     22793     22791     22788     22792     22793
     22795     22794     22798     22799     22796     22794     22798     22799
     22797     22794     22798     22799     22801     22800     22804     22805
     22802     22800     22804     22805     22803     22800     22804     22805
     22807     22806     22810     22811     22808     22806     22810     22811
     22809     22806     22810     22811     22813     22812     22816     22817
     22814     22812     22816     22817     22815     22812     22816     22817
     22819     22818     22822     22823     22820     22818     22822     22823
     22821     22818     22822     22823     22825     22824     22828     22829
     22826     22824     22828     22829     22827     22824     22828     22829
     22831     22830     22834     22835     22832     22830     22834     22835
     22833     22830     22834     22835     22837     22836     22840     22841
     22838     22836     22840     22841     22839     22836     22840     22841
     22843     22842     22846     22847     22844     22842     22846     22847
     22845     22842     22846     22847     22849     22848     22852     22853
     22850     22848     22852     22853     22851     22848     22852     22853
     22855     22854     22858     22859     22856     22854     22858     22859
     22857     22854     22858     22859     22861     22860     22864     22865
     22862     22860     22864     22865     22863     22860     22864     22865
     22867     22866     22870     22871     22868     22866     22870     22871
     22869     22866     22870     22871     22873     22872     22876     22877
     22874     22872     22876     22877     22875     22872     22876     22877
     22879     22878     22882     22883     22880     22878     22882     22883
     22881     22878     22882     22883     22885     22884     22888     22889
     22886     22884     22888     22889     22887     22884     22888     22889
     22891     22890     22894     22895     22892     22890     22894     22895
     22893     22890     22894     22895     22897     22896     22900     22901
     22898     22896     22900     22901     22899     22896     22900     22901
     22903     22902     22906     22907     22904     22902     22906     22907
     22905     22902     22906     22907     22909     22908     22912     22913
     22910     22908     22912     22913     22911     22908     22912     22913
     22915     22914     22918     22919     22916     22914     22918     22919
     22917     22914     22918     22919     22921     22920     22924     22925
     22922     22920     22924     22925     22923     22920     22924     22925
     22927     22926     22930     22931     22928     22926     22930     22931
     22929     22926     22930     22931     22933     22932     22936     22937
     22934     22932     22936     22937     22935     22932     22936     22937
     22939     22938     22942     22943     22940     22938     22942     22943
     22941     22938     22942     22943     22945     22944     22948     22949
     22946     22944     22948     22949     22947     22944     22948     22949
     22951     22950     22954     22955     22952     22950     22954     22955
     22953     22950     22954     22955     22957     22956     22960     22961
     22958     22956     22960     22961     22959     22956     22960     22961
     22963     22962     22966     22967     22964     22962     22966     22967
     22965     22962     22966     22967     22969     22968     22972     22973
     22970     22968     22972     22973     22971     22968     22972     22973
     22975     22974     22978     22979     22976     22974     22978     22979
     22977     22974     22978     22979     22981     22980     22984     22985
     22982     22980     22984     22985     22983     22980     22984     22985
     22987     22986     22990     22991     22988     22986     22990     22991
     22989     22986     22990     22991     22993     22992     22996     22997
     22994     22992     22996     22997     22995     22992     22996     22997
     22999     22998     23002     23003     23000     22998     23002     23003
     23001     22998     23002     23003     23005     23004     23008     23009
     23006     23004     23008     23009     23007     23004     23008     23009
     23011     23010     23014     23015     23012     23010     23014     23015
     23013     23010     23014     23015     23017     23016     23020     23021
     23018     23016     23020     23021     23019     23016     23020     23021
     23023     23022     23026     23027     23024     23022     23026     23027
     23025     23022     23026     23027     23029     23028     23032     23033
     23030     23028     23032     23033     23031     23028     23032     23033
     23035     23034     23038     23039     23036     23034     23038     23039
     23037     23034     23038     23039     23041     23040     23044     23045
     23042     23040     23044     23045     23043     23040     23044     23045
     23047     23046     23050     23051     23048     23046     23050     23051
     23049     23046     23050     23051     23053     23052     23056     23057
     23054     23052     23056     23057     23055     23052     23056     23057
     23059     23058     23062     23063     23060     23058     23062     23063
     23061     23058     23062     23063     23065     23064     23068     23069
     23066     23064     23068     23069     23067     23064     23068     23069
     23071     23070     23074     23075     23072     23070     23074     23075
     23073     23070     23074     23075     23077     23076     23080     23081
     23078     23076     23080     23081     23079     23076     23080     23081
     23083     23082     23086     23087     23084     23082     23086     23087
     23085     23082     23086     23087     23089     23088     23092     23093
     23090     23088     23092     23093     23091     23088     23092     23093
     23095     23094     23098     23099     23096     23094     23098     23099
     23097     23094     23098     23099     23101     23100     23104     23105
     23102     23100     23104     23105     23103     23100     23104     23105
     23107     23106     23110     23111     23108     23106     23110     23111
     23109     23106     23110     23111     23113     23112     23116     23117
     23114     23112     23116     23117     23115     23112     23116     23117
     23119     23118     23122     23123     23120     23118     23122     23123
     23121     23118     23122     23123     23125     23124     23128     23129
     23126     23124     23128     23129     23127     23124     23128     23129
     23131     23130     23134     23135     23132     23130     23134     23135
     23133     23130     23134     23135     23137     23136     23140     23141
     23138     23136     23140     23141     23139     23136     23140     23141
     23143     23142     23146     23147     23144     23142     23146     23147
     23145     23142     23146     23147     23149     23148     23152     23153
     23150     23148     23152     23153     23151     23148     23152     23153
     23155     23154     23158     23159     23156     23154     23158     23159
     23157     23154     23158     23159     23161     23160     23164     23165
     23162     23160     23164     23165     23163     23160     23164     23165
     23167     23166     23170     23171     23168     23166     23170     23171
     23169     23166     23170     23171     23173     23172     23176     23177
     23174     23172     23176     23177     23175     23172     23176     23177
     23179     23178     23182     23183     23180     23178     23182     23183
     23181     23178     23182     23183     23185     23184     23188     23189
     23186     23184     23188     23189     23187     23184     23188     23189
     23191     23190     23194     23195     23192     23190     23194     23195
     23193     23190     23194     23195     23197     23196     23200     23201
     23198     23196     23200     23201     23199     23196     23200     23201
     23203     23202     23206     23207     23204     23202     23206     23207
     23205     23202     23206     23207     23209     23208     23212     23213
     23210     23208     23212     23213     23211     23208     23212     23213
     23215     23214     23218     23219     23216     23214     23218     23219
     23217     23214     23218     23219     23221     23220     23224     23225
     23222     23220     23224     23225     23223     23220     23224     23225
     23227     23226     23230     23231     23228     23226     23230     23231
     23229     23226     23230     23231     23233     23232     23236     23237
     23234     23232     23236     23237     23235     23232     23236     23237
     23239     23238     23242     23243     23240     23238     23242     23243
     23241     23238     23242     23243     23245     23244     23248     23249
     23246     23244     23248     23249     23247     23244     23248     23249
     23251     23250     23254     23255     23252     23250     23254     23255
     23253     23250     23254     23255     23257     23256     23260     23261
     23258     23256     23260     23261     23259     23256     23260     23261
     23263     23262     23266     23267     23264     23262     23266     23267
     23265     23262     23266     23267     23269     23268     23272     23273
     23270     23268     23272     23273     23271     23268     23272     23273
     23275     23274     23278     23279     23276     23274     23278     23279
     23277     23274     23278     23279     23281     23280     23284     23285
     23282     23280     23284     23285     23283     23280     23284     23285
     23287     23286     23290     23291     23288     23286     23290     23291
     23289     23286     23290     23291     23293     23292     23296     23297
     23294     23292     23296     23297     23295     23292     23296     23297
     23299     23298     23302     23303     23300     23298     23302     23303
     23301     23298     23302     23303     23305     23304     23308     23309
     23306     23304     23308     23309     23307     23304     23308     23309
     23311     23310     23314     23315     23312     23310     23314     23315
     23313     23310     23314     23315     23317     23316     23320     23321
     23318     23316     23320     23321     23319     23316     23320     23321
     23323     23322     23326     23327     23324     23322     23326     23327
     23325     23322     23326     23327     23329     23328     23332     23333
     23330     23328     23332     23333     23331     23328     23332     23333
     23335     23334     23338     23339     23336     23334     23338     23339
     23337     23334     23338     23339     23341     23340     23344     23345
     23342     23340     23344     23345     23343     23340     23344     23345
     23347     23346     23350     23351     23348     23346     23350     23351
     23349     23346     23350     23351     23353     23352     23356     23357
     23354     23352     23356     23357     23355     23352     23356     23357
     23359     23358     23362     23363     23360     23358     23362     23363
     23361     23358     23362     23363     23365     23364     23368     23369
     23366     23364     23368     23369     23367     23364     23368     23369
     23371     23370     23374     23375     23372     23370     23374     23375
     23373     23370     23374     23375     23377     23376     23380     23381
     23378     23376     23380     23381     23379     23376     23380     23381
     23383     23382     23386     23387     23384     23382     23386     23387
     23385     23382     23386     23387     23389     23388     23392     23393
     23390     23388     23392     23393     23391     23388     23392     23393
     23395     23394     23398     23399     23396     23394     23398     23399
     23397     23394     23398     23399     23401     23400     23404     23405
     23402     23400     23404     23405     23403     23400     23404     23405
     23407     23406     23410     23411     23408     23406     23410     23411
     23409     23406     23410     23411     23413     23412     23416     23417
     23414     23412     23416     23417     23415     23412     23416     23417
     23419     23418     23422     23423     23420     23418     23422     23423
     23421     23418     23422     23423     23425     23424     23428     23429
     23426     23424     23428     23429     23427     23424     23428     23429
     23431     23430     23434     23435     23432     23430     23434     23435
     23433     23430     23434     23435     23437     23436     23440     23441
     23438     23436     23440     23441     23439     23436     23440     23441
     23443     23442     23446     23447     23444     23442     23446     23447
     23445     23442     23446     23447     23449     23448     23452     23453
     23450     23448     23452     23453     23451     23448     23452     23453
     23455     23454     23458     23459     23456     23454     23458     23459
     23457     23454     23458     23459     23461     23460     23464     23465
     23462     23460     23464     23465     23463     23460     23464     23465
     23467     23466     23470     23471     23468     23466     23470     23471
     23469     23466     23470     23471     23473     23472     23476     23477
     23474     23472     23476     23477     23475     23472     23476     23477
     23479     23478     23482     23483     23480     23478     23482     23483
     23481     23478     23482     23483     23485     23484     23488     23489
     23486     23484     23488     23489     23487     23484     23488     23489
     23491     23490     23494     23495     23492     23490     23494     23495
     23493     23490     23494     23495     23497     23496     23500     23501
     23498     23496     23500     23501     23499     23496     23500     23501
     23503     23502     23506     23507     23504     23502     23506     23507
     23505     23502     23506     23507     23509     23508     23512     23513
     23510     23508     23512     23513     23511     23508     23512     23513
     23515     23514     23518     23519     23516     23514     23518     23519
     23517     23514     23518     23519     23521     23520     23524     23525
     23522     23520     23524     23525     23523     23520     23524     23525
     23527     23526     23530     23531     23528     23526     23530     23531
     23529     23526     23530     23531     23533     23532     23536     23537
     23534     23532     23536     23537     23535     23532     23536     23537
     23539     23538     23542     23543     23540     23538     23542     23543
     23541     23538     23542     23543     23545     23544     23548     23549
     23546     23544     23548     23549     23547     23544     23548     23549
     23551     23550     23554     23555     23552     23550     23554     23555
     23553     23550     23554     23555     23557     23556     23560     23561
     23558     23556     23560     23561     23559     23556     23560     23561
     23563     23562     23566     23567     23564     23562     23566     23567
     23565     23562     23566     23567     23569     23568     23572     23573
     23570     23568     23572     23573     23571     23568     23572     23573
     23575     23574     23578     23579     23576     23574     23578     23579
     23577     23574     23578     23579     23581     23580     23584     23585
     23582     23580     23584     23585     23583     23580     23584     23585
     23587     23586     23590     23591     23588     23586     23590     23591
     23589     23586     23590     23591     23593     23592     23596     23597
     23594     23592     23596     23597     23595     23592     23596     23597
     23599     23598     23602     23603     23600     23598     23602     23603
     23601     23598     23602     23603     23605     23604     23608     23609
     23606     23604     23608     23609     23607     23604     23608     23609
     23611     23610     23614     23615     23612     23610     23614     23615
     23613     23610     23614     23615     23617     23616     23620     23621
     23618     23616     23620     23621     23619     23616     23620     23621
     23623     23622     23626     23627     23624     23622     23626     23627
     23625     23622     23626     23627     23629     23628     23632     23633
     23630     23628     23632     23633     23631     23628     23632     23633
     23635     23634     23638     23639     23636     23634     23638     23639
     23637     23634     23638     23639     23641     23640     23644     23645
     23642     23640     23644     23645     23643     23640     23644     23645
     23647     23646     23650     23651     23648     23646     23650     23651
     23649     23646     23650     23651     23653     23652     23656     23657
     23654     23652     23656     23657     23655     23652     23656     23657
     23659     23658     23662     23663     23660     23658     23662     23663
     23661     23658     23662     23663     23665     23664     23668     23669
     23666     23664     23668     23669     23667     23664     23668     23669
     23671     23670     23674     23675     23672     23670     23674     23675
     23673     23670     23674     23675     23677     23676     23680     23681
     23678     23676     23680     23681     23679     23676     23680     23681
     23683     23682     23686     23687     23684     23682     23686     23687
     23685     23682     23686     23687     23689     23688     23692     23693
     23690     23688     23692     23693     23691     23688     23692     23693
     23695     23694     23698     23699     23696     23694     23698     23699
     23697     23694     23698     23699     23701     23700     23704     23705
     23702     23700     23704     23705     23703     23700     23704     23705
     23707     23706     23710     23711     23708     23706     23710     23711
     23709     23706     23710     23711     23713     23712     23716     23717
     23714     23712     23716     23717     23715     23712     23716     23717
     23719     23718     23722     23723     23720     23718     23722     23723
     23721     23718     23722     23723     23725     23724     23728     23729
     23726     23724     23728     23729     23727     23724     23728     23729
     23731     23730     23734     23735     23732     23730     23734     23735
     23733     23730     23734     23735     23737     23736     23740     23741
     23738     23736     23740     23741     23739     23736     23740     23741
     23743     23742     23746     23747     23744     23742     23746     23747
     23745     23742     23746     23747     23749     23748     23752     23753
     23750     23748     23752     23753     23751     23748     23752     23753
     23755     23754     23758     23759     23756     23754     23758     23759
     23757     23754     23758     23759     23761     23760     23764     23765
     23762     23760     23764     23765     23763     23760     23764     23765
     23767     23766     23770     23771     23768     23766     23770     23771
     23769     23766     23770     23771     23773     23772     23776     23777
     23774     23772     23776     23777     23775     23772     23776     23777
     23779     23778     23782     23783     23780     23778     23782     23783
     23781     23778     23782     23783     23785     23784     23788     23789
     23786     23784     23788     23789     23787     23784     23788     23789
     23791     23790     23794     23795     23792     23790     23794     23795
     23793     23790     23794     23795     23797     23796     23800     23801
     23798     23796     23800     23801     23799     23796     23800     23801
     23803     23802     23806     23807     23804     23802     23806     23807
     23805     23802     23806     23807     23809     23808     23812     23813
     23810     23808     23812     23813     23811     23808     23812     23813
     23815     23814     23818     23819     23816     23814     23818     23819
     23817     23814     23818     23819     23821     23820     23824     23825
     23822     23820     23824     23825     23823     23820     23824     23825
     23827     23826     23830     23831     23828     23826     23830     23831
     23829     23826     23830     23831     23833     23832     23836     23837
     23834     23832     23836     23837     23835     23832     23836     23837
     23839     23838     23842     23843     23840     23838     23842     23843
     23841     23838     23842     23843     23845     23844     23848     23849
     23846     23844     23848     23849     23847     23844     23848     23849
     23851     23850     23854     23855     23852     23850     23854     23855
     23853     23850     23854     23855     23857     23856     23860     23861
     23858     23856     23860     23861     23859     23856     23860     23861
     23863     23862     23866     23867     23864     23862     23866     23867
     23865     23862     23866     23867     23869     23868     23872     23873
     23870     23868     23872     23873     23871     23868     23872     23873
     23875     23874     23878     23879     23876     23874     23878     23879
     23877     23874     23878     23879     23881     23880     23884     23885
     23882     23880     23884     23885     23883     23880     23884     23885
     23887     23886     23890     23891     23888     23886     23890     23891
     23889     23886     23890     23891     23893     23892     23896     23897
     23894     23892     23896     23897     23895     23892     23896     23897
     23899     23898     23902     23903     23900     23898     23902     23903
     23901     23898     23902     23903     23905     23904     23908     23909
     23906     23904     23908     23909     23907     23904     23908     23909
     23911     23910     23914     23915     23912     23910     23914     23915
     23913     23910     23914     23915     23917     23916     23920     23921
     23918     23916     23920     23921     23919     23916     23920     23921
     23923     23922     23926     23927     23924     23922     23926     23927
     23925     23922     23926     23927     23929     23928     23932     23933
     23930     23928     23932     23933     23931     23928     23932     23933
     23935     23934     23938     23939     23936     23934     23938     23939
     23937     23934     23938     23939     23941     23940     23944     23945
     23942     23940     23944     23945     23943     23940     23944     23945
     23947     23946     23950     23951     23948     23946     23950     23951
     23949     23946     23950     23951     23953     23952     23956     23957
     23954     23952     23956     23957     23955     23952     23956     23957
     23959     23958     23962     23963     23960     23958     23962     23963
     23961     23958     23962     23963     23965     23964     23968     23969
     23966     23964     23968     23969     23967     23964     23968     23969
     23971     23970     23974     23975     23972     23970     23974     23975
     23973     23970     23974     23975     23977     23976     23980     23981
     23978     23976     23980     23981     23979     23976     23980     23981
     23983     23982     23986     23987     23984     23982     23986     23987
     23985     23982     23986     23987     23989     23988     23992     23993
     23990     23988     23992     23993     23991     23988     23992     23993
     23995     23994     23998     23999     23996     23994     23998     23999
     23997     23994     23998     23999     24001     24000     24004     24005
     24002     24000     24004     24005     24003     24000     24004     24005
     24007     24006     24010     24011     24008     24006     24010     24011
     24009     24006     24010     24011     24013     24012     24016     24017
     24014     24012     24016     24017     24015     24012     24016     24017
     24019     24018     24022     24023     24020     24018     24022     24023
     24021     24018     24022     24023     24025     24024     24028     24029
     24026     24024     24028     24029     24027     24024     24028     24029
     24031     24030     24034     24035     24032     24030     24034     24035
     24033     24030     24034     24035     24037     24036     24040     24041
     24038     24036     24040     24041     24039     24036     24040     24041
     24043     24042     24046     24047     24044     24042     24046     24047
     24045     24042     24046     24047     24049     24048     24052     24053
     24050     24048     24052     24053     24051     24048     24052     24053
     24055     24054     24058     24059     24056     24054     24058     24059
     24057     24054     24058     24059     24061     24060     24064     24065
     24062     24060     24064     24065     24063     24060     24064     24065
     24067     24066     24070     24071     24068     24066     24070     24071
     24069     24066     24070     24071     24073     24072     24076     24077
     24074     24072     24076     24077     24075     24072     24076     24077
     24079     24078     24082     24083     24080     24078     24082     24083
     24081     24078     24082     24083     24085     24084     24088     24089
     24086     24084     24088     24089     24087     24084     24088     24089
     24091     24090     24094     24095     24092     24090     24094     24095
     24093     24090     24094     24095     24097     24096     24100     24101
     24098     24096     24100     24101     24099     24096     24100     24101
     24103     24102     24106     24107     24104     24102     24106     24107
     24105     24102     24106     24107     24109     24108     24112     24113
     24110     24108     24112     24113     24111     24108     24112     24113
     24115     24114     24118     24119     24116     24114     24118     24119
     24117     24114     24118     24119     24121     24120     24124     24125
     24122     24120     24124     24125     24123     24120     24124     24125
     24127     24126     24130     24131     24128     24126     24130     24131
     24129     24126     24130     24131     24133     24132     24136     24137
     24134     24132     24136     24137     24135     24132     24136     24137
     24139     24138     24142     24143     24140     24138     24142     24143
     24141     24138     24142     24143     24145     24144     24148     24149
     24146     24144     24148     24149     24147     24144     24148     24149
     24151     24150     24154     24155     24152     24150     24154     24155
     24153     24150     24154     24155     24157     24156     24160     24161
     24158     24156     24160     24161     24159     24156     24160     24161
     24163     24162     24166     24167     24164     24162     24166     24167
     24165     24162     24166     24167     24169     24168     24172     24173
     24170     24168     24172     24173     24171     24168     24172     24173
     24175     24174     24178     24179     24176     24174     24178     24179
     24177     24174     24178     24179     24181     24180     24184     24185
     24182     24180     24184     24185     24183     24180     24184     24185
     24187     24186     24190     24191     24188     24186     24190     24191
     24189     24186     24190     24191     24193     24192     24196     24197
     24194     24192     24196     24197     24195     24192     24196     24197
     24199     24198     24202     24203     24200     24198     24202     24203
     24201     24198     24202     24203     24205     24204     24208     24209
     24206     24204     24208     24209     24207     24204     24208     24209
     24211     24210     24214     24215     24212     24210     24214     24215
     24213     24210     24214     24215     24217     24216     24220     24221
     24218     24216     24220     24221     24219     24216     24220     24221
     24223     24222     24226     24227     24224     24222     24226     24227
     24225     24222     24226     24227     24229     24228     24232     24233
     24230     24228     24232     24233     24231     24228     24232     24233
     24235     24234     24238     24239     24236     24234     24238     24239
     24237     24234     24238     24239     24241     24240     24244     24245
     24242     24240     24244     24245     24243     24240     24244     24245
     24247     24246     24250     24251     24248     24246     24250     24251
     24249     24246     24250     24251     24253     24252     24256     24257
     24254     24252     24256     24257     24255     24252     24256     24257
     24259     24258     24262     24263     24260     24258     24262     24263
     24261     24258     24262     24263     24265     24264     24268     24269
     24266     24264     24268     24269     24267     24264     24268     24269
     24271     24270     24274     24275     24272     24270     24274     24275
     24273     24270     24274     24275     24277     24276     24280     24281
     24278     24276     24280     24281     24279     24276     24280     24281
     24283     24282     24286     24287     24284     24282     24286     24287
     24285     24282     24286     24287     24289     24288     24292     24293
     24290     24288     24292     24293     24291     24288     24292     24293
     24295     24294     24298     24299     24296     24294     24298     24299
     24297     24294     24298     24299     24301     24300     24304     24305
     24302     24300     24304     24305     24303     24300     24304     24305
     24307     24306     24310     24311     24308     24306     24310     24311
     24309     24306     24310     24311     24313     24312     24316     24317
     24314     24312     24316     24317     24315     24312     24316     24317
     24319     24318     24322     24323     24320     24318     24322     24323
     24321     24318     24322     24323     24325     24324     24328     24329
     24326     24324     24328     24329     24327     24324     24328     24329
     24331     24330     24334     24335     24332     24330     24334     24335
     24333     24330     24334     24335     24337     24336     24340     24341
     24338     24336     24340     24341     24339     24336     24340     24341
     24343     24342     24346     24347     24344     24342     24346     24347
     24345     24342     24346     24347     24349     24348     24352     24353
     24350     24348     24352     24353     24351     24348     24352     24353
     24355     24354     24358     24359     24356     24354     24358     24359
     24357     24354     24358     24359     24361     24360     24364     24365
     24362     24360     24364     24365     24363     24360     24364     24365
     24367     24366     24370     24371     24368     24366     24370     24371
     24369     24366     24370     24371     24373     24372     24376     24377
     24374     24372     24376     24377     24375     24372     24376     24377
     24379     24378     24382     24383     24380     24378     24382     24383
     24381     24378     24382     24383     24385     24384     24388     24389
     24386     24384     24388     24389     24387     24384     24388     24389
     24391     24390     24394     24395     24392     24390     24394     24395
     24393     24390     24394     24395     24397     24396     24400     24401
     24398     24396     24400     24401     24399     24396     24400     24401
     24403     24402     24406     24407     24404     24402     24406     24407
     24405     24402     24406     24407     24409     24408     24412     24413
     24410     24408     24412     24413     24411     24408     24412     24413
     24415     24414     24418     24419     24416     24414     24418     24419
     24417     24414     24418     24419     24421     24420     24424     24425
     24422     24420     24424     24425     24423     24420     24424     24425
     24427     24426     24430     24431     24428     24426     24430     24431
     24429     24426     24430     24431     24433     24432     24436     24437
     24434     24432     24436     24437     24435     24432     24436     24437
     24439     24438     24442     24443     24440     24438     24442     24443
     24441     24438     24442     24443     24445     24444     24448     24449
     24446     24444     24448     24449     24447     24444     24448     24449
     24451     24450     24454     24455     24452     24450     24454     24455
     24453     24450     24454     24455     24457     24456     24460     24461
     24458     24456     24460     24461     24459     24456     24460     24461
     24463     24462     24466     24467     24464     24462     24466     24467
     24465     24462     24466     24467     24469     24468     24472     24473
     24470     24468     24472     24473     24471     24468     24472     24473
     24475     24474     24478     24479     24476     24474     24478     24479
     24477     24474     24478     24479     24481     24480     24484     24485
     24482     24480     24484     24485     24483     24480     24484     24485
     24487     24486     24490     24491     24488     24486     24490     24491
     24489     24486     24490     24491     24493     24492     24496     24497
     24494     24492     24496     24497     24495     24492     24496     24497
     24499     24498     24502     24503     24500     24498     24502     24503
     24501     24498     24502     24503     24505     24504     24508     24509
     24506     24504     24508     24509     24507     24504     24508     24509
     24511     24510     24514     24515     24512     24510     24514     24515
     24513     24510     24514     24515     24517     24516     24520     24521
     24518     24516     24520     24521     24519     24516     24520     24521
     24523     24522     24526     24527     24524     24522     24526     24527
     24525     24522     24526     24527     24529     24528     24532     24533
     24530     24528     24532     24533     24531     24528     24532     24533
     24535     24534     24538     24539     24536     24534     24538     24539
     24537     24534     24538     24539     24541     24540     24544     24545
     24542     24540     24544     24545     24543     24540     24544     24545
     24547     24546     24550     24551     24548     24546     24550     24551
     24549     24546     24550     24551     24553     24552     24556     24557
     24554     24552     24556     24557     24555     24552     24556     24557
     24559     24558     24562     24563     24560     24558     24562     24563
     24561     24558     24562     24563     24565     24564     24568     24569
     24566     24564     24568     24569     24567     24564     24568     24569
     24571     24570     24574     24575     24572     24570     24574     24575
     24573     24570     24574     24575     24577     24576     24580     24581
     24578     24576     24580     24581     24579     24576     24580     24581
     24583     24582     24586     24587     24584     24582     24586     24587
     24585     24582     24586     24587     24589     24588     24592     24593
     24590     24588     24592     24593     24591     24588     24592     24593
     24595     24594     24598     24599     24596     24594     24598     24599
     24597     24594     24598     24599     24601     24600     24604     24605
     24602     24600     24604     24605     24603     24600     24604     24605
     24607     24606     24610     24611     24608     24606     24610     24611
     24609     24606     24610     24611     24613     24612     24616     24617
     24614     24612     24616     24617     24615     24612     24616     24617
     24619     24618     24622     24623     24620     24618     24622     24623
     24621     24618     24622     24623     24625     24624     24628     24629
     24626     24624     24628     24629     24627     24624     24628     24629
     24631     24630     24634     24635     24632     24630     24634     24635
     24633     24630     24634     24635     24637     24636     24640     24641
     24638     24636     24640     24641     24639     24636     24640     24641
     24643     24642     24646     24647     24644     24642     24646     24647
     24645     24642     24646     24647     24649     24648     24652     24653
     24650     24648     24652     24653     24651     24648     24652     24653
     24655     24654     24658     24659     24656     24654     24658     24659
     24657     24654     24658     24659     24661     24660     24664     24665
     24662     24660     24664     24665     24663     24660     24664     24665
     24667     24666     24670     24671     24668     24666     24670     24671
     24669     24666     24670     24671     24673     24672     24676     24677
     24674     24672     24676     24677     24675     24672     24676     24677
     24679     24678     24682     24683     24680     24678     24682     24683
     24681     24678     24682     24683     24685     24684     24688     24689
     24686     24684     24688     24689     24687     24684     24688     24689
     24691     24690     24694     24695     24692     24690     24694     24695
     24693     24690     24694     24695     24697     24696     24700     24701
     24698     24696     24700     24701     24699     24696     24700     24701
     24703     24702     24706     24707     24704     24702     24706     24707
     24705     24702     24706     24707     24709     24708     24712     24713
     24710     24708     24712     24713     24711     24708     24712     24713
     24715     24714     24718     24719     24716     24714     24718     24719
     24717     24714     24718     24719     24721     24720     24724     24725
     24722     24720     24724     24725     24723     24720     24724     24725
     24727     24726     24730     24731     24728     24726     24730     24731
     24729     24726     24730     24731     24733     24732     24736     24737
     24734     24732     24736     24737     24735     24732     24736     24737
     24739     24738     24742     24743     24740     24738     24742     24743
     24741     24738     24742     24743     24745     24744     24748     24749
     24746     24744     24748     24749     24747     24744     24748     24749
     24751     24750     24754     24755     24752     24750     24754     24755
     24753     24750     24754     24755     24757     24756     24760     24761
     24758     24756     24760     24761     24759     24756     24760     24761
     24763     24762     24766     24767     24764     24762     24766     24767
     24765     24762     24766     24767     24769     24768     24772     24773
     24770     24768     24772     24773     24771     24768     24772     24773
     24775     24774     24778     24779     24776     24774     24778     24779
     24777     24774     24778     24779     24781     24780     24784     24785
     24782     24780     24784     24785     24783     24780     24784     24785
     24787     24786     24790     24791     24788     24786     24790     24791
     24789     24786     24790     24791     24793     24792     24796     24797
     24794     24792     24796     24797     24795     24792     24796     24797
     24799     24798     24802     24803     24800     24798     24802     24803
     24801     24798     24802     24803     24805     24804     24808     24809
     24806     24804     24808     24809     24807     24804     24808     24809
     24811     24810     24814     24815     24812     24810     24814     24815
     24813     24810     24814     24815     24817     24816     24820     24821
     24818     24816     24820     24821     24819     24816     24820     24821
     24823     24822     24826     24827     24824     24822     24826     24827
     24825     24822     24826     24827     24829     24828     24832     24833
     24830     24828     24832     24833     24831     24828     24832     24833
     24835     24834     24838     24839     24836     24834     24838     24839
     24837     24834     24838     24839     24841     24840     24844     24845
     24842     24840     24844     24845     24843     24840     24844     24845
     24847     24846     24850     24851     24848     24846     24850     24851
     24849     24846     24850     24851     24853     24852     24856     24857
     24854     24852     24856     24857     24855     24852     24856     24857
     24859     24858     24862     24863     24860     24858     24862     24863
     24861     24858     24862     24863     24865     24864     24868     24869
     24866     24864     24868     24869     24867     24864     24868     24869
     24871     24870     24874     24875     24872     24870     24874     24875
     24873     24870     24874     24875     24877     24876     24880     24881
     24878     24876     24880     24881     24879     24876     24880     24881
     24883     24882     24886     24887     24884     24882     24886     24887
     24885     24882     24886     24887     24889     24888     24892     24893
     24890     24888     24892     24893     24891     24888     24892     24893
     24895     24894     24898     24899     24896     24894     24898     24899
     24897     24894     24898     24899     24901     24900     24904     24905
     24902     24900     24904     24905     24903     24900     24904     24905
     24907     24906     24910     24911     24908     24906     24910     24911
     24909     24906     24910     24911     24913     24912     24916     24917
     24914     24912     24916     24917     24915     24912     24916     24917
     24919     24918     24922     24923     24920     24918     24922     24923
     24921     24918     24922     24923     24925     24924     24928     24929
     24926     24924     24928     24929     24927     24924     24928     24929
     24931     24930     24934     24935     24932     24930     24934     24935
     24933     24930     24934     24935     24937     24936     24940     24941
     24938     24936     24940     24941     24939     24936     24940     24941
     24943     24942     24946     24947     24944     24942     24946     24947
     24945     24942     24946     24947     24949     24948     24952     24953
     24950     24948     24952     24953     24951     24948     24952     24953
     24955     24954     24958     24959     24956     24954     24958     24959
     24957     24954     24958     24959     24961     24960     24964     24965
     24962     24960     24964     24965     24963     24960     24964     24965
     24967     24966     24970     24971     24968     24966     24970     24971
     24969     24966     24970     24971     24973     24972     24976     24977
     24974     24972     24976     24977     24975     24972     24976     24977
     24979     24978     24982     24983     24980     24978     24982     24983
     24981     24978     24982     24983     24985     24984     24988     24989
     24986     24984     24988     24989     24987     24984     24988     24989
     24991     24990     24994     24995     24992     24990     24994     24995
     24993     24990     24994     24995     24997     24996     25000     25001
     24998     24996     25000     25001     24999     24996     25000     25001
     25003     25002     25006     25007     25004     25002     25006     25007
     25005     25002     25006     25007     25009     25008     25012     25013
     25010     25008     25012     25013     25011     25008     25012     25013
     25015     25014     25018     25019     25016     25014     25018     25019
     25017     25014     25018     25019     25021     25020     25024     25025
     25022     25020     25024     25025     25023     25020     25024     25025
     25027     25026     25030     25031     25028     25026     25030     25031
     25029     25026     25030     25031     25033     25032     25036     25037
     25034     25032     25036     25037     25035     25032     25036     25037
     25039     25038     25042     25043     25040     25038     25042     25043
     25041     25038     25042     25043     25045     25044     25048     25049
     25046     25044     25048     25049     25047     25044     25048     25049
     25051     25050     25054     25055     25052     25050     25054     25055
     25053     25050     25054     25055     25057     25056     25060     25061
     25058     25056     25060     25061     25059     25056     25060     25061
     25063     25062     25066     25067     25064     25062     25066     25067
     25065     25062     25066     25067     25069     25068     25072     25073
     25070     25068     25072     25073     25071     25068     25072     25073
     25075     25074     25078     25079     25076     25074     25078     25079
     25077     25074     25078     25079     25081     25080     25084     25085
     25082     25080     25084     25085     25083     25080     25084     25085
     25087     25086     25090     25091     25088     25086     25090     25091
     25089     25086     25090     25091     25093     25092     25096     25097
     25094     25092     25096     25097     25095     25092     25096     25097
     25099     25098     25102     25103     25100     25098     25102     25103
     25101     25098     25102     25103     25105     25104     25108     25109
     25106     25104     25108     25109     25107     25104     25108     25109
     25111     25110     25114     25115     25112     25110     25114     25115
     25113     25110     25114     25115     25117     25116     25120     25121
     25118     25116     25120     25121     25119     25116     25120     25121
     25123     25122     25126     25127     25124     25122     25126     25127
     25125     25122     25126     25127     25129     25128     25132     25133
     25130     25128     25132     25133     25131     25128     25132     25133
     25135     25134     25138     25139     25136     25134     25138     25139
     25137     25134     25138     25139     25141     25140     25144     25145
     25142     25140     25144     25145     25143     25140     25144     25145
     25147     25146     25150     25151     25148     25146     25150     25151
     25149     25146     25150     25151     25153     25152     25156     25157
     25154     25152     25156     25157     25155     25152     25156     25157
     25159     25158     25162     25163     25160     25158     25162     25163
     25161     25158     25162     25163     25165     25164     25168     25169
     25166     25164     25168     25169     25167     25164     25168     25169
     25171     25170     25174     25175     25172     25170     25174     25175
     25173     25170     25174     25175     25177     25176     25180     25181
     25178     25176     25180     25181     25179     25176     25180     25181
     25183     25182     25186     25187     25184     25182     25186     25187
     25185     25182     25186     25187     25189     25188     25192     25193
     25190     25188     25192     25193     25191     25188     25192     25193
     25195     25194     25198     25199     25196     25194     25198     25199
     25197     25194     25198     25199     25201     25200     25204     25205
     25202     25200     25204     25205     25203     25200     25204     25205
     25207     25206     25210     25211     25208     25206     25210     25211
     25209     25206     25210     25211     25213     25212     25216     25217
     25214     25212     25216     25217     25215     25212     25216     25217
     25219     25218     25222     25223     25220     25218     25222     25223
     25221     25218     25222     25223     25225     25224     25228     25229
     25226     25224     25228     25229     25227     25224     25228     25229
     25231     25230     25234     25235     25232     25230     25234     25235
     25233     25230     25234     25235     25237     25236     25240     25241
     25238     25236     25240     25241     25239     25236     25240     25241
     25243     25242     25246     25247     25244     25242     25246     25247
     25245     25242     25246     25247     25249     25248     25252     25253
     25250     25248     25252     25253     25251     25248     25252     25253
     25255     25254     25258     25259     25256     25254     25258     25259
     25257     25254     25258     25259     25261     25260     25264     25265
     25262     25260     25264     25265     25263     25260     25264     25265
     25267     25266     25270     25271     25268     25266     25270     25271
     25269     25266     25270     25271     25273     25272     25276     25277
     25274     25272     25276     25277     25275     25272     25276     25277
     25279     25278     25282     25283     25280     25278     25282     25283
     25281     25278     25282     25283     25285     25284     25288     25289
     25286     25284     25288     25289     25287     25284     25288     25289
     25291     25290     25294     25295     25292     25290     25294     25295
     25293     25290     25294     25295     25297     25296     25300     25301
     25298     25296     25300     25301     25299     25296     25300     25301
     25303     25302     25306     25307     25304     25302     25306     25307
     25305     25302     25306     25307     25309     25308     25312     25313
     25310     25308     25312     25313     25311     25308     25312     25313
     25315     25314     25318     25319     25316     25314     25318     25319
     25317     25314     25318     25319     25321     25320     25324     25325
     25322     25320     25324     25325     25323     25320     25324     25325
     25327     25326     25330     25331     25328     25326     25330     25331
     25329     25326     25330     25331     25333     25332     25336     25337
     25334     25332     25336     25337     25335     25332     25336     25337
     25339     25338     25342     25343     25340     25338     25342     25343
     25341     25338     25342     25343     25345     25344     25348     25349
     25346     25344     25348     25349     25347     25344     25348     25349
     25351     25350     25354     25355     25352     25350     25354     25355
     25353     25350     25354     25355     25357     25356     25360     25361
     25358     25356     25360     25361     25359     25356     25360     25361
     25363     25362     25366     25367     25364     25362     25366     25367
     25365     25362     25366     25367     25369     25368     25372     25373
     25370     25368     25372     25373     25371     25368     25372     25373
     25375     25374     25378     25379     25376     25374     25378     25379
     25377     25374     25378     25379     25381     25380     25384     25385
     25382     25380     25384     25385     25383     25380     25384     25385
     25387     25386     25390     25391     25388     25386     25390     25391
     25389     25386     25390     25391     25393     25392     25396     25397
     25394     25392     25396     25397     25395     25392     25396     25397
     25399     25398     25402     25403     25400     25398     25402     25403
     25401     25398     25402     25403     25405     25404     25408     25409
     25406     25404     25408     25409     25407     25404     25408     25409
     25411     25410     25414     25415     25412     25410     25414     25415
     25413     25410     25414     25415     25417     25416     25420     25421
     25418     25416     25420     25421     25419     25416     25420     25421
     25423     25422     25426     25427     25424     25422     25426     25427
     25425     25422     25426     25427     25429     25428     25432     25433
     25430     25428     25432     25433     25431     25428     25432     25433
     25435     25434     25438     25439     25436     25434     25438     25439
     25437     25434     25438     25439     25441     25440     25444     25445
     25442     25440     25444     25445     25443     25440     25444     25445
     25447     25446     25450     25451     25448     25446     25450     25451
     25449     25446     25450     25451     25453     25452     25456     25457
     25454     25452     25456     25457     25455     25452     25456     25457
     25459     25458     25462     25463     25460     25458     25462     25463
     25461     25458     25462     25463     25465     25464     25468     25469
     25466     25464     25468     25469     25467     25464     25468     25469
     25471     25470     25474     25475     25472     25470     25474     25475
     25473     25470     25474     25475     25477     25476     25480     25481
     25478     25476     25480     25481     25479     25476     25480     25481
     25483     25482     25486     25487     25484     25482     25486     25487
     25485     25482     25486     25487     25489     25488     25492     25493
     25490     25488     25492     25493     25491     25488     25492     25493
     25495     25494     25498     25499     25496     25494     25498     25499
     25497     25494     25498     25499     25501     25500     25504     25505
     25502     25500     25504     25505     25503     25500     25504     25505
     25507     25506     25510     25511     25508     25506     25510     25511
     25509     25506     25510     25511     25513     25512     25516     25517
     25514     25512     25516     25517     25515     25512     25516     25517
     25519     25518     25522     25523     25520     25518     25522     25523
     25521     25518     25522     25523     25525     25524     25528     25529
     25526     25524     25528     25529     25527     25524     25528     25529
     25531     25530     25534     25535     25532     25530     25534     25535
     25533     25530     25534     25535     25537     25536     25540     25541
     25538     25536     25540     25541     25539     25536     25540     25541
     25543     25542     25546     25547     25544     25542     25546     25547
     25545     25542     25546     25547     25549     25548     25552     25553
     25550     25548     25552     25553     25551     25548     25552     25553
     25555     25554     25558     25559     25556     25554     25558     25559
     25557     25554     25558     25559     25561     25560     25564     25565
     25562     25560     25564     25565     25563     25560     25564     25565
     25567     25566     25570     25571     25568     25566     25570     25571
     25569     25566     25570     25571     25573     25572     25576     25577
     25574     25572     25576     25577     25575     25572     25576     25577
     25579     25578     25582     25583     25580     25578     25582     25583
     25581     25578     25582     25583     25585     25584     25588     25589
     25586     25584     25588     25589     25587     25584     25588     25589
     25591     25590     25594     25595     25592     25590     25594     25595
     25593     25590     25594     25595     25597     25596     25600     25601
     25598     25596     25600     25601     25599     25596     25600     25601
     25603     25602     25606     25607     25604     25602     25606     25607
     25605     25602     25606     25607     25609     25608     25612     25613
     25610     25608     25612     25613     25611     25608     25612     25613
     25615     25614     25618     25619     25616     25614     25618     25619
     25617     25614     25618     25619     25621     25620     25624     25625
     25622     25620     25624     25625     25623     25620     25624     25625
     25627     25626     25630     25631     25628     25626     25630     25631
     25629     25626     25630     25631     25633     25632     25636     25637
     25634     25632     25636     25637     25635     25632     25636     25637
     25639     25638     25642     25643     25640     25638     25642     25643
     25641     25638     25642     25643     25645     25644     25648     25649
     25646     25644     25648     25649     25647     25644     25648     25649
     25651     25650     25654     25655     25652     25650     25654     25655
     25653     25650     25654     25655     25657     25656     25660     25661
     25658     25656     25660     25661     25659     25656     25660     25661
     25663     25662     25666     25667     25664     25662     25666     25667
     25665     25662     25666     25667     25669     25668     25672     25673
     25670     25668     25672     25673     25671     25668     25672     25673
     25675     25674     25678     25679     25676     25674     25678     25679
     25677     25674     25678     25679     25681     25680     25684     25685
     25682     25680     25684     25685     25683     25680     25684     25685
     25687     25686     25690     25691     25688     25686     25690     25691
     25689     25686     25690     25691     25693     25692     25696     25697
     25694     25692     25696     25697     25695     25692     25696     25697
     25699     25698     25702     25703     25700     25698     25702     25703
     25701     25698     25702     25703     25705     25704     25708     25709
     25706     25704     25708     25709     25707     25704     25708     25709
     25711     25710     25714     25715     25712     25710     25714     25715
     25713     25710     25714     25715     25717     25716     25720     25721
     25718     25716     25720     25721     25719     25716     25720     25721
     25723     25722     25726     25727     25724     25722     25726     25727
     25725     25722     25726     25727     25729     25728     25732     25733
     25730     25728     25732     25733     25731     25728     25732     25733
     25735     25734     25738     25739     25736     25734     25738     25739
     25737     25734     25738     25739     25741     25740     25744     25745
     25742     25740     25744     25745     25743     25740     25744     25745
     25747     25746     25750     25751     25748     25746     25750     25751
     25749     25746     25750     25751     25753     25752     25756     25757
     25754     25752     25756     25757     25755     25752     25756     25757
     25759     25758     25762     25763     25760     25758     25762     25763
     25761     25758     25762     25763     25765     25764     25768     25769
     25766     25764     25768     25769     25767     25764     25768     25769
     25771     25770     25774     25775     25772     25770     25774     25775
     25773     25770     25774     25775     25777     25776     25780     25781
     25778     25776     25780     25781     25779     25776     25780     25781
     25783     25782     25786     25787     25784     25782     25786     25787
     25785     25782     25786     25787     25789     25788     25792     25793
     25790     25788     25792     25793     25791     25788     25792     25793
     25795     25794     25798     25799     25796     25794     25798     25799
     25797     25794     25798     25799     25801     25800     25804     25805
     25802     25800     25804     25805     25803     25800     25804     25805
     25807     25806     25810     25811     25808     25806     25810     25811
     25809     25806     25810     25811     25813     25812     25816     25817
     25814     25812     25816     25817     25815     25812     25816     25817
     25819     25818     25822     25823     25820     25818     25822     25823
     25821     25818     25822     25823     25825     25824     25828     25829
     25826     25824     25828     25829     25827     25824     25828     25829
     25831     25830     25834     25835     25832     25830     25834     25835
     25833     25830     25834     25835     25837     25836     25840     25841
     25838     25836     25840     25841     25839     25836     25840     25841
     25843     25842     25846     25847     25844     25842     25846     25847
     25845     25842     25846     25847     25849     25848     25852     25853
     25850     25848     25852     25853     25851     25848     25852     25853
     25855     25854     25858     25859     25856     25854     25858     25859
     25857     25854     25858     25859     25861     25860     25864     25865
     25862     25860     25864     25865     25863     25860     25864     25865
     25867     25866     25870     25871     25868     25866     25870     25871
     25869     25866     25870     25871     25873     25872     25876     25877
     25874     25872     25876     25877     25875     25872     25876     25877
     25879     25878     25882     25883     25880     25878     25882     25883
     25881     25878     25882     25883     25885     25884     25888     25889
     25886     25884     25888     25889     25887     25884     25888     25889
     25891     25890     25894     25895     25892     25890     25894     25895
     25893     25890     25894     25895     25897     25896     25900     25901
     25898     25896     25900     25901     25899     25896     25900     25901
     25903     25902     25906     25907     25904     25902     25906     25907
     25905     25902     25906     25907     25909     25908     25912     25913
     25910     25908     25912     25913     25911     25908     25912     25913
     25915     25914     25918     25919     25916     25914     25918     25919
     25917     25914     25918     25919     25921     25920     25924     25925
     25922     25920     25924     25925     25923     25920     25924     25925
     25927     25926     25930     25931     25928     25926     25930     25931
     25929     25926     25930     25931     25933     25932     25936     25937
     25934     25932     25936     25937     25935     25932     25936     25937
     25939     25938     25942     25943     25940     25938     25942     25943
     25941     25938     25942     25943     25945     25944     25948     25949
     25946     25944     25948     25949     25947     25944     25948     25949
     25951     25950     25954     25955     25952     25950     25954     25955
     25953     25950     25954     25955     25957     25956     25960     25961
     25958     25956     25960     25961     25959     25956     25960     25961
     25963     25962     25966     25967     25964     25962     25966     25967
     25965     25962     25966     25967     25969     25968     25972     25973
     25970     25968     25972     25973     25971     25968     25972     25973
     25975     25974     25978     25979     25976     25974     25978     25979
     25977     25974     25978     25979     25981     25980     25984     25985
     25982     25980     25984     25985     25983     25980     25984     25985
     25987     25986     25990     25991     25988     25986     25990     25991
     25989     25986     25990     25991     25993     25992     25996     25997
     25994     25992     25996     25997     25995     25992     25996     25997
     25999     25998     26002     26003     26000     25998     26002     26003
     26001     25998     26002     26003     26005     26004     26008     26009
     26006     26004     26008     26009     26007     26004     26008     26009
     26011     26010     26014     26015     26012     26010     26014     26015
     26013     26010     26014     26015     26017     26016     26020     26021
     26018     26016     26020     26021     26019     26016     26020     26021
     26023     26022     26026     26027     26024     26022     26026     26027
     26025     26022     26026     26027     26029     26028     26032     26033
     26030     26028     26032     26033     26031     26028     26032     26033
     26035     26034     26038     26039     26036     26034     26038     26039
     26037     26034     26038     26039     26041     26040     26044     26045
     26042     26040     26044     26045     26043     26040     26044     26045
     26047     26046     26050     26051     26048     26046     26050     26051
     26049     26046     26050     26051     26053     26052     26056     26057
     26054     26052     26056     26057     26055     26052     26056     26057
     26059     26058     26062     26063     26060     26058     26062     26063
     26061     26058     26062     26063     26065     26064     26068     26069
     26066     26064     26068     26069     26067     26064     26068     26069
     26071     26070     26074     26075     26072     26070     26074     26075
     26073     26070     26074     26075     26077     26076     26080     26081
     26078     26076     26080     26081     26079     26076     26080     26081
     26083     26082     26086     26087     26084     26082     26086     26087
     26085     26082     26086     26087     26089     26088     26092     26093
     26090     26088     26092     26093     26091     26088     26092     26093
     26095     26094     26098     26099     26096     26094     26098     26099
     26097     26094     26098     26099     26101     26100     26104     26105
     26102     26100     26104     26105     26103     26100     26104     26105
     26107     26106     26110     26111     26108     26106     26110     26111
     26109     26106     26110     26111     26113     26112     26116     26117
     26114     26112     26116     26117     26115     26112     26116     26117
     26119     26118     26122     26123     26120     26118     26122     26123
     26121     26118     26122     26123     26125     26124     26128     26129
     26126     26124     26128     26129     26127     26124     26128     26129
     26131     26130     26134     26135     26132     26130     26134     26135
     26133     26130     26134     26135     26137     26136     26140     26141
     26138     26136     26140     26141     26139     26136     26140     26141
     26143     26142     26146     26147     26144     26142     26146     26147
     26145     26142     26146     26147     26149     26148     26152     26153
     26150     26148     26152     26153     26151     26148     26152     26153
     26155     26154     26158     26159     26156     26154     26158     26159
     26157     26154     26158     26159     26161     26160     26164     26165
     26162     26160     26164     26165     26163     26160     26164     26165
     26167     26166     26170     26171     26168     26166     26170     26171
     26169     26166     26170     26171     26173     26172     26176     26177
     26174     26172     26176     26177     26175     26172     26176     26177
     26179     26178     26182     26183     26180     26178     26182     26183
     26181     26178     26182     26183     26185     26184     26188     26189
     26186     26184     26188     26189     26187     26184     26188     26189
     26191     26190     26194     26195     26192     26190     26194     26195
     26193     26190     26194     26195     26197     26196     26200     26201
     26198     26196     26200     26201     26199     26196     26200     26201
     26203     26202     26206     26207     26204     26202     26206     26207
     26205     26202     26206     26207     26209     26208     26212     26213
     26210     26208     26212     26213     26211     26208     26212     26213
     26215     26214     26218     26219     26216     26214     26218     26219
     26217     26214     26218     26219     26221     26220     26224     26225
     26222     26220     26224     26225     26223     26220     26224     26225
     26227     26226     26230     26231     26228     26226     26230     26231
     26229     26226     26230     26231     26233     26232     26236     26237
     26234     26232     26236     26237     26235     26232     26236     26237
     26239     26238     26242     26243     26240     26238     26242     26243
     26241     26238     26242     26243     26245     26244     26248     26249
     26246     26244     26248     26249     26247     26244     26248     26249
     26251     26250     26254     26255     26252     26250     26254     26255
     26253     26250     26254     26255     26257     26256     26260     26261
     26258     26256     26260     26261     26259     26256     26260     26261
     26263     26262     26266     26267     26264     26262     26266     26267
     26265     26262     26266     26267     26269     26268     26272     26273
     26270     26268     26272     26273     26271     26268     26272     26273
     26275     26274     26278     26279     26276     26274     26278     26279
     26277     26274     26278     26279     26281     26280     26284     26285
     26282     26280     26284     26285     26283     26280     26284     26285
     26287     26286     26290     26291     26288     26286     26290     26291
     26289     26286     26290     26291     26293     26292     26296     26297
     26294     26292     26296     26297     26295     26292     26296     26297
     26299     26298     26302     26303     26300     26298     26302     26303
     26301     26298     26302     26303     26305     26304     26308     26309
     26306     26304     26308     26309     26307     26304     26308     26309
     26311     26310     26314     26315     26312     26310     26314     26315
     26313     26310     26314     26315     26317     26316     26320     26321
     26318     26316     26320     26321     26319     26316     26320     26321
     26323     26322     26326     26327     26324     26322     26326     26327
     26325     26322     26326     26327     26329     26328     26332     26333
     26330     26328     26332     26333     26331     26328     26332     26333
     26335     26334     26338     26339     26336     26334     26338     26339
     26337     26334     26338     26339     26341     26340     26344     26345
     26342     26340     26344     26345     26343     26340     26344     26345
     26347     26346     26350     26351     26348     26346     26350     26351
     26349     26346     26350     26351     26353     26352     26356     26357
     26354     26352     26356     26357     26355     26352     26356     26357
     26359     26358     26362     26363     26360     26358     26362     26363
     26361     26358     26362     26363     26365     26364     26368     26369
     26366     26364     26368     26369     26367     26364     26368     26369
     26371     26370     26374     26375     26372     26370     26374     26375
     26373     26370     26374     26375     26377     26376     26380     26381
     26378     26376     26380     26381     26379     26376     26380     26381
     26383     26382     26386     26387     26384     26382     26386     26387
     26385     26382     26386     26387     26389     26388     26392     26393
     26390     26388     26392     26393     26391     26388     26392     26393
     26395     26394     26398     26399     26396     26394     26398     26399
     26397     26394     26398     26399     26401     26400     26404     26405
     26402     26400     26404     26405     26403     26400     26404     26405
     26407     26406     26410     26411     26408     26406     26410     26411
     26409     26406     26410     26411     26413     26412     26416     26417
     26414     26412     26416     26417     26415     26412     26416     26417
     26419     26418     26422     26423     26420     26418     26422     26423
     26421     26418     26422     26423     26425     26424     26428     26429
     26426     26424     26428     26429     26427     26424     26428     26429
     26431     26430     26434     26435     26432     26430     26434     26435
     26433     26430     26434     26435     26437     26436     26440     26441
     26438     26436     26440     26441     26439     26436     26440     26441
     26443     26442     26446     26447     26444     26442     26446     26447
     26445     26442     26446     26447     26449     26448     26452     26453
     26450     26448     26452     26453     26451     26448     26452     26453
     26455     26454     26458     26459     26456     26454     26458     26459
     26457     26454     26458     26459     26461     26460     26464     26465
     26462     26460     26464     26465     26463     26460     26464     26465
     26467     26466     26470     26471     26468     26466     26470     26471
     26469     26466     26470     26471     26473     26472     26476     26477
     26474     26472     26476     26477     26475     26472     26476     26477
     26479     26478     26482     26483     26480     26478     26482     26483
     26481     26478     26482     26483     26485     26484     26488     26489
     26486     26484     26488     26489     26487     26484     26488     26489
     26491     26490     26494     26495     26492     26490     26494     26495
     26493     26490     26494     26495     26497     26496     26500     26501
     26498     26496     26500     26501     26499     26496     26500     26501
     26503     26502     26506     26507     26504     26502     26506     26507
     26505     26502     26506     26507     26509     26508     26512     26513
     26510     26508     26512     26513     26511     26508     26512     26513
     26515     26514     26518     26519     26516     26514     26518     26519
     26517     26514     26518     26519     26521     26520     26524     26525
     26522     26520     26524     26525     26523     26520     26524     26525
     26527     26526     26530     26531     26528     26526     26530     26531
     26529     26526     26530     26531     26533     26532     26536     26537
     26534     26532     26536     26537     26535     26532     26536     26537
     26539     26538     26542     26543     26540     26538     26542     26543
     26541     26538     26542     26543     26545     26544     26548     26549
     26546     26544     26548     26549     26547     26544     26548     26549
     26551     26550     26554     26555     26552     26550     26554     26555
     26553     26550     26554     26555     26557     26556     26560     26561
     26558     26556     26560     26561     26559     26556     26560     26561
     26563     26562     26566     26567     26564     26562     26566     26567
     26565     26562     26566     26567     26569     26568     26572     26573
     26570     26568     26572     26573     26571     26568     26572     26573
     26575     26574     26578     26579     26576     26574     26578     26579
     26577     26574     26578     26579     26581     26580     26584     26585
     26582     26580     26584     26585     26583     26580     26584     26585
     26587     26586     26590     26591     26588     26586     26590     26591
     26589     26586     26590     26591     26593     26592     26596     26597
     26594     26592     26596     26597     26595     26592     26596     26597
     26599     26598     26602     26603     26600     26598     26602     26603
     26601     26598     26602     26603     26605     26604     26608     26609
     26606     26604     26608     26609     26607     26604     26608     26609
     26611     26610     26614     26615     26612     26610     26614     26615
     26613     26610     26614     26615     26617     26616     26620     26621
     26618     26616     26620     26621     26619     26616     26620     26621
     26623     26622     26626     26627     26624     26622     26626     26627
     26625     26622     26626     26627     26629     26628     26632     26633
     26630     26628     26632     26633     26631     26628     26632     26633
     26635     26634     26638     26639     26636     26634     26638     26639
     26637     26634     26638     26639     26641     26640     26644     26645
     26642     26640     26644     26645     26643     26640     26644     26645
     26647     26646     26650     26651     26648     26646     26650     26651
     26649     26646     26650     26651     26653     26652     26656     26657
     26654     26652     26656     26657     26655     26652     26656     26657
     26659     26658     26662     26663     26660     26658     26662     26663
     26661     26658     26662     26663     26665     26664     26668     26669
     26666     26664     26668     26669     26667     26664     26668     26669
     26671     26670     26674     26675     26672     26670     26674     26675
     26673     26670     26674     26675     26677     26676     26680     26681
     26678     26676     26680     26681     26679     26676     26680     26681
     26683     26682     26686     26687     26684     26682     26686     26687
     26685     26682     26686     26687     26689     26688     26692     26693
     26690     26688     26692     26693     26691     26688     26692     26693
     26695     26694     26698     26699     26696     26694     26698     26699
     26697     26694     26698     26699     26701     26700     26704     26705
     26702     26700     26704     26705     26703     26700     26704     26705
     26707     26706     26710     26711     26708     26706     26710     26711
     26709     26706     26710     26711     26713     26712     26716     26717
     26714     26712     26716     26717     26715     26712     26716     26717
     26719     26718     26722     26723     26720     26718     26722     26723
     26721     26718     26722     26723     26725     26724     26728     26729
     26726     26724     26728     26729     26727     26724     26728     26729
     26731     26730     26734     26735     26732     26730     26734     26735
     26733     26730     26734     26735     26737     26736     26740     26741
     26738     26736     26740     26741     26739     26736     26740     26741
     26743     26742     26746     26747     26744     26742     26746     26747
     26745     26742     26746     26747     26749     26748     26752     26753
     26750     26748     26752     26753     26751     26748     26752     26753
     26755     26754     26758     26759     26756     26754     26758     26759
     26757     26754     26758     26759     26761     26760     26764     26765
     26762     26760     26764     26765     26763     26760     26764     26765
     26767     26766     26770     26771     26768     26766     26770     26771
     26769     26766     26770     26771     26773     26772     26776     26777
     26774     26772     26776     26777     26775     26772     26776     26777
     26779     26778     26782     26783     26780     26778     26782     26783
     26781     26778     26782     26783     26785     26784     26788     26789
     26786     26784     26788     26789     26787     26784     26788     26789
     26791     26790     26794     26795     26792     26790     26794     26795
     26793     26790     26794     26795     26797     26796     26800     26801
     26798     26796     26800     26801     26799     26796     26800     26801
     26803     26802     26806     26807     26804     26802     26806     26807
     26805     26802     26806     26807     26809     26808     26812     26813
     26810     26808     26812     26813     26811     26808     26812     26813
     26815     26814     26818     26819     26816     26814     26818     26819
     26817     26814     26818     26819     26821     26820     26824     26825
     26822     26820     26824     26825     26823     26820     26824     26825
     26827     26826     26830     26831     26828     26826     26830     26831
     26829     26826     26830     26831     26833     26832     26836     26837
     26834     26832     26836     26837     26835     26832     26836     26837
     26839     26838     26842     26843     26840     26838     26842     26843
     26841     26838     26842     26843     26845     26844     26848     26849
     26846     26844     26848     26849     26847     26844     26848     26849
     26851     26850     26854     26855     26852     26850     26854     26855
     26853     26850     26854     26855     26857     26856     26860     26861
     26858     26856     26860     26861     26859     26856     26860     26861
     26863     26862     26866     26867     26864     26862     26866     26867
     26865     26862     26866     26867     26869     26868     26872     26873
     26870     26868     26872     26873     26871     26868     26872     26873
     26875     26874     26878     26879     26876     26874     26878     26879
     26877     26874     26878     26879     26881     26880     26884     26885
     26882     26880     26884     26885     26883     26880     26884     26885
     26887     26886     26890     26891     26888     26886     26890     26891
     26889     26886     26890     26891     26893     26892     26896     26897
     26894     26892     26896     26897     26895     26892     26896     26897
     26899     26898     26902     26903     26900     26898     26902     26903
     26901     26898     26902     26903     26905     26904     26908     26909
     26906     26904     26908     26909     26907     26904     26908     26909
     26911     26910     26914     26915     26912     26910     26914     26915
     26913     26910     26914     26915     26917     26916     26920     26921
     26918     26916     26920     26921     26919     26916     26920     26921
     26923     26922     26926     26927     26924     26922     26926     26927
     26925     26922     26926     26927     26929     26928     26932     26933
     26930     26928     26932     26933     26931     26928     26932     26933
     26935     26934     26938     26939     26936     26934     26938     26939
     26937     26934     26938     26939     26941     26940     26944     26945
     26942     26940     26944     26945     26943     26940     26944     26945
     26947     26946     26950     26951     26948     26946     26950     26951
     26949     26946     26950     26951     26953     26952     26956     26957
     26954     26952     26956     26957     26955     26952     26956     26957
     26959     26958     26962     26963     26960     26958     26962     26963
     26961     26958     26962     26963     26965     26964     26968     26969
     26966     26964     26968     26969     26967     26964     26968     26969
     26971     26970     26974     26975     26972     26970     26974     26975
     26973     26970     26974     26975     26977     26976     26980     26981
     26978     26976     26980     26981     26979     26976     26980     26981
     26983     26982     26986     26987     26984     26982     26986     26987
     26985     26982     26986     26987     26989     26988     26992     26993
     26990     26988     26992     26993     26991     26988     26992     26993
     26995     26994     26998     26999     26996     26994     26998     26999
     26997     26994     26998     26999     27001     27000     27004     27005
     27002     27000     27004     27005     27003     27000     27004     27005
     27007     27006     27010     27011     27008     27006     27010     27011
     27009     27006     27010     27011     27013     27012     27016     27017
     27014     27012     27016     27017     27015     27012     27016     27017
     27019     27018     27022     27023     27020     27018     27022     27023
     27021     27018     27022     27023     27025     27024     27028     27029
     27026     27024     27028     27029     27027     27024     27028     27029
     27031     27030     27034     27035     27032     27030     27034     27035
     27033     27030     27034     27035     27037     27036     27040     27041
     27038     27036     27040     27041     27039     27036     27040     27041
     27043     27042     27046     27047     27044     27042     27046     27047
     27045     27042     27046     27047     27049     27048     27052     27053
     27050     27048     27052     27053     27051     27048     27052     27053
     27055     27054     27058     27059     27056     27054     27058     27059
     27057     27054     27058     27059     27061     27060     27064     27065
     27062     27060     27064     27065     27063     27060     27064     27065
     27067     27066     27070     27071     27068     27066     27070     27071
     27069     27066     27070     27071     27073     27072     27076     27077
     27074     27072     27076     27077     27075     27072     27076     27077
     27079     27078     27082     27083     27080     27078     27082     27083
     27081     27078     27082     27083     27085     27084     27088     27089
     27086     27084     27088     27089     27087     27084     27088     27089
     27091     27090     27094     27095     27092     27090     27094     27095
     27093     27090     27094     27095     27097     27096     27100     27101
     27098     27096     27100     27101     27099     27096     27100     27101
     27103     27102     27106     27107     27104     27102     27106     27107
     27105     27102     27106     27107     27109     27108     27112     27113
     27110     27108     27112     27113     27111     27108     27112     27113
     27115     27114     27118     27119     27116     27114     27118     27119
     27117     27114     27118     27119     27121     27120     27124     27125
     27122     27120     27124     27125     27123     27120     27124     27125
     27127     27126     27130     27131     27128     27126     27130     27131
     27129     27126     27130     27131     27133     27132     27136     27137
     27134     27132     27136     27137     27135     27132     27136     27137
     27139     27138     27142     27143     27140     27138     27142     27143
     27141     27138     27142     27143     27145     27144     27148     27149
     27146     27144     27148     27149     27147     27144     27148     27149
     27151     27150     27154     27155     27152     27150     27154     27155
     27153     27150     27154     27155     27157     27156     27160     27161
     27158     27156     27160     27161     27159     27156     27160     27161
     27163     27162     27166     27167     27164     27162     27166     27167
     27165     27162     27166     27167     27169     27168     27172     27173
     27170     27168     27172     27173     27171     27168     27172     27173
     27175     27174     27178     27179     27176     27174     27178     27179
     27177     27174     27178     27179     27181     27180     27184     27185
     27182     27180     27184     27185     27183     27180     27184     27185
     27187     27186     27190     27191     27188     27186     27190     27191
     27189     27186     27190     27191     27193     27192     27196     27197
     27194     27192     27196     27197     27195     27192     27196     27197
     27199     27198     27202     27203     27200     27198     27202     27203
     27201     27198     27202     27203     27205     27204     27208     27209
     27206     27204     27208     27209     27207     27204     27208     27209
     27211     27210     27214     27215     27212     27210     27214     27215
     27213     27210     27214     27215     27217     27216     27220     27221
     27218     27216     27220     27221     27219     27216     27220     27221
     27223     27222     27226     27227     27224     27222     27226     27227
     27225     27222     27226     27227     27229     27228     27232     27233
     27230     27228     27232     27233     27231     27228     27232     27233
     27235     27234     27238     27239     27236     27234     27238     27239
     27237     27234     27238     27239     27241     27240     27244     27245
     27242     27240     27244     27245     27243     27240     27244     27245
     27247     27246     27250     27251     27248     27246     27250     27251
     27249     27246     27250     27251     27253     27252     27256     27257
     27254     27252     27256     27257     27255     27252     27256     27257
     27259     27258     27262     27263     27260     27258     27262     27263
     27261     27258     27262     27263     27265     27264     27268     27269
     27266     27264     27268     27269     27267     27264     27268     27269
     27271     27270     27274     27275     27272     27270     27274     27275
     27273     27270     27274     27275     27277     27276     27280     27281
     27278     27276     27280     27281     27279     27276     27280     27281
     27283     27282     27286     27287     27284     27282     27286     27287
     27285     27282     27286     27287     27289     27288     27292     27293
     27290     27288     27292     27293     27291     27288     27292     27293
     27295     27294     27298     27299     27296     27294     27298     27299
     27297     27294     27298     27299     27301     27300     27304     27305
     27302     27300     27304     27305     27303     27300     27304     27305
     27307     27306     27310     27311     27308     27306     27310     27311
     27309     27306     27310     27311     27313     27312     27316     27317
     27314     27312     27316     27317     27315     27312     27316     27317
     27319     27318     27322     27323     27320     27318     27322     27323
     27321     27318     27322     27323     27325     27324     27328     27329
     27326     27324     27328     27329     27327     27324     27328     27329
     27331     27330     27334     27335     27332     27330     27334     27335
     27333     27330     27334     27335     27337     27336     27340     27341
     27338     27336     27340     27341     27339     27336     27340     27341
     27343     27342     27346     27347     27344     27342     27346     27347
     27345     27342     27346     27347     27349     27348     27352     27353
     27350     27348     27352     27353     27351     27348     27352     27353
     27355     27354     27358     27359     27356     27354     27358     27359
     27357     27354     27358     27359     27361     27360     27364     27365
     27362     27360     27364     27365     27363     27360     27364     27365
     27367     27366     27370     27371     27368     27366     27370     27371
     27369     27366     27370     27371     27373     27372     27376     27377
     27374     27372     27376     27377     27375     27372     27376     27377
     27379     27378     27382     27383     27380     27378     27382     27383
     27381     27378     27382     27383     27385     27384     27388     27389
     27386     27384     27388     27389     27387     27384     27388     27389
     27391     27390     27394     27395     27392     27390     27394     27395
     27393     27390     27394     27395     27397     27396     27400     27401
     27398     27396     27400     27401     27399     27396     27400     27401
     27403     27402     27406     27407     27404     27402     27406     27407
     27405     27402     27406     27407     27409     27408     27412     27413
     27410     27408     27412     27413     27411     27408     27412     27413
     27415     27414     27418     27419     27416     27414     27418     27419
     27417     27414     27418     27419     27421     27420     27424     27425
     27422     27420     27424     27425     27423     27420     27424     27425
     27427     27426     27430     27431     27428     27426     27430     27431
     27429     27426     27430     27431     27433     27432     27436     27437
     27434     27432     27436     27437     27435     27432     27436     27437
     27439     27438     27442     27443     27440     27438     27442     27443
     27441     27438     27442     27443     27445     27444     27448     27449
     27446     27444     27448     27449     27447     27444     27448     27449
     27451     27450     27454     27455     27452     27450     27454     27455
     27453     27450     27454     27455     27457     27456     27460     27461
     27458     27456     27460     27461     27459     27456     27460     27461
     27463     27462     27466     27467     27464     27462     27466     27467
     27465     27462     27466     27467     27469     27468     27472     27473
     27470     27468     27472     27473     27471     27468     27472     27473
     27475     27474     27478     27479     27476     27474     27478     27479
     27477     27474     27478     27479     27481     27480     27484     27485
     27482     27480     27484     27485     27483     27480     27484     27485
     27487     27486     27490     27491     27488     27486     27490     27491
     27489     27486     27490     27491     27493     27492     27496     27497
     27494     27492     27496     27497     27495     27492     27496     27497
     27499     27498     27502     27503     27500     27498     27502     27503
     27501     27498     27502     27503     27505     27504     27508     27509
     27506     27504     27508     27509     27507     27504     27508     27509
     27511     27510     27514     27515     27512     27510     27514     27515
     27513     27510     27514     27515     27517     27516     27520     27521
     27518     27516     27520     27521     27519     27516     27520     27521
     27523     27522     27526     27527     27524     27522     27526     27527
     27525     27522     27526     27527     27529     27528     27532     27533
     27530     27528     27532     27533     27531     27528     27532     27533
     27535     27534     27538     27539     27536     27534     27538     27539
     27537     27534     27538     27539     27541     27540     27544     27545
     27542     27540     27544     27545     27543     27540     27544     27545
     27547     27546     27550     27551     27548     27546     27550     27551
     27549     27546     27550     27551     27553     27552     27556     27557
     27554     27552     27556     27557     27555     27552     27556     27557
     27559     27558     27562     27563     27560     27558     27562     27563
     27561     27558     27562     27563     27565     27564     27568     27569
     27566     27564     27568     27569     27567     27564     27568     27569
     27571     27570     27574     27575     27572     27570     27574     27575
     27573     27570     27574     27575     27577     27576     27580     27581
     27578     27576     27580     27581     27579     27576     27580     27581
     27583     27582     27586     27587     27584     27582     27586     27587
     27585     27582     27586     27587     27589     27588     27592     27593
     27590     27588     27592     27593     27591     27588     27592     27593
     27595     27594     27598     27599     27596     27594     27598     27599
     27597     27594     27598     27599     27601     27600     27604     27605
     27602     27600     27604     27605     27603     27600     27604     27605
     27607     27606     27610     27611     27608     27606     27610     27611
     27609     27606     27610     27611     27613     27612     27616     27617
     27614     27612     27616     27617     27615     27612     27616     27617
     27619     27618     27622     27623     27620     27618     27622     27623
     27621     27618     27622     27623     27625     27624     27628     27629
     27626     27624     27628     27629     27627     27624     27628     27629
     27631     27630     27634     27635     27632     27630     27634     27635
     27633     27630     27634     27635     27637     27636     27640     27641
     27638     27636     27640     27641     27639     27636     27640     27641
     27643     27642     27646     27647     27644     27642     27646     27647
     27645     27642     27646     27647     27649     27648     27652     27653
     27650     27648     27652     27653     27651     27648     27652     27653
     27655     27654     27658     27659     27656     27654     27658     27659
     27657     27654     27658     27659     27661     27660     27664     27665
     27662     27660     27664     27665     27663     27660     27664     27665
     27667     27666     27670     27671     27668     27666     27670     27671
     27669     27666     27670     27671     27673     27672     27676     27677
     27674     27672     27676     27677     27675     27672     27676     27677
     27679     27678     27682     27683     27680     27678     27682     27683
     27681     27678     27682     27683     27685     27684     27688     27689
     27686     27684     27688     27689     27687     27684     27688     27689
     27691     27690     27694     27695     27692     27690     27694     27695
     27693     27690     27694     27695     27697     27696     27700     27701
     27698     27696     27700     27701     27699     27696     27700     27701
     27703     27702     27706     27707     27704     27702     27706     27707
     27705     27702     27706     27707     27709     27708     27712     27713
     27710     27708     27712     27713     27711     27708     27712     27713
     27715     27714     27718     27719     27716     27714     27718     27719
     27717     27714     27718     27719     27721     27720     27724     27725
     27722     27720     27724     27725     27723     27720     27724     27725
     27727     27726     27730     27731     27728     27726     27730     27731
     27729     27726     27730     27731     27733     27732     27736     27737
     27734     27732     27736     27737     27735     27732     27736     27737
     27739     27738     27742     27743     27740     27738     27742     27743
     27741     27738     27742     27743     27745     27744     27748     27749
     27746     27744     27748     27749     27747     27744     27748     27749
     27751     27750     27754     27755     27752     27750     27754     27755
     27753     27750     27754     27755     27757     27756     27760     27761
     27758     27756     27760     27761     27759     27756     27760     27761
     27763     27762     27766     27767     27764     27762     27766     27767
     27765     27762     27766     27767     27769     27768     27772     27773
     27770     27768     27772     27773     27771     27768     27772     27773
     27775     27774     27778     27779     27776     27774     27778     27779
     27777     27774     27778     27779     27781     27780     27784     27785
     27782     27780     27784     27785     27783     27780     27784     27785
     27787     27786     27790     27791     27788     27786     27790     27791
     27789     27786     27790     27791     27793     27792     27796     27797
     27794     27792     27796     27797     27795     27792     27796     27797
     27799     27798     27802     27803     27800     27798     27802     27803
     27801     27798     27802     27803     27805     27804     27808     27809
     27806     27804     27808     27809     27807     27804     27808     27809
     27811     27810     27814     27815     27812     27810     27814     27815
     27813     27810     27814     27815     27817     27816     27820     27821
     27818     27816     27820     27821     27819     27816     27820     27821
     27823     27822     27826     27827     27824     27822     27826     27827
     27825     27822     27826     27827     27829     27828     27832     27833
     27830     27828     27832     27833     27831     27828     27832     27833
     27835     27834     27838     27839     27836     27834     27838     27839
     27837     27834     27838     27839     27841     27840     27844     27845
     27842     27840     27844     27845     27843     27840     27844     27845
     27847     27846     27850     27851     27848     27846     27850     27851
     27849     27846     27850     27851     27853     27852     27856     27857
     27854     27852     27856     27857     27855     27852     27856     27857
     27859     27858     27862     27863     27860     27858     27862     27863
     27861     27858     27862     27863     27865     27864     27868     27869
     27866     27864     27868     27869     27867     27864     27868     27869
     27871     27870     27874     27875     27872     27870     27874     27875
     27873     27870     27874     27875     27877     27876     27880     27881
     27878     27876     27880     27881     27879     27876     27880     27881
     27883     27882     27886     27887     27884     27882     27886     27887
     27885     27882     27886     27887     27889     27888     27892     27893
     27890     27888     27892     27893     27891     27888     27892     27893
     27895     27894     27898     27899     27896     27894     27898     27899
     27897     27894     27898     27899     27901     27900     27904     27905
     27902     27900     27904     27905     27903     27900     27904     27905
     27907     27906     27910     27911     27908     27906     27910     27911
     27909     27906     27910     27911     27913     27912     27916     27917
     27914     27912     27916     27917     27915     27912     27916     27917
     27919     27918     27922     27923     27920     27918     27922     27923
     27921     27918     27922     27923     27925     27924     27928     27929
     27926     27924     27928     27929     27927     27924     27928     27929
     27931     27930     27934     27935     27932     27930     27934     27935
     27933     27930     27934     27935     27937     27936     27940     27941
     27938     27936     27940     27941     27939     27936     27940     27941
     27943     27942     27946     27947     27944     27942     27946     27947
     27945     27942     27946     27947     27949     27948     27952     27953
     27950     27948     27952     27953     27951     27948     27952     27953
     27955     27954     27958     27959     27956     27954     27958     27959
     27957     27954     27958     27959     27961     27960     27964     27965
     27962     27960     27964     27965     27963     27960     27964     27965
     27967     27966     27970     27971     27968     27966     27970     27971
     27969     27966     27970     27971     27973     27972     27976     27977
     27974     27972     27976     27977     27975     27972     27976     27977
     27979     27978     27982     27983     27980     27978     27982     27983
     27981     27978     27982     27983     27985     27984     27988     27989
     27986     27984     27988     27989     27987     27984     27988     27989
     27991     27990     27994     27995     27992     27990     27994     27995
     27993     27990     27994     27995     27997     27996     28000     28001
     27998     27996     28000     28001     27999     27996     28000     28001
     28003     28002     28006     28007     28004     28002     28006     28007
     28005     28002     28006     28007     28009     28008     28012     28013
     28010     28008     28012     28013     28011     28008     28012     28013
     28015     28014     28018     28019     28016     28014     28018     28019
     28017     28014     28018     28019     28021     28020     28024     28025
     28022     28020     28024     28025     28023     28020     28024     28025
     28027     28026     28030     28031     28028     28026     28030     28031
     28029     28026     28030     28031     28033     28032     28036     28037
     28034     28032     28036     28037     28035     28032     28036     28037
     28039     28038     28042     28043     28040     28038     28042     28043
     28041     28038     28042     28043     28045     28044     28048     28049
     28046     28044     28048     28049     28047     28044     28048     28049
     28051     28050     28054     28055     28052     28050     28054     28055
     28053     28050     28054     28055     28057     28056     28060     28061
     28058     28056     28060     28061     28059     28056     28060     28061
     28063     28062     28066     28067     28064     28062     28066     28067
     28065     28062     28066     28067     28069     28068     28072     28073
     28070     28068     28072     28073     28071     28068     28072     28073
     28075     28074     28078     28079     28076     28074     28078     28079
     28077     28074     28078     28079     28081     28080     28084     28085
     28082     28080     28084     28085     28083     28080     28084     28085
     28087     28086     28090     28091     28088     28086     28090     28091
     28089     28086     28090     28091     28093     28092     28096     28097
     28094     28092     28096     28097     28095     28092     28096     28097
     28099     28098     28102     28103     28100     28098     28102     28103
     28101     28098     28102     28103     28105     28104     28108     28109
     28106     28104     28108     28109     28107     28104     28108     28109
     28111     28110     28114     28115     28112     28110     28114     28115
     28113     28110     28114     28115     28117     28116     28120     28121
     28118     28116     28120     28121     28119     28116     28120     28121
     28123     28122     28126     28127     28124     28122     28126     28127
     28125     28122     28126     28127     28129     28128     28132     28133
     28130     28128     28132     28133     28131     28128     28132     28133
     28135     28134     28138     28139     28136     28134     28138     28139
     28137     28134     28138     28139     28141     28140     28144     28145
     28142     28140     28144     28145     28143     28140     28144     28145
     28147     28146     28150     28151     28148     28146     28150     28151
     28149     28146     28150     28151     28153     28152     28156     28157
     28154     28152     28156     28157     28155     28152     28156     28157
     28159     28158     28162     28163     28160     28158     28162     28163
     28161     28158     28162     28163     28165     28164     28168     28169
     28166     28164     28168     28169     28167     28164     28168     28169
     28171     28170     28174     28175     28172     28170     28174     28175
     28173     28170     28174     28175     28177     28176     28180     28181
     28178     28176     28180     28181     28179     28176     28180     28181
     28183     28182     28186     28187     28184     28182     28186     28187
     28185     28182     28186     28187     28189     28188     28192     28193
     28190     28188     28192     28193     28191     28188     28192     28193
     28195     28194     28198     28199     28196     28194     28198     28199
     28197     28194     28198     28199     28201     28200     28204     28205
     28202     28200     28204     28205     28203     28200     28204     28205
     28207     28206     28210     28211     28208     28206     28210     28211
     28209     28206     28210     28211     28213     28212     28216     28217
     28214     28212     28216     28217     28215     28212     28216     28217
     28219     28218     28222     28223     28220     28218     28222     28223
     28221     28218     28222     28223     28225     28224     28228     28229
     28226     28224     28228     28229     28227     28224     28228     28229
     28231     28230     28234     28235     28232     28230     28234     28235
     28233     28230     28234     28235     28237     28236     28240     28241
     28238     28236     28240     28241     28239     28236     28240     28241
     28243     28242     28246     28247     28244     28242     28246     28247
     28245     28242     28246     28247     28249     28248     28252     28253
     28250     28248     28252     28253     28251     28248     28252     28253
     28255     28254     28258     28259     28256     28254     28258     28259
     28257     28254     28258     28259     28261     28260     28264     28265
     28262     28260     28264     28265     28263     28260     28264     28265
     28267     28266     28270     28271     28268     28266     28270     28271
     28269     28266     28270     28271     28273     28272     28276     28277
     28274     28272     28276     28277     28275     28272     28276     28277
     28279     28278     28282     28283     28280     28278     28282     28283
     28281     28278     28282     28283     28285     28284     28288     28289
     28286     28284     28288     28289     28287     28284     28288     28289
     28291     28290     28294     28295     28292     28290     28294     28295
     28293     28290     28294     28295     28297     28296     28300     28301
     28298     28296     28300     28301     28299     28296     28300     28301
     28303     28302     28306     28307     28304     28302     28306     28307
     28305     28302     28306     28307     28309     28308     28312     28313
     28310     28308     28312     28313     28311     28308     28312     28313
     28315     28314     28318     28319     28316     28314     28318     28319
     28317     28314     28318     28319     28321     28320     28324     28325
     28322     28320     28324     28325     28323     28320     28324     28325
     28327     28326     28330     28331     28328     28326     28330     28331
     28329     28326     28330     28331     28333     28332     28336     28337
     28334     28332     28336     28337     28335     28332     28336     28337
     28339     28338     28342     28343     28340     28338     28342     28343
     28341     28338     28342     28343     28345     28344     28348     28349
     28346     28344     28348     28349     28347     28344     28348     28349
     28351     28350     28354     28355     28352     28350     28354     28355
     28353     28350     28354     28355     28357     28356     28360     28361
     28358     28356     28360     28361     28359     28356     28360     28361
     28363     28362     28366     28367     28364     28362     28366     28367
     28365     28362     28366     28367     28369     28368     28372     28373
     28370     28368     28372     28373     28371     28368     28372     28373
     28375     28374     28378     28379     28376     28374     28378     28379
     28377     28374     28378     28379     28381     28380     28384     28385
     28382     28380     28384     28385     28383     28380     28384     28385
     28387     28386     28390     28391     28388     28386     28390     28391
     28389     28386     28390     28391     28393     28392     28396     28397
     28394     28392     28396     28397     28395     28392     28396     28397
     28399     28398     28402     28403     28400     28398     28402     28403
     28401     28398     28402     28403     28405     28404     28408     28409
     28406     28404     28408     28409     28407     28404     28408     28409
     28411     28410     28414     28415     28412     28410     28414     28415
     28413     28410     28414     28415     28417     28416     28420     28421
     28418     28416     28420     28421     28419     28416     28420     28421
     28423     28422     28426     28427     28424     28422     28426     28427
     28425     28422     28426     28427     28429     28428     28432     28433
     28430     28428     28432     28433     28431     28428     28432     28433
     28435     28434     28438     28439     28436     28434     28438     28439
     28437     28434     28438     28439     28441     28440     28444     28445
     28442     28440     28444     28445     28443     28440     28444     28445
     28447     28446     28450     28451     28448     28446     28450     28451
     28449     28446     28450     28451     28453     28452     28456     28457
     28454     28452     28456     28457     28455     28452     28456     28457
     28459     28458     28462     28463     28460     28458     28462     28463
     28461     28458     28462     28463     28465     28464     28468     28469
     28466     28464     28468     28469     28467     28464     28468     28469
     28471     28470     28474     28475     28472     28470     28474     28475
     28473     28470     28474     28475     28477     28476     28480     28481
     28478     28476     28480     28481     28479     28476     28480     28481
     28483     28482     28486     28487     28484     28482     28486     28487
     28485     28482     28486     28487     28489     28488     28492     28493
     28490     28488     28492     28493     28491     28488     28492     28493
     28495     28494     28498     28499     28496     28494     28498     28499
     28497     28494     28498     28499     28501     28500     28504     28505
     28502     28500     28504     28505     28503     28500     28504     28505
     28507     28506     28510     28511     28508     28506     28510     28511
     28509     28506     28510     28511     28513     28512     28516     28517
     28514     28512     28516     28517     28515     28512     28516     28517
     28519     28518     28522     28523     28520     28518     28522     28523
     28521     28518     28522     28523     28525     28524     28528     28529
     28526     28524     28528     28529     28527     28524     28528     28529
     28531     28530     28534     28535     28532     28530     28534     28535
     28533     28530     28534     28535     28537     28536     28540     28541
     28538     28536     28540     28541     28539     28536     28540     28541
     28543     28542     28546     28547     28544     28542     28546     28547
     28545     28542     28546     28547     28549     28548     28552     28553
     28550     28548     28552     28553     28551     28548     28552     28553
     28555     28554     28558     28559     28556     28554     28558     28559
     28557     28554     28558     28559     28561     28560     28564     28565
     28562     28560     28564     28565     28563     28560     28564     28565
     28567     28566     28570     28571     28568     28566     28570     28571
     28569     28566     28570     28571     28573     28572     28576     28577
     28574     28572     28576     28577     28575     28572     28576     28577
     28579     28578     28582     28583     28580     28578     28582     28583
     28581     28578     28582     28583     28585     28584     28588     28589
     28586     28584     28588     28589     28587     28584     28588     28589
     28591     28590     28594     28595     28592     28590     28594     28595
     28593     28590     28594     28595     28597     28596     28600     28601
     28598     28596     28600     28601     28599     28596     28600     28601
     28603     28602     28606     28607     28604     28602     28606     28607
     28605     28602     28606     28607     28609     28608     28612     28613
     28610     28608     28612     28613     28611     28608     28612     28613
     28615     28614     28618     28619     28616     28614     28618     28619
     28617     28614     28618     28619     28621     28620     28624     28625
     28622     28620     28624     28625     28623     28620     28624     28625
     28627     28626     28630     28631     28628     28626     28630     28631
     28629     28626     28630     28631     28633     28632     28636     28637
     28634     28632     28636     28637     28635     28632     28636     28637
     28639     28638     28642     28643     28640     28638     28642     28643
     28641     28638     28642     28643     28645     28644     28648     28649
     28646     28644     28648     28649     28647     28644     28648     28649
     28651     28650     28654     28655     28652     28650     28654     28655
     28653     28650     28654     28655     28657     28656     28660     28661
     28658     28656     28660     28661     28659     28656     28660     28661
     28663     28662     28666     28667     28664     28662     28666     28667
     28665     28662     28666     28667     28669     28668     28672     28673
     28670     28668     28672     28673     28671     28668     28672     28673
     28675     28674     28678     28679     28676     28674     28678     28679
     28677     28674     28678     28679     28681     28680     28684     28685
     28682     28680     28684     28685     28683     28680     28684     28685
     28687     28686     28690     28691     28688     28686     28690     28691
     28689     28686     28690     28691     28693     28692     28696     28697
     28694     28692     28696     28697     28695     28692     28696     28697
     28699     28698     28702     28703     28700     28698     28702     28703
     28701     28698     28702     28703     28705     28704     28708     28709
     28706     28704     28708     28709     28707     28704     28708     28709
     28711     28710     28714     28715     28712     28710     28714     28715
     28713     28710     28714     28715     28717     28716     28720     28721
     28718     28716     28720     28721     28719     28716     28720     28721
     28723     28722     28726     28727     28724     28722     28726     28727
     28725     28722     28726     28727     28729     28728     28732     28733
     28730     28728     28732     28733     28731     28728     28732     28733
     28735     28734     28738     28739     28736     28734     28738     28739
     28737     28734     28738     28739     28741     28740     28744     28745
     28742     28740     28744     28745     28743     28740     28744     28745
     28747     28746     28750     28751     28748     28746     28750     28751
     28749     28746     28750     28751     28753     28752     28756     28757
     28754     28752     28756     28757     28755     28752     28756     28757
     28759     28758     28762     28763     28760     28758     28762     28763
     28761     28758     28762     28763     28765     28764     28768     28769
     28766     28764     28768     28769     28767     28764     28768     28769
     28771     28770     28774     28775     28772     28770     28774     28775
     28773     28770     28774     28775     28777     28776     28780     28781
     28778     28776     28780     28781     28779     28776     28780     28781
     28783     28782     28786     28787     28784     28782     28786     28787
     28785     28782     28786     28787     28789     28788     28792     28793
     28790     28788     28792     28793     28791     28788     28792     28793
     28795     28794     28798     28799     28796     28794     28798     28799
     28797     28794     28798     28799     28801     28800     28804     28805
     28802     28800     28804     28805     28803     28800     28804     28805
     28807     28806     28810     28811     28808     28806     28810     28811
     28809     28806     28810     28811     28813     28812     28816     28817
     28814     28812     28816     28817     28815     28812     28816     28817
     28819     28818     28822     28823     28820     28818     28822     28823
     28821     28818     28822     28823     28825     28824     28828     28829
     28826     28824     28828     28829     28827     28824     28828     28829
     28831     28830     28834     28835     28832     28830     28834     28835
     28833     28830     28834     28835     28837     28836     28840     28841
     28838     28836     28840     28841     28839     28836     28840     28841
     28843     28842     28846     28847     28844     28842     28846     28847
     28845     28842     28846     28847     28849     28848     28852     28853
     28850     28848     28852     28853     28851     28848     28852     28853
     28855     28854     28858     28859     28856     28854     28858     28859
     28857     28854     28858     28859     28861     28860     28864     28865
     28862     28860     28864     28865     28863     28860     28864     28865
     28867     28866     28870     28871     28868     28866     28870     28871
     28869     28866     28870     28871     28873     28872     28876     28877
     28874     28872     28876     28877     28875     28872     28876     28877
     28879     28878     28882     28883     28880     28878     28882     28883
     28881     28878     28882     28883     28885     28884     28888     28889
     28886     28884     28888     28889     28887     28884     28888     28889
     28891     28890     28894     28895     28892     28890     28894     28895
     28893     28890     28894     28895     28897     28896     28900     28901
     28898     28896     28900     28901     28899     28896     28900     28901
     28903     28902     28906     28907     28904     28902     28906     28907
     28905     28902     28906     28907     28909     28908     28912     28913
     28910     28908     28912     28913     28911     28908     28912     28913
     28915     28914     28918     28919     28916     28914     28918     28919
     28917     28914     28918     28919     28921     28920     28924     28925
     28922     28920     28924     28925     28923     28920     28924     28925
     28927     28926     28930     28931     28928     28926     28930     28931
     28929     28926     28930     28931     28933     28932     28936     28937
     28934     28932     28936     28937     28935     28932     28936     28937
     28939     28938     28942     28943     28940     28938     28942     28943
     28941     28938     28942     28943     28945     28944     28948     28949
     28946     28944     28948     28949     28947     28944     28948     28949
     28951     28950     28954     28955     28952     28950     28954     28955
     28953     28950     28954     28955     28957     28956     28960     28961
     28958     28956     28960     28961     28959     28956     28960     28961
     28963     28962     28966     28967     28964     28962     28966     28967
     28965     28962     28966     28967     28969     28968     28972     28973
     28970     28968     28972     28973     28971     28968     28972     28973
     28975     28974     28978     28979     28976     28974     28978     28979
     28977     28974     28978     28979     28981     28980     28984     28985
     28982     28980     28984     28985     28983     28980     28984     28985
     28987     28986     28990     28991     28988     28986     28990     28991
     28989     28986     28990     28991     28993     28992     28996     28997
     28994     28992     28996     28997     28995     28992     28996     28997
     28999     28998     29002     29003     29000     28998     29002     29003
     29001     28998     29002     29003     29005     29004     29008     29009
     29006     29004     29008     29009     29007     29004     29008     29009
     29011     29010     29014     29015     29012     29010     29014     29015
     29013     29010     29014     29015     29017     29016     29020     29021
     29018     29016     29020     29021     29019     29016     29020     29021
     29023     29022     29026     29027     29024     29022     29026     29027
     29025     29022     29026     29027     29029     29028     29032     29033
     29030     29028     29032     29033     29031     29028     29032     29033
     29035     29034     29038     29039     29036     29034     29038     29039
     29037     29034     29038     29039     29041     29040     29044     29045
     29042     29040     29044     29045     29043     29040     29044     29045
     29047     29046     29050     29051     29048     29046     29050     29051
     29049     29046     29050     29051     29053     29052     29056     29057
     29054     29052     29056     29057     29055     29052     29056     29057
     29059     29058     29062     29063     29060     29058     29062     29063
     29061     29058     29062     29063     29065     29064     29068     29069
     29066     29064     29068     29069     29067     29064     29068     29069
     29071     29070     29074     29075     29072     29070     29074     29075
     29073     29070     29074     29075     29077     29076     29080     29081
     29078     29076     29080     29081     29079     29076     29080     29081
     29083     29082     29086     29087     29084     29082     29086     29087
     29085     29082     29086     29087     29089     29088     29092     29093
     29090     29088     29092     29093     29091     29088     29092     29093
     29095     29094     29098     29099     29096     29094     29098     29099
     29097     29094     29098     29099     29101     29100     29104     29105
     29102     29100     29104     29105     29103     29100     29104     29105
     29107     29106     29110     29111     29108     29106     29110     29111
     29109     29106     29110     29111     29113     29112     29116     29117
     29114     29112     29116     29117     29115     29112     29116     29117
     29119     29118     29122     29123     29120     29118     29122     29123
     29121     29118     29122     29123     29125     29124     29128     29129
     29126     29124     29128     29129     29127     29124     29128     29129
     29131     29130     29134     29135     29132     29130     29134     29135
     29133     29130     29134     29135     29137     29136     29140     29141
     29138     29136     29140     29141     29139     29136     29140     29141
     29143     29142     29146     29147     29144     29142     29146     29147
     29145     29142     29146     29147     29149     29148     29152     29153
     29150     29148     29152     29153     29151     29148     29152     29153
     29155     29154     29158     29159     29156     29154     29158     29159
     29157     29154     29158     29159     29161     29160     29164     29165
     29162     29160     29164     29165     29163     29160     29164     29165
     29167     29166     29170     29171     29168     29166     29170     29171
     29169     29166     29170     29171     29173     29172     29176     29177
     29174     29172     29176     29177     29175     29172     29176     29177
     29179     29178     29182     29183     29180     29178     29182     29183
     29181     29178     29182     29183     29185     29184     29188     29189
     29186     29184     29188     29189     29187     29184     29188     29189
     29191     29190     29194     29195     29192     29190     29194     29195
     29193     29190     29194     29195     29197     29196     29200     29201
     29198     29196     29200     29201     29199     29196     29200     29201
     29203     29202     29206     29207     29204     29202     29206     29207
     29205     29202     29206     29207     29209     29208     29212     29213
     29210     29208     29212     29213     29211     29208     29212     29213
     29215     29214     29218     29219     29216     29214     29218     29219
     29217     29214     29218     29219     29221     29220     29224     29225
     29222     29220     29224     29225     29223     29220     29224     29225
     29227     29226     29230     29231     29228     29226     29230     29231
     29229     29226     29230     29231     29233     29232     29236     29237
     29234     29232     29236     29237     29235     29232     29236     29237
     29239     29238     29242     29243     29240     29238     29242     29243
     29241     29238     29242     29243     29245     29244     29248     29249
     29246     29244     29248     29249     29247     29244     29248     29249
     29251     29250     29254     29255     29252     29250     29254     29255
     29253     29250     29254     29255     29257     29256     29260     29261
     29258     29256     29260     29261     29259     29256     29260     29261
     29263     29262     29266     29267     29264     29262     29266     29267
     29265     29262     29266     29267     29269     29268     29272     29273
     29270     29268     29272     29273     29271     29268     29272     29273
     29275     29274     29278     29279     29276     29274     29278     29279
     29277     29274     29278     29279     29281     29280     29284     29285
     29282     29280     29284     29285     29283     29280     29284     29285
     29287     29286     29290     29291     29288     29286     29290     29291
     29289     29286     29290     29291     29293     29292     29296     29297
     29294     29292     29296     29297     29295     29292     29296     29297
     29299     29298     29302     29303     29300     29298     29302     29303
     29301     29298     29302     29303     29305     29304     29308     29309
     29306     29304     29308     29309     29307     29304     29308     29309
     29311     29310     29314     29315     29312     29310     29314     29315
     29313     29310     29314     29315     29317     29316     29320     29321
     29318     29316     29320     29321     29319     29316     29320     29321
     29323     29322     29326     29327     29324     29322     29326     29327
     29325     29322     29326     29327     29329     29328     29332     29333
     29330     29328     29332     29333     29331     29328     29332     29333
     29335     29334     29338     29339     29336     29334     29338     29339
     29337     29334     29338     29339     29341     29340     29344     29345
     29342     29340     29344     29345     29343     29340     29344     29345
     29347     29346     29350     29351     29348     29346     29350     29351
     29349     29346     29350     29351     29353     29352     29356     29357
     29354     29352     29356     29357     29355     29352     29356     29357
     29359     29358     29362     29363     29360     29358     29362     29363
     29361     29358     29362     29363     29365     29364     29368     29369
     29366     29364     29368     29369     29367     29364     29368     29369
     29371     29370     29374     29375     29372     29370     29374     29375
     29373     29370     29374     29375     29377     29376     29380     29381
     29378     29376     29380     29381     29379     29376     29380     29381
     29383     29382     29386     29387     29384     29382     29386     29387
     29385     29382     29386     29387     29389     29388     29392     29393
     29390     29388     29392     29393     29391     29388     29392     29393
     29395     29394     29398     29399     29396     29394     29398     29399
     29397     29394     29398     29399     29401     29400     29404     29405
     29402     29400     29404     29405     29403     29400     29404     29405
     29407     29406     29410     29411     29408     29406     29410     29411
     29409     29406     29410     29411     29413     29412     29416     29417
     29414     29412     29416     29417     29415     29412     29416     29417
     29419     29418     29422     29423     29420     29418     29422     29423
     29421     29418     29422     29423     29425     29424     29428     29429
     29426     29424     29428     29429     29427     29424     29428     29429
     29431     29430     29434     29435     29432     29430     29434     29435
     29433     29430     29434     29435     29437     29436     29440     29441
     29438     29436     29440     29441     29439     29436     29440     29441
     29443     29442     29446     29447     29444     29442     29446     29447
     29445     29442     29446     29447     29449     29448     29452     29453
     29450     29448     29452     29453     29451     29448     29452     29453
     29455     29454     29458     29459     29456     29454     29458     29459
     29457     29454     29458     29459     29461     29460     29464     29465
     29462     29460     29464     29465     29463     29460     29464     29465
     29467     29466     29470     29471     29468     29466     29470     29471
     29469     29466     29470     29471     29473     29472     29476     29477
     29474     29472     29476     29477     29475     29472     29476     29477
     29479     29478     29482     29483     29480     29478     29482     29483
     29481     29478     29482     29483     29485     29484     29488     29489
     29486     29484     29488     29489     29487     29484     29488     29489
     29491     29490     29494     29495     29492     29490     29494     29495
     29493     29490     29494     29495     29497     29496     29500     29501
     29498     29496     29500     29501     29499     29496     29500     29501
     29503     29502     29506     29507     29504     29502     29506     29507
     29505     29502     29506     29507     29509     29508     29512     29513
     29510     29508     29512     29513     29511     29508     29512     29513
     29515     29514     29518     29519     29516     29514     29518     29519
     29517     29514     29518     29519     29521     29520     29524     29525
     29522     29520     29524     29525     29523     29520     29524     29525
     29527     29526     29530     29531     29528     29526     29530     29531
     29529     29526     29530     29531     29533     29532     29536     29537
     29534     29532     29536     29537     29535     29532     29536     29537
     29539     29538     29542     29543     29540     29538     29542     29543
     29541     29538     29542     29543     29545     29544     29548     29549
     29546     29544     29548     29549     29547     29544     29548     29549
     29551     29550     29554     29555     29552     29550     29554     29555
     29553     29550     29554     29555     29557     29556     29560     29561
     29558     29556     29560     29561     29559     29556     29560     29561
     29563     29562     29566     29567     29564     29562     29566     29567
     29565     29562     29566     29567     29569     29568     29572     29573
     29570     29568     29572     29573     29571     29568     29572     29573
     29575     29574     29578     29579     29576     29574     29578     29579
     29577     29574     29578     29579     29581     29580     29584     29585
     29582     29580     29584     29585     29583     29580     29584     29585
     29587     29586     29590     29591     29588     29586     29590     29591
     29589     29586     29590     29591     29593     29592     29596     29597
     29594     29592     29596     29597     29595     29592     29596     29597
     29599     29598     29602     29603     29600     29598     29602     29603
     29601     29598     29602     29603     29605     29604     29608     29609
     29606     29604     29608     29609     29607     29604     29608     29609
     29611     29610     29614     29615     29612     29610     29614     29615
     29613     29610     29614     29615     29617     29616     29620     29621
     29618     29616     29620     29621     29619     29616     29620     29621
     29623     29622     29626     29627     29624     29622     29626     29627
     29625     29622     29626     29627     29629     29628     29632     29633
     29630     29628     29632     29633     29631     29628     29632     29633
     29635     29634     29638     29639     29636     29634     29638     29639
     29637     29634     29638     29639     29641     29640     29644     29645
     29642     29640     29644     29645     29643     29640     29644     29645
     29647     29646     29650     29651     29648     29646     29650     29651
     29649     29646     29650     29651     29653     29652     29656     29657
     29654     29652     29656     29657     29655     29652     29656     29657
     29659     29658     29662     29663     29660     29658     29662     29663
     29661     29658     29662     29663     29665     29664     29668     29669
     29666     29664     29668     29669     29667     29664     29668     29669
     29671     29670     29674     29675     29672     29670     29674     29675
     29673     29670     29674     29675     29677     29676     29680     29681
     29678     29676     29680     29681     29679     29676     29680     29681
     29683     29682     29686     29687     29684     29682     29686     29687
     29685     29682     29686     29687     29689     29688     29692     29693
     29690     29688     29692     29693     29691     29688     29692     29693
     29695     29694     29698     29699     29696     29694     29698     29699
     29697     29694     29698     29699     29701     29700     29704     29705
     29702     29700     29704     29705     29703     29700     29704     29705
     29707     29706     29710     29711     29708     29706     29710     29711
     29709     29706     29710     29711     29713     29712     29716     29717
     29714     29712     29716     29717     29715     29712     29716     29717
     29719     29718     29722     29723     29720     29718     29722     29723
     29721     29718     29722     29723     29725     29724     29728     29729
     29726     29724     29728     29729     29727     29724     29728     29729
     29731     29730     29734     29735     29732     29730     29734     29735
     29733     29730     29734     29735     29737     29736     29740     29741
     29738     29736     29740     29741     29739     29736     29740     29741
     29743     29742     29746     29747     29744     29742     29746     29747
     29745     29742     29746     29747     29749     29748     29752     29753
     29750     29748     29752     29753     29751     29748     29752     29753
     29755     29754     29758     29759     29756     29754     29758     29759
     29757     29754     29758     29759     29761     29760     29764     29765
     29762     29760     29764     29765     29763     29760     29764     29765
     29767     29766     29770     29771     29768     29766     29770     29771
     29769     29766     29770     29771     29773     29772     29776     29777
     29774     29772     29776     29777     29775     29772     29776     29777
     29779     29778     29782     29783     29780     29778     29782     29783
     29781     29778     29782     29783     29785     29784     29788     29789
     29786     29784     29788     29789     29787     29784     29788     29789
     29791     29790     29794     29795     29792     29790     29794     29795
     29793     29790     29794     29795     29797     29796     29800     29801
     29798     29796     29800     29801     29799     29796     29800     29801
     29803     29802     29806     29807     29804     29802     29806     29807
     29805     29802     29806     29807     29809     29808     29812     29813
     29810     29808     29812     29813     29811     29808     29812     29813
     29815     29814     29818     29819     29816     29814     29818     29819
     29817     29814     29818     29819     29821     29820     29824     29825
     29822     29820     29824     29825     29823     29820     29824     29825
     29827     29826     29830     29831     29828     29826     29830     29831
     29829     29826     29830     29831     29833     29832     29836     29837
     29834     29832     29836     29837     29835     29832     29836     29837
     29839     29838     29842     29843     29840     29838     29842     29843
     29841     29838     29842     29843     29845     29844     29848     29849
     29846     29844     29848     29849     29847     29844     29848     29849
     29851     29850     29854     29855     29852     29850     29854     29855
     29853     29850     29854     29855     29857     29856     29860     29861
     29858     29856     29860     29861     29859     29856     29860     29861
     29863     29862     29866     29867     29864     29862     29866     29867
     29865     29862     29866     29867     29869     29868     29872     29873
     29870     29868     29872     29873     29871     29868     29872     29873
     29875     29874     29878     29879     29876     29874     29878     29879
     29877     29874     29878     29879     29881     29880     29884     29885
     29882     29880     29884     29885     29883     29880     29884     29885
     29887     29886     29890     29891     29888     29886     29890     29891
     29889     29886     29890     29891     29893     29892     29896     29897
     29894     29892     29896     29897     29895     29892     29896     29897
     29899     29898     29902     29903     29900     29898     29902     29903
     29901     29898     29902     29903     29905     29904     29908     29909
     29906     29904     29908     29909     29907     29904     29908     29909
     29911     29910     29914     29915     29912     29910     29914     29915
     29913     29910     29914     29915     29917     29916     29920     29921
     29918     29916     29920     29921     29919     29916     29920     29921
     29923     29922     29926     29927     29924     29922     29926     29927
     29925     29922     29926     29927     29929     29928     29932     29933
     29930     29928     29932     29933     29931     29928     29932     29933
     29935     29934     29938     29939     29936     29934     29938     29939
     29937     29934     29938     29939     29941     29940     29944     29945
     29942     29940     29944     29945     29943     29940     29944     29945
     29947     29946     29950     29951     29948     29946     29950     29951
     29949     29946     29950     29951     29953     29952     29956     29957
     29954     29952     29956     29957     29955     29952     29956     29957
     29959     29958     29962     29963     29960     29958     29962     29963
     29961     29958     29962     29963     29965     29964     29968     29969
     29966     29964     29968     29969     29967     29964     29968     29969
     29971     29970     29974     29975     29972     29970     29974     29975
     29973     29970     29974     29975     29977     29976     29980     29981
     29978     29976     29980     29981     29979     29976     29980     29981
     29983     29982     29986     29987     29984     29982     29986     29987
     29985     29982     29986     29987     29989     29988     29992     29993
     29990     29988     29992     29993     29991     29988     29992     29993
     29995     29994     29998     29999     29996     29994     29998     29999
     29997     29994     29998     29999     30001     30000     30004     30005
     30002     30000     30004     30005     30003     30000     30004     30005
     30007     30006     30010     30011     30008     30006     30010     30011
     30009     30006     30010     30011     30013     30012     30016     30017
     30014     30012     30016     30017     30015     30012     30016     30017
     30019     30018     30022     30023     30020     30018     30022     30023
     30021     30018     30022     30023     30025     30024     30028     30029
     30026     30024     30028     30029     30027     30024     30028     30029
     30031     30030     30034     30035     30032     30030     30034     30035
     30033     30030     30034     30035     30037     30036     30040     30041
     30038     30036     30040     30041     30039     30036     30040     30041
     30043     30042     30046     30047     30044     30042     30046     30047
     30045     30042     30046     30047     30049     30048     30052     30053
     30050     30048     30052     30053     30051     30048     30052     30053
     30055     30054     30058     30059     30056     30054     30058     30059
     30057     30054     30058     30059     30061     30060     30064     30065
     30062     30060     30064     30065     30063     30060     30064     30065
     30067     30066     30070     30071     30068     30066     30070     30071
     30069     30066     30070     30071     30073     30072     30076     30077
     30074     30072     30076     30077     30075     30072     30076     30077
     30079     30078     30082     30083     30080     30078     30082     30083
     30081     30078     30082     30083     30085     30084     30088     30089
     30086     30084     30088     30089     30087     30084     30088     30089
     30091     30090     30094     30095     30092     30090     30094     30095
     30093     30090     30094     30095     30097     30096     30100     30101
     30098     30096     30100     30101     30099     30096     30100     30101
     30103     30102     30106     30107     30104     30102     30106     30107
     30105     30102     30106     30107     30109     30108     30112     30113
     30110     30108     30112     30113     30111     30108     30112     30113
     30115     30114     30118     30119     30116     30114     30118     30119
     30117     30114     30118     30119     30121     30120     30124     30125
     30122     30120     30124     30125     30123     30120     30124     30125
     30127     30126     30130     30131     30128     30126     30130     30131
     30129     30126     30130     30131     30133     30132     30136     30137
     30134     30132     30136     30137     30135     30132     30136     30137
     30139     30138     30142     30143     30140     30138     30142     30143
     30141     30138     30142     30143     30145     30144     30148     30149
     30146     30144     30148     30149     30147     30144     30148     30149
     30151     30150     30154     30155     30152     30150     30154     30155
     30153     30150     30154     30155     30157     30156     30160     30161
     30158     30156     30160     30161     30159     30156     30160     30161
     30163     30162     30166     30167     30164     30162     30166     30167
     30165     30162     30166     30167     30169     30168     30172     30173
     30170     30168     30172     30173     30171     30168     30172     30173
     30175     30174     30178     30179     30176     30174     30178     30179
     30177     30174     30178     30179     30181     30180     30184     30185
     30182     30180     30184     30185     30183     30180     30184     30185
     30187     30186     30190     30191     30188     30186     30190     30191
     30189     30186     30190     30191     30193     30192     30196     30197
     30194     30192     30196     30197     30195     30192     30196     30197
     30199     30198     30202     30203     30200     30198     30202     30203
     30201     30198     30202     30203     30205     30204     30208     30209
     30206     30204     30208     30209     30207     30204     30208     30209
     30211     30210     30214     30215     30212     30210     30214     30215
     30213     30210     30214     30215     30217     30216     30220     30221
     30218     30216     30220     30221     30219     30216     30220     30221
     30223     30222     30226     30227     30224     30222     30226     30227
     30225     30222     30226     30227     30229     30228     30232     30233
     30230     30228     30232     30233     30231     30228     30232     30233
     30235     30234     30238     30239     30236     30234     30238     30239
     30237     30234     30238     30239     30241     30240     30244     30245
     30242     30240     30244     30245     30243     30240     30244     30245
     30247     30246     30250     30251     30248     30246     30250     30251
     30249     30246     30250     30251     30253     30252     30256     30257
     30254     30252     30256     30257     30255     30252     30256     30257
     30259     30258     30262     30263     30260     30258     30262     30263
     30261     30258     30262     30263     30265     30264     30268     30269
     30266     30264     30268     30269     30267     30264     30268     30269
     30271     30270     30274     30275     30272     30270     30274     30275
     30273     30270     30274     30275     30277     30276     30280     30281
     30278     30276     30280     30281     30279     30276     30280     30281
     30283     30282     30286     30287     30284     30282     30286     30287
     30285     30282     30286     30287     30289     30288     30292     30293
     30290     30288     30292     30293     30291     30288     30292     30293
     30295     30294     30298     30299     30296     30294     30298     30299
     30297     30294     30298     30299     30301     30300     30304     30305
     30302     30300     30304     30305     30303     30300     30304     30305
     30307     30306     30310     30311     30308     30306     30310     30311
     30309     30306     30310     30311     30313     30312     30316     30317
     30314     30312     30316     30317     30315     30312     30316     30317
     30319     30318     30322     30323     30320     30318     30322     30323
     30321     30318     30322     30323     30325     30324     30328     30329
     30326     30324     30328     30329     30327     30324     30328     30329
     30331     30330     30334     30335     30332     30330     30334     30335
     30333     30330     30334     30335     30337     30336     30340     30341
     30338     30336     30340     30341     30339     30336     30340     30341
     30343     30342     30346     30347     30344     30342     30346     30347
     30345     30342     30346     30347     30349     30348     30352     30353
     30350     30348     30352     30353     30351     30348     30352     30353
     30355     30354     30358     30359     30356     30354     30358     30359
     30357     30354     30358     30359     30361     30360     30364     30365
     30362     30360     30364     30365     30363     30360     30364     30365
     30367     30366     30370     30371     30368     30366     30370     30371
     30369     30366     30370     30371     30373     30372     30376     30377
     30374     30372     30376     30377     30375     30372     30376     30377
     30379     30378     30382     30383     30380     30378     30382     30383
     30381     30378     30382     30383     30385     30384     30388     30389
     30386     30384     30388     30389     30387     30384     30388     30389
     30391     30390     30394     30395     30392     30390     30394     30395
     30393     30390     30394     30395     30397     30396     30400     30401
     30398     30396     30400     30401     30399     30396     30400     30401
     30403     30402     30406     30407     30404     30402     30406     30407
     30405     30402     30406     30407     30409     30408     30412     30413
     30410     30408     30412     30413     30411     30408     30412     30413
     30415     30414     30418     30419     30416     30414     30418     30419
     30417     30414     30418     30419     30421     30420     30424     30425
     30422     30420     30424     30425     30423     30420     30424     30425
     30427     30426     30430     30431     30428     30426     30430     30431
     30429     30426     30430     30431     30433     30432     30436     30437
     30434     30432     30436     30437     30435     30432     30436     30437
     30439     30438     30442     30443     30440     30438     30442     30443
     30441     30438     30442     30443     30445     30444     30448     30449
     30446     30444     30448     30449     30447     30444     30448     30449
     30451     30450     30454     30455     30452     30450     30454     30455
     30453     30450     30454     30455     30457     30456     30460     30461
     30458     30456     30460     30461     30459     30456     30460     30461
     30463     30462     30466     30467     30464     30462     30466     30467
     30465     30462     30466     30467     30469     30468     30472     30473
     30470     30468     30472     30473     30471     30468     30472     30473
     30475     30474     30478     30479     30476     30474     30478     30479
     30477     30474     30478     30479     30481     30480     30484     30485
     30482     30480     30484     30485     30483     30480     30484     30485
     30487     30486     30490     30491     30488     30486     30490     30491
     30489     30486     30490     30491     30493     30492     30496     30497
     30494     30492     30496     30497     30495     30492     30496     30497
     30499     30498     30502     30503     30500     30498     30502     30503
     30501     30498     30502     30503     30505     30504     30508     30509
     30506     30504     30508     30509     30507     30504     30508     30509
     30511     30510     30514     30515     30512     30510     30514     30515
     30513     30510     30514     30515     30517     30516     30520     30521
     30518     30516     30520     30521     30519     30516     30520     30521
     30523     30522     30526     30527     30524     30522     30526     30527
     30525     30522     30526     30527     30529     30528     30532     30533
     30530     30528     30532     30533     30531     30528     30532     30533
     30535     30534     30538     30539     30536     30534     30538     30539
     30537     30534     30538     30539     30541     30540     30544     30545
     30542     30540     30544     30545     30543     30540     30544     30545
     30547     30546     30550     30551     30548     30546     30550     30551
     30549     30546     30550     30551     30553     30552     30556     30557
     30554     30552     30556     30557     30555     30552     30556     30557
     30559     30558     30562     30563     30560     30558     30562     30563
     30561     30558     30562     30563     30565     30564     30568     30569
     30566     30564     30568     30569     30567     30564     30568     30569
     30571     30570     30574     30575     30572     30570     30574     30575
     30573     30570     30574     30575     30577     30576     30580     30581
     30578     30576     30580     30581     30579     30576     30580     30581
     30583     30582     30586     30587     30584     30582     30586     30587
     30585     30582     30586     30587     30589     30588     30592     30593
     30590     30588     30592     30593     30591     30588     30592     30593
     30595     30594     30598     30599     30596     30594     30598     30599
     30597     30594     30598     30599     30601     30600     30604     30605
     30602     30600     30604     30605     30603     30600     30604     30605
     30607     30606     30610     30611     30608     30606     30610     30611
     30609     30606     30610     30611     30613     30612     30616     30617
     30614     30612     30616     30617     30615     30612     30616     30617
     30619     30618     30622     30623     30620     30618     30622     30623
     30621     30618     30622     30623     30625     30624     30628     30629
     30626     30624     30628     30629     30627     30624     30628     30629
     30631     30630     30634     30635     30632     30630     30634     30635
     30633     30630     30634     30635     30637     30636     30640     30641
     30638     30636     30640     30641     30639     30636     30640     30641
     30643     30642     30646     30647     30644     30642     30646     30647
     30645     30642     30646     30647     30649     30648     30652     30653
     30650     30648     30652     30653     30651     30648     30652     30653
     30655     30654     30658     30659     30656     30654     30658     30659
     30657     30654     30658     30659     30661     30660     30664     30665
     30662     30660     30664     30665     30663     30660     30664     30665
     30667     30666     30670     30671     30668     30666     30670     30671
     30669     30666     30670     30671     30673     30672     30676     30677
     30674     30672     30676     30677     30675     30672     30676     30677
     30679     30678     30682     30683     30680     30678     30682     30683
     30681     30678     30682     30683     30685     30684     30688     30689
     30686     30684     30688     30689     30687     30684     30688     30689
     30691     30690     30694     30695     30692     30690     30694     30695
     30693     30690     30694     30695     30697     30696     30700     30701
     30698     30696     30700     30701     30699     30696     30700     30701
     30703     30702     30706     30707     30704     30702     30706     30707
     30705     30702     30706     30707     30709     30708     30712     30713
     30710     30708     30712     30713     30711     30708     30712     30713
     30715     30714     30718     30719     30716     30714     30718     30719
     30717     30714     30718     30719     30721     30720     30724     30725
     30722     30720     30724     30725     30723     30720     30724     30725
     30727     30726     30730     30731     30728     30726     30730     30731
     30729     30726     30730     30731     30733     30732     30736     30737
     30734     30732     30736     30737     30735     30732     30736     30737
     30739     30738     30742     30743     30740     30738     30742     30743
     30741     30738     30742     30743     30745     30744     30748     30749
     30746     30744     30748     30749     30747     30744     30748     30749
     30751     30750     30754     30755     30752     30750     30754     30755
     30753     30750     30754     30755     30757     30756     30760     30761
     30758     30756     30760     30761     30759     30756     30760     30761
     30763     30762     30766     30767     30764     30762     30766     30767
     30765     30762     30766     30767     30769     30768     30772     30773
     30770     30768     30772     30773     30771     30768     30772     30773
     30775     30774     30778     30779     30776     30774     30778     30779
     30777     30774     30778     30779     30781     30780     30784     30785
     30782     30780     30784     30785     30783     30780     30784     30785
     30787     30786     30790     30791     30788     30786     30790     30791
     30789     30786     30790     30791     30793     30792     30796     30797
     30794     30792     30796     30797     30795     30792     30796     30797
     30799     30798     30802     30803     30800     30798     30802     30803
     30801     30798     30802     30803     30805     30804     30808     30809
     30806     30804     30808     30809     30807     30804     30808     30809
     30811     30810     30814     30815     30812     30810     30814     30815
     30813     30810     30814     30815     30817     30816     30820     30821
     30818     30816     30820     30821     30819     30816     30820     30821
     30823     30822     30826     30827     30824     30822     30826     30827
     30825     30822     30826     30827     30829     30828     30832     30833
     30830     30828     30832     30833     30831     30828     30832     30833
     30835     30834     30838     30839     30836     30834     30838     30839
     30837     30834     30838     30839     30841     30840     30844     30845
     30842     30840     30844     30845     30843     30840     30844     30845
     30847     30846     30850     30851     30848     30846     30850     30851
     30849     30846     30850     30851     30853     30852     30856     30857
     30854     30852     30856     30857     30855     30852     30856     30857
     30859     30858     30862     30863     30860     30858     30862     30863
     30861     30858     30862     30863     30865     30864     30868     30869
     30866     30864     30868     30869     30867     30864     30868     30869
     30871     30870     30874     30875     30872     30870     30874     30875
     30873     30870     30874     30875     30877     30876     30880     30881
     30878     30876     30880     30881     30879     30876     30880     30881
     30883     30882     30886     30887     30884     30882     30886     30887
     30885     30882     30886     30887     30889     30888     30892     30893
     30890     30888     30892     30893     30891     30888     30892     30893
     30895     30894     30898     30899     30896     30894     30898     30899
     30897     30894     30898     30899     30901     30900     30904     30905
     30902     30900     30904     30905     30903     30900     30904     30905
     30907     30906     30910     30911     30908     30906     30910     30911
     30909     30906     30910     30911     30913     30912     30916     30917
     30914     30912     30916     30917     30915     30912     30916     30917
     30919     30918     30922     30923     30920     30918     30922     30923
     30921     30918     30922     30923     30925     30924     30928     30929
     30926     30924     30928     30929     30927     30924     30928     30929
     30931     30930     30934     30935     30932     30930     30934     30935
     30933     30930     30934     30935     30937     30936     30940     30941
     30938     30936     30940     30941     30939     30936     30940     30941
     30943     30942     30946     30947     30944     30942     30946     30947
     30945     30942     30946     30947     30949     30948     30952     30953
     30950     30948     30952     30953     30951     30948     30952     30953
     30955     30954     30958     30959     30956     30954     30958     30959
     30957     30954     30958     30959     30961     30960     30964     30965
     30962     30960     30964     30965     30963     30960     30964     30965
     30967     30966     30970     30971     30968     30966     30970     30971
     30969     30966     30970     30971     30973     30972     30976     30977
     30974     30972     30976     30977     30975     30972     30976     30977
     30979     30978     30982     30983     30980     30978     30982     30983
     30981     30978     30982     30983     30985     30984     30988     30989
     30986     30984     30988     30989     30987     30984     30988     30989
     30991     30990     30994     30995     30992     30990     30994     30995
     30993     30990     30994     30995     30997     30996     31000     31001
     30998     30996     31000     31001     30999     30996     31000     31001
     31003     31002     31006     31007     31004     31002     31006     31007
     31005     31002     31006     31007     31009     31008     31012     31013
     31010     31008     31012     31013     31011     31008     31012     31013
     31015     31014     31018     31019     31016     31014     31018     31019
     31017     31014     31018     31019     31021     31020     31024     31025
     31022     31020     31024     31025     31023     31020     31024     31025
     31027     31026     31030     31031     31028     31026     31030     31031
     31029     31026     31030     31031     31033     31032     31036     31037
     31034     31032     31036     31037     31035     31032     31036     31037
     31039     31038     31042     31043     31040     31038     31042     31043
     31041     31038     31042     31043     31045     31044     31048     31049
     31046     31044     31048     31049     31047     31044     31048     31049
     31051     31050     31054     31055     31052     31050     31054     31055
     31053     31050     31054     31055     31057     31056     31060     31061
     31058     31056     31060     31061     31059     31056     31060     31061
     31063     31062     31066     31067     31064     31062     31066     31067
     31065     31062     31066     31067     31069     31068     31072     31073
     31070     31068     31072     31073     31071     31068     31072     31073
     31075     31074     31078     31079     31076     31074     31078     31079
     31077     31074     31078     31079     31081     31080     31084     31085
     31082     31080     31084     31085     31083     31080     31084     31085
     31087     31086     31090     31091     31088     31086     31090     31091
     31089     31086     31090     31091     31093     31092     31096     31097
     31094     31092     31096     31097     31095     31092     31096     31097
     31099     31098     31102     31103     31100     31098     31102     31103
     31101     31098     31102     31103     31105     31104     31108     31109
     31106     31104     31108     31109     31107     31104     31108     31109
     31111     31110     31114     31115     31112     31110     31114     31115
     31113     31110     31114     31115     31117     31116     31120     31121
     31118     31116     31120     31121     31119     31116     31120     31121
     31123     31122     31126     31127     31124     31122     31126     31127
     31125     31122     31126     31127     31129     31128     31132     31133
     31130     31128     31132     31133     31131     31128     31132     31133
     31135     31134     31138     31139     31136     31134     31138     31139
     31137     31134     31138     31139     31141     31140     31144     31145
     31142     31140     31144     31145     31143     31140     31144     31145
     31147     31146     31150     31151     31148     31146     31150     31151
     31149     31146     31150     31151     31153     31152     31156     31157
     31154     31152     31156     31157     31155     31152     31156     31157
     31159     31158     31162     31163     31160     31158     31162     31163
     31161     31158     31162     31163     31165     31164     31168     31169
     31166     31164     31168     31169     31167     31164     31168     31169
     31171     31170     31174     31175     31172     31170     31174     31175
     31173     31170     31174     31175     31177     31176     31180     31181
     31178     31176     31180     31181     31179     31176     31180     31181
     31183     31182     31186     31187     31184     31182     31186     31187
     31185     31182     31186     31187     31189     31188     31192     31193
     31190     31188     31192     31193     31191     31188     31192     31193
     31195     31194     31198     31199     31196     31194     31198     31199
     31197     31194     31198     31199     31201     31200     31204     31205
     31202     31200     31204     31205     31203     31200     31204     31205
     31207     31206     31210     31211     31208     31206     31210     31211
     31209     31206     31210     31211     31213     31212     31216     31217
     31214     31212     31216     31217     31215     31212     31216     31217
     31219     31218     31222     31223     31220     31218     31222     31223
     31221     31218     31222     31223     31225     31224     31228     31229
     31226     31224     31228     31229     31227     31224     31228     31229
     31231     31230     31234     31235     31232     31230     31234     31235
     31233     31230     31234     31235     31237     31236     31240     31241
     31238     31236     31240     31241     31239     31236     31240     31241
     31243     31242     31246     31247     31244     31242     31246     31247
     31245     31242     31246     31247     31249     31248     31252     31253
     31250     31248     31252     31253     31251     31248     31252     31253
     31255     31254     31258     31259     31256     31254     31258     31259
     31257     31254     31258     31259     31261     31260     31264     31265
     31262     31260     31264     31265     31263     31260     31264     31265
     31267     31266     31270     31271     31268     31266     31270     31271
     31269     31266     31270     31271     31273     31272     31276     31277
     31274     31272     31276     31277     31275     31272     31276     31277
     31279     31278     31282     31283     31280     31278     31282     31283
     31281     31278     31282     31283     31285     31284     31288     31289
     31286     31284     31288     31289     31287     31284     31288     31289
     31291     31290     31294     31295     31292     31290     31294     31295
     31293     31290     31294     31295     31297     31296     31300     31301
     31298     31296     31300     31301     31299     31296     31300     31301
     31303     31302     31306     31307     31304     31302     31306     31307
     31305     31302     31306     31307     31309     31308     31312     31313
     31310     31308     31312     31313     31311     31308     31312     31313
     31315     31314     31318     31319     31316     31314     31318     31319
     31317     31314     31318     31319     31321     31320     31324     31325
     31322     31320     31324     31325     31323     31320     31324     31325
     31327     31326     31330     31331     31328     31326     31330     31331
     31329     31326     31330     31331     31333     31332     31336     31337
     31334     31332     31336     31337     31335     31332     31336     31337
     31339     31338     31342     31343     31340     31338     31342     31343
     31341     31338     31342     31343     31345     31344     31348     31349
     31346     31344     31348     31349     31347     31344     31348     31349
     31351     31350     31354     31355     31352     31350     31354     31355
     31353     31350     31354     31355     31357     31356     31360     31361
     31358     31356     31360     31361     31359     31356     31360     31361
     31363     31362     31366     31367     31364     31362     31366     31367
     31365     31362     31366     31367     31369     31368     31372     31373
     31370     31368     31372     31373     31371     31368     31372     31373
     31375     31374     31378     31379     31376     31374     31378     31379
     31377     31374     31378     31379     31381     31380     31384     31385
     31382     31380     31384     31385     31383     31380     31384     31385
     31387     31386     31390     31391     31388     31386     31390     31391
     31389     31386     31390     31391     31393     31392     31396     31397
     31394     31392     31396     31397     31395     31392     31396     31397
     31399     31398     31402     31403     31400     31398     31402     31403
     31401     31398     31402     31403     31405     31404     31408     31409
     31406     31404     31408     31409     31407     31404     31408     31409
     31411     31410     31414     31415     31412     31410     31414     31415
     31413     31410     31414     31415     31417     31416     31420     31421
     31418     31416     31420     31421     31419     31416     31420     31421
     31423     31422     31426     31427     31424     31422     31426     31427
     31425     31422     31426     31427     31429     31428     31432     31433
     31430     31428     31432     31433     31431     31428     31432     31433
     31435     31434     31438     31439     31436     31434     31438     31439
     31437     31434     31438     31439     31441     31440     31444     31445
     31442     31440     31444     31445     31443     31440     31444     31445
     31447     31446     31450     31451     31448     31446     31450     31451
     31449     31446     31450     31451     31453     31452     31456     31457
     31454     31452     31456     31457     31455     31452     31456     31457
     31459     31458     31462     31463     31460     31458     31462     31463
     31461     31458     31462     31463     31465     31464     31468     31469
     31466     31464     31468     31469     31467     31464     31468     31469
     31471     31470     31474     31475     31472     31470     31474     31475
     31473     31470     31474     31475     31477     31476     31480     31481
     31478     31476     31480     31481     31479     31476     31480     31481
     31483     31482     31486     31487     31484     31482     31486     31487
     31485     31482     31486     31487     31489     31488     31492     31493
     31490     31488     31492     31493     31491     31488     31492     31493
     31495     31494     31498     31499     31496     31494     31498     31499
     31497     31494     31498     31499     31501     31500     31504     31505
     31502     31500     31504     31505     31503     31500     31504     31505
     31507     31506     31510     31511     31508     31506     31510     31511
     31509     31506     31510     31511     31513     31512     31516     31517
     31514     31512     31516     31517     31515     31512     31516     31517
     31519     31518     31522     31523     31520     31518     31522     31523
     31521     31518     31522     31523     31525     31524     31528     31529
     31526     31524     31528     31529     31527     31524     31528     31529
     31531     31530     31534     31535     31532     31530     31534     31535
     31533     31530     31534     31535     31537     31536     31540     31541
     31538     31536     31540     31541     31539     31536     31540     31541
     31543     31542     31546     31547     31544     31542     31546     31547
     31545     31542     31546     31547     31549     31548     31552     31553
     31550     31548     31552     31553     31551     31548     31552     31553
     31555     31554     31558     31559     31556     31554     31558     31559
     31557     31554     31558     31559     31561     31560     31564     31565
     31562     31560     31564     31565     31563     31560     31564     31565
     31567     31566     31570     31571     31568     31566     31570     31571
     31569     31566     31570     31571     31573     31572     31576     31577
     31574     31572     31576     31577     31575     31572     31576     31577
     31579     31578     31582     31583     31580     31578     31582     31583
     31581     31578     31582     31583     31585     31584     31588     31589
     31586     31584     31588     31589     31587     31584     31588     31589
     31591     31590     31594     31595     31592     31590     31594     31595
     31593     31590     31594     31595     31597     31596     31600     31601
     31598     31596     31600     31601     31599     31596     31600     31601
     31603     31602     31606     31607     31604     31602     31606     31607
     31605     31602     31606     31607     31609     31608     31612     31613
     31610     31608     31612     31613     31611     31608     31612     31613
     31615     31614     31618     31619     31616     31614     31618     31619
     31617     31614     31618     31619     31621     31620     31624     31625
     31622     31620     31624     31625     31623     31620     31624     31625
     31627     31626     31630     31631     31628     31626     31630     31631
     31629     31626     31630     31631     31633     31632     31636     31637
     31634     31632     31636     31637     31635     31632     31636     31637
     31639     31638     31642     31643     31640     31638     31642     31643
     31641     31638     31642     31643     31645     31644     31648     31649
     31646     31644     31648     31649     31647     31644     31648     31649
     31651     31650     31654     31655     31652     31650     31654     31655
     31653     31650     31654     31655     31657     31656     31660     31661
     31658     31656     31660     31661     31659     31656     31660     31661
     31663     31662     31666     31667     31664     31662     31666     31667
     31665     31662     31666     31667     31669     31668     31672     31673
     31670     31668     31672     31673     31671     31668     31672     31673
     31675     31674     31678     31679     31676     31674     31678     31679
     31677     31674     31678     31679     31681     31680     31684     31685
     31682     31680     31684     31685     31683     31680     31684     31685
     31687     31686     31690     31691     31688     31686     31690     31691
     31689     31686     31690     31691     31693     31692     31696     31697
     31694     31692     31696     31697     31695     31692     31696     31697
     31699     31698     31702     31703     31700     31698     31702     31703
     31701     31698     31702     31703     31705     31704     31708     31709
     31706     31704     31708     31709     31707     31704     31708     31709
     31711     31710     31714     31715     31712     31710     31714     31715
     31713     31710     31714     31715     31717     31716     31720     31721
     31718     31716     31720     31721     31719     31716     31720     31721
     31723     31722     31726     31727     31724     31722     31726     31727
     31725     31722     31726     31727     31729     31728     31732     31733
     31730     31728     31732     31733     31731     31728     31732     31733
     31735     31734     31738     31739     31736     31734     31738     31739
     31737     31734     31738     31739     31741     31740     31744     31745
     31742     31740     31744     31745     31743     31740     31744     31745
     31747     31746     31750     31751     31748     31746     31750     31751
     31749     31746     31750     31751     31753     31752     31756     31757
     31754     31752     31756     31757     31755     31752     31756     31757
     31759     31758     31762     31763     31760     31758     31762     31763
     31761     31758     31762     31763     31765     31764     31768     31769
     31766     31764     31768     31769     31767     31764     31768     31769
     31771     31770     31774     31775     31772     31770     31774     31775
     31773     31770     31774     31775     31777     31776     31780     31781
     31778     31776     31780     31781     31779     31776     31780     31781
     31783     31782     31786     31787     31784     31782     31786     31787
     31785     31782     31786     31787     31789     31788     31792     31793
     31790     31788     31792     31793     31791     31788     31792     31793
     31795     31794     31798     31799     31796     31794     31798     31799
     31797     31794     31798     31799     31801     31800     31804     31805
     31802     31800     31804     31805     31803     31800     31804     31805
     31807     31806     31810     31811     31808     31806     31810     31811
     31809     31806     31810     31811     31813     31812     31816     31817
     31814     31812     31816     31817     31815     31812     31816     31817
     31819     31818     31822     31823     31820     31818     31822     31823
     31821     31818     31822     31823     31825     31824     31828     31829
     31826     31824     31828     31829     31827     31824     31828     31829
     31831     31830     31834     31835     31832     31830     31834     31835
     31833     31830     31834     31835     31837     31836     31840     31841
     31838     31836     31840     31841     31839     31836     31840     31841
     31843     31842     31846     31847     31844     31842     31846     31847
     31845     31842     31846     31847     31849     31848     31852     31853
     31850     31848     31852     31853     31851     31848     31852     31853
     31855     31854     31858     31859     31856     31854     31858     31859
     31857     31854     31858     31859     31861     31860     31864     31865
     31862     31860     31864     31865     31863     31860     31864     31865
     31867     31866     31870     31871     31868     31866     31870     31871
     31869     31866     31870     31871     31873     31872     31876     31877
     31874     31872     31876     31877     31875     31872     31876     31877
     31879     31878     31882     31883     31880     31878     31882     31883
     31881     31878     31882     31883     31885     31884     31888     31889
     31886     31884     31888     31889     31887     31884     31888     31889
     31891     31890     31894     31895     31892     31890     31894     31895
     31893     31890     31894     31895     31897     31896     31900     31901
     31898     31896     31900     31901     31899     31896     31900     31901
     31903     31902     31906     31907     31904     31902     31906     31907
     31905     31902     31906     31907     31909     31908     31912     31913
     31910     31908     31912     31913     31911     31908     31912     31913
     31915     31914     31918     31919     31916     31914     31918     31919
     31917     31914     31918     31919     31921     31920     31924     31925
     31922     31920     31924     31925     31923     31920     31924     31925
     31927     31926     31930     31931     31928     31926     31930     31931
     31929     31926     31930     31931     31933     31932     31936     31937
     31934     31932     31936     31937     31935     31932     31936     31937
     31939     31938     31942     31943     31940     31938     31942     31943
     31941     31938     31942     31943     31945     31944     31948     31949
     31946     31944     31948     31949     31947     31944     31948     31949
     31951     31950     31954     31955     31952     31950     31954     31955
     31953     31950     31954     31955     31957     31956     31960     31961
     31958     31956     31960     31961     31959     31956     31960     31961
     31963     31962     31966     31967     31964     31962     31966     31967
     31965     31962     31966     31967     31969     31968     31972     31973
     31970     31968     31972     31973     31971     31968     31972     31973
     31975     31974     31978     31979     31976     31974     31978     31979
     31977     31974     31978     31979     31981     31980     31984     31985
     31982     31980     31984     31985     31983     31980     31984     31985
     31987     31986     31990     31991     31988     31986     31990     31991
     31989     31986     31990     31991     31993     31992     31996     31997
     31994     31992     31996     31997     31995     31992     31996     31997
     31999     31998     32002     32003     32000     31998     32002     32003
     32001     31998     32002     32003     32005     32004     32008     32009
     32006     32004     32008     32009     32007     32004     32008     32009
     32011     32010     32014     32015     32012     32010     32014     32015
     32013     32010     32014     32015     32017     32016     32020     32021
     32018     32016     32020     32021     32019     32016     32020     32021
     32023     32022     32026     32027     32024     32022     32026     32027
     32025     32022     32026     32027     32029     32028     32032     32033
     32030     32028     32032     32033     32031     32028     32032     32033
     32035     32034     32038     32039     32036     32034     32038     32039
     32037     32034     32038     32039     32041     32040     32044     32045
     32042     32040     32044     32045     32043     32040     32044     32045
     32047     32046     32050     32051     32048     32046     32050     32051
     32049     32046     32050     32051     32053     32052     32056     32057
     32054     32052     32056     32057     32055     32052     32056     32057
     32059     32058     32062     32063     32060     32058     32062     32063
     32061     32058     32062     32063     32065     32064     32068     32069
     32066     32064     32068     32069     32067     32064     32068     32069
     32071     32070     32074     32075     32072     32070     32074     32075
     32073     32070     32074     32075     32077     32076     32080     32081
     32078     32076     32080     32081     32079     32076     32080     32081
     32083     32082     32086     32087     32084     32082     32086     32087
     32085     32082     32086     32087     32089     32088     32092     32093
     32090     32088     32092     32093     32091     32088     32092     32093
     32095     32094     32098     32099     32096     32094     32098     32099
     32097     32094     32098     32099     32101     32100     32104     32105
     32102     32100     32104     32105     32103     32100     32104     32105
     32107     32106     32110     32111     32108     32106     32110     32111
     32109     32106     32110     32111     32113     32112     32116     32117
     32114     32112     32116     32117     32115     32112     32116     32117
     32119     32118     32122     32123     32120     32118     32122     32123
     32121     32118     32122     32123     32125     32124     32128     32129
     32126     32124     32128     32129     32127     32124     32128     32129
     32131     32130     32134     32135     32132     32130     32134     32135
     32133     32130     32134     32135     32137     32136     32140     32141
     32138     32136     32140     32141     32139     32136     32140     32141
     32143     32142     32146     32147     32144     32142     32146     32147
     32145     32142     32146     32147     32149     32148     32152     32153
     32150     32148     32152     32153     32151     32148     32152     32153
     32155     32154     32158     32159     32156     32154     32158     32159
     32157     32154     32158     32159     32161     32160     32164     32165
     32162     32160     32164     32165     32163     32160     32164     32165
     32167     32166     32170     32171     32168     32166     32170     32171
     32169     32166     32170     32171     32173     32172     32176     32177
     32174     32172     32176     32177     32175     32172     32176     32177
     32179     32178     32182     32183     32180     32178     32182     32183
     32181     32178     32182     32183     32185     32184     32188     32189
     32186     32184     32188     32189     32187     32184     32188     32189
     32191     32190     32194     32195     32192     32190     32194     32195
     32193     32190     32194     32195     32197     32196     32200     32201
     32198     32196     32200     32201     32199     32196     32200     32201
     32203     32202     32206     32207     32204     32202     32206     32207
     32205     32202     32206     32207     32209     32208     32212     32213
     32210     32208     32212     32213     32211     32208     32212     32213
     32215     32214     32218     32219     32216     32214     32218     32219
     32217     32214     32218     32219     32221     32220     32224     32225
     32222     32220     32224     32225     32223     32220     32224     32225
     32227     32226     32230     32231     32228     32226     32230     32231
     32229     32226     32230     32231     32233     32232     32236     32237
     32234     32232     32236     32237     32235     32232     32236     32237
     32239     32238     32242     32243     32240     32238     32242     32243
     32241     32238     32242     32243     32245     32244     32248     32249
     32246     32244     32248     32249     32247     32244     32248     32249
     32251     32250     32254     32255     32252     32250     32254     32255
     32253     32250     32254     32255     32257     32256     32260     32261
     32258     32256     32260     32261     32259     32256     32260     32261
     32263     32262     32266     32267     32264     32262     32266     32267
     32265     32262     32266     32267     32269     32268     32272     32273
     32270     32268     32272     32273     32271     32268     32272     32273
     32275     32274     32278     32279     32276     32274     32278     32279
     32277     32274     32278     32279     32281     32280     32284     32285
     32282     32280     32284     32285     32283     32280     32284     32285
     32287     32286     32290     32291     32288     32286     32290     32291
     32289     32286     32290     32291     32293     32292     32296     32297
     32294     32292     32296     32297     32295     32292     32296     32297
     32299     32298     32302     32303     32300     32298     32302     32303
     32301     32298     32302     32303     32305     32304     32308     32309
     32306     32304     32308     32309     32307     32304     32308     32309
     32311     32310     32314     32315     32312     32310     32314     32315
     32313     32310     32314     32315     32317     32316     32320     32321
     32318     32316     32320     32321     32319     32316     32320     32321
     32323     32322     32326     32327     32324     32322     32326     32327
     32325     32322     32326     32327     32329     32328     32332     32333
     32330     32328     32332     32333     32331     32328     32332     32333
     32335     32334     32338     32339     32336     32334     32338     32339
     32337     32334     32338     32339     32341     32340     32344     32345
     32342     32340     32344     32345     32343     32340     32344     32345
     32347     32346     32350     32351     32348     32346     32350     32351
     32349     32346     32350     32351     32353     32352     32356     32357
     32354     32352     32356     32357     32355     32352     32356     32357
     32359     32358     32362     32363     32360     32358     32362     32363
     32361     32358     32362     32363     32365     32364     32368     32369
     32366     32364     32368     32369     32367     32364     32368     32369
     32371     32370     32374     32375     32372     32370     32374     32375
     32373     32370     32374     32375     32377     32376     32380     32381
     32378     32376     32380     32381     32379     32376     32380     32381
     32383     32382     32386     32387     32384     32382     32386     32387
     32385     32382     32386     32387     32389     32388     32392     32393
     32390     32388     32392     32393     32391     32388     32392     32393
     32395     32394     32398     32399     32396     32394     32398     32399
     32397     32394     32398     32399     32401     32400     32404     32405
     32402     32400     32404     32405     32403     32400     32404     32405
     32407     32406     32410     32411     32408     32406     32410     32411
     32409     32406     32410     32411     32413     32412     32416     32417
     32414     32412     32416     32417     32415     32412     32416     32417
     32419     32418     32422     32423     32420     32418     32422     32423
     32421     32418     32422     32423     32425     32424     32428     32429
     32426     32424     32428     32429     32427     32424     32428     32429
     32431     32430     32434     32435     32432     32430     32434     32435
     32433     32430     32434     32435     32437     32436     32440     32441
     32438     32436     32440     32441     32439     32436     32440     32441
     32443     32442     32446     32447     32444     32442     32446     32447
     32445     32442     32446     32447     32449     32448     32452     32453
     32450     32448     32452     32453     32451     32448     32452     32453
     32455     32454     32458     32459     32456     32454     32458     32459
     32457     32454     32458     32459     32461     32460     32464     32465
     32462     32460     32464     32465     32463     32460     32464     32465
     32467     32466     32470     32471     32468     32466     32470     32471
     32469     32466     32470     32471     32473     32472     32476     32477
     32474     32472     32476     32477     32475     32472     32476     32477
     32479     32478     32482     32483     32480     32478     32482     32483
     32481     32478     32482     32483     32485     32484     32488     32489
     32486     32484     32488     32489     32487     32484     32488     32489
     32491     32490     32494     32495     32492     32490     32494     32495
     32493     32490     32494     32495     32497     32496     32500     32501
     32498     32496     32500     32501     32499     32496     32500     32501
     32503     32502     32506     32507     32504     32502     32506     32507
     32505     32502     32506     32507     32509     32508     32512     32513
     32510     32508     32512     32513     32511     32508     32512     32513
     32515     32514     32518     32519     32516     32514     32518     32519
     32517     32514     32518     32519     32521     32520     32524     32525
     32522     32520     32524     32525     32523     32520     32524     32525
     32527     32526     32530     32531     32528     32526     32530     32531
     32529     32526     32530     32531     32533     32532     32536     32537
     32534     32532     32536     32537     32535     32532     32536     32537
     32539     32538     32542     32543     32540     32538     32542     32543
     32541     32538     32542     32543     32545     32544     32548     32549
     32546     32544     32548     32549     32547     32544     32548     32549
     32551     32550     32554     32555     32552     32550     32554     32555
     32553     32550     32554     32555     32557     32556     32560     32561
     32558     32556     32560     32561     32559     32556     32560     32561
     32563     32562     32566     32567     32564     32562     32566     32567
     32565     32562     32566     32567     32569     32568     32572     32573
     32570     32568     32572     32573     32571     32568     32572     32573
     32575     32574     32578     32579     32576     32574     32578     32579
     32577     32574     32578     32579     32581     32580     32584     32585
     32582     32580     32584     32585     32583     32580     32584     32585
     32587     32586     32590     32591     32588     32586     32590     32591
     32589     32586     32590     32591     32593     32592     32596     32597
     32594     32592     32596     32597     32595     32592     32596     32597
     32599     32598     32602     32603     32600     32598     32602     32603
     32601     32598     32602     32603     32605     32604     32608     32609
     32606     32604     32608     32609     32607     32604     32608     32609
     32611     32610     32614     32615     32612     32610     32614     32615
     32613     32610     32614     32615     32617     32616     32620     32621
     32618     32616     32620     32621     32619     32616     32620     32621
     32623     32622     32626     32627     32624     32622     32626     32627
     32625     32622     32626     32627     32629     32628     32632     32633
     32630     32628     32632     32633     32631     32628     32632     32633
     32635     32634     32638     32639     32636     32634     32638     32639
     32637     32634     32638     32639     32641     32640     32644     32645
     32642     32640     32644     32645     32643     32640     32644     32645
     32647     32646     32650     32651     32648     32646     32650     32651
     32649     32646     32650     32651     32653     32652     32656     32657
     32654     32652     32656     32657     32655     32652     32656     32657
     32659     32658     32662     32663     32660     32658     32662     32663
     32661     32658     32662     32663     32665     32664     32668     32669
     32666     32664     32668     32669     32667     32664     32668     32669
     32671     32670     32674     32675     32672     32670     32674     32675
     32673     32670     32674     32675     32677     32676     32680     32681
     32678     32676     32680     32681     32679     32676     32680     32681
     32683     32682     32686     32687     32684     32682     32686     32687
     32685     32682     32686     32687     32689     32688     32692     32693
     32690     32688     32692     32693     32691     32688     32692     32693
     32695     32694     32698     32699     32696     32694     32698     32699
     32697     32694     32698     32699     32701     32700     32704     32705
     32702     32700     32704     32705     32703     32700     32704     32705
     32707     32706     32710     32711     32708     32706     32710     32711
     32709     32706     32710     32711     32713     32712     32716     32717
     32714     32712     32716     32717     32715     32712     32716     32717
     32719     32718     32722     32723     32720     32718     32722     32723
     32721     32718     32722     32723     32725     32724     32728     32729
     32726     32724     32728     32729     32727     32724     32728     32729
     32731     32730     32734     32735     32732     32730     32734     32735
     32733     32730     32734     32735     32737     32736     32740     32741
     32738     32736     32740     32741     32739     32736     32740     32741
     32743     32742     32746     32747     32744     32742     32746     32747
     32745     32742     32746     32747     32749     32748     32752     32753
     32750     32748     32752     32753     32751     32748     32752     32753
     32755     32754     32758     32759     32756     32754     32758     32759
     32757     32754     32758     32759     32761     32760     32764     32765
     32762     32760     32764     32765     32763     32760     32764     32765
     32767     32766     32770     32771     32768     32766     32770     32771
     32769     32766     32770     32771     32773     32772     32776     32777
     32774     32772     32776     32777     32775     32772     32776     32777
     32779     32778     32782     32783     32780     32778     32782     32783
     32781     32778     32782     32783     32785     32784     32788     32789
     32786     32784     32788     32789     32787     32784     32788     32789
     32791     32790     32794     32795     32792     32790     32794     32795
     32793     32790     32794     32795     32797     32796     32800     32801
     32798     32796     32800     32801     32799     32796     32800     32801
     32803     32802     32806     32807     32804     32802     32806     32807
     32805     32802     32806     32807     32809     32808     32812     32813
     32810     32808     32812     32813     32811     32808     32812     32813
     32815     32814     32818     32819     32816     32814     32818     32819
     32817     32814     32818     32819     32821     32820     32824     32825
     32822     32820     32824     32825     32823     32820     32824     32825
     32827     32826     32830     32831     32828     32826     32830     32831
     32829     32826     32830     32831     32833     32832     32836     32837
     32834     32832     32836     32837     32835     32832     32836     32837
     32839     32838     32842     32843     32840     32838     32842     32843
     32841     32838     32842     32843     32845     32844     32848     32849
     32846     32844     32848     32849     32847     32844     32848     32849
     32851     32850     32854     32855     32852     32850     32854     32855
     32853     32850     32854     32855     32857     32856     32860     32861
     32858     32856     32860     32861     32859     32856     32860     32861
     32863     32862     32866     32867     32864     32862     32866     32867
     32865     32862     32866     32867     32869     32868     32872     32873
     32870     32868     32872     32873     32871     32868     32872     32873
     32875     32874     32878     32879     32876     32874     32878     32879
     32877     32874     32878     32879     32881     32880     32884     32885
     32882     32880     32884     32885     32883     32880     32884     32885
     32887     32886     32890     32891     32888     32886     32890     32891
     32889     32886     32890     32891     32893     32892     32896     32897
     32894     32892     32896     32897     32895     32892     32896     32897
     32899     32898     32902     32903     32900     32898     32902     32903
     32901     32898     32902     32903     32905     32904     32908     32909
     32906     32904     32908     32909     32907     32904     32908     32909
     32911     32910     32914     32915     32912     32910     32914     32915
     32913     32910     32914     32915     32917     32916     32920     32921
     32918     32916     32920     32921     32919     32916     32920     32921
     32923     32922     32926     32927     32924     32922     32926     32927
     32925     32922     32926     32927     32929     32928     32932     32933
     32930     32928     32932     32933     32931     32928     32932     32933
     32935     32934     32938     32939     32936     32934     32938     32939
     32937     32934     32938     32939     32941     32940     32944     32945
     32942     32940     32944     32945     32943     32940     32944     32945
     32947     32946     32950     32951     32948     32946     32950     32951
     32949     32946     32950     32951     32953     32952     32956     32957
     32954     32952     32956     32957     32955     32952     32956     32957
     32959     32958     32962     32963     32960     32958     32962     32963
     32961     32958     32962     32963     32965     32964     32968     32969
     32966     32964     32968     32969     32967     32964     32968     32969
     32971     32970     32974     32975     32972     32970     32974     32975
     32973     32970     32974     32975     32977     32976     32980     32981
     32978     32976     32980     32981     32979     32976     32980     32981
     32983     32982     32986     32987     32984     32982     32986     32987
     32985     32982     32986     32987     32989     32988     32992     32993
     32990     32988     32992     32993     32991     32988     32992     32993
     32995     32994     32998     32999     32996     32994     32998     32999
     32997     32994     32998     32999     33001     33000     33004     33005
     33002     33000     33004     33005     33003     33000     33004     33005
     33007     33006     33010     33011     33008     33006     33010     33011
     33009     33006     33010     33011     33013     33012     33016     33017
     33014     33012     33016     33017     33015     33012     33016     33017
     33019     33018     33022     33023     33020     33018     33022     33023
     33021     33018     33022     33023     33025     33024     33028     33029
     33026     33024     33028     33029     33027     33024     33028     33029
     33031     33030     33034     33035     33032     33030     33034     33035
     33033     33030     33034     33035     33037     33036     33040     33041
     33038     33036     33040     33041     33039     33036     33040     33041
     33043     33042     33046     33047     33044     33042     33046     33047
     33045     33042     33046     33047     33049     33048     33052     33053
     33050     33048     33052     33053     33051     33048     33052     33053
     33055     33054     33058     33059     33056     33054     33058     33059
     33057     33054     33058     33059     33061     33060     33064     33065
     33062     33060     33064     33065     33063     33060     33064     33065
     33067     33066     33070     33071     33068     33066     33070     33071
     33069     33066     33070     33071     33073     33072     33076     33077
     33074     33072     33076     33077     33075     33072     33076     33077
     33079     33078     33082     33083     33080     33078     33082     33083
     33081     33078     33082     33083     33085     33084     33088     33089
     33086     33084     33088     33089     33087     33084     33088     33089
     33091     33090     33094     33095     33092     33090     33094     33095
     33093     33090     33094     33095     33097     33096     33100     33101
     33098     33096     33100     33101     33099     33096     33100     33101
     33103     33102     33106     33107     33104     33102     33106     33107
     33105     33102     33106     33107     33109     33108     33112     33113
     33110     33108     33112     33113     33111     33108     33112     33113
     33115     33114     33118     33119     33116     33114     33118     33119
     33117     33114     33118     33119     33121     33120     33124     33125
     33122     33120     33124     33125     33123     33120     33124     33125
     33127     33126     33130     33131     33128     33126     33130     33131
     33129     33126     33130     33131     33133     33132     33136     33137
     33134     33132     33136     33137     33135     33132     33136     33137
     33139     33138     33142     33143     33140     33138     33142     33143
     33141     33138     33142     33143     33145     33144     33148     33149
     33146     33144     33148     33149     33147     33144     33148     33149
     33151     33150     33154     33155     33152     33150     33154     33155
     33153     33150     33154     33155     33157     33156     33160     33161
     33158     33156     33160     33161     33159     33156     33160     33161
     33163     33162     33166     33167     33164     33162     33166     33167
     33165     33162     33166     33167     33169     33168     33172     33173
     33170     33168     33172     33173     33171     33168     33172     33173
     33175     33174     33178     33179     33176     33174     33178     33179
     33177     33174     33178     33179     33181     33180     33184     33185
     33182     33180     33184     33185     33183     33180     33184     33185
     33187     33186     33190     33191     33188     33186     33190     33191
     33189     33186     33190     33191     33193     33192     33196     33197
     33194     33192     33196     33197     33195     33192     33196     33197
     33199     33198     33202     33203     33200     33198     33202     33203
     33201     33198     33202     33203     33205     33204     33208     33209
     33206     33204     33208     33209     33207     33204     33208     33209
     33211     33210     33214     33215     33212     33210     33214     33215
     33213     33210     33214     33215     33217     33216     33220     33221
     33218     33216     33220     33221     33219     33216     33220     33221
     33223     33222     33226     33227     33224     33222     33226     33227
     33225     33222     33226     33227     33229     33228     33232     33233
     33230     33228     33232     33233     33231     33228     33232     33233
     33235     33234     33238     33239     33236     33234     33238     33239
     33237     33234     33238     33239     33241     33240     33244     33245
     33242     33240     33244     33245     33243     33240     33244     33245
     33247     33246     33250     33251     33248     33246     33250     33251
     33249     33246     33250     33251     33253     33252     33256     33257
     33254     33252     33256     33257     33255     33252     33256     33257
     33259     33258     33262     33263     33260     33258     33262     33263
     33261     33258     33262     33263     33265     33264     33268     33269
     33266     33264     33268     33269     33267     33264     33268     33269
     33271     33270     33274     33275     33272     33270     33274     33275
     33273     33270     33274     33275     33277     33276     33280     33281
     33278     33276     33280     33281     33279     33276     33280     33281
     33283     33282     33286     33287     33284     33282     33286     33287
     33285     33282     33286     33287     33289     33288     33292     33293
     33290     33288     33292     33293     33291     33288     33292     33293
     33295     33294     33298     33299     33296     33294     33298     33299
     33297     33294     33298     33299     33301     33300     33304     33305
     33302     33300     33304     33305     33303     33300     33304     33305
     33307     33306     33310     33311     33308     33306     33310     33311
     33309     33306     33310     33311     33313     33312     33316     33317
     33314     33312     33316     33317     33315     33312     33316     33317
     33319     33318     33322     33323     33320     33318     33322     33323
     33321     33318     33322     33323     33325     33324     33328     33329
     33326     33324     33328     33329     33327     33324     33328     33329
     33331     33330     33334     33335     33332     33330     33334     33335
     33333     33330     33334     33335     33337     33336     33340     33341
     33338     33336     33340     33341     33339     33336     33340     33341
     33343     33342     33346     33347     33344     33342     33346     33347
     33345     33342     33346     33347     33349     33348     33352     33353
     33350     33348     33352     33353     33351     33348     33352     33353
     33355     33354     33358     33359     33356     33354     33358     33359
     33357     33354     33358     33359     33361     33360     33364     33365
     33362     33360     33364     33365     33363     33360     33364     33365
     33367     33366     33370     33371     33368     33366     33370     33371
     33369     33366     33370     33371     33373     33372     33376     33377
     33374     33372     33376     33377     33375     33372     33376     33377
     33379     33378     33382     33383     33380     33378     33382     33383
     33381     33378     33382     33383     33385     33384     33388     33389
     33386     33384     33388     33389     33387     33384     33388     33389
     33391     33390     33394     33395     33392     33390     33394     33395
     33393     33390     33394     33395     33397     33396     33400     33401
     33398     33396     33400     33401     33399     33396     33400     33401
     33403     33402     33406     33407     33404     33402     33406     33407
     33405     33402     33406     33407     33409     33408     33412     33413
     33410     33408     33412     33413     33411     33408     33412     33413
     33415     33414     33418     33419     33416     33414     33418     33419
     33417     33414     33418     33419     33421     33420     33424     33425
     33422     33420     33424     33425     33423     33420     33424     33425
     33427     33426     33430     33431     33428     33426     33430     33431
     33429     33426     33430     33431     33433     33432     33436     33437
     33434     33432     33436     33437     33435     33432     33436     33437
     33439     33438     33442     33443     33440     33438     33442     33443
     33441     33438     33442     33443     33445     33444     33448     33449
     33446     33444     33448     33449     33447     33444     33448     33449
     33451     33450     33454     33455     33452     33450     33454     33455
     33453     33450     33454     33455     33457     33456     33460     33461
     33458     33456     33460     33461     33459     33456     33460     33461
     33463     33462     33466     33467     33464     33462     33466     33467
     33465     33462     33466     33467     33469     33468     33472     33473
     33470     33468     33472     33473     33471     33468     33472     33473
     33475     33474     33478     33479     33476     33474     33478     33479
     33477     33474     33478     33479     33481     33480     33484     33485
     33482     33480     33484     33485     33483     33480     33484     33485
     33487     33486     33490     33491     33488     33486     33490     33491
     33489     33486     33490     33491     33493     33492     33496     33497
     33494     33492     33496     33497     33495     33492     33496     33497
     33499     33498     33502     33503     33500     33498     33502     33503
     33501     33498     33502     33503     33505     33504     33508     33509
     33506     33504     33508     33509     33507     33504     33508     33509
     33511     33510     33514     33515     33512     33510     33514     33515
     33513     33510     33514     33515     33517     33516     33520     33521
     33518     33516     33520     33521     33519     33516     33520     33521
     33523     33522     33526     33527     33524     33522     33526     33527
     33525     33522     33526     33527     33529     33528     33532     33533
     33530     33528     33532     33533     33531     33528     33532     33533
     33535     33534     33538     33539     33536     33534     33538     33539
     33537     33534     33538     33539     33541     33540     33544     33545
     33542     33540     33544     33545     33543     33540     33544     33545
     33547     33546     33550     33551     33548     33546     33550     33551
     33549     33546     33550     33551     33553     33552     33556     33557
     33554     33552     33556     33557     33555     33552     33556     33557
     33559     33558     33562     33563     33560     33558     33562     33563
     33561     33558     33562     33563     33565     33564     33568     33569
     33566     33564     33568     33569     33567     33564     33568     33569
     33571     33570     33574     33575     33572     33570     33574     33575
     33573     33570     33574     33575     33577     33576     33580     33581
     33578     33576     33580     33581     33579     33576     33580     33581
     33583     33582     33586     33587     33584     33582     33586     33587
     33585     33582     33586     33587     33589     33588     33592     33593
     33590     33588     33592     33593     33591     33588     33592     33593
     33595     33594     33598     33599     33596     33594     33598     33599
     33597     33594     33598     33599     33601     33600     33604     33605
     33602     33600     33604     33605     33603     33600     33604     33605
     33607     33606     33610     33611     33608     33606     33610     33611
     33609     33606     33610     33611     33613     33612     33616     33617
     33614     33612     33616     33617     33615     33612     33616     33617
     33619     33618     33622     33623     33620     33618     33622     33623
     33621     33618     33622     33623     33625     33624     33628     33629
     33626     33624     33628     33629     33627     33624     33628     33629
     33631     33630     33634     33635     33632     33630     33634     33635
     33633     33630     33634     33635     33637     33636     33640     33641
     33638     33636     33640     33641     33639     33636     33640     33641
     33643     33642     33646     33647     33644     33642     33646     33647
     33645     33642     33646     33647     33649     33648     33652     33653
     33650     33648     33652     33653     33651     33648     33652     33653
     33655     33654     33658     33659     33656     33654     33658     33659
     33657     33654     33658     33659     33661     33660     33664     33665
     33662     33660     33664     33665     33663     33660     33664     33665
     33667     33666     33670     33671     33668     33666     33670     33671
     33669     33666     33670     33671     33673     33672     33676     33677
     33674     33672     33676     33677     33675     33672     33676     33677
     33679     33678     33682     33683     33680     33678     33682     33683
     33681     33678     33682     33683     33685     33684     33688     33689
     33686     33684     33688     33689     33687     33684     33688     33689
     33691     33690     33694     33695     33692     33690     33694     33695
     33693     33690     33694     33695     33697     33696     33700     33701
     33698     33696     33700     33701     33699     33696     33700     33701
     33703     33702     33706     33707     33704     33702     33706     33707
     33705     33702     33706     33707     33709     33708     33712     33713
     33710     33708     33712     33713     33711     33708     33712     33713
     33715     33714     33718     33719     33716     33714     33718     33719
     33717     33714     33718     33719     33721     33720     33724     33725
     33722     33720     33724     33725     33723     33720     33724     33725
     33727     33726     33730     33731     33728     33726     33730     33731
     33729     33726     33730     33731     33733     33732     33736     33737
     33734     33732     33736     33737     33735     33732     33736     33737
     33739     33738     33742     33743     33740     33738     33742     33743
     33741     33738     33742     33743     33745     33744     33748     33749
     33746     33744     33748     33749     33747     33744     33748     33749
     33751     33750     33754     33755     33752     33750     33754     33755
     33753     33750     33754     33755     33757     33756     33760     33761
     33758     33756     33760     33761     33759     33756     33760     33761
     33763     33762     33766     33767     33764     33762     33766     33767
     33765     33762     33766     33767     33769     33768     33772     33773
     33770     33768     33772     33773     33771     33768     33772     33773
     33775     33774     33778     33779     33776     33774     33778     33779
     33777     33774     33778     33779     33781     33780     33784     33785
     33782     33780     33784     33785     33783     33780     33784     33785
     33787     33786     33790     33791     33788     33786     33790     33791
     33789     33786     33790     33791     33793     33792     33796     33797
     33794     33792     33796     33797     33795     33792     33796     33797
     33799     33798     33802     33803     33800     33798     33802     33803
     33801     33798     33802     33803     33805     33804     33808     33809
     33806     33804     33808     33809     33807     33804     33808     33809
     33811     33810     33814     33815     33812     33810     33814     33815
     33813     33810     33814     33815     33817     33816     33820     33821
     33818     33816     33820     33821     33819     33816     33820     33821
     33823     33822     33826     33827     33824     33822     33826     33827
     33825     33822     33826     33827     33829     33828     33832     33833
     33830     33828     33832     33833     33831     33828     33832     33833
     33835     33834     33838     33839     33836     33834     33838     33839
     33837     33834     33838     33839     33841     33840     33844     33845
     33842     33840     33844     33845     33843     33840     33844     33845
     33847     33846     33850     33851     33848     33846     33850     33851
     33849     33846     33850     33851     33853     33852     33856     33857
     33854     33852     33856     33857     33855     33852     33856     33857
     33859     33858     33862     33863     33860     33858     33862     33863
     33861     33858     33862     33863     33865     33864     33868     33869
     33866     33864     33868     33869     33867     33864     33868     33869
     33871     33870     33874     33875     33872     33870     33874     33875
     33873     33870     33874     33875     33877     33876     33880     33881
     33878     33876     33880     33881     33879     33876     33880     33881
     33883     33882     33886     33887     33884     33882     33886     33887
     33885     33882     33886     33887     33889     33888     33892     33893
     33890     33888     33892     33893     33891     33888     33892     33893
     33895     33894     33898     33899     33896     33894     33898     33899
     33897     33894     33898     33899     33901     33900     33904     33905
     33902     33900     33904     33905     33903     33900     33904     33905
     33907     33906     33910     33911     33908     33906     33910     33911
     33909     33906     33910     33911     33913     33912     33916     33917
     33914     33912     33916     33917     33915     33912     33916     33917
     33919     33918     33922     33923     33920     33918     33922     33923
     33921     33918     33922     33923     33925     33924     33928     33929
     33926     33924     33928     33929     33927     33924     33928     33929
     33931     33930     33934     33935     33932     33930     33934     33935
     33933     33930     33934     33935     33937     33936     33940     33941
     33938     33936     33940     33941     33939     33936     33940     33941
     33943     33942     33946     33947     33944     33942     33946     33947
     33945     33942     33946     33947     33949     33948     33952     33953
     33950     33948     33952     33953     33951     33948     33952     33953
     33955     33954     33958     33959     33956     33954     33958     33959
     33957     33954     33958     33959     33961     33960     33964     33965
     33962     33960     33964     33965     33963     33960     33964     33965
     33967     33966     33970     33971     33968     33966     33970     33971
     33969     33966     33970     33971     33973     33972     33976     33977
     33974     33972     33976     33977     33975     33972     33976     33977
     33979     33978     33982     33983     33980     33978     33982     33983
     33981     33978     33982     33983     33985     33984     33988     33989
     33986     33984     33988     33989     33987     33984     33988     33989
     33991     33990     33994     33995     33992     33990     33994     33995
     33993     33990     33994     33995     33997     33996     34000     34001
     33998     33996     34000     34001     33999     33996     34000     34001
     34003     34002     34006     34007     34004     34002     34006     34007
     34005     34002     34006     34007     34009     34008     34012     34013
     34010     34008     34012     34013     34011     34008     34012     34013
     34015     34014     34018     34019     34016     34014     34018     34019
     34017     34014     34018     34019     34021     34020     34024     34025
     34022     34020     34024     34025     34023     34020     34024     34025
     34027     34026     34030     34031     34028     34026     34030     34031
     34029     34026     34030     34031     34033     34032     34036     34037
     34034     34032     34036     34037     34035     34032     34036     34037
     34039     34038     34042     34043     34040     34038     34042     34043
     34041     34038     34042     34043     34045     34044     34048     34049
     34046     34044     34048     34049     34047     34044     34048     34049
     34051     34050     34054     34055     34052     34050     34054     34055
     34053     34050     34054     34055     34057     34056     34060     34061
     34058     34056     34060     34061     34059     34056     34060     34061
     34063     34062     34066     34067     34064     34062     34066     34067
     34065     34062     34066     34067     34069     34068     34072     34073
     34070     34068     34072     34073     34071     34068     34072     34073
     34075     34074     34078     34079     34076     34074     34078     34079
     34077     34074     34078     34079     34081     34080     34084     34085
     34082     34080     34084     34085     34083     34080     34084     34085
     34087     34086     34090     34091     34088     34086     34090     34091
     34089     34086     34090     34091     34093     34092     34096     34097
     34094     34092     34096     34097     34095     34092     34096     34097
     34099     34098     34102     34103     34100     34098     34102     34103
     34101     34098     34102     34103     34105     34104     34108     34109
     34106     34104     34108     34109     34107     34104     34108     34109
     34111     34110     34114     34115     34112     34110     34114     34115
     34113     34110     34114     34115     34117     34116     34120     34121
     34118     34116     34120     34121     34119     34116     34120     34121
     34123     34122     34126     34127     34124     34122     34126     34127
     34125     34122     34126     34127     34129     34128     34132     34133
     34130     34128     34132     34133     34131     34128     34132     34133
     34135     34134     34138     34139     34136     34134     34138     34139
     34137     34134     34138     34139     34141     34140     34144     34145
     34142     34140     34144     34145     34143     34140     34144     34145
     34147     34146     34150     34151     34148     34146     34150     34151
     34149     34146     34150     34151     34153     34152     34156     34157
     34154     34152     34156     34157     34155     34152     34156     34157
     34159     34158     34162     34163     34160     34158     34162     34163
     34161     34158     34162     34163     34165     34164     34168     34169
     34166     34164     34168     34169     34167     34164     34168     34169
     34171     34170     34174     34175     34172     34170     34174     34175
     34173     34170     34174     34175     34177     34176     34180     34181
     34178     34176     34180     34181     34179     34176     34180     34181
     34183     34182     34186     34187     34184     34182     34186     34187
     34185     34182     34186     34187     34189     34188     34192     34193
     34190     34188     34192     34193     34191     34188     34192     34193
     34195     34194     34198     34199     34196     34194     34198     34199
     34197     34194     34198     34199     34201     34200     34204     34205
     34202     34200     34204     34205     34203     34200     34204     34205
     34207     34206     34210     34211     34208     34206     34210     34211
     34209     34206     34210     34211     34213     34212     34216     34217
     34214     34212     34216     34217     34215     34212     34216     34217
     34219     34218     34222     34223     34220     34218     34222     34223
     34221     34218     34222     34223     34225     34224     34228     34229
     34226     34224     34228     34229     34227     34224     34228     34229
     34231     34230     34234     34235     34232     34230     34234     34235
     34233     34230     34234     34235     34237     34236     34240     34241
     34238     34236     34240     34241     34239     34236     34240     34241
     34243     34242     34246     34247     34244     34242     34246     34247
     34245     34242     34246     34247     34249     34248     34252     34253
     34250     34248     34252     34253     34251     34248     34252     34253
     34255     34254     34258     34259     34256     34254     34258     34259
     34257     34254     34258     34259     34261     34260     34264     34265
     34262     34260     34264     34265     34263     34260     34264     34265
     34267     34266     34270     34271     34268     34266     34270     34271
     34269     34266     34270     34271     34273     34272     34276     34277
     34274     34272     34276     34277     34275     34272     34276     34277
     34279     34278     34282     34283     34280     34278     34282     34283
     34281     34278     34282     34283     34285     34284     34288     34289
     34286     34284     34288     34289     34287     34284     34288     34289
     34291     34290     34294     34295     34292     34290     34294     34295
     34293     34290     34294     34295     34297     34296     34300     34301
     34298     34296     34300     34301     34299     34296     34300     34301
     34303     34302     34306     34307     34304     34302     34306     34307
     34305     34302     34306     34307     34309     34308     34312     34313
     34310     34308     34312     34313     34311     34308     34312     34313
     34315     34314     34318     34319     34316     34314     34318     34319
     34317     34314     34318     34319     34321     34320     34324     34325
     34322     34320     34324     34325     34323     34320     34324     34325
     34327     34326     34330     34331     34328     34326     34330     34331
     34329     34326     34330     34331     34333     34332     34336     34337
     34334     34332     34336     34337     34335     34332     34336     34337
     34339     34338     34342     34343     34340     34338     34342     34343
     34341     34338     34342     34343     34345     34344     34348     34349
     34346     34344     34348     34349     34347     34344     34348     34349
     34351     34350     34354     34355     34352     34350     34354     34355
     34353     34350     34354     34355     34357     34356     34360     34361
     34358     34356     34360     34361     34359     34356     34360     34361
     34363     34362     34366     34367     34364     34362     34366     34367
     34365     34362     34366     34367     34369     34368     34372     34373
     34370     34368     34372     34373     34371     34368     34372     34373
     34375     34374     34378     34379     34376     34374     34378     34379
     34377     34374     34378     34379     34381     34380     34384     34385
     34382     34380     34384     34385     34383     34380     34384     34385
     34387     34386     34390     34391     34388     34386     34390     34391
     34389     34386     34390     34391     34393     34392     34396     34397
     34394     34392     34396     34397     34395     34392     34396     34397
     34399     34398     34402     34403     34400     34398     34402     34403
     34401     34398     34402     34403     34405     34404     34408     34409
     34406     34404     34408     34409     34407     34404     34408     34409
     34411     34410     34414     34415     34412     34410     34414     34415
     34413     34410     34414     34415     34417     34416     34420     34421
     34418     34416     34420     34421     34419     34416     34420     34421
     34423     34422     34426     34427     34424     34422     34426     34427
     34425     34422     34426     34427     34429     34428     34432     34433
     34430     34428     34432     34433     34431     34428     34432     34433
     34435     34434     34438     34439     34436     34434     34438     34439
     34437     34434     34438     34439     34441     34440     34444     34445
     34442     34440     34444     34445     34443     34440     34444     34445
     34447     34446     34450     34451     34448     34446     34450     34451
     34449     34446     34450     34451     34453     34452     34456     34457
     34454     34452     34456     34457     34455     34452     34456     34457
     34459     34458     34462     34463     34460     34458     34462     34463
     34461     34458     34462     34463     34465     34464     34468     34469
     34466     34464     34468     34469     34467     34464     34468     34469
     34471     34470     34474     34475     34472     34470     34474     34475
     34473     34470     34474     34475     34477     34476     34480     34481
     34478     34476     34480     34481     34479     34476     34480     34481
     34483     34482     34486     34487     34484     34482     34486     34487
     34485     34482     34486     34487     34489     34488     34492     34493
     34490     34488     34492     34493     34491     34488     34492     34493
     34495     34494     34498     34499     34496     34494     34498     34499
     34497     34494     34498     34499     34501     34500     34504     34505
     34502     34500     34504     34505     34503     34500     34504     34505
     34507     34506     34510     34511     34508     34506     34510     34511
     34509     34506     34510     34511     34513     34512     34516     34517
     34514     34512     34516     34517     34515     34512     34516     34517
     34519     34518     34522     34523     34520     34518     34522     34523
     34521     34518     34522     34523     34525     34524     34528     34529
     34526     34524     34528     34529     34527     34524     34528     34529
     34531     34530     34534     34535     34532     34530     34534     34535
     34533     34530     34534     34535     34537     34536     34540     34541
     34538     34536     34540     34541     34539     34536     34540     34541
     34543     34542     34546     34547     34544     34542     34546     34547
     34545     34542     34546     34547     34549     34548     34552     34553
     34550     34548     34552     34553     34551     34548     34552     34553
     34555     34554     34558     34559     34556     34554     34558     34559
     34557     34554     34558     34559     34561     34560     34564     34565
     34562     34560     34564     34565     34563     34560     34564     34565
     34567     34566     34570     34571     34568     34566     34570     34571
     34569     34566     34570     34571     34573     34572     34576     34577
     34574     34572     34576     34577     34575     34572     34576     34577
     34579     34578     34582     34583     34580     34578     34582     34583
     34581     34578     34582     34583     34585     34584     34588     34589
     34586     34584     34588     34589     34587     34584     34588     34589
     34591     34590     34594     34595     34592     34590     34594     34595
     34593     34590     34594     34595     34597     34596     34600     34601
     34598     34596     34600     34601     34599     34596     34600     34601
     34603     34602     34606     34607     34604     34602     34606     34607
     34605     34602     34606     34607     34609     34608     34612     34613
     34610     34608     34612     34613     34611     34608     34612     34613
     34615     34614     34618     34619     34616     34614     34618     34619
     34617     34614     34618     34619     34621     34620     34624     34625
     34622     34620     34624     34625     34623     34620     34624     34625
     34627     34626     34630     34631     34628     34626     34630     34631
     34629     34626     34630     34631     34633     34632     34636     34637
     34634     34632     34636     34637     34635     34632     34636     34637
     34639     34638     34642     34643     34640     34638     34642     34643
     34641     34638     34642     34643     34645     34644     34648     34649
     34646     34644     34648     34649     34647     34644     34648     34649
     34651     34650     34654     34655     34652     34650     34654     34655
     34653     34650     34654     34655     34657     34656     34660     34661
     34658     34656     34660     34661     34659     34656     34660     34661
     34663     34662     34666     34667     34664     34662     34666     34667
     34665     34662     34666     34667     34669     34668     34672     34673
     34670     34668     34672     34673     34671     34668     34672     34673
     34675     34674     34678     34679     34676     34674     34678     34679
     34677     34674     34678     34679     34681     34680     34684     34685
     34682     34680     34684     34685     34683     34680     34684     34685
     34687     34686     34690     34691     34688     34686     34690     34691
     34689     34686     34690     34691     34693     34692     34696     34697
     34694     34692     34696     34697     34695     34692     34696     34697
     34699     34698     34702     34703     34700     34698     34702     34703
     34701     34698     34702     34703     34705     34704     34708     34709
     34706     34704     34708     34709     34707     34704     34708     34709
     34711     34710     34714     34715     34712     34710     34714     34715
     34713     34710     34714     34715     34717     34716     34720     34721
     34718     34716     34720     34721     34719     34716     34720     34721
     34723     34722     34726     34727     34724     34722     34726     34727
     34725     34722     34726     34727     34729     34728     34732     34733
     34730     34728     34732     34733     34731     34728     34732     34733
     34735     34734     34738     34739     34736     34734     34738     34739
     34737     34734     34738     34739     34741     34740     34744     34745
     34742     34740     34744     34745     34743     34740     34744     34745
     34747     34746     34750     34751     34748     34746     34750     34751
     34749     34746     34750     34751     34753     34752     34756     34757
     34754     34752     34756     34757     34755     34752     34756     34757
     34759     34758     34762     34763     34760     34758     34762     34763
     34761     34758     34762     34763     34765     34764     34768     34769
     34766     34764     34768     34769     34767     34764     34768     34769
     34771     34770     34774     34775     34772     34770     34774     34775
     34773     34770     34774     34775     34777     34776     34780     34781
     34778     34776     34780     34781     34779     34776     34780     34781
     34783     34782     34786     34787     34784     34782     34786     34787
     34785     34782     34786     34787     34789     34788     34792     34793
     34790     34788     34792     34793     34791     34788     34792     34793
     34795     34794     34798     34799     34796     34794     34798     34799
     34797     34794     34798     34799     34801     34800     34804     34805
     34802     34800     34804     34805     34803     34800     34804     34805
     34807     34806     34810     34811     34808     34806     34810     34811
     34809     34806     34810     34811     34813     34812     34816     34817
     34814     34812     34816     34817     34815     34812     34816     34817
     34819     34818     34822     34823     34820     34818     34822     34823
     34821     34818     34822     34823     34825     34824     34828     34829
     34826     34824     34828     34829     34827     34824     34828     34829
     34831     34830     34834     34835     34832     34830     34834     34835
     34833     34830     34834     34835     34837     34836     34840     34841
     34838     34836     34840     34841     34839     34836     34840     34841
     34843     34842     34846     34847     34844     34842     34846     34847
     34845     34842     34846     34847     34849     34848     34852     34853
     34850     34848     34852     34853     34851     34848     34852     34853
     34855     34854     34858     34859     34856     34854     34858     34859
     34857     34854     34858     34859     34861     34860     34864     34865
     34862     34860     34864     34865     34863     34860     34864     34865
     34867     34866     34870     34871     34868     34866     34870     34871
     34869     34866     34870     34871     34873     34872     34876     34877
     34874     34872     34876     34877     34875     34872     34876     34877
     34879     34878     34882     34883     34880     34878     34882     34883
     34881     34878     34882     34883     34885     34884     34888     34889
     34886     34884     34888     34889     34887     34884     34888     34889
     34891     34890     34894     34895     34892     34890     34894     34895
     34893     34890     34894     34895     34897     34896     34900     34901
     34898     34896     34900     34901     34899     34896     34900     34901
     34903     34902     34906     34907     34904     34902     34906     34907
     34905     34902     34906     34907     34909     34908     34912     34913
     34910     34908     34912     34913     34911     34908     34912     34913
     34915     34914     34918     34919     34916     34914     34918     34919
     34917     34914     34918     34919     34921     34920     34924     34925
     34922     34920     34924     34925     34923     34920     34924     34925
     34927     34926     34930     34931     34928     34926     34930     34931
     34929     34926     34930     34931     34933     34932     34936     34937
     34934     34932     34936     34937     34935     34932     34936     34937
     34939     34938     34942     34943     34940     34938     34942     34943
     34941     34938     34942     34943     34945     34944     34948     34949
     34946     34944     34948     34949     34947     34944     34948     34949
     34951     34950     34954     34955     34952     34950     34954     34955
     34953     34950     34954     34955     34957     34956     34960     34961
     34958     34956     34960     34961     34959     34956     34960     34961
     34963     34962     34966     34967     34964     34962     34966     34967
     34965     34962     34966     34967     34969     34968     34972     34973
     34970     34968     34972     34973     34971     34968     34972     34973
     34975     34974     34978     34979     34976     34974     34978     34979
     34977     34974     34978     34979     34981     34980     34984     34985
     34982     34980     34984     34985     34983     34980     34984     34985
     34987     34986     34990     34991     34988     34986     34990     34991
     34989     34986     34990     34991     34993     34992     34996     34997
     34994     34992     34996     34997     34995     34992     34996     34997
     34999     34998     35002     35003     35000     34998     35002     35003
     35001     34998     35002     35003     35005     35004     35008     35009
     35006     35004     35008     35009     35007     35004     35008     35009
     35011     35010     35014     35015     35012     35010     35014     35015
     35013     35010     35014     35015     35017     35016     35020     35021
     35018     35016     35020     35021     35019     35016     35020     35021
     35023     35022     35026     35027     35024     35022     35026     35027
     35025     35022     35026     35027     35029     35028     35032     35033
     35030     35028     35032     35033     35031     35028     35032     35033
     35035     35034     35038     35039     35036     35034     35038     35039
     35037     35034     35038     35039     35041     35040     35044     35045
     35042     35040     35044     35045     35043     35040     35044     35045
     35047     35046     35050     35051     35048     35046     35050     35051
     35049     35046     35050     35051     35053     35052     35056     35057
     35054     35052     35056     35057     35055     35052     35056     35057
     35059     35058     35062     35063     35060     35058     35062     35063
     35061     35058     35062     35063     35065     35064     35068     35069
     35066     35064     35068     35069     35067     35064     35068     35069
     35071     35070     35074     35075     35072     35070     35074     35075
     35073     35070     35074     35075     35077     35076     35080     35081
     35078     35076     35080     35081     35079     35076     35080     35081
     35083     35082     35086     35087     35084     35082     35086     35087
     35085     35082     35086     35087     35089     35088     35092     35093
     35090     35088     35092     35093     35091     35088     35092     35093
     35095     35094     35098     35099     35096     35094     35098     35099
     35097     35094     35098     35099     35101     35100     35104     35105
     35102     35100     35104     35105     35103     35100     35104     35105
     35107     35106     35110     35111     35108     35106     35110     35111
     35109     35106     35110     35111     35113     35112     35116     35117
     35114     35112     35116     35117     35115     35112     35116     35117
     35119     35118     35122     35123     35120     35118     35122     35123
     35121     35118     35122     35123     35125     35124     35128     35129
     35126     35124     35128     35129     35127     35124     35128     35129
     35131     35130     35134     35135     35132     35130     35134     35135
     35133     35130     35134     35135     35137     35136     35140     35141
     35138     35136     35140     35141     35139     35136     35140     35141
     35143     35142     35146     35147     35144     35142     35146     35147
     35145     35142     35146     35147     35149     35148     35152     35153
     35150     35148     35152     35153     35151     35148     35152     35153
     35155     35154     35158     35159     35156     35154     35158     35159
     35157     35154     35158     35159     35161     35160     35164     35165
     35162     35160     35164     35165     35163     35160     35164     35165
     35167     35166     35170     35171     35168     35166     35170     35171
     35169     35166     35170     35171     35173     35172     35176     35177
     35174     35172     35176     35177     35175     35172     35176     35177
     35179     35178     35182     35183     35180     35178     35182     35183
     35181     35178     35182     35183     35185     35184     35188     35189
     35186     35184     35188     35189     35187     35184     35188     35189
     35191     35190     35194     35195     35192     35190     35194     35195
     35193     35190     35194     35195     35197     35196     35200     35201
     35198     35196     35200     35201     35199     35196     35200     35201
     35203     35202     35206     35207     35204     35202     35206     35207
     35205     35202     35206     35207     35209     35208     35212     35213
     35210     35208     35212     35213     35211     35208     35212     35213
     35215     35214     35218     35219     35216     35214     35218     35219
     35217     35214     35218     35219     35221     35220     35224     35225
     35222     35220     35224     35225     35223     35220     35224     35225
     35227     35226     35230     35231     35228     35226     35230     35231
     35229     35226     35230     35231     35233     35232     35236     35237
     35234     35232     35236     35237     35235     35232     35236     35237
     35239     35238     35242     35243     35240     35238     35242     35243
     35241     35238     35242     35243     35245     35244     35248     35249
     35246     35244     35248     35249     35247     35244     35248     35249
     35251     35250     35254     35255     35252     35250     35254     35255
     35253     35250     35254     35255     35257     35256     35260     35261
     35258     35256     35260     35261     35259     35256     35260     35261
     35263     35262     35266     35267     35264     35262     35266     35267
     35265     35262     35266     35267     35269     35268     35272     35273
     35270     35268     35272     35273     35271     35268     35272     35273
     35275     35274     35278     35279     35276     35274     35278     35279
     35277     35274     35278     35279     35281     35280     35284     35285
     35282     35280     35284     35285     35283     35280     35284     35285
     35287     35286     35290     35291     35288     35286     35290     35291
     35289     35286     35290     35291     35293     35292     35296     35297
     35294     35292     35296     35297     35295     35292     35296     35297
     35299     35298     35302     35303     35300     35298     35302     35303
     35301     35298     35302     35303     35305     35304     35308     35309
     35306     35304     35308     35309     35307     35304     35308     35309
     35311     35310     35314     35315     35312     35310     35314     35315
     35313     35310     35314     35315     35317     35316     35320     35321
     35318     35316     35320     35321     35319     35316     35320     35321
     35323     35322     35326     35327     35324     35322     35326     35327
     35325     35322     35326     35327     35329     35328     35332     35333
     35330     35328     35332     35333     35331     35328     35332     35333
     35335     35334     35338     35339     35336     35334     35338     35339
     35337     35334     35338     35339     35341     35340     35344     35345
     35342     35340     35344     35345     35343     35340     35344     35345
     35347     35346     35350     35351     35348     35346     35350     35351
     35349     35346     35350     35351     35353     35352     35356     35357
     35354     35352     35356     35357     35355     35352     35356     35357
     35359     35358     35362     35363     35360     35358     35362     35363
     35361     35358     35362     35363     35365     35364     35368     35369
     35366     35364     35368     35369     35367     35364     35368     35369
     35371     35370     35374     35375     35372     35370     35374     35375
     35373     35370     35374     35375     35377     35376     35380     35381
     35378     35376     35380     35381     35379     35376     35380     35381
     35383     35382     35386     35387     35384     35382     35386     35387
     35385     35382     35386     35387     35389     35388     35392     35393
     35390     35388     35392     35393     35391     35388     35392     35393
     35395     35394     35398     35399     35396     35394     35398     35399
     35397     35394     35398     35399     35401     35400     35404     35405
     35402     35400     35404     35405     35403     35400     35404     35405
     35407     35406     35410     35411     35408     35406     35410     35411
     35409     35406     35410     35411     35413     35412     35416     35417
     35414     35412     35416     35417     35415     35412     35416     35417
     35419     35418     35422     35423     35420     35418     35422     35423
     35421     35418     35422     35423     35425     35424     35428     35429
     35426     35424     35428     35429     35427     35424     35428     35429
     35431     35430     35434     35435     35432     35430     35434     35435
     35433     35430     35434     35435     35437     35436     35440     35441
     35438     35436     35440     35441     35439     35436     35440     35441
     35443     35442     35446     35447     35444     35442     35446     35447
     35445     35442     35446     35447     35449     35448     35452     35453
     35450     35448     35452     35453     35451     35448     35452     35453
     35455     35454     35458     35459     35456     35454     35458     35459
     35457     35454     35458     35459     35461     35460     35464     35465
     35462     35460     35464     35465     35463     35460     35464     35465
     35467     35466     35470     35471     35468     35466     35470     35471
     35469     35466     35470     35471     35473     35472     35476     35477
     35474     35472     35476     35477     35475     35472     35476     35477
     35479     35478     35482     35483     35480     35478     35482     35483
     35481     35478     35482     35483     35485     35484     35488     35489
     35486     35484     35488     35489     35487     35484     35488     35489
     35491     35490     35494     35495     35492     35490     35494     35495
     35493     35490     35494     35495     35497     35496     35500     35501
     35498     35496     35500     35501     35499     35496     35500     35501
     35503     35502     35506     35507     35504     35502     35506     35507
     35505     35502     35506     35507     35509     35508     35512     35513
     35510     35508     35512     35513     35511     35508     35512     35513
     35515     35514     35518     35519     35516     35514     35518     35519
     35517     35514     35518     35519     35521     35520     35524     35525
     35522     35520     35524     35525     35523     35520     35524     35525
     35527     35526     35530     35531     35528     35526     35530     35531
     35529     35526     35530     35531     35533     35532     35536     35537
     35534     35532     35536     35537     35535     35532     35536     35537
     35539     35538     35542     35543     35540     35538     35542     35543
     35541     35538     35542     35543     35545     35544     35548     35549
     35546     35544     35548     35549     35547     35544     35548     35549
     35551     35550     35554     35555     35552     35550     35554     35555
     35553     35550     35554     35555     35557     35556     35560     35561
     35558     35556     35560     35561     35559     35556     35560     35561
     35563     35562     35566     35567     35564     35562     35566     35567
     35565     35562     35566     35567     35569     35568     35572     35573
     35570     35568     35572     35573     35571     35568     35572     35573
     35575     35574     35578     35579     35576     35574     35578     35579
     35577     35574     35578     35579     35581     35580     35584     35585
     35582     35580     35584     35585     35583     35580     35584     35585
     35587     35586     35590     35591     35588     35586     35590     35591
     35589     35586     35590     35591     35593     35592     35596     35597
     35594     35592     35596     35597     35595     35592     35596     35597
     35599     35598     35602     35603     35600     35598     35602     35603
     35601     35598     35602     35603     35605     35604     35608     35609
     35606     35604     35608     35609     35607     35604     35608     35609
     35611     35610     35614     35615     35612     35610     35614     35615
     35613     35610     35614     35615     35617     35616     35620     35621
     35618     35616     35620     35621     35619     35616     35620     35621
     35623     35622     35626     35627     35624     35622     35626     35627
     35625     35622     35626     35627     35629     35628     35632     35633
     35630     35628     35632     35633     35631     35628     35632     35633
     35635     35634     35638     35639     35636     35634     35638     35639
     35637     35634     35638     35639     35641     35640     35644     35645
     35642     35640     35644     35645     35643     35640     35644     35645
     35647     35646     35650     35651     35648     35646     35650     35651
     35649     35646     35650     35651     35653     35652     35656     35657
     35654     35652     35656     35657     35655     35652     35656     35657
     35659     35658     35662     35663     35660     35658     35662     35663
     35661     35658     35662     35663     35665     35664     35668     35669
     35666     35664     35668     35669     35667     35664     35668     35669
     35671     35670     35674     35675     35672     35670     35674     35675
     35673     35670     35674     35675     35677     35676     35680     35681
     35678     35676     35680     35681     35679     35676     35680     35681
     35683     35682     35686     35687     35684     35682     35686     35687
     35685     35682     35686     35687     35689     35688     35692     35693
     35690     35688     35692     35693     35691     35688     35692     35693
     35695     35694     35698     35699     35696     35694     35698     35699
     35697     35694     35698     35699     35701     35700     35704     35705
     35702     35700     35704     35705     35703     35700     35704     35705
     35707     35706     35710     35711     35708     35706     35710     35711
     35709     35706     35710     35711     35713     35712     35716     35717
     35714     35712     35716     35717     35715     35712     35716     35717
     35719     35718     35722     35723     35720     35718     35722     35723
     35721     35718     35722     35723     35725     35724     35728     35729
     35726     35724     35728     35729     35727     35724     35728     35729
     35731     35730     35734     35735     35732     35730     35734     35735
     35733     35730     35734     35735     35737     35736     35740     35741
     35738     35736     35740     35741     35739     35736     35740     35741
     35743     35742     35746     35747     35744     35742     35746     35747
     35745     35742     35746     35747     35749     35748     35752     35753
     35750     35748     35752     35753     35751     35748     35752     35753
     35755     35754     35758     35759     35756     35754     35758     35759
     35757     35754     35758     35759     35761     35760     35764     35765
     35762     35760     35764     35765     35763     35760     35764     35765
     35767     35766     35770     35771     35768     35766     35770     35771
     35769     35766     35770     35771     35773     35772     35776     35777
     35774     35772     35776     35777     35775     35772     35776     35777
     35779     35778     35782     35783     35780     35778     35782     35783
     35781     35778     35782     35783     35785     35784     35788     35789
     35786     35784     35788     35789     35787     35784     35788     35789
     35791     35790     35794     35795     35792     35790     35794     35795
     35793     35790     35794     35795     35797     35796     35800     35801
     35798     35796     35800     35801     35799     35796     35800     35801
     35803     35802     35806     35807     35804     35802     35806     35807
     35805     35802     35806     35807     35809     35808     35812     35813
     35810     35808     35812     35813     35811     35808     35812     35813
     35815     35814     35818     35819     35816     35814     35818     35819
     35817     35814     35818     35819     35821     35820     35824     35825
     35822     35820     35824     35825     35823     35820     35824     35825
     35827     35826     35830     35831     35828     35826     35830     35831
     35829     35826     35830     35831     35833     35832     35836     35837
     35834     35832     35836     35837     35835     35832     35836     35837
     35839     35838     35842     35843     35840     35838     35842     35843
     35841     35838     35842     35843     35845     35844     35848     35849
     35846     35844     35848     35849     35847     35844     35848     35849
     35851     35850     35854     35855     35852     35850     35854     35855
     35853     35850     35854     35855     35857     35856     35860     35861
     35858     35856     35860     35861     35859     35856     35860     35861
     35863     35862     35866     35867     35864     35862     35866     35867
     35865     35862     35866     35867     35869     35868     35872     35873
     35870     35868     35872     35873     35871     35868     35872     35873
     35875     35874     35878     35879     35876     35874     35878     35879
     35877     35874     35878     35879     35881     35880     35884     35885
     35882     35880     35884     35885     35883     35880     35884     35885
     35887     35886     35890     35891     35888     35886     35890     35891
     35889     35886     35890     35891     35893     35892     35896     35897
     35894     35892     35896     35897     35895     35892     35896     35897
     35899     35898     35902     35903     35900     35898     35902     35903
     35901     35898     35902     35903     35905     35904     35908     35909
     35906     35904     35908     35909     35907     35904     35908     35909
     35911     35910     35914     35915     35912     35910     35914     35915
     35913     35910     35914     35915     35917     35916     35920     35921
     35918     35916     35920     35921     35919     35916     35920     35921
     35923     35922     35926     35927     35924     35922     35926     35927
     35925     35922     35926     35927     35929     35928     35932     35933
     35930     35928     35932     35933     35931     35928     35932     35933
     35935     35934     35938     35939     35936     35934     35938     35939
     35937     35934     35938     35939     35941     35940     35944     35945
     35942     35940     35944     35945     35943     35940     35944     35945
     35947     35946     35950     35951     35948     35946     35950     35951
     35949     35946     35950     35951     35953     35952     35956     35957
     35954     35952     35956     35957     35955     35952     35956     35957
     35959     35958     35962     35963     35960     35958     35962     35963
     35961     35958     35962     35963     35965     35964     35968     35969
     35966     35964     35968     35969     35967     35964     35968     35969
     35971     35970     35974     35975     35972     35970     35974     35975
     35973     35970     35974     35975     35977     35976     35980     35981
     35978     35976     35980     35981     35979     35976     35980     35981
     35983     35982     35986     35987     35984     35982     35986     35987
     35985     35982     35986     35987     35989     35988     35992     35993
     35990     35988     35992     35993     35991     35988     35992     35993
     35995     35994     35998     35999     35996     35994     35998     35999
     35997     35994     35998     35999     36001     36000     36004     36005
     36002     36000     36004     36005     36003     36000     36004     36005
     36007     36006     36010     36011     36008     36006     36010     36011
     36009     36006     36010     36011     36013     36012     36016     36017
     36014     36012     36016     36017     36015     36012     36016     36017
     36019     36018     36022     36023     36020     36018     36022     36023
     36021     36018     36022     36023     36025     36024     36028     36029
     36026     36024     36028     36029     36027     36024     36028     36029
     36031     36030     36034     36035     36032     36030     36034     36035
     36033     36030     36034     36035     36037     36036     36040     36041
     36038     36036     36040     36041     36039     36036     36040     36041
     36043     36042     36046     36047     36044     36042     36046     36047
     36045     36042     36046     36047     36049     36048     36052     36053
     36050     36048     36052     36053     36051     36048     36052     36053
     36055     36054     36058     36059     36056     36054     36058     36059
     36057     36054     36058     36059     36061     36060     36064     36065
     36062     36060     36064     36065     36063     36060     36064     36065
     36067     36066     36070     36071     36068     36066     36070     36071
     36069     36066     36070     36071     36073     36072     36076     36077
     36074     36072     36076     36077     36075     36072     36076     36077
     36079     36078     36082     36083     36080     36078     36082     36083
     36081     36078     36082     36083     36085     36084     36088     36089
     36086     36084     36088     36089     36087     36084     36088     36089
     36091     36090     36094     36095     36092     36090     36094     36095
     36093     36090     36094     36095     36097     36096     36100     36101
     36098     36096     36100     36101     36099     36096     36100     36101
     36103     36102     36106     36107     36104     36102     36106     36107
     36105     36102     36106     36107     36109     36108     36112     36113
     36110     36108     36112     36113     36111     36108     36112     36113
     36115     36114     36118     36119     36116     36114     36118     36119
     36117     36114     36118     36119     36121     36120     36124     36125
     36122     36120     36124     36125     36123     36120     36124     36125
     36127     36126     36130     36131     36128     36126     36130     36131
     36129     36126     36130     36131     36133     36132     36136     36137
     36134     36132     36136     36137     36135     36132     36136     36137
     36139     36138     36142     36143     36140     36138     36142     36143
     36141     36138     36142     36143     36145     36144     36148     36149
     36146     36144     36148     36149     36147     36144     36148     36149
     36151     36150     36154     36155     36152     36150     36154     36155
     36153     36150     36154     36155     36157     36156     36160     36161
     36158     36156     36160     36161     36159     36156     36160     36161
     36163     36162     36166     36167     36164     36162     36166     36167
     36165     36162     36166     36167     36169     36168     36172     36173
     36170     36168     36172     36173     36171     36168     36172     36173
     36175     36174     36178     36179     36176     36174     36178     36179
     36177     36174     36178     36179     36181     36180     36184     36185
     36182     36180     36184     36185     36183     36180     36184     36185
     36187     36186     36190     36191     36188     36186     36190     36191
     36189     36186     36190     36191     36193     36192     36196     36197
     36194     36192     36196     36197     36195     36192     36196     36197
     36199     36198     36202     36203     36200     36198     36202     36203
     36201     36198     36202     36203     36205     36204     36208     36209
     36206     36204     36208     36209     36207     36204     36208     36209
     36211     36210     36214     36215     36212     36210     36214     36215
     36213     36210     36214     36215     36217     36216     36220     36221
     36218     36216     36220     36221     36219     36216     36220     36221
     36223     36222     36226     36227     36224     36222     36226     36227
     36225     36222     36226     36227     36229     36228     36232     36233
     36230     36228     36232     36233     36231     36228     36232     36233
     36235     36234     36238     36239     36236     36234     36238     36239
     36237     36234     36238     36239     36241     36240     36244     36245
     36242     36240     36244     36245     36243     36240     36244     36245
     36247     36246     36250     36251     36248     36246     36250     36251
     36249     36246     36250     36251     36253     36252     36256     36257
     36254     36252     36256     36257     36255     36252     36256     36257
     36259     36258     36262     36263     36260     36258     36262     36263
     36261     36258     36262     36263     36265     36264     36268     36269
     36266     36264     36268     36269     36267     36264     36268     36269
     36271     36270     36274     36275     36272     36270     36274     36275
     36273     36270     36274     36275     36277     36276     36280     36281
     36278     36276     36280     36281     36279     36276     36280     36281
     36283     36282     36286     36287     36284     36282     36286     36287
     36285     36282     36286     36287     36289     36288     36292     36293
     36290     36288     36292     36293     36291     36288     36292     36293
     36295     36294     36298     36299     36296     36294     36298     36299
     36297     36294     36298     36299     36301     36300     36304     36305
     36302     36300     36304     36305     36303     36300     36304     36305
     36307     36306     36310     36311     36308     36306     36310     36311
     36309     36306     36310     36311     36313     36312     36316     36317
     36314     36312     36316     36317     36315     36312     36316     36317
     36319     36318     36322     36323     36320     36318     36322     36323
     36321     36318     36322     36323     36325     36324     36328     36329
     36326     36324     36328     36329     36327     36324     36328     36329
     36331     36330     36334     36335     36332     36330     36334     36335
     36333     36330     36334     36335     36337     36336     36340     36341
     36338     36336     36340     36341     36339     36336     36340     36341
     36343     36342     36346     36347     36344     36342     36346     36347
     36345     36342     36346     36347     36349     36348     36352     36353
     36350     36348     36352     36353     36351     36348     36352     36353
     36355     36354     36358     36359     36356     36354     36358     36359
     36357     36354     36358     36359     36361     36360     36364     36365
     36362     36360     36364     36365     36363     36360     36364     36365
     36367     36366     36370     36371     36368     36366     36370     36371
     36369     36366     36370     36371     36373     36372     36376     36377
     36374     36372     36376     36377     36375     36372     36376     36377
     36379     36378     36382     36383     36380     36378     36382     36383
     36381     36378     36382     36383     36385     36384     36388     36389
     36386     36384     36388     36389     36387     36384     36388     36389
     36391     36390     36394     36395     36392     36390     36394     36395
     36393     36390     36394     36395     36397     36396     36400     36401
     36398     36396     36400     36401     36399     36396     36400     36401
     36403     36402     36406     36407     36404     36402     36406     36407
     36405     36402     36406     36407     36409     36408     36412     36413
     36410     36408     36412     36413     36411     36408     36412     36413
     36415     36414     36418     36419     36416     36414     36418     36419
     36417     36414     36418     36419     36421     36420     36424     36425
     36422     36420     36424     36425     36423     36420     36424     36425
     36427     36426     36430     36431     36428     36426     36430     36431
     36429     36426     36430     36431     36433     36432     36436     36437
     36434     36432     36436     36437     36435     36432     36436     36437
     36439     36438     36442     36443     36440     36438     36442     36443
     36441     36438     36442     36443     36445     36444     36448     36449
     36446     36444     36448     36449     36447     36444     36448     36449
     36451     36450     36454     36455     36452     36450     36454     36455
     36453     36450     36454     36455     36457     36456     36460     36461
     36458     36456     36460     36461     36459     36456     36460     36461
     36463     36462     36466     36467     36464     36462     36466     36467
     36465     36462     36466     36467     36469     36468     36472     36473
     36470     36468     36472     36473     36471     36468     36472     36473
     36475     36474     36478     36479     36476     36474     36478     36479
     36477     36474     36478     36479     36481     36480     36484     36485
     36482     36480     36484     36485     36483     36480     36484     36485
     36487     36486     36490     36491     36488     36486     36490     36491
     36489     36486     36490     36491     36493     36492     36496     36497
     36494     36492     36496     36497     36495     36492     36496     36497
     36499     36498     36502     36503     36500     36498     36502     36503
     36501     36498     36502     36503     36505     36504     36508     36509
     36506     36504     36508     36509     36507     36504     36508     36509
     36511     36510     36514     36515     36512     36510     36514     36515
     36513     36510     36514     36515     36517     36516     36520     36521
     36518     36516     36520     36521     36519     36516     36520     36521
     36523     36522     36526     36527     36524     36522     36526     36527
     36525     36522     36526     36527     36529     36528     36532     36533
     36530     36528     36532     36533     36531     36528     36532     36533
     36535     36534     36538     36539     36536     36534     36538     36539
     36537     36534     36538     36539     36541     36540     36544     36545
     36542     36540     36544     36545     36543     36540     36544     36545
     36547     36546     36550     36551     36548     36546     36550     36551
     36549     36546     36550     36551     36553     36552     36556     36557
     36554     36552     36556     36557     36555     36552     36556     36557
     36559     36558     36562     36563     36560     36558     36562     36563
     36561     36558     36562     36563     36565     36564     36568     36569
     36566     36564     36568     36569     36567     36564     36568     36569
     36571     36570     36574     36575     36572     36570     36574     36575
     36573     36570     36574     36575     36577     36576     36580     36581
     36578     36576     36580     36581     36579     36576     36580     36581
     36583     36582     36586     36587     36584     36582     36586     36587
     36585     36582     36586     36587     36589     36588     36592     36593
     36590     36588     36592     36593     36591     36588     36592     36593
     36595     36594     36598     36599     36596     36594     36598     36599
     36597     36594     36598     36599     36601     36600     36604     36605
     36602     36600     36604     36605     36603     36600     36604     36605
     36607     36606     36610     36611     36608     36606     36610     36611
     36609     36606     36610     36611     36613     36612     36616     36617
     36614     36612     36616     36617     36615     36612     36616     36617
     36619     36618     36622     36623     36620     36618     36622     36623
     36621     36618     36622     36623     36625     36624     36628     36629
     36626     36624     36628     36629     36627     36624     36628     36629
     36631     36630     36634     36635     36632     36630     36634     36635
     36633     36630     36634     36635     36637     36636     36640     36641
     36638     36636     36640     36641     36639     36636     36640     36641
     36643     36642     36646     36647     36644     36642     36646     36647
     36645     36642     36646     36647     36649     36648     36652     36653
     36650     36648     36652     36653     36651     36648     36652     36653
     36655     36654     36658     36659     36656     36654     36658     36659
     36657     36654     36658     36659     36661     36660     36664     36665
     36662     36660     36664     36665     36663     36660     36664     36665
     36667     36666     36670     36671     36668     36666     36670     36671
     36669     36666     36670     36671     36673     36672     36676     36677
     36674     36672     36676     36677     36675     36672     36676     36677
     36679     36678     36682     36683     36680     36678     36682     36683
     36681     36678     36682     36683     36685     36684     36688     36689
     36686     36684     36688     36689     36687     36684     36688     36689
     36691     36690     36694     36695     36692     36690     36694     36695
     36693     36690     36694     36695     36697     36696     36700     36701
     36698     36696     36700     36701     36699     36696     36700     36701
     36703     36702     36706     36707     36704     36702     36706     36707
     36705     36702     36706     36707     36709     36708     36712     36713
     36710     36708     36712     36713     36711     36708     36712     36713
     36715     36714     36718     36719     36716     36714     36718     36719
     36717     36714     36718     36719     36721     36720     36724     36725
     36722     36720     36724     36725     36723     36720     36724     36725
     36727     36726     36730     36731     36728     36726     36730     36731
     36729     36726     36730     36731     36733     36732     36736     36737
     36734     36732     36736     36737     36735     36732     36736     36737
     36739     36738     36742     36743     36740     36738     36742     36743
     36741     36738     36742     36743     36745     36744     36748     36749
     36746     36744     36748     36749     36747     36744     36748     36749
     36751     36750     36754     36755     36752     36750     36754     36755
     36753     36750     36754     36755     36757     36756     36760     36761
     36758     36756     36760     36761     36759     36756     36760     36761
     36763     36762     36766     36767     36764     36762     36766     36767
     36765     36762     36766     36767     36769     36768     36772     36773
     36770     36768     36772     36773     36771     36768     36772     36773
     36775     36774     36778     36779     36776     36774     36778     36779
     36777     36774     36778     36779     36781     36780     36784     36785
     36782     36780     36784     36785     36783     36780     36784     36785
     36787     36786     36790     36791     36788     36786     36790     36791
     36789     36786     36790     36791     36793     36792     36796     36797
     36794     36792     36796     36797     36795     36792     36796     36797
     36799     36798     36802     36803     36800     36798     36802     36803
     36801     36798     36802     36803     36805     36804     36808     36809
     36806     36804     36808     36809     36807     36804     36808     36809
     36811     36810     36814     36815     36812     36810     36814     36815
     36813     36810     36814     36815     36817     36816     36820     36821
     36818     36816     36820     36821     36819     36816     36820     36821
     36823     36822     36826     36827     36824     36822     36826     36827
     36825     36822     36826     36827     36829     36828     36832     36833
     36830     36828     36832     36833     36831     36828     36832     36833
     36835     36834     36838     36839     36836     36834     36838     36839
     36837     36834     36838     36839     36841     36840     36844     36845
     36842     36840     36844     36845     36843     36840     36844     36845
     36847     36846     36850     36851     36848     36846     36850     36851
     36849     36846     36850     36851     36853     36852     36856     36857
     36854     36852     36856     36857     36855     36852     36856     36857
     36859     36858     36862     36863     36860     36858     36862     36863
     36861     36858     36862     36863     36865     36864     36868     36869
     36866     36864     36868     36869     36867     36864     36868     36869
     36871     36870     36874     36875     36872     36870     36874     36875
     36873     36870     36874     36875     36877     36876     36880     36881
     36878     36876     36880     36881     36879     36876     36880     36881
     36883     36882     36886     36887     36884     36882     36886     36887
     36885     36882     36886     36887     36889     36888     36892     36893
     36890     36888     36892     36893     36891     36888     36892     36893
     36895     36894     36898     36899     36896     36894     36898     36899
     36897     36894     36898     36899     36901     36900     36904     36905
     36902     36900     36904     36905     36903     36900     36904     36905
     36907     36906     36910     36911     36908     36906     36910     36911
     36909     36906     36910     36911     36913     36912     36916     36917
     36914     36912     36916     36917     36915     36912     36916     36917
     36919     36918     36922     36923     36920     36918     36922     36923
     36921     36918     36922     36923     36925     36924     36928     36929
     36926     36924     36928     36929     36927     36924     36928     36929
     36931     36930     36934     36935     36932     36930     36934     36935
     36933     36930     36934     36935     36937     36936     36940     36941
     36938     36936     36940     36941     36939     36936     36940     36941
     36943     36942     36946     36947     36944     36942     36946     36947
     36945     36942     36946     36947     36949     36948     36952     36953
     36950     36948     36952     36953     36951     36948     36952     36953
     36955     36954     36958     36959     36956     36954     36958     36959
     36957     36954     36958     36959     36961     36960     36964     36965
     36962     36960     36964     36965     36963     36960     36964     36965
     36967     36966     36970     36971     36968     36966     36970     36971
     36969     36966     36970     36971     36973     36972     36976     36977
     36974     36972     36976     36977     36975     36972     36976     36977
     36979     36978     36982     36983     36980     36978     36982     36983
     36981     36978     36982     36983     36985     36984     36988     36989
     36986     36984     36988     36989     36987     36984     36988     36989
     36991     36990     36994     36995     36992     36990     36994     36995
     36993     36990     36994     36995     36997     36996     37000     37001
     36998     36996     37000     37001     36999     36996     37000     37001
     37003     37002     37006     37007     37004     37002     37006     37007
     37005     37002     37006     37007     37009     37008     37012     37013
     37010     37008     37012     37013     37011     37008     37012     37013
     37015     37014     37018     37019     37016     37014     37018     37019
     37017     37014     37018     37019     37021     37020     37024     37025
     37022     37020     37024     37025     37023     37020     37024     37025
     37027     37026     37030     37031     37028     37026     37030     37031
     37029     37026     37030     37031     37033     37032     37036     37037
     37034     37032     37036     37037     37035     37032     37036     37037
     37039     37038     37042     37043     37040     37038     37042     37043
     37041     37038     37042     37043     37045     37044     37048     37049
     37046     37044     37048     37049     37047     37044     37048     37049
     37051     37050     37054     37055     37052     37050     37054     37055
     37053     37050     37054     37055     37057     37056     37060     37061
     37058     37056     37060     37061     37059     37056     37060     37061
     37063     37062     37066     37067     37064     37062     37066     37067
     37065     37062     37066     37067     37069     37068     37072     37073
     37070     37068     37072     37073     37071     37068     37072     37073
     37075     37074     37078     37079     37076     37074     37078     37079
     37077     37074     37078     37079     37081     37080     37084     37085
     37082     37080     37084     37085     37083     37080     37084     37085
     37087     37086     37090     37091     37088     37086     37090     37091
     37089     37086     37090     37091     37093     37092     37096     37097
     37094     37092     37096     37097     37095     37092     37096     37097
     37099     37098     37102     37103     37100     37098     37102     37103
     37101     37098     37102     37103     37105     37104     37108     37109
     37106     37104     37108     37109     37107     37104     37108     37109
     37111     37110     37114     37115     37112     37110     37114     37115
     37113     37110     37114     37115     37117     37116     37120     37121
     37118     37116     37120     37121     37119     37116     37120     37121
     37123     37122     37126     37127     37124     37122     37126     37127
     37125     37122     37126     37127     37129     37128     37132     37133
     37130     37128     37132     37133     37131     37128     37132     37133
     37135     37134     37138     37139     37136     37134     37138     37139
     37137     37134     37138     37139     37141     37140     37144     37145
     37142     37140     37144     37145     37143     37140     37144     37145
     37147     37146     37150     37151     37148     37146     37150     37151
     37149     37146     37150     37151     37153     37152     37156     37157
     37154     37152     37156     37157     37155     37152     37156     37157
     37159     37158     37162     37163     37160     37158     37162     37163
     37161     37158     37162     37163     37165     37164     37168     37169
     37166     37164     37168     37169     37167     37164     37168     37169
     37171     37170     37174     37175     37172     37170     37174     37175
     37173     37170     37174     37175     37177     37176     37180     37181
     37178     37176     37180     37181     37179     37176     37180     37181
     37183     37182     37186     37187     37184     37182     37186     37187
     37185     37182     37186     37187     37189     37188     37192     37193
     37190     37188     37192     37193     37191     37188     37192     37193
     37195     37194     37198     37199     37196     37194     37198     37199
     37197     37194     37198     37199     37201     37200     37204     37205
     37202     37200     37204     37205     37203     37200     37204     37205
     37207     37206     37210     37211     37208     37206     37210     37211
     37209     37206     37210     37211     37213     37212     37216     37217
     37214     37212     37216     37217     37215     37212     37216     37217
     37219     37218     37222     37223     37220     37218     37222     37223
     37221     37218     37222     37223     37225     37224     37228     37229
     37226     37224     37228     37229     37227     37224     37228     37229
     37231     37230     37234     37235     37232     37230     37234     37235
     37233     37230     37234     37235     37237     37236     37240     37241
     37238     37236     37240     37241     37239     37236     37240     37241
     37243     37242     37246     37247     37244     37242     37246     37247
     37245     37242     37246     37247     37249     37248     37252     37253
     37250     37248     37252     37253     37251     37248     37252     37253
     37255     37254     37258     37259     37256     37254     37258     37259
     37257     37254     37258     37259     37261     37260     37264     37265
     37262     37260     37264     37265     37263     37260     37264     37265
     37267     37266     37270     37271     37268     37266     37270     37271
     37269     37266     37270     37271     37273     37272     37276     37277
     37274     37272     37276     37277     37275     37272     37276     37277
     37279     37278     37282     37283     37280     37278     37282     37283
     37281     37278     37282     37283     37285     37284     37288     37289
     37286     37284     37288     37289     37287     37284     37288     37289
     37291     37290     37294     37295     37292     37290     37294     37295
     37293     37290     37294     37295     37297     37296     37300     37301
     37298     37296     37300     37301     37299     37296     37300     37301
     37303     37302     37306     37307     37304     37302     37306     37307
     37305     37302     37306     37307     37309     37308     37312     37313
     37310     37308     37312     37313     37311     37308     37312     37313
     37315     37314     37318     37319     37316     37314     37318     37319
     37317     37314     37318     37319     37321     37320     37324     37325
     37322     37320     37324     37325     37323     37320     37324     37325
     37327     37326     37330     37331     37328     37326     37330     37331
     37329     37326     37330     37331     37333     37332     37336     37337
     37334     37332     37336     37337     37335     37332     37336     37337
     37339     37338     37342     37343     37340     37338     37342     37343
     37341     37338     37342     37343     37345     37344     37348     37349
     37346     37344     37348     37349     37347     37344     37348     37349
     37351     37350     37354     37355     37352     37350     37354     37355
     37353     37350     37354     37355     37357     37356     37360     37361
     37358     37356     37360     37361     37359     37356     37360     37361
     37363     37362     37366     37367     37364     37362     37366     37367
     37365     37362     37366     37367     37369     37368     37372     37373
     37370     37368     37372     37373     37371     37368     37372     37373
     37375     37374     37378     37379     37376     37374     37378     37379
     37377     37374     37378     37379     37381     37380     37384     37385
     37382     37380     37384     37385     37383     37380     37384     37385
     37387     37386     37390     37391     37388     37386     37390     37391
     37389     37386     37390     37391     37393     37392     37396     37397
     37394     37392     37396     37397     37395     37392     37396     37397
     37399     37398     37402     37403     37400     37398     37402     37403
     37401     37398     37402     37403     37405     37404     37408     37409
     37406     37404     37408     37409     37407     37404     37408     37409
     37411     37410     37414     37415     37412     37410     37414     37415
     37413     37410     37414     37415     37417     37416     37420     37421
     37418     37416     37420     37421     37419     37416     37420     37421
     37423     37422     37426     37427     37424     37422     37426     37427
     37425     37422     37426     37427     37429     37428     37432     37433
     37430     37428     37432     37433     37431     37428     37432     37433
     37435     37434     37438     37439     37436     37434     37438     37439
     37437     37434     37438     37439     37441     37440     37444     37445
     37442     37440     37444     37445     37443     37440     37444     37445
     37447     37446     37450     37451     37448     37446     37450     37451
     37449     37446     37450     37451     37453     37452     37456     37457
     37454     37452     37456     37457     37455     37452     37456     37457
     37459     37458     37462     37463     37460     37458     37462     37463
     37461     37458     37462     37463     37465     37464     37468     37469
     37466     37464     37468     37469     37467     37464     37468     37469
     37471     37470     37474     37475     37472     37470     37474     37475
     37473     37470     37474     37475     37477     37476     37480     37481
     37478     37476     37480     37481     37479     37476     37480     37481
     37483     37482     37486     37487     37484     37482     37486     37487
     37485     37482     37486     37487     37489     37488     37492     37493
     37490     37488     37492     37493     37491     37488     37492     37493
     37495     37494     37498     37499     37496     37494     37498     37499
     37497     37494     37498     37499     37501     37500     37504     37505
     37502     37500     37504     37505     37503     37500     37504     37505
     37507     37506     37510     37511     37508     37506     37510     37511
     37509     37506     37510     37511     37513     37512     37516     37517
     37514     37512     37516     37517     37515     37512     37516     37517
     37519     37518     37522     37523     37520     37518     37522     37523
     37521     37518     37522     37523     37525     37524     37528     37529
     37526     37524     37528     37529     37527     37524     37528     37529
     37531     37530     37534     37535     37532     37530     37534     37535
     37533     37530     37534     37535     37537     37536     37540     37541
     37538     37536     37540     37541     37539     37536     37540     37541
     37543     37542     37546     37547     37544     37542     37546     37547
     37545     37542     37546     37547     37549     37548     37552     37553
     37550     37548     37552     37553     37551     37548     37552     37553
     37555     37554     37558     37559     37556     37554     37558     37559
     37557     37554     37558     37559     37561     37560     37564     37565
     37562     37560     37564     37565     37563     37560     37564     37565
     37567     37566     37570     37571     37568     37566     37570     37571
     37569     37566     37570     37571     37573     37572     37576     37577
     37574     37572     37576     37577     37575     37572     37576     37577
     37579     37578     37582     37583     37580     37578     37582     37583
     37581     37578     37582     37583     37585     37584     37588     37589
     37586     37584     37588     37589     37587     37584     37588     37589
     37591     37590     37594     37595     37592     37590     37594     37595
     37593     37590     37594     37595     37597     37596     37600     37601
     37598     37596     37600     37601     37599     37596     37600     37601
     37603     37602     37606     37607     37604     37602     37606     37607
     37605     37602     37606     37607     37609     37608     37612     37613
     37610     37608     37612     37613     37611     37608     37612     37613
     37615     37614     37618     37619     37616     37614     37618     37619
     37617     37614     37618     37619     37621     37620     37624     37625
     37622     37620     37624     37625     37623     37620     37624     37625
     37627     37626     37630     37631     37628     37626     37630     37631
     37629     37626     37630     37631     37633     37632     37636     37637
     37634     37632     37636     37637     37635     37632     37636     37637
     37639     37638     37642     37643     37640     37638     37642     37643
     37641     37638     37642     37643     37645     37644     37648     37649
     37646     37644     37648     37649     37647     37644     37648     37649
     37651     37650     37654     37655     37652     37650     37654     37655
     37653     37650     37654     37655     37657     37656     37660     37661
     37658     37656     37660     37661     37659     37656     37660     37661
     37663     37662     37666     37667     37664     37662     37666     37667
     37665     37662     37666     37667     37669     37668     37672     37673
     37670     37668     37672     37673     37671     37668     37672     37673
     37675     37674     37678     37679     37676     37674     37678     37679
     37677     37674     37678     37679     37681     37680     37684     37685
     37682     37680     37684     37685     37683     37680     37684     37685
     37687     37686     37690     37691     37688     37686     37690     37691
     37689     37686     37690     37691     37693     37692     37696     37697
     37694     37692     37696     37697     37695     37692     37696     37697
     37699     37698     37702     37703     37700     37698     37702     37703
     37701     37698     37702     37703     37705     37704     37708     37709
     37706     37704     37708     37709     37707     37704     37708     37709
     37711     37710     37714     37715     37712     37710     37714     37715
     37713     37710     37714     37715     37717     37716     37720     37721
     37718     37716     37720     37721     37719     37716     37720     37721
     37723     37722     37726     37727     37724     37722     37726     37727
     37725     37722     37726     37727     37729     37728     37732     37733
     37730     37728     37732     37733     37731     37728     37732     37733
     37735     37734     37738     37739     37736     37734     37738     37739
     37737     37734     37738     37739     37741     37740     37744     37745
     37742     37740     37744     37745     37743     37740     37744     37745
     37747     37746     37750     37751     37748     37746     37750     37751
     37749     37746     37750     37751     37753     37752     37756     37757
     37754     37752     37756     37757     37755     37752     37756     37757
     37759     37758     37762     37763     37760     37758     37762     37763
     37761     37758     37762     37763     37765     37764     37768     37769
     37766     37764     37768     37769     37767     37764     37768     37769
     37771     37770     37774     37775     37772     37770     37774     37775
     37773     37770     37774     37775     37777     37776     37780     37781
     37778     37776     37780     37781     37779     37776     37780     37781
     37783     37782     37786     37787     37784     37782     37786     37787
     37785     37782     37786     37787     37789     37788     37792     37793
     37790     37788     37792     37793     37791     37788     37792     37793
     37795     37794     37798     37799     37796     37794     37798     37799
     37797     37794     37798     37799     37801     37800     37804     37805
     37802     37800     37804     37805     37803     37800     37804     37805
     37807     37806     37810     37811     37808     37806     37810     37811
     37809     37806     37810     37811     37813     37812     37816     37817
     37814     37812     37816     37817     37815     37812     37816     37817
     37819     37818     37822     37823     37820     37818     37822     37823
     37821     37818     37822     37823     37825     37824     37828     37829
     37826     37824     37828     37829     37827     37824     37828     37829
     37831     37830     37834     37835     37832     37830     37834     37835
     37833     37830     37834     37835     37837     37836     37840     37841
     37838     37836     37840     37841     37839     37836     37840     37841
     37843     37842     37846     37847     37844     37842     37846     37847
     37845     37842     37846     37847     37849     37848     37852     37853
     37850     37848     37852     37853     37851     37848     37852     37853
     37855     37854     37858     37859     37856     37854     37858     37859
     37857     37854     37858     37859     37861     37860     37864     37865
     37862     37860     37864     37865     37863     37860     37864     37865
     37867     37866     37870     37871     37868     37866     37870     37871
     37869     37866     37870     37871     37873     37872     37876     37877
     37874     37872     37876     37877     37875     37872     37876     37877
     37879     37878     37882     37883     37880     37878     37882     37883
     37881     37878     37882     37883     37885     37884     37888     37889
     37886     37884     37888     37889     37887     37884     37888     37889
     37891     37890     37894     37895     37892     37890     37894     37895
     37893     37890     37894     37895     37897     37896     37900     37901
     37898     37896     37900     37901     37899     37896     37900     37901
     37903     37902     37906     37907     37904     37902     37906     37907
     37905     37902     37906     37907     37909     37908     37912     37913
     37910     37908     37912     37913     37911     37908     37912     37913
     37915     37914     37918     37919     37916     37914     37918     37919
     37917     37914     37918     37919     37921     37920     37924     37925
     37922     37920     37924     37925     37923     37920     37924     37925
     37927     37926     37930     37931     37928     37926     37930     37931
     37929     37926     37930     37931     37933     37932     37936     37937
     37934     37932     37936     37937     37935     37932     37936     37937
     37939     37938     37942     37943     37940     37938     37942     37943
     37941     37938     37942     37943     37945     37944     37948     37949
     37946     37944     37948     37949     37947     37944     37948     37949
     37951     37950     37954     37955     37952     37950     37954     37955
     37953     37950     37954     37955     37957     37956     37960     37961
     37958     37956     37960     37961     37959     37956     37960     37961
     37963     37962     37966     37967     37964     37962     37966     37967
     37965     37962     37966     37967     37969     37968     37972     37973
     37970     37968     37972     37973     37971     37968     37972     37973
     37975     37974     37978     37979     37976     37974     37978     37979
     37977     37974     37978     37979     37981     37980     37984     37985
     37982     37980     37984     37985     37983     37980     37984     37985
     37987     37986     37990     37991     37988     37986     37990     37991
     37989     37986     37990     37991     37993     37992     37996     37997
     37994     37992     37996     37997     37995     37992     37996     37997
     37999     37998     38002     38003     38000     37998     38002     38003
     38001     37998     38002     38003     38005     38004     38008     38009
     38006     38004     38008     38009     38007     38004     38008     38009
     38011     38010     38014     38015     38012     38010     38014     38015
     38013     38010     38014     38015     38017     38016     38020     38021
     38018     38016     38020     38021     38019     38016     38020     38021
     38023     38022     38026     38027     38024     38022     38026     38027
     38025     38022     38026     38027     38029     38028     38032     38033
     38030     38028     38032     38033     38031     38028     38032     38033
     38035     38034     38038     38039     38036     38034     38038     38039
     38037     38034     38038     38039     38041     38040     38044     38045
     38042     38040     38044     38045     38043     38040     38044     38045
     38047     38046     38050     38051     38048     38046     38050     38051
     38049     38046     38050     38051     38053     38052     38056     38057
     38054     38052     38056     38057     38055     38052     38056     38057
     38059     38058     38062     38063     38060     38058     38062     38063
     38061     38058     38062     38063     38065     38064     38068     38069
     38066     38064     38068     38069     38067     38064     38068     38069
     38071     38070     38074     38075     38072     38070     38074     38075
     38073     38070     38074     38075     38077     38076     38080     38081
     38078     38076     38080     38081     38079     38076     38080     38081
     38083     38082     38086     38087     38084     38082     38086     38087
     38085     38082     38086     38087     38089     38088     38092     38093
     38090     38088     38092     38093     38091     38088     38092     38093
     38095     38094     38098     38099     38096     38094     38098     38099
     38097     38094     38098     38099     38101     38100     38104     38105
     38102     38100     38104     38105     38103     38100     38104     38105
     38107     38106     38110     38111     38108     38106     38110     38111
     38109     38106     38110     38111     38113     38112     38116     38117
     38114     38112     38116     38117     38115     38112     38116     38117
     38119     38118     38122     38123     38120     38118     38122     38123
     38121     38118     38122     38123     38125     38124     38128     38129
     38126     38124     38128     38129     38127     38124     38128     38129
     38131     38130     38134     38135     38132     38130     38134     38135
     38133     38130     38134     38135     38137     38136     38140     38141
     38138     38136     38140     38141     38139     38136     38140     38141
     38143     38142     38146     38147     38144     38142     38146     38147
     38145     38142     38146     38147     38149     38148     38152     38153
     38150     38148     38152     38153     38151     38148     38152     38153
     38155     38154     38158     38159     38156     38154     38158     38159
     38157     38154     38158     38159     38161     38160     38164     38165
     38162     38160     38164     38165     38163     38160     38164     38165
     38167     38166     38170     38171     38168     38166     38170     38171
     38169     38166     38170     38171     38173     38172     38176     38177
     38174     38172     38176     38177     38175     38172     38176     38177
     38179     38178     38182     38183     38180     38178     38182     38183
     38181     38178     38182     38183     38185     38184     38188     38189
     38186     38184     38188     38189     38187     38184     38188     38189
     38191     38190     38194     38195     38192     38190     38194     38195
     38193     38190     38194     38195     38197     38196     38200     38201
     38198     38196     38200     38201     38199     38196     38200     38201
     38203     38202     38206     38207     38204     38202     38206     38207
     38205     38202     38206     38207     38209     38208     38212     38213
     38210     38208     38212     38213     38211     38208     38212     38213
     38215     38214     38218     38219     38216     38214     38218     38219
     38217     38214     38218     38219     38221     38220     38224     38225
     38222     38220     38224     38225     38223     38220     38224     38225
     38227     38226     38230     38231     38228     38226     38230     38231
     38229     38226     38230     38231     38233     38232     38236     38237
     38234     38232     38236     38237     38235     38232     38236     38237
     38239     38238     38242     38243     38240     38238     38242     38243
     38241     38238     38242     38243     38245     38244     38248     38249
     38246     38244     38248     38249     38247     38244     38248     38249
     38251     38250     38254     38255     38252     38250     38254     38255
     38253     38250     38254     38255     38257     38256     38260     38261
     38258     38256     38260     38261     38259     38256     38260     38261
     38263     38262     38266     38267     38264     38262     38266     38267
     38265     38262     38266     38267     38269     38268     38272     38273
     38270     38268     38272     38273     38271     38268     38272     38273
     38275     38274     38278     38279     38276     38274     38278     38279
     38277     38274     38278     38279     38281     38280     38284     38285
     38282     38280     38284     38285     38283     38280     38284     38285
     38287     38286     38290     38291     38288     38286     38290     38291
     38289     38286     38290     38291     38293     38292     38296     38297
     38294     38292     38296     38297     38295     38292     38296     38297
     38299     38298     38302     38303     38300     38298     38302     38303
     38301     38298     38302     38303     38305     38304     38308     38309
     38306     38304     38308     38309     38307     38304     38308     38309
     38311     38310     38314     38315     38312     38310     38314     38315
     38313     38310     38314     38315     38317     38316     38320     38321
     38318     38316     38320     38321     38319     38316     38320     38321
     38323     38322     38326     38327     38324     38322     38326     38327
     38325     38322     38326     38327     38329     38328     38332     38333
     38330     38328     38332     38333     38331     38328     38332     38333
     38335     38334     38338     38339     38336     38334     38338     38339
     38337     38334     38338     38339     38341     38340     38344     38345
     38342     38340     38344     38345     38343     38340     38344     38345
     38347     38346     38350     38351     38348     38346     38350     38351
     38349     38346     38350     38351     38353     38352     38356     38357
     38354     38352     38356     38357     38355     38352     38356     38357
     38359     38358     38362     38363     38360     38358     38362     38363
     38361     38358     38362     38363     38365     38364     38368     38369
     38366     38364     38368     38369     38367     38364     38368     38369
     38371     38370     38374     38375     38372     38370     38374     38375
     38373     38370     38374     38375     38377     38376     38380     38381
     38378     38376     38380     38381     38379     38376     38380     38381
     38383     38382     38386     38387     38384     38382     38386     38387
     38385     38382     38386     38387     38389     38388     38392     38393
     38390     38388     38392     38393     38391     38388     38392     38393
     38395     38394     38398     38399     38396     38394     38398     38399
     38397     38394     38398     38399     38401     38400     38404     38405
     38402     38400     38404     38405     38403     38400     38404     38405
     38407     38406     38410     38411     38408     38406     38410     38411
     38409     38406     38410     38411     38413     38412     38416     38417
     38414     38412     38416     38417     38415     38412     38416     38417
     38419     38418     38422     38423     38420     38418     38422     38423
     38421     38418     38422     38423     38425     38424     38428     38429
     38426     38424     38428     38429     38427     38424     38428     38429
     38431     38430     38434     38435     38432     38430     38434     38435
     38433     38430     38434     38435     38437     38436     38440     38441
     38438     38436     38440     38441     38439     38436     38440     38441
     38443     38442     38446     38447     38444     38442     38446     38447
     38445     38442     38446     38447     38449     38448     38452     38453
     38450     38448     38452     38453     38451     38448     38452     38453
     38455     38454     38458     38459     38456     38454     38458     38459
     38457     38454     38458     38459     38461     38460     38464     38465
     38462     38460     38464     38465     38463     38460     38464     38465
     38467     38466     38470     38471     38468     38466     38470     38471
     38469     38466     38470     38471     38473     38472     38476     38477
     38474     38472     38476     38477     38475     38472     38476     38477
     38479     38478     38482     38483     38480     38478     38482     38483
     38481     38478     38482     38483     38485     38484     38488     38489
     38486     38484     38488     38489     38487     38484     38488     38489
     38491     38490     38494     38495     38492     38490     38494     38495
     38493     38490     38494     38495     38497     38496     38500     38501
     38498     38496     38500     38501     38499     38496     38500     38501
     38503     38502     38506     38507     38504     38502     38506     38507
     38505     38502     38506     38507     38509     38508     38512     38513
     38510     38508     38512     38513     38511     38508     38512     38513
     38515     38514     38518     38519     38516     38514     38518     38519
     38517     38514     38518     38519     38521     38520     38524     38525
     38522     38520     38524     38525     38523     38520     38524     38525
     38527     38526     38530     38531     38528     38526     38530     38531
     38529     38526     38530     38531     38533     38532     38536     38537
     38534     38532     38536     38537     38535     38532     38536     38537
     38539     38538     38542     38543     38540     38538     38542     38543
     38541     38538     38542     38543     38545     38544     38548     38549
     38546     38544     38548     38549     38547     38544     38548     38549
     38551     38550     38554     38555     38552     38550     38554     38555
     38553     38550     38554     38555     38557     38556     38560     38561
     38558     38556     38560     38561     38559     38556     38560     38561
     38563     38562     38566     38567     38564     38562     38566     38567
     38565     38562     38566     38567     38569     38568     38572     38573
     38570     38568     38572     38573     38571     38568     38572     38573
     38575     38574     38578     38579     38576     38574     38578     38579
     38577     38574     38578     38579     38581     38580     38584     38585
     38582     38580     38584     38585     38583     38580     38584     38585
     38587     38586     38590     38591     38588     38586     38590     38591
     38589     38586     38590     38591     38593     38592     38596     38597
     38594     38592     38596     38597     38595     38592     38596     38597
     38599     38598     38602     38603     38600     38598     38602     38603
     38601     38598     38602     38603     38605     38604     38608     38609
     38606     38604     38608     38609     38607     38604     38608     38609
     38611     38610     38614     38615     38612     38610     38614     38615
     38613     38610     38614     38615     38617     38616     38620     38621
     38618     38616     38620     38621     38619     38616     38620     38621
     38623     38622     38626     38627     38624     38622     38626     38627
     38625     38622     38626     38627     38629     38628     38632     38633
     38630     38628     38632     38633     38631     38628     38632     38633
     38635     38634     38638     38639     38636     38634     38638     38639
     38637     38634     38638     38639     38641     38640     38644     38645
     38642     38640     38644     38645     38643     38640     38644     38645
     38647     38646     38650     38651     38648     38646     38650     38651
     38649     38646     38650     38651     38653     38652     38656     38657
     38654     38652     38656     38657     38655     38652     38656     38657
     38659     38658     38662     38663     38660     38658     38662     38663
     38661     38658     38662     38663     38665     38664     38668     38669
     38666     38664     38668     38669     38667     38664     38668     38669
     38671     38670     38674     38675     38672     38670     38674     38675
     38673     38670     38674     38675     38677     38676     38680     38681
     38678     38676     38680     38681     38679     38676     38680     38681
     38683     38682     38686     38687     38684     38682     38686     38687
     38685     38682     38686     38687     38689     38688     38692     38693
     38690     38688     38692     38693     38691     38688     38692     38693
     38695     38694     38698     38699     38696     38694     38698     38699
     38697     38694     38698     38699     38701     38700     38704     38705
     38702     38700     38704     38705     38703     38700     38704     38705
     38707     38706     38710     38711     38708     38706     38710     38711
     38709     38706     38710     38711     38713     38712     38716     38717
     38714     38712     38716     38717     38715     38712     38716     38717
     38719     38718     38722     38723     38720     38718     38722     38723
     38721     38718     38722     38723     38725     38724     38728     38729
     38726     38724     38728     38729     38727     38724     38728     38729
     38731     38730     38734     38735     38732     38730     38734     38735
     38733     38730     38734     38735     38737     38736     38740     38741
     38738     38736     38740     38741     38739     38736     38740     38741
     38743     38742     38746     38747     38744     38742     38746     38747
     38745     38742     38746     38747     38749     38748     38752     38753
     38750     38748     38752     38753     38751     38748     38752     38753
     38755     38754     38758     38759     38756     38754     38758     38759
     38757     38754     38758     38759     38761     38760     38764     38765
     38762     38760     38764     38765     38763     38760     38764     38765
     38767     38766     38770     38771     38768     38766     38770     38771
     38769     38766     38770     38771     38773     38772     38776     38777
     38774     38772     38776     38777     38775     38772     38776     38777
     38779     38778     38782     38783     38780     38778     38782     38783
     38781     38778     38782     38783     38785     38784     38788     38789
     38786     38784     38788     38789     38787     38784     38788     38789
     38791     38790     38794     38795     38792     38790     38794     38795
     38793     38790     38794     38795     38797     38796     38800     38801
     38798     38796     38800     38801     38799     38796     38800     38801
     38803     38802     38806     38807     38804     38802     38806     38807
     38805     38802     38806     38807     38809     38808     38812     38813
     38810     38808     38812     38813     38811     38808     38812     38813
     38815     38814     38818     38819     38816     38814     38818     38819
     38817     38814     38818     38819     38821     38820     38824     38825
     38822     38820     38824     38825     38823     38820     38824     38825
     38827     38826     38830     38831     38828     38826     38830     38831
     38829     38826     38830     38831     38833     38832     38836     38837
     38834     38832     38836     38837     38835     38832     38836     38837
     38839     38838     38842     38843     38840     38838     38842     38843
     38841     38838     38842     38843     38845     38844     38848     38849
     38846     38844     38848     38849     38847     38844     38848     38849
     38851     38850     38854     38855     38852     38850     38854     38855
     38853     38850     38854     38855     38857     38856     38860     38861
     38858     38856     38860     38861     38859     38856     38860     38861
     38863     38862     38866     38867     38864     38862     38866     38867
     38865     38862     38866     38867     38869     38868     38872     38873
     38870     38868     38872     38873     38871     38868     38872     38873
     38875     38874     38878     38879     38876     38874     38878     38879
     38877     38874     38878     38879     38881     38880     38884     38885
     38882     38880     38884     38885     38883     38880     38884     38885
     38887     38886     38890     38891     38888     38886     38890     38891
     38889     38886     38890     38891     38893     38892     38896     38897
     38894     38892     38896     38897     38895     38892     38896     38897
     38899     38898     38902     38903     38900     38898     38902     38903
     38901     38898     38902     38903     38905     38904     38908     38909
     38906     38904     38908     38909     38907     38904     38908     38909
     38911     38910     38914     38915     38912     38910     38914     38915
     38913     38910     38914     38915     38917     38916     38920     38921
     38918     38916     38920     38921     38919     38916     38920     38921
     38923     38922     38926     38927     38924     38922     38926     38927
     38925     38922     38926     38927     38929     38928     38932     38933
     38930     38928     38932     38933     38931     38928     38932     38933
     38935     38934     38938     38939     38936     38934     38938     38939
     38937     38934     38938     38939     38941     38940     38944     38945
     38942     38940     38944     38945     38943     38940     38944     38945
     38947     38946     38950     38951     38948     38946     38950     38951
     38949     38946     38950     38951     38953     38952     38956     38957
     38954     38952     38956     38957     38955     38952     38956     38957
     38959     38958     38962     38963     38960     38958     38962     38963
     38961     38958     38962     38963     38965     38964     38968     38969
     38966     38964     38968     38969     38967     38964     38968     38969
     38971     38970     38974     38975     38972     38970     38974     38975
     38973     38970     38974     38975     38977     38976     38980     38981
     38978     38976     38980     38981     38979     38976     38980     38981
     38983     38982     38986     38987     38984     38982     38986     38987
     38985     38982     38986     38987     38989     38988     38992     38993
     38990     38988     38992     38993     38991     38988     38992     38993
     38995     38994     38998     38999     38996     38994     38998     38999
     38997     38994     38998     38999     39001     39000     39004     39005
     39002     39000     39004     39005     39003     39000     39004     39005
     39007     39006     39010     39011     39008     39006     39010     39011
     39009     39006     39010     39011     39013     39012     39016     39017
     39014     39012     39016     39017     39015     39012     39016     39017
     39019     39018     39022     39023     39020     39018     39022     39023
     39021     39018     39022     39023     39025     39024     39028     39029
     39026     39024     39028     39029     39027     39024     39028     39029
     39031     39030     39034     39035     39032     39030     39034     39035
     39033     39030     39034     39035     39037     39036     39040     39041
     39038     39036     39040     39041     39039     39036     39040     39041
     39043     39042     39046     39047     39044     39042     39046     39047
     39045     39042     39046     39047     39049     39048     39052     39053
     39050     39048     39052     39053     39051     39048     39052     39053
     39055     39054     39058     39059     39056     39054     39058     39059
     39057     39054     39058     39059     39061     39060     39064     39065
     39062     39060     39064     39065     39063     39060     39064     39065
     39067     39066     39070     39071     39068     39066     39070     39071
     39069     39066     39070     39071     39073     39072     39076     39077
     39074     39072     39076     39077     39075     39072     39076     39077
     39079     39078     39082     39083     39080     39078     39082     39083
     39081     39078     39082     39083     39085     39084     39088     39089
     39086     39084     39088     39089     39087     39084     39088     39089
     39091     39090     39094     39095     39092     39090     39094     39095
     39093     39090     39094     39095     39097     39096     39100     39101
     39098     39096     39100     39101     39099     39096     39100     39101
     39103     39102     39106     39107     39104     39102     39106     39107
     39105     39102     39106     39107     39109     39108     39112     39113
     39110     39108     39112     39113     39111     39108     39112     39113
     39115     39114     39118     39119     39116     39114     39118     39119
     39117     39114     39118     39119     39121     39120     39124     39125
     39122     39120     39124     39125     39123     39120     39124     39125
     39127     39126     39130     39131     39128     39126     39130     39131
     39129     39126     39130     39131     39133     39132     39136     39137
     39134     39132     39136     39137     39135     39132     39136     39137
     39139     39138     39142     39143     39140     39138     39142     39143
     39141     39138     39142     39143     39145     39144     39148     39149
     39146     39144     39148     39149     39147     39144     39148     39149
     39151     39150     39154     39155     39152     39150     39154     39155
     39153     39150     39154     39155     39157     39156     39160     39161
     39158     39156     39160     39161     39159     39156     39160     39161
     39163     39162     39166     39167     39164     39162     39166     39167
     39165     39162     39166     39167     39169     39168     39172     39173
     39170     39168     39172     39173     39171     39168     39172     39173
     39175     39174     39178     39179     39176     39174     39178     39179
     39177     39174     39178     39179     39181     39180     39184     39185
     39182     39180     39184     39185     39183     39180     39184     39185
     39187     39186     39190     39191     39188     39186     39190     39191
     39189     39186     39190     39191     39193     39192     39196     39197
     39194     39192     39196     39197     39195     39192     39196     39197
     39199     39198     39202     39203     39200     39198     39202     39203
     39201     39198     39202     39203     39205     39204     39208     39209
     39206     39204     39208     39209     39207     39204     39208     39209
     39211     39210     39214     39215     39212     39210     39214     39215
     39213     39210     39214     39215     39217     39216     39220     39221
     39218     39216     39220     39221     39219     39216     39220     39221
     39223     39222     39226     39227     39224     39222     39226     39227
     39225     39222     39226     39227     39229     39228     39232     39233
     39230     39228     39232     39233     39231     39228     39232     39233
     39235     39234     39238     39239     39236     39234     39238     39239
     39237     39234     39238     39239     39241     39240     39244     39245
     39242     39240     39244     39245     39243     39240     39244     39245
     39247     39246     39250     39251     39248     39246     39250     39251
     39249     39246     39250     39251     39253     39252     39256     39257
     39254     39252     39256     39257     39255     39252     39256     39257
     39259     39258     39262     39263     39260     39258     39262     39263
     39261     39258     39262     39263     39265     39264     39268     39269
     39266     39264     39268     39269     39267     39264     39268     39269
     39271     39270     39274     39275     39272     39270     39274     39275
     39273     39270     39274     39275     39277     39276     39280     39281
     39278     39276     39280     39281     39279     39276     39280     39281
     39283     39282     39286     39287     39284     39282     39286     39287
     39285     39282     39286     39287     39289     39288     39292     39293
     39290     39288     39292     39293     39291     39288     39292     39293
     39295     39294     39298     39299     39296     39294     39298     39299
     39297     39294     39298     39299     39301     39300     39304     39305
     39302     39300     39304     39305     39303     39300     39304     39305
     39307     39306     39310     39311     39308     39306     39310     39311
     39309     39306     39310     39311     39313     39312     39316     39317
     39314     39312     39316     39317     39315     39312     39316     39317
     39319     39318     39322     39323     39320     39318     39322     39323
     39321     39318     39322     39323     39325     39324     39328     39329
     39326     39324     39328     39329     39327     39324     39328     39329
     39331     39330     39334     39335     39332     39330     39334     39335
     39333     39330     39334     39335     39337     39336     39340     39341
     39338     39336     39340     39341     39339     39336     39340     39341
     39343     39342     39346     39347     39344     39342     39346     39347
     39345     39342     39346     39347     39349     39348     39352     39353
     39350     39348     39352     39353     39351     39348     39352     39353
     39355     39354     39358     39359     39356     39354     39358     39359
     39357     39354     39358     39359     39361     39360     39364     39365
     39362     39360     39364     39365     39363     39360     39364     39365
     39367     39366     39370     39371     39368     39366     39370     39371
     39369     39366     39370     39371     39373     39372     39376     39377
     39374     39372     39376     39377     39375     39372     39376     39377
     39379     39378     39382     39383     39380     39378     39382     39383
     39381     39378     39382     39383     39385     39384     39388     39389
     39386     39384     39388     39389     39387     39384     39388     39389
     39391     39390     39394     39395     39392     39390     39394     39395
     39393     39390     39394     39395     39397     39396     39400     39401
     39398     39396     39400     39401     39399     39396     39400     39401
     39403     39402     39406     39407     39404     39402     39406     39407
     39405     39402     39406     39407     39409     39408     39412     39413
     39410     39408     39412     39413     39411     39408     39412     39413
     39415     39414     39418     39419     39416     39414     39418     39419
     39417     39414     39418     39419     39421     39420     39424     39425
     39422     39420     39424     39425     39423     39420     39424     39425
     39427     39426     39430     39431     39428     39426     39430     39431
     39429     39426     39430     39431     39433     39432     39436     39437
     39434     39432     39436     39437     39435     39432     39436     39437
     39439     39438     39442     39443     39440     39438     39442     39443
     39441     39438     39442     39443     39445     39444     39448     39449
     39446     39444     39448     39449     39447     39444     39448     39449
     39451     39450     39454     39455     39452     39450     39454     39455
     39453     39450     39454     39455     39457     39456     39460     39461
     39458     39456     39460     39461     39459     39456     39460     39461
     39463     39462     39466     39467     39464     39462     39466     39467
     39465     39462     39466     39467     39469     39468     39472     39473
     39470     39468     39472     39473     39471     39468     39472     39473
     39475     39474     39478     39479     39476     39474     39478     39479
     39477     39474     39478     39479     39481     39480     39484     39485
     39482     39480     39484     39485     39483     39480     39484     39485
     39487     39486     39490     39491     39488     39486     39490     39491
     39489     39486     39490     39491     39493     39492     39496     39497
     39494     39492     39496     39497     39495     39492     39496     39497
     39499     39498     39502     39503     39500     39498     39502     39503
     39501     39498     39502     39503     39505     39504     39508     39509
     39506     39504     39508     39509     39507     39504     39508     39509
     39511     39510     39514     39515     39512     39510     39514     39515
     39513     39510     39514     39515     39517     39516     39520     39521
     39518     39516     39520     39521     39519     39516     39520     39521
     39523     39522     39526     39527     39524     39522     39526     39527
     39525     39522     39526     39527     39529     39528     39532     39533
     39530     39528     39532     39533     39531     39528     39532     39533
     39535     39534     39538     39539     39536     39534     39538     39539
     39537     39534     39538     39539     39541     39540     39544     39545
     39542     39540     39544     39545     39543     39540     39544     39545
     39547     39546     39550     39551     39548     39546     39550     39551
     39549     39546     39550     39551     39553     39552     39556     39557
     39554     39552     39556     39557     39555     39552     39556     39557
     39559     39558     39562     39563     39560     39558     39562     39563
     39561     39558     39562     39563     39565     39564     39568     39569
     39566     39564     39568     39569     39567     39564     39568     39569
     39571     39570     39574     39575     39572     39570     39574     39575
     39573     39570     39574     39575     39577     39576     39580     39581
     39578     39576     39580     39581     39579     39576     39580     39581
     39583     39582     39586     39587     39584     39582     39586     39587
     39585     39582     39586     39587     39589     39588     39592     39593
     39590     39588     39592     39593     39591     39588     39592     39593
     39595     39594     39598     39599     39596     39594     39598     39599
     39597     39594     39598     39599     39601     39600     39604     39605
     39602     39600     39604     39605     39603     39600     39604     39605
     39607     39606     39610     39611     39608     39606     39610     39611
     39609     39606     39610     39611     39613     39612     39616     39617
     39614     39612     39616     39617     39615     39612     39616     39617
     39619     39618     39622     39623     39620     39618     39622     39623
     39621     39618     39622     39623     39625     39624     39628     39629
     39626     39624     39628     39629     39627     39624     39628     39629
     39631     39630     39634     39635     39632     39630     39634     39635
     39633     39630     39634     39635     39637     39636     39640     39641
     39638     39636     39640     39641     39639     39636     39640     39641
     39643     39642     39646     39647     39644     39642     39646     39647
     39645     39642     39646     39647     39649     39648     39652     39653
     39650     39648     39652     39653     39651     39648     39652     39653
     39655     39654     39658     39659     39656     39654     39658     39659
     39657     39654     39658     39659     39661     39660     39664     39665
     39662     39660     39664     39665     39663     39660     39664     39665
     39667     39666     39670     39671     39668     39666     39670     39671
     39669     39666     39670     39671     39673     39672     39676     39677
     39674     39672     39676     39677     39675     39672     39676     39677
     39679     39678     39682     39683     39680     39678     39682     39683
     39681     39678     39682     39683     39685     39684     39688     39689
     39686     39684     39688     39689     39687     39684     39688     39689
     39691     39690     39694     39695     39692     39690     39694     39695
     39693     39690     39694     39695     39697     39696     39700     39701
     39698     39696     39700     39701     39699     39696     39700     39701
     39703     39702     39706     39707     39704     39702     39706     39707
     39705     39702     39706     39707     39709     39708     39712     39713
     39710     39708     39712     39713     39711     39708     39712     39713
     39715     39714     39718     39719     39716     39714     39718     39719
     39717     39714     39718     39719     39721     39720     39724     39725
     39722     39720     39724     39725     39723     39720     39724     39725
     39727     39726     39730     39731     39728     39726     39730     39731
     39729     39726     39730     39731     39733     39732     39736     39737
     39734     39732     39736     39737     39735     39732     39736     39737
     39739     39738     39742     39743     39740     39738     39742     39743
     39741     39738     39742     39743     39745     39744     39748     39749
     39746     39744     39748     39749     39747     39744     39748     39749
     39751     39750     39754     39755     39752     39750     39754     39755
     39753     39750     39754     39755     39757     39756     39760     39761
     39758     39756     39760     39761     39759     39756     39760     39761
     39763     39762     39766     39767     39764     39762     39766     39767
     39765     39762     39766     39767     39769     39768     39772     39773
     39770     39768     39772     39773     39771     39768     39772     39773
     39775     39774     39778     39779     39776     39774     39778     39779
     39777     39774     39778     39779     39781     39780     39784     39785
     39782     39780     39784     39785     39783     39780     39784     39785
     39787     39786     39790     39791     39788     39786     39790     39791
     39789     39786     39790     39791     39793     39792     39796     39797
     39794     39792     39796     39797     39795     39792     39796     39797
     39799     39798     39802     39803     39800     39798     39802     39803
     39801     39798     39802     39803     39805     39804     39808     39809
     39806     39804     39808     39809     39807     39804     39808     39809
     39811     39810     39814     39815     39812     39810     39814     39815
     39813     39810     39814     39815     39817     39816     39820     39821
     39818     39816     39820     39821     39819     39816     39820     39821
     39823     39822     39826     39827     39824     39822     39826     39827
     39825     39822     39826     39827     39829     39828     39832     39833
     39830     39828     39832     39833     39831     39828     39832     39833
     39835     39834     39838     39839     39836     39834     39838     39839
     39837     39834     39838     39839     39841     39840     39844     39845
     39842     39840     39844     39845     39843     39840     39844     39845
     39847     39846     39850     39851     39848     39846     39850     39851
     39849     39846     39850     39851     39853     39852     39856     39857
     39854     39852     39856     39857     39855     39852     39856     39857
     39859     39858     39862     39863     39860     39858     39862     39863
     39861     39858     39862     39863     39865     39864     39868     39869
     39866     39864     39868     39869     39867     39864     39868     39869
     39871     39870     39874     39875     39872     39870     39874     39875
     39873     39870     39874     39875     39877     39876     39880     39881
     39878     39876     39880     39881     39879     39876     39880     39881
     39883     39882     39886     39887     39884     39882     39886     39887
     39885     39882     39886     39887     39889     39888     39892     39893
     39890     39888     39892     39893     39891     39888     39892     39893
     39895     39894     39898     39899     39896     39894     39898     39899
     39897     39894     39898     39899     39901     39900     39904     39905
     39902     39900     39904     39905     39903     39900     39904     39905
     39907     39906     39910     39911     39908     39906     39910     39911
     39909     39906     39910     39911     39913     39912     39916     39917
     39914     39912     39916     39917     39915     39912     39916     39917
     39919     39918     39922     39923     39920     39918     39922     39923
     39921     39918     39922     39923     39925     39924     39928     39929
     39926     39924     39928     39929     39927     39924     39928     39929
     39931     39930     39934     39935     39932     39930     39934     39935
     39933     39930     39934     39935     39937     39936     39940     39941
     39938     39936     39940     39941     39939     39936     39940     39941
     39943     39942     39946     39947     39944     39942     39946     39947
     39945     39942     39946     39947     39949     39948     39952     39953
     39950     39948     39952     39953     39951     39948     39952     39953
     39955     39954     39958     39959     39956     39954     39958     39959
     39957     39954     39958     39959     39961     39960     39964     39965
     39962     39960     39964     39965     39963     39960     39964     39965
     39967     39966     39970     39971     39968     39966     39970     39971
     39969     39966     39970     39971     39973     39972     39976     39977
     39974     39972     39976     39977     39975     39972     39976     39977
     39979     39978     39982     39983     39980     39978     39982     39983
     39981     39978     39982     39983     39985     39984     39988     39989
     39986     39984     39988     39989     39987     39984     39988     39989
     39991     39990     39994     39995     39992     39990     39994     39995
     39993     39990     39994     39995     39997     39996     40000     40001
     39998     39996     40000     40001     39999     39996     40000     40001
     40003     40002     40006     40007     40004     40002     40006     40007
     40005     40002     40006     40007     40009     40008     40012     40013
     40010     40008     40012     40013     40011     40008     40012     40013
     40015     40014     40018     40019     40016     40014     40018     40019
     40017     40014     40018     40019     40021     40020     40024     40025
     40022     40020     40024     40025     40023     40020     40024     40025
     40027     40026     40030     40031     40028     40026     40030     40031
     40029     40026     40030     40031     40033     40032     40036     40037
     40034     40032     40036     40037     40035     40032     40036     40037
     40039     40038     40042     40043     40040     40038     40042     40043
     40041     40038     40042     40043     40045     40044     40048     40049
     40046     40044     40048     40049     40047     40044     40048     40049
     40051     40050     40054     40055     40052     40050     40054     40055
     40053     40050     40054     40055     40057     40056     40060     40061
     40058     40056     40060     40061     40059     40056     40060     40061
     40063     40062     40066     40067     40064     40062     40066     40067
     40065     40062     40066     40067     40069     40068     40072     40073
     40070     40068     40072     40073     40071     40068     40072     40073
     40075     40074     40078     40079     40076     40074     40078     40079
     40077     40074     40078     40079     40081     40080     40084     40085
     40082     40080     40084     40085     40083     40080     40084     40085
     40087     40086     40090     40091     40088     40086     40090     40091
     40089     40086     40090     40091     40093     40092     40096     40097
     40094     40092     40096     40097     40095     40092     40096     40097
     40099     40098     40102     40103     40100     40098     40102     40103
     40101     40098     40102     40103     40105     40104     40108     40109
     40106     40104     40108     40109     40107     40104     40108     40109
     40111     40110     40114     40115     40112     40110     40114     40115
     40113     40110     40114     40115     40117     40116     40120     40121
     40118     40116     40120     40121     40119     40116     40120     40121
     40123     40122     40126     40127     40124     40122     40126     40127
     40125     40122     40126     40127     40129     40128     40132     40133
     40130     40128     40132     40133     40131     40128     40132     40133
     40135     40134     40138     40139     40136     40134     40138     40139
     40137     40134     40138     40139     40141     40140     40144     40145
     40142     40140     40144     40145     40143     40140     40144     40145
     40147     40146     40150     40151     40148     40146     40150     40151
     40149     40146     40150     40151     40153     40152     40156     40157
     40154     40152     40156     40157     40155     40152     40156     40157
     40159     40158     40162     40163     40160     40158     40162     40163
     40161     40158     40162     40163     40165     40164     40168     40169
     40166     40164     40168     40169     40167     40164     40168     40169
     40171     40170     40174     40175     40172     40170     40174     40175
     40173     40170     40174     40175     40177     40176     40180     40181
     40178     40176     40180     40181     40179     40176     40180     40181
     40183     40182     40186     40187     40184     40182     40186     40187
     40185     40182     40186     40187     40189     40188     40192     40193
     40190     40188     40192     40193     40191     40188     40192     40193
     40195     40194     40198     40199     40196     40194     40198     40199
     40197     40194     40198     40199     40201     40200     40204     40205
     40202     40200     40204     40205     40203     40200     40204     40205
     40207     40206     40210     40211     40208     40206     40210     40211
     40209     40206     40210     40211     40213     40212     40216     40217
     40214     40212     40216     40217     40215     40212     40216     40217
     40219     40218     40222     40223     40220     40218     40222     40223
     40221     40218     40222     40223     40225     40224     40228     40229
     40226     40224     40228     40229     40227     40224     40228     40229
     40231     40230     40234     40235     40232     40230     40234     40235
     40233     40230     40234     40235     40237     40236     40240     40241
     40238     40236     40240     40241     40239     40236     40240     40241
     40243     40242     40246     40247     40244     40242     40246     40247
     40245     40242     40246     40247     40249     40248     40252     40253
     40250     40248     40252     40253     40251     40248     40252     40253
     40255     40254     40258     40259     40256     40254     40258     40259
     40257     40254     40258     40259     40261     40260     40264     40265
     40262     40260     40264     40265     40263     40260     40264     40265
     40267     40266     40270     40271     40268     40266     40270     40271
     40269     40266     40270     40271     40273     40272     40276     40277
     40274     40272     40276     40277     40275     40272     40276     40277
     40279     40278     40282     40283     40280     40278     40282     40283
     40281     40278     40282     40283     40285     40284     40288     40289
     40286     40284     40288     40289     40287     40284     40288     40289
     40291     40290     40294     40295     40292     40290     40294     40295
     40293     40290     40294     40295     40297     40296     40300     40301
     40298     40296     40300     40301     40299     40296     40300     40301
     40303     40302     40306     40307     40304     40302     40306     40307
     40305     40302     40306     40307     40309     40308     40312     40313
     40310     40308     40312     40313     40311     40308     40312     40313
     40315     40314     40318     40319     40316     40314     40318     40319
     40317     40314     40318     40319     40321     40320     40324     40325
     40322     40320     40324     40325     40323     40320     40324     40325
     40327     40326     40330     40331     40328     40326     40330     40331
     40329     40326     40330     40331     40333     40332     40336     40337
     40334     40332     40336     40337     40335     40332     40336     40337
     40339     40338     40342     40343     40340     40338     40342     40343
     40341     40338     40342     40343     40345     40344     40348     40349
     40346     40344     40348     40349     40347     40344     40348     40349
     40351     40350     40354     40355     40352     40350     40354     40355
     40353     40350     40354     40355     40357     40356     40360     40361
     40358     40356     40360     40361     40359     40356     40360     40361
     40363     40362     40366     40367     40364     40362     40366     40367
     40365     40362     40366     40367     40369     40368     40372     40373
     40370     40368     40372     40373     40371     40368     40372     40373
     40375     40374     40378     40379     40376     40374     40378     40379
     40377     40374     40378     40379     40381     40380     40384     40385
     40382     40380     40384     40385     40383     40380     40384     40385
     40387     40386     40390     40391     40388     40386     40390     40391
     40389     40386     40390     40391     40393     40392     40396     40397
     40394     40392     40396     40397     40395     40392     40396     40397
     40399     40398     40402     40403     40400     40398     40402     40403
     40401     40398     40402     40403     40405     40404     40408     40409
     40406     40404     40408     40409     40407     40404     40408     40409
     40411     40410     40414     40415     40412     40410     40414     40415
     40413     40410     40414     40415     40417     40416     40420     40421
     40418     40416     40420     40421     40419     40416     40420     40421
     40423     40422     40426     40427     40424     40422     40426     40427
     40425     40422     40426     40427     40429     40428     40432     40433
     40430     40428     40432     40433     40431     40428     40432     40433
     40435     40434     40438     40439     40436     40434     40438     40439
     40437     40434     40438     40439     40441     40440     40444     40445
     40442     40440     40444     40445     40443     40440     40444     40445
     40447     40446     40450     40451     40448     40446     40450     40451
     40449     40446     40450     40451     40453     40452     40456     40457
     40454     40452     40456     40457     40455     40452     40456     40457
     40459     40458     40462     40463     40460     40458     40462     40463
     40461     40458     40462     40463     40465     40464     40468     40469
     40466     40464     40468     40469     40467     40464     40468     40469
     40471     40470     40474     40475     40472     40470     40474     40475
     40473     40470     40474     40475     40477     40476     40480     40481
     40478     40476     40480     40481     40479     40476     40480     40481
     40483     40482     40486     40487     40484     40482     40486     40487
     40485     40482     40486     40487     40489     40488     40492     40493
     40490     40488     40492     40493     40491     40488     40492     40493
     40495     40494     40498     40499     40496     40494     40498     40499
     40497     40494     40498     40499     40501     40500     40504     40505
     40502     40500     40504     40505     40503     40500     40504     40505
     40507     40506     40510     40511     40508     40506     40510     40511
     40509     40506     40510     40511     40513     40512     40516     40517
     40514     40512     40516     40517     40515     40512     40516     40517
     40519     40518     40522     40523     40520     40518     40522     40523
     40521     40518     40522     40523     40525     40524     40528     40529
     40526     40524     40528     40529     40527     40524     40528     40529
     40531     40530     40534     40535     40532     40530     40534     40535
     40533     40530     40534     40535     40537     40536     40540     40541
     40538     40536     40540     40541     40539     40536     40540     40541
     40543     40542     40546     40547     40544     40542     40546     40547
     40545     40542     40546     40547     40549     40548     40552     40553
     40550     40548     40552     40553     40551     40548     40552     40553
     40555     40554     40558     40559     40556     40554     40558     40559
     40557     40554     40558     40559     40561     40560     40564     40565
     40562     40560     40564     40565     40563     40560     40564     40565
     40567     40566     40570     40571     40568     40566     40570     40571
     40569     40566     40570     40571     40573     40572     40576     40577
     40574     40572     40576     40577     40575     40572     40576     40577
     40579     40578     40582     40583     40580     40578     40582     40583
     40581     40578     40582     40583     40585     40584     40588     40589
     40586     40584     40588     40589     40587     40584     40588     40589
     40591     40590     40594     40595     40592     40590     40594     40595
     40593     40590     40594     40595     40597     40596     40600     40601
     40598     40596     40600     40601     40599     40596     40600     40601
     40603     40602     40606     40607     40604     40602     40606     40607
     40605     40602     40606     40607     40609     40608     40612     40613
     40610     40608     40612     40613     40611     40608     40612     40613
     40615     40614     40618     40619     40616     40614     40618     40619
     40617     40614     40618     40619     40621     40620     40624     40625
     40622     40620     40624     40625     40623     40620     40624     40625
     40627     40626     40630     40631     40628     40626     40630     40631
     40629     40626     40630     40631     40633     40632     40636     40637
     40634     40632     40636     40637     40635     40632     40636     40637
     40639     40638     40642     40643     40640     40638     40642     40643
     40641     40638     40642     40643     40645     40644     40648     40649
     40646     40644     40648     40649     40647     40644     40648     40649
     40651     40650     40654     40655     40652     40650     40654     40655
     40653     40650     40654     40655     40657     40656     40660     40661
     40658     40656     40660     40661     40659     40656     40660     40661
     40663     40662     40666     40667     40664     40662     40666     40667
     40665     40662     40666     40667     40669     40668     40672     40673
     40670     40668     40672     40673     40671     40668     40672     40673
     40675     40674     40678     40679     40676     40674     40678     40679
     40677     40674     40678     40679     40681     40680     40684     40685
     40682     40680     40684     40685     40683     40680     40684     40685
     40687     40686     40690     40691     40688     40686     40690     40691
     40689     40686     40690     40691     40693     40692     40696     40697
     40694     40692     40696     40697     40695     40692     40696     40697
     40699     40698     40702     40703     40700     40698     40702     40703
     40701     40698     40702     40703     40705     40704     40708     40709
     40706     40704     40708     40709     40707     40704     40708     40709
     40711     40710     40714     40715     40712     40710     40714     40715
     40713     40710     40714     40715     40717     40716     40720     40721
     40718     40716     40720     40721     40719     40716     40720     40721
     40723     40722     40726     40727     40724     40722     40726     40727
     40725     40722     40726     40727     40729     40728     40732     40733
     40730     40728     40732     40733     40731     40728     40732     40733
     40735     40734     40738     40739     40736     40734     40738     40739
     40737     40734     40738     40739     40741     40740     40744     40745
     40742     40740     40744     40745     40743     40740     40744     40745
     40747     40746     40750     40751     40748     40746     40750     40751
     40749     40746     40750     40751     40753     40752     40756     40757
     40754     40752     40756     40757     40755     40752     40756     40757
     40759     40758     40762     40763     40760     40758     40762     40763
     40761     40758     40762     40763     40765     40764     40768     40769
     40766     40764     40768     40769     40767     40764     40768     40769
     40771     40770     40774     40775     40772     40770     40774     40775
     40773     40770     40774     40775     40777     40776     40780     40781
     40778     40776     40780     40781     40779     40776     40780     40781
     40783     40782     40786     40787     40784     40782     40786     40787
     40785     40782     40786     40787     40789     40788     40792     40793
     40790     40788     40792     40793     40791     40788     40792     40793
     40795     40794     40798     40799     40796     40794     40798     40799
     40797     40794     40798     40799     40801     40800     40804     40805
     40802     40800     40804     40805     40803     40800     40804     40805
     40807     40806     40810     40811     40808     40806     40810     40811
     40809     40806     40810     40811     40813     40812     40816     40817
     40814     40812     40816     40817     40815     40812     40816     40817
     40819     40818     40822     40823     40820     40818     40822     40823
     40821     40818     40822     40823     40825     40824     40828     40829
     40826     40824     40828     40829     40827     40824     40828     40829
     40831     40830     40834     40835     40832     40830     40834     40835
     40833     40830     40834     40835     40837     40836     40840     40841
     40838     40836     40840     40841     40839     40836     40840     40841
     40843     40842     40846     40847     40844     40842     40846     40847
     40845     40842     40846     40847     40849     40848     40852     40853
     40850     40848     40852     40853     40851     40848     40852     40853
     40855     40854     40858     40859     40856     40854     40858     40859
     40857     40854     40858     40859     40861     40860     40864     40865
     40862     40860     40864     40865     40863     40860     40864     40865
     40867     40866     40870     40871     40868     40866     40870     40871
     40869     40866     40870     40871     40873     40872     40876     40877
     40874     40872     40876     40877     40875     40872     40876     40877
     40879     40878     40882     40883     40880     40878     40882     40883
     40881     40878     40882     40883     40885     40884     40888     40889
     40886     40884     40888     40889     40887     40884     40888     40889
     40891     40890     40894     40895     40892     40890     40894     40895
     40893     40890     40894     40895     40897     40896     40900     40901
     40898     40896     40900     40901     40899     40896     40900     40901
     40903     40902     40906     40907     40904     40902     40906     40907
     40905     40902     40906     40907     40909     40908     40912     40913
     40910     40908     40912     40913     40911     40908     40912     40913
     40915     40914     40918     40919     40916     40914     40918     40919
     40917     40914     40918     40919     40921     40920     40924     40925
     40922     40920     40924     40925     40923     40920     40924     40925
     40927     40926     40930     40931     40928     40926     40930     40931
     40929     40926     40930     40931     40933     40932     40936     40937
     40934     40932     40936     40937     40935     40932     40936     40937
     40939     40938     40942     40943     40940     40938     40942     40943
     40941     40938     40942     40943     40945     40944     40948     40949
     40946     40944     40948     40949     40947     40944     40948     40949
     40951     40950     40954     40955     40952     40950     40954     40955
     40953     40950     40954     40955     40957     40956     40960     40961
     40958     40956     40960     40961     40959     40956     40960     40961
     40963     40962     40966     40967     40964     40962     40966     40967
     40965     40962     40966     40967     40969     40968     40972     40973
     40970     40968     40972     40973     40971     40968     40972     40973
     40975     40974     40978     40979     40976     40974     40978     40979
     40977     40974     40978     40979     40981     40980     40984     40985
     40982     40980     40984     40985     40983     40980     40984     40985
     40987     40986     40990     40991     40988     40986     40990     40991
     40989     40986     40990     40991     40993     40992     40996     40997
     40994     40992     40996     40997     40995     40992     40996     40997
     40999     40998     41002     41003     41000     40998     41002     41003
     41001     40998     41002     41003     41005     41004     41008     41009
     41006     41004     41008     41009     41007     41004     41008     41009
     41011     41010     41014     41015     41012     41010     41014     41015
     41013     41010     41014     41015     41017     41016     41020     41021
     41018     41016     41020     41021     41019     41016     41020     41021
     41023     41022     41026     41027     41024     41022     41026     41027
     41025     41022     41026     41027     41029     41028     41032     41033
     41030     41028     41032     41033     41031     41028     41032     41033
     41035     41034     41038     41039     41036     41034     41038     41039
     41037     41034     41038     41039     41041     41040     41044     41045
     41042     41040     41044     41045     41043     41040     41044     41045
     41047     41046     41050     41051     41048     41046     41050     41051
     41049     41046     41050     41051     41053     41052     41056     41057
     41054     41052     41056     41057     41055     41052     41056     41057
     41059     41058     41062     41063     41060     41058     41062     41063
     41061     41058     41062     41063     41065     41064     41068     41069
     41066     41064     41068     41069     41067     41064     41068     41069
     41071     41070     41074     41075     41072     41070     41074     41075
     41073     41070     41074     41075     41077     41076     41080     41081
     41078     41076     41080     41081     41079     41076     41080     41081
     41083     41082     41086     41087     41084     41082     41086     41087
     41085     41082     41086     41087     41089     41088     41092     41093
     41090     41088     41092     41093     41091     41088     41092     41093
     41095     41094     41098     41099     41096     41094     41098     41099
     41097     41094     41098     41099     41101     41100     41104     41105
     41102     41100     41104     41105     41103     41100     41104     41105
     41107     41106     41110     41111     41108     41106     41110     41111
     41109     41106     41110     41111     41113     41112     41116     41117
     41114     41112     41116     41117     41115     41112     41116     41117
     41119     41118     41122     41123     41120     41118     41122     41123
     41121     41118     41122     41123     41125     41124     41128     41129
     41126     41124     41128     41129     41127     41124     41128     41129
     41131     41130     41134     41135     41132     41130     41134     41135
     41133     41130     41134     41135     41137     41136     41140     41141
     41138     41136     41140     41141     41139     41136     41140     41141
     41143     41142     41146     41147     41144     41142     41146     41147
     41145     41142     41146     41147     41149     41148     41152     41153
     41150     41148     41152     41153     41151     41148     41152     41153
     41155     41154     41158     41159     41156     41154     41158     41159
     41157     41154     41158     41159     41161     41160     41164     41165
     41162     41160     41164     41165     41163     41160     41164     41165
     41167     41166     41170     41171     41168     41166     41170     41171
     41169     41166     41170     41171     41173     41172     41176     41177
     41174     41172     41176     41177     41175     41172     41176     41177
     41179     41178     41182     41183     41180     41178     41182     41183
     41181     41178     41182     41183     41185     41184     41188     41189
     41186     41184     41188     41189     41187     41184     41188     41189
     41191     41190     41194     41195     41192     41190     41194     41195
     41193     41190     41194     41195     41197     41196     41200     41201
     41198     41196     41200     41201     41199     41196     41200     41201
     41203     41202     41206     41207     41204     41202     41206     41207
     41205     41202     41206     41207     41209     41208     41212     41213
     41210     41208     41212     41213     41211     41208     41212     41213
     41215     41214     41218     41219     41216     41214     41218     41219
     41217     41214     41218     41219     41221     41220     41224     41225
     41222     41220     41224     41225     41223     41220     41224     41225
     41227     41226     41230     41231     41228     41226     41230     41231
     41229     41226     41230     41231     41233     41232     41236     41237
     41234     41232     41236     41237     41235     41232     41236     41237
     41239     41238     41242     41243     41240     41238     41242     41243
     41241     41238     41242     41243     41245     41244     41248     41249
     41246     41244     41248     41249     41247     41244     41248     41249
     41251     41250     41254     41255     41252     41250     41254     41255
     41253     41250     41254     41255     41257     41256     41260     41261
     41258     41256     41260     41261     41259     41256     41260     41261
     41263     41262     41266     41267     41264     41262     41266     41267
     41265     41262     41266     41267     41269     41268     41272     41273
     41270     41268     41272     41273     41271     41268     41272     41273
     41275     41274     41278     41279     41276     41274     41278     41279
     41277     41274     41278     41279     41281     41280     41284     41285
     41282     41280     41284     41285     41283     41280     41284     41285
     41287     41286     41290     41291     41288     41286     41290     41291
     41289     41286     41290     41291     41293     41292     41296     41297
     41294     41292     41296     41297     41295     41292     41296     41297
     41299     41298     41302     41303     41300     41298     41302     41303
     41301     41298     41302     41303     41305     41304     41308     41309
     41306     41304     41308     41309     41307     41304     41308     41309
     41311     41310     41314     41315     41312     41310     41314     41315
     41313     41310     41314     41315     41317     41316     41320     41321
     41318     41316     41320     41321     41319     41316     41320     41321
     41323     41322     41326     41327     41324     41322     41326     41327
     41325     41322     41326     41327     41329     41328     41332     41333
     41330     41328     41332     41333     41331     41328     41332     41333
     41335     41334     41338     41339     41336     41334     41338     41339
     41337     41334     41338     41339     41341     41340     41344     41345
     41342     41340     41344     41345     41343     41340     41344     41345
     41347     41346     41350     41351     41348     41346     41350     41351
     41349     41346     41350     41351     41353     41352     41356     41357
     41354     41352     41356     41357     41355     41352     41356     41357
     41359     41358     41362     41363     41360     41358     41362     41363
     41361     41358     41362     41363     41365     41364     41368     41369
     41366     41364     41368     41369     41367     41364     41368     41369
     41371     41370     41374     41375     41372     41370     41374     41375
     41373     41370     41374     41375     41377     41376     41380     41381
     41378     41376     41380     41381     41379     41376     41380     41381
     41383     41382     41386     41387     41384     41382     41386     41387
     41385     41382     41386     41387     41389     41388     41392     41393
     41390     41388     41392     41393     41391     41388     41392     41393
     41395     41394     41398     41399     41396     41394     41398     41399
     41397     41394     41398     41399     41401     41400     41404     41405
     41402     41400     41404     41405     41403     41400     41404     41405
     41407     41406     41410     41411     41408     41406     41410     41411
     41409     41406     41410     41411     41413     41412     41416     41417
     41414     41412     41416     41417     41415     41412     41416     41417
     41419     41418     41422     41423     41420     41418     41422     41423
     41421     41418     41422     41423     41425     41424     41428     41429
     41426     41424     41428     41429     41427     41424     41428     41429
     41431     41430     41434     41435     41432     41430     41434     41435
     41433     41430     41434     41435     41437     41436     41440     41441
     41438     41436     41440     41441     41439     41436     41440     41441
     41443     41442     41446     41447     41444     41442     41446     41447
     41445     41442     41446     41447     41449     41448     41452     41453
     41450     41448     41452     41453     41451     41448     41452     41453
     41455     41454     41458     41459     41456     41454     41458     41459
     41457     41454     41458     41459     41461     41460     41464     41465
     41462     41460     41464     41465     41463     41460     41464     41465
     41467     41466     41470     41471     41468     41466     41470     41471
     41469     41466     41470     41471     41473     41472     41476     41477
     41474     41472     41476     41477     41475     41472     41476     41477
     41479     41478     41482     41483     41480     41478     41482     41483
     41481     41478     41482     41483     41485     41484     41488     41489
     41486     41484     41488     41489     41487     41484     41488     41489
     41491     41490     41494     41495     41492     41490     41494     41495
     41493     41490     41494     41495     41497     41496     41500     41501
     41498     41496     41500     41501     41499     41496     41500     41501
     41503     41502     41506     41507     41504     41502     41506     41507
     41505     41502     41506     41507     41509     41508     41512     41513
     41510     41508     41512     41513     41511     41508     41512     41513
     41515     41514     41518     41519     41516     41514     41518     41519
     41517     41514     41518     41519     41521     41520     41524     41525
     41522     41520     41524     41525     41523     41520     41524     41525
     41527     41526     41530     41531     41528     41526     41530     41531
     41529     41526     41530     41531     41533     41532     41536     41537
     41534     41532     41536     41537     41535     41532     41536     41537
     41539     41538     41542     41543     41540     41538     41542     41543
     41541     41538     41542     41543     41545     41544     41548     41549
     41546     41544     41548     41549     41547     41544     41548     41549
     41551     41550     41554     41555     41552     41550     41554     41555
     41553     41550     41554     41555     41557     41556     41560     41561
     41558     41556     41560     41561     41559     41556     41560     41561
     41563     41562     41566     41567     41564     41562     41566     41567
     41565     41562     41566     41567     41569     41568     41572     41573
     41570     41568     41572     41573     41571     41568     41572     41573
     41575     41574     41578     41579     41576     41574     41578     41579
     41577     41574     41578     41579     41581     41580     41584     41585
     41582     41580     41584     41585     41583     41580     41584     41585
     41587     41586     41590     41591     41588     41586     41590     41591
     41589     41586     41590     41591     41593     41592     41596     41597
     41594     41592     41596     41597     41595     41592     41596     41597
     41599     41598     41602     41603     41600     41598     41602     41603
     41601     41598     41602     41603     41605     41604     41608     41609
     41606     41604     41608     41609     41607     41604     41608     41609
     41611     41610     41614     41615     41612     41610     41614     41615
     41613     41610     41614     41615     41617     41616     41620     41621
     41618     41616     41620     41621     41619     41616     41620     41621
     41623     41622     41626     41627     41624     41622     41626     41627
     41625     41622     41626     41627     41629     41628     41632     41633
     41630     41628     41632     41633     41631     41628     41632     41633
     41635     41634     41638     41639     41636     41634     41638     41639
     41637     41634     41638     41639     41641     41640     41644     41645
     41642     41640     41644     41645     41643     41640     41644     41645
     41647     41646     41650     41651     41648     41646     41650     41651
     41649     41646     41650     41651     41653     41652     41656     41657
     41654     41652     41656     41657     41655     41652     41656     41657
     41659     41658     41662     41663     41660     41658     41662     41663
     41661     41658     41662     41663     41665     41664     41668     41669
     41666     41664     41668     41669     41667     41664     41668     41669
     41671     41670     41674     41675     41672     41670     41674     41675
     41673     41670     41674     41675     41677     41676     41680     41681
     41678     41676     41680     41681     41679     41676     41680     41681
     41683     41682     41686     41687     41684     41682     41686     41687
     41685     41682     41686     41687     41689     41688     41692     41693
     41690     41688     41692     41693     41691     41688     41692     41693
     41695     41694     41698     41699     41696     41694     41698     41699
     41697     41694     41698     41699     41701     41700     41704     41705
     41702     41700     41704     41705     41703     41700     41704     41705
     41707     41706     41710     41711     41708     41706     41710     41711
     41709     41706     41710     41711     41713     41712     41716     41717
     41714     41712     41716     41717     41715     41712     41716     41717
     41719     41718     41722     41723     41720     41718     41722     41723
     41721     41718     41722     41723     41725     41724     41728     41729
     41726     41724     41728     41729     41727     41724     41728     41729
     41731     41730     41734     41735     41732     41730     41734     41735
     41733     41730     41734     41735     41737     41736     41740     41741
     41738     41736     41740     41741     41739     41736     41740     41741
     41743     41742     41746     41747     41744     41742     41746     41747
     41745     41742     41746     41747     41749     41748     41752     41753
     41750     41748     41752     41753     41751     41748     41752     41753
     41755     41754     41758     41759     41756     41754     41758     41759
     41757     41754     41758     41759     41761     41760     41764     41765
     41762     41760     41764     41765     41763     41760     41764     41765
     41767     41766     41770     41771     41768     41766     41770     41771
     41769     41766     41770     41771     41773     41772     41776     41777
     41774     41772     41776     41777     41775     41772     41776     41777
     41779     41778     41782     41783     41780     41778     41782     41783
     41781     41778     41782     41783     41785     41784     41788     41789
     41786     41784     41788     41789     41787     41784     41788     41789
     41791     41790     41794     41795     41792     41790     41794     41795
     41793     41790     41794     41795     41797     41796     41800     41801
     41798     41796     41800     41801     41799     41796     41800     41801
     41803     41802     41806     41807     41804     41802     41806     41807
     41805     41802     41806     41807     41809     41808     41812     41813
     41810     41808     41812     41813     41811     41808     41812     41813
     41815     41814     41818     41819     41816     41814     41818     41819
     41817     41814     41818     41819     41821     41820     41824     41825
     41822     41820     41824     41825     41823     41820     41824     41825
     41827     41826     41830     41831     41828     41826     41830     41831
     41829     41826     41830     41831     41833     41832     41836     41837
     41834     41832     41836     41837     41835     41832     41836     41837
     41839     41838     41842     41843     41840     41838     41842     41843
     41841     41838     41842     41843     41845     41844     41848     41849
     41846     41844     41848     41849     41847     41844     41848     41849
     41851     41850     41854     41855     41852     41850     41854     41855
     41853     41850     41854     41855     41857     41856     41860     41861
     41858     41856     41860     41861     41859     41856     41860     41861
     41863     41862     41866     41867     41864     41862     41866     41867
     41865     41862     41866     41867     41869     41868     41872     41873
     41870     41868     41872     41873     41871     41868     41872     41873
     41875     41874     41878     41879     41876     41874     41878     41879
     41877     41874     41878     41879     41881     41880     41884     41885
     41882     41880     41884     41885     41883     41880     41884     41885
     41887     41886     41890     41891     41888     41886     41890     41891
     41889     41886     41890     41891     41893     41892     41896     41897
     41894     41892     41896     41897     41895     41892     41896     41897
     41899     41898     41902     41903     41900     41898     41902     41903
     41901     41898     41902     41903     41905     41904     41908     41909
     41906     41904     41908     41909     41907     41904     41908     41909
     41911     41910     41914     41915     41912     41910     41914     41915
     41913     41910     41914     41915     41917     41916     41920     41921
     41918     41916     41920     41921     41919     41916     41920     41921
     41923     41922     41926     41927     41924     41922     41926     41927
     41925     41922     41926     41927     41929     41928     41932     41933
     41930     41928     41932     41933     41931     41928     41932     41933
     41935     41934     41938     41939     41936     41934     41938     41939
     41937     41934     41938     41939     41941     41940     41944     41945
     41942     41940     41944     41945     41943     41940     41944     41945
     41947     41946     41950     41951     41948     41946     41950     41951
     41949     41946     41950     41951     41953     41952     41956     41957
     41954     41952     41956     41957     41955     41952     41956     41957
     41959     41958     41962     41963     41960     41958     41962     41963
     41961     41958     41962     41963     41965     41964     41968     41969
     41966     41964     41968     41969     41967     41964     41968     41969
     41971     41970     41974     41975     41972     41970     41974     41975
     41973     41970     41974     41975     41977     41976     41980     41981
     41978     41976     41980     41981     41979     41976     41980     41981
     41983     41982     41986     41987     41984     41982     41986     41987
     41985     41982     41986     41987     41989     41988     41992     41993
     41990     41988     41992     41993     41991     41988     41992     41993
     41995     41994     41998     41999     41996     41994     41998     41999
     41997     41994     41998     41999     42001     42000     42004     42005
     42002     42000     42004     42005     42003     42000     42004     42005
     42007     42006     42010     42011     42008     42006     42010     42011
     42009     42006     42010     42011     42013     42012     42016     42017
     42014     42012     42016     42017     42015     42012     42016     42017
     42019     42018     42022     42023     42020     42018     42022     42023
     42021     42018     42022     42023     42025     42024     42028     42029
     42026     42024     42028     42029     42027     42024     42028     42029
     42031     42030     42034     42035     42032     42030     42034     42035
     42033     42030     42034     42035     42037     42036     42040     42041
     42038     42036     42040     42041     42039     42036     42040     42041
     42043     42042     42046     42047     42044     42042     42046     42047
     42045     42042     42046     42047     42049     42048     42052     42053
     42050     42048     42052     42053     42051     42048     42052     42053
     42055     42054     42058     42059     42056     42054     42058     42059
     42057     42054     42058     42059     42061     42060     42064     42065
     42062     42060     42064     42065     42063     42060     42064     42065
     42067     42066     42070     42071     42068     42066     42070     42071
     42069     42066     42070     42071     42073     42072     42076     42077
     42074     42072     42076     42077     42075     42072     42076     42077
     42079     42078     42082     42083     42080     42078     42082     42083
     42081     42078     42082     42083     42085     42084     42088     42089
     42086     42084     42088     42089     42087     42084     42088     42089
     42091     42090     42094     42095     42092     42090     42094     42095
     42093     42090     42094     42095     42097     42096     42100     42101
     42098     42096     42100     42101     42099     42096     42100     42101
     42103     42102     42106     42107     42104     42102     42106     42107
     42105     42102     42106     42107     42109     42108     42112     42113
     42110     42108     42112     42113     42111     42108     42112     42113
     42115     42114     42118     42119     42116     42114     42118     42119
     42117     42114     42118     42119     42121     42120     42124     42125
     42122     42120     42124     42125     42123     42120     42124     42125
     42127     42126     42130     42131     42128     42126     42130     42131
     42129     42126     42130     42131     42133     42132     42136     42137
     42134     42132     42136     42137     42135     42132     42136     42137
     42139     42138     42142     42143     42140     42138     42142     42143
     42141     42138     42142     42143     42145     42144     42148     42149
     42146     42144     42148     42149     42147     42144     42148     42149
     42151     42150     42154     42155     42152     42150     42154     42155
     42153     42150     42154     42155     42157     42156     42160     42161
     42158     42156     42160     42161     42159     42156     42160     42161
     42163     42162     42166     42167     42164     42162     42166     42167
     42165     42162     42166     42167     42169     42168     42172     42173
     42170     42168     42172     42173     42171     42168     42172     42173
     42175     42174     42178     42179     42176     42174     42178     42179
     42177     42174     42178     42179     42181     42180     42184     42185
     42182     42180     42184     42185     42183     42180     42184     42185
     42187     42186     42190     42191     42188     42186     42190     42191
     42189     42186     42190     42191     42193     42192     42196     42197
     42194     42192     42196     42197     42195     42192     42196     42197
     42199     42198     42202     42203     42200     42198     42202     42203
     42201     42198     42202     42203     42205     42204     42208     42209
     42206     42204     42208     42209     42207     42204     42208     42209
     42211     42210     42214     42215     42212     42210     42214     42215
     42213     42210     42214     42215     42217     42216     42220     42221
     42218     42216     42220     42221     42219     42216     42220     42221
     42223     42222     42226     42227     42224     42222     42226     42227
     42225     42222     42226     42227     42229     42228     42232     42233
     42230     42228     42232     42233     42231     42228     42232     42233
     42235     42234     42238     42239     42236     42234     42238     42239
     42237     42234     42238     42239     42241     42240     42244     42245
     42242     42240     42244     42245     42243     42240     42244     42245
     42247     42246     42250     42251     42248     42246     42250     42251
     42249     42246     42250     42251     42253     42252     42256     42257
     42254     42252     42256     42257     42255     42252     42256     42257
     42259     42258     42262     42263     42260     42258     42262     42263
     42261     42258     42262     42263     42265     42264     42268     42269
     42266     42264     42268     42269     42267     42264     42268     42269
     42271     42270     42274     42275     42272     42270     42274     42275
     42273     42270     42274     42275     42277     42276     42280     42281
     42278     42276     42280     42281     42279     42276     42280     42281
     42283     42282     42286     42287     42284     42282     42286     42287
     42285     42282     42286     42287     42289     42288     42292     42293
     42290     42288     42292     42293     42291     42288     42292     42293
     42295     42294     42298     42299     42296     42294     42298     42299
     42297     42294     42298     42299     42301     42300     42304     42305
     42302     42300     42304     42305     42303     42300     42304     42305
     42307     42306     42310     42311     42308     42306     42310     42311
     42309     42306     42310     42311     42313     42312     42316     42317
     42314     42312     42316     42317     42315     42312     42316     42317
     42319     42318     42322     42323     42320     42318     42322     42323
     42321     42318     42322     42323     42325     42324     42328     42329
     42326     42324     42328     42329     42327     42324     42328     42329
     42331     42330     42334     42335     42332     42330     42334     42335
     42333     42330     42334     42335     42337     42336     42340     42341
     42338     42336     42340     42341     42339     42336     42340     42341
     42343     42342     42346     42347     42344     42342     42346     42347
     42345     42342     42346     42347     42349     42348     42352     42353
     42350     42348     42352     42353     42351     42348     42352     42353
     42355     42354     42358     42359     42356     42354     42358     42359
     42357     42354     42358     42359     42361     42360     42364     42365
     42362     42360     42364     42365     42363     42360     42364     42365
     42367     42366     42370     42371     42368     42366     42370     42371
     42369     42366     42370     42371     42373     42372     42376     42377
     42374     42372     42376     42377     42375     42372     42376     42377
     42379     42378     42382     42383     42380     42378     42382     42383
     42381     42378     42382     42383     42385     42384     42388     42389
     42386     42384     42388     42389     42387     42384     42388     42389
     42391     42390     42394     42395     42392     42390     42394     42395
     42393     42390     42394     42395     42397     42396     42400     42401
     42398     42396     42400     42401     42399     42396     42400     42401
     42403     42402     42406     42407     42404     42402     42406     42407
     42405     42402     42406     42407     42409     42408     42412     42413
     42410     42408     42412     42413     42411     42408     42412     42413
     42415     42414     42418     42419     42416     42414     42418     42419
     42417     42414     42418     42419     42421     42420     42424     42425
     42422     42420     42424     42425     42423     42420     42424     42425
     42427     42426     42430     42431     42428     42426     42430     42431
     42429     42426     42430     42431     42433     42432     42436     42437
     42434     42432     42436     42437     42435     42432     42436     42437
     42439     42438     42442     42443     42440     42438     42442     42443
     42441     42438     42442     42443     42445     42444     42448     42449
     42446     42444     42448     42449     42447     42444     42448     42449
     42451     42450     42454     42455     42452     42450     42454     42455
     42453     42450     42454     42455     42457     42456     42460     42461
     42458     42456     42460     42461     42459     42456     42460     42461
     42463     42462     42466     42467     42464     42462     42466     42467
     42465     42462     42466     42467     42469     42468     42472     42473
     42470     42468     42472     42473     42471     42468     42472     42473
     42475     42474     42478     42479     42476     42474     42478     42479
     42477     42474     42478     42479     42481     42480     42484     42485
     42482     42480     42484     42485     42483     42480     42484     42485
     42487     42486     42490     42491     42488     42486     42490     42491
     42489     42486     42490     42491     42493     42492     42496     42497
     42494     42492     42496     42497     42495     42492     42496     42497
     42499     42498     42502     42503     42500     42498     42502     42503
     42501     42498     42502     42503     42505     42504     42508     42509
     42506     42504     42508     42509     42507     42504     42508     42509
     42511     42510     42514     42515     42512     42510     42514     42515
     42513     42510     42514     42515     42517     42516     42520     42521
     42518     42516     42520     42521     42519     42516     42520     42521
     42523     42522     42526     42527     42524     42522     42526     42527
     42525     42522     42526     42527     42529     42528     42532     42533
     42530     42528     42532     42533     42531     42528     42532     42533
     42535     42534     42538     42539     42536     42534     42538     42539
     42537     42534     42538     42539     42541     42540     42544     42545
     42542     42540     42544     42545     42543     42540     42544     42545
     42547     42546     42550     42551     42548     42546     42550     42551
     42549     42546     42550     42551     42553     42552     42556     42557
     42554     42552     42556     42557     42555     42552     42556     42557
     42559     42558     42562     42563     42560     42558     42562     42563
     42561     42558     42562     42563     42565     42564     42568     42569
     42566     42564     42568     42569     42567     42564     42568     42569
     42571     42570     42574     42575     42572     42570     42574     42575
     42573     42570     42574     42575     42577     42576     42580     42581
     42578     42576     42580     42581     42579     42576     42580     42581
     42583     42582     42586     42587     42584     42582     42586     42587
     42585     42582     42586     42587     42589     42588     42592     42593
     42590     42588     42592     42593     42591     42588     42592     42593
     42595     42594     42598     42599     42596     42594     42598     42599
     42597     42594     42598     42599     42601     42600     42604     42605
     42602     42600     42604     42605     42603     42600     42604     42605
     42607     42606     42610     42611     42608     42606     42610     42611
     42609     42606     42610     42611     42613     42612     42616     42617
     42614     42612     42616     42617     42615     42612     42616     42617
     42619     42618     42622     42623     42620     42618     42622     42623
     42621     42618     42622     42623     42625     42624     42628     42629
     42626     42624     42628     42629     42627     42624     42628     42629
     42631     42630     42634     42635     42632     42630     42634     42635
     42633     42630     42634     42635     42637     42636     42640     42641
     42638     42636     42640     42641     42639     42636     42640     42641
     42643     42642     42646     42647     42644     42642     42646     42647
     42645     42642     42646     42647     42649     42648     42652     42653
     42650     42648     42652     42653     42651     42648     42652     42653
     42655     42654     42658     42659     42656     42654     42658     42659
     42657     42654     42658     42659     42661     42660     42664     42665
     42662     42660     42664     42665     42663     42660     42664     42665
     42667     42666     42670     42671     42668     42666     42670     42671
     42669     42666     42670     42671     42673     42672     42676     42677
     42674     42672     42676     42677     42675     42672     42676     42677
     42679     42678     42682     42683     42680     42678     42682     42683
     42681     42678     42682     42683     42685     42684     42688     42689
     42686     42684     42688     42689     42687     42684     42688     42689
     42691     42690     42694     42695     42692     42690     42694     42695
     42693     42690     42694     42695     42697     42696     42700     42701
     42698     42696     42700     42701     42699     42696     42700     42701
     42703     42702     42706     42707     42704     42702     42706     42707
     42705     42702     42706     42707     42709     42708     42712     42713
     42710     42708     42712     42713     42711     42708     42712     42713
     42715     42714     42718     42719     42716     42714     42718     42719
     42717     42714     42718     42719     42721     42720     42724     42725
     42722     42720     42724     42725     42723     42720     42724     42725
     42727     42726     42730     42731     42728     42726     42730     42731
     42729     42726     42730     42731     42733     42732     42736     42737
     42734     42732     42736     42737     42735     42732     42736     42737
     42739     42738     42742     42743     42740     42738     42742     42743
     42741     42738     42742     42743     42745     42744     42748     42749
     42746     42744     42748     42749     42747     42744     42748     42749
     42751     42750     42754     42755     42752     42750     42754     42755
     42753     42750     42754     42755     42757     42756     42760     42761
     42758     42756     42760     42761     42759     42756     42760     42761
     42763     42762     42766     42767     42764     42762     42766     42767
     42765     42762     42766     42767     42769     42768     42772     42773
     42770     42768     42772     42773     42771     42768     42772     42773
     42775     42774     42778     42779     42776     42774     42778     42779
     42777     42774     42778     42779     42781     42780     42784     42785
     42782     42780     42784     42785     42783     42780     42784     42785
     42787     42786     42790     42791     42788     42786     42790     42791
     42789     42786     42790     42791     42793     42792     42796     42797
     42794     42792     42796     42797     42795     42792     42796     42797
     42799     42798     42802     42803     42800     42798     42802     42803
     42801     42798     42802     42803     42805     42804     42808     42809
     42806     42804     42808     42809     42807     42804     42808     42809
     42811     42810     42814     42815     42812     42810     42814     42815
     42813     42810     42814     42815     42817     42816     42820     42821
     42818     42816     42820     42821     42819     42816     42820     42821
     42823     42822     42826     42827     42824     42822     42826     42827
     42825     42822     42826     42827     42829     42828     42832     42833
     42830     42828     42832     42833     42831     42828     42832     42833
     42835     42834     42838     42839     42836     42834     42838     42839
     42837     42834     42838     42839     42841     42840     42844     42845
     42842     42840     42844     42845     42843     42840     42844     42845
     42847     42846     42850     42851     42848     42846     42850     42851
     42849     42846     42850     42851     42853     42852     42856     42857
     42854     42852     42856     42857     42855     42852     42856     42857
     42859     42858     42862     42863     42860     42858     42862     42863
     42861     42858     42862     42863     42865     42864     42868     42869
     42866     42864     42868     42869     42867     42864     42868     42869
     42871     42870     42874     42875     42872     42870     42874     42875
     42873     42870     42874     42875     42877     42876     42880     42881
     42878     42876     42880     42881     42879     42876     42880     42881
     42883     42882     42886     42887     42884     42882     42886     42887
     42885     42882     42886     42887     42889     42888     42892     42893
     42890     42888     42892     42893     42891     42888     42892     42893
     42895     42894     42898     42899     42896     42894     42898     42899
     42897     42894     42898     42899     42901     42900     42904     42905
     42902     42900     42904     42905     42903     42900     42904     42905
     42907     42906     42910     42911     42908     42906     42910     42911
     42909     42906     42910     42911     42913     42912     42916     42917
     42914     42912     42916     42917     42915     42912     42916     42917
     42919     42918     42922     42923     42920     42918     42922     42923
     42921     42918     42922     42923     42925     42924     42928     42929
     42926     42924     42928     42929     42927     42924     42928     42929
     42931     42930     42934     42935     42932     42930     42934     42935
     42933     42930     42934     42935     42937     42936     42940     42941
     42938     42936     42940     42941     42939     42936     42940     42941
     42943     42942     42946     42947     42944     42942     42946     42947
     42945     42942     42946     42947     42949     42948     42952     42953
     42950     42948     42952     42953     42951     42948     42952     42953
     42955     42954     42958     42959     42956     42954     42958     42959
     42957     42954     42958     42959     42961     42960     42964     42965
     42962     42960     42964     42965     42963     42960     42964     42965
     42967     42966     42970     42971     42968     42966     42970     42971
     42969     42966     42970     42971     42973     42972     42976     42977
     42974     42972     42976     42977     42975     42972     42976     42977
     42979     42978     42982     42983     42980     42978     42982     42983
     42981     42978     42982     42983     42985     42984     42988     42989
     42986     42984     42988     42989     42987     42984     42988     42989
     42991     42990     42994     42995     42992     42990     42994     42995
     42993     42990     42994     42995     42997     42996     43000     43001
     42998     42996     43000     43001     42999     42996     43000     43001
     43003     43002     43006     43007     43004     43002     43006     43007
     43005     43002     43006     43007     43009     43008     43012     43013
     43010     43008     43012     43013     43011     43008     43012     43013
     43015     43014     43018     43019     43016     43014     43018     43019
     43017     43014     43018     43019     43021     43020     43024     43025
     43022     43020     43024     43025     43023     43020     43024     43025
     43027     43026     43030     43031     43028     43026     43030     43031
     43029     43026     43030     43031     43033     43032     43036     43037
     43034     43032     43036     43037     43035     43032     43036     43037
     43039     43038     43042     43043     43040     43038     43042     43043
     43041     43038     43042     43043     43045     43044     43048     43049
     43046     43044     43048     43049     43047     43044     43048     43049
     43051     43050     43054     43055     43052     43050     43054     43055
     43053     43050     43054     43055     43057     43056     43060     43061
     43058     43056     43060     43061     43059     43056     43060     43061
     43063     43062     43066     43067     43064     43062     43066     43067
     43065     43062     43066     43067     43069     43068     43072     43073
     43070     43068     43072     43073     43071     43068     43072     43073
     43075     43074     43078     43079     43076     43074     43078     43079
     43077     43074     43078     43079     43081     43080     43084     43085
     43082     43080     43084     43085     43083     43080     43084     43085
     43087     43086     43090     43091     43088     43086     43090     43091
     43089     43086     43090     43091     43093     43092     43096     43097
     43094     43092     43096     43097     43095     43092     43096     43097
     43099     43098     43102     43103     43100     43098     43102     43103
     43101     43098     43102     43103     43105     43104     43108     43109
     43106     43104     43108     43109     43107     43104     43108     43109
     43111     43110     43114     43115     43112     43110     43114     43115
     43113     43110     43114     43115     43117     43116     43120     43121
     43118     43116     43120     43121     43119     43116     43120     43121
     43123     43122     43126     43127     43124     43122     43126     43127
     43125     43122     43126     43127     43129     43128     43132     43133
     43130     43128     43132     43133     43131     43128     43132     43133
     43135     43134     43138     43139     43136     43134     43138     43139
     43137     43134     43138     43139     43141     43140     43144     43145
     43142     43140     43144     43145     43143     43140     43144     43145
     43147     43146     43150     43151     43148     43146     43150     43151
     43149     43146     43150     43151     43153     43152     43156     43157
     43154     43152     43156     43157     43155     43152     43156     43157
     43159     43158     43162     43163     43160     43158     43162     43163
     43161     43158     43162     43163     43165     43164     43168     43169
     43166     43164     43168     43169     43167     43164     43168     43169
     43171     43170     43174     43175     43172     43170     43174     43175
     43173     43170     43174     43175     43177     43176     43180     43181
     43178     43176     43180     43181     43179     43176     43180     43181
     43183     43182     43186     43187     43184     43182     43186     43187
     43185     43182     43186     43187     43189     43188     43192     43193
     43190     43188     43192     43193     43191     43188     43192     43193
     43195     43194     43198     43199     43196     43194     43198     43199
     43197     43194     43198     43199     43201     43200     43204     43205
     43202     43200     43204     43205     43203     43200     43204     43205
     43207     43206     43210     43211     43208     43206     43210     43211
     43209     43206     43210     43211     43213     43212     43216     43217
     43214     43212     43216     43217     43215     43212     43216     43217
     43219     43218     43222     43223     43220     43218     43222     43223
     43221     43218     43222     43223     43225     43224     43228     43229
     43226     43224     43228     43229     43227     43224     43228     43229
     43231     43230     43234     43235     43232     43230     43234     43235
     43233     43230     43234     43235     43237     43236     43240     43241
     43238     43236     43240     43241     43239     43236     43240     43241
     43243     43242     43246     43247     43244     43242     43246     43247
     43245     43242     43246     43247     43249     43248     43252     43253
     43250     43248     43252     43253     43251     43248     43252     43253
     43255     43254     43258     43259     43256     43254     43258     43259
     43257     43254     43258     43259     43261     43260     43264     43265
     43262     43260     43264     43265     43263     43260     43264     43265
     43267     43266     43270     43271     43268     43266     43270     43271
     43269     43266     43270     43271     43273     43272     43276     43277
     43274     43272     43276     43277     43275     43272     43276     43277
     43279     43278     43282     43283     43280     43278     43282     43283
     43281     43278     43282     43283     43285     43284     43288     43289
     43286     43284     43288     43289     43287     43284     43288     43289
     43291     43290     43294     43295     43292     43290     43294     43295
     43293     43290     43294     43295     43297     43296     43300     43301
     43298     43296     43300     43301     43299     43296     43300     43301
     43303     43302     43306     43307     43304     43302     43306     43307
     43305     43302     43306     43307     43309     43308     43312     43313
     43310     43308     43312     43313     43311     43308     43312     43313
     43315     43314     43318     43319     43316     43314     43318     43319
     43317     43314     43318     43319     43321     43320     43324     43325
     43322     43320     43324     43325     43323     43320     43324     43325
     43327     43326     43330     43331     43328     43326     43330     43331
     43329     43326     43330     43331     43333     43332     43336     43337
     43334     43332     43336     43337     43335     43332     43336     43337
     43339     43338     43342     43343     43340     43338     43342     43343
     43341     43338     43342     43343     43345     43344     43348     43349
     43346     43344     43348     43349     43347     43344     43348     43349
     43351     43350     43354     43355     43352     43350     43354     43355
     43353     43350     43354     43355     43357     43356     43360     43361
     43358     43356     43360     43361     43359     43356     43360     43361
     43363     43362     43366     43367     43364     43362     43366     43367
     43365     43362     43366     43367     43369     43368     43372     43373
     43370     43368     43372     43373     43371     43368     43372     43373
     43375     43374     43378     43379     43376     43374     43378     43379
     43377     43374     43378     43379     43381     43380     43384     43385
     43382     43380     43384     43385     43383     43380     43384     43385
     43387     43386     43390     43391     43388     43386     43390     43391
     43389     43386     43390     43391     43393     43392     43396     43397
     43394     43392     43396     43397     43395     43392     43396     43397
     43399     43398     43402     43403     43400     43398     43402     43403
     43401     43398     43402     43403     43405     43404     43408     43409
     43406     43404     43408     43409     43407     43404     43408     43409
     43411     43410     43414     43415     43412     43410     43414     43415
     43413     43410     43414     43415     43417     43416     43420     43421
     43418     43416     43420     43421     43419     43416     43420     43421
     43423     43422     43426     43427     43424     43422     43426     43427
     43425     43422     43426     43427     43429     43428     43432     43433
     43430     43428     43432     43433     43431     43428     43432     43433
     43435     43434     43438     43439     43436     43434     43438     43439
     43437     43434     43438     43439     43441     43440     43444     43445
     43442     43440     43444     43445     43443     43440     43444     43445
     43447     43446     43450     43451     43448     43446     43450     43451
     43449     43446     43450     43451     43453     43452     43456     43457
     43454     43452     43456     43457     43455     43452     43456     43457
     43459     43458     43462     43463     43460     43458     43462     43463
     43461     43458     43462     43463     43465     43464     43468     43469
     43466     43464     43468     43469     43467     43464     43468     43469
     43471     43470     43474     43475     43472     43470     43474     43475
     43473     43470     43474     43475     43477     43476     43480     43481
     43478     43476     43480     43481     43479     43476     43480     43481
     43483     43482     43486     43487     43484     43482     43486     43487
     43485     43482     43486     43487     43489     43488     43492     43493
     43490     43488     43492     43493     43491     43488     43492     43493
     43495     43494     43498     43499     43496     43494     43498     43499
     43497     43494     43498     43499     43501     43500     43504     43505
     43502     43500     43504     43505     43503     43500     43504     43505
     43507     43506     43510     43511     43508     43506     43510     43511
     43509     43506     43510     43511     43513     43512     43516     43517
     43514     43512     43516     43517     43515     43512     43516     43517
     43519     43518     43522     43523     43520     43518     43522     43523
     43521     43518     43522     43523     43525     43524     43528     43529
     43526     43524     43528     43529     43527     43524     43528     43529
     43531     43530     43534     43535     43532     43530     43534     43535
     43533     43530     43534     43535     43537     43536     43540     43541
     43538     43536     43540     43541     43539     43536     43540     43541
     43543     43542     43546     43547     43544     43542     43546     43547
     43545     43542     43546     43547     43549     43548     43552     43553
     43550     43548     43552     43553     43551     43548     43552     43553
     43555     43554     43558     43559     43556     43554     43558     43559
     43557     43554     43558     43559     43561     43560     43564     43565
     43562     43560     43564     43565     43563     43560     43564     43565
     43567     43566     43570     43571     43568     43566     43570     43571
     43569     43566     43570     43571     43573     43572     43576     43577
     43574     43572     43576     43577     43575     43572     43576     43577
     43579     43578     43582     43583     43580     43578     43582     43583
     43581     43578     43582     43583     43585     43584     43588     43589
     43586     43584     43588     43589     43587     43584     43588     43589
     43591     43590     43594     43595     43592     43590     43594     43595
     43593     43590     43594     43595     43597     43596     43600     43601
     43598     43596     43600     43601     43599     43596     43600     43601
     43603     43602     43606     43607     43604     43602     43606     43607
     43605     43602     43606     43607     43609     43608     43612     43613
     43610     43608     43612     43613     43611     43608     43612     43613
     43615     43614     43618     43619     43616     43614     43618     43619
     43617     43614     43618     43619     43621     43620     43624     43625
     43622     43620     43624     43625     43623     43620     43624     43625
     43627     43626     43630     43631     43628     43626     43630     43631
     43629     43626     43630     43631     43633     43632     43636     43637
     43634     43632     43636     43637     43635     43632     43636     43637
     43639     43638     43642     43643     43640     43638     43642     43643
     43641     43638     43642     43643     43645     43644     43648     43649
     43646     43644     43648     43649     43647     43644     43648     43649
     43651     43650     43654     43655     43652     43650     43654     43655
     43653     43650     43654     43655     43657     43656     43660     43661
     43658     43656     43660     43661     43659     43656     43660     43661
     43663     43662     43666     43667     43664     43662     43666     43667
     43665     43662     43666     43667     43669     43668     43672     43673
     43670     43668     43672     43673     43671     43668     43672     43673
     43675     43674     43678     43679     43676     43674     43678     43679
     43677     43674     43678     43679     43681     43680     43684     43685
     43682     43680     43684     43685     43683     43680     43684     43685
     43687     43686     43690     43691     43688     43686     43690     43691
     43689     43686     43690     43691     43693     43692     43696     43697
     43694     43692     43696     43697     43695     43692     43696     43697
     43699     43698     43702     43703     43700     43698     43702     43703
     43701     43698     43702     43703     43705     43704     43708     43709
     43706     43704     43708     43709     43707     43704     43708     43709
     43711     43710     43714     43715     43712     43710     43714     43715
     43713     43710     43714     43715     43717     43716     43720     43721
     43718     43716     43720     43721     43719     43716     43720     43721
     43723     43722     43726     43727     43724     43722     43726     43727
     43725     43722     43726     43727     43729     43728     43732     43733
     43730     43728     43732     43733     43731     43728     43732     43733
     43735     43734     43738     43739     43736     43734     43738     43739
     43737     43734     43738     43739     43741     43740     43744     43745
     43742     43740     43744     43745     43743     43740     43744     43745
     43747     43746     43750     43751     43748     43746     43750     43751
     43749     43746     43750     43751     43753     43752     43756     43757
     43754     43752     43756     43757     43755     43752     43756     43757
     43759     43758     43762     43763     43760     43758     43762     43763
     43761     43758     43762     43763     43765     43764     43768     43769
     43766     43764     43768     43769     43767     43764     43768     43769
     43771     43770     43774     43775     43772     43770     43774     43775
     43773     43770     43774     43775     43777     43776     43780     43781
     43778     43776     43780     43781     43779     43776     43780     43781
     43783     43782     43786     43787     43784     43782     43786     43787
     43785     43782     43786     43787     43789     43788     43792     43793
     43790     43788     43792     43793     43791     43788     43792     43793
     43795     43794     43798     43799     43796     43794     43798     43799
     43797     43794     43798     43799     43801     43800     43804     43805
     43802     43800     43804     43805     43803     43800     43804     43805
     43807     43806     43810     43811     43808     43806     43810     43811
     43809     43806     43810     43811     43813     43812     43816     43817
     43814     43812     43816     43817     43815     43812     43816     43817
     43819     43818     43822     43823     43820     43818     43822     43823
     43821     43818     43822     43823     43825     43824     43828     43829
     43826     43824     43828     43829     43827     43824     43828     43829
     43831     43830     43834     43835     43832     43830     43834     43835
     43833     43830     43834     43835     43837     43836     43840     43841
     43838     43836     43840     43841     43839     43836     43840     43841
     43843     43842     43846     43847     43844     43842     43846     43847
     43845     43842     43846     43847     43849     43848     43852     43853
     43850     43848     43852     43853     43851     43848     43852     43853
     43855     43854     43858     43859     43856     43854     43858     43859
     43857     43854     43858     43859     43861     43860     43864     43865
     43862     43860     43864     43865     43863     43860     43864     43865
     43867     43866     43870     43871     43868     43866     43870     43871
     43869     43866     43870     43871     43873     43872     43876     43877
     43874     43872     43876     43877     43875     43872     43876     43877
     43879     43878     43882     43883     43880     43878     43882     43883
     43881     43878     43882     43883     43885     43884     43888     43889
     43886     43884     43888     43889     43887     43884     43888     43889
     43891     43890     43894     43895     43892     43890     43894     43895
     43893     43890     43894     43895     43897     43896     43900     43901
     43898     43896     43900     43901     43899     43896     43900     43901
     43903     43902     43906     43907     43904     43902     43906     43907
     43905     43902     43906     43907     43909     43908     43912     43913
     43910     43908     43912     43913     43911     43908     43912     43913
     43915     43914     43918     43919     43916     43914     43918     43919
     43917     43914     43918     43919     43921     43920     43924     43925
     43922     43920     43924     43925     43923     43920     43924     43925
     43927     43926     43930     43931     43928     43926     43930     43931
     43929     43926     43930     43931     43933     43932     43936     43937
     43934     43932     43936     43937     43935     43932     43936     43937
     43939     43938     43942     43943     43940     43938     43942     43943
     43941     43938     43942     43943     43945     43944     43948     43949
     43946     43944     43948     43949     43947     43944     43948     43949
     43951     43950     43954     43955     43952     43950     43954     43955
     43953     43950     43954     43955     43957     43956     43960     43961
     43958     43956     43960     43961     43959     43956     43960     43961
     43963     43962     43966     43967     43964     43962     43966     43967
     43965     43962     43966     43967     43969     43968     43972     43973
     43970     43968     43972     43973     43971     43968     43972     43973
     43975     43974     43978     43979     43976     43974     43978     43979
     43977     43974     43978     43979     43981     43980     43984     43985
     43982     43980     43984     43985     43983     43980     43984     43985
     43987     43986     43990     43991     43988     43986     43990     43991
     43989     43986     43990     43991     43993     43992     43996     43997
     43994     43992     43996     43997     43995     43992     43996     43997
     43999     43998     44002     44003     44000     43998     44002     44003
     44001     43998     44002     44003     44005     44004     44008     44009
     44006     44004     44008     44009     44007     44004     44008     44009
     44011     44010     44014     44015     44012     44010     44014     44015
     44013     44010     44014     44015     44017     44016     44020     44021
     44018     44016     44020     44021     44019     44016     44020     44021
     44023     44022     44026     44027     44024     44022     44026     44027
     44025     44022     44026     44027     44029     44028     44032     44033
     44030     44028     44032     44033     44031     44028     44032     44033
     44035     44034     44038     44039     44036     44034     44038     44039
     44037     44034     44038     44039     44041     44040     44044     44045
     44042     44040     44044     44045     44043     44040     44044     44045
     44047     44046     44050     44051     44048     44046     44050     44051
     44049     44046     44050     44051     44053     44052     44056     44057
     44054     44052     44056     44057     44055     44052     44056     44057
     44059     44058     44062     44063     44060     44058     44062     44063
     44061     44058     44062     44063     44065     44064     44068     44069
     44066     44064     44068     44069     44067     44064     44068     44069
     44071     44070     44074     44075     44072     44070     44074     44075
     44073     44070     44074     44075     44077     44076     44080     44081
     44078     44076     44080     44081     44079     44076     44080     44081
     44083     44082     44086     44087     44084     44082     44086     44087
     44085     44082     44086     44087     44089     44088     44092     44093
     44090     44088     44092     44093     44091     44088     44092     44093
     44095     44094     44098     44099     44096     44094     44098     44099
     44097     44094     44098     44099     44101     44100     44104     44105
     44102     44100     44104     44105     44103     44100     44104     44105
     44107     44106     44110     44111     44108     44106     44110     44111
     44109     44106     44110     44111     44113     44112     44116     44117
     44114     44112     44116     44117     44115     44112     44116     44117
     44119     44118     44122     44123     44120     44118     44122     44123
     44121     44118     44122     44123     44125     44124     44128     44129
     44126     44124     44128     44129     44127     44124     44128     44129
     44131     44130     44134     44135     44132     44130     44134     44135
     44133     44130     44134     44135     44137     44136     44140     44141
     44138     44136     44140     44141     44139     44136     44140     44141
     44143     44142     44146     44147     44144     44142     44146     44147
     44145     44142     44146     44147     44149     44148     44152     44153
     44150     44148     44152     44153     44151     44148     44152     44153
     44155     44154     44158     44159     44156     44154     44158     44159
     44157     44154     44158     44159     44161     44160     44164     44165
     44162     44160     44164     44165     44163     44160     44164     44165
     44167     44166     44170     44171     44168     44166     44170     44171
     44169     44166     44170     44171     44173     44172     44176     44177
     44174     44172     44176     44177     44175     44172     44176     44177
     44179     44178     44182     44183     44180     44178     44182     44183
     44181     44178     44182     44183     44185     44184     44188     44189
     44186     44184     44188     44189     44187     44184     44188     44189
     44191     44190     44194     44195     44192     44190     44194     44195
     44193     44190     44194     44195     44197     44196     44200     44201
     44198     44196     44200     44201     44199     44196     44200     44201
     44203     44202     44206     44207     44204     44202     44206     44207
     44205     44202     44206     44207     44209     44208     44212     44213
     44210     44208     44212     44213     44211     44208     44212     44213
     44215     44214     44218     44219     44216     44214     44218     44219
     44217     44214     44218     44219     44221     44220     44224     44225
     44222     44220     44224     44225     44223     44220     44224     44225
     44227     44226     44230     44231     44228     44226     44230     44231
     44229     44226     44230     44231     44233     44232     44236     44237
     44234     44232     44236     44237     44235     44232     44236     44237
     44239     44238     44242     44243     44240     44238     44242     44243
     44241     44238     44242     44243     44245     44244     44248     44249
     44246     44244     44248     44249     44247     44244     44248     44249
     44251     44250     44254     44255     44252     44250     44254     44255
     44253     44250     44254     44255     44257     44256     44260     44261
     44258     44256     44260     44261     44259     44256     44260     44261
     44263     44262     44266     44267     44264     44262     44266     44267
     44265     44262     44266     44267     44269     44268     44272     44273
     44270     44268     44272     44273     44271     44268     44272     44273
     44275     44274     44278     44279     44276     44274     44278     44279
     44277     44274     44278     44279     44281     44280     44284     44285
     44282     44280     44284     44285     44283     44280     44284     44285
     44287     44286     44290     44291     44288     44286     44290     44291
     44289     44286     44290     44291     44293     44292     44296     44297
     44294     44292     44296     44297     44295     44292     44296     44297
     44299     44298     44302     44303     44300     44298     44302     44303
     44301     44298     44302     44303     44305     44304     44308     44309
     44306     44304     44308     44309     44307     44304     44308     44309
     44311     44310     44314     44315     44312     44310     44314     44315
     44313     44310     44314     44315     44317     44316     44320     44321
     44318     44316     44320     44321     44319     44316     44320     44321
     44323     44322     44326     44327     44324     44322     44326     44327
     44325     44322     44326     44327     44329     44328     44332     44333
     44330     44328     44332     44333     44331     44328     44332     44333
     44335     44334     44338     44339     44336     44334     44338     44339
     44337     44334     44338     44339     44341     44340     44344     44345
     44342     44340     44344     44345     44343     44340     44344     44345
     44347     44346     44350     44351     44348     44346     44350     44351
     44349     44346     44350     44351     44353     44352     44356     44357
     44354     44352     44356     44357     44355     44352     44356     44357
     44359     44358     44362     44363     44360     44358     44362     44363
     44361     44358     44362     44363     44365     44364     44368     44369
     44366     44364     44368     44369     44367     44364     44368     44369
     44371     44370     44374     44375     44372     44370     44374     44375
     44373     44370     44374     44375     44377     44376     44380     44381
     44378     44376     44380     44381     44379     44376     44380     44381
     44383     44382     44386     44387     44384     44382     44386     44387
     44385     44382     44386     44387     44389     44388     44392     44393
     44390     44388     44392     44393     44391     44388     44392     44393
     44395     44394     44398     44399     44396     44394     44398     44399
     44397     44394     44398     44399     44401     44400     44404     44405
     44402     44400     44404     44405     44403     44400     44404     44405
     44407     44406     44410     44411     44408     44406     44410     44411
     44409     44406     44410     44411     44413     44412     44416     44417
     44414     44412     44416     44417     44415     44412     44416     44417
     44419     44418     44422     44423     44420     44418     44422     44423
     44421     44418     44422     44423     44425     44424     44428     44429
     44426     44424     44428     44429     44427     44424     44428     44429
     44431     44430     44434     44435     44432     44430     44434     44435
     44433     44430     44434     44435     44437     44436     44440     44441
     44438     44436     44440     44441     44439     44436     44440     44441
     44443     44442     44446     44447     44444     44442     44446     44447
     44445     44442     44446     44447     44449     44448     44452     44453
     44450     44448     44452     44453     44451     44448     44452     44453
     44455     44454     44458     44459     44456     44454     44458     44459
     44457     44454     44458     44459     44461     44460     44464     44465
     44462     44460     44464     44465     44463     44460     44464     44465
     44467     44466     44470     44471     44468     44466     44470     44471
     44469     44466     44470     44471     44473     44472     44476     44477
     44474     44472     44476     44477     44475     44472     44476     44477
     44479     44478     44482     44483     44480     44478     44482     44483
     44481     44478     44482     44483     44485     44484     44488     44489
     44486     44484     44488     44489     44487     44484     44488     44489
     44491     44490     44494     44495     44492     44490     44494     44495
     44493     44490     44494     44495     44497     44496     44500     44501
     44498     44496     44500     44501     44499     44496     44500     44501
     44503     44502     44506     44507     44504     44502     44506     44507
     44505     44502     44506     44507     44509     44508     44512     44513
     44510     44508     44512     44513     44511     44508     44512     44513
     44515     44514     44518     44519     44516     44514     44518     44519
     44517     44514     44518     44519     44521     44520     44524     44525
     44522     44520     44524     44525     44523     44520     44524     44525
     44527     44526     44530     44531     44528     44526     44530     44531
     44529     44526     44530     44531     44533     44532     44536     44537
     44534     44532     44536     44537     44535     44532     44536     44537
     44539     44538     44542     44543     44540     44538     44542     44543
     44541     44538     44542     44543     44545     44544     44548     44549
     44546     44544     44548     44549     44547     44544     44548     44549
     44551     44550     44554     44555     44552     44550     44554     44555
     44553     44550     44554     44555     44557     44556     44560     44561
     44558     44556     44560     44561     44559     44556     44560     44561
     44563     44562     44566     44567     44564     44562     44566     44567
     44565     44562     44566     44567     44569     44568     44572     44573
     44570     44568     44572     44573     44571     44568     44572     44573
     44575     44574     44578     44579     44576     44574     44578     44579
     44577     44574     44578     44579     44581     44580     44584     44585
     44582     44580     44584     44585     44583     44580     44584     44585
     44587     44586     44590     44591     44588     44586     44590     44591
     44589     44586     44590     44591     44593     44592     44596     44597
     44594     44592     44596     44597     44595     44592     44596     44597
     44599     44598     44602     44603     44600     44598     44602     44603
     44601     44598     44602     44603     44605     44604     44608     44609
     44606     44604     44608     44609     44607     44604     44608     44609
     44611     44610     44614     44615     44612     44610     44614     44615
     44613     44610     44614     44615     44617     44616     44620     44621
     44618     44616     44620     44621     44619     44616     44620     44621
     44623     44622     44626     44627     44624     44622     44626     44627
     44625     44622     44626     44627     44629     44628     44632     44633
     44630     44628     44632     44633     44631     44628     44632     44633
     44635     44634     44638     44639     44636     44634     44638     44639
     44637     44634     44638     44639     44641     44640     44644     44645
     44642     44640     44644     44645     44643     44640     44644     44645
     44647     44646     44650     44651     44648     44646     44650     44651
     44649     44646     44650     44651     44653     44652     44656     44657
     44654     44652     44656     44657     44655     44652     44656     44657
     44659     44658     44662     44663     44660     44658     44662     44663
     44661     44658     44662     44663     44665     44664     44668     44669
     44666     44664     44668     44669     44667     44664     44668     44669
     44671     44670     44674     44675     44672     44670     44674     44675
     44673     44670     44674     44675     44677     44676     44680     44681
     44678     44676     44680     44681     44679     44676     44680     44681
     44683     44682     44686     44687     44684     44682     44686     44687
     44685     44682     44686     44687     44689     44688     44692     44693
     44690     44688     44692     44693     44691     44688     44692     44693
     44695     44694     44698     44699     44696     44694     44698     44699
     44697     44694     44698     44699     44701     44700     44704     44705
     44702     44700     44704     44705     44703     44700     44704     44705
     44707     44706     44710     44711     44708     44706     44710     44711
     44709     44706     44710     44711     44713     44712     44716     44717
     44714     44712     44716     44717     44715     44712     44716     44717
     44719     44718     44722     44723     44720     44718     44722     44723
     44721     44718     44722     44723     44725     44724     44728     44729
     44726     44724     44728     44729     44727     44724     44728     44729
     44731     44730     44734     44735     44732     44730     44734     44735
     44733     44730     44734     44735     44737     44736     44740     44741
     44738     44736     44740     44741     44739     44736     44740     44741
     44743     44742     44746     44747     44744     44742     44746     44747
     44745     44742     44746     44747     44749     44748     44752     44753
     44750     44748     44752     44753     44751     44748     44752     44753
     44755     44754     44758     44759     44756     44754     44758     44759
     44757     44754     44758     44759     44761     44760     44764     44765
     44762     44760     44764     44765     44763     44760     44764     44765
     44767     44766     44770     44771     44768     44766     44770     44771
     44769     44766     44770     44771     44773     44772     44776     44777
     44774     44772     44776     44777     44775     44772     44776     44777
     44779     44778     44782     44783     44780     44778     44782     44783
     44781     44778     44782     44783     44785     44784     44788     44789
     44786     44784     44788     44789     44787     44784     44788     44789
     44791     44790     44794     44795     44792     44790     44794     44795
     44793     44790     44794     44795     44797     44796     44800     44801
     44798     44796     44800     44801     44799     44796     44800     44801
     44803     44802     44806     44807     44804     44802     44806     44807
     44805     44802     44806     44807     44809     44808     44812     44813
     44810     44808     44812     44813     44811     44808     44812     44813
     44815     44814     44818     44819     44816     44814     44818     44819
     44817     44814     44818     44819     44821     44820     44824     44825
     44822     44820     44824     44825     44823     44820     44824     44825
     44827     44826     44830     44831     44828     44826     44830     44831
     44829     44826     44830     44831     44833     44832     44836     44837
     44834     44832     44836     44837     44835     44832     44836     44837
     44839     44838     44842     44843     44840     44838     44842     44843
     44841     44838     44842     44843     44845     44844     44848     44849
     44846     44844     44848     44849     44847     44844     44848     44849
     44851     44850     44854     44855     44852     44850     44854     44855
     44853     44850     44854     44855     44857     44856     44860     44861
     44858     44856     44860     44861     44859     44856     44860     44861
     44863     44862     44866     44867     44864     44862     44866     44867
     44865     44862     44866     44867     44869     44868     44872     44873
     44870     44868     44872     44873     44871     44868     44872     44873
     44875     44874     44878     44879     44876     44874     44878     44879
     44877     44874     44878     44879     44881     44880     44884     44885
     44882     44880     44884     44885     44883     44880     44884     44885
     44887     44886     44890     44891     44888     44886     44890     44891
     44889     44886     44890     44891     44893     44892     44896     44897
     44894     44892     44896     44897     44895     44892     44896     44897
     44899     44898     44902     44903     44900     44898     44902     44903
     44901     44898     44902     44903     44905     44904     44908     44909
     44906     44904     44908     44909     44907     44904     44908     44909
     44911     44910     44914     44915     44912     44910     44914     44915
     44913     44910     44914     44915     44917     44916     44920     44921
     44918     44916     44920     44921     44919     44916     44920     44921
     44923     44922     44926     44927     44924     44922     44926     44927
     44925     44922     44926     44927     44929     44928     44932     44933
     44930     44928     44932     44933     44931     44928     44932     44933
     44935     44934     44938     44939     44936     44934     44938     44939
     44937     44934     44938     44939     44941     44940     44944     44945
     44942     44940     44944     44945     44943     44940     44944     44945
     44947     44946     44950     44951     44948     44946     44950     44951
     44949     44946     44950     44951     44953     44952     44956     44957
     44954     44952     44956     44957     44955     44952     44956     44957
     44959     44958     44962     44963     44960     44958     44962     44963
     44961     44958     44962     44963     44965     44964     44968     44969
     44966     44964     44968     44969     44967     44964     44968     44969
     44971     44970     44974     44975     44972     44970     44974     44975
     44973     44970     44974     44975     44977     44976     44980     44981
     44978     44976     44980     44981     44979     44976     44980     44981
     44983     44982     44986     44987     44984     44982     44986     44987
     44985     44982     44986     44987     44989     44988     44992     44993
     44990     44988     44992     44993     44991     44988     44992     44993
     44995     44994     44998     44999     44996     44994     44998     44999
     44997     44994     44998     44999     45001     45000     45004     45005
     45002     45000     45004     45005     45003     45000     45004     45005
     45007     45006     45010     45011     45008     45006     45010     45011
     45009     45006     45010     45011     45013     45012     45016     45017
     45014     45012     45016     45017     45015     45012     45016     45017
     45019     45018     45022     45023     45020     45018     45022     45023
     45021     45018     45022     45023     45025     45024     45028     45029
     45026     45024     45028     45029     45027     45024     45028     45029
     45031     45030     45034     45035     45032     45030     45034     45035
     45033     45030     45034     45035     45037     45036     45040     45041
     45038     45036     45040     45041     45039     45036     45040     45041
     45043     45042     45046     45047     45044     45042     45046     45047
     45045     45042     45046     45047     45049     45048     45052     45053
     45050     45048     45052     45053     45051     45048     45052     45053
     45055     45054     45058     45059     45056     45054     45058     45059
     45057     45054     45058     45059     45061     45060     45064     45065
     45062     45060     45064     45065     45063     45060     45064     45065
     45067     45066     45070     45071     45068     45066     45070     45071
     45069     45066     45070     45071     45073     45072     45076     45077
     45074     45072     45076     45077     45075     45072     45076     45077
     45079     45078     45082     45083     45080     45078     45082     45083
     45081     45078     45082     45083     45085     45084     45088     45089
     45086     45084     45088     45089     45087     45084     45088     45089
     45091     45090     45094     45095     45092     45090     45094     45095
     45093     45090     45094     45095     45097     45096     45100     45101
     45098     45096     45100     45101     45099     45096     45100     45101
     45103     45102     45106     45107     45104     45102     45106     45107
     45105     45102     45106     45107     45109     45108     45112     45113
     45110     45108     45112     45113     45111     45108     45112     45113
     45115     45114     45118     45119     45116     45114     45118     45119
     45117     45114     45118     45119     45121     45120     45124     45125
     45122     45120     45124     45125     45123     45120     45124     45125
     45127     45126     45130     45131     45128     45126     45130     45131
     45129     45126     45130     45131     45133     45132     45136     45137
     45134     45132     45136     45137     45135     45132     45136     45137
     45139     45138     45142     45143     45140     45138     45142     45143
     45141     45138     45142     45143     45145     45144     45148     45149
     45146     45144     45148     45149     45147     45144     45148     45149
     45151     45150     45154     45155     45152     45150     45154     45155
     45153     45150     45154     45155     45157     45156     45160     45161
     45158     45156     45160     45161     45159     45156     45160     45161
     45163     45162     45166     45167     45164     45162     45166     45167
     45165     45162     45166     45167     45169     45168     45172     45173
     45170     45168     45172     45173     45171     45168     45172     45173
     45175     45174     45178     45179     45176     45174     45178     45179
     45177     45174     45178     45179     45181     45180     45184     45185
     45182     45180     45184     45185     45183     45180     45184     45185
     45187     45186     45190     45191     45188     45186     45190     45191
     45189     45186     45190     45191     45193     45192     45196     45197
     45194     45192     45196     45197     45195     45192     45196     45197
     45199     45198     45202     45203     45200     45198     45202     45203
     45201     45198     45202     45203     45205     45204     45208     45209
     45206     45204     45208     45209     45207     45204     45208     45209
     45211     45210     45214     45215     45212     45210     45214     45215
     45213     45210     45214     45215     45217     45216     45220     45221
     45218     45216     45220     45221     45219     45216     45220     45221
     45223     45222     45226     45227     45224     45222     45226     45227
     45225     45222     45226     45227     45229     45228     45232     45233
     45230     45228     45232     45233     45231     45228     45232     45233
     45235     45234     45238     45239     45236     45234     45238     45239
     45237     45234     45238     45239     45241     45240     45244     45245
     45242     45240     45244     45245     45243     45240     45244     45245
     45247     45246     45250     45251     45248     45246     45250     45251
     45249     45246     45250     45251     45253     45252     45256     45257
     45254     45252     45256     45257     45255     45252     45256     45257
     45259     45258     45262     45263     45260     45258     45262     45263
     45261     45258     45262     45263     45265     45264     45268     45269
     45266     45264     45268     45269     45267     45264     45268     45269
     45271     45270     45274     45275     45272     45270     45274     45275
     45273     45270     45274     45275     45277     45276     45280     45281
     45278     45276     45280     45281     45279     45276     45280     45281
     45283     45282     45286     45287     45284     45282     45286     45287
     45285     45282     45286     45287     45289     45288     45292     45293
     45290     45288     45292     45293     45291     45288     45292     45293
     45295     45294     45298     45299     45296     45294     45298     45299
     45297     45294     45298     45299     45301     45300     45304     45305
     45302     45300     45304     45305     45303     45300     45304     45305
     45307     45306     45310     45311     45308     45306     45310     45311
     45309     45306     45310     45311     45313     45312     45316     45317
     45314     45312     45316     45317     45315     45312     45316     45317
     45319     45318     45322     45323     45320     45318     45322     45323
     45321     45318     45322     45323     45325     45324     45328     45329
     45326     45324     45328     45329     45327     45324     45328     45329
     45331     45330     45334     45335     45332     45330     45334     45335
     45333     45330     45334     45335     45337     45336     45340     45341
     45338     45336     45340     45341     45339     45336     45340     45341
     45343     45342     45346     45347     45344     45342     45346     45347
     45345     45342     45346     45347     45349     45348     45352     45353
     45350     45348     45352     45353     45351     45348     45352     45353
     45355     45354     45358     45359     45356     45354     45358     45359
     45357     45354     45358     45359     45361     45360     45364     45365
     45362     45360     45364     45365     45363     45360     45364     45365
     45367     45366     45370     45371     45368     45366     45370     45371
     45369     45366     45370     45371     45373     45372     45376     45377
     45374     45372     45376     45377     45375     45372     45376     45377
     45379     45378     45382     45383     45380     45378     45382     45383
     45381     45378     45382     45383     45385     45384     45388     45389
     45386     45384     45388     45389     45387     45384     45388     45389
     45391     45390     45394     45395     45392     45390     45394     45395
     45393     45390     45394     45395     45397     45396     45400     45401
     45398     45396     45400     45401     45399     45396     45400     45401
     45403     45402     45406     45407     45404     45402     45406     45407
     45405     45402     45406     45407     45409     45408     45412     45413
     45410     45408     45412     45413     45411     45408     45412     45413
     45415     45414     45418     45419     45416     45414     45418     45419
     45417     45414     45418     45419     45421     45420     45424     45425
     45422     45420     45424     45425     45423     45420     45424     45425
     45427     45426     45430     45431     45428     45426     45430     45431
     45429     45426     45430     45431     45433     45432     45436     45437
     45434     45432     45436     45437     45435     45432     45436     45437
     45439     45438     45442     45443     45440     45438     45442     45443
     45441     45438     45442     45443     45445     45444     45448     45449
     45446     45444     45448     45449     45447     45444     45448     45449
     45451     45450     45454     45455     45452     45450     45454     45455
     45453     45450     45454     45455     45457     45456     45460     45461
     45458     45456     45460     45461     45459     45456     45460     45461
     45463     45462     45466     45467     45464     45462     45466     45467
     45465     45462     45466     45467     45469     45468     45472     45473
     45470     45468     45472     45473     45471     45468     45472     45473
     45475     45474     45478     45479     45476     45474     45478     45479
     45477     45474     45478     45479     45481     45480     45484     45485
     45482     45480     45484     45485     45483     45480     45484     45485
     45487     45486     45490     45491     45488     45486     45490     45491
     45489     45486     45490     45491     45493     45492     45496     45497
     45494     45492     45496     45497     45495     45492     45496     45497
     45499     45498     45502     45503     45500     45498     45502     45503
     45501     45498     45502     45503     45505     45504     45508     45509
     45506     45504     45508     45509     45507     45504     45508     45509
     45511     45510     45514     45515     45512     45510     45514     45515
     45513     45510     45514     45515     45517     45516     45520     45521
     45518     45516     45520     45521     45519     45516     45520     45521
     45523     45522     45526     45527     45524     45522     45526     45527
     45525     45522     45526     45527     45529     45528     45532     45533
     45530     45528     45532     45533     45531     45528     45532     45533
     45535     45534     45538     45539     45536     45534     45538     45539
     45537     45534     45538     45539     45541     45540     45544     45545
     45542     45540     45544     45545     45543     45540     45544     45545
     45547     45546     45550     45551     45548     45546     45550     45551
     45549     45546     45550     45551     45553     45552     45556     45557
     45554     45552     45556     45557     45555     45552     45556     45557
     45559     45558     45562     45563     45560     45558     45562     45563
     45561     45558     45562     45563     45565     45564     45568     45569
     45566     45564     45568     45569     45567     45564     45568     45569
     45571     45570     45574     45575     45572     45570     45574     45575
     45573     45570     45574     45575     45577     45576     45580     45581
     45578     45576     45580     45581     45579     45576     45580     45581
     45583     45582     45586     45587     45584     45582     45586     45587
     45585     45582     45586     45587     45589     45588     45592     45593
     45590     45588     45592     45593     45591     45588     45592     45593
     45595     45594     45598     45599     45596     45594     45598     45599
     45597     45594     45598     45599     45601     45600     45604     45605
     45602     45600     45604     45605     45603     45600     45604     45605
     45607     45606     45610     45611     45608     45606     45610     45611
     45609     45606     45610     45611     45613     45612     45616     45617
     45614     45612     45616     45617     45615     45612     45616     45617
     45619     45618     45622     45623     45620     45618     45622     45623
     45621     45618     45622     45623     45625     45624     45628     45629
     45626     45624     45628     45629     45627     45624     45628     45629
     45631     45630     45634     45635     45632     45630     45634     45635
     45633     45630     45634     45635     45637     45636     45640     45641
     45638     45636     45640     45641     45639     45636     45640     45641
     45643     45642     45646     45647     45644     45642     45646     45647
     45645     45642     45646     45647     45649     45648     45652     45653
     45650     45648     45652     45653     45651     45648     45652     45653
     45655     45654     45658     45659     45656     45654     45658     45659
     45657     45654     45658     45659     45661     45660     45664     45665
     45662     45660     45664     45665     45663     45660     45664     45665
     45667     45666     45670     45671     45668     45666     45670     45671
     45669     45666     45670     45671     45673     45672     45676     45677
     45674     45672     45676     45677     45675     45672     45676     45677
     45679     45678     45682     45683     45680     45678     45682     45683
     45681     45678     45682     45683     45685     45684     45688     45689
     45686     45684     45688     45689     45687     45684     45688     45689
     45691     45690     45694     45695     45692     45690     45694     45695
     45693     45690     45694     45695     45697     45696     45700     45701
     45698     45696     45700     45701     45699     45696     45700     45701
     45703     45702     45706     45707     45704     45702     45706     45707
     45705     45702     45706     45707     45709     45708     45712     45713
     45710     45708     45712     45713     45711     45708     45712     45713
     45715     45714     45718     45719     45716     45714     45718     45719
     45717     45714     45718     45719     45721     45720     45724     45725
     45722     45720     45724     45725     45723     45720     45724     45725
     45727     45726     45730     45731     45728     45726     45730     45731
     45729     45726     45730     45731     45733     45732     45736     45737
     45734     45732     45736     45737     45735     45732     45736     45737
     45739     45738     45742     45743     45740     45738     45742     45743
     45741     45738     45742     45743     45745     45744     45748     45749
     45746     45744     45748     45749     45747     45744     45748     45749
     45751     45750     45754     45755     45752     45750     45754     45755
     45753     45750     45754     45755     45757     45756     45760     45761
     45758     45756     45760     45761     45759     45756     45760     45761
     45763     45762     45766     45767     45764     45762     45766     45767
     45765     45762     45766     45767     45769     45768     45772     45773
     45770     45768     45772     45773     45771     45768     45772     45773
     45775     45774     45778     45779     45776     45774     45778     45779
     45777     45774     45778     45779     45781     45780     45784     45785
     45782     45780     45784     45785     45783     45780     45784     45785
     45787     45786     45790     45791     45788     45786     45790     45791
     45789     45786     45790     45791     45793     45792     45796     45797
     45794     45792     45796     45797     45795     45792     45796     45797
     45799     45798     45802     45803     45800     45798     45802     45803
     45801     45798     45802     45803     45805     45804     45808     45809
     45806     45804     45808     45809     45807     45804     45808     45809
     45811     45810     45814     45815     45812     45810     45814     45815
     45813     45810     45814     45815     45817     45816     45820     45821
     45818     45816     45820     45821     45819     45816     45820     45821
     45823     45822     45826     45827     45824     45822     45826     45827
     45825     45822     45826     45827     45829     45828     45832     45833
     45830     45828     45832     45833     45831     45828     45832     45833
     45835     45834     45838     45839     45836     45834     45838     45839
     45837     45834     45838     45839     45841     45840     45844     45845
     45842     45840     45844     45845     45843     45840     45844     45845
     45847     45846     45850     45851     45848     45846     45850     45851
     45849     45846     45850     45851     45853     45852     45856     45857
     45854     45852     45856     45857     45855     45852     45856     45857
     45859     45858     45862     45863     45860     45858     45862     45863
     45861     45858     45862     45863     45865     45864     45868     45869
     45866     45864     45868     45869     45867     45864     45868     45869
     45871     45870     45874     45875     45872     45870     45874     45875
     45873     45870     45874     45875     45877     45876     45880     45881
     45878     45876     45880     45881     45879     45876     45880     45881
     45883     45882     45886     45887     45884     45882     45886     45887
     45885     45882     45886     45887     45889     45888     45892     45893
     45890     45888     45892     45893     45891     45888     45892     45893
     45895     45894     45898     45899     45896     45894     45898     45899
     45897     45894     45898     45899     45901     45900     45904     45905
     45902     45900     45904     45905     45903     45900     45904     45905
     45907     45906     45910     45911     45908     45906     45910     45911
     45909     45906     45910     45911     45913     45912     45916     45917
     45914     45912     45916     45917     45915     45912     45916     45917
     45919     45918     45922     45923     45920     45918     45922     45923
     45921     45918     45922     45923     45925     45924     45928     45929
     45926     45924     45928     45929     45927     45924     45928     45929
     45931     45930     45934     45935     45932     45930     45934     45935
     45933     45930     45934     45935     45937     45936     45940     45941
     45938     45936     45940     45941     45939     45936     45940     45941
     45943     45942     45946     45947     45944     45942     45946     45947
     45945     45942     45946     45947     45949     45948     45952     45953
     45950     45948     45952     45953     45951     45948     45952     45953
     45955     45954     45958     45959     45956     45954     45958     45959
     45957     45954     45958     45959     45961     45960     45964     45965
     45962     45960     45964     45965     45963     45960     45964     45965
     45967     45966     45970     45971     45968     45966     45970     45971
     45969     45966     45970     45971     45973     45972     45976     45977
     45974     45972     45976     45977     45975     45972     45976     45977
     45979     45978     45982     45983     45980     45978     45982     45983
     45981     45978     45982     45983     45985     45984     45988     45989
     45986     45984     45988     45989     45987     45984     45988     45989
     45991     45990     45994     45995     45992     45990     45994     45995
     45993     45990     45994     45995     45997     45996     46000     46001
     45998     45996     46000     46001     45999     45996     46000     46001
     46003     46002     46006     46007     46004     46002     46006     46007
     46005     46002     46006     46007     46009     46008     46012     46013
     46010     46008     46012     46013     46011     46008     46012     46013
     46015     46014     46018     46019     46016     46014     46018     46019
     46017     46014     46018     46019     46021     46020     46024     46025
     46022     46020     46024     46025     46023     46020     46024     46025
     46027     46026     46030     46031     46028     46026     46030     46031
     46029     46026     46030     46031     46033     46032     46036     46037
     46034     46032     46036     46037     46035     46032     46036     46037
     46039     46038     46042     46043     46040     46038     46042     46043
     46041     46038     46042     46043     46045     46044     46048     46049
     46046     46044     46048     46049     46047     46044     46048     46049
     46051     46050     46054     46055     46052     46050     46054     46055
     46053     46050     46054     46055     46057     46056     46060     46061
     46058     46056     46060     46061     46059     46056     46060     46061
     46063     46062     46066     46067     46064     46062     46066     46067
     46065     46062     46066     46067     46069     46068     46072     46073
     46070     46068     46072     46073     46071     46068     46072     46073
     46075     46074     46078     46079     46076     46074     46078     46079
     46077     46074     46078     46079     46081     46080     46084     46085
     46082     46080     46084     46085     46083     46080     46084     46085
     46087     46086     46090     46091     46088     46086     46090     46091
     46089     46086     46090     46091     46093     46092     46096     46097
     46094     46092     46096     46097     46095     46092     46096     46097
     46099     46098     46102     46103     46100     46098     46102     46103
     46101     46098     46102     46103     46105     46104     46108     46109
     46106     46104     46108     46109     46107     46104     46108     46109
     46111     46110     46114     46115     46112     46110     46114     46115
     46113     46110     46114     46115     46117     46116     46120     46121
     46118     46116     46120     46121     46119     46116     46120     46121
     46123     46122     46126     46127     46124     46122     46126     46127
     46125     46122     46126     46127     46129     46128     46132     46133
     46130     46128     46132     46133     46131     46128     46132     46133
     46135     46134     46138     46139     46136     46134     46138     46139
     46137     46134     46138     46139     46141     46140     46144     46145
     46142     46140     46144     46145     46143     46140     46144     46145
     46147     46146     46150     46151     46148     46146     46150     46151
     46149     46146     46150     46151     46153     46152     46156     46157
     46154     46152     46156     46157     46155     46152     46156     46157
     46159     46158     46162     46163     46160     46158     46162     46163
     46161     46158     46162     46163     46165     46164     46168     46169
     46166     46164     46168     46169     46167     46164     46168     46169
     46171     46170     46174     46175     46172     46170     46174     46175
     46173     46170     46174     46175     46177     46176     46180     46181
     46178     46176     46180     46181     46179     46176     46180     46181
     46183     46182     46186     46187     46184     46182     46186     46187
     46185     46182     46186     46187     46189     46188     46192     46193
     46190     46188     46192     46193     46191     46188     46192     46193
     46195     46194     46198     46199     46196     46194     46198     46199
     46197     46194     46198     46199     46201     46200     46204     46205
     46202     46200     46204     46205     46203     46200     46204     46205
     46207     46206     46210     46211     46208     46206     46210     46211
     46209     46206     46210     46211     46213     46212     46216     46217
     46214     46212     46216     46217     46215     46212     46216     46217
     46219     46218     46222     46223     46220     46218     46222     46223
     46221     46218     46222     46223     46225     46224     46228     46229
     46226     46224     46228     46229     46227     46224     46228     46229
     46231     46230     46234     46235     46232     46230     46234     46235
     46233     46230     46234     46235     46237     46236     46240     46241
     46238     46236     46240     46241     46239     46236     46240     46241
     46243     46242     46246     46247     46244     46242     46246     46247
     46245     46242     46246     46247     46249     46248     46252     46253
     46250     46248     46252     46253     46251     46248     46252     46253
     46255     46254     46258     46259     46256     46254     46258     46259
     46257     46254     46258     46259     46261     46260     46264     46265
     46262     46260     46264     46265     46263     46260     46264     46265
     46267     46266     46270     46271     46268     46266     46270     46271
     46269     46266     46270     46271     46273     46272     46276     46277
     46274     46272     46276     46277     46275     46272     46276     46277
     46279     46278     46282     46283     46280     46278     46282     46283
     46281     46278     46282     46283     46285     46284     46288     46289
     46286     46284     46288     46289     46287     46284     46288     46289
     46291     46290     46294     46295     46292     46290     46294     46295
     46293     46290     46294     46295     46297     46296     46300     46301
     46298     46296     46300     46301     46299     46296     46300     46301
     46303     46302     46306     46307     46304     46302     46306     46307
     46305     46302     46306     46307     46309     46308     46312     46313
     46310     46308     46312     46313     46311     46308     46312     46313
     46315     46314     46318     46319     46316     46314     46318     46319
     46317     46314     46318     46319     46321     46320     46324     46325
     46322     46320     46324     46325     46323     46320     46324     46325
     46327     46326     46330     46331     46328     46326     46330     46331
     46329     46326     46330     46331     46333     46332     46336     46337
     46334     46332     46336     46337     46335     46332     46336     46337
     46339     46338     46342     46343     46340     46338     46342     46343
     46341     46338     46342     46343     46345     46344     46348     46349
     46346     46344     46348     46349     46347     46344     46348     46349
     46351     46350     46354     46355     46352     46350     46354     46355
     46353     46350     46354     46355     46357     46356     46360     46361
     46358     46356     46360     46361     46359     46356     46360     46361
     46363     46362     46366     46367     46364     46362     46366     46367
     46365     46362     46366     46367     46369     46368     46372     46373
     46370     46368     46372     46373     46371     46368     46372     46373
     46375     46374     46378     46379     46376     46374     46378     46379
     46377     46374     46378     46379     46381     46380     46384     46385
     46382     46380     46384     46385     46383     46380     46384     46385
     46387     46386     46390     46391     46388     46386     46390     46391
     46389     46386     46390     46391     46393     46392     46396     46397
     46394     46392     46396     46397     46395     46392     46396     46397
     46399     46398     46402     46403     46400     46398     46402     46403
     46401     46398     46402     46403     46405     46404     46408     46409
     46406     46404     46408     46409     46407     46404     46408     46409
     46411     46410     46414     46415     46412     46410     46414     46415
     46413     46410     46414     46415     46417     46416     46420     46421
     46418     46416     46420     46421     46419     46416     46420     46421
     46423     46422     46426     46427     46424     46422     46426     46427
     46425     46422     46426     46427     46429     46428     46432     46433
     46430     46428     46432     46433     46431     46428     46432     46433
     46435     46434     46438     46439     46436     46434     46438     46439
     46437     46434     46438     46439     46441     46440     46444     46445
     46442     46440     46444     46445     46443     46440     46444     46445
     46447     46446     46450     46451     46448     46446     46450     46451
     46449     46446     46450     46451     46453     46452     46456     46457
     46454     46452     46456     46457     46455     46452     46456     46457
     46459     46458     46462     46463     46460     46458     46462     46463
     46461     46458     46462     46463     46465     46464     46468     46469
     46466     46464     46468     46469     46467     46464     46468     46469
     46471     46470     46474     46475     46472     46470     46474     46475
     46473     46470     46474     46475     46477     46476     46480     46481
     46478     46476     46480     46481     46479     46476     46480     46481
     46483     46482     46486     46487     46484     46482     46486     46487
     46485     46482     46486     46487     46489     46488     46492     46493
     46490     46488     46492     46493     46491     46488     46492     46493
     46495     46494     46498     46499     46496     46494     46498     46499
     46497     46494     46498     46499     46501     46500     46504     46505
     46502     46500     46504     46505     46503     46500     46504     46505
     46507     46506     46510     46511     46508     46506     46510     46511
     46509     46506     46510     46511     46513     46512     46516     46517
     46514     46512     46516     46517     46515     46512     46516     46517
     46519     46518     46522     46523     46520     46518     46522     46523
     46521     46518     46522     46523     46525     46524     46528     46529
     46526     46524     46528     46529     46527     46524     46528     46529
     46531     46530     46534     46535     46532     46530     46534     46535
     46533     46530     46534     46535     46537     46536     46540     46541
     46538     46536     46540     46541     46539     46536     46540     46541
     46543     46542     46546     46547     46544     46542     46546     46547
     46545     46542     46546     46547     46549     46548     46552     46553
     46550     46548     46552     46553     46551     46548     46552     46553
     46555     46554     46558     46559     46556     46554     46558     46559
     46557     46554     46558     46559     46561     46560     46564     46565
     46562     46560     46564     46565     46563     46560     46564     46565
     46567     46566     46570     46571     46568     46566     46570     46571
     46569     46566     46570     46571     46573     46572     46576     46577
     46574     46572     46576     46577     46575     46572     46576     46577
     46579     46578     46582     46583     46580     46578     46582     46583
     46581     46578     46582     46583     46585     46584     46588     46589
     46586     46584     46588     46589     46587     46584     46588     46589
     46591     46590     46594     46595     46592     46590     46594     46595
     46593     46590     46594     46595     46597     46596     46600     46601
     46598     46596     46600     46601     46599     46596     46600     46601
     46603     46602     46606     46607     46604     46602     46606     46607
     46605     46602     46606     46607     46609     46608     46612     46613
     46610     46608     46612     46613     46611     46608     46612     46613
     46615     46614     46618     46619     46616     46614     46618     46619
     46617     46614     46618     46619     46621     46620     46624     46625
     46622     46620     46624     46625     46623     46620     46624     46625
     46627     46626     46630     46631     46628     46626     46630     46631
     46629     46626     46630     46631     46633     46632     46636     46637
     46634     46632     46636     46637     46635     46632     46636     46637
     46639     46638     46642     46643     46640     46638     46642     46643
     46641     46638     46642     46643     46645     46644     46648     46649
     46646     46644     46648     46649     46647     46644     46648     46649
     46651     46650     46654     46655     46652     46650     46654     46655
     46653     46650     46654     46655     46657     46656     46660     46661
     46658     46656     46660     46661     46659     46656     46660     46661
     46663     46662     46666     46667     46664     46662     46666     46667
     46665     46662     46666     46667     46669     46668     46672     46673
     46670     46668     46672     46673     46671     46668     46672     46673
     46675     46674     46678     46679     46676     46674     46678     46679
     46677     46674     46678     46679     46681     46680     46684     46685
     46682     46680     46684     46685     46683     46680     46684     46685
     46687     46686     46690     46691     46688     46686     46690     46691
     46689     46686     46690     46691     46693     46692     46696     46697
     46694     46692     46696     46697     46695     46692     46696     46697
     46699     46698     46702     46703     46700     46698     46702     46703
     46701     46698     46702     46703     46705     46704     46708     46709
     46706     46704     46708     46709     46707     46704     46708     46709
     46711     46710     46714     46715     46712     46710     46714     46715
     46713     46710     46714     46715     46717     46716     46720     46721
     46718     46716     46720     46721     46719     46716     46720     46721
     46723     46722     46726     46727     46724     46722     46726     46727
     46725     46722     46726     46727     46729     46728     46732     46733
     46730     46728     46732     46733     46731     46728     46732     46733
     46735     46734     46738     46739     46736     46734     46738     46739
     46737     46734     46738     46739     46741     46740     46744     46745
     46742     46740     46744     46745     46743     46740     46744     46745
     46747     46746     46750     46751     46748     46746     46750     46751
     46749     46746     46750     46751     46753     46752     46756     46757
     46754     46752     46756     46757     46755     46752     46756     46757
     46759     46758     46762     46763     46760     46758     46762     46763
     46761     46758     46762     46763     46765     46764     46768     46769
     46766     46764     46768     46769     46767     46764     46768     46769
     46771     46770     46774     46775     46772     46770     46774     46775
     46773     46770     46774     46775     46777     46776     46780     46781
     46778     46776     46780     46781     46779     46776     46780     46781
     46783     46782     46786     46787     46784     46782     46786     46787
     46785     46782     46786     46787     46789     46788     46792     46793
     46790     46788     46792     46793     46791     46788     46792     46793
     46795     46794     46798     46799     46796     46794     46798     46799
     46797     46794     46798     46799     46801     46800     46804     46805
     46802     46800     46804     46805     46803     46800     46804     46805
     46807     46806     46810     46811     46808     46806     46810     46811
     46809     46806     46810     46811     46813     46812     46816     46817
     46814     46812     46816     46817     46815     46812     46816     46817
     46819     46818     46822     46823     46820     46818     46822     46823
     46821     46818     46822     46823     46825     46824     46828     46829
     46826     46824     46828     46829     46827     46824     46828     46829
     46831     46830     46834     46835     46832     46830     46834     46835
     46833     46830     46834     46835     46837     46836     46840     46841
     46838     46836     46840     46841     46839     46836     46840     46841
     46843     46842     46846     46847     46844     46842     46846     46847
     46845     46842     46846     46847     46849     46848     46852     46853
     46850     46848     46852     46853     46851     46848     46852     46853
     46855     46854     46858     46859     46856     46854     46858     46859
     46857     46854     46858     46859     46861     46860     46864     46865
     46862     46860     46864     46865     46863     46860     46864     46865
     46867     46866     46870     46871     46868     46866     46870     46871
     46869     46866     46870     46871     46873     46872     46876     46877
     46874     46872     46876     46877     46875     46872     46876     46877
     46879     46878     46882     46883     46880     46878     46882     46883
     46881     46878     46882     46883     46885     46884     46888     46889
     46886     46884     46888     46889     46887     46884     46888     46889
     46891     46890     46894     46895     46892     46890     46894     46895
     46893     46890     46894     46895     46897     46896     46900     46901
     46898     46896     46900     46901     46899     46896     46900     46901
     46903     46902     46906     46907     46904     46902     46906     46907
     46905     46902     46906     46907     46909     46908     46912     46913
     46910     46908     46912     46913     46911     46908     46912     46913
     46915     46914     46918     46919     46916     46914     46918     46919
     46917     46914     46918     46919     46921     46920     46924     46925
     46922     46920     46924     46925     46923     46920     46924     46925
     46927     46926     46930     46931     46928     46926     46930     46931
     46929     46926     46930     46931     46933     46932     46936     46937
     46934     46932     46936     46937     46935     46932     46936     46937
     46939     46938     46942     46943     46940     46938     46942     46943
     46941     46938     46942     46943     46945     46944     46948     46949
     46946     46944     46948     46949     46947     46944     46948     46949
     46951     46950     46954     46955     46952     46950     46954     46955
     46953     46950     46954     46955     46957     46956     46960     46961
     46958     46956     46960     46961     46959     46956     46960     46961
     46963     46962     46966     46967     46964     46962     46966     46967
     46965     46962     46966     46967     46969     46968     46972     46973
     46970     46968     46972     46973     46971     46968     46972     46973
     46975     46974     46978     46979     46976     46974     46978     46979
     46977     46974     46978     46979     46981     46980     46984     46985
     46982     46980     46984     46985     46983     46980     46984     46985
     46987     46986     46990     46991     46988     46986     46990     46991
     46989     46986     46990     46991     46993     46992     46996     46997
     46994     46992     46996     46997     46995     46992     46996     46997
     46999     46998     47002     47003     47000     46998     47002     47003
     47001     46998     47002     47003     47005     47004     47008     47009
     47006     47004     47008     47009     47007     47004     47008     47009
     47011     47010     47014     47015     47012     47010     47014     47015
     47013     47010     47014     47015     47017     47016     47020     47021
     47018     47016     47020     47021     47019     47016     47020     47021
     47023     47022     47026     47027     47024     47022     47026     47027
     47025     47022     47026     47027     47029     47028     47032     47033
     47030     47028     47032     47033     47031     47028     47032     47033
     47035     47034     47038     47039     47036     47034     47038     47039
     47037     47034     47038     47039     47041     47040     47044     47045
     47042     47040     47044     47045     47043     47040     47044     47045
     47047     47046     47050     47051     47048     47046     47050     47051
     47049     47046     47050     47051     47053     47052     47056     47057
     47054     47052     47056     47057     47055     47052     47056     47057
     47059     47058     47062     47063     47060     47058     47062     47063
     47061     47058     47062     47063     47065     47064     47068     47069
     47066     47064     47068     47069     47067     47064     47068     47069
     47071     47070     47074     47075     47072     47070     47074     47075
     47073     47070     47074     47075     47077     47076     47080     47081
     47078     47076     47080     47081     47079     47076     47080     47081
     47083     47082     47086     47087     47084     47082     47086     47087
     47085     47082     47086     47087     47089     47088     47092     47093
     47090     47088     47092     47093     47091     47088     47092     47093
     47095     47094     47098     47099     47096     47094     47098     47099
     47097     47094     47098     47099     47101     47100     47104     47105
     47102     47100     47104     47105     47103     47100     47104     47105
     47107     47106     47110     47111     47108     47106     47110     47111
     47109     47106     47110     47111     47113     47112     47116     47117
     47114     47112     47116     47117     47115     47112     47116     47117
     47119     47118     47122     47123     47120     47118     47122     47123
     47121     47118     47122     47123     47125     47124     47128     47129
     47126     47124     47128     47129     47127     47124     47128     47129
     47131     47130     47134     47135     47132     47130     47134     47135
     47133     47130     47134     47135     47137     47136     47140     47141
     47138     47136     47140     47141     47139     47136     47140     47141
     47143     47142     47146     47147     47144     47142     47146     47147
     47145     47142     47146     47147     47149     47148     47152     47153
     47150     47148     47152     47153     47151     47148     47152     47153
     47155     47154     47158     47159     47156     47154     47158     47159
     47157     47154     47158     47159     47161     47160     47164     47165
     47162     47160     47164     47165     47163     47160     47164     47165
     47167     47166     47170     47171     47168     47166     47170     47171
     47169     47166     47170     47171     47173     47172     47176     47177
     47174     47172     47176     47177     47175     47172     47176     47177
     47179     47178     47182     47183     47180     47178     47182     47183
     47181     47178     47182     47183     47185     47184     47188     47189
     47186     47184     47188     47189     47187     47184     47188     47189
     47191     47190     47194     47195     47192     47190     47194     47195
     47193     47190     47194     47195     47197     47196     47200     47201
     47198     47196     47200     47201     47199     47196     47200     47201
     47203     47202     47206     47207     47204     47202     47206     47207
     47205     47202     47206     47207     47209     47208     47212     47213
     47210     47208     47212     47213     47211     47208     47212     47213
     47215     47214     47218     47219     47216     47214     47218     47219
     47217     47214     47218     47219     47221     47220     47224     47225
     47222     47220     47224     47225     47223     47220     47224     47225
     47227     47226     47230     47231     47228     47226     47230     47231
     47229     47226     47230     47231     47233     47232     47236     47237
     47234     47232     47236     47237     47235     47232     47236     47237
     47239     47238     47242     47243     47240     47238     47242     47243
     47241     47238     47242     47243     47245     47244     47248     47249
     47246     47244     47248     47249     47247     47244     47248     47249
     47251     47250     47254     47255     47252     47250     47254     47255
     47253     47250     47254     47255     47257     47256     47260     47261
     47258     47256     47260     47261     47259     47256     47260     47261
     47263     47262     47266     47267     47264     47262     47266     47267
     47265     47262     47266     47267     47269     47268     47272     47273
     47270     47268     47272     47273     47271     47268     47272     47273
     47275     47274     47278     47279     47276     47274     47278     47279
     47277     47274     47278     47279     47281     47280     47284     47285
     47282     47280     47284     47285     47283     47280     47284     47285
     47287     47286     47290     47291     47288     47286     47290     47291
     47289     47286     47290     47291     47293     47292     47296     47297
     47294     47292     47296     47297     47295     47292     47296     47297
     47299     47298     47302     47303     47300     47298     47302     47303
     47301     47298     47302     47303     47305     47304     47308     47309
     47306     47304     47308     47309     47307     47304     47308     47309
     47311     47310     47314     47315     47312     47310     47314     47315
     47313     47310     47314     47315     47317     47316     47320     47321
     47318     47316     47320     47321     47319     47316     47320     47321
     47323     47322     47326     47327     47324     47322     47326     47327
     47325     47322     47326     47327     47329     47328     47332     47333
     47330     47328     47332     47333     47331     47328     47332     47333
     47335     47334     47338     47339     47336     47334     47338     47339
     47337     47334     47338     47339     47341     47340     47344     47345
     47342     47340     47344     47345     47343     47340     47344     47345
     47347     47346     47350     47351     47348     47346     47350     47351
     47349     47346     47350     47351     47353     47352     47356     47357
     47354     47352     47356     47357     47355     47352     47356     47357
     47359     47358     47362     47363     47360     47358     47362     47363
     47361     47358     47362     47363     47365     47364     47368     47369
     47366     47364     47368     47369     47367     47364     47368     47369
     47371     47370     47374     47375     47372     47370     47374     47375
     47373     47370     47374     47375     47377     47376     47380     47381
     47378     47376     47380     47381     47379     47376     47380     47381
     47383     47382     47386     47387     47384     47382     47386     47387
     47385     47382     47386     47387     47389     47388     47392     47393
     47390     47388     47392     47393     47391     47388     47392     47393
     47395     47394     47398     47399     47396     47394     47398     47399
     47397     47394     47398     47399     47401     47400     47404     47405
     47402     47400     47404     47405     47403     47400     47404     47405
     47407     47406     47410     47411     47408     47406     47410     47411
     47409     47406     47410     47411     47413     47412     47416     47417
     47414     47412     47416     47417     47415     47412     47416     47417
     47419     47418     47422     47423     47420     47418     47422     47423
     47421     47418     47422     47423     47425     47424     47428     47429
     47426     47424     47428     47429     47427     47424     47428     47429
     47431     47430     47434     47435     47432     47430     47434     47435
     47433     47430     47434     47435     47437     47436     47440     47441
     47438     47436     47440     47441     47439     47436     47440     47441
     47443     47442     47446     47447     47444     47442     47446     47447
     47445     47442     47446     47447     47449     47448     47452     47453
     47450     47448     47452     47453     47451     47448     47452     47453
     47455     47454     47458     47459     47456     47454     47458     47459
     47457     47454     47458     47459     47461     47460     47464     47465
     47462     47460     47464     47465     47463     47460     47464     47465
     47467     47466     47470     47471     47468     47466     47470     47471
     47469     47466     47470     47471     47473     47472     47476     47477
     47474     47472     47476     47477     47475     47472     47476     47477
     47479     47478     47482     47483     47480     47478     47482     47483
     47481     47478     47482     47483     47485     47484     47488     47489
     47486     47484     47488     47489     47487     47484     47488     47489
     47491     47490     47494     47495     47492     47490     47494     47495
     47493     47490     47494     47495     47497     47496     47500     47501
     47498     47496     47500     47501     47499     47496     47500     47501
     47503     47502     47506     47507     47504     47502     47506     47507
     47505     47502     47506     47507     47509     47508     47512     47513
     47510     47508     47512     47513     47511     47508     47512     47513
     47515     47514     47518     47519     47516     47514     47518     47519
     47517     47514     47518     47519     47521     47520     47524     47525
     47522     47520     47524     47525     47523     47520     47524     47525
     47527     47526     47530     47531     47528     47526     47530     47531
     47529     47526     47530     47531     47533     47532     47536     47537
     47534     47532     47536     47537     47535     47532     47536     47537
     47539     47538     47542     47543     47540     47538     47542     47543
     47541     47538     47542     47543     47545     47544     47548     47549
     47546     47544     47548     47549     47547     47544     47548     47549
     47551     47550     47554     47555     47552     47550     47554     47555
     47553     47550     47554     47555     47557     47556     47560     47561
     47558     47556     47560     47561     47559     47556     47560     47561
     47563     47562     47566     47567     47564     47562     47566     47567
     47565     47562     47566     47567     47569     47568     47572     47573
     47570     47568     47572     47573     47571     47568     47572     47573
     47575     47574     47578     47579     47576     47574     47578     47579
     47577     47574     47578     47579     47581     47580     47584     47585
     47582     47580     47584     47585     47583     47580     47584     47585
     47587     47586     47590     47591     47588     47586     47590     47591
     47589     47586     47590     47591     47593     47592     47596     47597
     47594     47592     47596     47597     47595     47592     47596     47597
     47599     47598     47602     47603     47600     47598     47602     47603
     47601     47598     47602     47603     47605     47604     47608     47609
     47606     47604     47608     47609     47607     47604     47608     47609
     47611     47610     47614     47615     47612     47610     47614     47615
     47613     47610     47614     47615     47617     47616     47620     47621
     47618     47616     47620     47621     47619     47616     47620     47621
     47623     47622     47626     47627     47624     47622     47626     47627
     47625     47622     47626     47627     47629     47628     47632     47633
     47630     47628     47632     47633     47631     47628     47632     47633
     47635     47634     47638     47639     47636     47634     47638     47639
     47637     47634     47638     47639     47641     47640     47644     47645
     47642     47640     47644     47645     47643     47640     47644     47645
     47647     47646     47650     47651     47648     47646     47650     47651
     47649     47646     47650     47651     47653     47652     47656     47657
     47654     47652     47656     47657     47655     47652     47656     47657
     47659     47658     47662     47663     47660     47658     47662     47663
     47661     47658     47662     47663     47665     47664     47668     47669
     47666     47664     47668     47669     47667     47664     47668     47669
     47671     47670     47674     47675     47672     47670     47674     47675
     47673     47670     47674     47675     47677     47676     47680     47681
     47678     47676     47680     47681     47679     47676     47680     47681
     47683     47682     47686     47687     47684     47682     47686     47687
     47685     47682     47686     47687     47689     47688     47692     47693
     47690     47688     47692     47693     47691     47688     47692     47693
     47695     47694     47698     47699     47696     47694     47698     47699
     47697     47694     47698     47699     47701     47700     47704     47705
     47702     47700     47704     47705     47703     47700     47704     47705
     47707     47706     47710     47711     47708     47706     47710     47711
     47709     47706     47710     47711     47713     47712     47716     47717
     47714     47712     47716     47717     47715     47712     47716     47717
     47719     47718     47722     47723     47720     47718     47722     47723
     47721     47718     47722     47723     47725     47724     47728     47729
     47726     47724     47728     47729     47727     47724     47728     47729
     47731     47730     47734     47735     47732     47730     47734     47735
     47733     47730     47734     47735     47737     47736     47740     47741
     47738     47736     47740     47741     47739     47736     47740     47741
     47743     47742     47746     47747     47744     47742     47746     47747
     47745     47742     47746     47747     47749     47748     47752     47753
     47750     47748     47752     47753     47751     47748     47752     47753
     47755     47754     47758     47759     47756     47754     47758     47759
     47757     47754     47758     47759     47761     47760     47764     47765
     47762     47760     47764     47765     47763     47760     47764     47765
     47767     47766     47770     47771     47768     47766     47770     47771
     47769     47766     47770     47771     47773     47772     47776     47777
     47774     47772     47776     47777     47775     47772     47776     47777
     47779     47778     47782     47783     47780     47778     47782     47783
     47781     47778     47782     47783     47785     47784     47788     47789
     47786     47784     47788     47789     47787     47784     47788     47789
     47791     47790     47794     47795     47792     47790     47794     47795
     47793     47790     47794     47795     47797     47796     47800     47801
     47798     47796     47800     47801     47799     47796     47800     47801
     47803     47802     47806     47807     47804     47802     47806     47807
     47805     47802     47806     47807     47809     47808     47812     47813
     47810     47808     47812     47813     47811     47808     47812     47813
     47815     47814     47818     47819     47816     47814     47818     47819
     47817     47814     47818     47819     47821     47820     47824     47825
     47822     47820     47824     47825     47823     47820     47824     47825
     47827     47826     47830     47831     47828     47826     47830     47831
     47829     47826     47830     47831     47833     47832     47836     47837
     47834     47832     47836     47837     47835     47832     47836     47837
     47839     47838     47842     47843     47840     47838     47842     47843
     47841     47838     47842     47843     47845     47844     47848     47849
     47846     47844     47848     47849     47847     47844     47848     47849
     47851     47850     47854     47855     47852     47850     47854     47855
     47853     47850     47854     47855     47857     47856     47860     47861
     47858     47856     47860     47861     47859     47856     47860     47861
     47863     47862     47866     47867     47864     47862     47866     47867
     47865     47862     47866     47867     47869     47868     47872     47873
     47870     47868     47872     47873     47871     47868     47872     47873
     47875     47874     47878     47879     47876     47874     47878     47879
     47877     47874     47878     47879     47881     47880     47884     47885
     47882     47880     47884     47885     47883     47880     47884     47885
     47887     47886     47890     47891     47888     47886     47890     47891
     47889     47886     47890     47891     47893     47892     47896     47897
     47894     47892     47896     47897     47895     47892     47896     47897
     47899     47898     47902     47903     47900     47898     47902     47903
     47901     47898     47902     47903     47905     47904     47908     47909
     47906     47904     47908     47909     47907     47904     47908     47909
     47911     47910     47914     47915     47912     47910     47914     47915
     47913     47910     47914     47915     47917     47916     47920     47921
     47918     47916     47920     47921     47919     47916     47920     47921
     47923     47922     47926     47927     47924     47922     47926     47927
     47925     47922     47926     47927     47929     47928     47932     47933
     47930     47928     47932     47933     47931     47928     47932     47933
     47935     47934     47938     47939     47936     47934     47938     47939
     47937     47934     47938     47939     47941     47940     47944     47945
     47942     47940     47944     47945     47943     47940     47944     47945
     47947     47946     47950     47951     47948     47946     47950     47951
     47949     47946     47950     47951     47953     47952     47956     47957
     47954     47952     47956     47957     47955     47952     47956     47957
     47959     47958     47962     47963     47960     47958     47962     47963
     47961     47958     47962     47963     47965     47964     47968     47969
     47966     47964     47968     47969     47967     47964     47968     47969
     47971     47970     47974     47975     47972     47970     47974     47975
     47973     47970     47974     47975     47977     47976     47980     47981
     47978     47976     47980     47981     47979     47976     47980     47981
     47983     47982     47986     47987     47984     47982     47986     47987
     47985     47982     47986     47987     47989     47988     47992     47993
     47990     47988     47992     47993     47991     47988     47992     47993
     47995     47994     47998     47999     47996     47994     47998     47999
     47997     47994     47998     47999     48001     48000     48004     48005
     48002     48000     48004     48005     48003     48000     48004     48005
     48007     48006     48010     48011     48008     48006     48010     48011
     48009     48006     48010     48011     48013     48012     48016     48017
     48014     48012     48016     48017     48015     48012     48016     48017
     48019     48018     48022     48023     48020     48018     48022     48023
     48021     48018     48022     48023     48025     48024     48028     48029
     48026     48024     48028     48029     48027     48024     48028     48029
     48031     48030     48034     48035     48032     48030     48034     48035
     48033     48030     48034     48035     48037     48036     48040     48041
     48038     48036     48040     48041     48039     48036     48040     48041
     48043     48042     48046     48047     48044     48042     48046     48047
     48045     48042     48046     48047     48049     48048     48052     48053
     48050     48048     48052     48053     48051     48048     48052     48053
     48055     48054     48058     48059     48056     48054     48058     48059
     48057     48054     48058     48059     48061     48060     48064     48065
     48062     48060     48064     48065     48063     48060     48064     48065
     48067     48066     48070     48071     48068     48066     48070     48071
     48069     48066     48070     48071     48073     48072     48076     48077
     48074     48072     48076     48077     48075     48072     48076     48077
     48079     48078     48082     48083     48080     48078     48082     48083
     48081     48078     48082     48083     48085     48084     48088     48089
     48086     48084     48088     48089     48087     48084     48088     48089
     48091     48090     48094     48095     48092     48090     48094     48095
     48093     48090     48094     48095     48097     48096     48100     48101
     48098     48096     48100     48101     48099     48096     48100     48101
     48103     48102     48106     48107     48104     48102     48106     48107
     48105     48102     48106     48107     48109     48108     48112     48113
     48110     48108     48112     48113     48111     48108     48112     48113
     48115     48114     48118     48119     48116     48114     48118     48119
     48117     48114     48118     48119     48121     48120     48124     48125
     48122     48120     48124     48125     48123     48120     48124     48125
     48127     48126     48130     48131     48128     48126     48130     48131
     48129     48126     48130     48131     48133     48132     48136     48137
     48134     48132     48136     48137     48135     48132     48136     48137
     48139     48138     48142     48143     48140     48138     48142     48143
     48141     48138     48142     48143     48145     48144     48148     48149
     48146     48144     48148     48149     48147     48144     48148     48149
     48151     48150     48154     48155     48152     48150     48154     48155
     48153     48150     48154     48155     48157     48156     48160     48161
     48158     48156     48160     48161     48159     48156     48160     48161
     48163     48162     48166     48167     48164     48162     48166     48167
     48165     48162     48166     48167     48169     48168     48172     48173
     48170     48168     48172     48173     48171     48168     48172     48173
     48175     48174     48178     48179     48176     48174     48178     48179
     48177     48174     48178     48179     48181     48180     48184     48185
     48182     48180     48184     48185     48183     48180     48184     48185
     48187     48186     48190     48191     48188     48186     48190     48191
     48189     48186     48190     48191     48193     48192     48196     48197
     48194     48192     48196     48197     48195     48192     48196     48197
     48199     48198     48202     48203     48200     48198     48202     48203
     48201     48198     48202     48203     48205     48204     48208     48209
     48206     48204     48208     48209     48207     48204     48208     48209
     48211     48210     48214     48215     48212     48210     48214     48215
     48213     48210     48214     48215     48217     48216     48220     48221
     48218     48216     48220     48221     48219     48216     48220     48221
     48223     48222     48226     48227     48224     48222     48226     48227
     48225     48222     48226     48227     48229     48228     48232     48233
     48230     48228     48232     48233     48231     48228     48232     48233
     48235     48234     48238     48239     48236     48234     48238     48239
     48237     48234     48238     48239     48241     48240     48244     48245
     48242     48240     48244     48245     48243     48240     48244     48245
     48247     48246     48250     48251     48248     48246     48250     48251
     48249     48246     48250     48251     48253     48252     48256     48257
     48254     48252     48256     48257     48255     48252     48256     48257
     48259     48258     48262     48263     48260     48258     48262     48263
     48261     48258     48262     48263     48265     48264     48268     48269
     48266     48264     48268     48269     48267     48264     48268     48269
     48271     48270     48274     48275     48272     48270     48274     48275
     48273     48270     48274     48275     48277     48276     48280     48281
     48278     48276     48280     48281     48279     48276     48280     48281
     48283     48282     48286     48287     48284     48282     48286     48287
     48285     48282     48286     48287     48289     48288     48292     48293
     48290     48288     48292     48293     48291     48288     48292     48293
     48295     48294     48298     48299     48296     48294     48298     48299
     48297     48294     48298     48299     48301     48300     48304     48305
     48302     48300     48304     48305     48303     48300     48304     48305
     48307     48306     48310     48311     48308     48306     48310     48311
     48309     48306     48310     48311     48313     48312     48316     48317
     48314     48312     48316     48317     48315     48312     48316     48317
     48319     48318     48322     48323     48320     48318     48322     48323
     48321     48318     48322     48323     48325     48324     48328     48329
     48326     48324     48328     48329     48327     48324     48328     48329
     48331     48330     48334     48335     48332     48330     48334     48335
     48333     48330     48334     48335     48337     48336     48340     48341
     48338     48336     48340     48341     48339     48336     48340     48341
     48343     48342     48346     48347     48344     48342     48346     48347
     48345     48342     48346     48347     48349     48348     48352     48353
     48350     48348     48352     48353     48351     48348     48352     48353
     48355     48354     48358     48359     48356     48354     48358     48359
     48357     48354     48358     48359     48361     48360     48364     48365
     48362     48360     48364     48365     48363     48360     48364     48365
     48367     48366     48370     48371     48368     48366     48370     48371
     48369     48366     48370     48371     48373     48372     48376     48377
     48374     48372     48376     48377     48375     48372     48376     48377
     48379     48378     48382     48383     48380     48378     48382     48383
     48381     48378     48382     48383     48385     48384     48388     48389
     48386     48384     48388     48389     48387     48384     48388     48389
     48391     48390     48394     48395     48392     48390     48394     48395
     48393     48390     48394     48395     48397     48396     48400     48401
     48398     48396     48400     48401     48399     48396     48400     48401
     48403     48402     48406     48407     48404     48402     48406     48407
     48405     48402     48406     48407     48409     48408     48412     48413
     48410     48408     48412     48413     48411     48408     48412     48413
     48415     48414     48418     48419     48416     48414     48418     48419
     48417     48414     48418     48419     48421     48420     48424     48425
     48422     48420     48424     48425     48423     48420     48424     48425
     48427     48426     48430     48431     48428     48426     48430     48431
     48429     48426     48430     48431     48433     48432     48436     48437
     48434     48432     48436     48437     48435     48432     48436     48437
     48439     48438     48442     48443     48440     48438     48442     48443
     48441     48438     48442     48443     48445     48444     48448     48449
     48446     48444     48448     48449     48447     48444     48448     48449
     48451     48450     48454     48455     48452     48450     48454     48455
     48453     48450     48454     48455     48457     48456     48460     48461
     48458     48456     48460     48461     48459     48456     48460     48461
     48463     48462     48466     48467     48464     48462     48466     48467
     48465     48462     48466     48467     48469     48468     48472     48473
     48470     48468     48472     48473     48471     48468     48472     48473
     48475     48474     48478     48479     48476     48474     48478     48479
     48477     48474     48478     48479     48481     48480     48484     48485
     48482     48480     48484     48485     48483     48480     48484     48485
     48487     48486     48490     48491     48488     48486     48490     48491
     48489     48486     48490     48491     48493     48492     48496     48497
     48494     48492     48496     48497     48495     48492     48496     48497
     48499     48498     48502     48503     48500     48498     48502     48503
     48501     48498     48502     48503     48505     48504     48508     48509
     48506     48504     48508     48509     48507     48504     48508     48509
     48511     48510     48514     48515     48512     48510     48514     48515
     48513     48510     48514     48515     48517     48516     48520     48521
     48518     48516     48520     48521     48519     48516     48520     48521
     48523     48522     48526     48527     48524     48522     48526     48527
     48525     48522     48526     48527     48529     48528     48532     48533
     48530     48528     48532     48533     48531     48528     48532     48533
     48535     48534     48538     48539     48536     48534     48538     48539
     48537     48534     48538     48539     48541     48540     48544     48545
     48542     48540     48544     48545     48543     48540     48544     48545
     48547     48546     48550     48551     48548     48546     48550     48551
     48549     48546     48550     48551     48553     48552     48556     48557
     48554     48552     48556     48557     48555     48552     48556     48557
     48559     48558     48562     48563     48560     48558     48562     48563
     48561     48558     48562     48563     48565     48564     48568     48569
     48566     48564     48568     48569     48567     48564     48568     48569
     48571     48570     48574     48575     48572     48570     48574     48575
     48573     48570     48574     48575     48577     48576     48580     48581
     48578     48576     48580     48581     48579     48576     48580     48581
     48583     48582     48586     48587     48584     48582     48586     48587
     48585     48582     48586     48587     48589     48588     48592     48593
     48590     48588     48592     48593     48591     48588     48592     48593
     48595     48594     48598     48599     48596     48594     48598     48599
     48597     48594     48598     48599     48601     48600     48604     48605
     48602     48600     48604     48605     48603     48600     48604     48605
     48607     48606     48610     48611     48608     48606     48610     48611
     48609     48606     48610     48611     48613     48612     48616     48617
     48614     48612     48616     48617     48615     48612     48616     48617
     48619     48618     48622     48623     48620     48618     48622     48623
     48621     48618     48622     48623     48625     48624     48628     48629
     48626     48624     48628     48629     48627     48624     48628     48629
     48631     48630     48634     48635     48632     48630     48634     48635
     48633     48630     48634     48635     48637     48636     48640     48641
     48638     48636     48640     48641     48639     48636     48640     48641
     48643     48642     48646     48647     48644     48642     48646     48647
     48645     48642     48646     48647     48649     48648     48652     48653
     48650     48648     48652     48653     48651     48648     48652     48653
     48655     48654     48658     48659     48656     48654     48658     48659
     48657     48654     48658     48659     48661     48660     48664     48665
     48662     48660     48664     48665     48663     48660     48664     48665
     48667     48666     48670     48671     48668     48666     48670     48671
     48669     48666     48670     48671     48673     48672     48676     48677
     48674     48672     48676     48677     48675     48672     48676     48677
     48679     48678     48682     48683     48680     48678     48682     48683
     48681     48678     48682     48683     48685     48684     48688     48689
     48686     48684     48688     48689     48687     48684     48688     48689
     48691     48690     48694     48695     48692     48690     48694     48695
     48693     48690     48694     48695     48697     48696     48700     48701
     48698     48696     48700     48701     48699     48696     48700     48701
     48703     48702     48706     48707     48704     48702     48706     48707
     48705     48702     48706     48707     48709     48708     48712     48713
     48710     48708     48712     48713     48711     48708     48712     48713
     48715     48714     48718     48719     48716     48714     48718     48719
     48717     48714     48718     48719     48721     48720     48724     48725
     48722     48720     48724     48725     48723     48720     48724     48725
     48727     48726     48730     48731     48728     48726     48730     48731
     48729     48726     48730     48731     48733     48732     48736     48737
     48734     48732     48736     48737     48735     48732     48736     48737
     48739     48738     48742     48743     48740     48738     48742     48743
     48741     48738     48742     48743     48745     48744     48748     48749
     48746     48744     48748     48749     48747     48744     48748     48749
     48751     48750     48754     48755     48752     48750     48754     48755
     48753     48750     48754     48755     48757     48756     48760     48761
     48758     48756     48760     48761     48759     48756     48760     48761
     48763     48762     48766     48767     48764     48762     48766     48767
     48765     48762     48766     48767     48769     48768     48772     48773
     48770     48768     48772     48773     48771     48768     48772     48773
     48775     48774     48778     48779     48776     48774     48778     48779
     48777     48774     48778     48779     48781     48780     48784     48785
     48782     48780     48784     48785     48783     48780     48784     48785
     48787     48786     48790     48791     48788     48786     48790     48791
     48789     48786     48790     48791     48793     48792     48796     48797
     48794     48792     48796     48797     48795     48792     48796     48797
     48799     48798     48802     48803     48800     48798     48802     48803
     48801     48798     48802     48803     48805     48804     48808     48809
     48806     48804     48808     48809     48807     48804     48808     48809
     48811     48810     48814     48815     48812     48810     48814     48815
     48813     48810     48814     48815     48817     48816     48820     48821
     48818     48816     48820     48821     48819     48816     48820     48821
     48823     48822     48826     48827     48824     48822     48826     48827
     48825     48822     48826     48827     48829     48828     48832     48833
     48830     48828     48832     48833     48831     48828     48832     48833
     48835     48834     48838     48839     48836     48834     48838     48839
     48837     48834     48838     48839     48841     48840     48844     48845
     48842     48840     48844     48845     48843     48840     48844     48845
     48847     48846     48850     48851     48848     48846     48850     48851
     48849     48846     48850     48851     48853     48852     48856     48857
     48854     48852     48856     48857     48855     48852     48856     48857
     48859     48858     48862     48863     48860     48858     48862     48863
     48861     48858     48862     48863     48865     48864     48868     48869
     48866     48864     48868     48869     48867     48864     48868     48869
     48871     48870     48874     48875     48872     48870     48874     48875
     48873     48870     48874     48875     48877     48876     48880     48881
     48878     48876     48880     48881     48879     48876     48880     48881
     48883     48882     48886     48887     48884     48882     48886     48887
     48885     48882     48886     48887     48889     48888     48892     48893
     48890     48888     48892     48893     48891     48888     48892     48893
     48895     48894     48898     48899     48896     48894     48898     48899
     48897     48894     48898     48899     48901     48900     48904     48905
     48902     48900     48904     48905     48903     48900     48904     48905
     48907     48906     48910     48911     48908     48906     48910     48911
     48909     48906     48910     48911     48913     48912     48916     48917
     48914     48912     48916     48917     48915     48912     48916     48917
     48919     48918     48922     48923     48920     48918     48922     48923
     48921     48918     48922     48923     48925     48924     48928     48929
     48926     48924     48928     48929     48927     48924     48928     48929
     48931     48930     48934     48935     48932     48930     48934     48935
     48933     48930     48934     48935     48937     48936     48940     48941
     48938     48936     48940     48941     48939     48936     48940     48941
     48943     48942     48946     48947     48944     48942     48946     48947
     48945     48942     48946     48947     48949     48948     48952     48953
     48950     48948     48952     48953     48951     48948     48952     48953
     48955     48954     48958     48959     48956     48954     48958     48959
     48957     48954     48958     48959     48961     48960     48964     48965
     48962     48960     48964     48965     48963     48960     48964     48965
     48967     48966     48970     48971     48968     48966     48970     48971
     48969     48966     48970     48971     48973     48972     48976     48977
     48974     48972     48976     48977     48975     48972     48976     48977
     48979     48978     48982     48983     48980     48978     48982     48983
     48981     48978     48982     48983     48985     48984     48988     48989
     48986     48984     48988     48989     48987     48984     48988     48989
     48991     48990     48994     48995     48992     48990     48994     48995
     48993     48990     48994     48995     48997     48996     49000     49001
     48998     48996     49000     49001     48999     48996     49000     49001
     49003     49002     49006     49007     49004     49002     49006     49007
     49005     49002     49006     49007     49009     49008     49012     49013
     49010     49008     49012     49013     49011     49008     49012     49013
     49015     49014     49018     49019     49016     49014     49018     49019
     49017     49014     49018     49019     49021     49020     49024     49025
     49022     49020     49024     49025     49023     49020     49024     49025
     49027     49026     49030     49031     49028     49026     49030     49031
     49029     49026     49030     49031     49033     49032     49036     49037
     49034     49032     49036     49037     49035     49032     49036     49037
     49039     49038     49042     49043     49040     49038     49042     49043
     49041     49038     49042     49043     49045     49044     49048     49049
     49046     49044     49048     49049     49047     49044     49048     49049
     49051     49050     49054     49055     49052     49050     49054     49055
     49053     49050     49054     49055     49057     49056     49060     49061
     49058     49056     49060     49061     49059     49056     49060     49061
     49063     49062     49066     49067     49064     49062     49066     49067
     49065     49062     49066     49067     49069     49068     49072     49073
     49070     49068     49072     49073     49071     49068     49072     49073
     49075     49074     49078     49079     49076     49074     49078     49079
     49077     49074     49078     49079     49081     49080     49084     49085
     49082     49080     49084     49085     49083     49080     49084     49085
     49087     49086     49090     49091     49088     49086     49090     49091
     49089     49086     49090     49091     49093     49092     49096     49097
     49094     49092     49096     49097     49095     49092     49096     49097
     49099     49098     49102     49103     49100     49098     49102     49103
     49101     49098     49102     49103     49105     49104     49108     49109
     49106     49104     49108     49109     49107     49104     49108     49109
     49111     49110     49114     49115     49112     49110     49114     49115
     49113     49110     49114     49115     49117     49116     49120     49121
     49118     49116     49120     49121     49119     49116     49120     49121
     49123     49122     49126     49127     49124     49122     49126     49127
     49125     49122     49126     49127     49129     49128     49132     49133
     49130     49128     49132     49133     49131     49128     49132     49133
     49135     49134     49138     49139     49136     49134     49138     49139
     49137     49134     49138     49139     49141     49140     49144     49145
     49142     49140     49144     49145     49143     49140     49144     49145
     49147     49146     49150     49151     49148     49146     49150     49151
     49149     49146     49150     49151     49153     49152     49156     49157
     49154     49152     49156     49157     49155     49152     49156     49157
     49159     49158     49162     49163     49160     49158     49162     49163
     49161     49158     49162     49163     49165     49164     49168     49169
     49166     49164     49168     49169     49167     49164     49168     49169
     49171     49170     49174     49175     49172     49170     49174     49175
     49173     49170     49174     49175     49177     49176     49180     49181
     49178     49176     49180     49181     49179     49176     49180     49181
     49183     49182     49186     49187     49184     49182     49186     49187
     49185     49182     49186     49187     49189     49188     49192     49193
     49190     49188     49192     49193     49191     49188     49192     49193
     49195     49194     49198     49199     49196     49194     49198     49199
     49197     49194     49198     49199     49201     49200     49204     49205
     49202     49200     49204     49205     49203     49200     49204     49205
     49207     49206     49210     49211     49208     49206     49210     49211
     49209     49206     49210     49211     49213     49212     49216     49217
     49214     49212     49216     49217     49215     49212     49216     49217
     49219     49218     49222     49223     49220     49218     49222     49223
     49221     49218     49222     49223     49225     49224     49228     49229
     49226     49224     49228     49229     49227     49224     49228     49229
     49231     49230     49234     49235     49232     49230     49234     49235
     49233     49230     49234     49235     49237     49236     49240     49241
     49238     49236     49240     49241     49239     49236     49240     49241
     49243     49242     49246     49247     49244     49242     49246     49247
     49245     49242     49246     49247     49249     49248     49252     49253
     49250     49248     49252     49253     49251     49248     49252     49253
     49255     49254     49258     49259     49256     49254     49258     49259
     49257     49254     49258     49259     49261     49260     49264     49265
     49262     49260     49264     49265     49263     49260     49264     49265
     49267     49266     49270     49271     49268     49266     49270     49271
     49269     49266     49270     49271     49273     49272     49276     49277
     49274     49272     49276     49277     49275     49272     49276     49277
     49279     49278     49282     49283     49280     49278     49282     49283
     49281     49278     49282     49283     49285     49284     49288     49289
     49286     49284     49288     49289     49287     49284     49288     49289
     49291     49290     49294     49295     49292     49290     49294     49295
     49293     49290     49294     49295     49297     49296     49300     49301
     49298     49296     49300     49301     49299     49296     49300     49301
     49303     49302     49306     49307     49304     49302     49306     49307
     49305     49302     49306     49307     49309     49308     49312     49313
     49310     49308     49312     49313     49311     49308     49312     49313
     49315     49314     49318     49319     49316     49314     49318     49319
     49317     49314     49318     49319     49321     49320     49324     49325
     49322     49320     49324     49325     49323     49320     49324     49325
     49327     49326     49330     49331     49328     49326     49330     49331
     49329     49326     49330     49331     49333     49332     49336     49337
     49334     49332     49336     49337     49335     49332     49336     49337
     49339     49338     49342     49343     49340     49338     49342     49343
     49341     49338     49342     49343     49345     49344     49348     49349
     49346     49344     49348     49349     49347     49344     49348     49349
     49351     49350     49354     49355     49352     49350     49354     49355
     49353     49350     49354     49355     49357     49356     49360     49361
     49358     49356     49360     49361     49359     49356     49360     49361
     49363     49362     49366     49367     49364     49362     49366     49367
     49365     49362     49366     49367     49369     49368     49372     49373
     49370     49368     49372     49373     49371     49368     49372     49373
     49375     49374     49378     49379     49376     49374     49378     49379
     49377     49374     49378     49379     49381     49380     49384     49385
     49382     49380     49384     49385     49383     49380     49384     49385
     49387     49386     49390     49391     49388     49386     49390     49391
     49389     49386     49390     49391     49393     49392     49396     49397
     49394     49392     49396     49397     49395     49392     49396     49397
     49399     49398     49402     49403     49400     49398     49402     49403
     49401     49398     49402     49403     49405     49404     49408     49409
     49406     49404     49408     49409     49407     49404     49408     49409
     49411     49410     49414     49415     49412     49410     49414     49415
     49413     49410     49414     49415     49417     49416     49420     49421
     49418     49416     49420     49421     49419     49416     49420     49421
     49423     49422     49426     49427     49424     49422     49426     49427
     49425     49422     49426     49427     49429     49428     49432     49433
     49430     49428     49432     49433     49431     49428     49432     49433
     49435     49434     49438     49439     49436     49434     49438     49439
     49437     49434     49438     49439     49441     49440     49444     49445
     49442     49440     49444     49445     49443     49440     49444     49445
     49447     49446     49450     49451     49448     49446     49450     49451
     49449     49446     49450     49451     49453     49452     49456     49457
     49454     49452     49456     49457     49455     49452     49456     49457
     49459     49458     49462     49463     49460     49458     49462     49463
     49461     49458     49462     49463     49465     49464     49468     49469
     49466     49464     49468     49469     49467     49464     49468     49469
     49471     49470     49474     49475     49472     49470     49474     49475
     49473     49470     49474     49475     49477     49476     49480     49481
     49478     49476     49480     49481     49479     49476     49480     49481
     49483     49482     49486     49487     49484     49482     49486     49487
     49485     49482     49486     49487     49489     49488     49492     49493
     49490     49488     49492     49493     49491     49488     49492     49493
     49495     49494     49498     49499     49496     49494     49498     49499
     49497     49494     49498     49499     49501     49500     49504     49505
     49502     49500     49504     49505     49503     49500     49504     49505
     49507     49506     49510     49511     49508     49506     49510     49511
     49509     49506     49510     49511     49513     49512     49516     49517
     49514     49512     49516     49517     49515     49512     49516     49517
     49519     49518     49522     49523     49520     49518     49522     49523
     49521     49518     49522     49523     49525     49524     49528     49529
     49526     49524     49528     49529     49527     49524     49528     49529
     49531     49530     49534     49535     49532     49530     49534     49535
     49533     49530     49534     49535     49537     49536     49540     49541
     49538     49536     49540     49541     49539     49536     49540     49541
     49543     49542     49546     49547     49544     49542     49546     49547
     49545     49542     49546     49547     49549     49548     49552     49553
     49550     49548     49552     49553     49551     49548     49552     49553
     49555     49554     49558     49559     49556     49554     49558     49559
     49557     49554     49558     49559     49561     49560     49564     49565
     49562     49560     49564     49565     49563     49560     49564     49565
     49567     49566     49570     49571     49568     49566     49570     49571
     49569     49566     49570     49571     49573     49572     49576     49577
     49574     49572     49576     49577     49575     49572     49576     49577
     49579     49578     49582     49583     49580     49578     49582     49583
     49581     49578     49582     49583     49585     49584     49588     49589
     49586     49584     49588     49589     49587     49584     49588     49589
     49591     49590     49594     49595     49592     49590     49594     49595
     49593     49590     49594     49595     49597     49596     49600     49601
     49598     49596     49600     49601     49599     49596     49600     49601
     49603     49602     49606     49607     49604     49602     49606     49607
     49605     49602     49606     49607     49609     49608     49612     49613
     49610     49608     49612     49613     49611     49608     49612     49613
     49615     49614     49618     49619     49616     49614     49618     49619
     49617     49614     49618     49619     49621     49620     49624     49625
     49622     49620     49624     49625     49623     49620     49624     49625
     49627     49626     49630     49631     49628     49626     49630     49631
     49629     49626     49630     49631     49633     49632     49636     49637
     49634     49632     49636     49637     49635     49632     49636     49637
     49639     49638     49642     49643     49640     49638     49642     49643
     49641     49638     49642     49643     49645     49644     49648     49649
     49646     49644     49648     49649     49647     49644     49648     49649
     49651     49650     49654     49655     49652     49650     49654     49655
     49653     49650     49654     49655     49657     49656     49660     49661
     49658     49656     49660     49661     49659     49656     49660     49661
     49663     49662     49666     49667     49664     49662     49666     49667
     49665     49662     49666     49667     49669     49668     49672     49673
     49670     49668     49672     49673     49671     49668     49672     49673
     49675     49674     49678     49679     49676     49674     49678     49679
     49677     49674     49678     49679     49681     49680     49684     49685
     49682     49680     49684     49685     49683     49680     49684     49685
     49687     49686     49690     49691     49688     49686     49690     49691
     49689     49686     49690     49691     49693     49692     49696     49697
     49694     49692     49696     49697     49695     49692     49696     49697
     49699     49698     49702     49703     49700     49698     49702     49703
     49701     49698     49702     49703     49705     49704     49708     49709
     49706     49704     49708     49709     49707     49704     49708     49709
     49711     49710     49714     49715     49712     49710     49714     49715
     49713     49710     49714     49715     49717     49716     49720     49721
     49718     49716     49720     49721     49719     49716     49720     49721
     49723     49722     49726     49727     49724     49722     49726     49727
     49725     49722     49726     49727     49729     49728     49732     49733
     49730     49728     49732     49733     49731     49728     49732     49733
     49735     49734     49738     49739     49736     49734     49738     49739
     49737     49734     49738     49739     49741     49740     49744     49745
     49742     49740     49744     49745     49743     49740     49744     49745
     49747     49746     49750     49751     49748     49746     49750     49751
     49749     49746     49750     49751     49753     49752     49756     49757
     49754     49752     49756     49757     49755     49752     49756     49757
     49759     49758     49762     49763     49760     49758     49762     49763
     49761     49758     49762     49763     49765     49764     49768     49769
     49766     49764     49768     49769     49767     49764     49768     49769
     49771     49770     49774     49775     49772     49770     49774     49775
     49773     49770     49774     49775     49777     49776     49780     49781
     49778     49776     49780     49781     49779     49776     49780     49781
     49783     49782     49786     49787     49784     49782     49786     49787
     49785     49782     49786     49787     49789     49788     49792     49793
     49790     49788     49792     49793     49791     49788     49792     49793
     49795     49794     49798     49799     49796     49794     49798     49799
     49797     49794     49798     49799     49801     49800     49804     49805
     49802     49800     49804     49805     49803     49800     49804     49805
     49807     49806     49810     49811     49808     49806     49810     49811
     49809     49806     49810     49811     49813     49812     49816     49817
     49814     49812     49816     49817     49815     49812     49816     49817
     49819     49818     49822     49823     49820     49818     49822     49823
     49821     49818     49822     49823     49825     49824     49828     49829
     49826     49824     49828     49829     49827     49824     49828     49829
     49831     49830     49834     49835     49832     49830     49834     49835
     49833     49830     49834     49835     49837     49836     49840     49841
     49838     49836     49840     49841     49839     49836     49840     49841
     49843     49842     49846     49847     49844     49842     49846     49847
     49845     49842     49846     49847     49849     49848     49852     49853
     49850     49848     49852     49853     49851     49848     49852     49853
     49855     49854     49858     49859     49856     49854     49858     49859
     49857     49854     49858     49859     49861     49860     49864     49865
     49862     49860     49864     49865     49863     49860     49864     49865
     49867     49866     49870     49871     49868     49866     49870     49871
     49869     49866     49870     49871     49873     49872     49876     49877
     49874     49872     49876     49877     49875     49872     49876     49877
     49879     49878     49882     49883     49880     49878     49882     49883
     49881     49878     49882     49883     49885     49884     49888     49889
     49886     49884     49888     49889     49887     49884     49888     49889
     49891     49890     49894     49895     49892     49890     49894     49895
     49893     49890     49894     49895     49897     49896     49900     49901
     49898     49896     49900     49901     49899     49896     49900     49901
     49903     49902     49906     49907     49904     49902     49906     49907
     49905     49902     49906     49907     49909     49908     49912     49913
     49910     49908     49912     49913     49911     49908     49912     49913
     49915     49914     49918     49919     49916     49914     49918     49919
     49917     49914     49918     49919     49921     49920     49924     49925
     49922     49920     49924     49925     49923     49920     49924     49925
     49927     49926     49930     49931     49928     49926     49930     49931
     49929     49926     49930     49931     49933     49932     49936     49937
     49934     49932     49936     49937     49935     49932     49936     49937
     49939     49938     49942     49943     49940     49938     49942     49943
     49941     49938     49942     49943     49945     49944     49948     49949
     49946     49944     49948     49949     49947     49944     49948     49949
     49951     49950     49954     49955     49952     49950     49954     49955
     49953     49950     49954     49955     49957     49956     49960     49961
     49958     49956     49960     49961     49959     49956     49960     49961
     49963     49962     49966     49967     49964     49962     49966     49967
     49965     49962     49966     49967     49969     49968     49972     49973
     49970     49968     49972     49973     49971     49968     49972     49973
     49975     49974     49978     49979     49976     49974     49978     49979
     49977     49974     49978     49979     49981     49980     49984     49985
     49982     49980     49984     49985     49983     49980     49984     49985
     49987     49986     49990     49991     49988     49986     49990     49991
     49989     49986     49990     49991     49993     49992     49996     49997
     49994     49992     49996     49997     49995     49992     49996     49997
     49999     49998     50002     50003     50000     49998     50002     50003
     50001     49998     50002     50003     50005     50004     50008     50009
     50006     50004     50008     50009     50007     50004     50008     50009
     50011     50010     50014     50015     50012     50010     50014     50015
     50013     50010     50014     50015     50017     50016     50020     50021
     50018     50016     50020     50021     50019     50016     50020     50021
     50023     50022     50026     50027     50024     50022     50026     50027
     50025     50022     50026     50027     50029     50028     50032     50033
     50030     50028     50032     50033     50031     50028     50032     50033
     50035     50034     50038     50039     50036     50034     50038     50039
     50037     50034     50038     50039     50041     50040     50044     50045
     50042     50040     50044     50045     50043     50040     50044     50045
     50047     50046     50050     50051     50048     50046     50050     50051
     50049     50046     50050     50051     50053     50052     50056     50057
     50054     50052     50056     50057     50055     50052     50056     50057
     50059     50058     50062     50063     50060     50058     50062     50063
     50061     50058     50062     50063     50065     50064     50068     50069
     50066     50064     50068     50069     50067     50064     50068     50069
     50071     50070     50074     50075     50072     50070     50074     50075
     50073     50070     50074     50075     50077     50076     50080     50081
     50078     50076     50080     50081     50079     50076     50080     50081
     50083     50082     50086     50087     50084     50082     50086     50087
     50085     50082     50086     50087     50089     50088     50092     50093
     50090     50088     50092     50093     50091     50088     50092     50093
     50095     50094     50098     50099     50096     50094     50098     50099
     50097     50094     50098     50099     50101     50100     50104     50105
     50102     50100     50104     50105     50103     50100     50104     50105
     50107     50106     50110     50111     50108     50106     50110     50111
     50109     50106     50110     50111     50113     50112     50116     50117
     50114     50112     50116     50117     50115     50112     50116     50117
     50119     50118     50122     50123     50120     50118     50122     50123
     50121     50118     50122     50123     50125     50124     50128     50129
     50126     50124     50128     50129     50127     50124     50128     50129
     50131     50130     50134     50135     50132     50130     50134     50135
     50133     50130     50134     50135     50137     50136     50140     50141
     50138     50136     50140     50141     50139     50136     50140     50141
     50143     50142     50146     50147     50144     50142     50146     50147
     50145     50142     50146     50147     50149     50148     50152     50153
     50150     50148     50152     50153     50151     50148     50152     50153
     50155     50154     50158     50159     50156     50154     50158     50159
     50157     50154     50158     50159     50161     50160     50164     50165
     50162     50160     50164     50165     50163     50160     50164     50165
     50167     50166     50170     50171     50168     50166     50170     50171
     50169     50166     50170     50171     50173     50172     50176     50177
     50174     50172     50176     50177     50175     50172     50176     50177
     50179     50178     50182     50183     50180     50178     50182     50183
     50181     50178     50182     50183     50185     50184     50188     50189
     50186     50184     50188     50189     50187     50184     50188     50189
     50191     50190     50194     50195     50192     50190     50194     50195
     50193     50190     50194     50195     50197     50196     50200     50201
     50198     50196     50200     50201     50199     50196     50200     50201
     50203     50202     50206     50207     50204     50202     50206     50207
     50205     50202     50206     50207     50209     50208     50212     50213
     50210     50208     50212     50213     50211     50208     50212     50213
     50215     50214     50218     50219     50216     50214     50218     50219
     50217     50214     50218     50219     50221     50220     50224     50225
     50222     50220     50224     50225     50223     50220     50224     50225
     50227     50226     50230     50231     50228     50226     50230     50231
     50229     50226     50230     50231     50233     50232     50236     50237
     50234     50232     50236     50237     50235     50232     50236     50237
     50239     50238     50242     50243     50240     50238     50242     50243
     50241     50238     50242     50243     50245     50244     50248     50249
     50246     50244     50248     50249     50247     50244     50248     50249
     50251     50250     50254     50255     50252     50250     50254     50255
     50253     50250     50254     50255     50257     50256     50260     50261
     50258     50256     50260     50261     50259     50256     50260     50261
     50263     50262     50266     50267     50264     50262     50266     50267
     50265     50262     50266     50267     50269     50268     50272     50273
     50270     50268     50272     50273     50271     50268     50272     50273
     50275     50274     50278     50279     50276     50274     50278     50279
     50277     50274     50278     50279     50281     50280     50284     50285
     50282     50280     50284     50285     50283     50280     50284     50285
     50287     50286     50290     50291     50288     50286     50290     50291
     50289     50286     50290     50291     50293     50292     50296     50297
     50294     50292     50296     50297     50295     50292     50296     50297
     50299     50298     50302     50303     50300     50298     50302     50303
     50301     50298     50302     50303     50305     50304     50308     50309
     50306     50304     50308     50309     50307     50304     50308     50309
     50311     50310     50314     50315     50312     50310     50314     50315
     50313     50310     50314     50315     50317     50316     50320     50321
     50318     50316     50320     50321     50319     50316     50320     50321
     50323     50322     50326     50327     50324     50322     50326     50327
     50325     50322     50326     50327     50329     50328     50332     50333
     50330     50328     50332     50333     50331     50328     50332     50333
     50335     50334     50338     50339     50336     50334     50338     50339
     50337     50334     50338     50339     50341     50340     50344     50345
     50342     50340     50344     50345     50343     50340     50344     50345
     50347     50346     50350     50351     50348     50346     50350     50351
     50349     50346     50350     50351     50353     50352     50356     50357
     50354     50352     50356     50357     50355     50352     50356     50357
     50359     50358     50362     50363     50360     50358     50362     50363
     50361     50358     50362     50363     50365     50364     50368     50369
     50366     50364     50368     50369     50367     50364     50368     50369
     50371     50370     50374     50375     50372     50370     50374     50375
     50373     50370     50374     50375     50377     50376     50380     50381
     50378     50376     50380     50381     50379     50376     50380     50381
     50383     50382     50386     50387     50384     50382     50386     50387
     50385     50382     50386     50387     50389     50388     50392     50393
     50390     50388     50392     50393     50391     50388     50392     50393
     50395     50394     50398     50399     50396     50394     50398     50399
     50397     50394     50398     50399     50401     50400     50404     50405
     50402     50400     50404     50405     50403     50400     50404     50405
     50407     50406     50410     50411     50408     50406     50410     50411
     50409     50406     50410     50411     50413     50412     50416     50417
     50414     50412     50416     50417     50415     50412     50416     50417
     50419     50418     50422     50423     50420     50418     50422     50423
     50421     50418     50422     50423     50425     50424     50428     50429
     50426     50424     50428     50429     50427     50424     50428     50429
     50431     50430     50434     50435     50432     50430     50434     50435
     50433     50430     50434     50435     50437     50436     50440     50441
     50438     50436     50440     50441     50439     50436     50440     50441
     50443     50442     50446     50447     50444     50442     50446     50447
     50445     50442     50446     50447     50449     50448     50452     50453
     50450     50448     50452     50453     50451     50448     50452     50453
     50455     50454     50458     50459     50456     50454     50458     50459
     50457     50454     50458     50459     50461     50460     50464     50465
     50462     50460     50464     50465     50463     50460     50464     50465
     50467     50466     50470     50471     50468     50466     50470     50471
     50469     50466     50470     50471     50473     50472     50476     50477
     50474     50472     50476     50477     50475     50472     50476     50477
     50479     50478     50482     50483     50480     50478     50482     50483
     50481     50478     50482     50483     50485     50484     50488     50489
     50486     50484     50488     50489     50487     50484     50488     50489
     50491     50490     50494     50495     50492     50490     50494     50495
     50493     50490     50494     50495     50497     50496     50500     50501
     50498     50496     50500     50501     50499     50496     50500     50501
     50503     50502     50506     50507     50504     50502     50506     50507
     50505     50502     50506     50507     50509     50508     50512     50513
     50510     50508     50512     50513     50511     50508     50512     50513
     50515     50514     50518     50519     50516     50514     50518     50519
     50517     50514     50518     50519     50521     50520     50524     50525
     50522     50520     50524     50525     50523     50520     50524     50525
     50527     50526     50530     50531     50528     50526     50530     50531
     50529     50526     50530     50531     50533     50532     50536     50537
     50534     50532     50536     50537     50535     50532     50536     50537
     50539     50538     50542     50543     50540     50538     50542     50543
     50541     50538     50542     50543     50545     50544     50548     50549
     50546     50544     50548     50549     50547     50544     50548     50549
     50551     50550     50554     50555     50552     50550     50554     50555
     50553     50550     50554     50555     50557     50556     50560     50561
     50558     50556     50560     50561     50559     50556     50560     50561
     50563     50562     50566     50567     50564     50562     50566     50567
     50565     50562     50566     50567     50569     50568     50572     50573
     50570     50568     50572     50573     50571     50568     50572     50573
     50575     50574     50578     50579     50576     50574     50578     50579
     50577     50574     50578     50579     50581     50580     50584     50585
     50582     50580     50584     50585     50583     50580     50584     50585
     50587     50586     50590     50591     50588     50586     50590     50591
     50589     50586     50590     50591     50593     50592     50596     50597
     50594     50592     50596     50597     50595     50592     50596     50597
     50599     50598     50602     50603     50600     50598     50602     50603
     50601     50598     50602     50603     50605     50604     50608     50609
     50606     50604     50608     50609     50607     50604     50608     50609
     50611     50610     50614     50615     50612     50610     50614     50615
     50613     50610     50614     50615     50617     50616     50620     50621
     50618     50616     50620     50621     50619     50616     50620     50621
     50623     50622     50626     50627     50624     50622     50626     50627
     50625     50622     50626     50627     50629     50628     50632     50633
     50630     50628     50632     50633     50631     50628     50632     50633
     50635     50634     50638     50639     50636     50634     50638     50639
     50637     50634     50638     50639     50641     50640     50644     50645
     50642     50640     50644     50645     50643     50640     50644     50645
     50647     50646     50650     50651     50648     50646     50650     50651
     50649     50646     50650     50651     50653     50652     50656     50657
     50654     50652     50656     50657     50655     50652     50656     50657
     50659     50658     50662     50663     50660     50658     50662     50663
     50661     50658     50662     50663     50665     50664     50668     50669
     50666     50664     50668     50669     50667     50664     50668     50669
     50671     50670     50674     50675     50672     50670     50674     50675
     50673     50670     50674     50675     50677     50676     50680     50681
     50678     50676     50680     50681     50679     50676     50680     50681
     50683     50682     50686     50687     50684     50682     50686     50687
     50685     50682     50686     50687     50689     50688     50692     50693
     50690     50688     50692     50693     50691     50688     50692     50693
     50695     50694     50698     50699     50696     50694     50698     50699
     50697     50694     50698     50699     50701     50700     50704     50705
     50702     50700     50704     50705     50703     50700     50704     50705
     50707     50706     50710     50711     50708     50706     50710     50711
     50709     50706     50710     50711     50713     50712     50716     50717
     50714     50712     50716     50717     50715     50712     50716     50717
     50719     50718     50722     50723     50720     50718     50722     50723
     50721     50718     50722     50723     50725     50724     50728     50729
     50726     50724     50728     50729     50727     50724     50728     50729
     50731     50730     50734     50735     50732     50730     50734     50735
     50733     50730     50734     50735     50737     50736     50740     50741
     50738     50736     50740     50741     50739     50736     50740     50741
     50743     50742     50746     50747     50744     50742     50746     50747
     50745     50742     50746     50747     50749     50748     50752     50753
     50750     50748     50752     50753     50751     50748     50752     50753
     50755     50754     50758     50759     50756     50754     50758     50759
     50757     50754     50758     50759     50761     50760     50764     50765
     50762     50760     50764     50765     50763     50760     50764     50765
     50767     50766     50770     50771     50768     50766     50770     50771
     50769     50766     50770     50771     50773     50772     50776     50777
     50774     50772     50776     50777     50775     50772     50776     50777
     50779     50778     50782     50783     50780     50778     50782     50783
     50781     50778     50782     50783     50785     50784     50788     50789
     50786     50784     50788     50789     50787     50784     50788     50789
     50791     50790     50794     50795     50792     50790     50794     50795
     50793     50790     50794     50795     50797     50796     50800     50801
     50798     50796     50800     50801     50799     50796     50800     50801
     50803     50802     50806     50807     50804     50802     50806     50807
     50805     50802     50806     50807     50809     50808     50812     50813
     50810     50808     50812     50813     50811     50808     50812     50813
     50815     50814     50818     50819     50816     50814     50818     50819
     50817     50814     50818     50819     50821     50820     50824     50825
     50822     50820     50824     50825     50823     50820     50824     50825
     50827     50826     50830     50831     50828     50826     50830     50831
     50829     50826     50830     50831     50833     50832     50836     50837
     50834     50832     50836     50837     50835     50832     50836     50837
     50839     50838     50842     50843     50840     50838     50842     50843
     50841     50838     50842     50843     50845     50844     50848     50849
     50846     50844     50848     50849     50847     50844     50848     50849
     50851     50850     50854     50855     50852     50850     50854     50855
     50853     50850     50854     50855     50857     50856     50860     50861
     50858     50856     50860     50861     50859     50856     50860     50861
     50863     50862     50866     50867     50864     50862     50866     50867
     50865     50862     50866     50867     50869     50868     50872     50873
     50870     50868     50872     50873     50871     50868     50872     50873
     50875     50874     50878     50879     50876     50874     50878     50879
     50877     50874     50878     50879     50881     50880     50884     50885
     50882     50880     50884     50885     50883     50880     50884     50885
     50887     50886     50890     50891     50888     50886     50890     50891
     50889     50886     50890     50891     50893     50892     50896     50897
     50894     50892     50896     50897     50895     50892     50896     50897
     50899     50898     50902     50903     50900     50898     50902     50903
     50901     50898     50902     50903     50905     50904     50908     50909
     50906     50904     50908     50909     50907     50904     50908     50909
     50911     50910     50914     50915     50912     50910     50914     50915
     50913     50910     50914     50915     50917     50916     50920     50921
     50918     50916     50920     50921     50919     50916     50920     50921
     50923     50922     50926     50927     50924     50922     50926     50927
     50925     50922     50926     50927     50929     50928     50932     50933
     50930     50928     50932     50933     50931     50928     50932     50933
     50935     50934     50938     50939     50936     50934     50938     50939
     50937     50934     50938     50939     50941     50940     50944     50945
     50942     50940     50944     50945     50943     50940     50944     50945
     50947     50946     50950     50951     50948     50946     50950     50951
     50949     50946     50950     50951     50953     50952     50956     50957
     50954     50952     50956     50957     50955     50952     50956     50957
     50959     50958     50962     50963     50960     50958     50962     50963
     50961     50958     50962     50963     50965     50964     50968     50969
     50966     50964     50968     50969     50967     50964     50968     50969
     50971     50970     50974     50975     50972     50970     50974     50975
     50973     50970     50974     50975     50977     50976     50980     50981
     50978     50976     50980     50981     50979     50976     50980     50981
     50983     50982     50986     50987     50984     50982     50986     50987
     50985     50982     50986     50987     50989     50988     50992     50993
     50990     50988     50992     50993     50991     50988     50992     50993
     50995     50994     50998     50999     50996     50994     50998     50999
     50997     50994     50998     50999     51001     51000     51004     51005
     51002     51000     51004     51005     51003     51000     51004     51005
     51007     51006     51010     51011     51008     51006     51010     51011
     51009     51006     51010     51011     51013     51012     51016     51017
     51014     51012     51016     51017     51015     51012     51016     51017
     51019     51018     51022     51023     51020     51018     51022     51023
     51021     51018     51022     51023     51025     51024     51028     51029
     51026     51024     51028     51029     51027     51024     51028     51029
     51031     51030     51034     51035     51032     51030     51034     51035
     51033     51030     51034     51035     51037     51036     51040     51041
     51038     51036     51040     51041     51039     51036     51040     51041
     51043     51042     51046     51047     51044     51042     51046     51047
     51045     51042     51046     51047     51049     51048     51052     51053
     51050     51048     51052     51053     51051     51048     51052     51053
     51055     51054     51058     51059     51056     51054     51058     51059
     51057     51054     51058     51059     51061     51060     51064     51065
     51062     51060     51064     51065     51063     51060     51064     51065
     51067     51066     51070     51071     51068     51066     51070     51071
     51069     51066     51070     51071     51073     51072     51076     51077
     51074     51072     51076     51077     51075     51072     51076     51077
     51079     51078     51082     51083     51080     51078     51082     51083
     51081     51078     51082     51083     51085     51084     51088     51089
     51086     51084     51088     51089     51087     51084     51088     51089
     51091     51090     51094     51095     51092     51090     51094     51095
     51093     51090     51094     51095     51097     51096     51100     51101
     51098     51096     51100     51101     51099     51096     51100     51101
     51103     51102     51106     51107     51104     51102     51106     51107
     51105     51102     51106     51107     51109     51108     51112     51113
     51110     51108     51112     51113     51111     51108     51112     51113
     51115     51114     51118     51119     51116     51114     51118     51119
     51117     51114     51118     51119     51121     51120     51124     51125
     51122     51120     51124     51125     51123     51120     51124     51125
     51127     51126     51130     51131     51128     51126     51130     51131
     51129     51126     51130     51131     51133     51132     51136     51137
     51134     51132     51136     51137     51135     51132     51136     51137
     51139     51138     51142     51143     51140     51138     51142     51143
     51141     51138     51142     51143     51145     51144     51148     51149
     51146     51144     51148     51149     51147     51144     51148     51149
     51151     51150     51154     51155     51152     51150     51154     51155
     51153     51150     51154     51155     51157     51156     51160     51161
     51158     51156     51160     51161     51159     51156     51160     51161
     51163     51162     51166     51167     51164     51162     51166     51167
     51165     51162     51166     51167     51169     51168     51172     51173
     51170     51168     51172     51173     51171     51168     51172     51173
     51175     51174     51178     51179     51176     51174     51178     51179
     51177     51174     51178     51179     51181     51180     51184     51185
     51182     51180     51184     51185     51183     51180     51184     51185
     51187     51186     51190     51191     51188     51186     51190     51191
     51189     51186     51190     51191     51193     51192     51196     51197
     51194     51192     51196     51197     51195     51192     51196     51197
     51199     51198     51202     51203     51200     51198     51202     51203
     51201     51198     51202     51203     51205     51204     51208     51209
     51206     51204     51208     51209     51207     51204     51208     51209
     51211     51210     51214     51215     51212     51210     51214     51215
     51213     51210     51214     51215     51217     51216     51220     51221
     51218     51216     51220     51221     51219     51216     51220     51221
     51223     51222     51226     51227     51224     51222     51226     51227
     51225     51222     51226     51227     51229     51228     51232     51233
     51230     51228     51232     51233     51231     51228     51232     51233
     51235     51234     51238     51239     51236     51234     51238     51239
     51237     51234     51238     51239     51241     51240     51244     51245
     51242     51240     51244     51245     51243     51240     51244     51245
     51247     51246     51250     51251     51248     51246     51250     51251
     51249     51246     51250     51251     51253     51252     51256     51257
     51254     51252     51256     51257     51255     51252     51256     51257
     51259     51258     51262     51263     51260     51258     51262     51263
     51261     51258     51262     51263     51265     51264     51268     51269
     51266     51264     51268     51269     51267     51264     51268     51269
     51271     51270     51274     51275     51272     51270     51274     51275
     51273     51270     51274     51275     51277     51276     51280     51281
     51278     51276     51280     51281     51279     51276     51280     51281
     51283     51282     51286     51287     51284     51282     51286     51287
     51285     51282     51286     51287     51289     51288     51292     51293
     51290     51288     51292     51293     51291     51288     51292     51293
     51295     51294     51298     51299     51296     51294     51298     51299
     51297     51294     51298     51299     51301     51300     51304     51305
     51302     51300     51304     51305     51303     51300     51304     51305
     51307     51306     51310     51311     51308     51306     51310     51311
     51309     51306     51310     51311     51313     51312     51316     51317
     51314     51312     51316     51317     51315     51312     51316     51317
     51319     51318     51322     51323     51320     51318     51322     51323
     51321     51318     51322     51323     51325     51324     51328     51329
     51326     51324     51328     51329     51327     51324     51328     51329
     51331     51330     51334     51335     51332     51330     51334     51335
     51333     51330     51334     51335     51337     51336     51340     51341
     51338     51336     51340     51341     51339     51336     51340     51341
     51343     51342     51346     51347     51344     51342     51346     51347
     51345     51342     51346     51347     51349     51348     51352     51353
     51350     51348     51352     51353     51351     51348     51352     51353
     51355     51354     51358     51359     51356     51354     51358     51359
     51357     51354     51358     51359     51361     51360     51364     51365
     51362     51360     51364     51365     51363     51360     51364     51365
     51367     51366     51370     51371     51368     51366     51370     51371
     51369     51366     51370     51371     51373     51372     51376     51377
     51374     51372     51376     51377     51375     51372     51376     51377
     51379     51378     51382     51383     51380     51378     51382     51383
     51381     51378     51382     51383     51385     51384     51388     51389
     51386     51384     51388     51389     51387     51384     51388     51389
     51391     51390     51394     51395     51392     51390     51394     51395
     51393     51390     51394     51395     51397     51396     51400     51401
     51398     51396     51400     51401     51399     51396     51400     51401
     51403     51402     51406     51407     51404     51402     51406     51407
     51405     51402     51406     51407     51409     51408     51412     51413
     51410     51408     51412     51413     51411     51408     51412     51413
     51415     51414     51418     51419     51416     51414     51418     51419
     51417     51414     51418     51419     51421     51420     51424     51425
     51422     51420     51424     51425     51423     51420     51424     51425
     51427     51426     51430     51431     51428     51426     51430     51431
     51429     51426     51430     51431     51433     51432     51436     51437
     51434     51432     51436     51437     51435     51432     51436     51437
     51439     51438     51442     51443     51440     51438     51442     51443
     51441     51438     51442     51443     51445     51444     51448     51449
     51446     51444     51448     51449     51447     51444     51448     51449
     51451     51450     51454     51455     51452     51450     51454     51455
     51453     51450     51454     51455     51457     51456     51460     51461
     51458     51456     51460     51461     51459     51456     51460     51461
     51463     51462     51466     51467     51464     51462     51466     51467
     51465     51462     51466     51467     51469     51468     51472     51473
     51470     51468     51472     51473     51471     51468     51472     51473
     51475     51474     51478     51479     51476     51474     51478     51479
     51477     51474     51478     51479     51481     51480     51484     51485
     51482     51480     51484     51485     51483     51480     51484     51485
     51487     51486     51490     51491     51488     51486     51490     51491
     51489     51486     51490     51491     51493     51492     51496     51497
     51494     51492     51496     51497     51495     51492     51496     51497
     51499     51498     51502     51503     51500     51498     51502     51503
     51501     51498     51502     51503     51505     51504     51508     51509
     51506     51504     51508     51509     51507     51504     51508     51509
     51511     51510     51514     51515     51512     51510     51514     51515
     51513     51510     51514     51515     51517     51516     51520     51521
     51518     51516     51520     51521     51519     51516     51520     51521
     51523     51522     51526     51527     51524     51522     51526     51527
     51525     51522     51526     51527     51529     51528     51532     51533
     51530     51528     51532     51533     51531     51528     51532     51533
     51535     51534     51538     51539     51536     51534     51538     51539
     51537     51534     51538     51539     51541     51540     51544     51545
     51542     51540     51544     51545     51543     51540     51544     51545
     51547     51546     51550     51551     51548     51546     51550     51551
     51549     51546     51550     51551     51553     51552     51556     51557
     51554     51552     51556     51557     51555     51552     51556     51557
     51559     51558     51562     51563     51560     51558     51562     51563
     51561     51558     51562     51563     51565     51564     51568     51569
     51566     51564     51568     51569     51567     51564     51568     51569
     51571     51570     51574     51575     51572     51570     51574     51575
     51573     51570     51574     51575     51577     51576     51580     51581
     51578     51576     51580     51581     51579     51576     51580     51581
     51583     51582     51586     51587     51584     51582     51586     51587
     51585     51582     51586     51587     51589     51588     51592     51593
     51590     51588     51592     51593     51591     51588     51592     51593
     51595     51594     51598     51599     51596     51594     51598     51599
     51597     51594     51598     51599     51601     51600     51604     51605
     51602     51600     51604     51605     51603     51600     51604     51605
     51607     51606     51610     51611     51608     51606     51610     51611
     51609     51606     51610     51611     51613     51612     51616     51617
     51614     51612     51616     51617     51615     51612     51616     51617
     51619     51618     51622     51623     51620     51618     51622     51623
     51621     51618     51622     51623     51625     51624     51628     51629
     51626     51624     51628     51629     51627     51624     51628     51629
     51631     51630     51634     51635     51632     51630     51634     51635
     51633     51630     51634     51635     51637     51636     51640     51641
     51638     51636     51640     51641     51639     51636     51640     51641
     51643     51642     51646     51647     51644     51642     51646     51647
     51645     51642     51646     51647     51649     51648     51652     51653
     51650     51648     51652     51653     51651     51648     51652     51653
     51655     51654     51658     51659     51656     51654     51658     51659
     51657     51654     51658     51659     51661     51660     51664     51665
     51662     51660     51664     51665     51663     51660     51664     51665
     51667     51666     51670     51671     51668     51666     51670     51671
     51669     51666     51670     51671     51673     51672     51676     51677
     51674     51672     51676     51677     51675     51672     51676     51677
     51679     51678     51682     51683     51680     51678     51682     51683
     51681     51678     51682     51683     51685     51684     51688     51689
     51686     51684     51688     51689     51687     51684     51688     51689
     51691     51690     51694     51695     51692     51690     51694     51695
     51693     51690     51694     51695     51697     51696     51700     51701
     51698     51696     51700     51701     51699     51696     51700     51701
     51703     51702     51706     51707     51704     51702     51706     51707
     51705     51702     51706     51707     51709     51708     51712     51713
     51710     51708     51712     51713     51711     51708     51712     51713
     51715     51714     51718     51719     51716     51714     51718     51719
     51717     51714     51718     51719     51721     51720     51724     51725
     51722     51720     51724     51725     51723     51720     51724     51725
     51727     51726     51730     51731     51728     51726     51730     51731
     51729     51726     51730     51731     51733     51732     51736     51737
     51734     51732     51736     51737     51735     51732     51736     51737
     51739     51738     51742     51743     51740     51738     51742     51743
     51741     51738     51742     51743     51745     51744     51748     51749
     51746     51744     51748     51749     51747     51744     51748     51749
     51751     51750     51754     51755     51752     51750     51754     51755
     51753     51750     51754     51755     51757     51756     51760     51761
     51758     51756     51760     51761     51759     51756     51760     51761
     51763     51762     51766     51767     51764     51762     51766     51767
     51765     51762     51766     51767     51769     51768     51772     51773
     51770     51768     51772     51773     51771     51768     51772     51773
     51775     51774     51778     51779     51776     51774     51778     51779
     51777     51774     51778     51779     51781     51780     51784     51785
     51782     51780     51784     51785     51783     51780     51784     51785
     51787     51786     51790     51791     51788     51786     51790     51791
     51789     51786     51790     51791     51793     51792     51796     51797
     51794     51792     51796     51797     51795     51792     51796     51797
     51799     51798     51802     51803     51800     51798     51802     51803
     51801     51798     51802     51803     51805     51804     51808     51809
     51806     51804     51808     51809     51807     51804     51808     51809
     51811     51810     51814     51815     51812     51810     51814     51815
     51813     51810     51814     51815     51817     51816     51820     51821
     51818     51816     51820     51821     51819     51816     51820     51821
     51823     51822     51826     51827     51824     51822     51826     51827
     51825     51822     51826     51827     51829     51828     51832     51833
     51830     51828     51832     51833     51831     51828     51832     51833
     51835     51834     51838     51839     51836     51834     51838     51839
     51837     51834     51838     51839     51841     51840     51844     51845
     51842     51840     51844     51845     51843     51840     51844     51845
     51847     51846     51850     51851     51848     51846     51850     51851
     51849     51846     51850     51851     51853     51852     51856     51857
     51854     51852     51856     51857     51855     51852     51856     51857
     51859     51858     51862     51863     51860     51858     51862     51863
     51861     51858     51862     51863     51865     51864     51868     51869
     51866     51864     51868     51869     51867     51864     51868     51869
     51871     51870     51874     51875     51872     51870     51874     51875
     51873     51870     51874     51875     51877     51876     51880     51881
     51878     51876     51880     51881     51879     51876     51880     51881
     51883     51882     51886     51887     51884     51882     51886     51887
     51885     51882     51886     51887     51889     51888     51892     51893
     51890     51888     51892     51893     51891     51888     51892     51893
     51895     51894     51898     51899     51896     51894     51898     51899
     51897     51894     51898     51899     51901     51900     51904     51905
     51902     51900     51904     51905     51903     51900     51904     51905
     51907     51906     51910     51911     51908     51906     51910     51911
     51909     51906     51910     51911     51913     51912     51916     51917
     51914     51912     51916     51917     51915     51912     51916     51917
     51919     51918     51922     51923     51920     51918     51922     51923
     51921     51918     51922     51923     51925     51924     51928     51929
     51926     51924     51928     51929     51927     51924     51928     51929
     51931     51930     51934     51935     51932     51930     51934     51935
     51933     51930     51934     51935     51937     51936     51940     51941
     51938     51936     51940     51941     51939     51936     51940     51941
     51943     51942     51946     51947     51944     51942     51946     51947
     51945     51942     51946     51947     51949     51948     51952     51953
     51950     51948     51952     51953     51951     51948     51952     51953
     51955     51954     51958     51959     51956     51954     51958     51959
     51957     51954     51958     51959     51961     51960     51964     51965
     51962     51960     51964     51965     51963     51960     51964     51965
     51967     51966     51970     51971     51968     51966     51970     51971
     51969     51966     51970     51971     51973     51972     51976     51977
     51974     51972     51976     51977     51975     51972     51976     51977
     51979     51978     51982     51983     51980     51978     51982     51983
     51981     51978     51982     51983     51985     51984     51988     51989
     51986     51984     51988     51989     51987     51984     51988     51989
     51991     51990     51994     51995     51992     51990     51994     51995
     51993     51990     51994     51995     51997     51996     52000     52001
     51998     51996     52000     52001     51999     51996     52000     52001
     52003     52002     52006     52007     52004     52002     52006     52007
     52005     52002     52006     52007     52009     52008     52012     52013
     52010     52008     52012     52013     52011     52008     52012     52013
     52015     52014     52018     52019     52016     52014     52018     52019
     52017     52014     52018     52019     52021     52020     52024     52025
     52022     52020     52024     52025     52023     52020     52024     52025
     52027     52026     52030     52031     52028     52026     52030     52031
     52029     52026     52030     52031     52033     52032     52036     52037
     52034     52032     52036     52037     52035     52032     52036     52037
     52039     52038     52042     52043     52040     52038     52042     52043
     52041     52038     52042     52043     52045     52044     52048     52049
     52046     52044     52048     52049     52047     52044     52048     52049
     52051     52050     52054     52055     52052     52050     52054     52055
     52053     52050     52054     52055     52057     52056     52060     52061
     52058     52056     52060     52061     52059     52056     52060     52061
     52063     52062     52066     52067     52064     52062     52066     52067
     52065     52062     52066     52067     52069     52068     52072     52073
     52070     52068     52072     52073     52071     52068     52072     52073
     52075     52074     52078     52079     52076     52074     52078     52079
     52077     52074     52078     52079     52081     52080     52084     52085
     52082     52080     52084     52085     52083     52080     52084     52085
     52087     52086     52090     52091     52088     52086     52090     52091
     52089     52086     52090     52091     52093     52092     52096     52097
     52094     52092     52096     52097     52095     52092     52096     52097
     52099     52098     52102     52103     52100     52098     52102     52103
     52101     52098     52102     52103     52105     52104     52108     52109
     52106     52104     52108     52109     52107     52104     52108     52109
     52111     52110     52114     52115     52112     52110     52114     52115
     52113     52110     52114     52115     52117     52116     52120     52121
     52118     52116     52120     52121     52119     52116     52120     52121
     52123     52122     52126     52127     52124     52122     52126     52127
     52125     52122     52126     52127     52129     52128     52132     52133
     52130     52128     52132     52133     52131     52128     52132     52133
     52135     52134     52138     52139     52136     52134     52138     52139
     52137     52134     52138     52139     52141     52140     52144     52145
     52142     52140     52144     52145     52143     52140     52144     52145
     52147     52146     52150     52151     52148     52146     52150     52151
     52149     52146     52150     52151     52153     52152     52156     52157
     52154     52152     52156     52157     52155     52152     52156     52157
     52159     52158     52162     52163     52160     52158     52162     52163
     52161     52158     52162     52163     52165     52164     52168     52169
     52166     52164     52168     52169     52167     52164     52168     52169
     52171     52170     52174     52175     52172     52170     52174     52175
     52173     52170     52174     52175     52177     52176     52180     52181
     52178     52176     52180     52181     52179     52176     52180     52181
     52183     52182     52186     52187     52184     52182     52186     52187
     52185     52182     52186     52187     52189     52188     52192     52193
     52190     52188     52192     52193     52191     52188     52192     52193
     52195     52194     52198     52199     52196     52194     52198     52199
     52197     52194     52198     52199     52201     52200     52204     52205
     52202     52200     52204     52205     52203     52200     52204     52205
     52207     52206     52210     52211     52208     52206     52210     52211
     52209     52206     52210     52211     52213     52212     52216     52217
     52214     52212     52216     52217     52215     52212     52216     52217
     52219     52218     52222     52223     52220     52218     52222     52223
     52221     52218     52222     52223     52225     52224     52228     52229
     52226     52224     52228     52229     52227     52224     52228     52229
     52231     52230     52234     52235     52232     52230     52234     52235
     52233     52230     52234     52235     52237     52236     52240     52241
     52238     52236     52240     52241     52239     52236     52240     52241
     52243     52242     52246     52247     52244     52242     52246     52247
     52245     52242     52246     52247     52249     52248     52252     52253
     52250     52248     52252     52253     52251     52248     52252     52253
     52255     52254     52258     52259     52256     52254     52258     52259
     52257     52254     52258     52259     52261     52260     52264     52265
     52262     52260     52264     52265     52263     52260     52264     52265
     52267     52266     52270     52271     52268     52266     52270     52271
     52269     52266     52270     52271     52273     52272     52276     52277
     52274     52272     52276     52277     52275     52272     52276     52277
     52279     52278     52282     52283     52280     52278     52282     52283
     52281     52278     52282     52283     52285     52284     52288     52289
     52286     52284     52288     52289     52287     52284     52288     52289
     52291     52290     52294     52295     52292     52290     52294     52295
     52293     52290     52294     52295     52297     52296     52300     52301
     52298     52296     52300     52301     52299     52296     52300     52301
     52303     52302     52306     52307     52304     52302     52306     52307
     52305     52302     52306     52307     52309     52308     52312     52313
     52310     52308     52312     52313     52311     52308     52312     52313
     52315     52314     52318     52319     52316     52314     52318     52319
     52317     52314     52318     52319     52321     52320     52324     52325
     52322     52320     52324     52325     52323     52320     52324     52325
     52327     52326     52330     52331     52328     52326     52330     52331
     52329     52326     52330     52331     52333     52332     52336     52337
     52334     52332     52336     52337     52335     52332     52336     52337
     52339     52338     52342     52343     52340     52338     52342     52343
     52341     52338     52342     52343     52345     52344     52348     52349
     52346     52344     52348     52349     52347     52344     52348     52349
     52351     52350     52354     52355     52352     52350     52354     52355
     52353     52350     52354     52355     52357     52356     52360     52361
     52358     52356     52360     52361     52359     52356     52360     52361
     52363     52362     52366     52367     52364     52362     52366     52367
     52365     52362     52366     52367     52369     52368     52372     52373
     52370     52368     52372     52373     52371     52368     52372     52373
     52375     52374     52378     52379     52376     52374     52378     52379
     52377     52374     52378     52379     52381     52380     52384     52385
     52382     52380     52384     52385     52383     52380     52384     52385
     52387     52386     52390     52391     52388     52386     52390     52391
     52389     52386     52390     52391     52393     52392     52396     52397
     52394     52392     52396     52397     52395     52392     52396     52397
     52399     52398     52402     52403     52400     52398     52402     52403
     52401     52398     52402     52403     52405     52404     52408     52409
     52406     52404     52408     52409     52407     52404     52408     52409
     52411     52410     52414     52415     52412     52410     52414     52415
     52413     52410     52414     52415     52417     52416     52420     52421
     52418     52416     52420     52421     52419     52416     52420     52421
     52423     52422     52426     52427     52424     52422     52426     52427
     52425     52422     52426     52427     52429     52428     52432     52433
     52430     52428     52432     52433     52431     52428     52432     52433
     52435     52434     52438     52439     52436     52434     52438     52439
     52437     52434     52438     52439     52441     52440     52444     52445
     52442     52440     52444     52445     52443     52440     52444     52445
     52447     52446     52450     52451     52448     52446     52450     52451
     52449     52446     52450     52451     52453     52452     52456     52457
     52454     52452     52456     52457     52455     52452     52456     52457
     52459     52458     52462     52463     52460     52458     52462     52463
     52461     52458     52462     52463     52465     52464     52468     52469
     52466     52464     52468     52469     52467     52464     52468     52469
     52471     52470     52474     52475     52472     52470     52474     52475
     52473     52470     52474     52475     52477     52476     52480     52481
     52478     52476     52480     52481     52479     52476     52480     52481
     52483     52482     52486     52487     52484     52482     52486     52487
     52485     52482     52486     52487     52489     52488     52492     52493
     52490     52488     52492     52493     52491     52488     52492     52493
     52495     52494     52498     52499     52496     52494     52498     52499
     52497     52494     52498     52499     52501     52500     52504     52505
     52502     52500     52504     52505     52503     52500     52504     52505
     52507     52506     52510     52511     52508     52506     52510     52511
     52509     52506     52510     52511     52513     52512     52516     52517
     52514     52512     52516     52517     52515     52512     52516     52517
     52519     52518     52522     52523     52520     52518     52522     52523
     52521     52518     52522     52523     52525     52524     52528     52529
     52526     52524     52528     52529     52527     52524     52528     52529
     52531     52530     52534     52535     52532     52530     52534     52535
     52533     52530     52534     52535     52537     52536     52540     52541
     52538     52536     52540     52541     52539     52536     52540     52541
     52543     52542     52546     52547     52544     52542     52546     52547
     52545     52542     52546     52547     52549     52548     52552     52553
     52550     52548     52552     52553     52551     52548     52552     52553
     52555     52554     52558     52559     52556     52554     52558     52559
     52557     52554     52558     52559     52561     52560     52564     52565
     52562     52560     52564     52565     52563     52560     52564     52565
     52567     52566     52570     52571     52568     52566     52570     52571
     52569     52566     52570     52571     52573     52572     52576     52577
     52574     52572     52576     52577     52575     52572     52576     52577
     52579     52578     52582     52583     52580     52578     52582     52583
     52581     52578     52582     52583     52585     52584     52588     52589
     52586     52584     52588     52589     52587     52584     52588     52589
     52591     52590     52594     52595     52592     52590     52594     52595
     52593     52590     52594     52595     52597     52596     52600     52601
     52598     52596     52600     52601     52599     52596     52600     52601
     52603     52602     52606     52607     52604     52602     52606     52607
     52605     52602     52606     52607     52609     52608     52612     52613
     52610     52608     52612     52613     52611     52608     52612     52613
     52615     52614     52618     52619     52616     52614     52618     52619
     52617     52614     52618     52619     52621     52620     52624     52625
     52622     52620     52624     52625     52623     52620     52624     52625
     52627     52626     52630     52631     52628     52626     52630     52631
     52629     52626     52630     52631     52633     52632     52636     52637
     52634     52632     52636     52637     52635     52632     52636     52637
     52639     52638     52642     52643     52640     52638     52642     52643
     52641     52638     52642     52643     52645     52644     52648     52649
     52646     52644     52648     52649     52647     52644     52648     52649
     52651     52650     52654     52655     52652     52650     52654     52655
     52653     52650     52654     52655     52657     52656     52660     52661
     52658     52656     52660     52661     52659     52656     52660     52661
     52663     52662     52666     52667     52664     52662     52666     52667
     52665     52662     52666     52667     52669     52668     52672     52673
     52670     52668     52672     52673     52671     52668     52672     52673
     52675     52674     52678     52679     52676     52674     52678     52679
     52677     52674     52678     52679     52681     52680     52684     52685
     52682     52680     52684     52685     52683     52680     52684     52685
     52687     52686     52690     52691     52688     52686     52690     52691
     52689     52686     52690     52691     52693     52692     52696     52697
     52694     52692     52696     52697     52695     52692     52696     52697
     52699     52698     52702     52703     52700     52698     52702     52703
     52701     52698     52702     52703     52705     52704     52708     52709
     52706     52704     52708     52709     52707     52704     52708     52709
     52711     52710     52714     52715     52712     52710     52714     52715
     52713     52710     52714     52715     52717     52716     52720     52721
     52718     52716     52720     52721     52719     52716     52720     52721
     52723     52722     52726     52727     52724     52722     52726     52727
     52725     52722     52726     52727     52729     52728     52732     52733
     52730     52728     52732     52733     52731     52728     52732     52733
     52735     52734     52738     52739     52736     52734     52738     52739
     52737     52734     52738     52739     52741     52740     52744     52745
     52742     52740     52744     52745     52743     52740     52744     52745
     52747     52746     52750     52751     52748     52746     52750     52751
     52749     52746     52750     52751     52753     52752     52756     52757
     52754     52752     52756     52757     52755     52752     52756     52757
     52759     52758     52762     52763     52760     52758     52762     52763
     52761     52758     52762     52763     52765     52764     52768     52769
     52766     52764     52768     52769     52767     52764     52768     52769
     52771     52770     52774     52775     52772     52770     52774     52775
     52773     52770     52774     52775     52777     52776     52780     52781
     52778     52776     52780     52781     52779     52776     52780     52781
     52783     52782     52786     52787     52784     52782     52786     52787
     52785     52782     52786     52787     52789     52788     52792     52793
     52790     52788     52792     52793     52791     52788     52792     52793
     52795     52794     52798     52799     52796     52794     52798     52799
     52797     52794     52798     52799     52801     52800     52804     52805
     52802     52800     52804     52805     52803     52800     52804     52805
     52807     52806     52810     52811     52808     52806     52810     52811
     52809     52806     52810     52811     52813     52812     52816     52817
     52814     52812     52816     52817     52815     52812     52816     52817
     52819     52818     52822     52823     52820     52818     52822     52823
     52821     52818     52822     52823     52825     52824     52828     52829
     52826     52824     52828     52829     52827     52824     52828     52829
     52831     52830     52834     52835     52832     52830     52834     52835
     52833     52830     52834     52835     52837     52836     52840     52841
     52838     52836     52840     52841     52839     52836     52840     52841
     52843     52842     52846     52847     52844     52842     52846     52847
     52845     52842     52846     52847     52849     52848     52852     52853
     52850     52848     52852     52853     52851     52848     52852     52853
     52855     52854     52858     52859     52856     52854     52858     52859
     52857     52854     52858     52859     52861     52860     52864     52865
     52862     52860     52864     52865     52863     52860     52864     52865
     52867     52866     52870     52871     52868     52866     52870     52871
     52869     52866     52870     52871     52873     52872     52876     52877
     52874     52872     52876     52877     52875     52872     52876     52877
     52879     52878     52882     52883     52880     52878     52882     52883
     52881     52878     52882     52883     52885     52884     52888     52889
     52886     52884     52888     52889     52887     52884     52888     52889
     52891     52890     52894     52895     52892     52890     52894     52895
     52893     52890     52894     52895     52897     52896     52900     52901
     52898     52896     52900     52901     52899     52896     52900     52901
     52903     52902     52906     52907     52904     52902     52906     52907
     52905     52902     52906     52907     52909     52908     52912     52913
     52910     52908     52912     52913     52911     52908     52912     52913
     52915     52914     52918     52919     52916     52914     52918     52919
     52917     52914     52918     52919     52921     52920     52924     52925
     52922     52920     52924     52925     52923     52920     52924     52925
     52927     52926     52930     52931     52928     52926     52930     52931
     52929     52926     52930     52931     52933     52932     52936     52937
     52934     52932     52936     52937     52935     52932     52936     52937
     52939     52938     52942     52943     52940     52938     52942     52943
     52941     52938     52942     52943     52945     52944     52948     52949
     52946     52944     52948     52949     52947     52944     52948     52949
     52951     52950     52954     52955     52952     52950     52954     52955
     52953     52950     52954     52955     52957     52956     52960     52961
     52958     52956     52960     52961     52959     52956     52960     52961
     52963     52962     52966     52967     52964     52962     52966     52967
     52965     52962     52966     52967     52969     52968     52972     52973
     52970     52968     52972     52973     52971     52968     52972     52973
     52975     52974     52978     52979     52976     52974     52978     52979
     52977     52974     52978     52979     52981     52980     52984     52985
     52982     52980     52984     52985     52983     52980     52984     52985
     52987     52986     52990     52991     52988     52986     52990     52991
     52989     52986     52990     52991     52993     52992     52996     52997
     52994     52992     52996     52997     52995     52992     52996     52997
     52999     52998     53002     53003     53000     52998     53002     53003
     53001     52998     53002     53003     53005     53004     53008     53009
     53006     53004     53008     53009     53007     53004     53008     53009
     53011     53010     53014     53015     53012     53010     53014     53015
     53013     53010     53014     53015     53017     53016     53020     53021
     53018     53016     53020     53021     53019     53016     53020     53021
     53023     53022     53026     53027     53024     53022     53026     53027
     53025     53022     53026     53027     53029     53028     53032     53033
     53030     53028     53032     53033     53031     53028     53032     53033
     53035     53034     53038     53039     53036     53034     53038     53039
     53037     53034     53038     53039     53041     53040     53044     53045
     53042     53040     53044     53045     53043     53040     53044     53045
     53047     53046     53050     53051     53048     53046     53050     53051
     53049     53046     53050     53051     53053     53052     53056     53057
     53054     53052     53056     53057     53055     53052     53056     53057
     53059     53058     53062     53063     53060     53058     53062     53063
     53061     53058     53062     53063     53065     53064     53068     53069
     53066     53064     53068     53069     53067     53064     53068     53069
     53071     53070     53074     53075     53072     53070     53074     53075
     53073     53070     53074     53075     53077     53076     53080     53081
     53078     53076     53080     53081     53079     53076     53080     53081
     53083     53082     53086     53087     53084     53082     53086     53087
     53085     53082     53086     53087     53089     53088     53092     53093
     53090     53088     53092     53093     53091     53088     53092     53093
     53095     53094     53098     53099     53096     53094     53098     53099
     53097     53094     53098     53099     53101     53100     53104     53105
     53102     53100     53104     53105     53103     53100     53104     53105
     53107     53106     53110     53111     53108     53106     53110     53111
     53109     53106     53110     53111     53113     53112     53116     53117
     53114     53112     53116     53117     53115     53112     53116     53117
     53119     53118     53122     53123     53120     53118     53122     53123
     53121     53118     53122     53123     53125     53124     53128     53129
     53126     53124     53128     53129     53127     53124     53128     53129
     53131     53130     53134     53135     53132     53130     53134     53135
     53133     53130     53134     53135     53137     53136     53140     53141
     53138     53136     53140     53141     53139     53136     53140     53141
     53143     53142     53146     53147     53144     53142     53146     53147
     53145     53142     53146     53147     53149     53148     53152     53153
     53150     53148     53152     53153     53151     53148     53152     53153
     53155     53154     53158     53159     53156     53154     53158     53159
     53157     53154     53158     53159     53161     53160     53164     53165
     53162     53160     53164     53165     53163     53160     53164     53165
     53167     53166     53170     53171     53168     53166     53170     53171
     53169     53166     53170     53171     53173     53172     53176     53177
     53174     53172     53176     53177     53175     53172     53176     53177
     53179     53178     53182     53183     53180     53178     53182     53183
     53181     53178     53182     53183     53185     53184     53188     53189
     53186     53184     53188     53189     53187     53184     53188     53189
     53191     53190     53194     53195     53192     53190     53194     53195
     53193     53190     53194     53195     53197     53196     53200     53201
     53198     53196     53200     53201     53199     53196     53200     53201
     53203     53202     53206     53207     53204     53202     53206     53207
     53205     53202     53206     53207     53209     53208     53212     53213
     53210     53208     53212     53213     53211     53208     53212     53213
     53215     53214     53218     53219     53216     53214     53218     53219
     53217     53214     53218     53219     53221     53220     53224     53225
     53222     53220     53224     53225     53223     53220     53224     53225
     53227     53226     53230     53231     53228     53226     53230     53231
     53229     53226     53230     53231     53233     53232     53236     53237
     53234     53232     53236     53237     53235     53232     53236     53237
     53239     53238     53242     53243     53240     53238     53242     53243
     53241     53238     53242     53243     53245     53244     53248     53249
     53246     53244     53248     53249     53247     53244     53248     53249
     53251     53250     53254     53255     53252     53250     53254     53255
     53253     53250     53254     53255     53257     53256     53260     53261
     53258     53256     53260     53261     53259     53256     53260     53261
     53263     53262     53266     53267     53264     53262     53266     53267
     53265     53262     53266     53267     53269     53268     53272     53273
     53270     53268     53272     53273     53271     53268     53272     53273
     53275     53274     53278     53279     53276     53274     53278     53279
     53277     53274     53278     53279     53281     53280     53284     53285
     53282     53280     53284     53285     53283     53280     53284     53285
     53287     53286     53290     53291     53288     53286     53290     53291
     53289     53286     53290     53291     53293     53292     53296     53297
     53294     53292     53296     53297     53295     53292     53296     53297
     53299     53298     53302     53303     53300     53298     53302     53303
     53301     53298     53302     53303     53305     53304     53308     53309
     53306     53304     53308     53309     53307     53304     53308     53309
     53311     53310     53314     53315     53312     53310     53314     53315
     53313     53310     53314     53315     53317     53316     53320     53321
     53318     53316     53320     53321     53319     53316     53320     53321
     53323     53322     53326     53327     53324     53322     53326     53327
     53325     53322     53326     53327     53329     53328     53332     53333
     53330     53328     53332     53333     53331     53328     53332     53333
     53335     53334     53338     53339     53336     53334     53338     53339
     53337     53334     53338     53339     53341     53340     53344     53345
     53342     53340     53344     53345     53343     53340     53344     53345
     53347     53346     53350     53351     53348     53346     53350     53351
     53349     53346     53350     53351     53353     53352     53356     53357
     53354     53352     53356     53357     53355     53352     53356     53357
     53359     53358     53362     53363     53360     53358     53362     53363
     53361     53358     53362     53363     53365     53364     53368     53369
     53366     53364     53368     53369     53367     53364     53368     53369
     53371     53370     53374     53375     53372     53370     53374     53375
     53373     53370     53374     53375     53377     53376     53380     53381
     53378     53376     53380     53381     53379     53376     53380     53381
     53383     53382     53386     53387     53384     53382     53386     53387
     53385     53382     53386     53387     53389     53388     53392     53393
     53390     53388     53392     53393     53391     53388     53392     53393
     53395     53394     53398     53399     53396     53394     53398     53399
     53397     53394     53398     53399     53401     53400     53404     53405
     53402     53400     53404     53405     53403     53400     53404     53405
     53407     53406     53410     53411     53408     53406     53410     53411
     53409     53406     53410     53411     53413     53412     53416     53417
     53414     53412     53416     53417     53415     53412     53416     53417
     53419     53418     53422     53423     53420     53418     53422     53423
     53421     53418     53422     53423     53425     53424     53428     53429
     53426     53424     53428     53429     53427     53424     53428     53429
     53431     53430     53434     53435     53432     53430     53434     53435
     53433     53430     53434     53435     53437     53436     53440     53441
     53438     53436     53440     53441     53439     53436     53440     53441
     53443     53442     53446     53447     53444     53442     53446     53447
     53445     53442     53446     53447     53449     53448     53452     53453
     53450     53448     53452     53453     53451     53448     53452     53453
     53455     53454     53458     53459     53456     53454     53458     53459
     53457     53454     53458     53459     53461     53460     53464     53465
     53462     53460     53464     53465     53463     53460     53464     53465
     53467     53466     53470     53471     53468     53466     53470     53471
     53469     53466     53470     53471     53473     53472     53476     53477
     53474     53472     53476     53477     53475     53472     53476     53477
     53479     53478     53482     53483     53480     53478     53482     53483
     53481     53478     53482     53483     53485     53484     53488     53489
     53486     53484     53488     53489     53487     53484     53488     53489
     53491     53490     53494     53495     53492     53490     53494     53495
     53493     53490     53494     53495     53497     53496     53500     53501
     53498     53496     53500     53501     53499     53496     53500     53501
     53503     53502     53506     53507     53504     53502     53506     53507
     53505     53502     53506     53507     53509     53508     53512     53513
     53510     53508     53512     53513     53511     53508     53512     53513
     53515     53514     53518     53519     53516     53514     53518     53519
     53517     53514     53518     53519     53521     53520     53524     53525
     53522     53520     53524     53525     53523     53520     53524     53525
     53527     53526     53530     53531     53528     53526     53530     53531
     53529     53526     53530     53531     53533     53532     53536     53537
     53534     53532     53536     53537     53535     53532     53536     53537
     53539     53538     53542     53543     53540     53538     53542     53543
     53541     53538     53542     53543     53545     53544     53548     53549
     53546     53544     53548     53549     53547     53544     53548     53549
     53551     53550     53554     53555     53552     53550     53554     53555
     53553     53550     53554     53555     53557     53556     53560     53561
     53558     53556     53560     53561     53559     53556     53560     53561
     53563     53562     53566     53567     53564     53562     53566     53567
     53565     53562     53566     53567     53569     53568     53572     53573
     53570     53568     53572     53573     53571     53568     53572     53573
     53575     53574     53578     53579     53576     53574     53578     53579
     53577     53574     53578     53579     53581     53580     53584     53585
     53582     53580     53584     53585     53583     53580     53584     53585
     53587     53586     53590     53591     53588     53586     53590     53591
     53589     53586     53590     53591     53593     53592     53596     53597
     53594     53592     53596     53597     53595     53592     53596     53597
     53599     53598     53602     53603     53600     53598     53602     53603
     53601     53598     53602     53603     53605     53604     53608     53609
     53606     53604     53608     53609     53607     53604     53608     53609
     53611     53610     53614     53615     53612     53610     53614     53615
     53613     53610     53614     53615     53617     53616     53620     53621
     53618     53616     53620     53621     53619     53616     53620     53621
     53623     53622     53626     53627     53624     53622     53626     53627
     53625     53622     53626     53627     53629     53628     53632     53633
     53630     53628     53632     53633     53631     53628     53632     53633
     53635     53634     53638     53639     53636     53634     53638     53639
     53637     53634     53638     53639     53641     53640     53644     53645
     53642     53640     53644     53645     53643     53640     53644     53645
     53647     53646     53650     53651     53648     53646     53650     53651
     53649     53646     53650     53651     53653     53652     53656     53657
     53654     53652     53656     53657     53655     53652     53656     53657
     53659     53658     53662     53663     53660     53658     53662     53663
     53661     53658     53662     53663     53665     53664     53668     53669
     53666     53664     53668     53669     53667     53664     53668     53669
     53671     53670     53674     53675     53672     53670     53674     53675
     53673     53670     53674     53675     53677     53676     53680     53681
     53678     53676     53680     53681     53679     53676     53680     53681
     53683     53682     53686     53687     53684     53682     53686     53687
     53685     53682     53686     53687     53689     53688     53692     53693
     53690     53688     53692     53693     53691     53688     53692     53693
     53695     53694     53698     53699     53696     53694     53698     53699
     53697     53694     53698     53699     53701     53700     53704     53705
     53702     53700     53704     53705     53703     53700     53704     53705
     53707     53706     53710     53711     53708     53706     53710     53711
     53709     53706     53710     53711     53713     53712     53716     53717
     53714     53712     53716     53717     53715     53712     53716     53717
     53719     53718     53722     53723     53720     53718     53722     53723
     53721     53718     53722     53723     53725     53724     53728     53729
     53726     53724     53728     53729     53727     53724     53728     53729
     53731     53730     53734     53735     53732     53730     53734     53735
     53733     53730     53734     53735     53737     53736     53740     53741
     53738     53736     53740     53741     53739     53736     53740     53741
     53743     53742     53746     53747     53744     53742     53746     53747
     53745     53742     53746     53747     53749     53748     53752     53753
     53750     53748     53752     53753     53751     53748     53752     53753
     53755     53754     53758     53759     53756     53754     53758     53759
     53757     53754     53758     53759     53761     53760     53764     53765
     53762     53760     53764     53765     53763     53760     53764     53765
     53767     53766     53770     53771     53768     53766     53770     53771
     53769     53766     53770     53771     53773     53772     53776     53777
     53774     53772     53776     53777     53775     53772     53776     53777
     53779     53778     53782     53783     53780     53778     53782     53783
     53781     53778     53782     53783     53785     53784     53788     53789
     53786     53784     53788     53789     53787     53784     53788     53789
     53791     53790     53794     53795     53792     53790     53794     53795
     53793     53790     53794     53795     53797     53796     53800     53801
     53798     53796     53800     53801     53799     53796     53800     53801
     53803     53802     53806     53807     53804     53802     53806     53807
     53805     53802     53806     53807     53809     53808     53812     53813
     53810     53808     53812     53813     53811     53808     53812     53813
     53815     53814     53818     53819     53816     53814     53818     53819
     53817     53814     53818     53819     53821     53820     53824     53825
     53822     53820     53824     53825     53823     53820     53824     53825
     53827     53826     53830     53831     53828     53826     53830     53831
     53829     53826     53830     53831     53833     53832     53836     53837
     53834     53832     53836     53837     53835     53832     53836     53837
     53839     53838     53842     53843     53840     53838     53842     53843
     53841     53838     53842     53843     53845     53844     53848     53849
     53846     53844     53848     53849     53847     53844     53848     53849
     53851     53850     53854     53855     53852     53850     53854     53855
     53853     53850     53854     53855     53857     53856     53860     53861
     53858     53856     53860     53861     53859     53856     53860     53861
     53863     53862     53866     53867     53864     53862     53866     53867
     53865     53862     53866     53867     53869     53868     53872     53873
     53870     53868     53872     53873     53871     53868     53872     53873
     53875     53874     53878     53879     53876     53874     53878     53879
     53877     53874     53878     53879     53881     53880     53884     53885
     53882     53880     53884     53885     53883     53880     53884     53885
     53887     53886     53890     53891     53888     53886     53890     53891
     53889     53886     53890     53891     53893     53892     53896     53897
     53894     53892     53896     53897     53895     53892     53896     53897
     53899     53898     53902     53903     53900     53898     53902     53903
     53901     53898     53902     53903     53905     53904     53908     53909
     53906     53904     53908     53909     53907     53904     53908     53909
     53911     53910     53914     53915     53912     53910     53914     53915
     53913     53910     53914     53915     53917     53916     53920     53921
     53918     53916     53920     53921     53919     53916     53920     53921
     53923     53922     53926     53927     53924     53922     53926     53927
     53925     53922     53926     53927     53929     53928     53932     53933
     53930     53928     53932     53933     53931     53928     53932     53933
     53935     53934     53938     53939     53936     53934     53938     53939
     53937     53934     53938     53939     53941     53940     53944     53945
     53942     53940     53944     53945     53943     53940     53944     53945
     53947     53946     53950     53951     53948     53946     53950     53951
     53949     53946     53950     53951     53953     53952     53956     53957
     53954     53952     53956     53957     53955     53952     53956     53957
     53959     53958     53962     53963     53960     53958     53962     53963
     53961     53958     53962     53963     53965     53964     53968     53969
     53966     53964     53968     53969     53967     53964     53968     53969
     53971     53970     53974     53975     53972     53970     53974     53975
     53973     53970     53974     53975     53977     53976     53980     53981
     53978     53976     53980     53981     53979     53976     53980     53981
     53983     53982     53986     53987     53984     53982     53986     53987
     53985     53982     53986     53987     53989     53988     53992     53993
     53990     53988     53992     53993     53991     53988     53992     53993
     53995     53994     53998     53999     53996     53994     53998     53999
     53997     53994     53998     53999     54001     54000     54004     54005
     54002     54000     54004     54005     54003     54000     54004     54005
     54007     54006     54010     54011     54008     54006     54010     54011
     54009     54006     54010     54011     54013     54012     54016     54017
     54014     54012     54016     54017     54015     54012     54016     54017
     54019     54018     54022     54023     54020     54018     54022     54023
     54021     54018     54022     54023     54025     54024     54028     54029
     54026     54024     54028     54029     54027     54024     54028     54029
     54031     54030     54034     54035     54032     54030     54034     54035
     54033     54030     54034     54035     54037     54036     54040     54041
     54038     54036     54040     54041     54039     54036     54040     54041
     54043     54042     54046     54047     54044     54042     54046     54047
     54045     54042     54046     54047     54049     54048     54052     54053
     54050     54048     54052     54053     54051     54048     54052     54053
     54055     54054     54058     54059     54056     54054     54058     54059
     54057     54054     54058     54059     54061     54060     54064     54065
     54062     54060     54064     54065     54063     54060     54064     54065
     54067     54066     54070     54071     54068     54066     54070     54071
     54069     54066     54070     54071     54073     54072     54076     54077
     54074     54072     54076     54077     54075     54072     54076     54077
     54079     54078     54082     54083     54080     54078     54082     54083
     54081     54078     54082     54083     54085     54084     54088     54089
     54086     54084     54088     54089     54087     54084     54088     54089
     54091     54090     54094     54095     54092     54090     54094     54095
     54093     54090     54094     54095     54097     54096     54100     54101
     54098     54096     54100     54101     54099     54096     54100     54101
     54103     54102     54106     54107     54104     54102     54106     54107
     54105     54102     54106     54107     54109     54108     54112     54113
     54110     54108     54112     54113     54111     54108     54112     54113
     54115     54114     54118     54119     54116     54114     54118     54119
     54117     54114     54118     54119     54121     54120     54124     54125
     54122     54120     54124     54125     54123     54120     54124     54125
     54127     54126     54130     54131     54128     54126     54130     54131
     54129     54126     54130     54131     54133     54132     54136     54137
     54134     54132     54136     54137     54135     54132     54136     54137
     54139     54138     54142     54143     54140     54138     54142     54143
     54141     54138     54142     54143     54145     54144     54148     54149
     54146     54144     54148     54149     54147     54144     54148     54149
     54151     54150     54154     54155     54152     54150     54154     54155
     54153     54150     54154     54155     54157     54156     54160     54161
     54158     54156     54160     54161     54159     54156     54160     54161
     54163     54162     54166     54167     54164     54162     54166     54167
     54165     54162     54166     54167     54169     54168     54172     54173
     54170     54168     54172     54173     54171     54168     54172     54173
     54175     54174     54178     54179     54176     54174     54178     54179
     54177     54174     54178     54179     54181     54180     54184     54185
     54182     54180     54184     54185     54183     54180     54184     54185
     54187     54186     54190     54191     54188     54186     54190     54191
     54189     54186     54190     54191     54193     54192     54196     54197
     54194     54192     54196     54197     54195     54192     54196     54197
     54199     54198     54202     54203     54200     54198     54202     54203
     54201     54198     54202     54203     54205     54204     54208     54209
     54206     54204     54208     54209     54207     54204     54208     54209
     54211     54210     54214     54215     54212     54210     54214     54215
     54213     54210     54214     54215     54217     54216     54220     54221
     54218     54216     54220     54221     54219     54216     54220     54221
     54223     54222     54226     54227     54224     54222     54226     54227
     54225     54222     54226     54227     54229     54228     54232     54233
     54230     54228     54232     54233     54231     54228     54232     54233
     54235     54234     54238     54239     54236     54234     54238     54239
     54237     54234     54238     54239     54241     54240     54244     54245
     54242     54240     54244     54245     54243     54240     54244     54245
     54247     54246     54250     54251     54248     54246     54250     54251
     54249     54246     54250     54251     54253     54252     54256     54257
     54254     54252     54256     54257     54255     54252     54256     54257
     54259     54258     54262     54263     54260     54258     54262     54263
     54261     54258     54262     54263     54265     54264     54268     54269
     54266     54264     54268     54269     54267     54264     54268     54269
     54271     54270     54274     54275     54272     54270     54274     54275
     54273     54270     54274     54275     54277     54276     54280     54281
     54278     54276     54280     54281     54279     54276     54280     54281
     54283     54282     54286     54287     54284     54282     54286     54287
     54285     54282     54286     54287     54289     54288     54292     54293
     54290     54288     54292     54293     54291     54288     54292     54293
     54295     54294     54298     54299     54296     54294     54298     54299
     54297     54294     54298     54299     54301     54300     54304     54305
     54302     54300     54304     54305     54303     54300     54304     54305
     54307     54306     54310     54311     54308     54306     54310     54311
     54309     54306     54310     54311     54313     54312     54316     54317
     54314     54312     54316     54317     54315     54312     54316     54317
     54319     54318     54322     54323     54320     54318     54322     54323
     54321     54318     54322     54323     54325     54324     54328     54329
     54326     54324     54328     54329     54327     54324     54328     54329
     54331     54330     54334     54335     54332     54330     54334     54335
     54333     54330     54334     54335     54337     54336     54340     54341
     54338     54336     54340     54341     54339     54336     54340     54341
     54343     54342     54346     54347     54344     54342     54346     54347
     54345     54342     54346     54347     54349     54348     54352     54353
     54350     54348     54352     54353     54351     54348     54352     54353
     54355     54354     54358     54359     54356     54354     54358     54359
     54357     54354     54358     54359     54361     54360     54364     54365
     54362     54360     54364     54365     54363     54360     54364     54365
     54367     54366     54370     54371     54368     54366     54370     54371
     54369     54366     54370     54371     54373     54372     54376     54377
     54374     54372     54376     54377     54375     54372     54376     54377
     54379     54378     54382     54383     54380     54378     54382     54383
     54381     54378     54382     54383     54385     54384     54388     54389
     54386     54384     54388     54389     54387     54384     54388     54389
     54391     54390     54394     54395     54392     54390     54394     54395
     54393     54390     54394     54395     54397     54396     54400     54401
     54398     54396     54400     54401     54399     54396     54400     54401
     54403     54402     54406     54407     54404     54402     54406     54407
     54405     54402     54406     54407     54409     54408     54412     54413
     54410     54408     54412     54413     54411     54408     54412     54413
     54415     54414     54418     54419     54416     54414     54418     54419
     54417     54414     54418     54419     54421     54420     54424     54425
     54422     54420     54424     54425     54423     54420     54424     54425
     54427     54426     54430     54431     54428     54426     54430     54431
     54429     54426     54430     54431     54433     54432     54436     54437
     54434     54432     54436     54437     54435     54432     54436     54437
     54439     54438     54442     54443     54440     54438     54442     54443
     54441     54438     54442     54443     54445     54444     54448     54449
     54446     54444     54448     54449     54447     54444     54448     54449
     54451     54450     54454     54455     54452     54450     54454     54455
     54453     54450     54454     54455     54457     54456     54460     54461
     54458     54456     54460     54461     54459     54456     54460     54461
     54463     54462     54466     54467     54464     54462     54466     54467
     54465     54462     54466     54467     54469     54468     54472     54473
     54470     54468     54472     54473     54471     54468     54472     54473
     54475     54474     54478     54479     54476     54474     54478     54479
     54477     54474     54478     54479     54481     54480     54484     54485
     54482     54480     54484     54485     54483     54480     54484     54485
     54487     54486     54490     54491     54488     54486     54490     54491
     54489     54486     54490     54491     54493     54492     54496     54497
     54494     54492     54496     54497     54495     54492     54496     54497
     54499     54498     54502     54503     54500     54498     54502     54503
     54501     54498     54502     54503     54505     54504     54508     54509
     54506     54504     54508     54509     54507     54504     54508     54509
     54511     54510     54514     54515     54512     54510     54514     54515
     54513     54510     54514     54515     54517     54516     54520     54521
     54518     54516     54520     54521     54519     54516     54520     54521
     54523     54522     54526     54527     54524     54522     54526     54527
     54525     54522     54526     54527     54529     54528     54532     54533
     54530     54528     54532     54533     54531     54528     54532     54533
     54535     54534     54538     54539     54536     54534     54538     54539
     54537     54534     54538     54539     54541     54540     54544     54545
     54542     54540     54544     54545     54543     54540     54544     54545
     54547     54546     54550     54551     54548     54546     54550     54551
     54549     54546     54550     54551     54553     54552     54556     54557
     54554     54552     54556     54557     54555     54552     54556     54557
     54559     54558     54562     54563     54560     54558     54562     54563
     54561     54558     54562     54563     54565     54564     54568     54569
     54566     54564     54568     54569     54567     54564     54568     54569
     54571     54570     54574     54575     54572     54570     54574     54575
     54573     54570     54574     54575     54577     54576     54580     54581
     54578     54576     54580     54581     54579     54576     54580     54581
     54583     54582     54586     54587     54584     54582     54586     54587
     54585     54582     54586     54587     54589     54588     54592     54593
     54590     54588     54592     54593     54591     54588     54592     54593
     54595     54594     54598     54599     54596     54594     54598     54599
     54597     54594     54598     54599     54601     54600     54604     54605
     54602     54600     54604     54605     54603     54600     54604     54605
     54607     54606     54610     54611     54608     54606     54610     54611
     54609     54606     54610     54611     54613     54612     54616     54617
     54614     54612     54616     54617     54615     54612     54616     54617
     54619     54618     54622     54623     54620     54618     54622     54623
     54621     54618     54622     54623     54625     54624     54628     54629
     54626     54624     54628     54629     54627     54624     54628     54629
     54631     54630     54634     54635     54632     54630     54634     54635
     54633     54630     54634     54635     54637     54636     54640     54641
     54638     54636     54640     54641     54639     54636     54640     54641
     54643     54642     54646     54647     54644     54642     54646     54647
     54645     54642     54646     54647     54649     54648     54652     54653
     54650     54648     54652     54653     54651     54648     54652     54653
     54655     54654     54658     54659     54656     54654     54658     54659
     54657     54654     54658     54659     54661     54660     54664     54665
     54662     54660     54664     54665     54663     54660     54664     54665
     54667     54666     54670     54671     54668     54666     54670     54671
     54669     54666     54670     54671     54673     54672     54676     54677
     54674     54672     54676     54677     54675     54672     54676     54677
     54679     54678     54682     54683     54680     54678     54682     54683
     54681     54678     54682     54683     54685     54684     54688     54689
     54686     54684     54688     54689     54687     54684     54688     54689
     54691     54690     54694     54695     54692     54690     54694     54695
     54693     54690     54694     54695     54697     54696     54700     54701
     54698     54696     54700     54701     54699     54696     54700     54701
     54703     54702     54706     54707     54704     54702     54706     54707
     54705     54702     54706     54707     54709     54708     54712     54713
     54710     54708     54712     54713     54711     54708     54712     54713
     54715     54714     54718     54719     54716     54714     54718     54719
     54717     54714     54718     54719     54721     54720     54724     54725
     54722     54720     54724     54725     54723     54720     54724     54725
     54727     54726     54730     54731     54728     54726     54730     54731
     54729     54726     54730     54731     54733     54732     54736     54737
     54734     54732     54736     54737     54735     54732     54736     54737
     54739     54738     54742     54743     54740     54738     54742     54743
     54741     54738     54742     54743     54745     54744     54748     54749
     54746     54744     54748     54749     54747     54744     54748     54749
     54751     54750     54754     54755     54752     54750     54754     54755
     54753     54750     54754     54755     54757     54756     54760     54761
     54758     54756     54760     54761     54759     54756     54760     54761
     54763     54762     54766     54767     54764     54762     54766     54767
     54765     54762     54766     54767     54769     54768     54772     54773
     54770     54768     54772     54773     54771     54768     54772     54773
     54775     54774     54778     54779     54776     54774     54778     54779
     54777     54774     54778     54779     54781     54780     54784     54785
     54782     54780     54784     54785     54783     54780     54784     54785
     54787     54786     54790     54791     54788     54786     54790     54791
     54789     54786     54790     54791     54793     54792     54796     54797
     54794     54792     54796     54797     54795     54792     54796     54797
     54799     54798     54802     54803     54800     54798     54802     54803
     54801     54798     54802     54803     54805     54804     54808     54809
     54806     54804     54808     54809     54807     54804     54808     54809
     54811     54810     54814     54815     54812     54810     54814     54815
     54813     54810     54814     54815     54817     54816     54820     54821
     54818     54816     54820     54821     54819     54816     54820     54821
     54823     54822     54826     54827     54824     54822     54826     54827
     54825     54822     54826     54827     54829     54828     54832     54833
     54830     54828     54832     54833     54831     54828     54832     54833
     54835     54834     54838     54839     54836     54834     54838     54839
     54837     54834     54838     54839     54841     54840     54844     54845
     54842     54840     54844     54845     54843     54840     54844     54845
     54847     54846     54850     54851     54848     54846     54850     54851
     54849     54846     54850     54851     54853     54852     54856     54857
     54854     54852     54856     54857     54855     54852     54856     54857
     54859     54858     54862     54863     54860     54858     54862     54863
     54861     54858     54862     54863     54865     54864     54868     54869
     54866     54864     54868     54869     54867     54864     54868     54869
     54871     54870     54874     54875     54872     54870     54874     54875
     54873     54870     54874     54875     54877     54876     54880     54881
     54878     54876     54880     54881     54879     54876     54880     54881
     54883     54882     54886     54887     54884     54882     54886     54887
     54885     54882     54886     54887     54889     54888     54892     54893
     54890     54888     54892     54893     54891     54888     54892     54893
     54895     54894     54898     54899     54896     54894     54898     54899
     54897     54894     54898     54899     54901     54900     54904     54905
     54902     54900     54904     54905     54903     54900     54904     54905
     54907     54906     54910     54911     54908     54906     54910     54911
     54909     54906     54910     54911     54913     54912     54916     54917
     54914     54912     54916     54917     54915     54912     54916     54917
     54919     54918     54922     54923     54920     54918     54922     54923
     54921     54918     54922     54923     54925     54924     54928     54929
     54926     54924     54928     54929     54927     54924     54928     54929
     54931     54930     54934     54935     54932     54930     54934     54935
     54933     54930     54934     54935     54937     54936     54940     54941
     54938     54936     54940     54941     54939     54936     54940     54941
     54943     54942     54946     54947     54944     54942     54946     54947
     54945     54942     54946     54947     54949     54948     54952     54953
     54950     54948     54952     54953     54951     54948     54952     54953
     54955     54954     54958     54959     54956     54954     54958     54959
     54957     54954     54958     54959     54961     54960     54964     54965
     54962     54960     54964     54965     54963     54960     54964     54965
     54967     54966     54970     54971     54968     54966     54970     54971
     54969     54966     54970     54971     54973     54972     54976     54977
     54974     54972     54976     54977     54975     54972     54976     54977
     54979     54978     54982     54983     54980     54978     54982     54983
     54981     54978     54982     54983     54985     54984     54988     54989
     54986     54984     54988     54989     54987     54984     54988     54989
     54991     54990     54994     54995     54992     54990     54994     54995
     54993     54990     54994     54995     54997     54996     55000     55001
     54998     54996     55000     55001     54999     54996     55000     55001
     55003     55002     55006     55007     55004     55002     55006     55007
     55005     55002     55006     55007     55009     55008     55012     55013
     55010     55008     55012     55013     55011     55008     55012     55013
     55015     55014     55018     55019     55016     55014     55018     55019
     55017     55014     55018     55019     55021     55020     55024     55025
     55022     55020     55024     55025     55023     55020     55024     55025
     55027     55026     55030     55031     55028     55026     55030     55031
     55029     55026     55030     55031     55033     55032     55036     55037
     55034     55032     55036     55037     55035     55032     55036     55037
     55039     55038     55042     55043     55040     55038     55042     55043
     55041     55038     55042     55043     55045     55044     55048     55049
     55046     55044     55048     55049     55047     55044     55048     55049
     55051     55050     55054     55055     55052     55050     55054     55055
     55053     55050     55054     55055     55057     55056     55060     55061
     55058     55056     55060     55061     55059     55056     55060     55061
     55063     55062     55066     55067     55064     55062     55066     55067
     55065     55062     55066     55067     55069     55068     55072     55073
     55070     55068     55072     55073     55071     55068     55072     55073
     55075     55074     55078     55079     55076     55074     55078     55079
     55077     55074     55078     55079     55081     55080     55084     55085
     55082     55080     55084     55085     55083     55080     55084     55085
     55087     55086     55090     55091     55088     55086     55090     55091
     55089     55086     55090     55091     55093     55092     55096     55097
     55094     55092     55096     55097     55095     55092     55096     55097
     55099     55098     55102     55103     55100     55098     55102     55103
     55101     55098     55102     55103     55105     55104     55108     55109
     55106     55104     55108     55109     55107     55104     55108     55109
     55111     55110     55114     55115     55112     55110     55114     55115
     55113     55110     55114     55115     55117     55116     55120     55121
     55118     55116     55120     55121     55119     55116     55120     55121
     55123     55122     55126     55127     55124     55122     55126     55127
     55125     55122     55126     55127     55129     55128     55132     55133
     55130     55128     55132     55133     55131     55128     55132     55133
     55135     55134     55138     55139     55136     55134     55138     55139
     55137     55134     55138     55139     55141     55140     55144     55145
     55142     55140     55144     55145     55143     55140     55144     55145
     55147     55146     55150     55151     55148     55146     55150     55151
     55149     55146     55150     55151     55153     55152     55156     55157
     55154     55152     55156     55157     55155     55152     55156     55157
     55159     55158     55162     55163     55160     55158     55162     55163
     55161     55158     55162     55163     55165     55164     55168     55169
     55166     55164     55168     55169     55167     55164     55168     55169
     55171     55170     55174     55175     55172     55170     55174     55175
     55173     55170     55174     55175     55177     55176     55180     55181
     55178     55176     55180     55181     55179     55176     55180     55181
     55183     55182     55186     55187     55184     55182     55186     55187
     55185     55182     55186     55187     55189     55188     55192     55193
     55190     55188     55192     55193     55191     55188     55192     55193
     55195     55194     55198     55199     55196     55194     55198     55199
     55197     55194     55198     55199     55201     55200     55204     55205
     55202     55200     55204     55205     55203     55200     55204     55205
     55207     55206     55210     55211     55208     55206     55210     55211
     55209     55206     55210     55211     55213     55212     55216     55217
     55214     55212     55216     55217     55215     55212     55216     55217
     55219     55218     55222     55223     55220     55218     55222     55223
     55221     55218     55222     55223     55225     55224     55228     55229
     55226     55224     55228     55229     55227     55224     55228     55229
     55231     55230     55234     55235     55232     55230     55234     55235
     55233     55230     55234     55235     55237     55236     55240     55241
     55238     55236     55240     55241     55239     55236     55240     55241
     55243     55242     55246     55247     55244     55242     55246     55247
     55245     55242     55246     55247     55249     55248     55252     55253
     55250     55248     55252     55253     55251     55248     55252     55253
     55255     55254     55258     55259     55256     55254     55258     55259
     55257     55254     55258     55259     55261     55260     55264     55265
     55262     55260     55264     55265     55263     55260     55264     55265
     55267     55266     55270     55271     55268     55266     55270     55271
     55269     55266     55270     55271     55273     55272     55276     55277
     55274     55272     55276     55277     55275     55272     55276     55277
     55279     55278     55282     55283     55280     55278     55282     55283
     55281     55278     55282     55283     55285     55284     55288     55289
     55286     55284     55288     55289     55287     55284     55288     55289
     55291     55290     55294     55295     55292     55290     55294     55295
     55293     55290     55294     55295     55297     55296     55300     55301
     55298     55296     55300     55301     55299     55296     55300     55301
     55303     55302     55306     55307     55304     55302     55306     55307
     55305     55302     55306     55307     55309     55308     55312     55313
     55310     55308     55312     55313     55311     55308     55312     55313
     55315     55314     55318     55319     55316     55314     55318     55319
     55317     55314     55318     55319     55321     55320     55324     55325
     55322     55320     55324     55325     55323     55320     55324     55325
     55327     55326     55330     55331     55328     55326     55330     55331
     55329     55326     55330     55331     55333     55332     55336     55337
     55334     55332     55336     55337     55335     55332     55336     55337
     55339     55338     55342     55343     55340     55338     55342     55343
     55341     55338     55342     55343     55345     55344     55348     55349
     55346     55344     55348     55349     55347     55344     55348     55349
     55351     55350     55354     55355     55352     55350     55354     55355
     55353     55350     55354     55355     55357     55356     55360     55361
     55358     55356     55360     55361     55359     55356     55360     55361
     55363     55362     55366     55367     55364     55362     55366     55367
     55365     55362     55366     55367     55369     55368     55372     55373
     55370     55368     55372     55373     55371     55368     55372     55373
     55375     55374     55378     55379     55376     55374     55378     55379
     55377     55374     55378     55379     55381     55380     55384     55385
     55382     55380     55384     55385     55383     55380     55384     55385
     55387     55386     55390     55391     55388     55386     55390     55391
     55389     55386     55390     55391     55393     55392     55396     55397
     55394     55392     55396     55397     55395     55392     55396     55397
     55399     55398     55402     55403     55400     55398     55402     55403
     55401     55398     55402     55403     55405     55404     55408     55409
     55406     55404     55408     55409     55407     55404     55408     55409
     55411     55410     55414     55415     55412     55410     55414     55415
     55413     55410     55414     55415     55417     55416     55420     55421
     55418     55416     55420     55421     55419     55416     55420     55421
     55423     55422     55426     55427     55424     55422     55426     55427
     55425     55422     55426     55427     55429     55428     55432     55433
     55430     55428     55432     55433     55431     55428     55432     55433
     55435     55434     55438     55439     55436     55434     55438     55439
     55437     55434     55438     55439     55441     55440     55444     55445
     55442     55440     55444     55445     55443     55440     55444     55445
     55447     55446     55450     55451     55448     55446     55450     55451
     55449     55446     55450     55451     55453     55452     55456     55457
     55454     55452     55456     55457     55455     55452     55456     55457
     55459     55458     55462     55463     55460     55458     55462     55463
     55461     55458     55462     55463     55465     55464     55468     55469
     55466     55464     55468     55469     55467     55464     55468     55469
     55471     55470     55474     55475     55472     55470     55474     55475
     55473     55470     55474     55475     55477     55476     55480     55481
     55478     55476     55480     55481     55479     55476     55480     55481
     55483     55482     55486     55487     55484     55482     55486     55487
     55485     55482     55486     55487     55489     55488     55492     55493
     55490     55488     55492     55493     55491     55488     55492     55493
     55495     55494     55498     55499     55496     55494     55498     55499
     55497     55494     55498     55499     55501     55500     55504     55505
     55502     55500     55504     55505     55503     55500     55504     55505
     55507     55506     55510     55511     55508     55506     55510     55511
     55509     55506     55510     55511     55513     55512     55516     55517
     55514     55512     55516     55517     55515     55512     55516     55517
     55519     55518     55522     55523     55520     55518     55522     55523
     55521     55518     55522     55523     55525     55524     55528     55529
     55526     55524     55528     55529     55527     55524     55528     55529
     55531     55530     55534     55535     55532     55530     55534     55535
     55533     55530     55534     55535     55537     55536     55540     55541
     55538     55536     55540     55541     55539     55536     55540     55541
     55543     55542     55546     55547     55544     55542     55546     55547
     55545     55542     55546     55547     55549     55548     55552     55553
     55550     55548     55552     55553     55551     55548     55552     55553
     55555     55554     55558     55559     55556     55554     55558     55559
     55557     55554     55558     55559     55561     55560     55564     55565
     55562     55560     55564     55565     55563     55560     55564     55565
     55567     55566     55570     55571     55568     55566     55570     55571
     55569     55566     55570     55571     55573     55572     55576     55577
     55574     55572     55576     55577     55575     55572     55576     55577
     55579     55578     55582     55583     55580     55578     55582     55583
     55581     55578     55582     55583     55585     55584     55588     55589
     55586     55584     55588     55589     55587     55584     55588     55589
     55591     55590     55594     55595     55592     55590     55594     55595
     55593     55590     55594     55595     55597     55596     55600     55601
     55598     55596     55600     55601     55599     55596     55600     55601
     55603     55602     55606     55607     55604     55602     55606     55607
     55605     55602     55606     55607     55609     55608     55612     55613
     55610     55608     55612     55613     55611     55608     55612     55613
     55615     55614     55618     55619     55616     55614     55618     55619
     55617     55614     55618     55619     55621     55620     55624     55625
     55622     55620     55624     55625     55623     55620     55624     55625
     55627     55626     55630     55631     55628     55626     55630     55631
     55629     55626     55630     55631     55633     55632     55636     55637
     55634     55632     55636     55637     55635     55632     55636     55637
     55639     55638     55642     55643     55640     55638     55642     55643
     55641     55638     55642     55643     55645     55644     55648     55649
     55646     55644     55648     55649     55647     55644     55648     55649
     55651     55650     55654     55655     55652     55650     55654     55655
     55653     55650     55654     55655     55657     55656     55660     55661
     55658     55656     55660     55661     55659     55656     55660     55661
     55663     55662     55666     55667     55664     55662     55666     55667
     55665     55662     55666     55667     55669     55668     55672     55673
     55670     55668     55672     55673     55671     55668     55672     55673
     55675     55674     55678     55679     55676     55674     55678     55679
     55677     55674     55678     55679     55681     55680     55684     55685
     55682     55680     55684     55685     55683     55680     55684     55685
     55687     55686     55690     55691     55688     55686     55690     55691
     55689     55686     55690     55691     55693     55692     55696     55697
     55694     55692     55696     55697     55695     55692     55696     55697
     55699     55698     55702     55703     55700     55698     55702     55703
     55701     55698     55702     55703     55705     55704     55708     55709
     55706     55704     55708     55709     55707     55704     55708     55709
     55711     55710     55714     55715     55712     55710     55714     55715
     55713     55710     55714     55715     55717     55716     55720     55721
     55718     55716     55720     55721     55719     55716     55720     55721
     55723     55722     55726     55727     55724     55722     55726     55727
     55725     55722     55726     55727     55729     55728     55732     55733
     55730     55728     55732     55733     55731     55728     55732     55733
     55735     55734     55738     55739     55736     55734     55738     55739
     55737     55734     55738     55739     55741     55740     55744     55745
     55742     55740     55744     55745     55743     55740     55744     55745
     55747     55746     55750     55751     55748     55746     55750     55751
     55749     55746     55750     55751     55753     55752     55756     55757
     55754     55752     55756     55757     55755     55752     55756     55757
     55759     55758     55762     55763     55760     55758     55762     55763
     55761     55758     55762     55763     55765     55764     55768     55769
     55766     55764     55768     55769     55767     55764     55768     55769
     55771     55770     55774     55775     55772     55770     55774     55775
     55773     55770     55774     55775     55777     55776     55780     55781
     55778     55776     55780     55781     55779     55776     55780     55781
     55783     55782     55786     55787     55784     55782     55786     55787
     55785     55782     55786     55787     55789     55788     55792     55793
     55790     55788     55792     55793     55791     55788     55792     55793
     55795     55794     55798     55799     55796     55794     55798     55799
     55797     55794     55798     55799     55801     55800     55804     55805
     55802     55800     55804     55805     55803     55800     55804     55805
     55807     55806     55810     55811     55808     55806     55810     55811
     55809     55806     55810     55811     55813     55812     55816     55817
     55814     55812     55816     55817     55815     55812     55816     55817
     55819     55818     55822     55823     55820     55818     55822     55823
     55821     55818     55822     55823     55825     55824     55828     55829
     55826     55824     55828     55829     55827     55824     55828     55829
     55831     55830     55834     55835     55832     55830     55834     55835
     55833     55830     55834     55835     55837     55836     55840     55841
     55838     55836     55840     55841     55839     55836     55840     55841
     55843     55842     55846     55847     55844     55842     55846     55847
     55845     55842     55846     55847     55849     55848     55852     55853
     55850     55848     55852     55853     55851     55848     55852     55853
     55855     55854     55858     55859     55856     55854     55858     55859
     55857     55854     55858     55859     55861     55860     55864     55865
     55862     55860     55864     55865     55863     55860     55864     55865
     55867     55866     55870     55871     55868     55866     55870     55871
     55869     55866     55870     55871     55873     55872     55876     55877
     55874     55872     55876     55877     55875     55872     55876     55877
     55879     55878     55882     55883     55880     55878     55882     55883
     55881     55878     55882     55883     55885     55884     55888     55889
     55886     55884     55888     55889     55887     55884     55888     55889
     55891     55890     55894     55895     55892     55890     55894     55895
     55893     55890     55894     55895     55897     55896     55900     55901
     55898     55896     55900     55901     55899     55896     55900     55901
     55903     55902     55906     55907     55904     55902     55906     55907
     55905     55902     55906     55907     55909     55908     55912     55913
     55910     55908     55912     55913     55911     55908     55912     55913
     55915     55914     55918     55919     55916     55914     55918     55919
     55917     55914     55918     55919     55921     55920     55924     55925
     55922     55920     55924     55925     55923     55920     55924     55925
     55927     55926     55930     55931     55928     55926     55930     55931
     55929     55926     55930     55931     55933     55932     55936     55937
     55934     55932     55936     55937     55935     55932     55936     55937
     55939     55938     55942     55943     55940     55938     55942     55943
     55941     55938     55942     55943     55945     55944     55948     55949
     55946     55944     55948     55949     55947     55944     55948     55949
     55951     55950     55954     55955     55952     55950     55954     55955
     55953     55950     55954     55955     55957     55956     55960     55961
     55958     55956     55960     55961     55959     55956     55960     55961
     55963     55962     55966     55967     55964     55962     55966     55967
     55965     55962     55966     55967     55969     55968     55972     55973
     55970     55968     55972     55973     55971     55968     55972     55973
     55975     55974     55978     55979     55976     55974     55978     55979
     55977     55974     55978     55979     55981     55980     55984     55985
     55982     55980     55984     55985     55983     55980     55984     55985
     55987     55986     55990     55991     55988     55986     55990     55991
     55989     55986     55990     55991     55993     55992     55996     55997
     55994     55992     55996     55997     55995     55992     55996     55997
     55999     55998     56002     56003     56000     55998     56002     56003
     56001     55998     56002     56003     56005     56004     56008     56009
     56006     56004     56008     56009     56007     56004     56008     56009
     56011     56010     56014     56015     56012     56010     56014     56015
     56013     56010     56014     56015     56017     56016     56020     56021
     56018     56016     56020     56021     56019     56016     56020     56021
     56023     56022     56026     56027     56024     56022     56026     56027
     56025     56022     56026     56027     56029     56028     56032     56033
     56030     56028     56032     56033     56031     56028     56032     56033
     56035     56034     56038     56039     56036     56034     56038     56039
     56037     56034     56038     56039     56041     56040     56044     56045
     56042     56040     56044     56045     56043     56040     56044     56045
     56047     56046     56050     56051     56048     56046     56050     56051
     56049     56046     56050     56051     56053     56052     56056     56057
     56054     56052     56056     56057     56055     56052     56056     56057
     56059     56058     56062     56063     56060     56058     56062     56063
     56061     56058     56062     56063     56065     56064     56068     56069
     56066     56064     56068     56069     56067     56064     56068     56069
     56071     56070     56074     56075     56072     56070     56074     56075
     56073     56070     56074     56075     56077     56076     56080     56081
     56078     56076     56080     56081     56079     56076     56080     56081
     56083     56082     56086     56087     56084     56082     56086     56087
     56085     56082     56086     56087     56089     56088     56092     56093
     56090     56088     56092     56093     56091     56088     56092     56093
     56095     56094     56098     56099     56096     56094     56098     56099
     56097     56094     56098     56099     56101     56100     56104     56105
     56102     56100     56104     56105     56103     56100     56104     56105
     56107     56106     56110     56111     56108     56106     56110     56111
     56109     56106     56110     56111     56113     56112     56116     56117
     56114     56112     56116     56117     56115     56112     56116     56117
     56119     56118     56122     56123     56120     56118     56122     56123
     56121     56118     56122     56123     56125     56124     56128     56129
     56126     56124     56128     56129     56127     56124     56128     56129
     56131     56130     56134     56135     56132     56130     56134     56135
     56133     56130     56134     56135     56137     56136     56140     56141
     56138     56136     56140     56141     56139     56136     56140     56141
     56143     56142     56146     56147     56144     56142     56146     56147
     56145     56142     56146     56147     56149     56148     56152     56153
     56150     56148     56152     56153     56151     56148     56152     56153
     56155     56154     56158     56159     56156     56154     56158     56159
     56157     56154     56158     56159     56161     56160     56164     56165
     56162     56160     56164     56165     56163     56160     56164     56165
     56167     56166     56170     56171     56168     56166     56170     56171
     56169     56166     56170     56171     56173     56172     56176     56177
     56174     56172     56176     56177     56175     56172     56176     56177
     56179     56178     56182     56183     56180     56178     56182     56183
     56181     56178     56182     56183     56185     56184     56188     56189
     56186     56184     56188     56189     56187     56184     56188     56189
     56191     56190     56194     56195     56192     56190     56194     56195
     56193     56190     56194     56195     56197     56196     56200     56201
     56198     56196     56200     56201     56199     56196     56200     56201
     56203     56202     56206     56207     56204     56202     56206     56207
     56205     56202     56206     56207     56209     56208     56212     56213
     56210     56208     56212     56213     56211     56208     56212     56213
     56215     56214     56218     56219     56216     56214     56218     56219
     56217     56214     56218     56219     56221     56220     56224     56225
     56222     56220     56224     56225     56223     56220     56224     56225
     56227     56226     56230     56231     56228     56226     56230     56231
     56229     56226     56230     56231     56233     56232     56236     56237
     56234     56232     56236     56237     56235     56232     56236     56237
     56239     56238     56242     56243     56240     56238     56242     56243
     56241     56238     56242     56243     56245     56244     56248     56249
     56246     56244     56248     56249     56247     56244     56248     56249
     56251     56250     56254     56255     56252     56250     56254     56255
     56253     56250     56254     56255     56257     56256     56260     56261
     56258     56256     56260     56261     56259     56256     56260     56261
     56263     56262     56266     56267     56264     56262     56266     56267
     56265     56262     56266     56267     56269     56268     56272     56273
     56270     56268     56272     56273     56271     56268     56272     56273
     56275     56274     56278     56279     56276     56274     56278     56279
     56277     56274     56278     56279     56281     56280     56284     56285
     56282     56280     56284     56285     56283     56280     56284     56285
     56287     56286     56290     56291     56288     56286     56290     56291
     56289     56286     56290     56291     56293     56292     56296     56297
     56294     56292     56296     56297     56295     56292     56296     56297
     56299     56298     56302     56303     56300     56298     56302     56303
     56301     56298     56302     56303     56305     56304     56308     56309
     56306     56304     56308     56309     56307     56304     56308     56309
     56311     56310     56314     56315     56312     56310     56314     56315
     56313     56310     56314     56315     56317     56316     56320     56321
     56318     56316     56320     56321     56319     56316     56320     56321
     56323     56322     56326     56327     56324     56322     56326     56327
     56325     56322     56326     56327     56329     56328     56332     56333
     56330     56328     56332     56333     56331     56328     56332     56333
     56335     56334     56338     56339     56336     56334     56338     56339
     56337     56334     56338     56339     56341     56340     56344     56345
     56342     56340     56344     56345     56343     56340     56344     56345
     56347     56346     56350     56351     56348     56346     56350     56351
     56349     56346     56350     56351     56353     56352     56356     56357
     56354     56352     56356     56357     56355     56352     56356     56357
     56359     56358     56362     56363     56360     56358     56362     56363
     56361     56358     56362     56363     56365     56364     56368     56369
     56366     56364     56368     56369     56367     56364     56368     56369
     56371     56370     56374     56375     56372     56370     56374     56375
     56373     56370     56374     56375     56377     56376     56380     56381
     56378     56376     56380     56381     56379     56376     56380     56381
     56383     56382     56386     56387     56384     56382     56386     56387
     56385     56382     56386     56387     56389     56388     56392     56393
     56390     56388     56392     56393     56391     56388     56392     56393
     56395     56394     56398     56399     56396     56394     56398     56399
     56397     56394     56398     56399     56401     56400     56404     56405
     56402     56400     56404     56405     56403     56400     56404     56405
     56407     56406     56410     56411     56408     56406     56410     56411
     56409     56406     56410     56411     56413     56412     56416     56417
     56414     56412     56416     56417     56415     56412     56416     56417
     56419     56418     56422     56423     56420     56418     56422     56423
     56421     56418     56422     56423     56425     56424     56428     56429
     56426     56424     56428     56429     56427     56424     56428     56429
     56431     56430     56434     56435     56432     56430     56434     56435
     56433     56430     56434     56435     56437     56436     56440     56441
     56438     56436     56440     56441     56439     56436     56440     56441
     56443     56442     56446     56447     56444     56442     56446     56447
     56445     56442     56446     56447     56449     56448     56452     56453
     56450     56448     56452     56453     56451     56448     56452     56453
     56455     56454     56458     56459     56456     56454     56458     56459
     56457     56454     56458     56459     56461     56460     56464     56465
     56462     56460     56464     56465     56463     56460     56464     56465
     56467     56466     56470     56471     56468     56466     56470     56471
     56469     56466     56470     56471     56473     56472     56476     56477
     56474     56472     56476     56477     56475     56472     56476     56477
     56479     56478     56482     56483     56480     56478     56482     56483
     56481     56478     56482     56483     56485     56484     56488     56489
     56486     56484     56488     56489     56487     56484     56488     56489
     56491     56490     56494     56495     56492     56490     56494     56495
     56493     56490     56494     56495     56497     56496     56500     56501
     56498     56496     56500     56501     56499     56496     56500     56501
     56503     56502     56506     56507     56504     56502     56506     56507
     56505     56502     56506     56507     56509     56508     56512     56513
     56510     56508     56512     56513     56511     56508     56512     56513
     56515     56514     56518     56519     56516     56514     56518     56519
     56517     56514     56518     56519     56521     56520     56524     56525
     56522     56520     56524     56525     56523     56520     56524     56525
     56527     56526     56530     56531     56528     56526     56530     56531
     56529     56526     56530     56531     56533     56532     56536     56537
     56534     56532     56536     56537     56535     56532     56536     56537
     56539     56538     56542     56543     56540     56538     56542     56543
     56541     56538     56542     56543     56545     56544     56548     56549
     56546     56544     56548     56549     56547     56544     56548     56549
     56551     56550     56554     56555     56552     56550     56554     56555
     56553     56550     56554     56555     56557     56556     56560     56561
     56558     56556     56560     56561     56559     56556     56560     56561
     56563     56562     56566     56567     56564     56562     56566     56567
     56565     56562     56566     56567     56569     56568     56572     56573
     56570     56568     56572     56573     56571     56568     56572     56573
     56575     56574     56578     56579     56576     56574     56578     56579
     56577     56574     56578     56579     56581     56580     56584     56585
     56582     56580     56584     56585     56583     56580     56584     56585
     56587     56586     56590     56591     56588     56586     56590     56591
     56589     56586     56590     56591     56593     56592     56596     56597
     56594     56592     56596     56597     56595     56592     56596     56597
     56599     56598     56602     56603     56600     56598     56602     56603
     56601     56598     56602     56603     56605     56604     56608     56609
     56606     56604     56608     56609     56607     56604     56608     56609
     56611     56610     56614     56615     56612     56610     56614     56615
     56613     56610     56614     56615     56617     56616     56620     56621
     56618     56616     56620     56621     56619     56616     56620     56621
     56623     56622     56626     56627     56624     56622     56626     56627
     56625     56622     56626     56627     56629     56628     56632     56633
     56630     56628     56632     56633     56631     56628     56632     56633
     56635     56634     56638     56639     56636     56634     56638     56639
     56637     56634     56638     56639     56641     56640     56644     56645
     56642     56640     56644     56645     56643     56640     56644     56645
     56647     56646     56650     56651     56648     56646     56650     56651
     56649     56646     56650     56651     56653     56652     56656     56657
     56654     56652     56656     56657     56655     56652     56656     56657
     56659     56658     56662     56663     56660     56658     56662     56663
     56661     56658     56662     56663     56665     56664     56668     56669
     56666     56664     56668     56669     56667     56664     56668     56669
     56671     56670     56674     56675     56672     56670     56674     56675
     56673     56670     56674     56675     56677     56676     56680     56681
     56678     56676     56680     56681     56679     56676     56680     56681
     56683     56682     56686     56687     56684     56682     56686     56687
     56685     56682     56686     56687     56689     56688     56692     56693
     56690     56688     56692     56693     56691     56688     56692     56693
     56695     56694     56698     56699     56696     56694     56698     56699
     56697     56694     56698     56699     56701     56700     56704     56705
     56702     56700     56704     56705     56703     56700     56704     56705
     56707     56706     56710     56711     56708     56706     56710     56711
     56709     56706     56710     56711     56713     56712     56716     56717
     56714     56712     56716     56717     56715     56712     56716     56717
     56719     56718     56722     56723     56720     56718     56722     56723
     56721     56718     56722     56723     56725     56724     56728     56729
     56726     56724     56728     56729     56727     56724     56728     56729
     56731     56730     56734     56735     56732     56730     56734     56735
     56733     56730     56734     56735     56737     56736     56740     56741
     56738     56736     56740     56741     56739     56736     56740     56741
     56743     56742     56746     56747     56744     56742     56746     56747
     56745     56742     56746     56747     56749     56748     56752     56753
     56750     56748     56752     56753     56751     56748     56752     56753
     56755     56754     56758     56759     56756     56754     56758     56759
     56757     56754     56758     56759     56761     56760     56764     56765
     56762     56760     56764     56765     56763     56760     56764     56765
     56767     56766     56770     56771     56768     56766     56770     56771
     56769     56766     56770     56771     56773     56772     56776     56777
     56774     56772     56776     56777     56775     56772     56776     56777
     56779     56778     56782     56783     56780     56778     56782     56783
     56781     56778     56782     56783     56785     56784     56788     56789
     56786     56784     56788     56789     56787     56784     56788     56789
     56791     56790     56794     56795     56792     56790     56794     56795
     56793     56790     56794     56795     56797     56796     56800     56801
     56798     56796     56800     56801     56799     56796     56800     56801
     56803     56802     56806     56807     56804     56802     56806     56807
     56805     56802     56806     56807     56809     56808     56812     56813
     56810     56808     56812     56813     56811     56808     56812     56813
     56815     56814     56818     56819     56816     56814     56818     56819
     56817     56814     56818     56819     56821     56820     56824     56825
     56822     56820     56824     56825     56823     56820     56824     56825
     56827     56826     56830     56831     56828     56826     56830     56831
     56829     56826     56830     56831     56833     56832     56836     56837
     56834     56832     56836     56837     56835     56832     56836     56837
     56839     56838     56842     56843     56840     56838     56842     56843
     56841     56838     56842     56843     56845     56844     56848     56849
     56846     56844     56848     56849     56847     56844     56848     56849
     56851     56850     56854     56855     56852     56850     56854     56855
     56853     56850     56854     56855     56857     56856     56860     56861
     56858     56856     56860     56861     56859     56856     56860     56861
     56863     56862     56866     56867     56864     56862     56866     56867
     56865     56862     56866     56867     56869     56868     56872     56873
     56870     56868     56872     56873     56871     56868     56872     56873
     56875     56874     56878     56879     56876     56874     56878     56879
     56877     56874     56878     56879     56881     56880     56884     56885
     56882     56880     56884     56885     56883     56880     56884     56885
     56887     56886     56890     56891     56888     56886     56890     56891
     56889     56886     56890     56891     56893     56892     56896     56897
     56894     56892     56896     56897     56895     56892     56896     56897
     56899     56898     56902     56903     56900     56898     56902     56903
     56901     56898     56902     56903     56905     56904     56908     56909
     56906     56904     56908     56909     56907     56904     56908     56909
     56911     56910     56914     56915     56912     56910     56914     56915
     56913     56910     56914     56915     56917     56916     56920     56921
     56918     56916     56920     56921     56919     56916     56920     56921
     56923     56922     56926     56927     56924     56922     56926     56927
     56925     56922     56926     56927     56929     56928     56932     56933
     56930     56928     56932     56933     56931     56928     56932     56933
     56935     56934     56938     56939     56936     56934     56938     56939
     56937     56934     56938     56939     56941     56940     56944     56945
     56942     56940     56944     56945     56943     56940     56944     56945
     56947     56946     56950     56951     56948     56946     56950     56951
     56949     56946     56950     56951     56953     56952     56956     56957
     56954     56952     56956     56957     56955     56952     56956     56957
     56959     56958     56962     56963     56960     56958     56962     56963
     56961     56958     56962     56963     56965     56964     56968     56969
     56966     56964     56968     56969     56967     56964     56968     56969
     56971     56970     56974     56975     56972     56970     56974     56975
     56973     56970     56974     56975     56977     56976     56980     56981
     56978     56976     56980     56981     56979     56976     56980     56981
     56983     56982     56986     56987     56984     56982     56986     56987
     56985     56982     56986     56987     56989     56988     56992     56993
     56990     56988     56992     56993     56991     56988     56992     56993
     56995     56994     56998     56999     56996     56994     56998     56999
     56997     56994     56998     56999     57001     57000     57004     57005
     57002     57000     57004     57005     57003     57000     57004     57005
     57007     57006     57010     57011     57008     57006     57010     57011
     57009     57006     57010     57011     57013     57012     57016     57017
     57014     57012     57016     57017     57015     57012     57016     57017
     57019     57018     57022     57023     57020     57018     57022     57023
     57021     57018     57022     57023     57025     57024     57028     57029
     57026     57024     57028     57029     57027     57024     57028     57029
     57031     57030     57034     57035     57032     57030     57034     57035
     57033     57030     57034     57035     57037     57036     57040     57041
     57038     57036     57040     57041     57039     57036     57040     57041
     57043     57042     57046     57047     57044     57042     57046     57047
     57045     57042     57046     57047     57049     57048     57052     57053
     57050     57048     57052     57053     57051     57048     57052     57053
     57055     57054     57058     57059     57056     57054     57058     57059
     57057     57054     57058     57059     57061     57060     57064     57065
     57062     57060     57064     57065     57063     57060     57064     57065
     57067     57066     57070     57071     57068     57066     57070     57071
     57069     57066     57070     57071     57073     57072     57076     57077
     57074     57072     57076     57077     57075     57072     57076     57077
     57079     57078     57082     57083     57080     57078     57082     57083
     57081     57078     57082     57083     57085     57084     57088     57089
     57086     57084     57088     57089     57087     57084     57088     57089
     57091     57090     57094     57095     57092     57090     57094     57095
     57093     57090     57094     57095     57097     57096     57100     57101
     57098     57096     57100     57101     57099     57096     57100     57101
     57103     57102     57106     57107     57104     57102     57106     57107
     57105     57102     57106     57107     57109     57108     57112     57113
     57110     57108     57112     57113     57111     57108     57112     57113
     57115     57114     57118     57119     57116     57114     57118     57119
     57117     57114     57118     57119     57121     57120     57124     57125
     57122     57120     57124     57125     57123     57120     57124     57125
     57127     57126     57130     57131     57128     57126     57130     57131
     57129     57126     57130     57131     57133     57132     57136     57137
     57134     57132     57136     57137     57135     57132     57136     57137
     57139     57138     57142     57143     57140     57138     57142     57143
     57141     57138     57142     57143     57145     57144     57148     57149
     57146     57144     57148     57149     57147     57144     57148     57149
     57151     57150     57154     57155     57152     57150     57154     57155
     57153     57150     57154     57155     57157     57156     57160     57161
     57158     57156     57160     57161     57159     57156     57160     57161
     57163     57162     57166     57167     57164     57162     57166     57167
     57165     57162     57166     57167     57169     57168     57172     57173
     57170     57168     57172     57173     57171     57168     57172     57173
     57175     57174     57178     57179     57176     57174     57178     57179
     57177     57174     57178     57179     57181     57180     57184     57185
     57182     57180     57184     57185     57183     57180     57184     57185
     57187     57186     57190     57191     57188     57186     57190     57191
     57189     57186     57190     57191     57193     57192     57196     57197
     57194     57192     57196     57197     57195     57192     57196     57197
     57199     57198     57202     57203     57200     57198     57202     57203
     57201     57198     57202     57203     57205     57204     57208     57209
     57206     57204     57208     57209     57207     57204     57208     57209
     57211     57210     57214     57215     57212     57210     57214     57215
     57213     57210     57214     57215     57217     57216     57220     57221
     57218     57216     57220     57221     57219     57216     57220     57221
     57223     57222     57226     57227     57224     57222     57226     57227
     57225     57222     57226     57227     57229     57228     57232     57233
     57230     57228     57232     57233     57231     57228     57232     57233
     57235     57234     57238     57239     57236     57234     57238     57239
     57237     57234     57238     57239     57241     57240     57244     57245
     57242     57240     57244     57245     57243     57240     57244     57245
     57247     57246     57250     57251     57248     57246     57250     57251
     57249     57246     57250     57251     57253     57252     57256     57257
     57254     57252     57256     57257     57255     57252     57256     57257
     57259     57258     57262     57263     57260     57258     57262     57263
     57261     57258     57262     57263     57265     57264     57268     57269
     57266     57264     57268     57269     57267     57264     57268     57269
     57271     57270     57274     57275     57272     57270     57274     57275
     57273     57270     57274     57275     57277     57276     57280     57281
     57278     57276     57280     57281     57279     57276     57280     57281
     57283     57282     57286     57287     57284     57282     57286     57287
     57285     57282     57286     57287     57289     57288     57292     57293
     57290     57288     57292     57293     57291     57288     57292     57293
     57295     57294     57298     57299     57296     57294     57298     57299
     57297     57294     57298     57299     57301     57300     57304     57305
     57302     57300     57304     57305     57303     57300     57304     57305
     57307     57306     57310     57311     57308     57306     57310     57311
     57309     57306     57310     57311     57313     57312     57316     57317
     57314     57312     57316     57317     57315     57312     57316     57317
     57319     57318     57322     57323     57320     57318     57322     57323
     57321     57318     57322     57323     57325     57324     57328     57329
     57326     57324     57328     57329     57327     57324     57328     57329
     57331     57330     57334     57335     57332     57330     57334     57335
     57333     57330     57334     57335     57337     57336     57340     57341
     57338     57336     57340     57341     57339     57336     57340     57341
     57343     57342     57346     57347     57344     57342     57346     57347
     57345     57342     57346     57347     57349     57348     57352     57353
     57350     57348     57352     57353     57351     57348     57352     57353
     57355     57354     57358     57359     57356     57354     57358     57359
     57357     57354     57358     57359     57361     57360     57364     57365
     57362     57360     57364     57365     57363     57360     57364     57365
     57367     57366     57370     57371     57368     57366     57370     57371
     57369     57366     57370     57371     57373     57372     57376     57377
     57374     57372     57376     57377     57375     57372     57376     57377
     57379     57378     57382     57383     57380     57378     57382     57383
     57381     57378     57382     57383     57385     57384     57388     57389
     57386     57384     57388     57389     57387     57384     57388     57389
     57391     57390     57394     57395     57392     57390     57394     57395
     57393     57390     57394     57395     57397     57396     57400     57401
     57398     57396     57400     57401     57399     57396     57400     57401
     57403     57402     57406     57407     57404     57402     57406     57407
     57405     57402     57406     57407     57409     57408     57412     57413
     57410     57408     57412     57413     57411     57408     57412     57413
     57415     57414     57418     57419     57416     57414     57418     57419
     57417     57414     57418     57419     57421     57420     57424     57425
     57422     57420     57424     57425     57423     57420     57424     57425
     57427     57426     57430     57431     57428     57426     57430     57431
     57429     57426     57430     57431     57433     57432     57436     57437
     57434     57432     57436     57437     57435     57432     57436     57437
     57439     57438     57442     57443     57440     57438     57442     57443
     57441     57438     57442     57443     57445     57444     57448     57449
     57446     57444     57448     57449     57447     57444     57448     57449
     57451     57450     57454     57455     57452     57450     57454     57455
     57453     57450     57454     57455     57457     57456     57460     57461
     57458     57456     57460     57461     57459     57456     57460     57461
     57463     57462     57466     57467     57464     57462     57466     57467
     57465     57462     57466     57467     57469     57468     57472     57473
     57470     57468     57472     57473     57471     57468     57472     57473
     57475     57474     57478     57479     57476     57474     57478     57479
     57477     57474     57478     57479     57481     57480     57484     57485
     57482     57480     57484     57485     57483     57480     57484     57485
     57487     57486     57490     57491     57488     57486     57490     57491
     57489     57486     57490     57491     57493     57492     57496     57497
     57494     57492     57496     57497     57495     57492     57496     57497
     57499     57498     57502     57503     57500     57498     57502     57503
     57501     57498     57502     57503     57505     57504     57508     57509
     57506     57504     57508     57509     57507     57504     57508     57509
     57511     57510     57514     57515     57512     57510     57514     57515
     57513     57510     57514     57515     57517     57516     57520     57521
     57518     57516     57520     57521     57519     57516     57520     57521
     57523     57522     57526     57527     57524     57522     57526     57527
     57525     57522     57526     57527     57529     57528     57532     57533
     57530     57528     57532     57533     57531     57528     57532     57533
     57535     57534     57538     57539     57536     57534     57538     57539
     57537     57534     57538     57539     57541     57540     57544     57545
     57542     57540     57544     57545     57543     57540     57544     57545
     57547     57546     57550     57551     57548     57546     57550     57551
     57549     57546     57550     57551     57553     57552     57556     57557
     57554     57552     57556     57557     57555     57552     57556     57557
     57559     57558     57562     57563     57560     57558     57562     57563
     57561     57558     57562     57563     57565     57564     57568     57569
     57566     57564     57568     57569     57567     57564     57568     57569
     57571     57570     57574     57575     57572     57570     57574     57575
     57573     57570     57574     57575     57577     57576     57580     57581
     57578     57576     57580     57581     57579     57576     57580     57581
     57583     57582     57586     57587     57584     57582     57586     57587
     57585     57582     57586     57587     57589     57588     57592     57593
     57590     57588     57592     57593     57591     57588     57592     57593
     57595     57594     57598     57599     57596     57594     57598     57599
     57597     57594     57598     57599     57601     57600     57604     57605
     57602     57600     57604     57605     57603     57600     57604     57605
     57607     57606     57610     57611     57608     57606     57610     57611
     57609     57606     57610     57611     57613     57612     57616     57617
     57614     57612     57616     57617     57615     57612     57616     57617
     57619     57618     57622     57623     57620     57618     57622     57623
     57621     57618     57622     57623     57625     57624     57628     57629
     57626     57624     57628     57629     57627     57624     57628     57629
     57631     57630     57634     57635     57632     57630     57634     57635
     57633     57630     57634     57635     57637     57636     57640     57641
     57638     57636     57640     57641     57639     57636     57640     57641
     57643     57642     57646     57647     57644     57642     57646     57647
     57645     57642     57646     57647     57649     57648     57652     57653
     57650     57648     57652     57653     57651     57648     57652     57653
     57655     57654     57658     57659     57656     57654     57658     57659
     57657     57654     57658     57659     57661     57660     57664     57665
     57662     57660     57664     57665     57663     57660     57664     57665
     57667     57666     57670     57671     57668     57666     57670     57671
     57669     57666     57670     57671     57673     57672     57676     57677
     57674     57672     57676     57677     57675     57672     57676     57677
     57679     57678     57682     57683     57680     57678     57682     57683
     57681     57678     57682     57683     57685     57684     57688     57689
     57686     57684     57688     57689     57687     57684     57688     57689
     57691     57690     57694     57695     57692     57690     57694     57695
     57693     57690     57694     57695     57697     57696     57700     57701
     57698     57696     57700     57701     57699     57696     57700     57701
     57703     57702     57706     57707     57704     57702     57706     57707
     57705     57702     57706     57707     57709     57708     57712     57713
     57710     57708     57712     57713     57711     57708     57712     57713
     57715     57714     57718     57719     57716     57714     57718     57719
     57717     57714     57718     57719     57721     57720     57724     57725
     57722     57720     57724     57725     57723     57720     57724     57725
     57727     57726     57730     57731     57728     57726     57730     57731
     57729     57726     57730     57731     57733     57732     57736     57737
     57734     57732     57736     57737     57735     57732     57736     57737
     57739     57738     57742     57743     57740     57738     57742     57743
     57741     57738     57742     57743     57745     57744     57748     57749
     57746     57744     57748     57749     57747     57744     57748     57749
     57751     57750     57754     57755     57752     57750     57754     57755
     57753     57750     57754     57755     57757     57756     57760     57761
     57758     57756     57760     57761     57759     57756     57760     57761
     57763     57762     57766     57767     57764     57762     57766     57767
     57765     57762     57766     57767     57769     57768     57772     57773
     57770     57768     57772     57773     57771     57768     57772     57773
     57775     57774     57778     57779     57776     57774     57778     57779
     57777     57774     57778     57779     57781     57780     57784     57785
     57782     57780     57784     57785     57783     57780     57784     57785
     57787     57786     57790     57791     57788     57786     57790     57791
     57789     57786     57790     57791     57793     57792     57796     57797
     57794     57792     57796     57797     57795     57792     57796     57797
     57799     57798     57802     57803     57800     57798     57802     57803
     57801     57798     57802     57803     57805     57804     57808     57809
     57806     57804     57808     57809     57807     57804     57808     57809
     57811     57810     57814     57815     57812     57810     57814     57815
     57813     57810     57814     57815     57817     57816     57820     57821
     57818     57816     57820     57821     57819     57816     57820     57821
     57823     57822     57826     57827     57824     57822     57826     57827
     57825     57822     57826     57827     57829     57828     57832     57833
     57830     57828     57832     57833     57831     57828     57832     57833
     57835     57834     57838     57839     57836     57834     57838     57839
     57837     57834     57838     57839     57841     57840     57844     57845
     57842     57840     57844     57845     57843     57840     57844     57845
     57847     57846     57850     57851     57848     57846     57850     57851
     57849     57846     57850     57851     57853     57852     57856     57857
     57854     57852     57856     57857     57855     57852     57856     57857
     57859     57858     57862     57863     57860     57858     57862     57863
     57861     57858     57862     57863     57865     57864     57868     57869
     57866     57864     57868     57869     57867     57864     57868     57869
     57871     57870     57874     57875     57872     57870     57874     57875
     57873     57870     57874     57875     57877     57876     57880     57881
     57878     57876     57880     57881     57879     57876     57880     57881
     57883     57882     57886     57887     57884     57882     57886     57887
     57885     57882     57886     57887     57889     57888     57892     57893
     57890     57888     57892     57893     57891     57888     57892     57893
     57895     57894     57898     57899     57896     57894     57898     57899
     57897     57894     57898     57899     57901     57900     57904     57905
     57902     57900     57904     57905     57903     57900     57904     57905
     57907     57906     57910     57911     57908     57906     57910     57911
     57909     57906     57910     57911     57913     57912     57916     57917
     57914     57912     57916     57917     57915     57912     57916     57917
     57919     57918     57922     57923     57920     57918     57922     57923
     57921     57918     57922     57923     57925     57924     57928     57929
     57926     57924     57928     57929     57927     57924     57928     57929
     57931     57930     57934     57935     57932     57930     57934     57935
     57933     57930     57934     57935     57937     57936     57940     57941
     57938     57936     57940     57941     57939     57936     57940     57941
     57943     57942     57946     57947     57944     57942     57946     57947
     57945     57942     57946     57947     57949     57948     57952     57953
     57950     57948     57952     57953     57951     57948     57952     57953
     57955     57954     57958     57959     57956     57954     57958     57959
     57957     57954     57958     57959     57961     57960     57964     57965
     57962     57960     57964     57965     57963     57960     57964     57965
     57967     57966     57970     57971     57968     57966     57970     57971
     57969     57966     57970     57971     57973     57972     57976     57977
     57974     57972     57976     57977     57975     57972     57976     57977
     57979     57978     57982     57983     57980     57978     57982     57983
     57981     57978     57982     57983     57985     57984     57988     57989
     57986     57984     57988     57989     57987     57984     57988     57989
     57991     57990     57994     57995     57992     57990     57994     57995
     57993     57990     57994     57995     57997     57996     58000     58001
     57998     57996     58000     58001     57999     57996     58000     58001
     58003     58002     58006     58007     58004     58002     58006     58007
     58005     58002     58006     58007     58009     58008     58012     58013
     58010     58008     58012     58013     58011     58008     58012     58013
     58015     58014     58018     58019     58016     58014     58018     58019
     58017     58014     58018     58019     58021     58020     58024     58025
     58022     58020     58024     58025     58023     58020     58024     58025
     58027     58026     58030     58031     58028     58026     58030     58031
     58029     58026     58030     58031     58033     58032     58036     58037
     58034     58032     58036     58037     58035     58032     58036     58037
     58039     58038     58042     58043     58040     58038     58042     58043
     58041     58038     58042     58043     58045     58044     58048     58049
     58046     58044     58048     58049     58047     58044     58048     58049
     58051     58050     58054     58055     58052     58050     58054     58055
     58053     58050     58054     58055     58057     58056     58060     58061
     58058     58056     58060     58061     58059     58056     58060     58061
     58063     58062     58066     58067     58064     58062     58066     58067
     58065     58062     58066     58067     58069     58068     58072     58073
     58070     58068     58072     58073     58071     58068     58072     58073
     58075     58074     58078     58079     58076     58074     58078     58079
     58077     58074     58078     58079     58081     58080     58084     58085
     58082     58080     58084     58085     58083     58080     58084     58085
     58087     58086     58090     58091     58088     58086     58090     58091
     58089     58086     58090     58091     58093     58092     58096     58097
     58094     58092     58096     58097     58095     58092     58096     58097
     58099     58098     58102     58103     58100     58098     58102     58103
     58101     58098     58102     58103     58105     58104     58108     58109
     58106     58104     58108     58109     58107     58104     58108     58109
     58111     58110     58114     58115     58112     58110     58114     58115
     58113     58110     58114     58115     58117     58116     58120     58121
     58118     58116     58120     58121     58119     58116     58120     58121
     58123     58122     58126     58127     58124     58122     58126     58127
     58125     58122     58126     58127     58129     58128     58132     58133
     58130     58128     58132     58133     58131     58128     58132     58133
     58135     58134     58138     58139     58136     58134     58138     58139
     58137     58134     58138     58139     58141     58140     58144     58145
     58142     58140     58144     58145     58143     58140     58144     58145
     58147     58146     58150     58151     58148     58146     58150     58151
     58149     58146     58150     58151     58153     58152     58156     58157
     58154     58152     58156     58157     58155     58152     58156     58157
     58159     58158     58162     58163     58160     58158     58162     58163
     58161     58158     58162     58163     58165     58164     58168     58169
     58166     58164     58168     58169     58167     58164     58168     58169
     58171     58170     58174     58175     58172     58170     58174     58175
     58173     58170     58174     58175     58177     58176     58180     58181
     58178     58176     58180     58181     58179     58176     58180     58181
     58183     58182     58186     58187     58184     58182     58186     58187
     58185     58182     58186     58187     58189     58188     58192     58193
     58190     58188     58192     58193     58191     58188     58192     58193
     58195     58194     58198     58199     58196     58194     58198     58199
     58197     58194     58198     58199     58201     58200     58204     58205
     58202     58200     58204     58205     58203     58200     58204     58205
     58207     58206     58210     58211     58208     58206     58210     58211
     58209     58206     58210     58211     58213     58212     58216     58217
     58214     58212     58216     58217     58215     58212     58216     58217
     58219     58218     58222     58223     58220     58218     58222     58223
     58221     58218     58222     58223     58225     58224     58228     58229
     58226     58224     58228     58229     58227     58224     58228     58229
     58231     58230     58234     58235     58232     58230     58234     58235
     58233     58230     58234     58235     58237     58236     58240     58241
     58238     58236     58240     58241     58239     58236     58240     58241
     58243     58242     58246     58247     58244     58242     58246     58247
     58245     58242     58246     58247     58249     58248     58252     58253
     58250     58248     58252     58253     58251     58248     58252     58253
     58255     58254     58258     58259     58256     58254     58258     58259
     58257     58254     58258     58259     58261     58260     58264     58265
     58262     58260     58264     58265     58263     58260     58264     58265
     58267     58266     58270     58271     58268     58266     58270     58271
     58269     58266     58270     58271     58273     58272     58276     58277
     58274     58272     58276     58277     58275     58272     58276     58277
     58279     58278     58282     58283     58280     58278     58282     58283
     58281     58278     58282     58283     58285     58284     58288     58289
     58286     58284     58288     58289     58287     58284     58288     58289
     58291     58290     58294     58295     58292     58290     58294     58295
     58293     58290     58294     58295     58297     58296     58300     58301
     58298     58296     58300     58301     58299     58296     58300     58301
     58303     58302     58306     58307     58304     58302     58306     58307
     58305     58302     58306     58307     58309     58308     58312     58313
     58310     58308     58312     58313     58311     58308     58312     58313
     58315     58314     58318     58319     58316     58314     58318     58319
     58317     58314     58318     58319     58321     58320     58324     58325
     58322     58320     58324     58325     58323     58320     58324     58325
     58327     58326     58330     58331     58328     58326     58330     58331
     58329     58326     58330     58331     58333     58332     58336     58337
     58334     58332     58336     58337     58335     58332     58336     58337
     58339     58338     58342     58343     58340     58338     58342     58343
     58341     58338     58342     58343     58345     58344     58348     58349
     58346     58344     58348     58349     58347     58344     58348     58349
     58351     58350     58354     58355     58352     58350     58354     58355
     58353     58350     58354     58355     58357     58356     58360     58361
     58358     58356     58360     58361     58359     58356     58360     58361
     58363     58362     58366     58367     58364     58362     58366     58367
     58365     58362     58366     58367     58369     58368     58372     58373
     58370     58368     58372     58373     58371     58368     58372     58373
     58375     58374     58378     58379     58376     58374     58378     58379
     58377     58374     58378     58379     58381     58380     58384     58385
     58382     58380     58384     58385     58383     58380     58384     58385
     58387     58386     58390     58391     58388     58386     58390     58391
     58389     58386     58390     58391     58393     58392     58396     58397
     58394     58392     58396     58397     58395     58392     58396     58397
     58399     58398     58402     58403     58400     58398     58402     58403
     58401     58398     58402     58403     58405     58404     58408     58409
     58406     58404     58408     58409     58407     58404     58408     58409
     58411     58410     58414     58415     58412     58410     58414     58415
     58413     58410     58414     58415     58417     58416     58420     58421
     58418     58416     58420     58421     58419     58416     58420     58421
     58423     58422     58426     58427     58424     58422     58426     58427
     58425     58422     58426     58427     58429     58428     58432     58433
     58430     58428     58432     58433     58431     58428     58432     58433
     58435     58434     58438     58439     58436     58434     58438     58439
     58437     58434     58438     58439     58441     58440     58444     58445
     58442     58440     58444     58445     58443     58440     58444     58445
     58447     58446     58450     58451     58448     58446     58450     58451
     58449     58446     58450     58451     58453     58452     58456     58457
     58454     58452     58456     58457     58455     58452     58456     58457
     58459     58458     58462     58463     58460     58458     58462     58463
     58461     58458     58462     58463     58465     58464     58468     58469
     58466     58464     58468     58469     58467     58464     58468     58469
     58471     58470     58474     58475     58472     58470     58474     58475
     58473     58470     58474     58475     58477     58476     58480     58481
     58478     58476     58480     58481     58479     58476     58480     58481
     58483     58482     58486     58487     58484     58482     58486     58487
     58485     58482     58486     58487     58489     58488     58492     58493
     58490     58488     58492     58493     58491     58488     58492     58493
     58495     58494     58498     58499     58496     58494     58498     58499
     58497     58494     58498     58499     58501     58500     58504     58505
     58502     58500     58504     58505     58503     58500     58504     58505
     58507     58506     58510     58511     58508     58506     58510     58511
     58509     58506     58510     58511     58513     58512     58516     58517
     58514     58512     58516     58517     58515     58512     58516     58517
     58519     58518     58522     58523     58520     58518     58522     58523
     58521     58518     58522     58523     58525     58524     58528     58529
     58526     58524     58528     58529     58527     58524     58528     58529
     58531     58530     58534     58535     58532     58530     58534     58535
     58533     58530     58534     58535     58537     58536     58540     58541
     58538     58536     58540     58541     58539     58536     58540     58541
     58543     58542     58546     58547     58544     58542     58546     58547
     58545     58542     58546     58547     58549     58548     58552     58553
     58550     58548     58552     58553     58551     58548     58552     58553
     58555     58554     58558     58559     58556     58554     58558     58559
     58557     58554     58558     58559     58561     58560     58564     58565
     58562     58560     58564     58565     58563     58560     58564     58565
     58567     58566     58570     58571     58568     58566     58570     58571
     58569     58566     58570     58571     58573     58572     58576     58577
     58574     58572     58576     58577     58575     58572     58576     58577
     58579     58578     58582     58583     58580     58578     58582     58583
     58581     58578     58582     58583     58585     58584     58588     58589
     58586     58584     58588     58589     58587     58584     58588     58589
     58591     58590     58594     58595     58592     58590     58594     58595
     58593     58590     58594     58595     58597     58596     58600     58601
     58598     58596     58600     58601     58599     58596     58600     58601
     58603     58602     58606     58607     58604     58602     58606     58607
     58605     58602     58606     58607     58609     58608     58612     58613
     58610     58608     58612     58613     58611     58608     58612     58613
     58615     58614     58618     58619     58616     58614     58618     58619
     58617     58614     58618     58619     58621     58620     58624     58625
     58622     58620     58624     58625     58623     58620     58624     58625
     58627     58626     58630     58631     58628     58626     58630     58631
     58629     58626     58630     58631     58633     58632     58636     58637
     58634     58632     58636     58637     58635     58632     58636     58637
     58639     58638     58642     58643     58640     58638     58642     58643
     58641     58638     58642     58643     58645     58644     58648     58649
     58646     58644     58648     58649     58647     58644     58648     58649
     58651     58650     58654     58655     58652     58650     58654     58655
     58653     58650     58654     58655     58657     58656     58660     58661
     58658     58656     58660     58661     58659     58656     58660     58661
     58663     58662     58666     58667     58664     58662     58666     58667
     58665     58662     58666     58667     58669     58668     58672     58673
     58670     58668     58672     58673     58671     58668     58672     58673
     58675     58674     58678     58679     58676     58674     58678     58679
     58677     58674     58678     58679     58681     58680     58684     58685
     58682     58680     58684     58685     58683     58680     58684     58685
     58687     58686     58690     58691     58688     58686     58690     58691
     58689     58686     58690     58691     58693     58692     58696     58697
     58694     58692     58696     58697     58695     58692     58696     58697
     58699     58698     58702     58703     58700     58698     58702     58703
     58701     58698     58702     58703     58705     58704     58708     58709
     58706     58704     58708     58709     58707     58704     58708     58709
     58711     58710     58714     58715     58712     58710     58714     58715
     58713     58710     58714     58715     58717     58716     58720     58721
     58718     58716     58720     58721     58719     58716     58720     58721
     58723     58722     58726     58727     58724     58722     58726     58727
     58725     58722     58726     58727     58729     58728     58732     58733
     58730     58728     58732     58733     58731     58728     58732     58733
     58735     58734     58738     58739     58736     58734     58738     58739
     58737     58734     58738     58739     58741     58740     58744     58745
     58742     58740     58744     58745     58743     58740     58744     58745
     58747     58746     58750     58751     58748     58746     58750     58751
     58749     58746     58750     58751     58753     58752     58756     58757
     58754     58752     58756     58757     58755     58752     58756     58757
     58759     58758     58762     58763     58760     58758     58762     58763
     58761     58758     58762     58763     58765     58764     58768     58769
     58766     58764     58768     58769     58767     58764     58768     58769
     58771     58770     58774     58775     58772     58770     58774     58775
     58773     58770     58774     58775     58777     58776     58780     58781
     58778     58776     58780     58781     58779     58776     58780     58781
     58783     58782     58786     58787     58784     58782     58786     58787
     58785     58782     58786     58787     58789     58788     58792     58793
     58790     58788     58792     58793     58791     58788     58792     58793
     58795     58794     58798     58799     58796     58794     58798     58799
     58797     58794     58798     58799     58801     58800     58804     58805
     58802     58800     58804     58805     58803     58800     58804     58805
     58807     58806     58810     58811     58808     58806     58810     58811
     58809     58806     58810     58811     58813     58812     58816     58817
     58814     58812     58816     58817     58815     58812     58816     58817
     58819     58818     58822     58823     58820     58818     58822     58823
     58821     58818     58822     58823     58825     58824     58828     58829
     58826     58824     58828     58829     58827     58824     58828     58829
     58831     58830     58834     58835     58832     58830     58834     58835
     58833     58830     58834     58835     58837     58836     58840     58841
     58838     58836     58840     58841     58839     58836     58840     58841
     58843     58842     58846     58847     58844     58842     58846     58847
     58845     58842     58846     58847     58849     58848     58852     58853
     58850     58848     58852     58853     58851     58848     58852     58853
     58855     58854     58858     58859     58856     58854     58858     58859
     58857     58854     58858     58859     58861     58860     58864     58865
     58862     58860     58864     58865     58863     58860     58864     58865
     58867     58866     58870     58871     58868     58866     58870     58871
     58869     58866     58870     58871     58873     58872     58876     58877
     58874     58872     58876     58877     58875     58872     58876     58877
     58879     58878     58882     58883     58880     58878     58882     58883
     58881     58878     58882     58883     58885     58884     58888     58889
     58886     58884     58888     58889     58887     58884     58888     58889
     58891     58890     58894     58895     58892     58890     58894     58895
     58893     58890     58894     58895     58897     58896     58900     58901
     58898     58896     58900     58901     58899     58896     58900     58901
     58903     58902     58906     58907     58904     58902     58906     58907
     58905     58902     58906     58907     58909     58908     58912     58913
     58910     58908     58912     58913     58911     58908     58912     58913
     58915     58914     58918     58919     58916     58914     58918     58919
     58917     58914     58918     58919     58921     58920     58924     58925
     58922     58920     58924     58925     58923     58920     58924     58925
     58927     58926     58930     58931     58928     58926     58930     58931
     58929     58926     58930     58931     58933     58932     58936     58937
     58934     58932     58936     58937     58935     58932     58936     58937
     58939     58938     58942     58943     58940     58938     58942     58943
     58941     58938     58942     58943     58945     58944     58948     58949
     58946     58944     58948     58949     58947     58944     58948     58949
     58951     58950     58954     58955     58952     58950     58954     58955
     58953     58950     58954     58955     58957     58956     58960     58961
     58958     58956     58960     58961     58959     58956     58960     58961
     58963     58962     58966     58967     58964     58962     58966     58967
     58965     58962     58966     58967     58969     58968     58972     58973
     58970     58968     58972     58973     58971     58968     58972     58973
     58975     58974     58978     58979     58976     58974     58978     58979
     58977     58974     58978     58979     58981     58980     58984     58985
     58982     58980     58984     58985     58983     58980     58984     58985
     58987     58986     58990     58991     58988     58986     58990     58991
     58989     58986     58990     58991     58993     58992     58996     58997
     58994     58992     58996     58997     58995     58992     58996     58997
     58999     58998     59002     59003     59000     58998     59002     59003
     59001     58998     59002     59003     59005     59004     59008     59009
     59006     59004     59008     59009     59007     59004     59008     59009
     59011     59010     59014     59015     59012     59010     59014     59015
     59013     59010     59014     59015     59017     59016     59020     59021
     59018     59016     59020     59021     59019     59016     59020     59021
     59023     59022     59026     59027     59024     59022     59026     59027
     59025     59022     59026     59027     59029     59028     59032     59033
     59030     59028     59032     59033     59031     59028     59032     59033
     59035     59034     59038     59039     59036     59034     59038     59039
     59037     59034     59038     59039     59041     59040     59044     59045
     59042     59040     59044     59045     59043     59040     59044     59045
     59047     59046     59050     59051     59048     59046     59050     59051
     59049     59046     59050     59051     59053     59052     59056     59057
     59054     59052     59056     59057     59055     59052     59056     59057
     59059     59058     59062     59063     59060     59058     59062     59063
     59061     59058     59062     59063     59065     59064     59068     59069
     59066     59064     59068     59069     59067     59064     59068     59069
     59071     59070     59074     59075     59072     59070     59074     59075
     59073     59070     59074     59075     59077     59076     59080     59081
     59078     59076     59080     59081     59079     59076     59080     59081
     59083     59082     59086     59087     59084     59082     59086     59087
     59085     59082     59086     59087     59089     59088     59092     59093
     59090     59088     59092     59093     59091     59088     59092     59093
     59095     59094     59098     59099     59096     59094     59098     59099
     59097     59094     59098     59099     59101     59100     59104     59105
     59102     59100     59104     59105     59103     59100     59104     59105
     59107     59106     59110     59111     59108     59106     59110     59111
     59109     59106     59110     59111     59113     59112     59116     59117
     59114     59112     59116     59117     59115     59112     59116     59117
     59119     59118     59122     59123     59120     59118     59122     59123
     59121     59118     59122     59123     59125     59124     59128     59129
     59126     59124     59128     59129     59127     59124     59128     59129
     59131     59130     59134     59135     59132     59130     59134     59135
     59133     59130     59134     59135     59137     59136     59140     59141
     59138     59136     59140     59141     59139     59136     59140     59141
     59143     59142     59146     59147     59144     59142     59146     59147
     59145     59142     59146     59147     59149     59148     59152     59153
     59150     59148     59152     59153     59151     59148     59152     59153
     59155     59154     59158     59159     59156     59154     59158     59159
     59157     59154     59158     59159     59161     59160     59164     59165
     59162     59160     59164     59165     59163     59160     59164     59165
     59167     59166     59170     59171     59168     59166     59170     59171
     59169     59166     59170     59171     59173     59172     59176     59177
     59174     59172     59176     59177     59175     59172     59176     59177
     59179     59178     59182     59183     59180     59178     59182     59183
     59181     59178     59182     59183     59185     59184     59188     59189
     59186     59184     59188     59189     59187     59184     59188     59189
     59191     59190     59194     59195     59192     59190     59194     59195
     59193     59190     59194     59195     59197     59196     59200     59201
     59198     59196     59200     59201     59199     59196     59200     59201
     59203     59202     59206     59207     59204     59202     59206     59207
     59205     59202     59206     59207     59209     59208     59212     59213
     59210     59208     59212     59213     59211     59208     59212     59213
     59215     59214     59218     59219     59216     59214     59218     59219
     59217     59214     59218     59219     59221     59220     59224     59225
     59222     59220     59224     59225     59223     59220     59224     59225
     59227     59226     59230     59231     59228     59226     59230     59231
     59229     59226     59230     59231     59233     59232     59236     59237
     59234     59232     59236     59237     59235     59232     59236     59237
     59239     59238     59242     59243     59240     59238     59242     59243
     59241     59238     59242     59243     59245     59244     59248     59249
     59246     59244     59248     59249     59247     59244     59248     59249
     59251     59250     59254     59255     59252     59250     59254     59255
     59253     59250     59254     59255     59257     59256     59260     59261
     59258     59256     59260     59261     59259     59256     59260     59261
     59263     59262     59266     59267     59264     59262     59266     59267
     59265     59262     59266     59267     59269     59268     59272     59273
     59270     59268     59272     59273     59271     59268     59272     59273
     59275     59274     59278     59279     59276     59274     59278     59279
     59277     59274     59278     59279     59281     59280     59284     59285
     59282     59280     59284     59285     59283     59280     59284     59285
     59287     59286     59290     59291     59288     59286     59290     59291
     59289     59286     59290     59291     59293     59292     59296     59297
     59294     59292     59296     59297     59295     59292     59296     59297
     59299     59298     59302     59303     59300     59298     59302     59303
     59301     59298     59302     59303     59305     59304     59308     59309
     59306     59304     59308     59309     59307     59304     59308     59309
     59311     59310     59314     59315     59312     59310     59314     59315
     59313     59310     59314     59315     59317     59316     59320     59321
     59318     59316     59320     59321     59319     59316     59320     59321
     59323     59322     59326     59327     59324     59322     59326     59327
     59325     59322     59326     59327     59329     59328     59332     59333
     59330     59328     59332     59333     59331     59328     59332     59333
     59335     59334     59338     59339     59336     59334     59338     59339
     59337     59334     59338     59339     59341     59340     59344     59345
     59342     59340     59344     59345     59343     59340     59344     59345
     59347     59346     59350     59351     59348     59346     59350     59351
     59349     59346     59350     59351     59353     59352     59356     59357
     59354     59352     59356     59357     59355     59352     59356     59357
     59359     59358     59362     59363     59360     59358     59362     59363
     59361     59358     59362     59363     59365     59364     59368     59369
     59366     59364     59368     59369     59367     59364     59368     59369
     59371     59370     59374     59375     59372     59370     59374     59375
     59373     59370     59374     59375     59377     59376     59380     59381
     59378     59376     59380     59381     59379     59376     59380     59381
     59383     59382     59386     59387     59384     59382     59386     59387
     59385     59382     59386     59387     59389     59388     59392     59393
     59390     59388     59392     59393     59391     59388     59392     59393
     59395     59394     59398     59399     59396     59394     59398     59399
     59397     59394     59398     59399     59401     59400     59404     59405
     59402     59400     59404     59405     59403     59400     59404     59405
     59407     59406     59410     59411     59408     59406     59410     59411
     59409     59406     59410     59411     59413     59412     59416     59417
     59414     59412     59416     59417     59415     59412     59416     59417
     59419     59418     59422     59423     59420     59418     59422     59423
     59421     59418     59422     59423     59425     59424     59428     59429
     59426     59424     59428     59429     59427     59424     59428     59429
     59431     59430     59434     59435     59432     59430     59434     59435
     59433     59430     59434     59435     59437     59436     59440     59441
     59438     59436     59440     59441     59439     59436     59440     59441
     59443     59442     59446     59447     59444     59442     59446     59447
     59445     59442     59446     59447     59449     59448     59452     59453
     59450     59448     59452     59453     59451     59448     59452     59453
     59455     59454     59458     59459     59456     59454     59458     59459
     59457     59454     59458     59459     59461     59460     59464     59465
     59462     59460     59464     59465     59463     59460     59464     59465
     59467     59466     59470     59471     59468     59466     59470     59471
     59469     59466     59470     59471     59473     59472     59476     59477
     59474     59472     59476     59477     59475     59472     59476     59477
     59479     59478     59482     59483     59480     59478     59482     59483
     59481     59478     59482     59483     59485     59484     59488     59489
     59486     59484     59488     59489     59487     59484     59488     59489
     59491     59490     59494     59495     59492     59490     59494     59495
     59493     59490     59494     59495     59497     59496     59500     59501
     59498     59496     59500     59501     59499     59496     59500     59501
     59503     59502     59506     59507     59504     59502     59506     59507
     59505     59502     59506     59507     59509     59508     59512     59513
     59510     59508     59512     59513     59511     59508     59512     59513
     59515     59514     59518     59519     59516     59514     59518     59519
     59517     59514     59518     59519     59521     59520     59524     59525
     59522     59520     59524     59525     59523     59520     59524     59525
     59527     59526     59530     59531     59528     59526     59530     59531
     59529     59526     59530     59531     59533     59532     59536     59537
     59534     59532     59536     59537     59535     59532     59536     59537
     59539     59538     59542     59543     59540     59538     59542     59543
     59541     59538     59542     59543     59545     59544     59548     59549
     59546     59544     59548     59549     59547     59544     59548     59549
     59551     59550     59554     59555     59552     59550     59554     59555
     59553     59550     59554     59555     59557     59556     59560     59561
     59558     59556     59560     59561     59559     59556     59560     59561
     59563     59562     59566     59567     59564     59562     59566     59567
     59565     59562     59566     59567     59569     59568     59572     59573
     59570     59568     59572     59573     59571     59568     59572     59573
     59575     59574     59578     59579     59576     59574     59578     59579
     59577     59574     59578     59579     59581     59580     59584     59585
     59582     59580     59584     59585     59583     59580     59584     59585
     59587     59586     59590     59591     59588     59586     59590     59591
     59589     59586     59590     59591     59593     59592     59596     59597
     59594     59592     59596     59597     59595     59592     59596     59597
     59599     59598     59602     59603     59600     59598     59602     59603
     59601     59598     59602     59603     59605     59604     59608     59609
     59606     59604     59608     59609     59607     59604     59608     59609
     59611     59610     59614     59615     59612     59610     59614     59615
     59613     59610     59614     59615     59617     59616     59620     59621
     59618     59616     59620     59621     59619     59616     59620     59621
     59623     59622     59626     59627     59624     59622     59626     59627
     59625     59622     59626     59627     59629     59628     59632     59633
     59630     59628     59632     59633     59631     59628     59632     59633
     59635     59634     59638     59639     59636     59634     59638     59639
     59637     59634     59638     59639     59641     59640     59644     59645
     59642     59640     59644     59645     59643     59640     59644     59645
     59647     59646     59650     59651     59648     59646     59650     59651
     59649     59646     59650     59651     59653     59652     59656     59657
     59654     59652     59656     59657     59655     59652     59656     59657
     59659     59658     59662     59663     59660     59658     59662     59663
     59661     59658     59662     59663     59665     59664     59668     59669
     59666     59664     59668     59669     59667     59664     59668     59669
     59671     59670     59674     59675     59672     59670     59674     59675
     59673     59670     59674     59675     59677     59676     59680     59681
     59678     59676     59680     59681     59679     59676     59680     59681
     59683     59682     59686     59687     59684     59682     59686     59687
     59685     59682     59686     59687     59689     59688     59692     59693
     59690     59688     59692     59693     59691     59688     59692     59693
     59695     59694     59698     59699     59696     59694     59698     59699
     59697     59694     59698     59699     59701     59700     59704     59705
     59702     59700     59704     59705     59703     59700     59704     59705
     59707     59706     59710     59711     59708     59706     59710     59711
     59709     59706     59710     59711     59713     59712     59716     59717
     59714     59712     59716     59717     59715     59712     59716     59717
     59719     59718     59722     59723     59720     59718     59722     59723
     59721     59718     59722     59723     59725     59724     59728     59729
     59726     59724     59728     59729     59727     59724     59728     59729
     59731     59730     59734     59735     59732     59730     59734     59735
     59733     59730     59734     59735     59737     59736     59740     59741
     59738     59736     59740     59741     59739     59736     59740     59741
     59743     59742     59746     59747     59744     59742     59746     59747
     59745     59742     59746     59747     59749     59748     59752     59753
     59750     59748     59752     59753     59751     59748     59752     59753
     59755     59754     59758     59759     59756     59754     59758     59759
     59757     59754     59758     59759     59761     59760     59764     59765
     59762     59760     59764     59765     59763     59760     59764     59765
     59767     59766     59770     59771     59768     59766     59770     59771
     59769     59766     59770     59771     59773     59772     59776     59777
     59774     59772     59776     59777     59775     59772     59776     59777
     59779     59778     59782     59783     59780     59778     59782     59783
     59781     59778     59782     59783     59785     59784     59788     59789
     59786     59784     59788     59789     59787     59784     59788     59789
     59791     59790     59794     59795     59792     59790     59794     59795
     59793     59790     59794     59795     59797     59796     59800     59801
     59798     59796     59800     59801     59799     59796     59800     59801
     59803     59802     59806     59807     59804     59802     59806     59807
     59805     59802     59806     59807     59809     59808     59812     59813
     59810     59808     59812     59813     59811     59808     59812     59813
     59815     59814     59818     59819     59816     59814     59818     59819
     59817     59814     59818     59819     59821     59820     59824     59825
     59822     59820     59824     59825     59823     59820     59824     59825
     59827     59826     59830     59831     59828     59826     59830     59831
     59829     59826     59830     59831     59833     59832     59836     59837
     59834     59832     59836     59837     59835     59832     59836     59837
     59839     59838     59842     59843     59840     59838     59842     59843
     59841     59838     59842     59843     59845     59844     59848     59849
     59846     59844     59848     59849     59847     59844     59848     59849
     59851     59850     59854     59855     59852     59850     59854     59855
     59853     59850     59854     59855     59857     59856     59860     59861
     59858     59856     59860     59861     59859     59856     59860     59861
     59863     59862     59866     59867     59864     59862     59866     59867
     59865     59862     59866     59867     59869     59868     59872     59873
     59870     59868     59872     59873     59871     59868     59872     59873
     59875     59874     59878     59879     59876     59874     59878     59879
     59877     59874     59878     59879     59881     59880     59884     59885
     59882     59880     59884     59885     59883     59880     59884     59885
     59887     59886     59890     59891     59888     59886     59890     59891
     59889     59886     59890     59891     59893     59892     59896     59897
     59894     59892     59896     59897     59895     59892     59896     59897
     59899     59898     59902     59903     59900     59898     59902     59903
     59901     59898     59902     59903     59905     59904     59908     59909
     59906     59904     59908     59909     59907     59904     59908     59909
     59911     59910     59914     59915     59912     59910     59914     59915
     59913     59910     59914     59915     59917     59916     59920     59921
     59918     59916     59920     59921     59919     59916     59920     59921
     59923     59922     59926     59927     59924     59922     59926     59927
     59925     59922     59926     59927     59929     59928     59932     59933
     59930     59928     59932     59933     59931     59928     59932     59933
     59935     59934     59938     59939     59936     59934     59938     59939
     59937     59934     59938     59939     59941     59940     59944     59945
     59942     59940     59944     59945     59943     59940     59944     59945
     59947     59946     59950     59951     59948     59946     59950     59951
     59949     59946     59950     59951     59953     59952     59956     59957
     59954     59952     59956     59957     59955     59952     59956     59957
     59959     59958     59962     59963     59960     59958     59962     59963
     59961     59958     59962     59963     59965     59964     59968     59969
     59966     59964     59968     59969     59967     59964     59968     59969
     59971     59970     59974     59975     59972     59970     59974     59975
     59973     59970     59974     59975     59977     59976     59980     59981
     59978     59976     59980     59981     59979     59976     59980     59981
     59983     59982     59986     59987     59984     59982     59986     59987
     59985     59982     59986     59987     59989     59988     59992     59993
     59990     59988     59992     59993     59991     59988     59992     59993
     59995     59994     59998     59999     59996     59994     59998     59999
     59997     59994     59998     59999     60001     60000     60004     60005
     60002     60000     60004     60005     60003     60000     60004     60005
     60007     60006     60010     60011     60008     60006     60010     60011
     60009     60006     60010     60011     60013     60012     60016     60017
     60014     60012     60016     60017     60015     60012     60016     60017
     60019     60018     60022     60023     60020     60018     60022     60023
     60021     60018     60022     60023     60025     60024     60028     60029
     60026     60024     60028     60029     60027     60024     60028     60029
     60031     60030     60034     60035     60032     60030     60034     60035
     60033     60030     60034     60035     60037     60036     60040     60041
     60038     60036     60040     60041     60039     60036     60040     60041
     60043     60042     60046     60047     60044     60042     60046     60047
     60045     60042     60046     60047     60049     60048     60052     60053
     60050     60048     60052     60053     60051     60048     60052     60053
     60055     60054     60058     60059     60056     60054     60058     60059
     60057     60054     60058     60059     60061     60060     60064     60065
     60062     60060     60064     60065     60063     60060     60064     60065
     60067     60066     60070     60071     60068     60066     60070     60071
     60069     60066     60070     60071     60073     60072     60076     60077
     60074     60072     60076     60077     60075     60072     60076     60077
     60079     60078     60082     60083     60080     60078     60082     60083
     60081     60078     60082     60083     60085     60084     60088     60089
     60086     60084     60088     60089     60087     60084     60088     60089
     60091     60090     60094     60095     60092     60090     60094     60095
     60093     60090     60094     60095     60097     60096     60100     60101
     60098     60096     60100     60101     60099     60096     60100     60101
     60103     60102     60106     60107     60104     60102     60106     60107
     60105     60102     60106     60107     60109     60108     60112     60113
     60110     60108     60112     60113     60111     60108     60112     60113
     60115     60114     60118     60119     60116     60114     60118     60119
     60117     60114     60118     60119     60121     60120     60124     60125
     60122     60120     60124     60125     60123     60120     60124     60125
     60127     60126     60130     60131     60128     60126     60130     60131
     60129     60126     60130     60131     60133     60132     60136     60137
     60134     60132     60136     60137     60135     60132     60136     60137
     60139     60138     60142     60143     60140     60138     60142     60143
     60141     60138     60142     60143     60145     60144     60148     60149
     60146     60144     60148     60149     60147     60144     60148     60149
     60151     60150     60154     60155     60152     60150     60154     60155
     60153     60150     60154     60155     60157     60156     60160     60161
     60158     60156     60160     60161     60159     60156     60160     60161
     60163     60162     60166     60167     60164     60162     60166     60167
     60165     60162     60166     60167     60169     60168     60172     60173
     60170     60168     60172     60173     60171     60168     60172     60173
     60175     60174     60178     60179     60176     60174     60178     60179
     60177     60174     60178     60179     60181     60180     60184     60185
     60182     60180     60184     60185     60183     60180     60184     60185
     60187     60186     60190     60191     60188     60186     60190     60191
     60189     60186     60190     60191     60193     60192     60196     60197
     60194     60192     60196     60197     60195     60192     60196     60197
     60199     60198     60202     60203     60200     60198     60202     60203
     60201     60198     60202     60203     60205     60204     60208     60209
     60206     60204     60208     60209     60207     60204     60208     60209
     60211     60210     60214     60215     60212     60210     60214     60215
     60213     60210     60214     60215     60217     60216     60220     60221
     60218     60216     60220     60221     60219     60216     60220     60221
     60223     60222     60226     60227     60224     60222     60226     60227
     60225     60222     60226     60227     60229     60228     60232     60233
     60230     60228     60232     60233     60231     60228     60232     60233
     60235     60234     60238     60239     60236     60234     60238     60239
     60237     60234     60238     60239     60241     60240     60244     60245
     60242     60240     60244     60245     60243     60240     60244     60245
     60247     60246     60250     60251     60248     60246     60250     60251
     60249     60246     60250     60251     60253     60252     60256     60257
     60254     60252     60256     60257     60255     60252     60256     60257
     60259     60258     60262     60263     60260     60258     60262     60263
     60261     60258     60262     60263     60265     60264     60268     60269
     60266     60264     60268     60269     60267     60264     60268     60269
     60271     60270     60274     60275     60272     60270     60274     60275
     60273     60270     60274     60275     60277     60276     60280     60281
     60278     60276     60280     60281     60279     60276     60280     60281
     60283     60282     60286     60287     60284     60282     60286     60287
     60285     60282     60286     60287     60289     60288     60292     60293
     60290     60288     60292     60293     60291     60288     60292     60293
     60295     60294     60298     60299     60296     60294     60298     60299
     60297     60294     60298     60299     60301     60300     60304     60305
     60302     60300     60304     60305     60303     60300     60304     60305
     60307     60306     60310     60311     60308     60306     60310     60311
     60309     60306     60310     60311     60313     60312     60316     60317
     60314     60312     60316     60317     60315     60312     60316     60317
     60319     60318     60322     60323     60320     60318     60322     60323
     60321     60318     60322     60323     60325     60324     60328     60329
     60326     60324     60328     60329     60327     60324     60328     60329
     60331     60330     60334     60335     60332     60330     60334     60335
     60333     60330     60334     60335     60337     60336     60340     60341
     60338     60336     60340     60341     60339     60336     60340     60341
     60343     60342     60346     60347     60344     60342     60346     60347
     60345     60342     60346     60347     60349     60348     60352     60353
     60350     60348     60352     60353     60351     60348     60352     60353
     60355     60354     60358     60359     60356     60354     60358     60359
     60357     60354     60358     60359     60361     60360     60364     60365
     60362     60360     60364     60365     60363     60360     60364     60365
     60367     60366     60370     60371     60368     60366     60370     60371
     60369     60366     60370     60371     60373     60372     60376     60377
     60374     60372     60376     60377     60375     60372     60376     60377
     60379     60378     60382     60383     60380     60378     60382     60383
     60381     60378     60382     60383     60385     60384     60388     60389
     60386     60384     60388     60389     60387     60384     60388     60389
     60391     60390     60394     60395     60392     60390     60394     60395
     60393     60390     60394     60395     60397     60396     60400     60401
     60398     60396     60400     60401     60399     60396     60400     60401
     60403     60402     60406     60407     60404     60402     60406     60407
     60405     60402     60406     60407     60409     60408     60412     60413
     60410     60408     60412     60413     60411     60408     60412     60413
     60415     60414     60418     60419     60416     60414     60418     60419
     60417     60414     60418     60419     60421     60420     60424     60425
     60422     60420     60424     60425     60423     60420     60424     60425
     60427     60426     60430     60431     60428     60426     60430     60431
     60429     60426     60430     60431     60433     60432     60436     60437
     60434     60432     60436     60437     60435     60432     60436     60437
     60439     60438     60442     60443     60440     60438     60442     60443
     60441     60438     60442     60443     60445     60444     60448     60449
     60446     60444     60448     60449     60447     60444     60448     60449
     60451     60450     60454     60455     60452     60450     60454     60455
     60453     60450     60454     60455     60457     60456     60460     60461
     60458     60456     60460     60461     60459     60456     60460     60461
     60463     60462     60466     60467     60464     60462     60466     60467
     60465     60462     60466     60467     60469     60468     60472     60473
     60470     60468     60472     60473     60471     60468     60472     60473
     60475     60474     60478     60479     60476     60474     60478     60479
     60477     60474     60478     60479     60481     60480     60484     60485
     60482     60480     60484     60485     60483     60480     60484     60485
     60487     60486     60490     60491     60488     60486     60490     60491
     60489     60486     60490     60491     60493     60492     60496     60497
     60494     60492     60496     60497     60495     60492     60496     60497
     60499     60498     60502     60503     60500     60498     60502     60503
     60501     60498     60502     60503     60505     60504     60508     60509
     60506     60504     60508     60509     60507     60504     60508     60509
     60511     60510     60514     60515     60512     60510     60514     60515
     60513     60510     60514     60515     60517     60516     60520     60521
     60518     60516     60520     60521     60519     60516     60520     60521
     60523     60522     60526     60527     60524     60522     60526     60527
     60525     60522     60526     60527     60529     60528     60532     60533
     60530     60528     60532     60533     60531     60528     60532     60533
     60535     60534     60538     60539     60536     60534     60538     60539
     60537     60534     60538     60539     60541     60540     60544     60545
     60542     60540     60544     60545     60543     60540     60544     60545
     60547     60546     60550     60551     60548     60546     60550     60551
     60549     60546     60550     60551     60553     60552     60556     60557
     60554     60552     60556     60557     60555     60552     60556     60557
     60559     60558     60562     60563     60560     60558     60562     60563
     60561     60558     60562     60563     60565     60564     60568     60569
     60566     60564     60568     60569     60567     60564     60568     60569
     60571     60570     60574     60575     60572     60570     60574     60575
     60573     60570     60574     60575     60577     60576     60580     60581
     60578     60576     60580     60581     60579     60576     60580     60581
     60583     60582     60586     60587     60584     60582     60586     60587
     60585     60582     60586     60587     60589     60588     60592     60593
     60590     60588     60592     60593     60591     60588     60592     60593
     60595     60594     60598     60599     60596     60594     60598     60599
     60597     60594     60598     60599     60601     60600     60604     60605
     60602     60600     60604     60605     60603     60600     60604     60605
     60607     60606     60610     60611     60608     60606     60610     60611
     60609     60606     60610     60611     60613     60612     60616     60617
     60614     60612     60616     60617     60615     60612     60616     60617
     60619     60618     60622     60623     60620     60618     60622     60623
     60621     60618     60622     60623     60625     60624     60628     60629
     60626     60624     60628     60629     60627     60624     60628     60629
     60631     60630     60634     60635     60632     60630     60634     60635
     60633     60630     60634     60635     60637     60636     60640     60641
     60638     60636     60640     60641     60639     60636     60640     60641
     60643     60642     60646     60647     60644     60642     60646     60647
     60645     60642     60646     60647     60649     60648     60652     60653
     60650     60648     60652     60653     60651     60648     60652     60653
     60655     60654     60658     60659     60656     60654     60658     60659
     60657     60654     60658     60659     60661     60660     60664     60665
     60662     60660     60664     60665     60663     60660     60664     60665
     60667     60666     60670     60671     60668     60666     60670     60671
     60669     60666     60670     60671     60673     60672     60676     60677
     60674     60672     60676     60677     60675     60672     60676     60677
     60679     60678     60682     60683     60680     60678     60682     60683
     60681     60678     60682     60683     60685     60684     60688     60689
     60686     60684     60688     60689     60687     60684     60688     60689
     60691     60690     60694     60695     60692     60690     60694     60695
     60693     60690     60694     60695     60697     60696     60700     60701
     60698     60696     60700     60701     60699     60696     60700     60701
     60703     60702     60706     60707     60704     60702     60706     60707
     60705     60702     60706     60707     60709     60708     60712     60713
     60710     60708     60712     60713     60711     60708     60712     60713
     60715     60714     60718     60719     60716     60714     60718     60719
     60717     60714     60718     60719     60721     60720     60724     60725
     60722     60720     60724     60725     60723     60720     60724     60725
     60727     60726     60730     60731     60728     60726     60730     60731
     60729     60726     60730     60731     60733     60732     60736     60737
     60734     60732     60736     60737     60735     60732     60736     60737
     60739     60738     60742     60743     60740     60738     60742     60743
     60741     60738     60742     60743     60745     60744     60748     60749
     60746     60744     60748     60749     60747     60744     60748     60749
     60751     60750     60754     60755     60752     60750     60754     60755
     60753     60750     60754     60755     60757     60756     60760     60761
     60758     60756     60760     60761     60759     60756     60760     60761
     60763     60762     60766     60767     60764     60762     60766     60767
     60765     60762     60766     60767     60769     60768     60772     60773
     60770     60768     60772     60773     60771     60768     60772     60773
     60775     60774     60778     60779     60776     60774     60778     60779
     60777     60774     60778     60779     60781     60780     60784     60785
     60782     60780     60784     60785     60783     60780     60784     60785
     60787     60786     60790     60791     60788     60786     60790     60791
     60789     60786     60790     60791     60793     60792     60796     60797
     60794     60792     60796     60797     60795     60792     60796     60797
     60799     60798     60802     60803     60800     60798     60802     60803
     60801     60798     60802     60803     60805     60804     60808     60809
     60806     60804     60808     60809     60807     60804     60808     60809
     60811     60810     60814     60815     60812     60810     60814     60815
     60813     60810     60814     60815     60817     60816     60820     60821
     60818     60816     60820     60821     60819     60816     60820     60821
     60823     60822     60826     60827     60824     60822     60826     60827
     60825     60822     60826     60827     60829     60828     60832     60833
     60830     60828     60832     60833     60831     60828     60832     60833
     60835     60834     60838     60839     60836     60834     60838     60839
     60837     60834     60838     60839     60841     60840     60844     60845
     60842     60840     60844     60845     60843     60840     60844     60845
     60847     60846     60850     60851     60848     60846     60850     60851
     60849     60846     60850     60851     60853     60852     60856     60857
     60854     60852     60856     60857     60855     60852     60856     60857
     60859     60858     60862     60863     60860     60858     60862     60863
     60861     60858     60862     60863     60865     60864     60868     60869
     60866     60864     60868     60869     60867     60864     60868     60869
     60871     60870     60874     60875     60872     60870     60874     60875
     60873     60870     60874     60875     60877     60876     60880     60881
     60878     60876     60880     60881     60879     60876     60880     60881
     60883     60882     60886     60887     60884     60882     60886     60887
     60885     60882     60886     60887     60889     60888     60892     60893
     60890     60888     60892     60893     60891     60888     60892     60893
     60895     60894     60898     60899     60896     60894     60898     60899
     60897     60894     60898     60899     60901     60900     60904     60905
     60902     60900     60904     60905     60903     60900     60904     60905
     60907     60906     60910     60911     60908     60906     60910     60911
     60909     60906     60910     60911     60913     60912     60916     60917
     60914     60912     60916     60917     60915     60912     60916     60917
     60919     60918     60922     60923     60920     60918     60922     60923
     60921     60918     60922     60923     60925     60924     60928     60929
     60926     60924     60928     60929     60927     60924     60928     60929
     60931     60930     60934     60935     60932     60930     60934     60935
     60933     60930     60934     60935     60937     60936     60940     60941
     60938     60936     60940     60941     60939     60936     60940     60941
     60943     60942     60946     60947     60944     60942     60946     60947
     60945     60942     60946     60947     60949     60948     60952     60953
     60950     60948     60952     60953     60951     60948     60952     60953
     60955     60954     60958     60959     60956     60954     60958     60959
     60957     60954     60958     60959     60961     60960     60964     60965
     60962     60960     60964     60965     60963     60960     60964     60965
     60967     60966     60970     60971     60968     60966     60970     60971
     60969     60966     60970     60971     60973     60972     60976     60977
     60974     60972     60976     60977     60975     60972     60976     60977
     60979     60978     60982     60983     60980     60978     60982     60983
     60981     60978     60982     60983     60985     60984     60988     60989
     60986     60984     60988     60989     60987     60984     60988     60989
     60991     60990     60994     60995     60992     60990     60994     60995
     60993     60990     60994     60995     60997     60996     61000     61001
     60998     60996     61000     61001     60999     60996     61000     61001
     61003     61002     61006     61007     61004     61002     61006     61007
     61005     61002     61006     61007     61009     61008     61012     61013
     61010     61008     61012     61013     61011     61008     61012     61013
     61015     61014     61018     61019     61016     61014     61018     61019
     61017     61014     61018     61019     61021     61020     61024     61025
     61022     61020     61024     61025     61023     61020     61024     61025
     61027     61026     61030     61031     61028     61026     61030     61031
     61029     61026     61030     61031     61033     61032     61036     61037
     61034     61032     61036     61037     61035     61032     61036     61037
     61039     61038     61042     61043     61040     61038     61042     61043
     61041     61038     61042     61043     61045     61044     61048     61049
     61046     61044     61048     61049     61047     61044     61048     61049
     61051     61050     61054     61055     61052     61050     61054     61055
     61053     61050     61054     61055     61057     61056     61060     61061
     61058     61056     61060     61061     61059     61056     61060     61061
     61063     61062     61066     61067     61064     61062     61066     61067
     61065     61062     61066     61067     61069     61068     61072     61073
     61070     61068     61072     61073     61071     61068     61072     61073
     61075     61074     61078     61079     61076     61074     61078     61079
     61077     61074     61078     61079     61081     61080     61084     61085
     61082     61080     61084     61085     61083     61080     61084     61085
     61087     61086     61090     61091     61088     61086     61090     61091
     61089     61086     61090     61091     61093     61092     61096     61097
     61094     61092     61096     61097     61095     61092     61096     61097
     61099     61098     61102     61103     61100     61098     61102     61103
     61101     61098     61102     61103     61105     61104     61108     61109
     61106     61104     61108     61109     61107     61104     61108     61109
     61111     61110     61114     61115     61112     61110     61114     61115
     61113     61110     61114     61115     61117     61116     61120     61121
     61118     61116     61120     61121     61119     61116     61120     61121
     61123     61122     61126     61127     61124     61122     61126     61127
     61125     61122     61126     61127     61129     61128     61132     61133
     61130     61128     61132     61133     61131     61128     61132     61133
     61135     61134     61138     61139     61136     61134     61138     61139
     61137     61134     61138     61139     61141     61140     61144     61145
     61142     61140     61144     61145     61143     61140     61144     61145
     61147     61146     61150     61151     61148     61146     61150     61151
     61149     61146     61150     61151     61153     61152     61156     61157
     61154     61152     61156     61157     61155     61152     61156     61157
     61159     61158     61162     61163     61160     61158     61162     61163
     61161     61158     61162     61163     61165     61164     61168     61169
     61166     61164     61168     61169     61167     61164     61168     61169
     61171     61170     61174     61175     61172     61170     61174     61175
     61173     61170     61174     61175     61177     61176     61180     61181
     61178     61176     61180     61181     61179     61176     61180     61181
     61183     61182     61186     61187     61184     61182     61186     61187
     61185     61182     61186     61187     61189     61188     61192     61193
     61190     61188     61192     61193     61191     61188     61192     61193
     61195     61194     61198     61199     61196     61194     61198     61199
     61197     61194     61198     61199     61201     61200     61204     61205
     61202     61200     61204     61205     61203     61200     61204     61205
     61207     61206     61210     61211     61208     61206     61210     61211
     61209     61206     61210     61211     61213     61212     61216     61217
     61214     61212     61216     61217     61215     61212     61216     61217
     61219     61218     61222     61223     61220     61218     61222     61223
     61221     61218     61222     61223     61225     61224     61228     61229
     61226     61224     61228     61229     61227     61224     61228     61229
     61231     61230     61234     61235     61232     61230     61234     61235
     61233     61230     61234     61235     61237     61236     61240     61241
     61238     61236     61240     61241     61239     61236     61240     61241
     61243     61242     61246     61247     61244     61242     61246     61247
     61245     61242     61246     61247     61249     61248     61252     61253
     61250     61248     61252     61253     61251     61248     61252     61253
     61255     61254     61258     61259     61256     61254     61258     61259
     61257     61254     61258     61259     61261     61260     61264     61265
     61262     61260     61264     61265     61263     61260     61264     61265
     61267     61266     61270     61271     61268     61266     61270     61271
     61269     61266     61270     61271     61273     61272     61276     61277
     61274     61272     61276     61277     61275     61272     61276     61277
     61279     61278     61282     61283     61280     61278     61282     61283
     61281     61278     61282     61283     61285     61284     61288     61289
     61286     61284     61288     61289     61287     61284     61288     61289
     61291     61290     61294     61295     61292     61290     61294     61295
     61293     61290     61294     61295     61297     61296     61300     61301
     61298     61296     61300     61301     61299     61296     61300     61301
     61303     61302     61306     61307     61304     61302     61306     61307
     61305     61302     61306     61307     61309     61308     61312     61313
     61310     61308     61312     61313     61311     61308     61312     61313
     61315     61314     61318     61319     61316     61314     61318     61319
     61317     61314     61318     61319     61321     61320     61324     61325
     61322     61320     61324     61325     61323     61320     61324     61325
     61327     61326     61330     61331     61328     61326     61330     61331
     61329     61326     61330     61331     61333     61332     61336     61337
     61334     61332     61336     61337     61335     61332     61336     61337
     61339     61338     61342     61343     61340     61338     61342     61343
     61341     61338     61342     61343     61345     61344     61348     61349
     61346     61344     61348     61349     61347     61344     61348     61349
     61351     61350     61354     61355     61352     61350     61354     61355
     61353     61350     61354     61355     61357     61356     61360     61361
     61358     61356     61360     61361     61359     61356     61360     61361
     61363     61362     61366     61367     61364     61362     61366     61367
     61365     61362     61366     61367     61369     61368     61372     61373
     61370     61368     61372     61373     61371     61368     61372     61373
     61375     61374     61378     61379     61376     61374     61378     61379
     61377     61374     61378     61379     61381     61380     61384     61385
     61382     61380     61384     61385     61383     61380     61384     61385
     61387     61386     61390     61391     61388     61386     61390     61391
     61389     61386     61390     61391     61393     61392     61396     61397
     61394     61392     61396     61397     61395     61392     61396     61397
     61399     61398     61402     61403     61400     61398     61402     61403
     61401     61398     61402     61403     61405     61404     61408     61409
     61406     61404     61408     61409     61407     61404     61408     61409
     61411     61410     61414     61415     61412     61410     61414     61415
     61413     61410     61414     61415     61417     61416     61420     61421
     61418     61416     61420     61421     61419     61416     61420     61421
     61423     61422     61426     61427     61424     61422     61426     61427
     61425     61422     61426     61427     61429     61428     61432     61433
     61430     61428     61432     61433     61431     61428     61432     61433
     61435     61434     61438     61439     61436     61434     61438     61439
     61437     61434     61438     61439     61441     61440     61444     61445
     61442     61440     61444     61445     61443     61440     61444     61445
     61447     61446     61450     61451     61448     61446     61450     61451
     61449     61446     61450     61451     61453     61452     61456     61457
     61454     61452     61456     61457     61455     61452     61456     61457
     61459     61458     61462     61463     61460     61458     61462     61463
     61461     61458     61462     61463     61465     61464     61468     61469
     61466     61464     61468     61469     61467     61464     61468     61469
     61471     61470     61474     61475     61472     61470     61474     61475
     61473     61470     61474     61475     61477     61476     61480     61481
     61478     61476     61480     61481     61479     61476     61480     61481
     61483     61482     61486     61487     61484     61482     61486     61487
     61485     61482     61486     61487     61489     61488     61492     61493
     61490     61488     61492     61493     61491     61488     61492     61493
     61495     61494     61498     61499     61496     61494     61498     61499
     61497     61494     61498     61499     61501     61500     61504     61505
     61502     61500     61504     61505     61503     61500     61504     61505
     61507     61506     61510     61511     61508     61506     61510     61511
     61509     61506     61510     61511     61513     61512     61516     61517
     61514     61512     61516     61517     61515     61512     61516     61517
     61519     61518     61522     61523     61520     61518     61522     61523
     61521     61518     61522     61523     61525     61524     61528     61529
     61526     61524     61528     61529     61527     61524     61528     61529
     61531     61530     61534     61535     61532     61530     61534     61535
     61533     61530     61534     61535     61537     61536     61540     61541
     61538     61536     61540     61541     61539     61536     61540     61541
     61543     61542     61546     61547     61544     61542     61546     61547
     61545     61542     61546     61547     61549     61548     61552     61553
     61550     61548     61552     61553     61551     61548     61552     61553
     61555     61554     61558     61559     61556     61554     61558     61559
     61557     61554     61558     61559     61561     61560     61564     61565
     61562     61560     61564     61565     61563     61560     61564     61565
     61567     61566     61570     61571     61568     61566     61570     61571
     61569     61566     61570     61571     61573     61572     61576     61577
     61574     61572     61576     61577     61575     61572     61576     61577
     61579     61578     61582     61583     61580     61578     61582     61583
     61581     61578     61582     61583     61585     61584     61588     61589
     61586     61584     61588     61589     61587     61584     61588     61589
     61591     61590     61594     61595     61592     61590     61594     61595
     61593     61590     61594     61595     61597     61596     61600     61601
     61598     61596     61600     61601     61599     61596     61600     61601
     61603     61602     61606     61607     61604     61602     61606     61607
     61605     61602     61606     61607     61609     61608     61612     61613
     61610     61608     61612     61613     61611     61608     61612     61613
     61615     61614     61618     61619     61616     61614     61618     61619
     61617     61614     61618     61619     61621     61620     61624     61625
     61622     61620     61624     61625     61623     61620     61624     61625
     61627     61626     61630     61631     61628     61626     61630     61631
     61629     61626     61630     61631     61633     61632     61636     61637
     61634     61632     61636     61637     61635     61632     61636     61637
     61639     61638     61642     61643     61640     61638     61642     61643
     61641     61638     61642     61643     61645     61644     61648     61649
     61646     61644     61648     61649     61647     61644     61648     61649
     61651     61650     61654     61655     61652     61650     61654     61655
     61653     61650     61654     61655     61657     61656     61660     61661
     61658     61656     61660     61661     61659     61656     61660     61661
     61663     61662     61666     61667     61664     61662     61666     61667
     61665     61662     61666     61667     61669     61668     61672     61673
     61670     61668     61672     61673     61671     61668     61672     61673
     61675     61674     61678     61679     61676     61674     61678     61679
     61677     61674     61678     61679     61681     61680     61684     61685
     61682     61680     61684     61685     61683     61680     61684     61685
     61687     61686     61690     61691     61688     61686     61690     61691
     61689     61686     61690     61691     61693     61692     61696     61697
     61694     61692     61696     61697     61695     61692     61696     61697
     61699     61698     61702     61703     61700     61698     61702     61703
     61701     61698     61702     61703     61705     61704     61708     61709
     61706     61704     61708     61709     61707     61704     61708     61709
     61711     61710     61714     61715     61712     61710     61714     61715
     61713     61710     61714     61715     61717     61716     61720     61721
     61718     61716     61720     61721     61719     61716     61720     61721
     61723     61722     61726     61727     61724     61722     61726     61727
     61725     61722     61726     61727     61729     61728     61732     61733
     61730     61728     61732     61733     61731     61728     61732     61733
     61735     61734     61738     61739     61736     61734     61738     61739
     61737     61734     61738     61739     61741     61740     61744     61745
     61742     61740     61744     61745     61743     61740     61744     61745
     61747     61746     61750     61751     61748     61746     61750     61751
     61749     61746     61750     61751     61753     61752     61756     61757
     61754     61752     61756     61757     61755     61752     61756     61757
     61759     61758     61762     61763     61760     61758     61762     61763
     61761     61758     61762     61763     61765     61764     61768     61769
     61766     61764     61768     61769     61767     61764     61768     61769
     61771     61770     61774     61775     61772     61770     61774     61775
     61773     61770     61774     61775     61777     61776     61780     61781
     61778     61776     61780     61781     61779     61776     61780     61781
     61783     61782     61786     61787     61784     61782     61786     61787
     61785     61782     61786     61787     61789     61788     61792     61793
     61790     61788     61792     61793     61791     61788     61792     61793
     61795     61794     61798     61799     61796     61794     61798     61799
     61797     61794     61798     61799     61801     61800     61804     61805
     61802     61800     61804     61805     61803     61800     61804     61805
     61807     61806     61810     61811     61808     61806     61810     61811
     61809     61806     61810     61811     61813     61812     61816     61817
     61814     61812     61816     61817     61815     61812     61816     61817
     61819     61818     61822     61823     61820     61818     61822     61823
     61821     61818     61822     61823     61825     61824     61828     61829
     61826     61824     61828     61829     61827     61824     61828     61829
     61831     61830     61834     61835     61832     61830     61834     61835
     61833     61830     61834     61835     61837     61836     61840     61841
     61838     61836     61840     61841     61839     61836     61840     61841
     61843     61842     61846     61847     61844     61842     61846     61847
     61845     61842     61846     61847     61849     61848     61852     61853
     61850     61848     61852     61853     61851     61848     61852     61853
     61855     61854     61858     61859     61856     61854     61858     61859
     61857     61854     61858     61859     61861     61860     61864     61865
     61862     61860     61864     61865     61863     61860     61864     61865
     61867     61866     61870     61871     61868     61866     61870     61871
     61869     61866     61870     61871     61873     61872     61876     61877
     61874     61872     61876     61877     61875     61872     61876     61877
     61879     61878     61882     61883     61880     61878     61882     61883
     61881     61878     61882     61883     61885     61884     61888     61889
     61886     61884     61888     61889     61887     61884     61888     61889
     61891     61890     61894     61895     61892     61890     61894     61895
     61893     61890     61894     61895     61897     61896     61900     61901
     61898     61896     61900     61901     61899     61896     61900     61901
     61903     61902     61906     61907     61904     61902     61906     61907
     61905     61902     61906     61907     61909     61908     61912     61913
     61910     61908     61912     61913     61911     61908     61912     61913
     61915     61914     61918     61919     61916     61914     61918     61919
     61917     61914     61918     61919     61921     61920     61924     61925
     61922     61920     61924     61925     61923     61920     61924     61925
     61927     61926     61930     61931     61928     61926     61930     61931
     61929     61926     61930     61931     61933     61932     61936     61937
     61934     61932     61936     61937     61935     61932     61936     61937
     61939     61938     61942     61943     61940     61938     61942     61943
     61941     61938     61942     61943     61945     61944     61948     61949
     61946     61944     61948     61949     61947     61944     61948     61949
     61951     61950     61954     61955     61952     61950     61954     61955
     61953     61950     61954     61955     61957     61956     61960     61961
     61958     61956     61960     61961     61959     61956     61960     61961
     61963     61962     61966     61967     61964     61962     61966     61967
     61965     61962     61966     61967     61969     61968     61972     61973
     61970     61968     61972     61973     61971     61968     61972     61973
     61975     61974     61978     61979     61976     61974     61978     61979
     61977     61974     61978     61979     61981     61980     61984     61985
     61982     61980     61984     61985     61983     61980     61984     61985
     61987     61986     61990     61991     61988     61986     61990     61991
     61989     61986     61990     61991     61993     61992     61996     61997
     61994     61992     61996     61997     61995     61992     61996     61997
     61999     61998     62002     62003     62000     61998     62002     62003
     62001     61998     62002     62003     62005     62004     62008     62009
     62006     62004     62008     62009     62007     62004     62008     62009
     62011     62010     62014     62015     62012     62010     62014     62015
     62013     62010     62014     62015     62017     62016     62020     62021
     62018     62016     62020     62021     62019     62016     62020     62021
     62023     62022     62026     62027     62024     62022     62026     62027
     62025     62022     62026     62027     62029     62028     62032     62033
     62030     62028     62032     62033     62031     62028     62032     62033
     62035     62034     62038     62039     62036     62034     62038     62039
     62037     62034     62038     62039     62041     62040     62044     62045
     62042     62040     62044     62045     62043     62040     62044     62045
     62047     62046     62050     62051     62048     62046     62050     62051
     62049     62046     62050     62051     62053     62052     62056     62057
     62054     62052     62056     62057     62055     62052     62056     62057
     62059     62058     62062     62063     62060     62058     62062     62063
     62061     62058     62062     62063     62065     62064     62068     62069
     62066     62064     62068     62069     62067     62064     62068     62069
     62071     62070     62074     62075     62072     62070     62074     62075
     62073     62070     62074     62075     62077     62076     62080     62081
     62078     62076     62080     62081     62079     62076     62080     62081
     62083     62082     62086     62087     62084     62082     62086     62087
     62085     62082     62086     62087     62089     62088     62092     62093
     62090     62088     62092     62093     62091     62088     62092     62093
     62095     62094     62098     62099     62096     62094     62098     62099
     62097     62094     62098     62099     62101     62100     62104     62105
     62102     62100     62104     62105     62103     62100     62104     62105
     62107     62106     62110     62111     62108     62106     62110     62111
     62109     62106     62110     62111     62113     62112     62116     62117
     62114     62112     62116     62117     62115     62112     62116     62117
     62119     62118     62122     62123     62120     62118     62122     62123
     62121     62118     62122     62123     62125     62124     62128     62129
     62126     62124     62128     62129     62127     62124     62128     62129
     62131     62130     62134     62135     62132     62130     62134     62135
     62133     62130     62134     62135     62137     62136     62140     62141
     62138     62136     62140     62141     62139     62136     62140     62141
     62143     62142     62146     62147     62144     62142     62146     62147
     62145     62142     62146     62147     62149     62148     62152     62153
     62150     62148     62152     62153     62151     62148     62152     62153
     62155     62154     62158     62159     62156     62154     62158     62159
     62157     62154     62158     62159     62161     62160     62164     62165
     62162     62160     62164     62165     62163     62160     62164     62165
     62167     62166     62170     62171     62168     62166     62170     62171
     62169     62166     62170     62171     62173     62172     62176     62177
     62174     62172     62176     62177     62175     62172     62176     62177
     62179     62178     62182     62183     62180     62178     62182     62183
     62181     62178     62182     62183     62185     62184     62188     62189
     62186     62184     62188     62189     62187     62184     62188     62189
     62191     62190     62194     62195     62192     62190     62194     62195
     62193     62190     62194     62195     62197     62196     62200     62201
     62198     62196     62200     62201     62199     62196     62200     62201
     62203     62202     62206     62207     62204     62202     62206     62207
     62205     62202     62206     62207     62209     62208     62212     62213
     62210     62208     62212     62213     62211     62208     62212     62213
     62215     62214     62218     62219     62216     62214     62218     62219
     62217     62214     62218     62219     62221     62220     62224     62225
     62222     62220     62224     62225     62223     62220     62224     62225
     62227     62226     62230     62231     62228     62226     62230     62231
     62229     62226     62230     62231     62233     62232     62236     62237
     62234     62232     62236     62237     62235     62232     62236     62237
     62239     62238     62242     62243     62240     62238     62242     62243
     62241     62238     62242     62243     62245     62244     62248     62249
     62246     62244     62248     62249     62247     62244     62248     62249
     62251     62250     62254     62255     62252     62250     62254     62255
     62253     62250     62254     62255     62257     62256     62260     62261
     62258     62256     62260     62261     62259     62256     62260     62261
     62263     62262     62266     62267     62264     62262     62266     62267
     62265     62262     62266     62267     62269     62268     62272     62273
     62270     62268     62272     62273     62271     62268     62272     62273
     62275     62274     62278     62279     62276     62274     62278     62279
     62277     62274     62278     62279     62281     62280     62284     62285
     62282     62280     62284     62285     62283     62280     62284     62285
     62287     62286     62290     62291     62288     62286     62290     62291
     62289     62286     62290     62291     62293     62292     62296     62297
     62294     62292     62296     62297     62295     62292     62296     62297
     62299     62298     62302     62303     62300     62298     62302     62303
     62301     62298     62302     62303     62305     62304     62308     62309
     62306     62304     62308     62309     62307     62304     62308     62309
     62311     62310     62314     62315     62312     62310     62314     62315
     62313     62310     62314     62315     62317     62316     62320     62321
     62318     62316     62320     62321     62319     62316     62320     62321
     62323     62322     62326     62327     62324     62322     62326     62327
     62325     62322     62326     62327     62329     62328     62332     62333
     62330     62328     62332     62333     62331     62328     62332     62333
     62335     62334     62338     62339     62336     62334     62338     62339
     62337     62334     62338     62339     62341     62340     62344     62345
     62342     62340     62344     62345     62343     62340     62344     62345
     62347     62346     62350     62351     62348     62346     62350     62351
     62349     62346     62350     62351     62353     62352     62356     62357
     62354     62352     62356     62357     62355     62352     62356     62357
     62359     62358     62362     62363     62360     62358     62362     62363
     62361     62358     62362     62363     62365     62364     62368     62369
     62366     62364     62368     62369     62367     62364     62368     62369
     62371     62370     62374     62375     62372     62370     62374     62375
     62373     62370     62374     62375     62377     62376     62380     62381
     62378     62376     62380     62381     62379     62376     62380     62381
     62383     62382     62386     62387     62384     62382     62386     62387
     62385     62382     62386     62387     62389     62388     62392     62393
     62390     62388     62392     62393     62391     62388     62392     62393
     62395     62394     62398     62399     62396     62394     62398     62399
     62397     62394     62398     62399     62401     62400     62404     62405
     62402     62400     62404     62405     62403     62400     62404     62405
     62407     62406     62410     62411     62408     62406     62410     62411
     62409     62406     62410     62411     62413     62412     62416     62417
     62414     62412     62416     62417     62415     62412     62416     62417
     62419     62418     62422     62423     62420     62418     62422     62423
     62421     62418     62422     62423     62425     62424     62428     62429
     62426     62424     62428     62429     62427     62424     62428     62429
     62431     62430     62434     62435     62432     62430     62434     62435
     62433     62430     62434     62435     62437     62436     62440     62441
     62438     62436     62440     62441     62439     62436     62440     62441
     62443     62442     62446     62447     62444     62442     62446     62447
     62445     62442     62446     62447     62449     62448     62452     62453
     62450     62448     62452     62453     62451     62448     62452     62453
     62455     62454     62458     62459     62456     62454     62458     62459
     62457     62454     62458     62459     62461     62460     62464     62465
     62462     62460     62464     62465     62463     62460     62464     62465
     62467     62466     62470     62471     62468     62466     62470     62471
     62469     62466     62470     62471     62473     62472     62476     62477
     62474     62472     62476     62477     62475     62472     62476     62477
     62479     62478     62482     62483     62480     62478     62482     62483
     62481     62478     62482     62483     62485     62484     62488     62489
     62486     62484     62488     62489     62487     62484     62488     62489
     62491     62490     62494     62495     62492     62490     62494     62495
     62493     62490     62494     62495     62497     62496     62500     62501
     62498     62496     62500     62501     62499     62496     62500     62501
     62503     62502     62506     62507     62504     62502     62506     62507
     62505     62502     62506     62507     62509     62508     62512     62513
     62510     62508     62512     62513     62511     62508     62512     62513
     62515     62514     62518     62519     62516     62514     62518     62519
     62517     62514     62518     62519     62521     62520     62524     62525
     62522     62520     62524     62525     62523     62520     62524     62525
     62527     62526     62530     62531     62528     62526     62530     62531
     62529     62526     62530     62531     62533     62532     62536     62537
     62534     62532     62536     62537     62535     62532     62536     62537
     62539     62538     62542     62543     62540     62538     62542     62543
     62541     62538     62542     62543     62545     62544     62548     62549
     62546     62544     62548     62549     62547     62544     62548     62549
     62551     62550     62554     62555     62552     62550     62554     62555
     62553     62550     62554     62555     62557     62556     62560     62561
     62558     62556     62560     62561     62559     62556     62560     62561
     62563     62562     62566     62567     62564     62562     62566     62567
     62565     62562     62566     62567     62569     62568     62572     62573
     62570     62568     62572     62573     62571     62568     62572     62573
     62575     62574     62578     62579     62576     62574     62578     62579
     62577     62574     62578     62579     62581     62580     62584     62585
     62582     62580     62584     62585     62583     62580     62584     62585
     62587     62586     62590     62591     62588     62586     62590     62591
     62589     62586     62590     62591     62593     62592     62596     62597
     62594     62592     62596     62597     62595     62592     62596     62597
     62599     62598     62602     62603     62600     62598     62602     62603
     62601     62598     62602     62603     62605     62604     62608     62609
     62606     62604     62608     62609     62607     62604     62608     62609
     62611     62610     62614     62615     62612     62610     62614     62615
     62613     62610     62614     62615     62617     62616     62620     62621
     62618     62616     62620     62621     62619     62616     62620     62621
     62623     62622     62626     62627     62624     62622     62626     62627
     62625     62622     62626     62627     62629     62628     62632     62633
     62630     62628     62632     62633     62631     62628     62632     62633
     62635     62634     62638     62639     62636     62634     62638     62639
     62637     62634     62638     62639     62641     62640     62644     62645
     62642     62640     62644     62645     62643     62640     62644     62645
     62647     62646     62650     62651     62648     62646     62650     62651
     62649     62646     62650     62651     62653     62652     62656     62657
     62654     62652     62656     62657     62655     62652     62656     62657
     62659     62658     62662     62663     62660     62658     62662     62663
     62661     62658     62662     62663     62665     62664     62668     62669
     62666     62664     62668     62669     62667     62664     62668     62669
     62671     62670     62674     62675     62672     62670     62674     62675
     62673     62670     62674     62675     62677     62676     62680     62681
     62678     62676     62680     62681     62679     62676     62680     62681
     62683     62682     62686     62687     62684     62682     62686     62687
     62685     62682     62686     62687     62689     62688     62692     62693
     62690     62688     62692     62693     62691     62688     62692     62693
     62695     62694     62698     62699     62696     62694     62698     62699
     62697     62694     62698     62699     62701     62700     62704     62705
     62702     62700     62704     62705     62703     62700     62704     62705
     62707     62706     62710     62711     62708     62706     62710     62711
     62709     62706     62710     62711     62713     62712     62716     62717
     62714     62712     62716     62717     62715     62712     62716     62717
     62719     62718     62722     62723     62720     62718     62722     62723
     62721     62718     62722     62723     62725     62724     62728     62729
     62726     62724     62728     62729     62727     62724     62728     62729
     62731     62730     62734     62735     62732     62730     62734     62735
     62733     62730     62734     62735     62737     62736     62740     62741
     62738     62736     62740     62741     62739     62736     62740     62741
     62743     62742     62746     62747     62744     62742     62746     62747
     62745     62742     62746     62747     62749     62748     62752     62753
     62750     62748     62752     62753     62751     62748     62752     62753
     62755     62754     62758     62759     62756     62754     62758     62759
     62757     62754     62758     62759     62761     62760     62764     62765
     62762     62760     62764     62765     62763     62760     62764     62765
     62767     62766     62770     62771     62768     62766     62770     62771
     62769     62766     62770     62771     62773     62772     62776     62777
     62774     62772     62776     62777     62775     62772     62776     62777
     62779     62778     62782     62783     62780     62778     62782     62783
     62781     62778     62782     62783     62785     62784     62788     62789
     62786     62784     62788     62789     62787     62784     62788     62789
     62791     62790     62794     62795     62792     62790     62794     62795
     62793     62790     62794     62795     62797     62796     62800     62801
     62798     62796     62800     62801     62799     62796     62800     62801
     62803     62802     62806     62807     62804     62802     62806     62807
     62805     62802     62806     62807     62809     62808     62812     62813
     62810     62808     62812     62813     62811     62808     62812     62813
     62815     62814     62818     62819     62816     62814     62818     62819
     62817     62814     62818     62819     62821     62820     62824     62825
     62822     62820     62824     62825     62823     62820     62824     62825
     62827     62826     62830     62831     62828     62826     62830     62831
     62829     62826     62830     62831     62833     62832     62836     62837
     62834     62832     62836     62837     62835     62832     62836     62837
     62839     62838     62842     62843     62840     62838     62842     62843
     62841     62838     62842     62843     62845     62844     62848     62849
     62846     62844     62848     62849     62847     62844     62848     62849
     62851     62850     62854     62855     62852     62850     62854     62855
     62853     62850     62854     62855     62857     62856     62860     62861
     62858     62856     62860     62861     62859     62856     62860     62861
     62863     62862     62866     62867     62864     62862     62866     62867
     62865     62862     62866     62867     62869     62868     62872     62873
     62870     62868     62872     62873     62871     62868     62872     62873
     62875     62874     62878     62879     62876     62874     62878     62879
     62877     62874     62878     62879     62881     62880     62884     62885
     62882     62880     62884     62885     62883     62880     62884     62885
     62887     62886     62890     62891     62888     62886     62890     62891
     62889     62886     62890     62891     62893     62892     62896     62897
     62894     62892     62896     62897     62895     62892     62896     62897
     62899     62898     62902     62903     62900     62898     62902     62903
     62901     62898     62902     62903     62905     62904     62908     62909
     62906     62904     62908     62909     62907     62904     62908     62909
     62911     62910     62914     62915     62912     62910     62914     62915
     62913     62910     62914     62915     62917     62916     62920     62921
     62918     62916     62920     62921     62919     62916     62920     62921
     62923     62922     62926     62927     62924     62922     62926     62927
     62925     62922     62926     62927     62929     62928     62932     62933
     62930     62928     62932     62933     62931     62928     62932     62933
     62935     62934     62938     62939     62936     62934     62938     62939
     62937     62934     62938     62939     62941     62940     62944     62945
     62942     62940     62944     62945     62943     62940     62944     62945
     62947     62946     62950     62951     62948     62946     62950     62951
     62949     62946     62950     62951     62953     62952     62956     62957
     62954     62952     62956     62957     62955     62952     62956     62957
     62959     62958     62962     62963     62960     62958     62962     62963
     62961     62958     62962     62963     62965     62964     62968     62969
     62966     62964     62968     62969     62967     62964     62968     62969
     62971     62970     62974     62975     62972     62970     62974     62975
     62973     62970     62974     62975     62977     62976     62980     62981
     62978     62976     62980     62981     62979     62976     62980     62981
     62983     62982     62986     62987     62984     62982     62986     62987
     62985     62982     62986     62987     62989     62988     62992     62993
     62990     62988     62992     62993     62991     62988     62992     62993
     62995     62994     62998     62999     62996     62994     62998     62999
     62997     62994     62998     62999     63001     63000     63004     63005
     63002     63000     63004     63005     63003     63000     63004     63005
     63007     63006     63010     63011     63008     63006     63010     63011
     63009     63006     63010     63011     63013     63012     63016     63017
     63014     63012     63016     63017     63015     63012     63016     63017
     63019     63018     63022     63023     63020     63018     63022     63023
     63021     63018     63022     63023     63025     63024     63028     63029
     63026     63024     63028     63029     63027     63024     63028     63029
     63031     63030     63034     63035     63032     63030     63034     63035
     63033     63030     63034     63035     63037     63036     63040     63041
     63038     63036     63040     63041     63039     63036     63040     63041
     63043     63042     63046     63047     63044     63042     63046     63047
     63045     63042     63046     63047     63049     63048     63052     63053
     63050     63048     63052     63053     63051     63048     63052     63053
     63055     63054     63058     63059     63056     63054     63058     63059
     63057     63054     63058     63059     63061     63060     63064     63065
     63062     63060     63064     63065     63063     63060     63064     63065
     63067     63066     63070     63071     63068     63066     63070     63071
     63069     63066     63070     63071     63073     63072     63076     63077
     63074     63072     63076     63077     63075     63072     63076     63077
     63079     63078     63082     63083     63080     63078     63082     63083
     63081     63078     63082     63083     63085     63084     63088     63089
     63086     63084     63088     63089     63087     63084     63088     63089
     63091     63090     63094     63095     63092     63090     63094     63095
     63093     63090     63094     63095     63097     63096     63100     63101
     63098     63096     63100     63101     63099     63096     63100     63101
     63103     63102     63106     63107     63104     63102     63106     63107
     63105     63102     63106     63107     63109     63108     63112     63113
     63110     63108     63112     63113     63111     63108     63112     63113
     63115     63114     63118     63119     63116     63114     63118     63119
     63117     63114     63118     63119     63121     63120     63124     63125
     63122     63120     63124     63125     63123     63120     63124     63125
     63127     63126     63130     63131     63128     63126     63130     63131
     63129     63126     63130     63131     63133     63132     63136     63137
     63134     63132     63136     63137     63135     63132     63136     63137
     63139     63138     63142     63143     63140     63138     63142     63143
     63141     63138     63142     63143     63145     63144     63148     63149
     63146     63144     63148     63149     63147     63144     63148     63149
     63151     63150     63154     63155     63152     63150     63154     63155
     63153     63150     63154     63155     63157     63156     63160     63161
     63158     63156     63160     63161     63159     63156     63160     63161
     63163     63162     63166     63167     63164     63162     63166     63167
     63165     63162     63166     63167     63169     63168     63172     63173
     63170     63168     63172     63173     63171     63168     63172     63173
     63175     63174     63178     63179     63176     63174     63178     63179
     63177     63174     63178     63179     63181     63180     63184     63185
     63182     63180     63184     63185     63183     63180     63184     63185
     63187     63186     63190     63191     63188     63186     63190     63191
     63189     63186     63190     63191     63193     63192     63196     63197
     63194     63192     63196     63197     63195     63192     63196     63197
     63199     63198     63202     63203     63200     63198     63202     63203
     63201     63198     63202     63203     63205     63204     63208     63209
     63206     63204     63208     63209     63207     63204     63208     63209
     63211     63210     63214     63215     63212     63210     63214     63215
     63213     63210     63214     63215     63217     63216     63220     63221
     63218     63216     63220     63221     63219     63216     63220     63221
     63223     63222     63226     63227     63224     63222     63226     63227
     63225     63222     63226     63227     63229     63228     63232     63233
     63230     63228     63232     63233     63231     63228     63232     63233
     63235     63234     63238     63239     63236     63234     63238     63239
     63237     63234     63238     63239     63241     63240     63244     63245
     63242     63240     63244     63245     63243     63240     63244     63245
     63247     63246     63250     63251     63248     63246     63250     63251
     63249     63246     63250     63251     63253     63252     63256     63257
     63254     63252     63256     63257     63255     63252     63256     63257
     63259     63258     63262     63263     63260     63258     63262     63263
     63261     63258     63262     63263     63265     63264     63268     63269
     63266     63264     63268     63269     63267     63264     63268     63269
     63271     63270     63274     63275     63272     63270     63274     63275
     63273     63270     63274     63275     63277     63276     63280     63281
     63278     63276     63280     63281     63279     63276     63280     63281
     63283     63282     63286     63287     63284     63282     63286     63287
     63285     63282     63286     63287     63289     63288     63292     63293
     63290     63288     63292     63293     63291     63288     63292     63293
     63295     63294     63298     63299     63296     63294     63298     63299
     63297     63294     63298     63299     63301     63300     63304     63305
     63302     63300     63304     63305     63303     63300     63304     63305
     63307     63306     63310     63311     63308     63306     63310     63311
     63309     63306     63310     63311     63313     63312     63316     63317
     63314     63312     63316     63317     63315     63312     63316     63317
     63319     63318     63322     63323     63320     63318     63322     63323
     63321     63318     63322     63323     63325     63324     63328     63329
     63326     63324     63328     63329     63327     63324     63328     63329
     63331     63330     63334     63335     63332     63330     63334     63335
     63333     63330     63334     63335     63337     63336     63340     63341
     63338     63336     63340     63341     63339     63336     63340     63341
     63343     63342     63346     63347     63344     63342     63346     63347
     63345     63342     63346     63347     63349     63348     63352     63353
     63350     63348     63352     63353     63351     63348     63352     63353
     63355     63354     63358     63359     63356     63354     63358     63359
     63357     63354     63358     63359     63361     63360     63364     63365
     63362     63360     63364     63365     63363     63360     63364     63365
     63367     63366     63370     63371     63368     63366     63370     63371
     63369     63366     63370     63371     63373     63372     63376     63377
     63374     63372     63376     63377     63375     63372     63376     63377
     63379     63378     63382     63383     63380     63378     63382     63383
     63381     63378     63382     63383     63385     63384     63388     63389
     63386     63384     63388     63389     63387     63384     63388     63389
     63391     63390     63394     63395     63392     63390     63394     63395
     63393     63390     63394     63395     63397     63396     63400     63401
     63398     63396     63400     63401     63399     63396     63400     63401
     63403     63402     63406     63407     63404     63402     63406     63407
     63405     63402     63406     63407     63409     63408     63412     63413
     63410     63408     63412     63413     63411     63408     63412     63413
     63415     63414     63418     63419     63416     63414     63418     63419
     63417     63414     63418     63419     63421     63420     63424     63425
     63422     63420     63424     63425     63423     63420     63424     63425
     63427     63426     63430     63431     63428     63426     63430     63431
     63429     63426     63430     63431     63433     63432     63436     63437
     63434     63432     63436     63437     63435     63432     63436     63437
     63439     63438     63442     63443     63440     63438     63442     63443
     63441     63438     63442     63443     63445     63444     63448     63449
     63446     63444     63448     63449     63447     63444     63448     63449
     63451     63450     63454     63455     63452     63450     63454     63455
     63453     63450     63454     63455     63457     63456     63460     63461
     63458     63456     63460     63461     63459     63456     63460     63461
     63463     63462     63466     63467     63464     63462     63466     63467
     63465     63462     63466     63467     63469     63468     63472     63473
     63470     63468     63472     63473     63471     63468     63472     63473
     63475     63474     63478     63479     63476     63474     63478     63479
     63477     63474     63478     63479     63481     63480     63484     63485
     63482     63480     63484     63485     63483     63480     63484     63485
     63487     63486     63490     63491     63488     63486     63490     63491
     63489     63486     63490     63491     63493     63492     63496     63497
     63494     63492     63496     63497     63495     63492     63496     63497
     63499     63498     63502     63503     63500     63498     63502     63503
     63501     63498     63502     63503     63505     63504     63508     63509
     63506     63504     63508     63509     63507     63504     63508     63509
     63511     63510     63514     63515     63512     63510     63514     63515
     63513     63510     63514     63515     63517     63516     63520     63521
     63518     63516     63520     63521     63519     63516     63520     63521
     63523     63522     63526     63527     63524     63522     63526     63527
     63525     63522     63526     63527     63529     63528     63532     63533
     63530     63528     63532     63533     63531     63528     63532     63533
     63535     63534     63538     63539     63536     63534     63538     63539
     63537     63534     63538     63539     63541     63540     63544     63545
     63542     63540     63544     63545     63543     63540     63544     63545
     63547     63546     63550     63551     63548     63546     63550     63551
     63549     63546     63550     63551     63553     63552     63556     63557
     63554     63552     63556     63557     63555     63552     63556     63557
     63559     63558     63562     63563     63560     63558     63562     63563
     63561     63558     63562     63563     63565     63564     63568     63569
     63566     63564     63568     63569     63567     63564     63568     63569
     63571     63570     63574     63575     63572     63570     63574     63575
     63573     63570     63574     63575     63577     63576     63580     63581
     63578     63576     63580     63581     63579     63576     63580     63581
     63583     63582     63586     63587     63584     63582     63586     63587
     63585     63582     63586     63587     63589     63588     63592     63593
     63590     63588     63592     63593     63591     63588     63592     63593
     63595     63594     63598     63599     63596     63594     63598     63599
     63597     63594     63598     63599     63601     63600     63604     63605
     63602     63600     63604     63605     63603     63600     63604     63605
     63607     63606     63610     63611     63608     63606     63610     63611
     63609     63606     63610     63611     63613     63612     63616     63617
     63614     63612     63616     63617     63615     63612     63616     63617
     63619     63618     63622     63623     63620     63618     63622     63623
     63621     63618     63622     63623     63625     63624     63628     63629
     63626     63624     63628     63629     63627     63624     63628     63629
     63631     63630     63634     63635     63632     63630     63634     63635
     63633     63630     63634     63635     63637     63636     63640     63641
     63638     63636     63640     63641     63639     63636     63640     63641
     63643     63642     63646     63647     63644     63642     63646     63647
     63645     63642     63646     63647     63649     63648     63652     63653
     63650     63648     63652     63653     63651     63648     63652     63653
     63655     63654     63658     63659     63656     63654     63658     63659
     63657     63654     63658     63659     63661     63660     63664     63665
     63662     63660     63664     63665     63663     63660     63664     63665
     63667     63666     63670     63671     63668     63666     63670     63671
     63669     63666     63670     63671     63673     63672     63676     63677
     63674     63672     63676     63677     63675     63672     63676     63677
     63679     63678     63682     63683     63680     63678     63682     63683
     63681     63678     63682     63683     63685     63684     63688     63689
     63686     63684     63688     63689     63687     63684     63688     63689
     63691     63690     63694     63695     63692     63690     63694     63695
     63693     63690     63694     63695     63697     63696     63700     63701
     63698     63696     63700     63701     63699     63696     63700     63701
     63703     63702     63706     63707     63704     63702     63706     63707
     63705     63702     63706     63707     63709     63708     63712     63713
     63710     63708     63712     63713     63711     63708     63712     63713
     63715     63714     63718     63719     63716     63714     63718     63719
     63717     63714     63718     63719     63721     63720     63724     63725
     63722     63720     63724     63725     63723     63720     63724     63725
     63727     63726     63730     63731     63728     63726     63730     63731
     63729     63726     63730     63731     63733     63732     63736     63737
     63734     63732     63736     63737     63735     63732     63736     63737
     63739     63738     63742     63743     63740     63738     63742     63743
     63741     63738     63742     63743     63745     63744     63748     63749
     63746     63744     63748     63749     63747     63744     63748     63749
     63751     63750     63754     63755     63752     63750     63754     63755
     63753     63750     63754     63755     63757     63756     63760     63761
     63758     63756     63760     63761     63759     63756     63760     63761
     63763     63762     63766     63767     63764     63762     63766     63767
     63765     63762     63766     63767     63769     63768     63772     63773
     63770     63768     63772     63773     63771     63768     63772     63773
     63775     63774     63778     63779     63776     63774     63778     63779
     63777     63774     63778     63779     63781     63780     63784     63785
     63782     63780     63784     63785     63783     63780     63784     63785
     63787     63786     63790     63791     63788     63786     63790     63791
     63789     63786     63790     63791     63793     63792     63796     63797
     63794     63792     63796     63797     63795     63792     63796     63797
     63799     63798     63802     63803     63800     63798     63802     63803
     63801     63798     63802     63803     63805     63804     63808     63809
     63806     63804     63808     63809     63807     63804     63808     63809
     63811     63810     63814     63815     63812     63810     63814     63815
     63813     63810     63814     63815     63817     63816     63820     63821
     63818     63816     63820     63821     63819     63816     63820     63821
     63823     63822     63826     63827     63824     63822     63826     63827
     63825     63822     63826     63827     63829     63828     63832     63833
     63830     63828     63832     63833     63831     63828     63832     63833
     63835     63834     63838     63839     63836     63834     63838     63839
     63837     63834     63838     63839     63841     63840     63844     63845
     63842     63840     63844     63845     63843     63840     63844     63845
     63847     63846     63850     63851     63848     63846     63850     63851
     63849     63846     63850     63851     63853     63852     63856     63857
     63854     63852     63856     63857     63855     63852     63856     63857
     63859     63858     63862     63863     63860     63858     63862     63863
     63861     63858     63862     63863     63865     63864     63868     63869
     63866     63864     63868     63869     63867     63864     63868     63869
     63871     63870     63874     63875     63872     63870     63874     63875
     63873     63870     63874     63875     63877     63876     63880     63881
     63878     63876     63880     63881     63879     63876     63880     63881
     63883     63882     63886     63887     63884     63882     63886     63887
     63885     63882     63886     63887     63889     63888     63892     63893
     63890     63888     63892     63893     63891     63888     63892     63893
     63895     63894     63898     63899     63896     63894     63898     63899
     63897     63894     63898     63899     63901     63900     63904     63905
     63902     63900     63904     63905     63903     63900     63904     63905
     63907     63906     63910     63911     63908     63906     63910     63911
     63909     63906     63910     63911     63913     63912     63916     63917
     63914     63912     63916     63917     63915     63912     63916     63917
     63919     63918     63922     63923     63920     63918     63922     63923
     63921     63918     63922     63923     63925     63924     63928     63929
     63926     63924     63928     63929     63927     63924     63928     63929
     63931     63930     63934     63935     63932     63930     63934     63935
     63933     63930     63934     63935     63937     63936     63940     63941
     63938     63936     63940     63941     63939     63936     63940     63941
     63943     63942     63946     63947     63944     63942     63946     63947
     63945     63942     63946     63947     63949     63948     63952     63953
     63950     63948     63952     63953     63951     63948     63952     63953
     63955     63954     63958     63959     63956     63954     63958     63959
     63957     63954     63958     63959     63961     63960     63964     63965
     63962     63960     63964     63965     63963     63960     63964     63965
     63967     63966     63970     63971     63968     63966     63970     63971
     63969     63966     63970     63971     63973     63972     63976     63977
     63974     63972     63976     63977     63975     63972     63976     63977
     63979     63978     63982     63983     63980     63978     63982     63983
     63981     63978     63982     63983     63985     63984     63988     63989
     63986     63984     63988     63989     63987     63984     63988     63989
     63991     63990     63994     63995     63992     63990     63994     63995
     63993     63990     63994     63995     63997     63996     64000     64001
     63998     63996     64000     64001     63999     63996     64000     64001
     64003     64002     64006     64007     64004     64002     64006     64007
     64005     64002     64006     64007     64009     64008     64012     64013
     64010     64008     64012     64013     64011     64008     64012     64013
     64015     64014     64018     64019     64016     64014     64018     64019
     64017     64014     64018     64019     64021     64020     64024     64025
     64022     64020     64024     64025     64023     64020     64024     64025
     64027     64026     64030     64031     64028     64026     64030     64031
     64029     64026     64030     64031     64033     64032     64036     64037
     64034     64032     64036     64037     64035     64032     64036     64037
     64039     64038     64042     64043     64040     64038     64042     64043
     64041     64038     64042     64043     64045     64044     64048     64049
     64046     64044     64048     64049     64047     64044     64048     64049
     64051     64050     64054     64055     64052     64050     64054     64055
     64053     64050     64054     64055     64057     64056     64060     64061
     64058     64056     64060     64061     64059     64056     64060     64061
     64063     64062     64066     64067     64064     64062     64066     64067
     64065     64062     64066     64067     64069     64068     64072     64073
     64070     64068     64072     64073     64071     64068     64072     64073
     64075     64074     64078     64079     64076     64074     64078     64079
     64077     64074     64078     64079     64081     64080     64084     64085
     64082     64080     64084     64085     64083     64080     64084     64085
     64087     64086     64090     64091     64088     64086     64090     64091
     64089     64086     64090     64091     64093     64092     64096     64097
     64094     64092     64096     64097     64095     64092     64096     64097
     64099     64098     64102     64103     64100     64098     64102     64103
     64101     64098     64102     64103     64105     64104     64108     64109
     64106     64104     64108     64109     64107     64104     64108     64109
     64111     64110     64114     64115     64112     64110     64114     64115
     64113     64110     64114     64115     64117     64116     64120     64121
     64118     64116     64120     64121     64119     64116     64120     64121
     64123     64122     64126     64127     64124     64122     64126     64127
     64125     64122     64126     64127     64129     64128     64132     64133
     64130     64128     64132     64133     64131     64128     64132     64133
     64135     64134     64138     64139     64136     64134     64138     64139
     64137     64134     64138     64139     64141     64140     64144     64145
     64142     64140     64144     64145     64143     64140     64144     64145
     64147     64146     64150     64151     64148     64146     64150     64151
     64149     64146     64150     64151     64153     64152     64156     64157
     64154     64152     64156     64157     64155     64152     64156     64157
     64159     64158     64162     64163     64160     64158     64162     64163
     64161     64158     64162     64163     64165     64164     64168     64169
     64166     64164     64168     64169     64167     64164     64168     64169
     64171     64170     64174     64175     64172     64170     64174     64175
     64173     64170     64174     64175     64177     64176     64180     64181
     64178     64176     64180     64181     64179     64176     64180     64181
     64183     64182     64186     64187     64184     64182     64186     64187
     64185     64182     64186     64187     64189     64188     64192     64193
     64190     64188     64192     64193     64191     64188     64192     64193
     64195     64194     64198     64199     64196     64194     64198     64199
     64197     64194     64198     64199     64201     64200     64204     64205
     64202     64200     64204     64205     64203     64200     64204     64205
     64207     64206     64210     64211     64208     64206     64210     64211
     64209     64206     64210     64211     64213     64212     64216     64217
     64214     64212     64216     64217     64215     64212     64216     64217
     64219     64218     64222     64223     64220     64218     64222     64223
     64221     64218     64222     64223     64225     64224     64228     64229
     64226     64224     64228     64229     64227     64224     64228     64229
     64231     64230     64234     64235     64232     64230     64234     64235
     64233     64230     64234     64235     64237     64236     64240     64241
     64238     64236     64240     64241     64239     64236     64240     64241
     64243     64242     64246     64247     64244     64242     64246     64247
     64245     64242     64246     64247     64249     64248     64252     64253
     64250     64248     64252     64253     64251     64248     64252     64253
     64255     64254     64258     64259     64256     64254     64258     64259
     64257     64254     64258     64259     64261     64260     64264     64265
     64262     64260     64264     64265     64263     64260     64264     64265
     64267     64266     64270     64271     64268     64266     64270     64271
     64269     64266     64270     64271     64273     64272     64276     64277
     64274     64272     64276     64277     64275     64272     64276     64277
     64279     64278     64282     64283     64280     64278     64282     64283
     64281     64278     64282     64283     64285     64284     64288     64289
     64286     64284     64288     64289     64287     64284     64288     64289
     64291     64290     64294     64295     64292     64290     64294     64295
     64293     64290     64294     64295     64297     64296     64300     64301
     64298     64296     64300     64301     64299     64296     64300     64301
     64303     64302     64306     64307     64304     64302     64306     64307
     64305     64302     64306     64307     64309     64308     64312     64313
     64310     64308     64312     64313     64311     64308     64312     64313
     64315     64314     64318     64319     64316     64314     64318     64319
     64317     64314     64318     64319     64321     64320     64324     64325
     64322     64320     64324     64325     64323     64320     64324     64325
     64327     64326     64330     64331     64328     64326     64330     64331
     64329     64326     64330     64331     64333     64332     64336     64337
     64334     64332     64336     64337     64335     64332     64336     64337
     64339     64338     64342     64343     64340     64338     64342     64343
     64341     64338     64342     64343     64345     64344     64348     64349
     64346     64344     64348     64349     64347     64344     64348     64349
     64351     64350     64354     64355     64352     64350     64354     64355
     64353     64350     64354     64355     64357     64356     64360     64361
     64358     64356     64360     64361     64359     64356     64360     64361
     64363     64362     64366     64367     64364     64362     64366     64367
     64365     64362     64366     64367     64369     64368     64372     64373
     64370     64368     64372     64373     64371     64368     64372     64373
     64375     64374     64378     64379     64376     64374     64378     64379
     64377     64374     64378     64379     64381     64380     64384     64385
     64382     64380     64384     64385     64383     64380     64384     64385
     64387     64386     64390     64391     64388     64386     64390     64391
     64389     64386     64390     64391     64393     64392     64396     64397
     64394     64392     64396     64397     64395     64392     64396     64397
     64399     64398     64402     64403     64400     64398     64402     64403
     64401     64398     64402     64403     64405     64404     64408     64409
     64406     64404     64408     64409     64407     64404     64408     64409
     64411     64410     64414     64415     64412     64410     64414     64415
     64413     64410     64414     64415     64417     64416     64420     64421
     64418     64416     64420     64421     64419     64416     64420     64421
     64423     64422     64426     64427     64424     64422     64426     64427
     64425     64422     64426     64427     64429     64428     64432     64433
     64430     64428     64432     64433     64431     64428     64432     64433
     64435     64434     64438     64439     64436     64434     64438     64439
     64437     64434     64438     64439     64441     64440     64444     64445
     64442     64440     64444     64445     64443     64440     64444     64445
     64447     64446     64450     64451     64448     64446     64450     64451
     64449     64446     64450     64451     64453     64452     64456     64457
     64454     64452     64456     64457     64455     64452     64456     64457
     64459     64458     64462     64463     64460     64458     64462     64463
     64461     64458     64462     64463     64465     64464     64468     64469
     64466     64464     64468     64469     64467     64464     64468     64469
     64471     64470     64474     64475     64472     64470     64474     64475
     64473     64470     64474     64475     64477     64476     64480     64481
     64478     64476     64480     64481     64479     64476     64480     64481
     64483     64482     64486     64487     64484     64482     64486     64487
     64485     64482     64486     64487     64489     64488     64492     64493
     64490     64488     64492     64493     64491     64488     64492     64493
     64495     64494     64498     64499     64496     64494     64498     64499
     64497     64494     64498     64499     64501     64500     64504     64505
     64502     64500     64504     64505     64503     64500     64504     64505
     64507     64506     64510     64511     64508     64506     64510     64511
     64509     64506     64510     64511     64513     64512     64516     64517
     64514     64512     64516     64517     64515     64512     64516     64517
     64519     64518     64522     64523     64520     64518     64522     64523
     64521     64518     64522     64523     64525     64524     64528     64529
     64526     64524     64528     64529     64527     64524     64528     64529
     64531     64530     64534     64535     64532     64530     64534     64535
     64533     64530     64534     64535     64537     64536     64540     64541
     64538     64536     64540     64541     64539     64536     64540     64541
     64543     64542     64546     64547     64544     64542     64546     64547
     64545     64542     64546     64547     64549     64548     64552     64553
     64550     64548     64552     64553     64551     64548     64552     64553
     64555     64554     64558     64559     64556     64554     64558     64559
     64557     64554     64558     64559     64561     64560     64564     64565
     64562     64560     64564     64565     64563     64560     64564     64565
     64567     64566     64570     64571     64568     64566     64570     64571
     64569     64566     64570     64571     64573     64572     64576     64577
     64574     64572     64576     64577     64575     64572     64576     64577
     64579     64578     64582     64583     64580     64578     64582     64583
     64581     64578     64582     64583     64585     64584     64588     64589
     64586     64584     64588     64589     64587     64584     64588     64589
     64591     64590     64594     64595     64592     64590     64594     64595
     64593     64590     64594     64595     64597     64596     64600     64601
     64598     64596     64600     64601     64599     64596     64600     64601
     64603     64602     64606     64607     64604     64602     64606     64607
     64605     64602     64606     64607     64609     64608     64612     64613
     64610     64608     64612     64613     64611     64608     64612     64613
     64615     64614     64618     64619     64616     64614     64618     64619
     64617     64614     64618     64619     64621     64620     64624     64625
     64622     64620     64624     64625     64623     64620     64624     64625
     64627     64626     64630     64631     64628     64626     64630     64631
     64629     64626     64630     64631     64633     64632     64636     64637
     64634     64632     64636     64637     64635     64632     64636     64637
     64639     64638     64642     64643     64640     64638     64642     64643
     64641     64638     64642     64643     64645     64644     64648     64649
     64646     64644     64648     64649     64647     64644     64648     64649
     64651     64650     64654     64655     64652     64650     64654     64655
     64653     64650     64654     64655     64657     64656     64660     64661
     64658     64656     64660     64661     64659     64656     64660     64661
     64663     64662     64666     64667     64664     64662     64666     64667
     64665     64662     64666     64667     64669     64668     64672     64673
     64670     64668     64672     64673     64671     64668     64672     64673
     64675     64674     64678     64679     64676     64674     64678     64679
     64677     64674     64678     64679     64681     64680     64684     64685
     64682     64680     64684     64685     64683     64680     64684     64685
     64687     64686     64690     64691     64688     64686     64690     64691
     64689     64686     64690     64691     64693     64692     64696     64697
     64694     64692     64696     64697     64695     64692     64696     64697
     64699     64698     64702     64703     64700     64698     64702     64703
     64701     64698     64702     64703     64705     64704     64708     64709
     64706     64704     64708     64709     64707     64704     64708     64709
     64711     64710     64714     64715     64712     64710     64714     64715
     64713     64710     64714     64715     64717     64716     64720     64721
     64718     64716     64720     64721     64719     64716     64720     64721
     64723     64722     64726     64727     64724     64722     64726     64727
     64725     64722     64726     64727     64729     64728     64732     64733
     64730     64728     64732     64733     64731     64728     64732     64733
     64735     64734     64738     64739     64736     64734     64738     64739
     64737     64734     64738     64739     64741     64740     64744     64745
     64742     64740     64744     64745     64743     64740     64744     64745
     64747     64746     64750     64751     64748     64746     64750     64751
     64749     64746     64750     64751     64753     64752     64756     64757
     64754     64752     64756     64757     64755     64752     64756     64757
     64759     64758     64762     64763     64760     64758     64762     64763
     64761     64758     64762     64763     64765     64764     64768     64769
     64766     64764     64768     64769     64767     64764     64768     64769
     64771     64770     64774     64775     64772     64770     64774     64775
     64773     64770     64774     64775     64777     64776     64780     64781
     64778     64776     64780     64781     64779     64776     64780     64781
     64783     64782     64786     64787     64784     64782     64786     64787
     64785     64782     64786     64787     64789     64788     64792     64793
     64790     64788     64792     64793     64791     64788     64792     64793
     64795     64794     64798     64799     64796     64794     64798     64799
     64797     64794     64798     64799     64801     64800     64804     64805
     64802     64800     64804     64805     64803     64800     64804     64805
     64807     64806     64810     64811     64808     64806     64810     64811
     64809     64806     64810     64811     64813     64812     64816     64817
     64814     64812     64816     64817     64815     64812     64816     64817
     64819     64818     64822     64823     64820     64818     64822     64823
     64821     64818     64822     64823     64825     64824     64828     64829
     64826     64824     64828     64829     64827     64824     64828     64829
     64831     64830     64834     64835     64832     64830     64834     64835
     64833     64830     64834     64835     64837     64836     64840     64841
     64838     64836     64840     64841     64839     64836     64840     64841
     64843     64842     64846     64847     64844     64842     64846     64847
     64845     64842     64846     64847     64849     64848     64852     64853
     64850     64848     64852     64853     64851     64848     64852     64853
     64855     64854     64858     64859     64856     64854     64858     64859
     64857     64854     64858     64859     64861     64860     64864     64865
     64862     64860     64864     64865     64863     64860     64864     64865
     64867     64866     64870     64871     64868     64866     64870     64871
     64869     64866     64870     64871     64873     64872     64876     64877
     64874     64872     64876     64877     64875     64872     64876     64877
     64879     64878     64882     64883     64880     64878     64882     64883
     64881     64878     64882     64883     64885     64884     64888     64889
     64886     64884     64888     64889     64887     64884     64888     64889
     64891     64890     64894     64895     64892     64890     64894     64895
     64893     64890     64894     64895     64897     64896     64900     64901
     64898     64896     64900     64901     64899     64896     64900     64901
     64903     64902     64906     64907     64904     64902     64906     64907
     64905     64902     64906     64907     64909     64908     64912     64913
     64910     64908     64912     64913     64911     64908     64912     64913
     64915     64914     64918     64919     64916     64914     64918     64919
     64917     64914     64918     64919     64921     64920     64924     64925
     64922     64920     64924     64925     64923     64920     64924     64925
     64927     64926     64930     64931     64928     64926     64930     64931
     64929     64926     64930     64931     64933     64932     64936     64937
     64934     64932     64936     64937     64935     64932     64936     64937
     64939     64938     64942     64943     64940     64938     64942     64943
     64941     64938     64942     64943     64945     64944     64948     64949
     64946     64944     64948     64949     64947     64944     64948     64949
     64951     64950     64954     64955     64952     64950     64954     64955
     64953     64950     64954     64955     64957     64956     64960     64961
     64958     64956     64960     64961     64959     64956     64960     64961
     64963     64962     64966     64967     64964     64962     64966     64967
     64965     64962     64966     64967     64969     64968     64972     64973
     64970     64968     64972     64973     64971     64968     64972     64973
     64975     64974     64978     64979     64976     64974     64978     64979
     64977     64974     64978     64979     64981     64980     64984     64985
     64982     64980     64984     64985     64983     64980     64984     64985
     64987     64986     64990     64991     64988     64986     64990     64991
     64989     64986     64990     64991     64993     64992     64996     64997
     64994     64992     64996     64997     64995     64992     64996     64997
     64999     64998     65002     65003     65000     64998     65002     65003
     65001     64998     65002     65003     65005     65004     65008     65009
     65006     65004     65008     65009     65007     65004     65008     65009
     65011     65010     65014     65015     65012     65010     65014     65015
     65013     65010     65014     65015     65017     65016     65020     65021
     65018     65016     65020     65021     65019     65016     65020     65021
     65023     65022     65026     65027     65024     65022     65026     65027
     65025     65022     65026     65027     65029     65028     65032     65033
     65030     65028     65032     65033     65031     65028     65032     65033
     65035     65034     65038     65039     65036     65034     65038     65039
     65037     65034     65038     65039     65041     65040     65044     65045
     65042     65040     65044     65045     65043     65040     65044     65045
     65047     65046     65050     65051     65048     65046     65050     65051
     65049     65046     65050     65051     65053     65052     65056     65057
     65054     65052     65056     65057     65055     65052     65056     65057
     65059     65058     65062     65063     65060     65058     65062     65063
     65061     65058     65062     65063     65065     65064     65068     65069
     65066     65064     65068     65069     65067     65064     65068     65069
     65071     65070     65074     65075     65072     65070     65074     65075
     65073     65070     65074     65075     65077     65076     65080     65081
     65078     65076     65080     65081     65079     65076     65080     65081
     65083     65082     65086     65087     65084     65082     65086     65087
     65085     65082     65086     65087     65089     65088     65092     65093
     65090     65088     65092     65093     65091     65088     65092     65093
     65095     65094     65098     65099     65096     65094     65098     65099
     65097     65094     65098     65099     65101     65100     65104     65105
     65102     65100     65104     65105     65103     65100     65104     65105
     65107     65106     65110     65111     65108     65106     65110     65111
     65109     65106     65110     65111     65113     65112     65116     65117
     65114     65112     65116     65117     65115     65112     65116     65117
     65119     65118     65122     65123     65120     65118     65122     65123
     65121     65118     65122     65123     65125     65124     65128     65129
     65126     65124     65128     65129     65127     65124     65128     65129
     65131     65130     65134     65135     65132     65130     65134     65135
     65133     65130     65134     65135     65137     65136     65140     65141
     65138     65136     65140     65141     65139     65136     65140     65141
     65143     65142     65146     65147     65144     65142     65146     65147
     65145     65142     65146     65147     65149     65148     65152     65153
     65150     65148     65152     65153     65151     65148     65152     65153
     65155     65154     65158     65159     65156     65154     65158     65159
     65157     65154     65158     65159     65161     65160     65164     65165
     65162     65160     65164     65165     65163     65160     65164     65165
     65167     65166     65170     65171     65168     65166     65170     65171
     65169     65166     65170     65171     65173     65172     65176     65177
     65174     65172     65176     65177     65175     65172     65176     65177
     65179     65178     65182     65183     65180     65178     65182     65183
     65181     65178     65182     65183     65185     65184     65188     65189
     65186     65184     65188     65189     65187     65184     65188     65189
     65191     65190     65194     65195     65192     65190     65194     65195
     65193     65190     65194     65195     65197     65196     65200     65201
     65198     65196     65200     65201     65199     65196     65200     65201
     65203     65202     65206     65207     65204     65202     65206     65207
     65205     65202     65206     65207     65209     65208     65212     65213
     65210     65208     65212     65213     65211     65208     65212     65213
     65215     65214     65218     65219     65216     65214     65218     65219
     65217     65214     65218     65219     65221     65220     65224     65225
     65222     65220     65224     65225     65223     65220     65224     65225
     65227     65226     65230     65231     65228     65226     65230     65231
     65229     65226     65230     65231     65233     65232     65236     65237
     65234     65232     65236     65237     65235     65232     65236     65237
     65239     65238     65242     65243     65240     65238     65242     65243
     65241     65238     65242     65243     65245     65244     65248     65249
     65246     65244     65248     65249     65247     65244     65248     65249
     65251     65250     65254     65255     65252     65250     65254     65255
     65253     65250     65254     65255     65257     65256     65260     65261
     65258     65256     65260     65261     65259     65256     65260     65261
     65263     65262     65266     65267     65264     65262     65266     65267
     65265     65262     65266     65267     65269     65268     65272     65273
     65270     65268     65272     65273     65271     65268     65272     65273
     65275     65274     65278     65279     65276     65274     65278     65279
     65277     65274     65278     65279     65281     65280     65284     65285
     65282     65280     65284     65285     65283     65280     65284     65285
     65287     65286     65290     65291     65288     65286     65290     65291
     65289     65286     65290     65291     65293     65292     65296     65297
     65294     65292     65296     65297     65295     65292     65296     65297
     65299     65298     65302     65303     65300     65298     65302     65303
     65301     65298     65302     65303     65305     65304     65308     65309
     65306     65304     65308     65309     65307     65304     65308     65309
     65311     65310     65314     65315     65312     65310     65314     65315
     65313     65310     65314     65315     65317     65316     65320     65321
     65318     65316     65320     65321     65319     65316     65320     65321
     65323     65322     65326     65327     65324     65322     65326     65327
     65325     65322     65326     65327     65329     65328     65332     65333
     65330     65328     65332     65333     65331     65328     65332     65333
     65335     65334     65338     65339     65336     65334     65338     65339
     65337     65334     65338     65339     65341     65340     65344     65345
     65342     65340     65344     65345     65343     65340     65344     65345
     65347     65346     65350     65351     65348     65346     65350     65351
     65349     65346     65350     65351     65353     65352     65356     65357
     65354     65352     65356     65357     65355     65352     65356     65357
     65359     65358     65362     65363     65360     65358     65362     65363
     65361     65358     65362     65363     65365     65364     65368     65369
     65366     65364     65368     65369     65367     65364     65368     65369
     65371     65370     65374     65375     65372     65370     65374     65375
     65373     65370     65374     65375     65377     65376     65380     65381
     65378     65376     65380     65381     65379     65376     65380     65381
     65383     65382     65386     65387     65384     65382     65386     65387
     65385     65382     65386     65387     65389     65388     65392     65393
     65390     65388     65392     65393     65391     65388     65392     65393
     65395     65394     65398     65399     65396     65394     65398     65399
     65397     65394     65398     65399     65401     65400     65404     65405
     65402     65400     65404     65405     65403     65400     65404     65405
     65407     65406     65410     65411     65408     65406     65410     65411
     65409     65406     65410     65411     65413     65412     65416     65417
     65414     65412     65416     65417     65415     65412     65416     65417
     65419     65418     65422     65423     65420     65418     65422     65423
     65421     65418     65422     65423     65425     65424     65428     65429
     65426     65424     65428     65429     65427     65424     65428     65429
     65431     65430     65434     65435     65432     65430     65434     65435
     65433     65430     65434     65435     65437     65436     65440     65441
     65438     65436     65440     65441     65439     65436     65440     65441
     65443     65442     65446     65447     65444     65442     65446     65447
     65445     65442     65446     65447     65449     65448     65452     65453
     65450     65448     65452     65453     65451     65448     65452     65453
     65455     65454     65458     65459     65456     65454     65458     65459
     65457     65454     65458     65459     65461     65460     65464     65465
     65462     65460     65464     65465     65463     65460     65464     65465
     65467     65466     65470     65471     65468     65466     65470     65471
     65469     65466     65470     65471     65473     65472     65476     65477
     65474     65472     65476     65477     65475     65472     65476     65477
     65479     65478     65482     65483     65480     65478     65482     65483
     65481     65478     65482     65483     65485     65484     65488     65489
     65486     65484     65488     65489     65487     65484     65488     65489
     65491     65490     65494     65495     65492     65490     65494     65495
     65493     65490     65494     65495     65497     65496     65500     65501
     65498     65496     65500     65501     65499     65496     65500     65501
     65503     65502     65506     65507     65504     65502     65506     65507
     65505     65502     65506     65507     65509     65508     65512     65513
     65510     65508     65512     65513     65511     65508     65512     65513
     65515     65514     65518     65519     65516     65514     65518     65519
     65517     65514     65518     65519     65521     65520     65524     65525
     65522     65520     65524     65525     65523     65520     65524     65525
     65527     65526     65530     65531     65528     65526     65530     65531
     65529     65526     65530     65531     65533     65532     65536     65537
     65534     65532     65536     65537     65535     65532     65536     65537
     65539     65538     65542     65543     65540     65538     65542     65543
     65541     65538     65542     65543     65545     65544     65548     65549
     65546     65544     65548     65549     65547     65544     65548     65549
     65551     65550     65554     65555     65552     65550     65554     65555
     65553     65550     65554     65555     65557     65556     65560     65561
     65558     65556     65560     65561     65559     65556     65560     65561
     65563     65562     65566     65567     65564     65562     65566     65567
     65565     65562     65566     65567     65569     65568     65572     65573
     65570     65568     65572     65573     65571     65568     65572     65573
     65575     65574     65578     65579     65576     65574     65578     65579
     65577     65574     65578     65579     65581     65580     65584     65585
     65582     65580     65584     65585     65583     65580     65584     65585
     65587     65586     65590     65591     65588     65586     65590     65591
     65589     65586     65590     65591     65593     65592     65596     65597
     65594     65592     65596     65597     65595     65592     65596     65597
     65599     65598     65602     65603     65600     65598     65602     65603
     65601     65598     65602     65603     65605     65604     65608     65609
     65606     65604     65608     65609     65607     65604     65608     65609
     65611     65610     65614     65615     65612     65610     65614     65615
     65613     65610     65614     65615     65617     65616     65620     65621
     65618     65616     65620     65621     65619     65616     65620     65621
     65623     65622     65626     65627     65624     65622     65626     65627
     65625     65622     65626     65627     65629     65628     65632     65633
     65630     65628     65632     65633     65631     65628     65632     65633
     65635     65634     65638     65639     65636     65634     65638     65639
     65637     65634     65638     65639     65641     65640     65644     65645
     65642     65640     65644     65645     65643     65640     65644     65645
     65647     65646     65650     65651     65648     65646     65650     65651
     65649     65646     65650     65651     65653     65652     65656     65657
     65654     65652     65656     65657     65655     65652     65656     65657
     65659     65658     65662     65663     65660     65658     65662     65663
     65661     65658     65662     65663     65665     65664     65668     65669
     65666     65664     65668     65669     65667     65664     65668     65669
     65671     65670     65674     65675     65672     65670     65674     65675
     65673     65670     65674     65675     65677     65676     65680     65681
     65678     65676     65680     65681     65679     65676     65680     65681
     65683     65682     65686     65687     65684     65682     65686     65687
     65685     65682     65686     65687     65689     65688     65692     65693
     65690     65688     65692     65693     65691     65688     65692     65693
     65695     65694     65698     65699     65696     65694     65698     65699
     65697     65694     65698     65699     65701     65700     65704     65705
     65702     65700     65704     65705     65703     65700     65704     65705
     65707     65706     65710     65711     65708     65706     65710     65711
     65709     65706     65710     65711     65713     65712     65716     65717
     65714     65712     65716     65717     65715     65712     65716     65717
     65719     65718     65722     65723     65720     65718     65722     65723
     65721     65718     65722     65723     65725     65724     65728     65729
     65726     65724     65728     65729     65727     65724     65728     65729
     65731     65730     65734     65735     65732     65730     65734     65735
     65733     65730     65734     65735     65737     65736     65740     65741
     65738     65736     65740     65741     65739     65736     65740     65741
     65743     65742     65746     65747     65744     65742     65746     65747
     65745     65742     65746     65747     65749     65748     65752     65753
     65750     65748     65752     65753     65751     65748     65752     65753
     65755     65754     65758     65759     65756     65754     65758     65759
     65757     65754     65758     65759     65761     65760     65764     65765
     65762     65760     65764     65765     65763     65760     65764     65765
     65767     65766     65770     65771     65768     65766     65770     65771
     65769     65766     65770     65771     65773     65772     65776     65777
     65774     65772     65776     65777     65775     65772     65776     65777
     65779     65778     65782     65783     65780     65778     65782     65783
     65781     65778     65782     65783     65785     65784     65788     65789
     65786     65784     65788     65789     65787     65784     65788     65789
     65791     65790     65794     65795     65792     65790     65794     65795
     65793     65790     65794     65795     65797     65796     65800     65801
     65798     65796     65800     65801     65799     65796     65800     65801
     65803     65802     65806     65807     65804     65802     65806     65807
     65805     65802     65806     65807     65809     65808     65812     65813
     65810     65808     65812     65813     65811     65808     65812     65813
     65815     65814     65818     65819     65816     65814     65818     65819
     65817     65814     65818     65819     65821     65820     65824     65825
     65822     65820     65824     65825     65823     65820     65824     65825
     65827     65826     65830     65831     65828     65826     65830     65831
     65829     65826     65830     65831     65833     65832     65836     65837
     65834     65832     65836     65837     65835     65832     65836     65837
     65839     65838     65842     65843     65840     65838     65842     65843
     65841     65838     65842     65843     65845     65844     65848     65849
     65846     65844     65848     65849     65847     65844     65848     65849
     65851     65850     65854     65855     65852     65850     65854     65855
     65853     65850     65854     65855     65857     65856     65860     65861
     65858     65856     65860     65861     65859     65856     65860     65861
     65863     65862     65866     65867     65864     65862     65866     65867
     65865     65862     65866     65867     65869     65868     65872     65873
     65870     65868     65872     65873     65871     65868     65872     65873
     65875     65874     65878     65879     65876     65874     65878     65879
     65877     65874     65878     65879     65881     65880     65884     65885
     65882     65880     65884     65885     65883     65880     65884     65885
     65887     65886     65890     65891     65888     65886     65890     65891
     65889     65886     65890     65891     65893     65892     65896     65897
     65894     65892     65896     65897     65895     65892     65896     65897
     65899     65898     65902     65903     65900     65898     65902     65903
     65901     65898     65902     65903     65905     65904     65908     65909
     65906     65904     65908     65909     65907     65904     65908     65909
     65911     65910     65914     65915     65912     65910     65914     65915
     65913     65910     65914     65915     65917     65916     65920     65921
     65918     65916     65920     65921     65919     65916     65920     65921
     65923     65922     65926     65927     65924     65922     65926     65927
     65925     65922     65926     65927     65929     65928     65932     65933
     65930     65928     65932     65933     65931     65928     65932     65933
     65935     65934     65938     65939     65936     65934     65938     65939
     65937     65934     65938     65939     65941     65940     65944     65945
     65942     65940     65944     65945     65943     65940     65944     65945
     65947     65946     65950     65951     65948     65946     65950     65951
     65949     65946     65950     65951     65953     65952     65956     65957
     65954     65952     65956     65957     65955     65952     65956     65957
     65959     65958     65962     65963     65960     65958     65962     65963
     65961     65958     65962     65963     65965     65964     65968     65969
     65966     65964     65968     65969     65967     65964     65968     65969
     65971     65970     65974     65975     65972     65970     65974     65975
     65973     65970     65974     65975     65977     65976     65980     65981
     65978     65976     65980     65981     65979     65976     65980     65981
     65983     65982     65986     65987     65984     65982     65986     65987
     65985     65982     65986     65987     65989     65988     65992     65993
     65990     65988     65992     65993     65991     65988     65992     65993
     65995     65994     65998     65999     65996     65994     65998     65999
     65997     65994     65998     65999     66001     66000     66004     66005
     66002     66000     66004     66005     66003     66000     66004     66005
     66007     66006     66010     66011     66008     66006     66010     66011
     66009     66006     66010     66011     66013     66012     66016     66017
     66014     66012     66016     66017     66015     66012     66016     66017
     66019     66018     66022     66023     66020     66018     66022     66023
     66021     66018     66022     66023     66025     66024     66028     66029
     66026     66024     66028     66029     66027     66024     66028     66029
     66031     66030     66034     66035     66032     66030     66034     66035
     66033     66030     66034     66035     66037     66036     66040     66041
     66038     66036     66040     66041     66039     66036     66040     66041
     66043     66042     66046     66047     66044     66042     66046     66047
     66045     66042     66046     66047     66049     66048     66052     66053
     66050     66048     66052     66053     66051     66048     66052     66053
     66055     66054     66058     66059     66056     66054     66058     66059
     66057     66054     66058     66059     66061     66060     66064     66065
     66062     66060     66064     66065     66063     66060     66064     66065
     66067     66066     66070     66071     66068     66066     66070     66071
     66069     66066     66070     66071     66073     66072     66076     66077
     66074     66072     66076     66077     66075     66072     66076     66077
     66079     66078     66082     66083     66080     66078     66082     66083
     66081     66078     66082     66083     66085     66084     66088     66089
     66086     66084     66088     66089     66087     66084     66088     66089
     66091     66090     66094     66095     66092     66090     66094     66095
     66093     66090     66094     66095     66097     66096     66100     66101
     66098     66096     66100     66101     66099     66096     66100     66101
     66103     66102     66106     66107     66104     66102     66106     66107
     66105     66102     66106     66107     66109     66108     66112     66113
     66110     66108     66112     66113     66111     66108     66112     66113
     66115     66114     66118     66119     66116     66114     66118     66119
     66117     66114     66118     66119     66121     66120     66124     66125
     66122     66120     66124     66125     66123     66120     66124     66125
     66127     66126     66130     66131     66128     66126     66130     66131
     66129     66126     66130     66131     66133     66132     66136     66137
     66134     66132     66136     66137     66135     66132     66136     66137
     66139     66138     66142     66143     66140     66138     66142     66143
     66141     66138     66142     66143     66145     66144     66148     66149
     66146     66144     66148     66149     66147     66144     66148     66149
     66151     66150     66154     66155     66152     66150     66154     66155
     66153     66150     66154     66155     66157     66156     66160     66161
     66158     66156     66160     66161     66159     66156     66160     66161
     66163     66162     66166     66167     66164     66162     66166     66167
     66165     66162     66166     66167     66169     66168     66172     66173
     66170     66168     66172     66173     66171     66168     66172     66173
     66175     66174     66178     66179     66176     66174     66178     66179
     66177     66174     66178     66179     66181     66180     66184     66185
     66182     66180     66184     66185     66183     66180     66184     66185
     66187     66186     66190     66191     66188     66186     66190     66191
     66189     66186     66190     66191     66193     66192     66196     66197
     66194     66192     66196     66197     66195     66192     66196     66197
     66199     66198     66202     66203     66200     66198     66202     66203
     66201     66198     66202     66203     66205     66204     66208     66209
     66206     66204     66208     66209     66207     66204     66208     66209
     66211     66210     66214     66215     66212     66210     66214     66215
     66213     66210     66214     66215     66217     66216     66220     66221
     66218     66216     66220     66221     66219     66216     66220     66221
     66223     66222     66226     66227     66224     66222     66226     66227
     66225     66222     66226     66227     66229     66228     66232     66233
     66230     66228     66232     66233     66231     66228     66232     66233
     66235     66234     66238     66239     66236     66234     66238     66239
     66237     66234     66238     66239     66241     66240     66244     66245
     66242     66240     66244     66245     66243     66240     66244     66245
     66247     66246     66250     66251     66248     66246     66250     66251
     66249     66246     66250     66251     66253     66252     66256     66257
     66254     66252     66256     66257     66255     66252     66256     66257
     66259     66258     66262     66263     66260     66258     66262     66263
     66261     66258     66262     66263     66265     66264     66268     66269
     66266     66264     66268     66269     66267     66264     66268     66269
     66271     66270     66274     66275     66272     66270     66274     66275
     66273     66270     66274     66275     66277     66276     66280     66281
     66278     66276     66280     66281     66279     66276     66280     66281
     66283     66282     66286     66287     66284     66282     66286     66287
     66285     66282     66286     66287     66289     66288     66292     66293
     66290     66288     66292     66293     66291     66288     66292     66293
     66295     66294     66298     66299     66296     66294     66298     66299
     66297     66294     66298     66299     66301     66300     66304     66305
     66302     66300     66304     66305     66303     66300     66304     66305
     66307     66306     66310     66311     66308     66306     66310     66311
     66309     66306     66310     66311     66313     66312     66316     66317
     66314     66312     66316     66317     66315     66312     66316     66317
     66319     66318     66322     66323     66320     66318     66322     66323
     66321     66318     66322     66323     66325     66324     66328     66329
     66326     66324     66328     66329     66327     66324     66328     66329
     66331     66330     66334     66335     66332     66330     66334     66335
     66333     66330     66334     66335     66337     66336     66340     66341
     66338     66336     66340     66341     66339     66336     66340     66341
     66343     66342     66346     66347     66344     66342     66346     66347
     66345     66342     66346     66347     66349     66348     66352     66353
     66350     66348     66352     66353     66351     66348     66352     66353
     66355     66354     66358     66359     66356     66354     66358     66359
     66357     66354     66358     66359     66361     66360     66364     66365
     66362     66360     66364     66365     66363     66360     66364     66365
     66367     66366     66370     66371     66368     66366     66370     66371
     66369     66366     66370     66371     66373     66372     66376     66377
     66374     66372     66376     66377     66375     66372     66376     66377
     66379     66378     66382     66383     66380     66378     66382     66383
     66381     66378     66382     66383     66385     66384     66388     66389
     66386     66384     66388     66389     66387     66384     66388     66389
     66391     66390     66394     66395     66392     66390     66394     66395
     66393     66390     66394     66395     66397     66396     66400     66401
     66398     66396     66400     66401     66399     66396     66400     66401
     66403     66402     66406     66407     66404     66402     66406     66407
     66405     66402     66406     66407     66409     66408     66412     66413
     66410     66408     66412     66413     66411     66408     66412     66413
     66415     66414     66418     66419     66416     66414     66418     66419
     66417     66414     66418     66419     66421     66420     66424     66425
     66422     66420     66424     66425     66423     66420     66424     66425
     66427     66426     66430     66431     66428     66426     66430     66431
     66429     66426     66430     66431     66433     66432     66436     66437
     66434     66432     66436     66437     66435     66432     66436     66437
     66439     66438     66442     66443     66440     66438     66442     66443
     66441     66438     66442     66443     66445     66444     66448     66449
     66446     66444     66448     66449     66447     66444     66448     66449
     66451     66450     66454     66455     66452     66450     66454     66455
     66453     66450     66454     66455     66457     66456     66460     66461
     66458     66456     66460     66461     66459     66456     66460     66461
     66463     66462     66466     66467     66464     66462     66466     66467
     66465     66462     66466     66467     66469     66468     66472     66473
     66470     66468     66472     66473     66471     66468     66472     66473
     66475     66474     66478     66479     66476     66474     66478     66479
     66477     66474     66478     66479     66481     66480     66484     66485
     66482     66480     66484     66485     66483     66480     66484     66485
     66487     66486     66490     66491     66488     66486     66490     66491
     66489     66486     66490     66491     66493     66492     66496     66497
     66494     66492     66496     66497     66495     66492     66496     66497
     66499     66498     66502     66503     66500     66498     66502     66503
     66501     66498     66502     66503     66505     66504     66508     66509
     66506     66504     66508     66509     66507     66504     66508     66509
     66511     66510     66514     66515     66512     66510     66514     66515
     66513     66510     66514     66515     66517     66516     66520     66521
     66518     66516     66520     66521     66519     66516     66520     66521
     66523     66522     66526     66527     66524     66522     66526     66527
     66525     66522     66526     66527     66529     66528     66532     66533
     66530     66528     66532     66533     66531     66528     66532     66533
     66535     66534     66538     66539     66536     66534     66538     66539
     66537     66534     66538     66539     66541     66540     66544     66545
     66542     66540     66544     66545     66543     66540     66544     66545
     66547     66546     66550     66551     66548     66546     66550     66551
     66549     66546     66550     66551     66553     66552     66556     66557
     66554     66552     66556     66557     66555     66552     66556     66557
     66559     66558     66562     66563     66560     66558     66562     66563
     66561     66558     66562     66563     66565     66564     66568     66569
     66566     66564     66568     66569     66567     66564     66568     66569
     66571     66570     66574     66575     66572     66570     66574     66575
     66573     66570     66574     66575     66577     66576     66580     66581
     66578     66576     66580     66581     66579     66576     66580     66581
     66583     66582     66586     66587     66584     66582     66586     66587
     66585     66582     66586     66587     66589     66588     66592     66593
     66590     66588     66592     66593     66591     66588     66592     66593
     66595     66594     66598     66599     66596     66594     66598     66599
     66597     66594     66598     66599     66601     66600     66604     66605
     66602     66600     66604     66605     66603     66600     66604     66605
     66607     66606     66610     66611     66608     66606     66610     66611
     66609     66606     66610     66611     66613     66612     66616     66617
     66614     66612     66616     66617     66615     66612     66616     66617
     66619     66618     66622     66623     66620     66618     66622     66623
     66621     66618     66622     66623     66625     66624     66628     66629
     66626     66624     66628     66629     66627     66624     66628     66629
     66631     66630     66634     66635     66632     66630     66634     66635
     66633     66630     66634     66635     66637     66636     66640     66641
     66638     66636     66640     66641     66639     66636     66640     66641
     66643     66642     66646     66647     66644     66642     66646     66647
     66645     66642     66646     66647     66649     66648     66652     66653
     66650     66648     66652     66653     66651     66648     66652     66653
     66655     66654     66658     66659     66656     66654     66658     66659
     66657     66654     66658     66659     66661     66660     66664     66665
     66662     66660     66664     66665     66663     66660     66664     66665
     66667     66666     66670     66671     66668     66666     66670     66671
     66669     66666     66670     66671     66673     66672     66676     66677
     66674     66672     66676     66677     66675     66672     66676     66677
     66679     66678     66682     66683     66680     66678     66682     66683
     66681     66678     66682     66683     66685     66684     66688     66689
     66686     66684     66688     66689     66687     66684     66688     66689
     66691     66690     66694     66695     66692     66690     66694     66695
     66693     66690     66694     66695     66697     66696     66700     66701
     66698     66696     66700     66701     66699     66696     66700     66701
     66703     66702     66706     66707     66704     66702     66706     66707
     66705     66702     66706     66707     66709     66708     66712     66713
     66710     66708     66712     66713     66711     66708     66712     66713
     66715     66714     66718     66719     66716     66714     66718     66719
     66717     66714     66718     66719     66721     66720     66724     66725
     66722     66720     66724     66725     66723     66720     66724     66725
     66727     66726     66730     66731     66728     66726     66730     66731
     66729     66726     66730     66731     66733     66732     66736     66737
     66734     66732     66736     66737     66735     66732     66736     66737
     66739     66738     66742     66743     66740     66738     66742     66743
     66741     66738     66742     66743     66745     66744     66748     66749
     66746     66744     66748     66749     66747     66744     66748     66749
     66751     66750     66754     66755     66752     66750     66754     66755
     66753     66750     66754     66755     66757     66756     66760     66761
     66758     66756     66760     66761     66759     66756     66760     66761
     66763     66762     66766     66767     66764     66762     66766     66767
     66765     66762     66766     66767     66769     66768     66772     66773
     66770     66768     66772     66773     66771     66768     66772     66773
     66775     66774     66778     66779     66776     66774     66778     66779
     66777     66774     66778     66779     66781     66780     66784     66785
     66782     66780     66784     66785     66783     66780     66784     66785
     66787     66786     66790     66791     66788     66786     66790     66791
     66789     66786     66790     66791     66793     66792     66796     66797
     66794     66792     66796     66797     66795     66792     66796     66797
     66799     66798     66802     66803     66800     66798     66802     66803
     66801     66798     66802     66803     66805     66804     66808     66809
     66806     66804     66808     66809     66807     66804     66808     66809
     66811     66810     66814     66815     66812     66810     66814     66815
     66813     66810     66814     66815     66817     66816     66820     66821
     66818     66816     66820     66821     66819     66816     66820     66821
     66823     66822     66826     66827     66824     66822     66826     66827
     66825     66822     66826     66827     66829     66828     66832     66833
     66830     66828     66832     66833     66831     66828     66832     66833
     66835     66834     66838     66839     66836     66834     66838     66839
     66837     66834     66838     66839     66841     66840     66844     66845
     66842     66840     66844     66845     66843     66840     66844     66845
     66847     66846     66850     66851     66848     66846     66850     66851
     66849     66846     66850     66851     66853     66852     66856     66857
     66854     66852     66856     66857     66855     66852     66856     66857
     66859     66858     66862     66863     66860     66858     66862     66863
     66861     66858     66862     66863     66865     66864     66868     66869
     66866     66864     66868     66869     66867     66864     66868     66869
     66871     66870     66874     66875     66872     66870     66874     66875
     66873     66870     66874     66875     66877     66876     66880     66881
     66878     66876     66880     66881     66879     66876     66880     66881
     66883     66882     66886     66887     66884     66882     66886     66887
     66885     66882     66886     66887     66889     66888     66892     66893
     66890     66888     66892     66893     66891     66888     66892     66893
     66895     66894     66898     66899     66896     66894     66898     66899
     66897     66894     66898     66899     66901     66900     66904     66905
     66902     66900     66904     66905     66903     66900     66904     66905
     66907     66906     66910     66911     66908     66906     66910     66911
     66909     66906     66910     66911     66913     66912     66916     66917
     66914     66912     66916     66917     66915     66912     66916     66917
     66919     66918     66922     66923     66920     66918     66922     66923
     66921     66918     66922     66923     66925     66924     66928     66929
     66926     66924     66928     66929     66927     66924     66928     66929
     66931     66930     66934     66935     66932     66930     66934     66935
     66933     66930     66934     66935     66937     66936     66940     66941
     66938     66936     66940     66941     66939     66936     66940     66941
     66943     66942     66946     66947     66944     66942     66946     66947
     66945     66942     66946     66947     66949     66948     66952     66953
     66950     66948     66952     66953     66951     66948     66952     66953
     66955     66954     66958     66959     66956     66954     66958     66959
     66957     66954     66958     66959     66961     66960     66964     66965
     66962     66960     66964     66965     66963     66960     66964     66965
     66967     66966     66970     66971     66968     66966     66970     66971
     66969     66966     66970     66971     66973     66972     66976     66977
     66974     66972     66976     66977     66975     66972     66976     66977
     66979     66978     66982     66983     66980     66978     66982     66983
     66981     66978     66982     66983     66985     66984     66988     66989
     66986     66984     66988     66989     66987     66984     66988     66989
     66991     66990     66994     66995     66992     66990     66994     66995
     66993     66990     66994     66995     66997     66996     67000     67001
     66998     66996     67000     67001     66999     66996     67000     67001
     67003     67002     67006     67007     67004     67002     67006     67007
     67005     67002     67006     67007     67009     67008     67012     67013
     67010     67008     67012     67013     67011     67008     67012     67013
     67015     67014     67018     67019     67016     67014     67018     67019
     67017     67014     67018     67019     67021     67020     67024     67025
     67022     67020     67024     67025     67023     67020     67024     67025
     67027     67026     67030     67031     67028     67026     67030     67031
     67029     67026     67030     67031     67033     67032     67036     67037
     67034     67032     67036     67037     67035     67032     67036     67037
     67039     67038     67042     67043     67040     67038     67042     67043
     67041     67038     67042     67043     67045     67044     67048     67049
     67046     67044     67048     67049     67047     67044     67048     67049
     67051     67050     67054     67055     67052     67050     67054     67055
     67053     67050     67054     67055     67057     67056     67060     67061
     67058     67056     67060     67061     67059     67056     67060     67061
     67063     67062     67066     67067     67064     67062     67066     67067
     67065     67062     67066     67067     67069     67068     67072     67073
     67070     67068     67072     67073     67071     67068     67072     67073
     67075     67074     67078     67079     67076     67074     67078     67079
     67077     67074     67078     67079     67081     67080     67084     67085
     67082     67080     67084     67085     67083     67080     67084     67085
     67087     67086     67090     67091     67088     67086     67090     67091
     67089     67086     67090     67091     67093     67092     67096     67097
     67094     67092     67096     67097     67095     67092     67096     67097
     67099     67098     67102     67103     67100     67098     67102     67103
     67101     67098     67102     67103     67105     67104     67108     67109
     67106     67104     67108     67109     67107     67104     67108     67109
     67111     67110     67114     67115     67112     67110     67114     67115
     67113     67110     67114     67115     67117     67116     67120     67121
     67118     67116     67120     67121     67119     67116     67120     67121
     67123     67122     67126     67127     67124     67122     67126     67127
     67125     67122     67126     67127     67129     67128     67132     67133
     67130     67128     67132     67133     67131     67128     67132     67133
     67135     67134     67138     67139     67136     67134     67138     67139
     67137     67134     67138     67139     67141     67140     67144     67145
     67142     67140     67144     67145     67143     67140     67144     67145
     67147     67146     67150     67151     67148     67146     67150     67151
     67149     67146     67150     67151     67153     67152     67156     67157
     67154     67152     67156     67157     67155     67152     67156     67157
     67159     67158     67162     67163     67160     67158     67162     67163
     67161     67158     67162     67163     67165     67164     67168     67169
     67166     67164     67168     67169     67167     67164     67168     67169
     67171     67170     67174     67175     67172     67170     67174     67175
     67173     67170     67174     67175     67177     67176     67180     67181
     67178     67176     67180     67181     67179     67176     67180     67181
     67183     67182     67186     67187     67184     67182     67186     67187
     67185     67182     67186     67187     67189     67188     67192     67193
     67190     67188     67192     67193     67191     67188     67192     67193
     67195     67194     67198     67199     67196     67194     67198     67199
     67197     67194     67198     67199     67201     67200     67204     67205
     67202     67200     67204     67205     67203     67200     67204     67205
     67207     67206     67210     67211     67208     67206     67210     67211
     67209     67206     67210     67211     67213     67212     67216     67217
     67214     67212     67216     67217     67215     67212     67216     67217
     67219     67218     67222     67223     67220     67218     67222     67223
     67221     67218     67222     67223     67225     67224     67228     67229
     67226     67224     67228     67229     67227     67224     67228     67229
     67231     67230     67234     67235     67232     67230     67234     67235
     67233     67230     67234     67235     67237     67236     67240     67241
     67238     67236     67240     67241     67239     67236     67240     67241
     67243     67242     67246     67247     67244     67242     67246     67247
     67245     67242     67246     67247     67249     67248     67252     67253
     67250     67248     67252     67253     67251     67248     67252     67253
     67255     67254     67258     67259     67256     67254     67258     67259
     67257     67254     67258     67259     67261     67260     67264     67265
     67262     67260     67264     67265     67263     67260     67264     67265
     67267     67266     67270     67271     67268     67266     67270     67271
     67269     67266     67270     67271     67273     67272     67276     67277
     67274     67272     67276     67277     67275     67272     67276     67277
     67279     67278     67282     67283     67280     67278     67282     67283
     67281     67278     67282     67283     67285     67284     67288     67289
     67286     67284     67288     67289     67287     67284     67288     67289
     67291     67290     67294     67295     67292     67290     67294     67295
     67293     67290     67294     67295     67297     67296     67300     67301
     67298     67296     67300     67301     67299     67296     67300     67301
     67303     67302     67306     67307     67304     67302     67306     67307
     67305     67302     67306     67307     67309     67308     67312     67313
     67310     67308     67312     67313     67311     67308     67312     67313
     67315     67314     67318     67319     67316     67314     67318     67319
     67317     67314     67318     67319     67321     67320     67324     67325
     67322     67320     67324     67325     67323     67320     67324     67325
     67327     67326     67330     67331     67328     67326     67330     67331
     67329     67326     67330     67331     67333     67332     67336     67337
     67334     67332     67336     67337     67335     67332     67336     67337
     67339     67338     67342     67343     67340     67338     67342     67343
     67341     67338     67342     67343     67345     67344     67348     67349
     67346     67344     67348     67349     67347     67344     67348     67349
     67351     67350     67354     67355     67352     67350     67354     67355
     67353     67350     67354     67355     67357     67356     67360     67361
     67358     67356     67360     67361     67359     67356     67360     67361
     67363     67362     67366     67367     67364     67362     67366     67367
     67365     67362     67366     67367     67369     67368     67372     67373
     67370     67368     67372     67373     67371     67368     67372     67373
     67375     67374     67378     67379     67376     67374     67378     67379
     67377     67374     67378     67379     67381     67380     67384     67385
     67382     67380     67384     67385     67383     67380     67384     67385
     67387     67386     67390     67391     67388     67386     67390     67391
     67389     67386     67390     67391     67393     67392     67396     67397
     67394     67392     67396     67397     67395     67392     67396     67397
     67399     67398     67402     67403     67400     67398     67402     67403
     67401     67398     67402     67403     67405     67404     67408     67409
     67406     67404     67408     67409     67407     67404     67408     67409
     67411     67410     67414     67415     67412     67410     67414     67415
     67413     67410     67414     67415     67417     67416     67420     67421
     67418     67416     67420     67421     67419     67416     67420     67421
     67423     67422     67426     67427     67424     67422     67426     67427
     67425     67422     67426     67427     67429     67428     67432     67433
     67430     67428     67432     67433     67431     67428     67432     67433
     67435     67434     67438     67439     67436     67434     67438     67439
     67437     67434     67438     67439     67441     67440     67444     67445
     67442     67440     67444     67445     67443     67440     67444     67445
     67447     67446     67450     67451     67448     67446     67450     67451
     67449     67446     67450     67451     67453     67452     67456     67457
     67454     67452     67456     67457     67455     67452     67456     67457
     67459     67458     67462     67463     67460     67458     67462     67463
     67461     67458     67462     67463     67465     67464     67468     67469
     67466     67464     67468     67469     67467     67464     67468     67469
     67471     67470     67474     67475     67472     67470     67474     67475
     67473     67470     67474     67475     67477     67476     67480     67481
     67478     67476     67480     67481     67479     67476     67480     67481
     67483     67482     67486     67487     67484     67482     67486     67487
     67485     67482     67486     67487     67489     67488     67492     67493
     67490     67488     67492     67493     67491     67488     67492     67493
     67495     67494     67498     67499     67496     67494     67498     67499
     67497     67494     67498     67499     67501     67500     67504     67505
     67502     67500     67504     67505     67503     67500     67504     67505
     67507     67506     67510     67511     67508     67506     67510     67511
     67509     67506     67510     67511     67513     67512     67516     67517
     67514     67512     67516     67517     67515     67512     67516     67517
     67519     67518     67522     67523     67520     67518     67522     67523
     67521     67518     67522     67523     67525     67524     67528     67529
     67526     67524     67528     67529     67527     67524     67528     67529
     67531     67530     67534     67535     67532     67530     67534     67535
     67533     67530     67534     67535     67537     67536     67540     67541
     67538     67536     67540     67541     67539     67536     67540     67541
     67543     67542     67546     67547     67544     67542     67546     67547
     67545     67542     67546     67547     67549     67548     67552     67553
     67550     67548     67552     67553     67551     67548     67552     67553
     67555     67554     67558     67559     67556     67554     67558     67559
     67557     67554     67558     67559     67561     67560     67564     67565
     67562     67560     67564     67565     67563     67560     67564     67565
     67567     67566     67570     67571     67568     67566     67570     67571
     67569     67566     67570     67571     67573     67572     67576     67577
     67574     67572     67576     67577     67575     67572     67576     67577
     67579     67578     67582     67583     67580     67578     67582     67583
     67581     67578     67582     67583     67585     67584     67588     67589
     67586     67584     67588     67589     67587     67584     67588     67589
     67591     67590     67594     67595     67592     67590     67594     67595
     67593     67590     67594     67595     67597     67596     67600     67601
     67598     67596     67600     67601     67599     67596     67600     67601
     67603     67602     67606     67607     67604     67602     67606     67607
     67605     67602     67606     67607     67609     67608     67612     67613
     67610     67608     67612     67613     67611     67608     67612     67613
     67615     67614     67618     67619     67616     67614     67618     67619
     67617     67614     67618     67619     67621     67620     67624     67625
     67622     67620     67624     67625     67623     67620     67624     67625
     67627     67626     67630     67631     67628     67626     67630     67631
     67629     67626     67630     67631     67633     67632     67636     67637
     67634     67632     67636     67637     67635     67632     67636     67637
     67639     67638     67642     67643     67640     67638     67642     67643
     67641     67638     67642     67643     67645     67644     67648     67649
     67646     67644     67648     67649     67647     67644     67648     67649
     67651     67650     67654     67655     67652     67650     67654     67655
     67653     67650     67654     67655     67657     67656     67660     67661
     67658     67656     67660     67661     67659     67656     67660     67661
     67663     67662     67666     67667     67664     67662     67666     67667
     67665     67662     67666     67667     67669     67668     67672     67673
     67670     67668     67672     67673     67671     67668     67672     67673
     67675     67674     67678     67679     67676     67674     67678     67679
     67677     67674     67678     67679     67681     67680     67684     67685
     67682     67680     67684     67685     67683     67680     67684     67685
     67687     67686     67690     67691     67688     67686     67690     67691
     67689     67686     67690     67691     67693     67692     67696     67697
     67694     67692     67696     67697     67695     67692     67696     67697
     67699     67698     67702     67703     67700     67698     67702     67703
     67701     67698     67702     67703     67705     67704     67708     67709
     67706     67704     67708     67709     67707     67704     67708     67709
     67711     67710     67714     67715     67712     67710     67714     67715
     67713     67710     67714     67715     67717     67716     67720     67721
     67718     67716     67720     67721     67719     67716     67720     67721
     67723     67722     67726     67727     67724     67722     67726     67727
     67725     67722     67726     67727     67729     67728     67732     67733
     67730     67728     67732     67733     67731     67728     67732     67733
     67735     67734     67738     67739     67736     67734     67738     67739
     67737     67734     67738     67739     67741     67740     67744     67745
     67742     67740     67744     67745     67743     67740     67744     67745
     67747     67746     67750     67751     67748     67746     67750     67751
     67749     67746     67750     67751     67753     67752     67756     67757
     67754     67752     67756     67757     67755     67752     67756     67757
     67759     67758     67762     67763     67760     67758     67762     67763
     67761     67758     67762     67763     67765     67764     67768     67769
     67766     67764     67768     67769     67767     67764     67768     67769
     67771     67770     67774     67775     67772     67770     67774     67775
     67773     67770     67774     67775     67777     67776     67780     67781
     67778     67776     67780     67781     67779     67776     67780     67781
     67783     67782     67786     67787     67784     67782     67786     67787
     67785     67782     67786     67787     67789     67788     67792     67793
     67790     67788     67792     67793     67791     67788     67792     67793
     67795     67794     67798     67799     67796     67794     67798     67799
     67797     67794     67798     67799     67801     67800     67804     67805
     67802     67800     67804     67805     67803     67800     67804     67805
     67807     67806     67810     67811     67808     67806     67810     67811
     67809     67806     67810     67811     67813     67812     67816     67817
     67814     67812     67816     67817     67815     67812     67816     67817
     67819     67818     67822     67823     67820     67818     67822     67823
     67821     67818     67822     67823     67825     67824     67828     67829
     67826     67824     67828     67829     67827     67824     67828     67829
     67831     67830     67834     67835     67832     67830     67834     67835
     67833     67830     67834     67835     67837     67836     67840     67841
     67838     67836     67840     67841     67839     67836     67840     67841
     67843     67842     67846     67847     67844     67842     67846     67847
     67845     67842     67846     67847     67849     67848     67852     67853
     67850     67848     67852     67853     67851     67848     67852     67853
     67855     67854     67858     67859     67856     67854     67858     67859
     67857     67854     67858     67859     67861     67860     67864     67865
     67862     67860     67864     67865     67863     67860     67864     67865
     67867     67866     67870     67871     67868     67866     67870     67871
     67869     67866     67870     67871     67873     67872     67876     67877
     67874     67872     67876     67877     67875     67872     67876     67877
     67879     67878     67882     67883     67880     67878     67882     67883
     67881     67878     67882     67883     67885     67884     67888     67889
     67886     67884     67888     67889     67887     67884     67888     67889
     67891     67890     67894     67895     67892     67890     67894     67895
     67893     67890     67894     67895     67897     67896     67900     67901
     67898     67896     67900     67901     67899     67896     67900     67901
     67903     67902     67906     67907     67904     67902     67906     67907
     67905     67902     67906     67907     67909     67908     67912     67913
     67910     67908     67912     67913     67911     67908     67912     67913
     67915     67914     67918     67919     67916     67914     67918     67919
     67917     67914     67918     67919     67921     67920     67924     67925
     67922     67920     67924     67925     67923     67920     67924     67925
     67927     67926     67930     67931     67928     67926     67930     67931
     67929     67926     67930     67931     67933     67932     67936     67937
     67934     67932     67936     67937     67935     67932     67936     67937
     67939     67938     67942     67943     67940     67938     67942     67943
     67941     67938     67942     67943     67945     67944     67948     67949
     67946     67944     67948     67949     67947     67944     67948     67949
     67951     67950     67954     67955     67952     67950     67954     67955
     67953     67950     67954     67955     67957     67956     67960     67961
     67958     67956     67960     67961     67959     67956     67960     67961
     67963     67962     67966     67967     67964     67962     67966     67967
     67965     67962     67966     67967     67969     67968     67972     67973
     67970     67968     67972     67973     67971     67968     67972     67973
     67975     67974     67978     67979     67976     67974     67978     67979
     67977     67974     67978     67979     67981     67980     67984     67985
     67982     67980     67984     67985     67983     67980     67984     67985
     67987     67986     67990     67991     67988     67986     67990     67991
     67989     67986     67990     67991     67993     67992     67996     67997
     67994     67992     67996     67997     67995     67992     67996     67997
     67999     67998     68002     68003     68000     67998     68002     68003
     68001     67998     68002     68003     68005     68004     68008     68009
     68006     68004     68008     68009     68007     68004     68008     68009
     68011     68010     68014     68015     68012     68010     68014     68015
     68013     68010     68014     68015     68017     68016     68020     68021
     68018     68016     68020     68021     68019     68016     68020     68021
     68023     68022     68026     68027     68024     68022     68026     68027
     68025     68022     68026     68027     68029     68028     68032     68033
     68030     68028     68032     68033     68031     68028     68032     68033
     68035     68034     68038     68039     68036     68034     68038     68039
     68037     68034     68038     68039     68041     68040     68044     68045
     68042     68040     68044     68045     68043     68040     68044     68045
     68047     68046     68050     68051     68048     68046     68050     68051
     68049     68046     68050     68051     68053     68052     68056     68057
     68054     68052     68056     68057     68055     68052     68056     68057
     68059     68058     68062     68063     68060     68058     68062     68063
     68061     68058     68062     68063     68065     68064     68068     68069
     68066     68064     68068     68069     68067     68064     68068     68069
     68071     68070     68074     68075     68072     68070     68074     68075
     68073     68070     68074     68075     68077     68076     68080     68081
     68078     68076     68080     68081     68079     68076     68080     68081
     68083     68082     68086     68087     68084     68082     68086     68087
     68085     68082     68086     68087     68089     68088     68092     68093
     68090     68088     68092     68093     68091     68088     68092     68093
     68095     68094     68098     68099     68096     68094     68098     68099
     68097     68094     68098     68099     68101     68100     68104     68105
     68102     68100     68104     68105     68103     68100     68104     68105
     68107     68106     68110     68111     68108     68106     68110     68111
     68109     68106     68110     68111     68113     68112     68116     68117
     68114     68112     68116     68117     68115     68112     68116     68117
     68119     68118     68122     68123     68120     68118     68122     68123
     68121     68118     68122     68123     68125     68124     68128     68129
     68126     68124     68128     68129     68127     68124     68128     68129
     68131     68130     68134     68135     68132     68130     68134     68135
     68133     68130     68134     68135     68137     68136     68140     68141
     68138     68136     68140     68141     68139     68136     68140     68141
     68143     68142     68146     68147     68144     68142     68146     68147
     68145     68142     68146     68147     68149     68148     68152     68153
     68150     68148     68152     68153     68151     68148     68152     68153
     68155     68154     68158     68159     68156     68154     68158     68159
     68157     68154     68158     68159     68161     68160     68164     68165
     68162     68160     68164     68165     68163     68160     68164     68165
     68167     68166     68170     68171     68168     68166     68170     68171
     68169     68166     68170     68171     68173     68172     68176     68177
     68174     68172     68176     68177     68175     68172     68176     68177
     68179     68178     68182     68183     68180     68178     68182     68183
     68181     68178     68182     68183     68185     68184     68188     68189
     68186     68184     68188     68189     68187     68184     68188     68189
     68191     68190     68194     68195     68192     68190     68194     68195
     68193     68190     68194     68195     68197     68196     68200     68201
     68198     68196     68200     68201     68199     68196     68200     68201
     68203     68202     68206     68207     68204     68202     68206     68207
     68205     68202     68206     68207     68209     68208     68212     68213
     68210     68208     68212     68213     68211     68208     68212     68213
     68215     68214     68218     68219     68216     68214     68218     68219
     68217     68214     68218     68219     68221     68220     68224     68225
     68222     68220     68224     68225     68223     68220     68224     68225
     68227     68226     68230     68231     68228     68226     68230     68231
     68229     68226     68230     68231     68233     68232     68236     68237
     68234     68232     68236     68237     68235     68232     68236     68237
     68239     68238     68242     68243     68240     68238     68242     68243
     68241     68238     68242     68243     68245     68244     68248     68249
     68246     68244     68248     68249     68247     68244     68248     68249
     68251     68250     68254     68255     68252     68250     68254     68255
     68253     68250     68254     68255     68257     68256     68260     68261
     68258     68256     68260     68261     68259     68256     68260     68261
     68263     68262     68266     68267     68264     68262     68266     68267
     68265     68262     68266     68267     68269     68268     68272     68273
     68270     68268     68272     68273     68271     68268     68272     68273
     68275     68274     68278     68279     68276     68274     68278     68279
     68277     68274     68278     68279     68281     68280     68284     68285
     68282     68280     68284     68285     68283     68280     68284     68285
     68287     68286     68290     68291     68288     68286     68290     68291
     68289     68286     68290     68291     68293     68292     68296     68297
     68294     68292     68296     68297     68295     68292     68296     68297
     68299     68298     68302     68303     68300     68298     68302     68303
     68301     68298     68302     68303     68305     68304     68308     68309
     68306     68304     68308     68309     68307     68304     68308     68309
     68311     68310     68314     68315     68312     68310     68314     68315
     68313     68310     68314     68315     68317     68316     68320     68321
     68318     68316     68320     68321     68319     68316     68320     68321
     68323     68322     68326     68327     68324     68322     68326     68327
     68325     68322     68326     68327     68329     68328     68332     68333
     68330     68328     68332     68333     68331     68328     68332     68333
     68335     68334     68338     68339     68336     68334     68338     68339
     68337     68334     68338     68339     68341     68340     68344     68345
     68342     68340     68344     68345     68343     68340     68344     68345
     68347     68346     68350     68351     68348     68346     68350     68351
     68349     68346     68350     68351     68353     68352     68356     68357
     68354     68352     68356     68357     68355     68352     68356     68357
     68359     68358     68362     68363     68360     68358     68362     68363
     68361     68358     68362     68363     68365     68364     68368     68369
     68366     68364     68368     68369     68367     68364     68368     68369
     68371     68370     68374     68375     68372     68370     68374     68375
     68373     68370     68374     68375     68377     68376     68380     68381
     68378     68376     68380     68381     68379     68376     68380     68381
     68383     68382     68386     68387     68384     68382     68386     68387
     68385     68382     68386     68387     68389     68388     68392     68393
     68390     68388     68392     68393     68391     68388     68392     68393
     68395     68394     68398     68399     68396     68394     68398     68399
     68397     68394     68398     68399     68401     68400     68404     68405
     68402     68400     68404     68405     68403     68400     68404     68405
     68407     68406     68410     68411     68408     68406     68410     68411
     68409     68406     68410     68411     68413     68412     68416     68417
     68414     68412     68416     68417     68415     68412     68416     68417
     68419     68418     68422     68423     68420     68418     68422     68423
     68421     68418     68422     68423     68425     68424     68428     68429
     68426     68424     68428     68429     68427     68424     68428     68429
     68431     68430     68434     68435     68432     68430     68434     68435
     68433     68430     68434     68435     68437     68436     68440     68441
     68438     68436     68440     68441     68439     68436     68440     68441
     68443     68442     68446     68447     68444     68442     68446     68447
     68445     68442     68446     68447     68449     68448     68452     68453
     68450     68448     68452     68453     68451     68448     68452     68453
     68455     68454     68458     68459     68456     68454     68458     68459
     68457     68454     68458     68459     68461     68460     68464     68465
     68462     68460     68464     68465     68463     68460     68464     68465
     68467     68466     68470     68471     68468     68466     68470     68471
     68469     68466     68470     68471     68473     68472     68476     68477
     68474     68472     68476     68477     68475     68472     68476     68477
     68479     68478     68482     68483     68480     68478     68482     68483
     68481     68478     68482     68483     68485     68484     68488     68489
     68486     68484     68488     68489     68487     68484     68488     68489
     68491     68490     68494     68495     68492     68490     68494     68495
     68493     68490     68494     68495     68497     68496     68500     68501
     68498     68496     68500     68501     68499     68496     68500     68501
     68503     68502     68506     68507     68504     68502     68506     68507
     68505     68502     68506     68507     68509     68508     68512     68513
     68510     68508     68512     68513     68511     68508     68512     68513
     68515     68514     68518     68519     68516     68514     68518     68519
     68517     68514     68518     68519     68521     68520     68524     68525
     68522     68520     68524     68525     68523     68520     68524     68525
     68527     68526     68530     68531     68528     68526     68530     68531
     68529     68526     68530     68531     68533     68532     68536     68537
     68534     68532     68536     68537     68535     68532     68536     68537
     68539     68538     68542     68543     68540     68538     68542     68543
     68541     68538     68542     68543     68545     68544     68548     68549
     68546     68544     68548     68549     68547     68544     68548     68549
     68551     68550     68554     68555     68552     68550     68554     68555
     68553     68550     68554     68555     68557     68556     68560     68561
     68558     68556     68560     68561     68559     68556     68560     68561
     68563     68562     68566     68567     68564     68562     68566     68567
     68565     68562     68566     68567     68569     68568     68572     68573
     68570     68568     68572     68573     68571     68568     68572     68573
     68575     68574     68578     68579     68576     68574     68578     68579
     68577     68574     68578     68579     68581     68580     68584     68585
     68582     68580     68584     68585     68583     68580     68584     68585
     68587     68586     68590     68591     68588     68586     68590     68591
     68589     68586     68590     68591     68593     68592     68596     68597
     68594     68592     68596     68597     68595     68592     68596     68597
     68599     68598     68602     68603     68600     68598     68602     68603
     68601     68598     68602     68603     68605     68604     68608     68609
     68606     68604     68608     68609     68607     68604     68608     68609
     68611     68610     68614     68615     68612     68610     68614     68615
     68613     68610     68614     68615     68617     68616     68620     68621
     68618     68616     68620     68621     68619     68616     68620     68621
     68623     68622     68626     68627     68624     68622     68626     68627
     68625     68622     68626     68627     68629     68628     68632     68633
     68630     68628     68632     68633     68631     68628     68632     68633
     68635     68634     68638     68639     68636     68634     68638     68639
     68637     68634     68638     68639     68641     68640     68644     68645
     68642     68640     68644     68645     68643     68640     68644     68645
     68647     68646     68650     68651     68648     68646     68650     68651
     68649     68646     68650     68651     68653     68652     68656     68657
     68654     68652     68656     68657     68655     68652     68656     68657
     68659     68658     68662     68663     68660     68658     68662     68663
     68661     68658     68662     68663     68665     68664     68668     68669
     68666     68664     68668     68669     68667     68664     68668     68669
     68671     68670     68674     68675     68672     68670     68674     68675
     68673     68670     68674     68675     68677     68676     68680     68681
     68678     68676     68680     68681     68679     68676     68680     68681
     68683     68682     68686     68687     68684     68682     68686     68687
     68685     68682     68686     68687     68689     68688     68692     68693
     68690     68688     68692     68693     68691     68688     68692     68693
     68695     68694     68698     68699     68696     68694     68698     68699
     68697     68694     68698     68699     68701     68700     68704     68705
     68702     68700     68704     68705     68703     68700     68704     68705
     68707     68706     68710     68711     68708     68706     68710     68711
     68709     68706     68710     68711     68713     68712     68716     68717
     68714     68712     68716     68717     68715     68712     68716     68717
     68719     68718     68722     68723     68720     68718     68722     68723
     68721     68718     68722     68723     68725     68724     68728     68729
     68726     68724     68728     68729     68727     68724     68728     68729
     68731     68730     68734     68735     68732     68730     68734     68735
     68733     68730     68734     68735     68737     68736     68740     68741
     68738     68736     68740     68741     68739     68736     68740     68741
     68743     68742     68746     68747     68744     68742     68746     68747
     68745     68742     68746     68747     68749     68748     68752     68753
     68750     68748     68752     68753     68751     68748     68752     68753
     68755     68754     68758     68759     68756     68754     68758     68759
     68757     68754     68758     68759     68761     68760     68764     68765
     68762     68760     68764     68765     68763     68760     68764     68765
     68767     68766     68770     68771     68768     68766     68770     68771
     68769     68766     68770     68771     68773     68772     68776     68777
     68774     68772     68776     68777     68775     68772     68776     68777
     68779     68778     68782     68783     68780     68778     68782     68783
     68781     68778     68782     68783     68785     68784     68788     68789
     68786     68784     68788     68789     68787     68784     68788     68789
     68791     68790     68794     68795     68792     68790     68794     68795
     68793     68790     68794     68795     68797     68796     68800     68801
     68798     68796     68800     68801     68799     68796     68800     68801
     68803     68802     68806     68807     68804     68802     68806     68807
     68805     68802     68806     68807     68809     68808     68812     68813
     68810     68808     68812     68813     68811     68808     68812     68813
     68815     68814     68818     68819     68816     68814     68818     68819
     68817     68814     68818     68819     68821     68820     68824     68825
     68822     68820     68824     68825     68823     68820     68824     68825
     68827     68826     68830     68831     68828     68826     68830     68831
     68829     68826     68830     68831     68833     68832     68836     68837
     68834     68832     68836     68837     68835     68832     68836     68837
     68839     68838     68842     68843     68840     68838     68842     68843
     68841     68838     68842     68843     68845     68844     68848     68849
     68846     68844     68848     68849     68847     68844     68848     68849
     68851     68850     68854     68855     68852     68850     68854     68855
     68853     68850     68854     68855     68857     68856     68860     68861
     68858     68856     68860     68861     68859     68856     68860     68861
     68863     68862     68866     68867     68864     68862     68866     68867
     68865     68862     68866     68867     68869     68868     68872     68873
     68870     68868     68872     68873     68871     68868     68872     68873
     68875     68874     68878     68879     68876     68874     68878     68879
     68877     68874     68878     68879     68881     68880     68884     68885
     68882     68880     68884     68885     68883     68880     68884     68885
     68887     68886     68890     68891     68888     68886     68890     68891
     68889     68886     68890     68891     68893     68892     68896     68897
     68894     68892     68896     68897     68895     68892     68896     68897
     68899     68898     68902     68903     68900     68898     68902     68903
     68901     68898     68902     68903     68905     68904     68908     68909
     68906     68904     68908     68909     68907     68904     68908     68909
     68911     68910     68914     68915     68912     68910     68914     68915
     68913     68910     68914     68915     68917     68916     68920     68921
     68918     68916     68920     68921     68919     68916     68920     68921
     68923     68922     68926     68927     68924     68922     68926     68927
     68925     68922     68926     68927     68929     68928     68932     68933
     68930     68928     68932     68933     68931     68928     68932     68933
     68935     68934     68938     68939     68936     68934     68938     68939
     68937     68934     68938     68939     68941     68940     68944     68945
     68942     68940     68944     68945     68943     68940     68944     68945
     68947     68946     68950     68951     68948     68946     68950     68951
     68949     68946     68950     68951     68953     68952     68956     68957
     68954     68952     68956     68957     68955     68952     68956     68957
     68959     68958     68962     68963     68960     68958     68962     68963
     68961     68958     68962     68963     68965     68964     68968     68969
     68966     68964     68968     68969     68967     68964     68968     68969
     68971     68970     68974     68975     68972     68970     68974     68975
     68973     68970     68974     68975     68977     68976     68980     68981
     68978     68976     68980     68981     68979     68976     68980     68981
     68983     68982     68986     68987     68984     68982     68986     68987
     68985     68982     68986     68987     68989     68988     68992     68993
     68990     68988     68992     68993     68991     68988     68992     68993
     68995     68994     68998     68999     68996     68994     68998     68999
     68997     68994     68998     68999     69001     69000     69004     69005
     69002     69000     69004     69005     69003     69000     69004     69005
     69007     69006     69010     69011     69008     69006     69010     69011
     69009     69006     69010     69011     69013     69012     69016     69017
     69014     69012     69016     69017     69015     69012     69016     69017
     69019     69018     69022     69023     69020     69018     69022     69023
     69021     69018     69022     69023     69025     69024     69028     69029
     69026     69024     69028     69029     69027     69024     69028     69029
     69031     69030     69034     69035     69032     69030     69034     69035
     69033     69030     69034     69035     69037     69036     69040     69041
     69038     69036     69040     69041     69039     69036     69040     69041
     69043     69042     69046     69047     69044     69042     69046     69047
     69045     69042     69046     69047     69049     69048     69052     69053
     69050     69048     69052     69053     69051     69048     69052     69053
     69055     69054     69058     69059     69056     69054     69058     69059
     69057     69054     69058     69059     69061     69060     69064     69065
     69062     69060     69064     69065     69063     69060     69064     69065
     69067     69066     69070     69071     69068     69066     69070     69071
     69069     69066     69070     69071     69073     69072     69076     69077
     69074     69072     69076     69077     69075     69072     69076     69077
     69079     69078     69082     69083     69080     69078     69082     69083
     69081     69078     69082     69083     69085     69084     69088     69089
     69086     69084     69088     69089     69087     69084     69088     69089
     69091     69090     69094     69095     69092     69090     69094     69095
     69093     69090     69094     69095     69097     69096     69100     69101
     69098     69096     69100     69101     69099     69096     69100     69101
     69103     69102     69106     69107     69104     69102     69106     69107
     69105     69102     69106     69107     69109     69108     69112     69113
     69110     69108     69112     69113     69111     69108     69112     69113
     69115     69114     69118     69119     69116     69114     69118     69119
     69117     69114     69118     69119     69121     69120     69124     69125
     69122     69120     69124     69125     69123     69120     69124     69125
     69127     69126     69130     69131     69128     69126     69130     69131
     69129     69126     69130     69131     69133     69132     69136     69137
     69134     69132     69136     69137     69135     69132     69136     69137
     69139     69138     69142     69143     69140     69138     69142     69143
     69141     69138     69142     69143     69145     69144     69148     69149
     69146     69144     69148     69149     69147     69144     69148     69149
     69151     69150     69154     69155     69152     69150     69154     69155
     69153     69150     69154     69155     69157     69156     69160     69161
     69158     69156     69160     69161     69159     69156     69160     69161
     69163     69162     69166     69167     69164     69162     69166     69167
     69165     69162     69166     69167     69169     69168     69172     69173
     69170     69168     69172     69173     69171     69168     69172     69173
     69175     69174     69178     69179     69176     69174     69178     69179
     69177     69174     69178     69179     69181     69180     69184     69185
     69182     69180     69184     69185     69183     69180     69184     69185
     69187     69186     69190     69191     69188     69186     69190     69191
     69189     69186     69190     69191     69193     69192     69196     69197
     69194     69192     69196     69197     69195     69192     69196     69197
     69199     69198     69202     69203     69200     69198     69202     69203
     69201     69198     69202     69203     69205     69204     69208     69209
     69206     69204     69208     69209     69207     69204     69208     69209
     69211     69210     69214     69215     69212     69210     69214     69215
     69213     69210     69214     69215     69217     69216     69220     69221
     69218     69216     69220     69221     69219     69216     69220     69221
     69223     69222     69226     69227     69224     69222     69226     69227
     69225     69222     69226     69227     69229     69228     69232     69233
     69230     69228     69232     69233     69231     69228     69232     69233
     69235     69234     69238     69239     69236     69234     69238     69239
     69237     69234     69238     69239     69241     69240     69244     69245
     69242     69240     69244     69245     69243     69240     69244     69245
     69247     69246     69250     69251     69248     69246     69250     69251
     69249     69246     69250     69251     69253     69252     69256     69257
     69254     69252     69256     69257     69255     69252     69256     69257
     69259     69258     69262     69263     69260     69258     69262     69263
     69261     69258     69262     69263     69265     69264     69268     69269
     69266     69264     69268     69269     69267     69264     69268     69269
     69271     69270     69274     69275     69272     69270     69274     69275
     69273     69270     69274     69275     69277     69276     69280     69281
     69278     69276     69280     69281     69279     69276     69280     69281
     69283     69282     69286     69287     69284     69282     69286     69287
     69285     69282     69286     69287     69289     69288     69292     69293
     69290     69288     69292     69293     69291     69288     69292     69293
     69295     69294     69298     69299     69296     69294     69298     69299
     69297     69294     69298     69299     69301     69300     69304     69305
     69302     69300     69304     69305     69303     69300     69304     69305
     69307     69306     69310     69311     69308     69306     69310     69311
     69309     69306     69310     69311     69313     69312     69316     69317
     69314     69312     69316     69317     69315     69312     69316     69317
     69319     69318     69322     69323     69320     69318     69322     69323
     69321     69318     69322     69323     69325     69324     69328     69329
     69326     69324     69328     69329     69327     69324     69328     69329
     69331     69330     69334     69335     69332     69330     69334     69335
     69333     69330     69334     69335     69337     69336     69340     69341
     69338     69336     69340     69341     69339     69336     69340     69341
     69343     69342     69346     69347     69344     69342     69346     69347
     69345     69342     69346     69347     69349     69348     69352     69353
     69350     69348     69352     69353     69351     69348     69352     69353
     69355     69354     69358     69359     69356     69354     69358     69359
     69357     69354     69358     69359     69361     69360     69364     69365
     69362     69360     69364     69365     69363     69360     69364     69365
     69367     69366     69370     69371     69368     69366     69370     69371
     69369     69366     69370     69371     69373     69372     69376     69377
     69374     69372     69376     69377     69375     69372     69376     69377
     69379     69378     69382     69383     69380     69378     69382     69383
     69381     69378     69382     69383     69385     69384     69388     69389
     69386     69384     69388     69389     69387     69384     69388     69389
     69391     69390     69394     69395     69392     69390     69394     69395
     69393     69390     69394     69395     69397     69396     69400     69401
     69398     69396     69400     69401     69399     69396     69400     69401
     69403     69402     69406     69407     69404     69402     69406     69407
     69405     69402     69406     69407     69409     69408     69412     69413
     69410     69408     69412     69413     69411     69408     69412     69413
     69415     69414     69418     69419     69416     69414     69418     69419
     69417     69414     69418     69419     69421     69420     69424     69425
     69422     69420     69424     69425     69423     69420     69424     69425
     69427     69426     69430     69431     69428     69426     69430     69431
     69429     69426     69430     69431     69433     69432     69436     69437
     69434     69432     69436     69437     69435     69432     69436     69437
     69439     69438     69442     69443     69440     69438     69442     69443
     69441     69438     69442     69443     69445     69444     69448     69449
     69446     69444     69448     69449     69447     69444     69448     69449
     69451     69450     69454     69455     69452     69450     69454     69455
     69453     69450     69454     69455     69457     69456     69460     69461
     69458     69456     69460     69461     69459     69456     69460     69461
     69463     69462     69466     69467     69464     69462     69466     69467
     69465     69462     69466     69467     69469     69468     69472     69473
     69470     69468     69472     69473     69471     69468     69472     69473
     69475     69474     69478     69479     69476     69474     69478     69479
     69477     69474     69478     69479     69481     69480     69484     69485
     69482     69480     69484     69485     69483     69480     69484     69485
     69487     69486     69490     69491     69488     69486     69490     69491
     69489     69486     69490     69491     69493     69492     69496     69497
     69494     69492     69496     69497     69495     69492     69496     69497
     69499     69498     69502     69503     69500     69498     69502     69503
     69501     69498     69502     69503     69505     69504     69508     69509
     69506     69504     69508     69509     69507     69504     69508     69509
     69511     69510     69514     69515     69512     69510     69514     69515
     69513     69510     69514     69515     69517     69516     69520     69521
     69518     69516     69520     69521     69519     69516     69520     69521
     69523     69522     69526     69527     69524     69522     69526     69527
     69525     69522     69526     69527     69529     69528     69532     69533
     69530     69528     69532     69533     69531     69528     69532     69533
     69535     69534     69538     69539     69536     69534     69538     69539
     69537     69534     69538     69539     69541     69540     69544     69545
     69542     69540     69544     69545     69543     69540     69544     69545
     69547     69546     69550     69551     69548     69546     69550     69551
     69549     69546     69550     69551     69553     69552     69556     69557
     69554     69552     69556     69557     69555     69552     69556     69557
     69559     69558     69562     69563     69560     69558     69562     69563
     69561     69558     69562     69563     69565     69564     69568     69569
     69566     69564     69568     69569     69567     69564     69568     69569
     69571     69570     69574     69575     69572     69570     69574     69575
     69573     69570     69574     69575     69577     69576     69580     69581
     69578     69576     69580     69581     69579     69576     69580     69581
     69583     69582     69586     69587     69584     69582     69586     69587
     69585     69582     69586     69587     69589     69588     69592     69593
     69590     69588     69592     69593     69591     69588     69592     69593
     69595     69594     69598     69599     69596     69594     69598     69599
     69597     69594     69598     69599     69601     69600     69604     69605
     69602     69600     69604     69605     69603     69600     69604     69605
     69607     69606     69610     69611     69608     69606     69610     69611
     69609     69606     69610     69611     69613     69612     69616     69617
     69614     69612     69616     69617     69615     69612     69616     69617
     69619     69618     69622     69623     69620     69618     69622     69623
     69621     69618     69622     69623     69625     69624     69628     69629
     69626     69624     69628     69629     69627     69624     69628     69629
     69631     69630     69634     69635     69632     69630     69634     69635
     69633     69630     69634     69635     69637     69636     69640     69641
     69638     69636     69640     69641     69639     69636     69640     69641
     69643     69642     69646     69647     69644     69642     69646     69647
     69645     69642     69646     69647     69649     69648     69652     69653
     69650     69648     69652     69653     69651     69648     69652     69653
     69655     69654     69658     69659     69656     69654     69658     69659
     69657     69654     69658     69659     69661     69660     69664     69665
     69662     69660     69664     69665     69663     69660     69664     69665
     69667     69666     69670     69671     69668     69666     69670     69671
     69669     69666     69670     69671     69673     69672     69676     69677
     69674     69672     69676     69677     69675     69672     69676     69677
     69679     69678     69682     69683     69680     69678     69682     69683
     69681     69678     69682     69683     69685     69684     69688     69689
     69686     69684     69688     69689     69687     69684     69688     69689
     69691     69690     69694     69695     69692     69690     69694     69695
     69693     69690     69694     69695     69697     69696     69700     69701
     69698     69696     69700     69701     69699     69696     69700     69701
     69703     69702     69706     69707     69704     69702     69706     69707
     69705     69702     69706     69707     69709     69708     69712     69713
     69710     69708     69712     69713     69711     69708     69712     69713
     69715     69714     69718     69719     69716     69714     69718     69719
     69717     69714     69718     69719     69721     69720     69724     69725
     69722     69720     69724     69725     69723     69720     69724     69725
     69727     69726     69730     69731     69728     69726     69730     69731
     69729     69726     69730     69731     69733     69732     69736     69737
     69734     69732     69736     69737     69735     69732     69736     69737
     69739     69738     69742     69743     69740     69738     69742     69743
     69741     69738     69742     69743     69745     69744     69748     69749
     69746     69744     69748     69749     69747     69744     69748     69749
     69751     69750     69754     69755     69752     69750     69754     69755
     69753     69750     69754     69755     69757     69756     69760     69761
     69758     69756     69760     69761     69759     69756     69760     69761
     69763     69762     69766     69767     69764     69762     69766     69767
     69765     69762     69766     69767     69769     69768     69772     69773
     69770     69768     69772     69773     69771     69768     69772     69773
     69775     69774     69778     69779     69776     69774     69778     69779
     69777     69774     69778     69779     69781     69780     69784     69785
     69782     69780     69784     69785     69783     69780     69784     69785
     69787     69786     69790     69791     69788     69786     69790     69791
     69789     69786     69790     69791     69793     69792     69796     69797
     69794     69792     69796     69797     69795     69792     69796     69797
     69799     69798     69802     69803     69800     69798     69802     69803
     69801     69798     69802     69803     69805     69804     69808     69809
     69806     69804     69808     69809     69807     69804     69808     69809
     69811     69810     69814     69815     69812     69810     69814     69815
     69813     69810     69814     69815     69817     69816     69820     69821
     69818     69816     69820     69821     69819     69816     69820     69821
     69823     69822     69826     69827     69824     69822     69826     69827
     69825     69822     69826     69827     69829     69828     69832     69833
     69830     69828     69832     69833     69831     69828     69832     69833
     69835     69834     69838     69839     69836     69834     69838     69839
     69837     69834     69838     69839     69841     69840     69844     69845
     69842     69840     69844     69845     69843     69840     69844     69845
     69847     69846     69850     69851     69848     69846     69850     69851
     69849     69846     69850     69851     69853     69852     69856     69857
     69854     69852     69856     69857     69855     69852     69856     69857
     69859     69858     69862     69863     69860     69858     69862     69863
     69861     69858     69862     69863     69865     69864     69868     69869
     69866     69864     69868     69869     69867     69864     69868     69869
     69871     69870     69874     69875     69872     69870     69874     69875
     69873     69870     69874     69875     69877     69876     69880     69881
     69878     69876     69880     69881     69879     69876     69880     69881
     69883     69882     69886     69887     69884     69882     69886     69887
     69885     69882     69886     69887     69889     69888     69892     69893
     69890     69888     69892     69893     69891     69888     69892     69893
     69895     69894     69898     69899     69896     69894     69898     69899
     69897     69894     69898     69899     69901     69900     69904     69905
     69902     69900     69904     69905     69903     69900     69904     69905
     69907     69906     69910     69911     69908     69906     69910     69911
     69909     69906     69910     69911     69913     69912     69916     69917
     69914     69912     69916     69917     69915     69912     69916     69917
     69919     69918     69922     69923     69920     69918     69922     69923
     69921     69918     69922     69923     69925     69924     69928     69929
     69926     69924     69928     69929     69927     69924     69928     69929
     69931     69930     69934     69935     69932     69930     69934     69935
     69933     69930     69934     69935     69937     69936     69940     69941
     69938     69936     69940     69941     69939     69936     69940     69941
     69943     69942     69946     69947     69944     69942     69946     69947
     69945     69942     69946     69947     69949     69948     69952     69953
     69950     69948     69952     69953     69951     69948     69952     69953
     69955     69954     69958     69959     69956     69954     69958     69959
     69957     69954     69958     69959     69961     69960     69964     69965
     69962     69960     69964     69965     69963     69960     69964     69965
     69967     69966     69970     69971     69968     69966     69970     69971
     69969     69966     69970     69971     69973     69972     69976     69977
     69974     69972     69976     69977     69975     69972     69976     69977
     69979     69978     69982     69983     69980     69978     69982     69983
     69981     69978     69982     69983     69985     69984     69988     69989
     69986     69984     69988     69989     69987     69984     69988     69989
     69991     69990     69994     69995     69992     69990     69994     69995
     69993     69990     69994     69995     69997     69996     70000     70001
     69998     69996     70000     70001     69999     69996     70000     70001
     70003     70002     70006     70007     70004     70002     70006     70007
     70005     70002     70006     70007     70009     70008     70012     70013
     70010     70008     70012     70013     70011     70008     70012     70013
     70015     70014     70018     70019     70016     70014     70018     70019
     70017     70014     70018     70019     70021     70020     70024     70025
     70022     70020     70024     70025     70023     70020     70024     70025
     70027     70026     70030     70031     70028     70026     70030     70031
     70029     70026     70030     70031     70033     70032     70036     70037
     70034     70032     70036     70037     70035     70032     70036     70037
     70039     70038     70042     70043     70040     70038     70042     70043
     70041     70038     70042     70043     70045     70044     70048     70049
     70046     70044     70048     70049     70047     70044     70048     70049
     70051     70050     70054     70055     70052     70050     70054     70055
     70053     70050     70054     70055     70057     70056     70060     70061
     70058     70056     70060     70061     70059     70056     70060     70061
     70063     70062     70066     70067     70064     70062     70066     70067
     70065     70062     70066     70067     70069     70068     70072     70073
     70070     70068     70072     70073     70071     70068     70072     70073
     70075     70074     70078     70079     70076     70074     70078     70079
     70077     70074     70078     70079     70081     70080     70084     70085
     70082     70080     70084     70085     70083     70080     70084     70085
     70087     70086     70090     70091     70088     70086     70090     70091
     70089     70086     70090     70091     70093     70092     70096     70097
     70094     70092     70096     70097     70095     70092     70096     70097
     70099     70098     70102     70103     70100     70098     70102     70103
     70101     70098     70102     70103     70105     70104     70108     70109
     70106     70104     70108     70109     70107     70104     70108     70109
     70111     70110     70114     70115     70112     70110     70114     70115
     70113     70110     70114     70115     70117     70116     70120     70121
     70118     70116     70120     70121     70119     70116     70120     70121
     70123     70122     70126     70127     70124     70122     70126     70127
     70125     70122     70126     70127     70129     70128     70132     70133
     70130     70128     70132     70133     70131     70128     70132     70133
     70135     70134     70138     70139     70136     70134     70138     70139
     70137     70134     70138     70139     70141     70140     70144     70145
     70142     70140     70144     70145     70143     70140     70144     70145
     70147     70146     70150     70151     70148     70146     70150     70151
     70149     70146     70150     70151     70153     70152     70156     70157
     70154     70152     70156     70157     70155     70152     70156     70157
     70159     70158     70162     70163     70160     70158     70162     70163
     70161     70158     70162     70163     70165     70164     70168     70169
     70166     70164     70168     70169     70167     70164     70168     70169
     70171     70170     70174     70175     70172     70170     70174     70175
     70173     70170     70174     70175     70177     70176     70180     70181
     70178     70176     70180     70181     70179     70176     70180     70181
     70183     70182     70186     70187     70184     70182     70186     70187
     70185     70182     70186     70187     70189     70188     70192     70193
     70190     70188     70192     70193     70191     70188     70192     70193
     70195     70194     70198     70199     70196     70194     70198     70199
     70197     70194     70198     70199     70201     70200     70204     70205
     70202     70200     70204     70205     70203     70200     70204     70205
     70207     70206     70210     70211     70208     70206     70210     70211
     70209     70206     70210     70211     70213     70212     70216     70217
     70214     70212     70216     70217     70215     70212     70216     70217
     70219     70218     70222     70223     70220     70218     70222     70223
     70221     70218     70222     70223     70225     70224     70228     70229
     70226     70224     70228     70229     70227     70224     70228     70229
     70231     70230     70234     70235     70232     70230     70234     70235
     70233     70230     70234     70235     70237     70236     70240     70241
     70238     70236     70240     70241     70239     70236     70240     70241
     70243     70242     70246     70247     70244     70242     70246     70247
     70245     70242     70246     70247     70249     70248     70252     70253
     70250     70248     70252     70253     70251     70248     70252     70253
     70255     70254     70258     70259     70256     70254     70258     70259
     70257     70254     70258     70259     70261     70260     70264     70265
     70262     70260     70264     70265     70263     70260     70264     70265
     70267     70266     70270     70271     70268     70266     70270     70271
     70269     70266     70270     70271     70273     70272     70276     70277
     70274     70272     70276     70277     70275     70272     70276     70277
     70279     70278     70282     70283     70280     70278     70282     70283
     70281     70278     70282     70283     70285     70284     70288     70289
     70286     70284     70288     70289     70287     70284     70288     70289
     70291     70290     70294     70295     70292     70290     70294     70295
     70293     70290     70294     70295     70297     70296     70300     70301
     70298     70296     70300     70301     70299     70296     70300     70301
     70303     70302     70306     70307     70304     70302     70306     70307
     70305     70302     70306     70307     70309     70308     70312     70313
     70310     70308     70312     70313     70311     70308     70312     70313
     70315     70314     70318     70319     70316     70314     70318     70319
     70317     70314     70318     70319     70321     70320     70324     70325
     70322     70320     70324     70325     70323     70320     70324     70325
     70327     70326     70330     70331     70328     70326     70330     70331
     70329     70326     70330     70331     70333     70332     70336     70337
     70334     70332     70336     70337     70335     70332     70336     70337
     70339     70338     70342     70343     70340     70338     70342     70343
     70341     70338     70342     70343     70345     70344     70348     70349
     70346     70344     70348     70349     70347     70344     70348     70349
     70351     70350     70354     70355     70352     70350     70354     70355
     70353     70350     70354     70355     70357     70356     70360     70361
     70358     70356     70360     70361     70359     70356     70360     70361
     70363     70362     70366     70367     70364     70362     70366     70367
     70365     70362     70366     70367     70369     70368     70372     70373
     70370     70368     70372     70373     70371     70368     70372     70373
     70375     70374     70378     70379     70376     70374     70378     70379
     70377     70374     70378     70379     70381     70380     70384     70385
     70382     70380     70384     70385     70383     70380     70384     70385
     70387     70386     70390     70391     70388     70386     70390     70391
     70389     70386     70390     70391     70393     70392     70396     70397
     70394     70392     70396     70397     70395     70392     70396     70397
     70399     70398     70402     70403     70400     70398     70402     70403
     70401     70398     70402     70403     70405     70404     70408     70409
     70406     70404     70408     70409     70407     70404     70408     70409
     70411     70410     70414     70415     70412     70410     70414     70415
     70413     70410     70414     70415     70417     70416     70420     70421
     70418     70416     70420     70421     70419     70416     70420     70421
     70423     70422     70426     70427     70424     70422     70426     70427
     70425     70422     70426     70427     70429     70428     70432     70433
     70430     70428     70432     70433     70431     70428     70432     70433
     70435     70434     70438     70439     70436     70434     70438     70439
     70437     70434     70438     70439     70441     70440     70444     70445
     70442     70440     70444     70445     70443     70440     70444     70445
     70447     70446     70450     70451     70448     70446     70450     70451
     70449     70446     70450     70451     70453     70452     70456     70457
     70454     70452     70456     70457     70455     70452     70456     70457
     70459     70458     70462     70463     70460     70458     70462     70463
     70461     70458     70462     70463     70465     70464     70468     70469
     70466     70464     70468     70469     70467     70464     70468     70469
     70471     70470     70474     70475     70472     70470     70474     70475
     70473     70470     70474     70475     70477     70476     70480     70481
     70478     70476     70480     70481     70479     70476     70480     70481
     70483     70482     70486     70487     70484     70482     70486     70487
     70485     70482     70486     70487     70489     70488     70492     70493
     70490     70488     70492     70493     70491     70488     70492     70493
     70495     70494     70498     70499     70496     70494     70498     70499
     70497     70494     70498     70499     70501     70500     70504     70505
     70502     70500     70504     70505     70503     70500     70504     70505
     70507     70506     70510     70511     70508     70506     70510     70511
     70509     70506     70510     70511     70513     70512     70516     70517
     70514     70512     70516     70517     70515     70512     70516     70517
     70519     70518     70522     70523     70520     70518     70522     70523
     70521     70518     70522     70523     70525     70524     70528     70529
     70526     70524     70528     70529     70527     70524     70528     70529
     70531     70530     70534     70535     70532     70530     70534     70535
     70533     70530     70534     70535     70537     70536     70540     70541
     70538     70536     70540     70541     70539     70536     70540     70541
     70543     70542     70546     70547     70544     70542     70546     70547
     70545     70542     70546     70547     70549     70548     70552     70553
     70550     70548     70552     70553     70551     70548     70552     70553
     70555     70554     70558     70559     70556     70554     70558     70559
     70557     70554     70558     70559     70561     70560     70564     70565
     70562     70560     70564     70565     70563     70560     70564     70565
     70567     70566     70570     70571     70568     70566     70570     70571
     70569     70566     70570     70571     70573     70572     70576     70577
     70574     70572     70576     70577     70575     70572     70576     70577
     70579     70578     70582     70583     70580     70578     70582     70583
     70581     70578     70582     70583     70585     70584     70588     70589
     70586     70584     70588     70589     70587     70584     70588     70589
     70591     70590     70594     70595     70592     70590     70594     70595
     70593     70590     70594     70595     70597     70596     70600     70601
     70598     70596     70600     70601     70599     70596     70600     70601
     70603     70602     70606     70607     70604     70602     70606     70607
     70605     70602     70606     70607     70609     70608     70612     70613
     70610     70608     70612     70613     70611     70608     70612     70613
     70615     70614     70618     70619     70616     70614     70618     70619
     70617     70614     70618     70619     70621     70620     70624     70625
     70622     70620     70624     70625     70623     70620     70624     70625
     70627     70626     70630     70631     70628     70626     70630     70631
     70629     70626     70630     70631     70633     70632     70636     70637
     70634     70632     70636     70637     70635     70632     70636     70637
     70639     70638     70642     70643     70640     70638     70642     70643
     70641     70638     70642     70643     70645     70644     70648     70649
     70646     70644     70648     70649     70647     70644     70648     70649
     70651     70650     70654     70655     70652     70650     70654     70655
     70653     70650     70654     70655     70657     70656     70660     70661
     70658     70656     70660     70661     70659     70656     70660     70661
     70663     70662     70666     70667     70664     70662     70666     70667
     70665     70662     70666     70667     70669     70668     70672     70673
     70670     70668     70672     70673     70671     70668     70672     70673
     70675     70674     70678     70679     70676     70674     70678     70679
     70677     70674     70678     70679     70681     70680     70684     70685
     70682     70680     70684     70685     70683     70680     70684     70685
     70687     70686     70690     70691     70688     70686     70690     70691
     70689     70686     70690     70691     70693     70692     70696     70697
     70694     70692     70696     70697     70695     70692     70696     70697
     70699     70698     70702     70703     70700     70698     70702     70703
     70701     70698     70702     70703     70705     70704     70708     70709
     70706     70704     70708     70709     70707     70704     70708     70709
     70711     70710     70714     70715     70712     70710     70714     70715
     70713     70710     70714     70715     70717     70716     70720     70721
     70718     70716     70720     70721     70719     70716     70720     70721
     70723     70722     70726     70727     70724     70722     70726     70727
     70725     70722     70726     70727     70729     70728     70732     70733
     70730     70728     70732     70733     70731     70728     70732     70733
     70735     70734     70738     70739     70736     70734     70738     70739
     70737     70734     70738     70739     70741     70740     70744     70745
     70742     70740     70744     70745     70743     70740     70744     70745
     70747     70746     70750     70751     70748     70746     70750     70751
     70749     70746     70750     70751     70753     70752     70756     70757
     70754     70752     70756     70757     70755     70752     70756     70757
     70759     70758     70762     70763     70760     70758     70762     70763
     70761     70758     70762     70763     70765     70764     70768     70769
     70766     70764     70768     70769     70767     70764     70768     70769
     70771     70770     70774     70775     70772     70770     70774     70775
     70773     70770     70774     70775     70777     70776     70780     70781
     70778     70776     70780     70781     70779     70776     70780     70781
     70783     70782     70786     70787     70784     70782     70786     70787
     70785     70782     70786     70787     70789     70788     70792     70793
     70790     70788     70792     70793     70791     70788     70792     70793
     70795     70794     70798     70799     70796     70794     70798     70799
     70797     70794     70798     70799     70801     70800     70804     70805
     70802     70800     70804     70805     70803     70800     70804     70805
     70807     70806     70810     70811     70808     70806     70810     70811
     70809     70806     70810     70811     70813     70812     70816     70817
     70814     70812     70816     70817     70815     70812     70816     70817
     70819     70818     70822     70823     70820     70818     70822     70823
     70821     70818     70822     70823     70825     70824     70828     70829
     70826     70824     70828     70829     70827     70824     70828     70829
     70831     70830     70834     70835     70832     70830     70834     70835
     70833     70830     70834     70835     70837     70836     70840     70841
     70838     70836     70840     70841     70839     70836     70840     70841
     70843     70842     70846     70847     70844     70842     70846     70847
     70845     70842     70846     70847     70849     70848     70852     70853
     70850     70848     70852     70853     70851     70848     70852     70853
     70855     70854     70858     70859     70856     70854     70858     70859
     70857     70854     70858     70859     70861     70860     70864     70865
     70862     70860     70864     70865     70863     70860     70864     70865
     70867     70866     70870     70871     70868     70866     70870     70871
     70869     70866     70870     70871     70873     70872     70876     70877
     70874     70872     70876     70877     70875     70872     70876     70877
     70879     70878     70882     70883     70880     70878     70882     70883
     70881     70878     70882     70883     70885     70884     70888     70889
     70886     70884     70888     70889     70887     70884     70888     70889
     70891     70890     70894     70895     70892     70890     70894     70895
     70893     70890     70894     70895     70897     70896     70900     70901
     70898     70896     70900     70901     70899     70896     70900     70901
     70903     70902     70906     70907     70904     70902     70906     70907
     70905     70902     70906     70907     70909     70908     70912     70913
     70910     70908     70912     70913     70911     70908     70912     70913
     70915     70914     70918     70919     70916     70914     70918     70919
     70917     70914     70918     70919     70921     70920     70924     70925
     70922     70920     70924     70925     70923     70920     70924     70925
     70927     70926     70930     70931     70928     70926     70930     70931
     70929     70926     70930     70931     70933     70932     70936     70937
     70934     70932     70936     70937     70935     70932     70936     70937
     70939     70938     70942     70943     70940     70938     70942     70943
     70941     70938     70942     70943     70945     70944     70948     70949
     70946     70944     70948     70949     70947     70944     70948     70949
     70951     70950     70954     70955     70952     70950     70954     70955
     70953     70950     70954     70955     70957     70956     70960     70961
     70958     70956     70960     70961     70959     70956     70960     70961
     70963     70962     70966     70967     70964     70962     70966     70967
     70965     70962     70966     70967     70969     70968     70972     70973
     70970     70968     70972     70973     70971     70968     70972     70973
     70975     70974     70978     70979     70976     70974     70978     70979
     70977     70974     70978     70979     70981     70980     70984     70985
     70982     70980     70984     70985     70983     70980     70984     70985
     70987     70986     70990     70991     70988     70986     70990     70991
     70989     70986     70990     70991     70993     70992     70996     70997
     70994     70992     70996     70997     70995     70992     70996     70997
     70999     70998     71002     71003     71000     70998     71002     71003
     71001     70998     71002     71003     71005     71004     71008     71009
     71006     71004     71008     71009     71007     71004     71008     71009
     71011     71010     71014     71015     71012     71010     71014     71015
     71013     71010     71014     71015     71017     71016     71020     71021
     71018     71016     71020     71021     71019     71016     71020     71021
     71023     71022     71026     71027     71024     71022     71026     71027
     71025     71022     71026     71027     71029     71028     71032     71033
     71030     71028     71032     71033     71031     71028     71032     71033
     71035     71034     71038     71039     71036     71034     71038     71039
     71037     71034     71038     71039     71041     71040     71044     71045
     71042     71040     71044     71045     71043     71040     71044     71045
     71047     71046     71050     71051     71048     71046     71050     71051
     71049     71046     71050     71051     71053     71052     71056     71057
     71054     71052     71056     71057     71055     71052     71056     71057
     71059     71058     71062     71063     71060     71058     71062     71063
     71061     71058     71062     71063     71065     71064     71068     71069
     71066     71064     71068     71069     71067     71064     71068     71069
     71071     71070     71074     71075     71072     71070     71074     71075
     71073     71070     71074     71075     71077     71076     71080     71081
     71078     71076     71080     71081     71079     71076     71080     71081
     71083     71082     71086     71087     71084     71082     71086     71087
     71085     71082     71086     71087     71089     71088     71092     71093
     71090     71088     71092     71093     71091     71088     71092     71093
     71095     71094     71098     71099     71096     71094     71098     71099
     71097     71094     71098     71099     71101     71100     71104     71105
     71102     71100     71104     71105     71103     71100     71104     71105
     71107     71106     71110     71111     71108     71106     71110     71111
     71109     71106     71110     71111     71113     71112     71116     71117
     71114     71112     71116     71117     71115     71112     71116     71117
     71119     71118     71122     71123     71120     71118     71122     71123
     71121     71118     71122     71123     71125     71124     71128     71129
     71126     71124     71128     71129     71127     71124     71128     71129
     71131     71130     71134     71135     71132     71130     71134     71135
     71133     71130     71134     71135     71137     71136     71140     71141
     71138     71136     71140     71141     71139     71136     71140     71141
     71143     71142     71146     71147     71144     71142     71146     71147
     71145     71142     71146     71147     71149     71148     71152     71153
     71150     71148     71152     71153     71151     71148     71152     71153
     71155     71154     71158     71159     71156     71154     71158     71159
     71157     71154     71158     71159     71161     71160     71164     71165
     71162     71160     71164     71165     71163     71160     71164     71165
     71167     71166     71170     71171     71168     71166     71170     71171
     71169     71166     71170     71171     71173     71172     71176     71177
     71174     71172     71176     71177     71175     71172     71176     71177
     71179     71178     71182     71183     71180     71178     71182     71183
     71181     71178     71182     71183     71185     71184     71188     71189
     71186     71184     71188     71189     71187     71184     71188     71189
     71191     71190     71194     71195     71192     71190     71194     71195
     71193     71190     71194     71195     71197     71196     71200     71201
     71198     71196     71200     71201     71199     71196     71200     71201
     71203     71202     71206     71207     71204     71202     71206     71207
     71205     71202     71206     71207     71209     71208     71212     71213
     71210     71208     71212     71213     71211     71208     71212     71213
     71215     71214     71218     71219     71216     71214     71218     71219
     71217     71214     71218     71219     71221     71220     71224     71225
     71222     71220     71224     71225     71223     71220     71224     71225
     71227     71226     71230     71231     71228     71226     71230     71231
     71229     71226     71230     71231     71233     71232     71236     71237
     71234     71232     71236     71237     71235     71232     71236     71237
     71239     71238     71242     71243     71240     71238     71242     71243
     71241     71238     71242     71243     71245     71244     71248     71249
     71246     71244     71248     71249     71247     71244     71248     71249
     71251     71250     71254     71255     71252     71250     71254     71255
     71253     71250     71254     71255     71257     71256     71260     71261
     71258     71256     71260     71261     71259     71256     71260     71261
     71263     71262     71266     71267     71264     71262     71266     71267
     71265     71262     71266     71267     71269     71268     71272     71273
     71270     71268     71272     71273     71271     71268     71272     71273
     71275     71274     71278     71279     71276     71274     71278     71279
     71277     71274     71278     71279     71281     71280     71284     71285
     71282     71280     71284     71285     71283     71280     71284     71285
     71287     71286     71290     71291     71288     71286     71290     71291
     71289     71286     71290     71291     71293     71292     71296     71297
     71294     71292     71296     71297     71295     71292     71296     71297
     71299     71298     71302     71303     71300     71298     71302     71303
     71301     71298     71302     71303     71305     71304     71308     71309
     71306     71304     71308     71309     71307     71304     71308     71309
     71311     71310     71314     71315     71312     71310     71314     71315
     71313     71310     71314     71315     71317     71316     71320     71321
     71318     71316     71320     71321     71319     71316     71320     71321
     71323     71322     71326     71327     71324     71322     71326     71327
     71325     71322     71326     71327     71329     71328     71332     71333
     71330     71328     71332     71333     71331     71328     71332     71333
     71335     71334     71338     71339     71336     71334     71338     71339
     71337     71334     71338     71339     71341     71340     71344     71345
     71342     71340     71344     71345     71343     71340     71344     71345
     71347     71346     71350     71351     71348     71346     71350     71351
     71349     71346     71350     71351     71353     71352     71356     71357
     71354     71352     71356     71357     71355     71352     71356     71357
     71359     71358     71362     71363     71360     71358     71362     71363
     71361     71358     71362     71363     71365     71364     71368     71369
     71366     71364     71368     71369     71367     71364     71368     71369
     71371     71370     71374     71375     71372     71370     71374     71375
     71373     71370     71374     71375     71377     71376     71380     71381
     71378     71376     71380     71381     71379     71376     71380     71381
     71383     71382     71386     71387     71384     71382     71386     71387
     71385     71382     71386     71387     71389     71388     71392     71393
     71390     71388     71392     71393     71391     71388     71392     71393
     71395     71394     71398     71399     71396     71394     71398     71399
     71397     71394     71398     71399     71401     71400     71404     71405
     71402     71400     71404     71405     71403     71400     71404     71405
     71407     71406     71410     71411     71408     71406     71410     71411
     71409     71406     71410     71411     71413     71412     71416     71417
     71414     71412     71416     71417     71415     71412     71416     71417
     71419     71418     71422     71423     71420     71418     71422     71423
     71421     71418     71422     71423     71425     71424     71428     71429
     71426     71424     71428     71429     71427     71424     71428     71429
     71431     71430     71434     71435     71432     71430     71434     71435
     71433     71430     71434     71435     71437     71436     71440     71441
     71438     71436     71440     71441     71439     71436     71440     71441
     71443     71442     71446     71447     71444     71442     71446     71447
     71445     71442     71446     71447     71449     71448     71452     71453
     71450     71448     71452     71453     71451     71448     71452     71453
     71455     71454     71458     71459     71456     71454     71458     71459
     71457     71454     71458     71459     71461     71460     71464     71465
     71462     71460     71464     71465     71463     71460     71464     71465
     71467     71466     71470     71471     71468     71466     71470     71471
     71469     71466     71470     71471     71473     71472     71476     71477
     71474     71472     71476     71477     71475     71472     71476     71477
     71479     71478     71482     71483     71480     71478     71482     71483
     71481     71478     71482     71483     71485     71484     71488     71489
     71486     71484     71488     71489     71487     71484     71488     71489
     71491     71490     71494     71495     71492     71490     71494     71495
     71493     71490     71494     71495     71497     71496     71500     71501
     71498     71496     71500     71501     71499     71496     71500     71501
     71503     71502     71506     71507     71504     71502     71506     71507
     71505     71502     71506     71507     71509     71508     71512     71513
     71510     71508     71512     71513     71511     71508     71512     71513
     71515     71514     71518     71519     71516     71514     71518     71519
     71517     71514     71518     71519     71521     71520     71524     71525
     71522     71520     71524     71525     71523     71520     71524     71525
     71527     71526     71530     71531     71528     71526     71530     71531
     71529     71526     71530     71531     71533     71532     71536     71537
     71534     71532     71536     71537     71535     71532     71536     71537
     71539     71538     71542     71543     71540     71538     71542     71543
     71541     71538     71542     71543     71545     71544     71548     71549
     71546     71544     71548     71549     71547     71544     71548     71549
     71551     71550     71554     71555     71552     71550     71554     71555
     71553     71550     71554     71555     71557     71556     71560     71561
     71558     71556     71560     71561     71559     71556     71560     71561
     71563     71562     71566     71567     71564     71562     71566     71567
     71565     71562     71566     71567     71569     71568     71572     71573
     71570     71568     71572     71573     71571     71568     71572     71573
     71575     71574     71578     71579     71576     71574     71578     71579
     71577     71574     71578     71579     71581     71580     71584     71585
     71582     71580     71584     71585     71583     71580     71584     71585
     71587     71586     71590     71591     71588     71586     71590     71591
     71589     71586     71590     71591     71593     71592     71596     71597
     71594     71592     71596     71597     71595     71592     71596     71597
     71599     71598     71602     71603     71600     71598     71602     71603
     71601     71598     71602     71603     71605     71604     71608     71609
     71606     71604     71608     71609     71607     71604     71608     71609
     71611     71610     71614     71615     71612     71610     71614     71615
     71613     71610     71614     71615     71617     71616     71620     71621
     71618     71616     71620     71621     71619     71616     71620     71621
     71623     71622     71626     71627     71624     71622     71626     71627
     71625     71622     71626     71627     71629     71628     71632     71633
     71630     71628     71632     71633     71631     71628     71632     71633
     71635     71634     71638     71639     71636     71634     71638     71639
     71637     71634     71638     71639     71641     71640     71644     71645
     71642     71640     71644     71645     71643     71640     71644     71645
     71647     71646     71650     71651     71648     71646     71650     71651
     71649     71646     71650     71651     71653     71652     71656     71657
     71654     71652     71656     71657     71655     71652     71656     71657
     71659     71658     71662     71663     71660     71658     71662     71663
     71661     71658     71662     71663     71665     71664     71668     71669
     71666     71664     71668     71669     71667     71664     71668     71669
     71671     71670     71674     71675     71672     71670     71674     71675
     71673     71670     71674     71675     71677     71676     71680     71681
     71678     71676     71680     71681     71679     71676     71680     71681
     71683     71682     71686     71687     71684     71682     71686     71687
     71685     71682     71686     71687     71689     71688     71692     71693
     71690     71688     71692     71693     71691     71688     71692     71693
     71695     71694     71698     71699     71696     71694     71698     71699
     71697     71694     71698     71699     71701     71700     71704     71705
     71702     71700     71704     71705     71703     71700     71704     71705
     71707     71706     71710     71711     71708     71706     71710     71711
     71709     71706     71710     71711     71713     71712     71716     71717
     71714     71712     71716     71717     71715     71712     71716     71717
     71719     71718     71722     71723     71720     71718     71722     71723
     71721     71718     71722     71723     71725     71724     71728     71729
     71726     71724     71728     71729     71727     71724     71728     71729
     71731     71730     71734     71735     71732     71730     71734     71735
     71733     71730     71734     71735     71737     71736     71740     71741
     71738     71736     71740     71741     71739     71736     71740     71741
     71743     71742     71746     71747     71744     71742     71746     71747
     71745     71742     71746     71747     71749     71748     71752     71753
     71750     71748     71752     71753     71751     71748     71752     71753
     71755     71754     71758     71759     71756     71754     71758     71759
     71757     71754     71758     71759     71761     71760     71764     71765
     71762     71760     71764     71765     71763     71760     71764     71765
     71767     71766     71770     71771     71768     71766     71770     71771
     71769     71766     71770     71771     71773     71772     71776     71777
     71774     71772     71776     71777     71775     71772     71776     71777
     71779     71778     71782     71783     71780     71778     71782     71783
     71781     71778     71782     71783     71785     71784     71788     71789
     71786     71784     71788     71789     71787     71784     71788     71789
     71791     71790     71794     71795     71792     71790     71794     71795
     71793     71790     71794     71795     71797     71796     71800     71801
     71798     71796     71800     71801     71799     71796     71800     71801
     71803     71802     71806     71807     71804     71802     71806     71807
     71805     71802     71806     71807     71809     71808     71812     71813
     71810     71808     71812     71813     71811     71808     71812     71813
     71815     71814     71818     71819     71816     71814     71818     71819
     71817     71814     71818     71819     71821     71820     71824     71825
     71822     71820     71824     71825     71823     71820     71824     71825
     71827     71826     71830     71831     71828     71826     71830     71831
     71829     71826     71830     71831     71833     71832     71836     71837
     71834     71832     71836     71837     71835     71832     71836     71837
     71839     71838     71842     71843     71840     71838     71842     71843
     71841     71838     71842     71843     71845     71844     71848     71849
     71846     71844     71848     71849     71847     71844     71848     71849
     71851     71850     71854     71855     71852     71850     71854     71855
     71853     71850     71854     71855     71857     71856     71860     71861
     71858     71856     71860     71861     71859     71856     71860     71861
     71863     71862     71866     71867     71864     71862     71866     71867
     71865     71862     71866     71867     71869     71868     71872     71873
     71870     71868     71872     71873     71871     71868     71872     71873
     71875     71874     71878     71879     71876     71874     71878     71879
     71877     71874     71878     71879     71881     71880     71884     71885
     71882     71880     71884     71885     71883     71880     71884     71885
     71887     71886     71890     71891     71888     71886     71890     71891
     71889     71886     71890     71891     71893     71892     71896     71897
     71894     71892     71896     71897     71895     71892     71896     71897
     71899     71898     71902     71903     71900     71898     71902     71903
     71901     71898     71902     71903     71905     71904     71908     71909
     71906     71904     71908     71909     71907     71904     71908     71909
     71911     71910     71914     71915     71912     71910     71914     71915
     71913     71910     71914     71915     71917     71916     71920     71921
     71918     71916     71920     71921     71919     71916     71920     71921
     71923     71922     71926     71927     71924     71922     71926     71927
     71925     71922     71926     71927     71929     71928     71932     71933
     71930     71928     71932     71933     71931     71928     71932     71933
     71935     71934     71938     71939     71936     71934     71938     71939
     71937     71934     71938     71939     71941     71940     71944     71945
     71942     71940     71944     71945     71943     71940     71944     71945
     71947     71946     71950     71951     71948     71946     71950     71951
     71949     71946     71950     71951     71953     71952     71956     71957
     71954     71952     71956     71957     71955     71952     71956     71957
     71959     71958     71962     71963     71960     71958     71962     71963
     71961     71958     71962     71963     71965     71964     71968     71969
     71966     71964     71968     71969     71967     71964     71968     71969
     71971     71970     71974     71975     71972     71970     71974     71975
     71973     71970     71974     71975     71977     71976     71980     71981
     71978     71976     71980     71981     71979     71976     71980     71981
     71983     71982     71986     71987     71984     71982     71986     71987
     71985     71982     71986     71987     71989     71988     71992     71993
     71990     71988     71992     71993     71991     71988     71992     71993
     71995     71994     71998     71999     71996     71994     71998     71999
     71997     71994     71998     71999     72001     72000     72004     72005
     72002     72000     72004     72005     72003     72000     72004     72005
     72007     72006     72010     72011     72008     72006     72010     72011
     72009     72006     72010     72011     72013     72012     72016     72017
     72014     72012     72016     72017     72015     72012     72016     72017
     72019     72018     72022     72023     72020     72018     72022     72023
     72021     72018     72022     72023     72025     72024     72028     72029
     72026     72024     72028     72029     72027     72024     72028     72029
     72031     72030     72034     72035     72032     72030     72034     72035
     72033     72030     72034     72035     72037     72036     72040     72041
     72038     72036     72040     72041     72039     72036     72040     72041
     72043     72042     72046     72047     72044     72042     72046     72047
     72045     72042     72046     72047     72049     72048     72052     72053
     72050     72048     72052     72053     72051     72048     72052     72053
     72055     72054     72058     72059     72056     72054     72058     72059
     72057     72054     72058     72059     72061     72060     72064     72065
     72062     72060     72064     72065     72063     72060     72064     72065
     72067     72066     72070     72071     72068     72066     72070     72071
     72069     72066     72070     72071     72073     72072     72076     72077
     72074     72072     72076     72077     72075     72072     72076     72077
     72079     72078     72082     72083     72080     72078     72082     72083
     72081     72078     72082     72083     72085     72084     72088     72089
     72086     72084     72088     72089     72087     72084     72088     72089
     72091     72090     72094     72095     72092     72090     72094     72095
     72093     72090     72094     72095     72097     72096     72100     72101
     72098     72096     72100     72101     72099     72096     72100     72101
     72103     72102     72106     72107     72104     72102     72106     72107
     72105     72102     72106     72107     72109     72108     72112     72113
     72110     72108     72112     72113     72111     72108     72112     72113
     72115     72114     72118     72119     72116     72114     72118     72119
     72117     72114     72118     72119     72121     72120     72124     72125
     72122     72120     72124     72125     72123     72120     72124     72125
     72127     72126     72130     72131     72128     72126     72130     72131
     72129     72126     72130     72131     72133     72132     72136     72137
     72134     72132     72136     72137     72135     72132     72136     72137
     72139     72138     72142     72143     72140     72138     72142     72143
     72141     72138     72142     72143     72145     72144     72148     72149
     72146     72144     72148     72149     72147     72144     72148     72149
     72151     72150     72154     72155     72152     72150     72154     72155
     72153     72150     72154     72155     72157     72156     72160     72161
     72158     72156     72160     72161     72159     72156     72160     72161
     72163     72162     72166     72167     72164     72162     72166     72167
     72165     72162     72166     72167     72169     72168     72172     72173
     72170     72168     72172     72173     72171     72168     72172     72173
     72175     72174     72178     72179     72176     72174     72178     72179
     72177     72174     72178     72179     72181     72180     72184     72185
     72182     72180     72184     72185     72183     72180     72184     72185
     72187     72186     72190     72191     72188     72186     72190     72191
     72189     72186     72190     72191     72193     72192     72196     72197
     72194     72192     72196     72197     72195     72192     72196     72197
     72199     72198     72202     72203     72200     72198     72202     72203
     72201     72198     72202     72203     72205     72204     72208     72209
     72206     72204     72208     72209     72207     72204     72208     72209
     72211     72210     72214     72215     72212     72210     72214     72215
     72213     72210     72214     72215     72217     72216     72220     72221
     72218     72216     72220     72221     72219     72216     72220     72221
     72223     72222     72226     72227     72224     72222     72226     72227
     72225     72222     72226     72227     72229     72228     72232     72233
     72230     72228     72232     72233     72231     72228     72232     72233
     72235     72234     72238     72239     72236     72234     72238     72239
     72237     72234     72238     72239     72241     72240     72244     72245
     72242     72240     72244     72245     72243     72240     72244     72245
     72247     72246     72250     72251     72248     72246     72250     72251
     72249     72246     72250     72251     72253     72252     72256     72257
     72254     72252     72256     72257     72255     72252     72256     72257
     72259     72258     72262     72263     72260     72258     72262     72263
     72261     72258     72262     72263     72265     72264     72268     72269
     72266     72264     72268     72269     72267     72264     72268     72269
     72271     72270     72274     72275     72272     72270     72274     72275
     72273     72270     72274     72275     72277     72276     72280     72281
     72278     72276     72280     72281     72279     72276     72280     72281
     72283     72282     72286     72287     72284     72282     72286     72287
     72285     72282     72286     72287     72289     72288     72292     72293
     72290     72288     72292     72293     72291     72288     72292     72293
     72295     72294     72298     72299     72296     72294     72298     72299
     72297     72294     72298     72299     72301     72300     72304     72305
     72302     72300     72304     72305     72303     72300     72304     72305
     72307     72306     72310     72311     72308     72306     72310     72311
     72309     72306     72310     72311     72313     72312     72316     72317
     72314     72312     72316     72317     72315     72312     72316     72317
     72319     72318     72322     72323     72320     72318     72322     72323
     72321     72318     72322     72323     72325     72324     72328     72329
     72326     72324     72328     72329     72327     72324     72328     72329
     72331     72330     72334     72335     72332     72330     72334     72335
     72333     72330     72334     72335     72337     72336     72340     72341
     72338     72336     72340     72341     72339     72336     72340     72341
     72343     72342     72346     72347     72344     72342     72346     72347
     72345     72342     72346     72347     72349     72348     72352     72353
     72350     72348     72352     72353     72351     72348     72352     72353
     72355     72354     72358     72359     72356     72354     72358     72359
     72357     72354     72358     72359     72361     72360     72364     72365
     72362     72360     72364     72365     72363     72360     72364     72365
     72367     72366     72370     72371     72368     72366     72370     72371
     72369     72366     72370     72371     72373     72372     72376     72377
     72374     72372     72376     72377     72375     72372     72376     72377
     72379     72378     72382     72383     72380     72378     72382     72383
     72381     72378     72382     72383     72385     72384     72388     72389
     72386     72384     72388     72389     72387     72384     72388     72389
     72391     72390     72394     72395     72392     72390     72394     72395
     72393     72390     72394     72395     72397     72396     72400     72401
     72398     72396     72400     72401     72399     72396     72400     72401
     72403     72402     72406     72407     72404     72402     72406     72407
     72405     72402     72406     72407     72409     72408     72412     72413
     72410     72408     72412     72413     72411     72408     72412     72413
     72415     72414     72418     72419     72416     72414     72418     72419
     72417     72414     72418     72419     72421     72420     72424     72425
     72422     72420     72424     72425     72423     72420     72424     72425
     72427     72426     72430     72431     72428     72426     72430     72431
     72429     72426     72430     72431     72433     72432     72436     72437
     72434     72432     72436     72437     72435     72432     72436     72437
     72439     72438     72442     72443     72440     72438     72442     72443
     72441     72438     72442     72443     72445     72444     72448     72449
     72446     72444     72448     72449     72447     72444     72448     72449
     72451     72450     72454     72455     72452     72450     72454     72455
     72453     72450     72454     72455     72457     72456     72460     72461
     72458     72456     72460     72461     72459     72456     72460     72461
     72463     72462     72466     72467     72464     72462     72466     72467
     72465     72462     72466     72467     72469     72468     72472     72473
     72470     72468     72472     72473     72471     72468     72472     72473
     72475     72474     72478     72479     72476     72474     72478     72479
     72477     72474     72478     72479     72481     72480     72484     72485
     72482     72480     72484     72485     72483     72480     72484     72485
     72487     72486     72490     72491     72488     72486     72490     72491
     72489     72486     72490     72491     72493     72492     72496     72497
     72494     72492     72496     72497     72495     72492     72496     72497
     72499     72498     72502     72503     72500     72498     72502     72503
     72501     72498     72502     72503     72505     72504     72508     72509
     72506     72504     72508     72509     72507     72504     72508     72509
     72511     72510     72514     72515     72512     72510     72514     72515
     72513     72510     72514     72515     72517     72516     72520     72521
     72518     72516     72520     72521     72519     72516     72520     72521
     72523     72522     72526     72527     72524     72522     72526     72527
     72525     72522     72526     72527     72529     72528     72532     72533
     72530     72528     72532     72533     72531     72528     72532     72533
     72535     72534     72538     72539     72536     72534     72538     72539
     72537     72534     72538     72539     72541     72540     72544     72545
     72542     72540     72544     72545     72543     72540     72544     72545
     72547     72546     72550     72551     72548     72546     72550     72551
     72549     72546     72550     72551     72553     72552     72556     72557
     72554     72552     72556     72557     72555     72552     72556     72557
     72559     72558     72562     72563     72560     72558     72562     72563
     72561     72558     72562     72563     72565     72564     72568     72569
     72566     72564     72568     72569     72567     72564     72568     72569
     72571     72570     72574     72575     72572     72570     72574     72575
     72573     72570     72574     72575     72577     72576     72580     72581
     72578     72576     72580     72581     72579     72576     72580     72581
     72583     72582     72586     72587     72584     72582     72586     72587
     72585     72582     72586     72587     72589     72588     72592     72593
     72590     72588     72592     72593     72591     72588     72592     72593
     72595     72594     72598     72599     72596     72594     72598     72599
     72597     72594     72598     72599     72601     72600     72604     72605
     72602     72600     72604     72605     72603     72600     72604     72605
     72607     72606     72610     72611     72608     72606     72610     72611
     72609     72606     72610     72611     72613     72612     72616     72617
     72614     72612     72616     72617     72615     72612     72616     72617
     72619     72618     72622     72623     72620     72618     72622     72623
     72621     72618     72622     72623     72625     72624     72628     72629
     72626     72624     72628     72629     72627     72624     72628     72629
     72631     72630     72634     72635     72632     72630     72634     72635
     72633     72630     72634     72635     72637     72636     72640     72641
     72638     72636     72640     72641     72639     72636     72640     72641
     72643     72642     72646     72647     72644     72642     72646     72647
     72645     72642     72646     72647     72649     72648     72652     72653
     72650     72648     72652     72653     72651     72648     72652     72653
     72655     72654     72658     72659     72656     72654     72658     72659
     72657     72654     72658     72659     72661     72660     72664     72665
     72662     72660     72664     72665     72663     72660     72664     72665
     72667     72666     72670     72671     72668     72666     72670     72671
     72669     72666     72670     72671     72673     72672     72676     72677
     72674     72672     72676     72677     72675     72672     72676     72677
     72679     72678     72682     72683     72680     72678     72682     72683
     72681     72678     72682     72683     72685     72684     72688     72689
     72686     72684     72688     72689     72687     72684     72688     72689
     72691     72690     72694     72695     72692     72690     72694     72695
     72693     72690     72694     72695     72697     72696     72700     72701
     72698     72696     72700     72701     72699     72696     72700     72701
     72703     72702     72706     72707     72704     72702     72706     72707
     72705     72702     72706     72707     72709     72708     72712     72713
     72710     72708     72712     72713     72711     72708     72712     72713
     72715     72714     72718     72719     72716     72714     72718     72719
     72717     72714     72718     72719     72721     72720     72724     72725
     72722     72720     72724     72725     72723     72720     72724     72725
     72727     72726     72730     72731     72728     72726     72730     72731
     72729     72726     72730     72731     72733     72732     72736     72737
     72734     72732     72736     72737     72735     72732     72736     72737
     72739     72738     72742     72743     72740     72738     72742     72743
     72741     72738     72742     72743     72745     72744     72748     72749
     72746     72744     72748     72749     72747     72744     72748     72749
     72751     72750     72754     72755     72752     72750     72754     72755
     72753     72750     72754     72755     72757     72756     72760     72761
     72758     72756     72760     72761     72759     72756     72760     72761
     72763     72762     72766     72767     72764     72762     72766     72767
     72765     72762     72766     72767     72769     72768     72772     72773
     72770     72768     72772     72773     72771     72768     72772     72773
     72775     72774     72778     72779     72776     72774     72778     72779
     72777     72774     72778     72779     72781     72780     72784     72785
     72782     72780     72784     72785     72783     72780     72784     72785
     72787     72786     72790     72791     72788     72786     72790     72791
     72789     72786     72790     72791     72793     72792     72796     72797
     72794     72792     72796     72797     72795     72792     72796     72797
     72799     72798     72802     72803     72800     72798     72802     72803
     72801     72798     72802     72803     72805     72804     72808     72809
     72806     72804     72808     72809     72807     72804     72808     72809
     72811     72810     72814     72815     72812     72810     72814     72815
     72813     72810     72814     72815     72817     72816     72820     72821
     72818     72816     72820     72821     72819     72816     72820     72821
     72823     72822     72826     72827     72824     72822     72826     72827
     72825     72822     72826     72827     72829     72828     72832     72833
     72830     72828     72832     72833     72831     72828     72832     72833
     72835     72834     72838     72839     72836     72834     72838     72839
     72837     72834     72838     72839     72841     72840     72844     72845
     72842     72840     72844     72845     72843     72840     72844     72845
     72847     72846     72850     72851     72848     72846     72850     72851
     72849     72846     72850     72851     72853     72852     72856     72857
     72854     72852     72856     72857     72855     72852     72856     72857
     72859     72858     72862     72863     72860     72858     72862     72863
     72861     72858     72862     72863     72865     72864     72868     72869
     72866     72864     72868     72869     72867     72864     72868     72869
     72871     72870     72874     72875     72872     72870     72874     72875
     72873     72870     72874     72875     72877     72876     72880     72881
     72878     72876     72880     72881     72879     72876     72880     72881
     72883     72882     72886     72887     72884     72882     72886     72887
     72885     72882     72886     72887     72889     72888     72892     72893
     72890     72888     72892     72893     72891     72888     72892     72893
     72895     72894     72898     72899     72896     72894     72898     72899
     72897     72894     72898     72899     72901     72900     72904     72905
     72902     72900     72904     72905     72903     72900     72904     72905
     72907     72906     72910     72911     72908     72906     72910     72911
     72909     72906     72910     72911     72913     72912     72916     72917
     72914     72912     72916     72917     72915     72912     72916     72917
     72919     72918     72922     72923     72920     72918     72922     72923
     72921     72918     72922     72923     72925     72924     72928     72929
     72926     72924     72928     72929     72927     72924     72928     72929
     72931     72930     72934     72935     72932     72930     72934     72935
     72933     72930     72934     72935     72937     72936     72940     72941
     72938     72936     72940     72941     72939     72936     72940     72941
     72943     72942     72946     72947     72944     72942     72946     72947
     72945     72942     72946     72947     72949     72948     72952     72953
     72950     72948     72952     72953     72951     72948     72952     72953
     72955     72954     72958     72959     72956     72954     72958     72959
     72957     72954     72958     72959     72961     72960     72964     72965
     72962     72960     72964     72965     72963     72960     72964     72965
     72967     72966     72970     72971     72968     72966     72970     72971
     72969     72966     72970     72971     72973     72972     72976     72977
     72974     72972     72976     72977     72975     72972     72976     72977
     72979     72978     72982     72983     72980     72978     72982     72983
     72981     72978     72982     72983     72985     72984     72988     72989
     72986     72984     72988     72989     72987     72984     72988     72989
     72991     72990     72994     72995     72992     72990     72994     72995
     72993     72990     72994     72995     72997     72996     73000     73001
     72998     72996     73000     73001     72999     72996     73000     73001
     73003     73002     73006     73007     73004     73002     73006     73007
     73005     73002     73006     73007     73009     73008     73012     73013
     73010     73008     73012     73013     73011     73008     73012     73013
     73015     73014     73018     73019     73016     73014     73018     73019
     73017     73014     73018     73019     73021     73020     73024     73025
     73022     73020     73024     73025     73023     73020     73024     73025
     73027     73026     73030     73031     73028     73026     73030     73031
     73029     73026     73030     73031     73033     73032     73036     73037
     73034     73032     73036     73037     73035     73032     73036     73037
     73039     73038     73042     73043     73040     73038     73042     73043
     73041     73038     73042     73043     73045     73044     73048     73049
     73046     73044     73048     73049     73047     73044     73048     73049
     73051     73050     73054     73055     73052     73050     73054     73055
     73053     73050     73054     73055     73057     73056     73060     73061
     73058     73056     73060     73061     73059     73056     73060     73061
     73063     73062     73066     73067     73064     73062     73066     73067
     73065     73062     73066     73067     73069     73068     73072     73073
     73070     73068     73072     73073     73071     73068     73072     73073
     73075     73074     73078     73079     73076     73074     73078     73079
     73077     73074     73078     73079     73081     73080     73084     73085
     73082     73080     73084     73085     73083     73080     73084     73085
     73087     73086     73090     73091     73088     73086     73090     73091
     73089     73086     73090     73091     73093     73092     73096     73097
     73094     73092     73096     73097     73095     73092     73096     73097
     73099     73098     73102     73103     73100     73098     73102     73103
     73101     73098     73102     73103     73105     73104     73108     73109
     73106     73104     73108     73109     73107     73104     73108     73109
     73111     73110     73114     73115     73112     73110     73114     73115
     73113     73110     73114     73115     73117     73116     73120     73121
     73118     73116     73120     73121     73119     73116     73120     73121
     73123     73122     73126     73127     73124     73122     73126     73127
     73125     73122     73126     73127     73129     73128     73132     73133
     73130     73128     73132     73133     73131     73128     73132     73133
     73135     73134     73138     73139     73136     73134     73138     73139
     73137     73134     73138     73139     73141     73140     73144     73145
     73142     73140     73144     73145     73143     73140     73144     73145
     73147     73146     73150     73151     73148     73146     73150     73151
     73149     73146     73150     73151     73153     73152     73156     73157
     73154     73152     73156     73157     73155     73152     73156     73157
     73159     73158     73162     73163     73160     73158     73162     73163
     73161     73158     73162     73163     73165     73164     73168     73169
     73166     73164     73168     73169     73167     73164     73168     73169
     73171     73170     73174     73175     73172     73170     73174     73175
     73173     73170     73174     73175     73177     73176     73180     73181
     73178     73176     73180     73181     73179     73176     73180     73181
     73183     73182     73186     73187     73184     73182     73186     73187
     73185     73182     73186     73187     73189     73188     73192     73193
     73190     73188     73192     73193     73191     73188     73192     73193
     73195     73194     73198     73199     73196     73194     73198     73199
     73197     73194     73198     73199     73201     73200     73204     73205
     73202     73200     73204     73205     73203     73200     73204     73205
     73207     73206     73210     73211     73208     73206     73210     73211
     73209     73206     73210     73211     73213     73212     73216     73217
     73214     73212     73216     73217     73215     73212     73216     73217
     73219     73218     73222     73223     73220     73218     73222     73223
     73221     73218     73222     73223     73225     73224     73228     73229
     73226     73224     73228     73229     73227     73224     73228     73229
     73231     73230     73234     73235     73232     73230     73234     73235
     73233     73230     73234     73235     73237     73236     73240     73241
     73238     73236     73240     73241     73239     73236     73240     73241
     73243     73242     73246     73247     73244     73242     73246     73247
     73245     73242     73246     73247     73249     73248     73252     73253
     73250     73248     73252     73253     73251     73248     73252     73253
     73255     73254     73258     73259     73256     73254     73258     73259
     73257     73254     73258     73259     73261     73260     73264     73265
     73262     73260     73264     73265     73263     73260     73264     73265
     73267     73266     73270     73271     73268     73266     73270     73271
     73269     73266     73270     73271     73273     73272     73276     73277
     73274     73272     73276     73277     73275     73272     73276     73277
     73279     73278     73282     73283     73280     73278     73282     73283
     73281     73278     73282     73283     73285     73284     73288     73289
     73286     73284     73288     73289     73287     73284     73288     73289
     73291     73290     73294     73295     73292     73290     73294     73295
     73293     73290     73294     73295     73297     73296     73300     73301
     73298     73296     73300     73301     73299     73296     73300     73301
     73303     73302     73306     73307     73304     73302     73306     73307
     73305     73302     73306     73307     73309     73308     73312     73313
     73310     73308     73312     73313     73311     73308     73312     73313
     73315     73314     73318     73319     73316     73314     73318     73319
     73317     73314     73318     73319     73321     73320     73324     73325
     73322     73320     73324     73325     73323     73320     73324     73325
     73327     73326     73330     73331     73328     73326     73330     73331
     73329     73326     73330     73331     73333     73332     73336     73337
     73334     73332     73336     73337     73335     73332     73336     73337
     73339     73338     73342     73343     73340     73338     73342     73343
     73341     73338     73342     73343     73345     73344     73348     73349
     73346     73344     73348     73349     73347     73344     73348     73349
     73351     73350     73354     73355     73352     73350     73354     73355
     73353     73350     73354     73355     73357     73356     73360     73361
     73358     73356     73360     73361     73359     73356     73360     73361
     73363     73362     73366     73367     73364     73362     73366     73367
     73365     73362     73366     73367     73369     73368     73372     73373
     73370     73368     73372     73373     73371     73368     73372     73373
     73375     73374     73378     73379     73376     73374     73378     73379
     73377     73374     73378     73379     73381     73380     73384     73385
     73382     73380     73384     73385     73383     73380     73384     73385
     73387     73386     73390     73391     73388     73386     73390     73391
     73389     73386     73390     73391     73393     73392     73396     73397
     73394     73392     73396     73397     73395     73392     73396     73397
     73399     73398     73402     73403     73400     73398     73402     73403
     73401     73398     73402     73403     73405     73404     73408     73409
     73406     73404     73408     73409     73407     73404     73408     73409
     73411     73410     73414     73415     73412     73410     73414     73415
     73413     73410     73414     73415     73417     73416     73420     73421
     73418     73416     73420     73421     73419     73416     73420     73421
     73423     73422     73426     73427     73424     73422     73426     73427
     73425     73422     73426     73427     73429     73428     73432     73433
     73430     73428     73432     73433     73431     73428     73432     73433
     73435     73434     73438     73439     73436     73434     73438     73439
     73437     73434     73438     73439     73441     73440     73444     73445
     73442     73440     73444     73445     73443     73440     73444     73445
     73447     73446     73450     73451     73448     73446     73450     73451
     73449     73446     73450     73451     73453     73452     73456     73457
     73454     73452     73456     73457     73455     73452     73456     73457
     73459     73458     73462     73463     73460     73458     73462     73463
     73461     73458     73462     73463     73465     73464     73468     73469
     73466     73464     73468     73469     73467     73464     73468     73469
     73471     73470     73474     73475     73472     73470     73474     73475
     73473     73470     73474     73475     73477     73476     73480     73481
     73478     73476     73480     73481     73479     73476     73480     73481
     73483     73482     73486     73487     73484     73482     73486     73487
     73485     73482     73486     73487     73489     73488     73492     73493
     73490     73488     73492     73493     73491     73488     73492     73493
     73495     73494     73498     73499     73496     73494     73498     73499
     73497     73494     73498     73499     73501     73500     73504     73505
     73502     73500     73504     73505     73503     73500     73504     73505
     73507     73506     73510     73511     73508     73506     73510     73511
     73509     73506     73510     73511     73513     73512     73516     73517
     73514     73512     73516     73517     73515     73512     73516     73517
     73519     73518     73522     73523     73520     73518     73522     73523
     73521     73518     73522     73523     73525     73524     73528     73529
     73526     73524     73528     73529     73527     73524     73528     73529
     73531     73530     73534     73535     73532     73530     73534     73535
     73533     73530     73534     73535     73537     73536     73540     73541
     73538     73536     73540     73541     73539     73536     73540     73541
     73543     73542     73546     73547     73544     73542     73546     73547
     73545     73542     73546     73547     73549     73548     73552     73553
     73550     73548     73552     73553     73551     73548     73552     73553
     73555     73554     73558     73559     73556     73554     73558     73559
     73557     73554     73558     73559     73561     73560     73564     73565
     73562     73560     73564     73565     73563     73560     73564     73565
     73567     73566     73570     73571     73568     73566     73570     73571
     73569     73566     73570     73571     73573     73572     73576     73577
     73574     73572     73576     73577     73575     73572     73576     73577
     73579     73578     73582     73583     73580     73578     73582     73583
     73581     73578     73582     73583     73585     73584     73588     73589
     73586     73584     73588     73589     73587     73584     73588     73589
     73591     73590     73594     73595     73592     73590     73594     73595
     73593     73590     73594     73595     73597     73596     73600     73601
     73598     73596     73600     73601     73599     73596     73600     73601
     73603     73602     73606     73607     73604     73602     73606     73607
     73605     73602     73606     73607     73609     73608     73612     73613
     73610     73608     73612     73613     73611     73608     73612     73613
     73615     73614     73618     73619     73616     73614     73618     73619
     73617     73614     73618     73619     73621     73620     73624     73625
     73622     73620     73624     73625     73623     73620     73624     73625
     73627     73626     73630     73631     73628     73626     73630     73631
     73629     73626     73630     73631     73633     73632     73636     73637
     73634     73632     73636     73637     73635     73632     73636     73637
     73639     73638     73642     73643     73640     73638     73642     73643
     73641     73638     73642     73643     73645     73644     73648     73649
     73646     73644     73648     73649     73647     73644     73648     73649
     73651     73650     73654     73655     73652     73650     73654     73655
     73653     73650     73654     73655     73657     73656     73660     73661
     73658     73656     73660     73661     73659     73656     73660     73661
     73663     73662     73666     73667     73664     73662     73666     73667
     73665     73662     73666     73667     73669     73668     73672     73673
     73670     73668     73672     73673     73671     73668     73672     73673
     73675     73674     73678     73679     73676     73674     73678     73679
     73677     73674     73678     73679     73681     73680     73684     73685
     73682     73680     73684     73685     73683     73680     73684     73685
     73687     73686     73690     73691     73688     73686     73690     73691
     73689     73686     73690     73691     73693     73692     73696     73697
     73694     73692     73696     73697     73695     73692     73696     73697
     73699     73698     73702     73703     73700     73698     73702     73703
     73701     73698     73702     73703     73705     73704     73708     73709
     73706     73704     73708     73709     73707     73704     73708     73709
     73711     73710     73714     73715     73712     73710     73714     73715
     73713     73710     73714     73715     73717     73716     73720     73721
     73718     73716     73720     73721     73719     73716     73720     73721
     73723     73722     73726     73727     73724     73722     73726     73727
     73725     73722     73726     73727     73729     73728     73732     73733
     73730     73728     73732     73733     73731     73728     73732     73733
     73735     73734     73738     73739     73736     73734     73738     73739
     73737     73734     73738     73739     73741     73740     73744     73745
     73742     73740     73744     73745     73743     73740     73744     73745
     73747     73746     73750     73751     73748     73746     73750     73751
     73749     73746     73750     73751     73753     73752     73756     73757
     73754     73752     73756     73757     73755     73752     73756     73757
     73759     73758     73762     73763     73760     73758     73762     73763
     73761     73758     73762     73763     73765     73764     73768     73769
     73766     73764     73768     73769     73767     73764     73768     73769
     73771     73770     73774     73775     73772     73770     73774     73775
     73773     73770     73774     73775     73777     73776     73780     73781
     73778     73776     73780     73781     73779     73776     73780     73781
     73783     73782     73786     73787     73784     73782     73786     73787
     73785     73782     73786     73787     73789     73788     73792     73793
     73790     73788     73792     73793     73791     73788     73792     73793
     73795     73794     73798     73799     73796     73794     73798     73799
     73797     73794     73798     73799     73801     73800     73804     73805
     73802     73800     73804     73805     73803     73800     73804     73805
     73807     73806     73810     73811     73808     73806     73810     73811
     73809     73806     73810     73811     73813     73812     73816     73817
     73814     73812     73816     73817     73815     73812     73816     73817
     73819     73818     73822     73823     73820     73818     73822     73823
     73821     73818     73822     73823     73825     73824     73828     73829
     73826     73824     73828     73829     73827     73824     73828     73829
     73831     73830     73834     73835     73832     73830     73834     73835
     73833     73830     73834     73835     73837     73836     73840     73841
     73838     73836     73840     73841     73839     73836     73840     73841
     73843     73842     73846     73847     73844     73842     73846     73847
     73845     73842     73846     73847     73849     73848     73852     73853
     73850     73848     73852     73853     73851     73848     73852     73853
     73855     73854     73858     73859     73856     73854     73858     73859
     73857     73854     73858     73859     73861     73860     73864     73865
     73862     73860     73864     73865     73863     73860     73864     73865
     73867     73866     73870     73871     73868     73866     73870     73871
     73869     73866     73870     73871     73873     73872     73876     73877
     73874     73872     73876     73877     73875     73872     73876     73877
     73879     73878     73882     73883     73880     73878     73882     73883
     73881     73878     73882     73883     73885     73884     73888     73889
     73886     73884     73888     73889     73887     73884     73888     73889
     73891     73890     73894     73895     73892     73890     73894     73895
     73893     73890     73894     73895     73897     73896     73900     73901
     73898     73896     73900     73901     73899     73896     73900     73901
     73903     73902     73906     73907     73904     73902     73906     73907
     73905     73902     73906     73907     73909     73908     73912     73913
     73910     73908     73912     73913     73911     73908     73912     73913
     73915     73914     73918     73919     73916     73914     73918     73919
     73917     73914     73918     73919     73921     73920     73924     73925
     73922     73920     73924     73925     73923     73920     73924     73925
     73927     73926     73930     73931     73928     73926     73930     73931
     73929     73926     73930     73931     73933     73932     73936     73937
     73934     73932     73936     73937     73935     73932     73936     73937
     73939     73938     73942     73943     73940     73938     73942     73943
     73941     73938     73942     73943     73945     73944     73948     73949
     73946     73944     73948     73949     73947     73944     73948     73949
     73951     73950     73954     73955     73952     73950     73954     73955
     73953     73950     73954     73955     73957     73956     73960     73961
     73958     73956     73960     73961     73959     73956     73960     73961
     73963     73962     73966     73967     73964     73962     73966     73967
     73965     73962     73966     73967     73969     73968     73972     73973
     73970     73968     73972     73973     73971     73968     73972     73973
     73975     73974     73978     73979     73976     73974     73978     73979
     73977     73974     73978     73979     73981     73980     73984     73985
     73982     73980     73984     73985     73983     73980     73984     73985
     73987     73986     73990     73991     73988     73986     73990     73991
     73989     73986     73990     73991     73993     73992     73996     73997
     73994     73992     73996     73997     73995     73992     73996     73997
     73999     73998     74002     74003     74000     73998     74002     74003
     74001     73998     74002     74003     74005     74004     74008     74009
     74006     74004     74008     74009     74007     74004     74008     74009
     74011     74010     74014     74015     74012     74010     74014     74015
     74013     74010     74014     74015     74017     74016     74020     74021
     74018     74016     74020     74021     74019     74016     74020     74021
     74023     74022     74026     74027     74024     74022     74026     74027
     74025     74022     74026     74027     74029     74028     74032     74033
     74030     74028     74032     74033     74031     74028     74032     74033
     74035     74034     74038     74039     74036     74034     74038     74039
     74037     74034     74038     74039     74041     74040     74044     74045
     74042     74040     74044     74045     74043     74040     74044     74045
     74047     74046     74050     74051     74048     74046     74050     74051
     74049     74046     74050     74051     74053     74052     74056     74057
     74054     74052     74056     74057     74055     74052     74056     74057
     74059     74058     74062     74063     74060     74058     74062     74063
     74061     74058     74062     74063     74065     74064     74068     74069
     74066     74064     74068     74069     74067     74064     74068     74069
     74071     74070     74074     74075     74072     74070     74074     74075
     74073     74070     74074     74075     74077     74076     74080     74081
     74078     74076     74080     74081     74079     74076     74080     74081
     74083     74082     74086     74087     74084     74082     74086     74087
     74085     74082     74086     74087     74089     74088     74092     74093
     74090     74088     74092     74093     74091     74088     74092     74093
     74095     74094     74098     74099     74096     74094     74098     74099
     74097     74094     74098     74099     74101     74100     74104     74105
     74102     74100     74104     74105     74103     74100     74104     74105
     74107     74106     74110     74111     74108     74106     74110     74111
     74109     74106     74110     74111     74113     74112     74116     74117
     74114     74112     74116     74117     74115     74112     74116     74117
     74119     74118     74122     74123     74120     74118     74122     74123
     74121     74118     74122     74123     74125     74124     74128     74129
     74126     74124     74128     74129     74127     74124     74128     74129
     74131     74130     74134     74135     74132     74130     74134     74135
     74133     74130     74134     74135     74137     74136     74140     74141
     74138     74136     74140     74141     74139     74136     74140     74141
     74143     74142     74146     74147     74144     74142     74146     74147
     74145     74142     74146     74147     74149     74148     74152     74153
     74150     74148     74152     74153     74151     74148     74152     74153
     74155     74154     74158     74159     74156     74154     74158     74159
     74157     74154     74158     74159     74161     74160     74164     74165
     74162     74160     74164     74165     74163     74160     74164     74165
     74167     74166     74170     74171     74168     74166     74170     74171
     74169     74166     74170     74171     74173     74172     74176     74177
     74174     74172     74176     74177     74175     74172     74176     74177
     74179     74178     74182     74183     74180     74178     74182     74183
     74181     74178     74182     74183     74185     74184     74188     74189
     74186     74184     74188     74189     74187     74184     74188     74189
     74191     74190     74194     74195     74192     74190     74194     74195
     74193     74190     74194     74195     74197     74196     74200     74201
     74198     74196     74200     74201     74199     74196     74200     74201
     74203     74202     74206     74207     74204     74202     74206     74207
     74205     74202     74206     74207     74209     74208     74212     74213
     74210     74208     74212     74213     74211     74208     74212     74213
     74215     74214     74218     74219     74216     74214     74218     74219
     74217     74214     74218     74219     74221     74220     74224     74225
     74222     74220     74224     74225     74223     74220     74224     74225
     74227     74226     74230     74231     74228     74226     74230     74231
     74229     74226     74230     74231     74233     74232     74236     74237
     74234     74232     74236     74237     74235     74232     74236     74237
     74239     74238     74242     74243     74240     74238     74242     74243
     74241     74238     74242     74243     74245     74244     74248     74249
     74246     74244     74248     74249     74247     74244     74248     74249
     74251     74250     74254     74255     74252     74250     74254     74255
     74253     74250     74254     74255     74257     74256     74260     74261
     74258     74256     74260     74261     74259     74256     74260     74261
     74263     74262     74266     74267     74264     74262     74266     74267
     74265     74262     74266     74267     74269     74268     74272     74273
     74270     74268     74272     74273     74271     74268     74272     74273
     74275     74274     74278     74279     74276     74274     74278     74279
     74277     74274     74278     74279     74281     74280     74284     74285
     74282     74280     74284     74285     74283     74280     74284     74285
     74287     74286     74290     74291     74288     74286     74290     74291
     74289     74286     74290     74291     74293     74292     74296     74297
     74294     74292     74296     74297     74295     74292     74296     74297
     74299     74298     74302     74303     74300     74298     74302     74303
     74301     74298     74302     74303     74305     74304     74308     74309
     74306     74304     74308     74309     74307     74304     74308     74309
     74311     74310     74314     74315     74312     74310     74314     74315
     74313     74310     74314     74315     74317     74316     74320     74321
     74318     74316     74320     74321     74319     74316     74320     74321
     74323     74322     74326     74327     74324     74322     74326     74327
     74325     74322     74326     74327     74329     74328     74332     74333
     74330     74328     74332     74333     74331     74328     74332     74333
     74335     74334     74338     74339     74336     74334     74338     74339
     74337     74334     74338     74339     74341     74340     74344     74345
     74342     74340     74344     74345     74343     74340     74344     74345
     74347     74346     74350     74351     74348     74346     74350     74351
     74349     74346     74350     74351     74353     74352     74356     74357
     74354     74352     74356     74357     74355     74352     74356     74357
     74359     74358     74362     74363     74360     74358     74362     74363
     74361     74358     74362     74363     74365     74364     74368     74369
     74366     74364     74368     74369     74367     74364     74368     74369
     74371     74370     74374     74375     74372     74370     74374     74375
     74373     74370     74374     74375     74377     74376     74380     74381
     74378     74376     74380     74381     74379     74376     74380     74381
     74383     74382     74386     74387     74384     74382     74386     74387
     74385     74382     74386     74387     74389     74388     74392     74393
     74390     74388     74392     74393     74391     74388     74392     74393
     74395     74394     74398     74399     74396     74394     74398     74399
     74397     74394     74398     74399     74401     74400     74404     74405
     74402     74400     74404     74405     74403     74400     74404     74405
     74407     74406     74410     74411     74408     74406     74410     74411
     74409     74406     74410     74411     74413     74412     74416     74417
     74414     74412     74416     74417     74415     74412     74416     74417
     74419     74418     74422     74423     74420     74418     74422     74423
     74421     74418     74422     74423     74425     74424     74428     74429
     74426     74424     74428     74429     74427     74424     74428     74429
     74431     74430     74434     74435     74432     74430     74434     74435
     74433     74430     74434     74435     74437     74436     74440     74441
     74438     74436     74440     74441     74439     74436     74440     74441
     74443     74442     74446     74447     74444     74442     74446     74447
     74445     74442     74446     74447     74449     74448     74452     74453
     74450     74448     74452     74453     74451     74448     74452     74453
     74455     74454     74458     74459     74456     74454     74458     74459
     74457     74454     74458     74459     74461     74460     74464     74465
     74462     74460     74464     74465     74463     74460     74464     74465
     74467     74466     74470     74471     74468     74466     74470     74471
     74469     74466     74470     74471     74473     74472     74476     74477
     74474     74472     74476     74477     74475     74472     74476     74477
     74479     74478     74482     74483     74480     74478     74482     74483
     74481     74478     74482     74483     74485     74484     74488     74489
     74486     74484     74488     74489     74487     74484     74488     74489
     74491     74490     74494     74495     74492     74490     74494     74495
     74493     74490     74494     74495     74497     74496     74500     74501
     74498     74496     74500     74501     74499     74496     74500     74501
     74503     74502     74506     74507     74504     74502     74506     74507
     74505     74502     74506     74507     74509     74508     74512     74513
     74510     74508     74512     74513     74511     74508     74512     74513
     74515     74514     74518     74519     74516     74514     74518     74519
     74517     74514     74518     74519     74521     74520     74524     74525
     74522     74520     74524     74525     74523     74520     74524     74525
     74527     74526     74530     74531     74528     74526     74530     74531
     74529     74526     74530     74531     74533     74532     74536     74537
     74534     74532     74536     74537     74535     74532     74536     74537
     74539     74538     74542     74543     74540     74538     74542     74543
     74541     74538     74542     74543     74545     74544     74548     74549
     74546     74544     74548     74549     74547     74544     74548     74549
     74551     74550     74554     74555     74552     74550     74554     74555
     74553     74550     74554     74555     74557     74556     74560     74561
     74558     74556     74560     74561     74559     74556     74560     74561
     74563     74562     74566     74567     74564     74562     74566     74567
     74565     74562     74566     74567     74569     74568     74572     74573
     74570     74568     74572     74573     74571     74568     74572     74573
     74575     74574     74578     74579     74576     74574     74578     74579
     74577     74574     74578     74579     74581     74580     74584     74585
     74582     74580     74584     74585     74583     74580     74584     74585
     74587     74586     74590     74591     74588     74586     74590     74591
     74589     74586     74590     74591     74593     74592     74596     74597
     74594     74592     74596     74597     74595     74592     74596     74597
     74599     74598     74602     74603     74600     74598     74602     74603
     74601     74598     74602     74603     74605     74604     74608     74609
     74606     74604     74608     74609     74607     74604     74608     74609
     74611     74610     74614     74615     74612     74610     74614     74615
     74613     74610     74614     74615     74617     74616     74620     74621
     74618     74616     74620     74621     74619     74616     74620     74621
     74623     74622     74626     74627     74624     74622     74626     74627
     74625     74622     74626     74627     74629     74628     74632     74633
     74630     74628     74632     74633     74631     74628     74632     74633
     74635     74634     74638     74639     74636     74634     74638     74639
     74637     74634     74638     74639     74641     74640     74644     74645
     74642     74640     74644     74645     74643     74640     74644     74645
     74647     74646     74650     74651     74648     74646     74650     74651
     74649     74646     74650     74651     74653     74652     74656     74657
     74654     74652     74656     74657     74655     74652     74656     74657
     74659     74658     74662     74663     74660     74658     74662     74663
     74661     74658     74662     74663     74665     74664     74668     74669
     74666     74664     74668     74669     74667     74664     74668     74669
     74671     74670     74674     74675     74672     74670     74674     74675
     74673     74670     74674     74675     74677     74676     74680     74681
     74678     74676     74680     74681     74679     74676     74680     74681
     74683     74682     74686     74687     74684     74682     74686     74687
     74685     74682     74686     74687     74689     74688     74692     74693
     74690     74688     74692     74693     74691     74688     74692     74693
     74695     74694     74698     74699     74696     74694     74698     74699
     74697     74694     74698     74699     74701     74700     74704     74705
     74702     74700     74704     74705     74703     74700     74704     74705
     74707     74706     74710     74711     74708     74706     74710     74711
     74709     74706     74710     74711     74713     74712     74716     74717
     74714     74712     74716     74717     74715     74712     74716     74717
     74719     74718     74722     74723     74720     74718     74722     74723
     74721     74718     74722     74723     74725     74724     74728     74729
     74726     74724     74728     74729     74727     74724     74728     74729
     74731     74730     74734     74735     74732     74730     74734     74735
     74733     74730     74734     74735     74737     74736     74740     74741
     74738     74736     74740     74741     74739     74736     74740     74741
     74743     74742     74746     74747     74744     74742     74746     74747
     74745     74742     74746     74747     74749     74748     74752     74753
     74750     74748     74752     74753     74751     74748     74752     74753
     74755     74754     74758     74759     74756     74754     74758     74759
     74757     74754     74758     74759     74761     74760     74764     74765
     74762     74760     74764     74765     74763     74760     74764     74765
     74767     74766     74770     74771     74768     74766     74770     74771
     74769     74766     74770     74771     74773     74772     74776     74777
     74774     74772     74776     74777     74775     74772     74776     74777
     74779     74778     74782     74783     74780     74778     74782     74783
     74781     74778     74782     74783     74785     74784     74788     74789
     74786     74784     74788     74789     74787     74784     74788     74789
     74791     74790     74794     74795     74792     74790     74794     74795
     74793     74790     74794     74795     74797     74796     74800     74801
     74798     74796     74800     74801     74799     74796     74800     74801
     74803     74802     74806     74807     74804     74802     74806     74807
     74805     74802     74806     74807     74809     74808     74812     74813
     74810     74808     74812     74813     74811     74808     74812     74813
     74815     74814     74818     74819     74816     74814     74818     74819
     74817     74814     74818     74819     74821     74820     74824     74825
     74822     74820     74824     74825     74823     74820     74824     74825
     74827     74826     74830     74831     74828     74826     74830     74831
     74829     74826     74830     74831     74833     74832     74836     74837
     74834     74832     74836     74837     74835     74832     74836     74837
     74839     74838     74842     74843     74840     74838     74842     74843
     74841     74838     74842     74843     74845     74844     74848     74849
     74846     74844     74848     74849     74847     74844     74848     74849
     74851     74850     74854     74855     74852     74850     74854     74855
     74853     74850     74854     74855     74857     74856     74860     74861
     74858     74856     74860     74861     74859     74856     74860     74861
     74863     74862     74866     74867     74864     74862     74866     74867
     74865     74862     74866     74867     74869     74868     74872     74873
     74870     74868     74872     74873     74871     74868     74872     74873
     74875     74874     74878     74879     74876     74874     74878     74879
     74877     74874     74878     74879     74881     74880     74884     74885
     74882     74880     74884     74885     74883     74880     74884     74885
     74887     74886     74890     74891     74888     74886     74890     74891
     74889     74886     74890     74891     74893     74892     74896     74897
     74894     74892     74896     74897     74895     74892     74896     74897
     74899     74898     74902     74903     74900     74898     74902     74903
     74901     74898     74902     74903     74905     74904     74908     74909
     74906     74904     74908     74909     74907     74904     74908     74909
     74911     74910     74914     74915     74912     74910     74914     74915
     74913     74910     74914     74915     74917     74916     74920     74921
     74918     74916     74920     74921     74919     74916     74920     74921
     74923     74922     74926     74927     74924     74922     74926     74927
     74925     74922     74926     74927     74929     74928     74932     74933
     74930     74928     74932     74933     74931     74928     74932     74933
     74935     74934     74938     74939     74936     74934     74938     74939
     74937     74934     74938     74939     74941     74940     74944     74945
     74942     74940     74944     74945     74943     74940     74944     74945
     74947     74946     74950     74951     74948     74946     74950     74951
     74949     74946     74950     74951     74953     74952     74956     74957
     74954     74952     74956     74957     74955     74952     74956     74957
     74959     74958     74962     74963     74960     74958     74962     74963
     74961     74958     74962     74963     74965     74964     74968     74969
     74966     74964     74968     74969     74967     74964     74968     74969
     74971     74970     74974     74975     74972     74970     74974     74975
     74973     74970     74974     74975     74977     74976     74980     74981
     74978     74976     74980     74981     74979     74976     74980     74981
     74983     74982     74986     74987     74984     74982     74986     74987
     74985     74982     74986     74987     74989     74988     74992     74993
     74990     74988     74992     74993     74991     74988     74992     74993
     74995     74994     74998     74999     74996     74994     74998     74999
     74997     74994     74998     74999     75001     75000     75004     75005
     75002     75000     75004     75005     75003     75000     75004     75005
     75007     75006     75010     75011     75008     75006     75010     75011
     75009     75006     75010     75011     75013     75012     75016     75017
     75014     75012     75016     75017     75015     75012     75016     75017
     75019     75018     75022     75023     75020     75018     75022     75023
     75021     75018     75022     75023     75025     75024     75028     75029
     75026     75024     75028     75029     75027     75024     75028     75029
     75031     75030     75034     75035     75032     75030     75034     75035
     75033     75030     75034     75035     75037     75036     75040     75041
     75038     75036     75040     75041     75039     75036     75040     75041
     75043     75042     75046     75047     75044     75042     75046     75047
     75045     75042     75046     75047     75049     75048     75052     75053
     75050     75048     75052     75053     75051     75048     75052     75053
     75055     75054     75058     75059     75056     75054     75058     75059
     75057     75054     75058     75059     75061     75060     75064     75065
     75062     75060     75064     75065     75063     75060     75064     75065
     75067     75066     75070     75071     75068     75066     75070     75071
     75069     75066     75070     75071     75073     75072     75076     75077
     75074     75072     75076     75077     75075     75072     75076     75077
     75079     75078     75082     75083     75080     75078     75082     75083
     75081     75078     75082     75083     75085     75084     75088     75089
     75086     75084     75088     75089     75087     75084     75088     75089
     75091     75090     75094     75095     75092     75090     75094     75095
     75093     75090     75094     75095     75097     75096     75100     75101
     75098     75096     75100     75101     75099     75096     75100     75101
     75103     75102     75106     75107     75104     75102     75106     75107
     75105     75102     75106     75107     75109     75108     75112     75113
     75110     75108     75112     75113     75111     75108     75112     75113
     75115     75114     75118     75119     75116     75114     75118     75119
     75117     75114     75118     75119     75121     75120     75124     75125
     75122     75120     75124     75125     75123     75120     75124     75125
     75127     75126     75130     75131     75128     75126     75130     75131
     75129     75126     75130     75131     75133     75132     75136     75137
     75134     75132     75136     75137     75135     75132     75136     75137
     75139     75138     75142     75143     75140     75138     75142     75143
     75141     75138     75142     75143     75145     75144     75148     75149
     75146     75144     75148     75149     75147     75144     75148     75149
     75151     75150     75154     75155     75152     75150     75154     75155
     75153     75150     75154     75155     75157     75156     75160     75161
     75158     75156     75160     75161     75159     75156     75160     75161
     75163     75162     75166     75167     75164     75162     75166     75167
     75165     75162     75166     75167     75169     75168     75172     75173
     75170     75168     75172     75173     75171     75168     75172     75173
     75175     75174     75178     75179     75176     75174     75178     75179
     75177     75174     75178     75179     75181     75180     75184     75185
     75182     75180     75184     75185     75183     75180     75184     75185
     75187     75186     75190     75191     75188     75186     75190     75191
     75189     75186     75190     75191     75193     75192     75196     75197
     75194     75192     75196     75197     75195     75192     75196     75197
     75199     75198     75202     75203     75200     75198     75202     75203
     75201     75198     75202     75203     75205     75204     75208     75209
     75206     75204     75208     75209     75207     75204     75208     75209
     75211     75210     75214     75215     75212     75210     75214     75215
     75213     75210     75214     75215     75217     75216     75220     75221
     75218     75216     75220     75221     75219     75216     75220     75221
     75223     75222     75226     75227     75224     75222     75226     75227
     75225     75222     75226     75227     75229     75228     75232     75233
     75230     75228     75232     75233     75231     75228     75232     75233
     75235     75234     75238     75239     75236     75234     75238     75239
     75237     75234     75238     75239     75241     75240     75244     75245
     75242     75240     75244     75245     75243     75240     75244     75245
     75247     75246     75250     75251     75248     75246     75250     75251
     75249     75246     75250     75251     75253     75252     75256     75257
     75254     75252     75256     75257     75255     75252     75256     75257
     75259     75258     75262     75263     75260     75258     75262     75263
     75261     75258     75262     75263     75265     75264     75268     75269
     75266     75264     75268     75269     75267     75264     75268     75269
     75271     75270     75274     75275     75272     75270     75274     75275
     75273     75270     75274     75275     75277     75276     75280     75281
     75278     75276     75280     75281     75279     75276     75280     75281
     75283     75282     75286     75287     75284     75282     75286     75287
     75285     75282     75286     75287     75289     75288     75292     75293
     75290     75288     75292     75293     75291     75288     75292     75293
     75295     75294     75298     75299     75296     75294     75298     75299
     75297     75294     75298     75299     75301     75300     75304     75305
     75302     75300     75304     75305     75303     75300     75304     75305
     75307     75306     75310     75311     75308     75306     75310     75311
     75309     75306     75310     75311     75313     75312     75316     75317
     75314     75312     75316     75317     75315     75312     75316     75317
     75319     75318     75322     75323     75320     75318     75322     75323
     75321     75318     75322     75323     75325     75324     75328     75329
     75326     75324     75328     75329     75327     75324     75328     75329
     75331     75330     75334     75335     75332     75330     75334     75335
     75333     75330     75334     75335     75337     75336     75340     75341
     75338     75336     75340     75341     75339     75336     75340     75341
     75343     75342     75346     75347     75344     75342     75346     75347
     75345     75342     75346     75347     75349     75348     75352     75353
     75350     75348     75352     75353     75351     75348     75352     75353
     75355     75354     75358     75359     75356     75354     75358     75359
     75357     75354     75358     75359     75361     75360     75364     75365
     75362     75360     75364     75365     75363     75360     75364     75365
     75367     75366     75370     75371     75368     75366     75370     75371
     75369     75366     75370     75371     75373     75372     75376     75377
     75374     75372     75376     75377     75375     75372     75376     75377
     75379     75378     75382     75383     75380     75378     75382     75383
     75381     75378     75382     75383     75385     75384     75388     75389
     75386     75384     75388     75389     75387     75384     75388     75389
     75391     75390     75394     75395     75392     75390     75394     75395
     75393     75390     75394     75395     75397     75396     75400     75401
     75398     75396     75400     75401     75399     75396     75400     75401
     75403     75402     75406     75407     75404     75402     75406     75407
     75405     75402     75406     75407     75409     75408     75412     75413
     75410     75408     75412     75413     75411     75408     75412     75413
     75415     75414     75418     75419     75416     75414     75418     75419
     75417     75414     75418     75419     75421     75420     75424     75425
     75422     75420     75424     75425     75423     75420     75424     75425
     75427     75426     75430     75431     75428     75426     75430     75431
     75429     75426     75430     75431     75433     75432     75436     75437
     75434     75432     75436     75437     75435     75432     75436     75437
     75439     75438     75442     75443     75440     75438     75442     75443
     75441     75438     75442     75443     75445     75444     75448     75449
     75446     75444     75448     75449     75447     75444     75448     75449
     75451     75450     75454     75455     75452     75450     75454     75455
     75453     75450     75454     75455     75457     75456     75460     75461
     75458     75456     75460     75461     75459     75456     75460     75461
     75463     75462     75466     75467     75464     75462     75466     75467
     75465     75462     75466     75467     75469     75468     75472     75473
     75470     75468     75472     75473     75471     75468     75472     75473
     75475     75474     75478     75479     75476     75474     75478     75479
     75477     75474     75478     75479     75481     75480     75484     75485
     75482     75480     75484     75485     75483     75480     75484     75485
     75487     75486     75490     75491     75488     75486     75490     75491
     75489     75486     75490     75491     75493     75492     75496     75497
     75494     75492     75496     75497     75495     75492     75496     75497
     75499     75498     75502     75503     75500     75498     75502     75503
     75501     75498     75502     75503     75505     75504     75508     75509
     75506     75504     75508     75509     75507     75504     75508     75509
     75511     75510     75514     75515     75512     75510     75514     75515
     75513     75510     75514     75515     75517     75516     75520     75521
     75518     75516     75520     75521     75519     75516     75520     75521
     75523     75522     75526     75527     75524     75522     75526     75527
     75525     75522     75526     75527     75529     75528     75532     75533
     75530     75528     75532     75533     75531     75528     75532     75533
     75535     75534     75538     75539     75536     75534     75538     75539
     75537     75534     75538     75539     75541     75540     75544     75545
     75542     75540     75544     75545     75543     75540     75544     75545
     75547     75546     75550     75551     75548     75546     75550     75551
     75549     75546     75550     75551     75553     75552     75556     75557
     75554     75552     75556     75557     75555     75552     75556     75557
     75559     75558     75562     75563     75560     75558     75562     75563
     75561     75558     75562     75563     75565     75564     75568     75569
     75566     75564     75568     75569     75567     75564     75568     75569
     75571     75570     75574     75575     75572     75570     75574     75575
     75573     75570     75574     75575     75577     75576     75580     75581
     75578     75576     75580     75581     75579     75576     75580     75581
     75583     75582     75586     75587     75584     75582     75586     75587
     75585     75582     75586     75587     75589     75588     75592     75593
     75590     75588     75592     75593     75591     75588     75592     75593
     75595     75594     75598     75599     75596     75594     75598     75599
     75597     75594     75598     75599     75601     75600     75604     75605
     75602     75600     75604     75605     75603     75600     75604     75605
     75607     75606     75610     75611     75608     75606     75610     75611
     75609     75606     75610     75611     75613     75612     75616     75617
     75614     75612     75616     75617     75615     75612     75616     75617
     75619     75618     75622     75623     75620     75618     75622     75623
     75621     75618     75622     75623     75625     75624     75628     75629
     75626     75624     75628     75629     75627     75624     75628     75629
     75631     75630     75634     75635     75632     75630     75634     75635
     75633     75630     75634     75635     75637     75636     75640     75641
     75638     75636     75640     75641     75639     75636     75640     75641
     75643     75642     75646     75647     75644     75642     75646     75647
     75645     75642     75646     75647     75649     75648     75652     75653
     75650     75648     75652     75653     75651     75648     75652     75653
     75655     75654     75658     75659     75656     75654     75658     75659
     75657     75654     75658     75659     75661     75660     75664     75665
     75662     75660     75664     75665     75663     75660     75664     75665
     75667     75666     75670     75671     75668     75666     75670     75671
     75669     75666     75670     75671     75673     75672     75676     75677
     75674     75672     75676     75677     75675     75672     75676     75677
     75679     75678     75682     75683     75680     75678     75682     75683
     75681     75678     75682     75683     75685     75684     75688     75689
     75686     75684     75688     75689     75687     75684     75688     75689
     75691     75690     75694     75695     75692     75690     75694     75695
     75693     75690     75694     75695     75697     75696     75700     75701
     75698     75696     75700     75701     75699     75696     75700     75701
     75703     75702     75706     75707     75704     75702     75706     75707
     75705     75702     75706     75707     75709     75708     75712     75713
     75710     75708     75712     75713     75711     75708     75712     75713
     75715     75714     75718     75719     75716     75714     75718     75719
     75717     75714     75718     75719     75721     75720     75724     75725
     75722     75720     75724     75725     75723     75720     75724     75725
     75727     75726     75730     75731     75728     75726     75730     75731
     75729     75726     75730     75731     75733     75732     75736     75737
     75734     75732     75736     75737     75735     75732     75736     75737
     75739     75738     75742     75743     75740     75738     75742     75743
     75741     75738     75742     75743     75745     75744     75748     75749
     75746     75744     75748     75749     75747     75744     75748     75749
     75751     75750     75754     75755     75752     75750     75754     75755
     75753     75750     75754     75755     75757     75756     75760     75761
     75758     75756     75760     75761     75759     75756     75760     75761
     75763     75762     75766     75767     75764     75762     75766     75767
     75765     75762     75766     75767     75769     75768     75772     75773
     75770     75768     75772     75773     75771     75768     75772     75773
     75775     75774     75778     75779     75776     75774     75778     75779
     75777     75774     75778     75779     75781     75780     75784     75785
     75782     75780     75784     75785     75783     75780     75784     75785
     75787     75786     75790     75791     75788     75786     75790     75791
     75789     75786     75790     75791     75793     75792     75796     75797
     75794     75792     75796     75797     75795     75792     75796     75797
     75799     75798     75802     75803     75800     75798     75802     75803
     75801     75798     75802     75803     75805     75804     75808     75809
     75806     75804     75808     75809     75807     75804     75808     75809
     75811     75810     75814     75815     75812     75810     75814     75815
     75813     75810     75814     75815     75817     75816     75820     75821
     75818     75816     75820     75821     75819     75816     75820     75821
     75823     75822     75826     75827     75824     75822     75826     75827
     75825     75822     75826     75827     75829     75828     75832     75833
     75830     75828     75832     75833     75831     75828     75832     75833
     75835     75834     75838     75839     75836     75834     75838     75839
     75837     75834     75838     75839     75841     75840     75844     75845
     75842     75840     75844     75845     75843     75840     75844     75845
     75847     75846     75850     75851     75848     75846     75850     75851
     75849     75846     75850     75851     75853     75852     75856     75857
     75854     75852     75856     75857     75855     75852     75856     75857
     75859     75858     75862     75863     75860     75858     75862     75863
     75861     75858     75862     75863     75865     75864     75868     75869
     75866     75864     75868     75869     75867     75864     75868     75869
     75871     75870     75874     75875     75872     75870     75874     75875
     75873     75870     75874     75875     75877     75876     75880     75881
     75878     75876     75880     75881     75879     75876     75880     75881
     75883     75882     75886     75887     75884     75882     75886     75887
     75885     75882     75886     75887     75889     75888     75892     75893
     75890     75888     75892     75893     75891     75888     75892     75893
     75895     75894     75898     75899     75896     75894     75898     75899
     75897     75894     75898     75899     75901     75900     75904     75905
     75902     75900     75904     75905     75903     75900     75904     75905
     75907     75906     75910     75911     75908     75906     75910     75911
     75909     75906     75910     75911     75913     75912     75916     75917
     75914     75912     75916     75917     75915     75912     75916     75917
     75919     75918     75922     75923     75920     75918     75922     75923
     75921     75918     75922     75923     75925     75924     75928     75929
     75926     75924     75928     75929     75927     75924     75928     75929
     75931     75930     75934     75935     75932     75930     75934     75935
     75933     75930     75934     75935     75937     75936     75940     75941
     75938     75936     75940     75941     75939     75936     75940     75941
     75943     75942     75946     75947     75944     75942     75946     75947
     75945     75942     75946     75947     75949     75948     75952     75953
     75950     75948     75952     75953     75951     75948     75952     75953
     75955     75954     75958     75959     75956     75954     75958     75959
     75957     75954     75958     75959     75961     75960     75964     75965
     75962     75960     75964     75965     75963     75960     75964     75965
     75967     75966     75970     75971     75968     75966     75970     75971
     75969     75966     75970     75971     75973     75972     75976     75977
     75974     75972     75976     75977     75975     75972     75976     75977
     75979     75978     75982     75983     75980     75978     75982     75983
     75981     75978     75982     75983     75985     75984     75988     75989
     75986     75984     75988     75989     75987     75984     75988     75989
     75991     75990     75994     75995     75992     75990     75994     75995
     75993     75990     75994     75995     75997     75996     76000     76001
     75998     75996     76000     76001     75999     75996     76000     76001
     76003     76002     76006     76007     76004     76002     76006     76007
     76005     76002     76006     76007     76009     76008     76012     76013
     76010     76008     76012     76013     76011     76008     76012     76013
     76015     76014     76018     76019     76016     76014     76018     76019
     76017     76014     76018     76019     76021     76020     76024     76025
     76022     76020     76024     76025     76023     76020     76024     76025
     76027     76026     76030     76031     76028     76026     76030     76031
     76029     76026     76030     76031     76033     76032     76036     76037
     76034     76032     76036     76037     76035     76032     76036     76037
     76039     76038     76042     76043     76040     76038     76042     76043
     76041     76038     76042     76043     76045     76044     76048     76049
     76046     76044     76048     76049     76047     76044     76048     76049
     76051     76050     76054     76055     76052     76050     76054     76055
     76053     76050     76054     76055     76057     76056     76060     76061
     76058     76056     76060     76061     76059     76056     76060     76061
     76063     76062     76066     76067     76064     76062     76066     76067
     76065     76062     76066     76067     76069     76068     76072     76073
     76070     76068     76072     76073     76071     76068     76072     76073
     76075     76074     76078     76079     76076     76074     76078     76079
     76077     76074     76078     76079     76081     76080     76084     76085
     76082     76080     76084     76085     76083     76080     76084     76085
     76087     76086     76090     76091     76088     76086     76090     76091
     76089     76086     76090     76091     76093     76092     76096     76097
     76094     76092     76096     76097     76095     76092     76096     76097
     76099     76098     76102     76103     76100     76098     76102     76103
     76101     76098     76102     76103     76105     76104     76108     76109
     76106     76104     76108     76109     76107     76104     76108     76109
     76111     76110     76114     76115     76112     76110     76114     76115
     76113     76110     76114     76115     76117     76116     76120     76121
     76118     76116     76120     76121     76119     76116     76120     76121
     76123     76122     76126     76127     76124     76122     76126     76127
     76125     76122     76126     76127     76129     76128     76132     76133
     76130     76128     76132     76133     76131     76128     76132     76133
     76135     76134     76138     76139     76136     76134     76138     76139
     76137     76134     76138     76139     76141     76140     76144     76145
     76142     76140     76144     76145     76143     76140     76144     76145
     76147     76146     76150     76151     76148     76146     76150     76151
     76149     76146     76150     76151     76153     76152     76156     76157
     76154     76152     76156     76157     76155     76152     76156     76157
     76159     76158     76162     76163     76160     76158     76162     76163
     76161     76158     76162     76163     76165     76164     76168     76169
     76166     76164     76168     76169     76167     76164     76168     76169
     76171     76170     76174     76175     76172     76170     76174     76175
     76173     76170     76174     76175     76177     76176     76180     76181
     76178     76176     76180     76181     76179     76176     76180     76181
     76183     76182     76186     76187     76184     76182     76186     76187
     76185     76182     76186     76187     76189     76188     76192     76193
     76190     76188     76192     76193     76191     76188     76192     76193
     76195     76194     76198     76199     76196     76194     76198     76199
     76197     76194     76198     76199     76201     76200     76204     76205
     76202     76200     76204     76205     76203     76200     76204     76205
     76207     76206     76210     76211     76208     76206     76210     76211
     76209     76206     76210     76211     76213     76212     76216     76217
     76214     76212     76216     76217     76215     76212     76216     76217
     76219     76218     76222     76223     76220     76218     76222     76223
     76221     76218     76222     76223     76225     76224     76228     76229
     76226     76224     76228     76229     76227     76224     76228     76229
     76231     76230     76234     76235     76232     76230     76234     76235
     76233     76230     76234     76235     76237     76236     76240     76241
     76238     76236     76240     76241     76239     76236     76240     76241
     76243     76242     76246     76247     76244     76242     76246     76247
     76245     76242     76246     76247     76249     76248     76252     76253
     76250     76248     76252     76253     76251     76248     76252     76253
     76255     76254     76258     76259     76256     76254     76258     76259
     76257     76254     76258     76259     76261     76260     76264     76265
     76262     76260     76264     76265     76263     76260     76264     76265
     76267     76266     76270     76271     76268     76266     76270     76271
     76269     76266     76270     76271     76273     76272     76276     76277
     76274     76272     76276     76277     76275     76272     76276     76277
     76279     76278     76282     76283     76280     76278     76282     76283
     76281     76278     76282     76283     76285     76284     76288     76289
     76286     76284     76288     76289     76287     76284     76288     76289
     76291     76290     76294     76295     76292     76290     76294     76295
     76293     76290     76294     76295     76297     76296     76300     76301
     76298     76296     76300     76301     76299     76296     76300     76301
     76303     76302     76306     76307     76304     76302     76306     76307
     76305     76302     76306     76307     76309     76308     76312     76313
     76310     76308     76312     76313     76311     76308     76312     76313
     76315     76314     76318     76319     76316     76314     76318     76319
     76317     76314     76318     76319     76321     76320     76324     76325
     76322     76320     76324     76325     76323     76320     76324     76325
     76327     76326     76330     76331     76328     76326     76330     76331
     76329     76326     76330     76331     76333     76332     76336     76337
     76334     76332     76336     76337     76335     76332     76336     76337
     76339     76338     76342     76343     76340     76338     76342     76343
     76341     76338     76342     76343     76345     76344     76348     76349
     76346     76344     76348     76349     76347     76344     76348     76349
     76351     76350     76354     76355     76352     76350     76354     76355
     76353     76350     76354     76355     76357     76356     76360     76361
     76358     76356     76360     76361     76359     76356     76360     76361
     76363     76362     76366     76367     76364     76362     76366     76367
     76365     76362     76366     76367     76369     76368     76372     76373
     76370     76368     76372     76373     76371     76368     76372     76373
     76375     76374     76378     76379     76376     76374     76378     76379
     76377     76374     76378     76379     76381     76380     76384     76385
     76382     76380     76384     76385     76383     76380     76384     76385
     76387     76386     76390     76391     76388     76386     76390     76391
     76389     76386     76390     76391     76393     76392     76396     76397
     76394     76392     76396     76397     76395     76392     76396     76397
     76399     76398     76402     76403     76400     76398     76402     76403
     76401     76398     76402     76403     76405     76404     76408     76409
     76406     76404     76408     76409     76407     76404     76408     76409
     76411     76410     76414     76415     76412     76410     76414     76415
     76413     76410     76414     76415     76417     76416     76420     76421
     76418     76416     76420     76421     76419     76416     76420     76421
     76423     76422     76426     76427     76424     76422     76426     76427
     76425     76422     76426     76427     76429     76428     76432     76433
     76430     76428     76432     76433     76431     76428     76432     76433
     76435     76434     76438     76439     76436     76434     76438     76439
     76437     76434     76438     76439     76441     76440     76444     76445
     76442     76440     76444     76445     76443     76440     76444     76445
     76447     76446     76450     76451     76448     76446     76450     76451
     76449     76446     76450     76451     76453     76452     76456     76457
     76454     76452     76456     76457     76455     76452     76456     76457
     76459     76458     76462     76463     76460     76458     76462     76463
     76461     76458     76462     76463     76465     76464     76468     76469
     76466     76464     76468     76469     76467     76464     76468     76469
     76471     76470     76474     76475     76472     76470     76474     76475
     76473     76470     76474     76475     76477     76476     76480     76481
     76478     76476     76480     76481     76479     76476     76480     76481
     76483     76482     76486     76487     76484     76482     76486     76487
     76485     76482     76486     76487     76489     76488     76492     76493
     76490     76488     76492     76493     76491     76488     76492     76493
     76495     76494     76498     76499     76496     76494     76498     76499
     76497     76494     76498     76499     76501     76500     76504     76505
     76502     76500     76504     76505     76503     76500     76504     76505
     76507     76506     76510     76511     76508     76506     76510     76511
     76509     76506     76510     76511     76513     76512     76516     76517
     76514     76512     76516     76517     76515     76512     76516     76517
     76519     76518     76522     76523     76520     76518     76522     76523
     76521     76518     76522     76523     76525     76524     76528     76529
     76526     76524     76528     76529     76527     76524     76528     76529
     76531     76530     76534     76535     76532     76530     76534     76535
     76533     76530     76534     76535     76537     76536     76540     76541
     76538     76536     76540     76541     76539     76536     76540     76541
     76543     76542     76546     76547     76544     76542     76546     76547
     76545     76542     76546     76547     76549     76548     76552     76553
     76550     76548     76552     76553     76551     76548     76552     76553
     76555     76554     76558     76559     76556     76554     76558     76559
     76557     76554     76558     76559     76561     76560     76564     76565
     76562     76560     76564     76565     76563     76560     76564     76565
     76567     76566     76570     76571     76568     76566     76570     76571
     76569     76566     76570     76571     76573     76572     76576     76577
     76574     76572     76576     76577     76575     76572     76576     76577
     76579     76578     76582     76583     76580     76578     76582     76583
     76581     76578     76582     76583     76585     76584     76588     76589
     76586     76584     76588     76589     76587     76584     76588     76589
     76591     76590     76594     76595     76592     76590     76594     76595
     76593     76590     76594     76595     76597     76596     76600     76601
     76598     76596     76600     76601     76599     76596     76600     76601
     76603     76602     76606     76607     76604     76602     76606     76607
     76605     76602     76606     76607     76609     76608     76612     76613
     76610     76608     76612     76613     76611     76608     76612     76613
     76615     76614     76618     76619     76616     76614     76618     76619
     76617     76614     76618     76619     76621     76620     76624     76625
     76622     76620     76624     76625     76623     76620     76624     76625
     76627     76626     76630     76631     76628     76626     76630     76631
     76629     76626     76630     76631     76633     76632     76636     76637
     76634     76632     76636     76637     76635     76632     76636     76637
     76639     76638     76642     76643     76640     76638     76642     76643
     76641     76638     76642     76643     76645     76644     76648     76649
     76646     76644     76648     76649     76647     76644     76648     76649
     76651     76650     76654     76655     76652     76650     76654     76655
     76653     76650     76654     76655     76657     76656     76660     76661
     76658     76656     76660     76661     76659     76656     76660     76661
     76663     76662     76666     76667     76664     76662     76666     76667
     76665     76662     76666     76667     76669     76668     76672     76673
     76670     76668     76672     76673     76671     76668     76672     76673
     76675     76674     76678     76679     76676     76674     76678     76679
     76677     76674     76678     76679     76681     76680     76684     76685
     76682     76680     76684     76685     76683     76680     76684     76685
     76687     76686     76690     76691     76688     76686     76690     76691
     76689     76686     76690     76691     76693     76692     76696     76697
     76694     76692     76696     76697     76695     76692     76696     76697
     76699     76698     76702     76703     76700     76698     76702     76703
     76701     76698     76702     76703     76705     76704     76708     76709
     76706     76704     76708     76709     76707     76704     76708     76709
     76711     76710     76714     76715     76712     76710     76714     76715
     76713     76710     76714     76715     76717     76716     76720     76721
     76718     76716     76720     76721     76719     76716     76720     76721
     76723     76722     76726     76727     76724     76722     76726     76727
     76725     76722     76726     76727     76729     76728     76732     76733
     76730     76728     76732     76733     76731     76728     76732     76733
     76735     76734     76738     76739     76736     76734     76738     76739
     76737     76734     76738     76739     76741     76740     76744     76745
     76742     76740     76744     76745     76743     76740     76744     76745
     76747     76746     76750     76751     76748     76746     76750     76751
     76749     76746     76750     76751     76753     76752     76756     76757
     76754     76752     76756     76757     76755     76752     76756     76757
     76759     76758     76762     76763     76760     76758     76762     76763
     76761     76758     76762     76763     76765     76764     76768     76769
     76766     76764     76768     76769     76767     76764     76768     76769
     76771     76770     76774     76775     76772     76770     76774     76775
     76773     76770     76774     76775     76777     76776     76780     76781
     76778     76776     76780     76781     76779     76776     76780     76781
     76783     76782     76786     76787     76784     76782     76786     76787
     76785     76782     76786     76787     76789     76788     76792     76793
     76790     76788     76792     76793     76791     76788     76792     76793
     76795     76794     76798     76799     76796     76794     76798     76799
     76797     76794     76798     76799     76801     76800     76804     76805
     76802     76800     76804     76805     76803     76800     76804     76805
     76807     76806     76810     76811     76808     76806     76810     76811
     76809     76806     76810     76811     76813     76812     76816     76817
     76814     76812     76816     76817     76815     76812     76816     76817
     76819     76818     76822     76823     76820     76818     76822     76823
     76821     76818     76822     76823     76825     76824     76828     76829
     76826     76824     76828     76829     76827     76824     76828     76829
     76831     76830     76834     76835     76832     76830     76834     76835
     76833     76830     76834     76835     76837     76836     76840     76841
     76838     76836     76840     76841     76839     76836     76840     76841
     76843     76842     76846     76847     76844     76842     76846     76847
     76845     76842     76846     76847     76849     76848     76852     76853
     76850     76848     76852     76853     76851     76848     76852     76853
     76855     76854     76858     76859     76856     76854     76858     76859
     76857     76854     76858     76859     76861     76860     76864     76865
     76862     76860     76864     76865     76863     76860     76864     76865
     76867     76866     76870     76871     76868     76866     76870     76871
     76869     76866     76870     76871     76873     76872     76876     76877
     76874     76872     76876     76877     76875     76872     76876     76877
     76879     76878     76882     76883     76880     76878     76882     76883
     76881     76878     76882     76883     76885     76884     76888     76889
     76886     76884     76888     76889     76887     76884     76888     76889
     76891     76890     76894     76895     76892     76890     76894     76895
     76893     76890     76894     76895     76897     76896     76900     76901
     76898     76896     76900     76901     76899     76896     76900     76901
     76903     76902     76906     76907     76904     76902     76906     76907
     76905     76902     76906     76907     76909     76908     76912     76913
     76910     76908     76912     76913     76911     76908     76912     76913
     76915     76914     76918     76919     76916     76914     76918     76919
     76917     76914     76918     76919     76921     76920     76924     76925
     76922     76920     76924     76925     76923     76920     76924     76925
     76927     76926     76930     76931     76928     76926     76930     76931
     76929     76926     76930     76931     76933     76932     76936     76937
     76934     76932     76936     76937     76935     76932     76936     76937
     76939     76938     76942     76943     76940     76938     76942     76943
     76941     76938     76942     76943     76945     76944     76948     76949
     76946     76944     76948     76949     76947     76944     76948     76949
     76951     76950     76954     76955     76952     76950     76954     76955
     76953     76950     76954     76955     76957     76956     76960     76961
     76958     76956     76960     76961     76959     76956     76960     76961
     76963     76962     76966     76967     76964     76962     76966     76967
     76965     76962     76966     76967     76969     76968     76972     76973
     76970     76968     76972     76973     76971     76968     76972     76973
     76975     76974     76978     76979     76976     76974     76978     76979
     76977     76974     76978     76979     76981     76980     76984     76985
     76982     76980     76984     76985     76983     76980     76984     76985
     76987     76986     76990     76991     76988     76986     76990     76991
     76989     76986     76990     76991     76993     76992     76996     76997
     76994     76992     76996     76997     76995     76992     76996     76997
     76999     76998     77002     77003     77000     76998     77002     77003
     77001     76998     77002     77003     77005     77004     77008     77009
     77006     77004     77008     77009     77007     77004     77008     77009
     77011     77010     77014     77015     77012     77010     77014     77015
     77013     77010     77014     77015     77017     77016     77020     77021
     77018     77016     77020     77021     77019     77016     77020     77021
     77023     77022     77026     77027     77024     77022     77026     77027
     77025     77022     77026     77027     77029     77028     77032     77033
     77030     77028     77032     77033     77031     77028     77032     77033
     77035     77034     77038     77039     77036     77034     77038     77039
     77037     77034     77038     77039     77041     77040     77044     77045
     77042     77040     77044     77045     77043     77040     77044     77045
     77047     77046     77050     77051     77048     77046     77050     77051
     77049     77046     77050     77051     77053     77052     77056     77057
     77054     77052     77056     77057     77055     77052     77056     77057
     77059     77058     77062     77063     77060     77058     77062     77063
     77061     77058     77062     77063     77065     77064     77068     77069
     77066     77064     77068     77069     77067     77064     77068     77069
     77071     77070     77074     77075     77072     77070     77074     77075
     77073     77070     77074     77075     77077     77076     77080     77081
     77078     77076     77080     77081     77079     77076     77080     77081
     77083     77082     77086     77087     77084     77082     77086     77087
     77085     77082     77086     77087     77089     77088     77092     77093
     77090     77088     77092     77093     77091     77088     77092     77093
     77095     77094     77098     77099     77096     77094     77098     77099
     77097     77094     77098     77099     77101     77100     77104     77105
     77102     77100     77104     77105     77103     77100     77104     77105
     77107     77106     77110     77111     77108     77106     77110     77111
     77109     77106     77110     77111     77113     77112     77116     77117
     77114     77112     77116     77117     77115     77112     77116     77117
     77119     77118     77122     77123     77120     77118     77122     77123
     77121     77118     77122     77123     77125     77124     77128     77129
     77126     77124     77128     77129     77127     77124     77128     77129
     77131     77130     77134     77135     77132     77130     77134     77135
     77133     77130     77134     77135     77137     77136     77140     77141
     77138     77136     77140     77141     77139     77136     77140     77141
     77143     77142     77146     77147     77144     77142     77146     77147
     77145     77142     77146     77147     77149     77148     77152     77153
     77150     77148     77152     77153     77151     77148     77152     77153
     77155     77154     77158     77159     77156     77154     77158     77159
     77157     77154     77158     77159     77161     77160     77164     77165
     77162     77160     77164     77165     77163     77160     77164     77165
     77167     77166     77170     77171     77168     77166     77170     77171
     77169     77166     77170     77171     77173     77172     77176     77177
     77174     77172     77176     77177     77175     77172     77176     77177
     77179     77178     77182     77183     77180     77178     77182     77183
     77181     77178     77182     77183     77185     77184     77188     77189
     77186     77184     77188     77189     77187     77184     77188     77189
     77191     77190     77194     77195     77192     77190     77194     77195
     77193     77190     77194     77195     77197     77196     77200     77201
     77198     77196     77200     77201     77199     77196     77200     77201
     77203     77202     77206     77207     77204     77202     77206     77207
     77205     77202     77206     77207     77209     77208     77212     77213
     77210     77208     77212     77213     77211     77208     77212     77213
     77215     77214     77218     77219     77216     77214     77218     77219
     77217     77214     77218     77219     77221     77220     77224     77225
     77222     77220     77224     77225     77223     77220     77224     77225
     77227     77226     77230     77231     77228     77226     77230     77231
     77229     77226     77230     77231     77233     77232     77236     77237
     77234     77232     77236     77237     77235     77232     77236     77237
     77239     77238     77242     77243     77240     77238     77242     77243
     77241     77238     77242     77243     77245     77244     77248     77249
     77246     77244     77248     77249     77247     77244     77248     77249
     77251     77250     77254     77255     77252     77250     77254     77255
     77253     77250     77254     77255     77257     77256     77260     77261
     77258     77256     77260     77261     77259     77256     77260     77261
     77263     77262     77266     77267     77264     77262     77266     77267
     77265     77262     77266     77267     77269     77268     77272     77273
     77270     77268     77272     77273     77271     77268     77272     77273
     77275     77274     77278     77279     77276     77274     77278     77279
     77277     77274     77278     77279     77281     77280     77284     77285
     77282     77280     77284     77285     77283     77280     77284     77285
     77287     77286     77290     77291     77288     77286     77290     77291
     77289     77286     77290     77291     77293     77292     77296     77297
     77294     77292     77296     77297     77295     77292     77296     77297
     77299     77298     77302     77303     77300     77298     77302     77303
     77301     77298     77302     77303     77305     77304     77308     77309
     77306     77304     77308     77309     77307     77304     77308     77309
     77311     77310     77314     77315     77312     77310     77314     77315
     77313     77310     77314     77315     77317     77316     77320     77321
     77318     77316     77320     77321     77319     77316     77320     77321
     77323     77322     77326     77327     77324     77322     77326     77327
     77325     77322     77326     77327     77329     77328     77332     77333
     77330     77328     77332     77333     77331     77328     77332     77333
     77335     77334     77338     77339     77336     77334     77338     77339
     77337     77334     77338     77339     77341     77340     77344     77345
     77342     77340     77344     77345     77343     77340     77344     77345
     77347     77346     77350     77351     77348     77346     77350     77351
     77349     77346     77350     77351     77353     77352     77356     77357
     77354     77352     77356     77357     77355     77352     77356     77357
     77359     77358     77362     77363     77360     77358     77362     77363
     77361     77358     77362     77363     77365     77364     77368     77369
     77366     77364     77368     77369     77367     77364     77368     77369
     77371     77370     77374     77375     77372     77370     77374     77375
     77373     77370     77374     77375     77377     77376     77380     77381
     77378     77376     77380     77381     77379     77376     77380     77381
     77383     77382     77386     77387     77384     77382     77386     77387
     77385     77382     77386     77387     77389     77388     77392     77393
     77390     77388     77392     77393     77391     77388     77392     77393
     77395     77394     77398     77399     77396     77394     77398     77399
     77397     77394     77398     77399     77401     77400     77404     77405
     77402     77400     77404     77405     77403     77400     77404     77405
     77407     77406     77410     77411     77408     77406     77410     77411
     77409     77406     77410     77411     77413     77412     77416     77417
     77414     77412     77416     77417     77415     77412     77416     77417
     77419     77418     77422     77423     77420     77418     77422     77423
     77421     77418     77422     77423     77425     77424     77428     77429
     77426     77424     77428     77429     77427     77424     77428     77429
     77431     77430     77434     77435     77432     77430     77434     77435
     77433     77430     77434     77435     77437     77436     77440     77441
     77438     77436     77440     77441     77439     77436     77440     77441
     77443     77442     77446     77447     77444     77442     77446     77447
     77445     77442     77446     77447     77449     77448     77452     77453
     77450     77448     77452     77453     77451     77448     77452     77453
     77455     77454     77458     77459     77456     77454     77458     77459
     77457     77454     77458     77459     77461     77460     77464     77465
     77462     77460     77464     77465     77463     77460     77464     77465
     77467     77466     77470     77471     77468     77466     77470     77471
     77469     77466     77470     77471     77473     77472     77476     77477
     77474     77472     77476     77477     77475     77472     77476     77477
     77479     77478     77482     77483     77480     77478     77482     77483
     77481     77478     77482     77483     77485     77484     77488     77489
     77486     77484     77488     77489     77487     77484     77488     77489
     77491     77490     77494     77495     77492     77490     77494     77495
     77493     77490     77494     77495     77497     77496     77500     77501
     77498     77496     77500     77501     77499     77496     77500     77501
     77503     77502     77506     77507     77504     77502     77506     77507
     77505     77502     77506     77507     77509     77508     77512     77513
     77510     77508     77512     77513     77511     77508     77512     77513
     77515     77514     77518     77519     77516     77514     77518     77519
     77517     77514     77518     77519     77521     77520     77524     77525
     77522     77520     77524     77525     77523     77520     77524     77525
     77527     77526     77530     77531     77528     77526     77530     77531
     77529     77526     77530     77531     77533     77532     77536     77537
     77534     77532     77536     77537     77535     77532     77536     77537
     77539     77538     77542     77543     77540     77538     77542     77543
     77541     77538     77542     77543     77545     77544     77548     77549
     77546     77544     77548     77549     77547     77544     77548     77549
     77551     77550     77554     77555     77552     77550     77554     77555
     77553     77550     77554     77555     77557     77556     77560     77561
     77558     77556     77560     77561     77559     77556     77560     77561
     77563     77562     77566     77567     77564     77562     77566     77567
     77565     77562     77566     77567     77569     77568     77572     77573
     77570     77568     77572     77573     77571     77568     77572     77573
     77575     77574     77578     77579     77576     77574     77578     77579
     77577     77574     77578     77579     77581     77580     77584     77585
     77582     77580     77584     77585     77583     77580     77584     77585
     77587     77586     77590     77591     77588     77586     77590     77591
     77589     77586     77590     77591     77593     77592     77596     77597
     77594     77592     77596     77597     77595     77592     77596     77597
     77599     77598     77602     77603     77600     77598     77602     77603
     77601     77598     77602     77603     77605     77604     77608     77609
     77606     77604     77608     77609     77607     77604     77608     77609
     77611     77610     77614     77615     77612     77610     77614     77615
     77613     77610     77614     77615     77617     77616     77620     77621
     77618     77616     77620     77621     77619     77616     77620     77621
     77623     77622     77626     77627     77624     77622     77626     77627
     77625     77622     77626     77627     77629     77628     77632     77633
     77630     77628     77632     77633     77631     77628     77632     77633
     77635     77634     77638     77639     77636     77634     77638     77639
     77637     77634     77638     77639     77641     77640     77644     77645
     77642     77640     77644     77645     77643     77640     77644     77645
     77647     77646     77650     77651     77648     77646     77650     77651
     77649     77646     77650     77651     77653     77652     77656     77657
     77654     77652     77656     77657     77655     77652     77656     77657
     77659     77658     77662     77663     77660     77658     77662     77663
     77661     77658     77662     77663     77665     77664     77668     77669
     77666     77664     77668     77669     77667     77664     77668     77669
     77671     77670     77674     77675     77672     77670     77674     77675
     77673     77670     77674     77675     77677     77676     77680     77681
     77678     77676     77680     77681     77679     77676     77680     77681
     77683     77682     77686     77687     77684     77682     77686     77687
     77685     77682     77686     77687     77689     77688     77692     77693
     77690     77688     77692     77693     77691     77688     77692     77693
     77695     77694     77698     77699     77696     77694     77698     77699
     77697     77694     77698     77699     77701     77700     77704     77705
     77702     77700     77704     77705     77703     77700     77704     77705
     77707     77706     77710     77711     77708     77706     77710     77711
     77709     77706     77710     77711     77713     77712     77716     77717
     77714     77712     77716     77717     77715     77712     77716     77717
     77719     77718     77722     77723     77720     77718     77722     77723
     77721     77718     77722     77723     77725     77724     77728     77729
     77726     77724     77728     77729     77727     77724     77728     77729
     77731     77730     77734     77735     77732     77730     77734     77735
     77733     77730     77734     77735     77737     77736     77740     77741
     77738     77736     77740     77741     77739     77736     77740     77741
     77743     77742     77746     77747     77744     77742     77746     77747
     77745     77742     77746     77747     77749     77748     77752     77753
     77750     77748     77752     77753     77751     77748     77752     77753
     77755     77754     77758     77759     77756     77754     77758     77759
     77757     77754     77758     77759     77761     77760     77764     77765
     77762     77760     77764     77765     77763     77760     77764     77765
     77767     77766     77770     77771     77768     77766     77770     77771
     77769     77766     77770     77771     77773     77772     77776     77777
     77774     77772     77776     77777     77775     77772     77776     77777
     77779     77778     77782     77783     77780     77778     77782     77783
     77781     77778     77782     77783     77785     77784     77788     77789
     77786     77784     77788     77789     77787     77784     77788     77789
     77791     77790     77794     77795     77792     77790     77794     77795
     77793     77790     77794     77795     77797     77796     77800     77801
     77798     77796     77800     77801     77799     77796     77800     77801
     77803     77802     77806     77807     77804     77802     77806     77807
     77805     77802     77806     77807     77809     77808     77812     77813
     77810     77808     77812     77813     77811     77808     77812     77813
     77815     77814     77818     77819     77816     77814     77818     77819
     77817     77814     77818     77819     77821     77820     77824     77825
     77822     77820     77824     77825     77823     77820     77824     77825
     77827     77826     77830     77831     77828     77826     77830     77831
     77829     77826     77830     77831     77833     77832     77836     77837
     77834     77832     77836     77837     77835     77832     77836     77837
     77839     77838     77842     77843     77840     77838     77842     77843
     77841     77838     77842     77843     77845     77844     77848     77849
     77846     77844     77848     77849     77847     77844     77848     77849
     77851     77850     77854     77855     77852     77850     77854     77855
     77853     77850     77854     77855     77857     77856     77860     77861
     77858     77856     77860     77861     77859     77856     77860     77861
     77863     77862     77866     77867     77864     77862     77866     77867
     77865     77862     77866     77867     77869     77868     77872     77873
     77870     77868     77872     77873     77871     77868     77872     77873
     77875     77874     77878     77879     77876     77874     77878     77879
     77877     77874     77878     77879     77881     77880     77884     77885
     77882     77880     77884     77885     77883     77880     77884     77885
     77887     77886     77890     77891     77888     77886     77890     77891
     77889     77886     77890     77891     77893     77892     77896     77897
     77894     77892     77896     77897     77895     77892     77896     77897
     77899     77898     77902     77903     77900     77898     77902     77903
     77901     77898     77902     77903     77905     77904     77908     77909
     77906     77904     77908     77909     77907     77904     77908     77909
     77911     77910     77914     77915     77912     77910     77914     77915
     77913     77910     77914     77915     77917     77916     77920     77921
     77918     77916     77920     77921     77919     77916     77920     77921
     77923     77922     77926     77927     77924     77922     77926     77927
     77925     77922     77926     77927     77929     77928     77932     77933
     77930     77928     77932     77933     77931     77928     77932     77933
     77935     77934     77938     77939     77936     77934     77938     77939
     77937     77934     77938     77939     77941     77940     77944     77945
     77942     77940     77944     77945     77943     77940     77944     77945
     77947     77946     77950     77951     77948     77946     77950     77951
     77949     77946     77950     77951     77953     77952     77956     77957
     77954     77952     77956     77957     77955     77952     77956     77957
     77959     77958     77962     77963     77960     77958     77962     77963
     77961     77958     77962     77963     77965     77964     77968     77969
     77966     77964     77968     77969     77967     77964     77968     77969
     77971     77970     77974     77975     77972     77970     77974     77975
     77973     77970     77974     77975     77977     77976     77980     77981
     77978     77976     77980     77981     77979     77976     77980     77981
     77983     77982     77986     77987     77984     77982     77986     77987
     77985     77982     77986     77987     77989     77988     77992     77993
     77990     77988     77992     77993     77991     77988     77992     77993
     77995     77994     77998     77999     77996     77994     77998     77999
     77997     77994     77998     77999     78001     78000     78004     78005
     78002     78000     78004     78005     78003     78000     78004     78005
     78007     78006     78010     78011     78008     78006     78010     78011
     78009     78006     78010     78011     78013     78012     78016     78017
     78014     78012     78016     78017     78015     78012     78016     78017
     78019     78018     78022     78023     78020     78018     78022     78023
     78021     78018     78022     78023     78025     78024     78028     78029
     78026     78024     78028     78029     78027     78024     78028     78029
     78031     78030     78034     78035     78032     78030     78034     78035
     78033     78030     78034     78035     78037     78036     78040     78041
     78038     78036     78040     78041     78039     78036     78040     78041
     78043     78042     78046     78047     78044     78042     78046     78047
     78045     78042     78046     78047     78049     78048     78052     78053
     78050     78048     78052     78053     78051     78048     78052     78053
     78055     78054     78058     78059     78056     78054     78058     78059
     78057     78054     78058     78059     78061     78060     78064     78065
     78062     78060     78064     78065     78063     78060     78064     78065
     78067     78066     78070     78071     78068     78066     78070     78071
     78069     78066     78070     78071     78073     78072     78076     78077
     78074     78072     78076     78077     78075     78072     78076     78077
     78079     78078     78082     78083     78080     78078     78082     78083
     78081     78078     78082     78083     78085     78084     78088     78089
     78086     78084     78088     78089     78087     78084     78088     78089
     78091     78090     78094     78095     78092     78090     78094     78095
     78093     78090     78094     78095     78097     78096     78100     78101
     78098     78096     78100     78101     78099     78096     78100     78101
     78103     78102     78106     78107     78104     78102     78106     78107
     78105     78102     78106     78107     78109     78108     78112     78113
     78110     78108     78112     78113     78111     78108     78112     78113
     78115     78114     78118     78119     78116     78114     78118     78119
     78117     78114     78118     78119     78121     78120     78124     78125
     78122     78120     78124     78125     78123     78120     78124     78125
     78127     78126     78130     78131     78128     78126     78130     78131
     78129     78126     78130     78131     78133     78132     78136     78137
     78134     78132     78136     78137     78135     78132     78136     78137
     78139     78138     78142     78143     78140     78138     78142     78143
     78141     78138     78142     78143     78145     78144     78148     78149
     78146     78144     78148     78149     78147     78144     78148     78149
     78151     78150     78154     78155     78152     78150     78154     78155
     78153     78150     78154     78155     78157     78156     78160     78161
     78158     78156     78160     78161     78159     78156     78160     78161
     78163     78162     78166     78167     78164     78162     78166     78167
     78165     78162     78166     78167     78169     78168     78172     78173
     78170     78168     78172     78173     78171     78168     78172     78173
     78175     78174     78178     78179     78176     78174     78178     78179
     78177     78174     78178     78179     78181     78180     78184     78185
     78182     78180     78184     78185     78183     78180     78184     78185
     78187     78186     78190     78191     78188     78186     78190     78191
     78189     78186     78190     78191     78193     78192     78196     78197
     78194     78192     78196     78197     78195     78192     78196     78197
     78199     78198     78202     78203     78200     78198     78202     78203
     78201     78198     78202     78203     78205     78204     78208     78209
     78206     78204     78208     78209     78207     78204     78208     78209
     78211     78210     78214     78215     78212     78210     78214     78215
     78213     78210     78214     78215     78217     78216     78220     78221
     78218     78216     78220     78221     78219     78216     78220     78221
     78223     78222     78226     78227     78224     78222     78226     78227
     78225     78222     78226     78227     78229     78228     78232     78233
     78230     78228     78232     78233     78231     78228     78232     78233
     78235     78234     78238     78239     78236     78234     78238     78239
     78237     78234     78238     78239     78241     78240     78244     78245
     78242     78240     78244     78245     78243     78240     78244     78245
     78247     78246     78250     78251     78248     78246     78250     78251
     78249     78246     78250     78251     78253     78252     78256     78257
     78254     78252     78256     78257     78255     78252     78256     78257
     78259     78258     78262     78263     78260     78258     78262     78263
     78261     78258     78262     78263     78265     78264     78268     78269
     78266     78264     78268     78269     78267     78264     78268     78269
     78271     78270     78274     78275     78272     78270     78274     78275
     78273     78270     78274     78275     78277     78276     78280     78281
     78278     78276     78280     78281     78279     78276     78280     78281
     78283     78282     78286     78287     78284     78282     78286     78287
     78285     78282     78286     78287     78289     78288     78292     78293
     78290     78288     78292     78293     78291     78288     78292     78293
     78295     78294     78298     78299     78296     78294     78298     78299
     78297     78294     78298     78299     78301     78300     78304     78305
     78302     78300     78304     78305     78303     78300     78304     78305
     78307     78306     78310     78311     78308     78306     78310     78311
     78309     78306     78310     78311     78313     78312     78316     78317
     78314     78312     78316     78317     78315     78312     78316     78317
     78319     78318     78322     78323     78320     78318     78322     78323
     78321     78318     78322     78323     78325     78324     78328     78329
     78326     78324     78328     78329     78327     78324     78328     78329
     78331     78330     78334     78335     78332     78330     78334     78335
     78333     78330     78334     78335     78337     78336     78340     78341
     78338     78336     78340     78341     78339     78336     78340     78341
     78343     78342     78346     78347     78344     78342     78346     78347
     78345     78342     78346     78347     78349     78348     78352     78353
     78350     78348     78352     78353     78351     78348     78352     78353
     78355     78354     78358     78359     78356     78354     78358     78359
     78357     78354     78358     78359     78361     78360     78364     78365
     78362     78360     78364     78365     78363     78360     78364     78365
     78367     78366     78370     78371     78368     78366     78370     78371
     78369     78366     78370     78371     78373     78372     78376     78377
     78374     78372     78376     78377     78375     78372     78376     78377
     78379     78378     78382     78383     78380     78378     78382     78383
     78381     78378     78382     78383     78385     78384     78388     78389
     78386     78384     78388     78389     78387     78384     78388     78389
     78391     78390     78394     78395     78392     78390     78394     78395
     78393     78390     78394     78395     78397     78396     78400     78401
     78398     78396     78400     78401     78399     78396     78400     78401
     78403     78402     78406     78407     78404     78402     78406     78407
     78405     78402     78406     78407     78409     78408     78412     78413
     78410     78408     78412     78413     78411     78408     78412     78413
     78415     78414     78418     78419     78416     78414     78418     78419
     78417     78414     78418     78419     78421     78420     78424     78425
     78422     78420     78424     78425     78423     78420     78424     78425
     78427     78426     78430     78431     78428     78426     78430     78431
     78429     78426     78430     78431     78433     78432     78436     78437
     78434     78432     78436     78437     78435     78432     78436     78437
     78439     78438     78442     78443     78440     78438     78442     78443
     78441     78438     78442     78443     78445     78444     78448     78449
     78446     78444     78448     78449     78447     78444     78448     78449
     78451     78450     78454     78455     78452     78450     78454     78455
     78453     78450     78454     78455     78457     78456     78460     78461
     78458     78456     78460     78461     78459     78456     78460     78461
     78463     78462     78466     78467     78464     78462     78466     78467
     78465     78462     78466     78467     78469     78468     78472     78473
     78470     78468     78472     78473     78471     78468     78472     78473
     78475     78474     78478     78479     78476     78474     78478     78479
     78477     78474     78478     78479     78481     78480     78484     78485
     78482     78480     78484     78485     78483     78480     78484     78485
     78487     78486     78490     78491     78488     78486     78490     78491
     78489     78486     78490     78491     78493     78492     78496     78497
     78494     78492     78496     78497     78495     78492     78496     78497
     78499     78498     78502     78503     78500     78498     78502     78503
     78501     78498     78502     78503     78505     78504     78508     78509
     78506     78504     78508     78509     78507     78504     78508     78509
     78511     78510     78514     78515     78512     78510     78514     78515
     78513     78510     78514     78515     78517     78516     78520     78521
     78518     78516     78520     78521     78519     78516     78520     78521
     78523     78522     78526     78527     78524     78522     78526     78527
     78525     78522     78526     78527     78529     78528     78532     78533
     78530     78528     78532     78533     78531     78528     78532     78533
     78535     78534     78538     78539     78536     78534     78538     78539
     78537     78534     78538     78539     78541     78540     78544     78545
     78542     78540     78544     78545     78543     78540     78544     78545
     78547     78546     78550     78551     78548     78546     78550     78551
     78549     78546     78550     78551     78553     78552     78556     78557
     78554     78552     78556     78557     78555     78552     78556     78557
     78559     78558     78562     78563     78560     78558     78562     78563
     78561     78558     78562     78563     78565     78564     78568     78569
     78566     78564     78568     78569     78567     78564     78568     78569
     78571     78570     78574     78575     78572     78570     78574     78575
     78573     78570     78574     78575     78577     78576     78580     78581
     78578     78576     78580     78581     78579     78576     78580     78581
     78583     78582     78586     78587     78584     78582     78586     78587
     78585     78582     78586     78587     78589     78588     78592     78593
     78590     78588     78592     78593     78591     78588     78592     78593
     78595     78594     78598     78599     78596     78594     78598     78599
     78597     78594     78598     78599     78601     78600     78604     78605
     78602     78600     78604     78605     78603     78600     78604     78605
     78607     78606     78610     78611     78608     78606     78610     78611
     78609     78606     78610     78611     78613     78612     78616     78617
     78614     78612     78616     78617     78615     78612     78616     78617
     78619     78618     78622     78623     78620     78618     78622     78623
     78621     78618     78622     78623     78625     78624     78628     78629
     78626     78624     78628     78629     78627     78624     78628     78629
     78631     78630     78634     78635     78632     78630     78634     78635
     78633     78630     78634     78635     78637     78636     78640     78641
     78638     78636     78640     78641     78639     78636     78640     78641
     78643     78642     78646     78647     78644     78642     78646     78647
     78645     78642     78646     78647     78649     78648     78652     78653
     78650     78648     78652     78653     78651     78648     78652     78653
     78655     78654     78658     78659     78656     78654     78658     78659
     78657     78654     78658     78659     78661     78660     78664     78665
     78662     78660     78664     78665     78663     78660     78664     78665
     78667     78666     78670     78671     78668     78666     78670     78671
     78669     78666     78670     78671     78673     78672     78676     78677
     78674     78672     78676     78677     78675     78672     78676     78677
     78679     78678     78682     78683     78680     78678     78682     78683
     78681     78678     78682     78683     78685     78684     78688     78689
     78686     78684     78688     78689     78687     78684     78688     78689
     78691     78690     78694     78695     78692     78690     78694     78695
     78693     78690     78694     78695     78697     78696     78700     78701
     78698     78696     78700     78701     78699     78696     78700     78701
     78703     78702     78706     78707     78704     78702     78706     78707
     78705     78702     78706     78707     78709     78708     78712     78713
     78710     78708     78712     78713     78711     78708     78712     78713
     78715     78714     78718     78719     78716     78714     78718     78719
     78717     78714     78718     78719     78721     78720     78724     78725
     78722     78720     78724     78725     78723     78720     78724     78725
     78727     78726     78730     78731     78728     78726     78730     78731
     78729     78726     78730     78731     78733     78732     78736     78737
     78734     78732     78736     78737     78735     78732     78736     78737
     78739     78738     78742     78743     78740     78738     78742     78743
     78741     78738     78742     78743     78745     78744     78748     78749
     78746     78744     78748     78749     78747     78744     78748     78749
     78751     78750     78754     78755     78752     78750     78754     78755
     78753     78750     78754     78755     78757     78756     78760     78761
     78758     78756     78760     78761     78759     78756     78760     78761
     78763     78762     78766     78767     78764     78762     78766     78767
     78765     78762     78766     78767     78769     78768     78772     78773
     78770     78768     78772     78773     78771     78768     78772     78773
     78775     78774     78778     78779     78776     78774     78778     78779
     78777     78774     78778     78779     78781     78780     78784     78785
     78782     78780     78784     78785     78783     78780     78784     78785
     78787     78786     78790     78791     78788     78786     78790     78791
     78789     78786     78790     78791     78793     78792     78796     78797
     78794     78792     78796     78797     78795     78792     78796     78797
     78799     78798     78802     78803     78800     78798     78802     78803
     78801     78798     78802     78803     78805     78804     78808     78809
     78806     78804     78808     78809     78807     78804     78808     78809
     78811     78810     78814     78815     78812     78810     78814     78815
     78813     78810     78814     78815     78817     78816     78820     78821
     78818     78816     78820     78821     78819     78816     78820     78821
     78823     78822     78826     78827     78824     78822     78826     78827
     78825     78822     78826     78827     78829     78828     78832     78833
     78830     78828     78832     78833     78831     78828     78832     78833
     78835     78834     78838     78839     78836     78834     78838     78839
     78837     78834     78838     78839     78841     78840     78844     78845
     78842     78840     78844     78845     78843     78840     78844     78845
     78847     78846     78850     78851     78848     78846     78850     78851
     78849     78846     78850     78851     78853     78852     78856     78857
     78854     78852     78856     78857     78855     78852     78856     78857
     78859     78858     78862     78863     78860     78858     78862     78863
     78861     78858     78862     78863     78865     78864     78868     78869
     78866     78864     78868     78869     78867     78864     78868     78869
     78871     78870     78874     78875     78872     78870     78874     78875
     78873     78870     78874     78875     78877     78876     78880     78881
     78878     78876     78880     78881     78879     78876     78880     78881
     78883     78882     78886     78887     78884     78882     78886     78887
     78885     78882     78886     78887     78889     78888     78892     78893
     78890     78888     78892     78893     78891     78888     78892     78893
     78895     78894     78898     78899     78896     78894     78898     78899
     78897     78894     78898     78899     78901     78900     78904     78905
     78902     78900     78904     78905     78903     78900     78904     78905
     78907     78906     78910     78911     78908     78906     78910     78911
     78909     78906     78910     78911     78913     78912     78916     78917
     78914     78912     78916     78917     78915     78912     78916     78917
     78919     78918     78922     78923     78920     78918     78922     78923
     78921     78918     78922     78923     78925     78924     78928     78929
     78926     78924     78928     78929     78927     78924     78928     78929
     78931     78930     78934     78935     78932     78930     78934     78935
     78933     78930     78934     78935     78937     78936     78940     78941
     78938     78936     78940     78941     78939     78936     78940     78941
     78943     78942     78946     78947     78944     78942     78946     78947
     78945     78942     78946     78947     78949     78948     78952     78953
     78950     78948     78952     78953     78951     78948     78952     78953
     78955     78954     78958     78959     78956     78954     78958     78959
     78957     78954     78958     78959     78961     78960     78964     78965
     78962     78960     78964     78965     78963     78960     78964     78965
     78967     78966     78970     78971     78968     78966     78970     78971
     78969     78966     78970     78971     78973     78972     78976     78977
     78974     78972     78976     78977     78975     78972     78976     78977
     78979     78978     78982     78983     78980     78978     78982     78983
     78981     78978     78982     78983     78985     78984     78988     78989
     78986     78984     78988     78989     78987     78984     78988     78989
     78991     78990     78994     78995     78992     78990     78994     78995
     78993     78990     78994     78995     78997     78996     79000     79001
     78998     78996     79000     79001     78999     78996     79000     79001
     79003     79002     79006     79007     79004     79002     79006     79007
     79005     79002     79006     79007     79009     79008     79012     79013
     79010     79008     79012     79013     79011     79008     79012     79013
     79015     79014     79018     79019     79016     79014     79018     79019
     79017     79014     79018     79019     79021     79020     79024     79025
     79022     79020     79024     79025     79023     79020     79024     79025
     79027     79026     79030     79031     79028     79026     79030     79031
     79029     79026     79030     79031     79033     79032     79036     79037
     79034     79032     79036     79037     79035     79032     79036     79037
     79039     79038     79042     79043     79040     79038     79042     79043
     79041     79038     79042     79043     79045     79044     79048     79049
     79046     79044     79048     79049     79047     79044     79048     79049
     79051     79050     79054     79055     79052     79050     79054     79055
     79053     79050     79054     79055     79057     79056     79060     79061
     79058     79056     79060     79061     79059     79056     79060     79061
     79063     79062     79066     79067     79064     79062     79066     79067
     79065     79062     79066     79067     79069     79068     79072     79073
     79070     79068     79072     79073     79071     79068     79072     79073
     79075     79074     79078     79079     79076     79074     79078     79079
     79077     79074     79078     79079     79081     79080     79084     79085
     79082     79080     79084     79085     79083     79080     79084     79085
     79087     79086     79090     79091     79088     79086     79090     79091
     79089     79086     79090     79091     79093     79092     79096     79097
     79094     79092     79096     79097     79095     79092     79096     79097
     79099     79098     79102     79103     79100     79098     79102     79103
     79101     79098     79102     79103     79105     79104     79108     79109
     79106     79104     79108     79109     79107     79104     79108     79109
     79111     79110     79114     79115     79112     79110     79114     79115
     79113     79110     79114     79115     79117     79116     79120     79121
     79118     79116     79120     79121     79119     79116     79120     79121
     79123     79122     79126     79127     79124     79122     79126     79127
     79125     79122     79126     79127     79129     79128     79132     79133
     79130     79128     79132     79133     79131     79128     79132     79133
     79135     79134     79138     79139     79136     79134     79138     79139
     79137     79134     79138     79139     79141     79140     79144     79145
     79142     79140     79144     79145     79143     79140     79144     79145
     79147     79146     79150     79151     79148     79146     79150     79151
     79149     79146     79150     79151     79153     79152     79156     79157
     79154     79152     79156     79157     79155     79152     79156     79157
     79159     79158     79162     79163     79160     79158     79162     79163
     79161     79158     79162     79163     79165     79164     79168     79169
     79166     79164     79168     79169     79167     79164     79168     79169
     79171     79170     79174     79175     79172     79170     79174     79175
     79173     79170     79174     79175     79177     79176     79180     79181
     79178     79176     79180     79181     79179     79176     79180     79181
     79183     79182     79186     79187     79184     79182     79186     79187
     79185     79182     79186     79187     79189     79188     79192     79193
     79190     79188     79192     79193     79191     79188     79192     79193
     79195     79194     79198     79199     79196     79194     79198     79199
     79197     79194     79198     79199     79201     79200     79204     79205
     79202     79200     79204     79205     79203     79200     79204     79205
     79207     79206     79210     79211     79208     79206     79210     79211
     79209     79206     79210     79211     79213     79212     79216     79217
     79214     79212     79216     79217     79215     79212     79216     79217
     79219     79218     79222     79223     79220     79218     79222     79223
     79221     79218     79222     79223     79225     79224     79228     79229
     79226     79224     79228     79229     79227     79224     79228     79229
     79231     79230     79234     79235     79232     79230     79234     79235
     79233     79230     79234     79235     79237     79236     79240     79241
     79238     79236     79240     79241     79239     79236     79240     79241
     79243     79242     79246     79247     79244     79242     79246     79247
     79245     79242     79246     79247     79249     79248     79252     79253
     79250     79248     79252     79253     79251     79248     79252     79253
     79255     79254     79258     79259     79256     79254     79258     79259
     79257     79254     79258     79259     79261     79260     79264     79265
     79262     79260     79264     79265     79263     79260     79264     79265
     79267     79266     79270     79271     79268     79266     79270     79271
     79269     79266     79270     79271     79273     79272     79276     79277
     79274     79272     79276     79277     79275     79272     79276     79277
     79279     79278     79282     79283     79280     79278     79282     79283
     79281     79278     79282     79283     79285     79284     79288     79289
     79286     79284     79288     79289     79287     79284     79288     79289
     79291     79290     79294     79295     79292     79290     79294     79295
     79293     79290     79294     79295     79297     79296     79300     79301
     79298     79296     79300     79301     79299     79296     79300     79301
     79303     79302     79306     79307     79304     79302     79306     79307
     79305     79302     79306     79307     79309     79308     79312     79313
     79310     79308     79312     79313     79311     79308     79312     79313
     79315     79314     79318     79319     79316     79314     79318     79319
     79317     79314     79318     79319     79321     79320     79324     79325
     79322     79320     79324     79325     79323     79320     79324     79325
     79327     79326     79330     79331     79328     79326     79330     79331
     79329     79326     79330     79331     79333     79332     79336     79337
     79334     79332     79336     79337     79335     79332     79336     79337
     79339     79338     79342     79343     79340     79338     79342     79343
     79341     79338     79342     79343     79345     79344     79348     79349
     79346     79344     79348     79349     79347     79344     79348     79349
     79351     79350     79354     79355     79352     79350     79354     79355
     79353     79350     79354     79355     79357     79356     79360     79361
     79358     79356     79360     79361     79359     79356     79360     79361
     79363     79362     79366     79367     79364     79362     79366     79367
     79365     79362     79366     79367     79369     79368     79372     79373
     79370     79368     79372     79373     79371     79368     79372     79373
     79375     79374     79378     79379     79376     79374     79378     79379
     79377     79374     79378     79379     79381     79380     79384     79385
     79382     79380     79384     79385     79383     79380     79384     79385
     79387     79386     79390     79391     79388     79386     79390     79391
     79389     79386     79390     79391     79393     79392     79396     79397
     79394     79392     79396     79397     79395     79392     79396     79397
     79399     79398     79402     79403     79400     79398     79402     79403
     79401     79398     79402     79403     79405     79404     79408     79409
     79406     79404     79408     79409     79407     79404     79408     79409
     79411     79410     79414     79415     79412     79410     79414     79415
     79413     79410     79414     79415     79417     79416     79420     79421
     79418     79416     79420     79421     79419     79416     79420     79421
     79423     79422     79426     79427     79424     79422     79426     79427
     79425     79422     79426     79427     79429     79428     79432     79433
     79430     79428     79432     79433     79431     79428     79432     79433
     79435     79434     79438     79439     79436     79434     79438     79439
     79437     79434     79438     79439     79441     79440     79444     79445
     79442     79440     79444     79445     79443     79440     79444     79445
     79447     79446     79450     79451     79448     79446     79450     79451
     79449     79446     79450     79451     79453     79452     79456     79457
     79454     79452     79456     79457     79455     79452     79456     79457
     79459     79458     79462     79463     79460     79458     79462     79463
     79461     79458     79462     79463     79465     79464     79468     79469
     79466     79464     79468     79469     79467     79464     79468     79469
     79471     79470     79474     79475     79472     79470     79474     79475
     79473     79470     79474     79475     79477     79476     79480     79481
     79478     79476     79480     79481     79479     79476     79480     79481
     79483     79482     79486     79487     79484     79482     79486     79487
     79485     79482     79486     79487     79489     79488     79492     79493
     79490     79488     79492     79493     79491     79488     79492     79493
     79495     79494     79498     79499     79496     79494     79498     79499
     79497     79494     79498     79499     79501     79500     79504     79505
     79502     79500     79504     79505     79503     79500     79504     79505
     79507     79506     79510     79511     79508     79506     79510     79511
     79509     79506     79510     79511     79513     79512     79516     79517
     79514     79512     79516     79517     79515     79512     79516     79517
     79519     79518     79522     79523     79520     79518     79522     79523
     79521     79518     79522     79523     79525     79524     79528     79529
     79526     79524     79528     79529     79527     79524     79528     79529
     79531     79530     79534     79535     79532     79530     79534     79535
     79533     79530     79534     79535     79537     79536     79540     79541
     79538     79536     79540     79541     79539     79536     79540     79541
     79543     79542     79546     79547     79544     79542     79546     79547
     79545     79542     79546     79547     79549     79548     79552     79553
     79550     79548     79552     79553     79551     79548     79552     79553
     79555     79554     79558     79559     79556     79554     79558     79559
     79557     79554     79558     79559     79561     79560     79564     79565
     79562     79560     79564     79565     79563     79560     79564     79565
     79567     79566     79570     79571     79568     79566     79570     79571
     79569     79566     79570     79571     79573     79572     79576     79577
     79574     79572     79576     79577     79575     79572     79576     79577
     79579     79578     79582     79583     79580     79578     79582     79583
     79581     79578     79582     79583     79585     79584     79588     79589
     79586     79584     79588     79589     79587     79584     79588     79589
     79591     79590     79594     79595     79592     79590     79594     79595
     79593     79590     79594     79595     79597     79596     79600     79601
     79598     79596     79600     79601     79599     79596     79600     79601
     79603     79602     79606     79607     79604     79602     79606     79607
     79605     79602     79606     79607     79609     79608     79612     79613
     79610     79608     79612     79613     79611     79608     79612     79613
     79615     79614     79618     79619     79616     79614     79618     79619
     79617     79614     79618     79619     79621     79620     79624     79625
     79622     79620     79624     79625     79623     79620     79624     79625
     79627     79626     79630     79631     79628     79626     79630     79631
     79629     79626     79630     79631     79633     79632     79636     79637
     79634     79632     79636     79637     79635     79632     79636     79637
     79639     79638     79642     79643     79640     79638     79642     79643
     79641     79638     79642     79643     79645     79644     79648     79649
     79646     79644     79648     79649     79647     79644     79648     79649
     79651     79650     79654     79655     79652     79650     79654     79655
     79653     79650     79654     79655     79657     79656     79660     79661
     79658     79656     79660     79661     79659     79656     79660     79661
     79663     79662     79666     79667     79664     79662     79666     79667
     79665     79662     79666     79667     79669     79668     79672     79673
     79670     79668     79672     79673     79671     79668     79672     79673
     79675     79674     79678     79679     79676     79674     79678     79679
     79677     79674     79678     79679     79681     79680     79684     79685
     79682     79680     79684     79685     79683     79680     79684     79685
     79687     79686     79690     79691     79688     79686     79690     79691
     79689     79686     79690     79691     79693     79692     79696     79697
     79694     79692     79696     79697     79695     79692     79696     79697
     79699     79698     79702     79703     79700     79698     79702     79703
     79701     79698     79702     79703     79705     79704     79708     79709
     79706     79704     79708     79709     79707     79704     79708     79709
     79711     79710     79714     79715     79712     79710     79714     79715
     79713     79710     79714     79715     79717     79716     79720     79721
     79718     79716     79720     79721     79719     79716     79720     79721
     79723     79722     79726     79727     79724     79722     79726     79727
     79725     79722     79726     79727     79729     79728     79732     79733
     79730     79728     79732     79733     79731     79728     79732     79733
     79735     79734     79738     79739     79736     79734     79738     79739
     79737     79734     79738     79739     79741     79740     79744     79745
     79742     79740     79744     79745     79743     79740     79744     79745
     79747     79746     79750     79751     79748     79746     79750     79751
     79749     79746     79750     79751     79753     79752     79756     79757
     79754     79752     79756     79757     79755     79752     79756     79757
     79759     79758     79762     79763     79760     79758     79762     79763
     79761     79758     79762     79763     79765     79764     79768     79769
     79766     79764     79768     79769     79767     79764     79768     79769
     79771     79770     79774     79775     79772     79770     79774     79775
     79773     79770     79774     79775     79777     79776     79780     79781
     79778     79776     79780     79781     79779     79776     79780     79781
     79783     79782     79786     79787     79784     79782     79786     79787
     79785     79782     79786     79787     79789     79788     79792     79793
     79790     79788     79792     79793     79791     79788     79792     79793
     79795     79794     79798     79799     79796     79794     79798     79799
     79797     79794     79798     79799     79801     79800     79804     79805
     79802     79800     79804     79805     79803     79800     79804     79805
     79807     79806     79810     79811     79808     79806     79810     79811
     79809     79806     79810     79811     79813     79812     79816     79817
     79814     79812     79816     79817     79815     79812     79816     79817
     79819     79818     79822     79823     79820     79818     79822     79823
     79821     79818     79822     79823     79825     79824     79828     79829
     79826     79824     79828     79829     79827     79824     79828     79829
     79831     79830     79834     79835     79832     79830     79834     79835
     79833     79830     79834     79835     79837     79836     79840     79841
     79838     79836     79840     79841     79839     79836     79840     79841
     79843     79842     79846     79847     79844     79842     79846     79847
     79845     79842     79846     79847     79849     79848     79852     79853
     79850     79848     79852     79853     79851     79848     79852     79853
     79855     79854     79858     79859     79856     79854     79858     79859
     79857     79854     79858     79859     79861     79860     79864     79865
     79862     79860     79864     79865     79863     79860     79864     79865
     79867     79866     79870     79871     79868     79866     79870     79871
     79869     79866     79870     79871     79873     79872     79876     79877
     79874     79872     79876     79877     79875     79872     79876     79877
     79879     79878     79882     79883     79880     79878     79882     79883
     79881     79878     79882     79883     79885     79884     79888     79889
     79886     79884     79888     79889     79887     79884     79888     79889
     79891     79890     79894     79895     79892     79890     79894     79895
     79893     79890     79894     79895     79897     79896     79900     79901
     79898     79896     79900     79901     79899     79896     79900     79901
     79903     79902     79906     79907     79904     79902     79906     79907
     79905     79902     79906     79907     79909     79908     79912     79913
     79910     79908     79912     79913     79911     79908     79912     79913
     79915     79914     79918     79919     79916     79914     79918     79919
     79917     79914     79918     79919     79921     79920     79924     79925
     79922     79920     79924     79925     79923     79920     79924     79925
     79927     79926     79930     79931     79928     79926     79930     79931
     79929     79926     79930     79931     79933     79932     79936     79937
     79934     79932     79936     79937     79935     79932     79936     79937
     79939     79938     79942     79943     79940     79938     79942     79943
     79941     79938     79942     79943     79945     79944     79948     79949
     79946     79944     79948     79949     79947     79944     79948     79949
     79951     79950     79954     79955     79952     79950     79954     79955
     79953     79950     79954     79955     79957     79956     79960     79961
     79958     79956     79960     79961     79959     79956     79960     79961
     79963     79962     79966     79967     79964     79962     79966     79967
     79965     79962     79966     79967     79969     79968     79972     79973
     79970     79968     79972     79973     79971     79968     79972     79973
     79975     79974     79978     79979     79976     79974     79978     79979
     79977     79974     79978     79979     79981     79980     79984     79985
     79982     79980     79984     79985     79983     79980     79984     79985
     79987     79986     79990     79991     79988     79986     79990     79991
     79989     79986     79990     79991     79993     79992     79996     79997
     79994     79992     79996     79997     79995     79992     79996     79997
     79999     79998     80002     80003     80000     79998     80002     80003
     80001     79998     80002     80003     80005     80004     80008     80009
     80006     80004     80008     80009     80007     80004     80008     80009
     80011     80010     80014     80015     80012     80010     80014     80015
     80013     80010     80014     80015     80017     80016     80020     80021
     80018     80016     80020     80021     80019     80016     80020     80021
     80023     80022     80026     80027     80024     80022     80026     80027
     80025     80022     80026     80027     80029     80028     80032     80033
     80030     80028     80032     80033     80031     80028     80032     80033
     80035     80034     80038     80039     80036     80034     80038     80039
     80037     80034     80038     80039     80041     80040     80044     80045
     80042     80040     80044     80045     80043     80040     80044     80045
     80047     80046     80050     80051     80048     80046     80050     80051
     80049     80046     80050     80051     80053     80052     80056     80057
     80054     80052     80056     80057     80055     80052     80056     80057
     80059     80058     80062     80063     80060     80058     80062     80063
     80061     80058     80062     80063     80065     80064     80068     80069
     80066     80064     80068     80069     80067     80064     80068     80069
     80071     80070     80074     80075     80072     80070     80074     80075
     80073     80070     80074     80075     80077     80076     80080     80081
     80078     80076     80080     80081     80079     80076     80080     80081
     80083     80082     80086     80087     80084     80082     80086     80087
     80085     80082     80086     80087     80089     80088     80092     80093
     80090     80088     80092     80093     80091     80088     80092     80093
     80095     80094     80098     80099     80096     80094     80098     80099
     80097     80094     80098     80099     80101     80100     80104     80105
     80102     80100     80104     80105     80103     80100     80104     80105
     80107     80106     80110     80111     80108     80106     80110     80111
     80109     80106     80110     80111     80113     80112     80116     80117
     80114     80112     80116     80117     80115     80112     80116     80117
     80119     80118     80122     80123     80120     80118     80122     80123
     80121     80118     80122     80123     80125     80124     80128     80129
     80126     80124     80128     80129     80127     80124     80128     80129
     80131     80130     80134     80135     80132     80130     80134     80135
     80133     80130     80134     80135     80137     80136     80140     80141
     80138     80136     80140     80141     80139     80136     80140     80141
     80143     80142     80146     80147     80144     80142     80146     80147
     80145     80142     80146     80147     80149     80148     80152     80153
     80150     80148     80152     80153     80151     80148     80152     80153
     80155     80154     80158     80159     80156     80154     80158     80159
     80157     80154     80158     80159     80161     80160     80164     80165
     80162     80160     80164     80165     80163     80160     80164     80165
     80167     80166     80170     80171     80168     80166     80170     80171
     80169     80166     80170     80171     80173     80172     80176     80177
     80174     80172     80176     80177     80175     80172     80176     80177
     80179     80178     80182     80183     80180     80178     80182     80183
     80181     80178     80182     80183     80185     80184     80188     80189
     80186     80184     80188     80189     80187     80184     80188     80189
     80191     80190     80194     80195     80192     80190     80194     80195
     80193     80190     80194     80195     80197     80196     80200     80201
     80198     80196     80200     80201     80199     80196     80200     80201
     80203     80202     80206     80207     80204     80202     80206     80207
     80205     80202     80206     80207     80209     80208     80212     80213
     80210     80208     80212     80213     80211     80208     80212     80213
     80215     80214     80218     80219     80216     80214     80218     80219
     80217     80214     80218     80219     80221     80220     80224     80225
     80222     80220     80224     80225     80223     80220     80224     80225
     80227     80226     80230     80231     80228     80226     80230     80231
     80229     80226     80230     80231     80233     80232     80236     80237
     80234     80232     80236     80237     80235     80232     80236     80237
     80239     80238     80242     80243     80240     80238     80242     80243
     80241     80238     80242     80243     80245     80244     80248     80249
     80246     80244     80248     80249     80247     80244     80248     80249
     80251     80250     80254     80255     80252     80250     80254     80255
     80253     80250     80254     80255     80257     80256     80260     80261
     80258     80256     80260     80261     80259     80256     80260     80261
     80263     80262     80266     80267     80264     80262     80266     80267
     80265     80262     80266     80267     80269     80268     80272     80273
     80270     80268     80272     80273     80271     80268     80272     80273
     80275     80274     80278     80279     80276     80274     80278     80279
     80277     80274     80278     80279     80281     80280     80284     80285
     80282     80280     80284     80285     80283     80280     80284     80285
     80287     80286     80290     80291     80288     80286     80290     80291
     80289     80286     80290     80291     80293     80292     80296     80297
     80294     80292     80296     80297     80295     80292     80296     80297
     80299     80298     80302     80303     80300     80298     80302     80303
     80301     80298     80302     80303     80305     80304     80308     80309
     80306     80304     80308     80309     80307     80304     80308     80309
     80311     80310     80314     80315     80312     80310     80314     80315
     80313     80310     80314     80315     80317     80316     80320     80321
     80318     80316     80320     80321     80319     80316     80320     80321
     80323     80322     80326     80327     80324     80322     80326     80327
     80325     80322     80326     80327     80329     80328     80332     80333
     80330     80328     80332     80333     80331     80328     80332     80333
     80335     80334     80338     80339     80336     80334     80338     80339
     80337     80334     80338     80339     80341     80340     80344     80345
     80342     80340     80344     80345     80343     80340     80344     80345
     80347     80346     80350     80351     80348     80346     80350     80351
     80349     80346     80350     80351     80353     80352     80356     80357
     80354     80352     80356     80357     80355     80352     80356     80357
     80359     80358     80362     80363     80360     80358     80362     80363
     80361     80358     80362     80363     80365     80364     80368     80369
     80366     80364     80368     80369     80367     80364     80368     80369
     80371     80370     80374     80375     80372     80370     80374     80375
     80373     80370     80374     80375     80377     80376     80380     80381
     80378     80376     80380     80381     80379     80376     80380     80381
     80383     80382     80386     80387     80384     80382     80386     80387
     80385     80382     80386     80387     80389     80388     80392     80393
     80390     80388     80392     80393     80391     80388     80392     80393
     80395     80394     80398     80399     80396     80394     80398     80399
     80397     80394     80398     80399     80401     80400     80404     80405
     80402     80400     80404     80405     80403     80400     80404     80405
     80407     80406     80410     80411     80408     80406     80410     80411
     80409     80406     80410     80411     80413     80412     80416     80417
     80414     80412     80416     80417     80415     80412     80416     80417
     80419     80418     80422     80423     80420     80418     80422     80423
     80421     80418     80422     80423     80425     80424     80428     80429
     80426     80424     80428     80429     80427     80424     80428     80429
     80431     80430     80434     80435     80432     80430     80434     80435
     80433     80430     80434     80435     80437     80436     80440     80441
     80438     80436     80440     80441     80439     80436     80440     80441
     80443     80442     80446     80447     80444     80442     80446     80447
     80445     80442     80446     80447     80449     80448     80452     80453
     80450     80448     80452     80453     80451     80448     80452     80453
     80455     80454     80458     80459     80456     80454     80458     80459
     80457     80454     80458     80459     80461     80460     80464     80465
     80462     80460     80464     80465     80463     80460     80464     80465
     80467     80466     80470     80471     80468     80466     80470     80471
     80469     80466     80470     80471     80473     80472     80476     80477
     80474     80472     80476     80477     80475     80472     80476     80477
     80479     80478     80482     80483     80480     80478     80482     80483
     80481     80478     80482     80483     80485     80484     80488     80489
     80486     80484     80488     80489     80487     80484     80488     80489
     80491     80490     80494     80495     80492     80490     80494     80495
     80493     80490     80494     80495     80497     80496     80500     80501
     80498     80496     80500     80501     80499     80496     80500     80501
     80503     80502     80506     80507     80504     80502     80506     80507
     80505     80502     80506     80507     80509     80508     80512     80513
     80510     80508     80512     80513     80511     80508     80512     80513
     80515     80514     80518     80519     80516     80514     80518     80519
     80517     80514     80518     80519     80521     80520     80524     80525
     80522     80520     80524     80525     80523     80520     80524     80525
     80527     80526     80530     80531     80528     80526     80530     80531
     80529     80526     80530     80531     80533     80532     80536     80537
     80534     80532     80536     80537     80535     80532     80536     80537
     80539     80538     80542     80543     80540     80538     80542     80543
     80541     80538     80542     80543     80545     80544     80548     80549
     80546     80544     80548     80549     80547     80544     80548     80549
     80551     80550     80554     80555     80552     80550     80554     80555
     80553     80550     80554     80555     80557     80556     80560     80561
     80558     80556     80560     80561     80559     80556     80560     80561
     80563     80562     80566     80567     80564     80562     80566     80567
     80565     80562     80566     80567     80569     80568     80572     80573
     80570     80568     80572     80573     80571     80568     80572     80573
     80575     80574     80578     80579     80576     80574     80578     80579
     80577     80574     80578     80579     80581     80580     80584     80585
     80582     80580     80584     80585     80583     80580     80584     80585
     80587     80586     80590     80591     80588     80586     80590     80591
     80589     80586     80590     80591     80593     80592     80596     80597
     80594     80592     80596     80597     80595     80592     80596     80597
     80599     80598     80602     80603     80600     80598     80602     80603
     80601     80598     80602     80603     80605     80604     80608     80609
     80606     80604     80608     80609     80607     80604     80608     80609
     80611     80610     80614     80615     80612     80610     80614     80615
     80613     80610     80614     80615     80617     80616     80620     80621
     80618     80616     80620     80621     80619     80616     80620     80621
     80623     80622     80626     80627     80624     80622     80626     80627
     80625     80622     80626     80627     80629     80628     80632     80633
     80630     80628     80632     80633     80631     80628     80632     80633
     80635     80634     80638     80639     80636     80634     80638     80639
     80637     80634     80638     80639     80641     80640     80644     80645
     80642     80640     80644     80645     80643     80640     80644     80645
     80647     80646     80650     80651     80648     80646     80650     80651
     80649     80646     80650     80651     80653     80652     80656     80657
     80654     80652     80656     80657     80655     80652     80656     80657
     80659     80658     80662     80663     80660     80658     80662     80663
     80661     80658     80662     80663     80665     80664     80668     80669
     80666     80664     80668     80669     80667     80664     80668     80669
     80671     80670     80674     80675     80672     80670     80674     80675
     80673     80670     80674     80675     80677     80676     80680     80681
     80678     80676     80680     80681     80679     80676     80680     80681
     80683     80682     80686     80687     80684     80682     80686     80687
     80685     80682     80686     80687     80689     80688     80692     80693
     80690     80688     80692     80693     80691     80688     80692     80693
     80695     80694     80698     80699     80696     80694     80698     80699
     80697     80694     80698     80699     80701     80700     80704     80705
     80702     80700     80704     80705     80703     80700     80704     80705
     80707     80706     80710     80711     80708     80706     80710     80711
     80709     80706     80710     80711     80713     80712     80716     80717
     80714     80712     80716     80717     80715     80712     80716     80717
     80719     80718     80722     80723     80720     80718     80722     80723
     80721     80718     80722     80723     80725     80724     80728     80729
     80726     80724     80728     80729     80727     80724     80728     80729
     80731     80730     80734     80735     80732     80730     80734     80735
     80733     80730     80734     80735     80737     80736     80740     80741
     80738     80736     80740     80741     80739     80736     80740     80741
     80743     80742     80746     80747     80744     80742     80746     80747
     80745     80742     80746     80747     80749     80748     80752     80753
     80750     80748     80752     80753     80751     80748     80752     80753
     80755     80754     80758     80759     80756     80754     80758     80759
     80757     80754     80758     80759     80761     80760     80764     80765
     80762     80760     80764     80765     80763     80760     80764     80765
     80767     80766     80770     80771     80768     80766     80770     80771
     80769     80766     80770     80771     80773     80772     80776     80777
     80774     80772     80776     80777     80775     80772     80776     80777
     80779     80778     80782     80783     80780     80778     80782     80783
     80781     80778     80782     80783     80785     80784     80788     80789
     80786     80784     80788     80789     80787     80784     80788     80789
     80791     80790     80794     80795     80792     80790     80794     80795
     80793     80790     80794     80795     80797     80796     80800     80801
     80798     80796     80800     80801     80799     80796     80800     80801
     80803     80802     80806     80807     80804     80802     80806     80807
     80805     80802     80806     80807     80809     80808     80812     80813
     80810     80808     80812     80813     80811     80808     80812     80813
     80815     80814     80818     80819     80816     80814     80818     80819
     80817     80814     80818     80819     80821     80820     80824     80825
     80822     80820     80824     80825     80823     80820     80824     80825
     80827     80826     80830     80831     80828     80826     80830     80831
     80829     80826     80830     80831     80833     80832     80836     80837
     80834     80832     80836     80837     80835     80832     80836     80837
     80839     80838     80842     80843     80840     80838     80842     80843
     80841     80838     80842     80843     80845     80844     80848     80849
     80846     80844     80848     80849     80847     80844     80848     80849
     80851     80850     80854     80855     80852     80850     80854     80855
     80853     80850     80854     80855     80857     80856     80860     80861
     80858     80856     80860     80861     80859     80856     80860     80861
     80863     80862     80866     80867     80864     80862     80866     80867
     80865     80862     80866     80867     80869     80868     80872     80873
     80870     80868     80872     80873     80871     80868     80872     80873
     80875     80874     80878     80879     80876     80874     80878     80879
     80877     80874     80878     80879     80881     80880     80884     80885
     80882     80880     80884     80885     80883     80880     80884     80885
     80887     80886     80890     80891     80888     80886     80890     80891
     80889     80886     80890     80891     80893     80892     80896     80897
     80894     80892     80896     80897     80895     80892     80896     80897
     80899     80898     80902     80903     80900     80898     80902     80903
     80901     80898     80902     80903     80905     80904     80908     80909
     80906     80904     80908     80909     80907     80904     80908     80909
     80911     80910     80914     80915     80912     80910     80914     80915
     80913     80910     80914     80915     80917     80916     80920     80921
     80918     80916     80920     80921     80919     80916     80920     80921
     80923     80922     80926     80927     80924     80922     80926     80927
     80925     80922     80926     80927     80929     80928     80932     80933
     80930     80928     80932     80933     80931     80928     80932     80933
     80935     80934     80938     80939     80936     80934     80938     80939
     80937     80934     80938     80939     80941     80940     80944     80945
     80942     80940     80944     80945     80943     80940     80944     80945
     80947     80946     80950     80951     80948     80946     80950     80951
     80949     80946     80950     80951     80953     80952     80956     80957
     80954     80952     80956     80957     80955     80952     80956     80957
     80959     80958     80962     80963     80960     80958     80962     80963
     80961     80958     80962     80963     80965     80964     80968     80969
     80966     80964     80968     80969     80967     80964     80968     80969
     80971     80970     80974     80975     80972     80970     80974     80975
     80973     80970     80974     80975     80977     80976     80980     80981
     80978     80976     80980     80981     80979     80976     80980     80981
     80983     80982     80986     80987     80984     80982     80986     80987
     80985     80982     80986     80987     80989     80988     80992     80993
     80990     80988     80992     80993     80991     80988     80992     80993
     80995     80994     80998     80999     80996     80994     80998     80999
     80997     80994     80998     80999     81001     81000     81004     81005
     81002     81000     81004     81005     81003     81000     81004     81005
     81007     81006     81010     81011     81008     81006     81010     81011
     81009     81006     81010     81011     81013     81012     81016     81017
     81014     81012     81016     81017     81015     81012     81016     81017
     81019     81018     81022     81023     81020     81018     81022     81023
     81021     81018     81022     81023     81025     81024     81028     81029
     81026     81024     81028     81029     81027     81024     81028     81029
     81031     81030     81034     81035     81032     81030     81034     81035
     81033     81030     81034     81035     81037     81036     81040     81041
     81038     81036     81040     81041     81039     81036     81040     81041
     81043     81042     81046     81047     81044     81042     81046     81047
     81045     81042     81046     81047     81049     81048     81052     81053
     81050     81048     81052     81053     81051     81048     81052     81053
     81055     81054     81058     81059     81056     81054     81058     81059
     81057     81054     81058     81059     81061     81060     81064     81065
     81062     81060     81064     81065     81063     81060     81064     81065
     81067     81066     81070     81071     81068     81066     81070     81071
     81069     81066     81070     81071     81073     81072     81076     81077
     81074     81072     81076     81077     81075     81072     81076     81077
     81079     81078     81082     81083     81080     81078     81082     81083
     81081     81078     81082     81083     81085     81084     81088     81089
     81086     81084     81088     81089     81087     81084     81088     81089
     81091     81090     81094     81095     81092     81090     81094     81095
     81093     81090     81094     81095     81097     81096     81100     81101
     81098     81096     81100     81101     81099     81096     81100     81101
     81103     81102     81106     81107     81104     81102     81106     81107
     81105     81102     81106     81107     81109     81108     81112     81113
     81110     81108     81112     81113     81111     81108     81112     81113
     81115     81114     81118     81119     81116     81114     81118     81119
     81117     81114     81118     81119     81121     81120     81124     81125
     81122     81120     81124     81125     81123     81120     81124     81125
     81127     81126     81130     81131     81128     81126     81130     81131
     81129     81126     81130     81131     81133     81132     81136     81137
     81134     81132     81136     81137     81135     81132     81136     81137
     81139     81138     81142     81143     81140     81138     81142     81143
     81141     81138     81142     81143     81145     81144     81148     81149
     81146     81144     81148     81149     81147     81144     81148     81149
     81151     81150     81154     81155     81152     81150     81154     81155
     81153     81150     81154     81155     81157     81156     81160     81161
     81158     81156     81160     81161     81159     81156     81160     81161
     81163     81162     81166     81167     81164     81162     81166     81167
     81165     81162     81166     81167     81169     81168     81172     81173
     81170     81168     81172     81173     81171     81168     81172     81173
     81175     81174     81178     81179     81176     81174     81178     81179
     81177     81174     81178     81179     81181     81180     81184     81185
     81182     81180     81184     81185     81183     81180     81184     81185
     81187     81186     81190     81191     81188     81186     81190     81191
     81189     81186     81190     81191     81193     81192     81196     81197
     81194     81192     81196     81197     81195     81192     81196     81197
     81199     81198     81202     81203     81200     81198     81202     81203
     81201     81198     81202     81203     81205     81204     81208     81209
     81206     81204     81208     81209     81207     81204     81208     81209
     81211     81210     81214     81215     81212     81210     81214     81215
     81213     81210     81214     81215     81217     81216     81220     81221
     81218     81216     81220     81221     81219     81216     81220     81221
     81223     81222     81226     81227     81224     81222     81226     81227
     81225     81222     81226     81227     81229     81228     81232     81233
     81230     81228     81232     81233     81231     81228     81232     81233
     81235     81234     81238     81239     81236     81234     81238     81239
     81237     81234     81238     81239     81241     81240     81244     81245
     81242     81240     81244     81245     81243     81240     81244     81245
     81247     81246     81250     81251     81248     81246     81250     81251
     81249     81246     81250     81251     81253     81252     81256     81257
     81254     81252     81256     81257     81255     81252     81256     81257
     81259     81258     81262     81263     81260     81258     81262     81263
     81261     81258     81262     81263     81265     81264     81268     81269
     81266     81264     81268     81269     81267     81264     81268     81269
     81271     81270     81274     81275     81272     81270     81274     81275
     81273     81270     81274     81275     81277     81276     81280     81281
     81278     81276     81280     81281     81279     81276     81280     81281
     81283     81282     81286     81287     81284     81282     81286     81287
     81285     81282     81286     81287     81289     81288     81292     81293
     81290     81288     81292     81293     81291     81288     81292     81293
     81295     81294     81298     81299     81296     81294     81298     81299
     81297     81294     81298     81299     81301     81300     81304     81305
     81302     81300     81304     81305     81303     81300     81304     81305
     81307     81306     81310     81311     81308     81306     81310     81311
     81309     81306     81310     81311     81313     81312     81316     81317
     81314     81312     81316     81317     81315     81312     81316     81317
     81319     81318     81322     81323     81320     81318     81322     81323
     81321     81318     81322     81323     81325     81324     81328     81329
     81326     81324     81328     81329     81327     81324     81328     81329
     81331     81330     81334     81335     81332     81330     81334     81335
     81333     81330     81334     81335     81337     81336     81340     81341
     81338     81336     81340     81341     81339     81336     81340     81341
     81343     81342     81346     81347     81344     81342     81346     81347
     81345     81342     81346     81347     81349     81348     81352     81353
     81350     81348     81352     81353     81351     81348     81352     81353
     81355     81354     81358     81359     81356     81354     81358     81359
     81357     81354     81358     81359     81361     81360     81364     81365
     81362     81360     81364     81365     81363     81360     81364     81365
     81367     81366     81370     81371     81368     81366     81370     81371
     81369     81366     81370     81371     81373     81372     81376     81377
     81374     81372     81376     81377     81375     81372     81376     81377
     81379     81378     81382     81383     81380     81378     81382     81383
     81381     81378     81382     81383     81385     81384     81388     81389
     81386     81384     81388     81389     81387     81384     81388     81389
     81391     81390     81394     81395     81392     81390     81394     81395
     81393     81390     81394     81395     81397     81396     81400     81401
     81398     81396     81400     81401     81399     81396     81400     81401
     81403     81402     81406     81407     81404     81402     81406     81407
     81405     81402     81406     81407     81409     81408     81412     81413
     81410     81408     81412     81413     81411     81408     81412     81413
     81415     81414     81418     81419     81416     81414     81418     81419
     81417     81414     81418     81419     81421     81420     81424     81425
     81422     81420     81424     81425     81423     81420     81424     81425
     81427     81426     81430     81431     81428     81426     81430     81431
     81429     81426     81430     81431     81433     81432     81436     81437
     81434     81432     81436     81437     81435     81432     81436     81437
     81439     81438     81442     81443     81440     81438     81442     81443
     81441     81438     81442     81443     81445     81444     81448     81449
     81446     81444     81448     81449     81447     81444     81448     81449
     81451     81450     81454     81455     81452     81450     81454     81455
     81453     81450     81454     81455     81457     81456     81460     81461
     81458     81456     81460     81461     81459     81456     81460     81461
     81463     81462     81466     81467     81464     81462     81466     81467
     81465     81462     81466     81467     81469     81468     81472     81473
     81470     81468     81472     81473     81471     81468     81472     81473
     81475     81474     81478     81479     81476     81474     81478     81479
     81477     81474     81478     81479     81481     81480     81484     81485
     81482     81480     81484     81485     81483     81480     81484     81485
     81487     81486     81490     81491     81488     81486     81490     81491
     81489     81486     81490     81491     81493     81492     81496     81497
     81494     81492     81496     81497     81495     81492     81496     81497
     81499     81498     81502     81503     81500     81498     81502     81503
     81501     81498     81502     81503     81505     81504     81508     81509
     81506     81504     81508     81509     81507     81504     81508     81509
     81511     81510     81514     81515     81512     81510     81514     81515
     81513     81510     81514     81515     81517     81516     81520     81521
     81518     81516     81520     81521     81519     81516     81520     81521
     81523     81522     81526     81527     81524     81522     81526     81527
     81525     81522     81526     81527     81529     81528     81532     81533
     81530     81528     81532     81533     81531     81528     81532     81533
     81535     81534     81538     81539     81536     81534     81538     81539
     81537     81534     81538     81539     81541     81540     81544     81545
     81542     81540     81544     81545     81543     81540     81544     81545
     81547     81546     81550     81551     81548     81546     81550     81551
     81549     81546     81550     81551     81553     81552     81556     81557
     81554     81552     81556     81557     81555     81552     81556     81557
     81559     81558     81562     81563     81560     81558     81562     81563
     81561     81558     81562     81563     81565     81564     81568     81569
     81566     81564     81568     81569     81567     81564     81568     81569
     81571     81570     81574     81575     81572     81570     81574     81575
     81573     81570     81574     81575     81577     81576     81580     81581
     81578     81576     81580     81581     81579     81576     81580     81581
     81583     81582     81586     81587     81584     81582     81586     81587
     81585     81582     81586     81587     81589     81588     81592     81593
     81590     81588     81592     81593     81591     81588     81592     81593
     81595     81594     81598     81599     81596     81594     81598     81599
     81597     81594     81598     81599     81601     81600     81604     81605
     81602     81600     81604     81605     81603     81600     81604     81605
     81607     81606     81610     81611     81608     81606     81610     81611
     81609     81606     81610     81611     81613     81612     81616     81617
     81614     81612     81616     81617     81615     81612     81616     81617
     81619     81618     81622     81623     81620     81618     81622     81623
     81621     81618     81622     81623     81625     81624     81628     81629
     81626     81624     81628     81629     81627     81624     81628     81629
     81631     81630     81634     81635     81632     81630     81634     81635
     81633     81630     81634     81635     81637     81636     81640     81641
     81638     81636     81640     81641     81639     81636     81640     81641
     81643     81642     81646     81647     81644     81642     81646     81647
     81645     81642     81646     81647     81649     81648     81652     81653
     81650     81648     81652     81653     81651     81648     81652     81653
     81655     81654     81658     81659     81656     81654     81658     81659
     81657     81654     81658     81659     81661     81660     81664     81665
     81662     81660     81664     81665     81663     81660     81664     81665
     81667     81666     81670     81671     81668     81666     81670     81671
     81669     81666     81670     81671     81673     81672     81676     81677
     81674     81672     81676     81677     81675     81672     81676     81677
     81679     81678     81682     81683     81680     81678     81682     81683
     81681     81678     81682     81683     81685     81684     81688     81689
     81686     81684     81688     81689     81687     81684     81688     81689
     81691     81690     81694     81695     81692     81690     81694     81695
     81693     81690     81694     81695     81697     81696     81700     81701
     81698     81696     81700     81701     81699     81696     81700     81701
     81703     81702     81706     81707     81704     81702     81706     81707
     81705     81702     81706     81707     81709     81708     81712     81713
     81710     81708     81712     81713     81711     81708     81712     81713
     81715     81714     81718     81719     81716     81714     81718     81719
     81717     81714     81718     81719     81721     81720     81724     81725
     81722     81720     81724     81725     81723     81720     81724     81725
     81727     81726     81730     81731     81728     81726     81730     81731
     81729     81726     81730     81731     81733     81732     81736     81737
     81734     81732     81736     81737     81735     81732     81736     81737
     81739     81738     81742     81743     81740     81738     81742     81743
     81741     81738     81742     81743     81745     81744     81748     81749
     81746     81744     81748     81749     81747     81744     81748     81749
     81751     81750     81754     81755     81752     81750     81754     81755
     81753     81750     81754     81755     81757     81756     81760     81761
     81758     81756     81760     81761     81759     81756     81760     81761
     81763     81762     81766     81767     81764     81762     81766     81767
     81765     81762     81766     81767     81769     81768     81772     81773
     81770     81768     81772     81773     81771     81768     81772     81773
     81775     81774     81778     81779     81776     81774     81778     81779
     81777     81774     81778     81779     81781     81780     81784     81785
     81782     81780     81784     81785     81783     81780     81784     81785
     81787     81786     81790     81791     81788     81786     81790     81791
     81789     81786     81790     81791     81793     81792     81796     81797
     81794     81792     81796     81797     81795     81792     81796     81797
     81799     81798     81802     81803     81800     81798     81802     81803
     81801     81798     81802     81803     81805     81804     81808     81809
     81806     81804     81808     81809     81807     81804     81808     81809
     81811     81810     81814     81815     81812     81810     81814     81815
     81813     81810     81814     81815     81817     81816     81820     81821
     81818     81816     81820     81821     81819     81816     81820     81821
     81823     81822     81826     81827     81824     81822     81826     81827
     81825     81822     81826     81827     81829     81828     81832     81833
     81830     81828     81832     81833     81831     81828     81832     81833
     81835     81834     81838     81839     81836     81834     81838     81839
     81837     81834     81838     81839     81841     81840     81844     81845
     81842     81840     81844     81845     81843     81840     81844     81845
     81847     81846     81850     81851     81848     81846     81850     81851
     81849     81846     81850     81851     81853     81852     81856     81857
     81854     81852     81856     81857     81855     81852     81856     81857
     81859     81858     81862     81863     81860     81858     81862     81863
     81861     81858     81862     81863     81865     81864     81868     81869
     81866     81864     81868     81869     81867     81864     81868     81869
     81871     81870     81874     81875     81872     81870     81874     81875
     81873     81870     81874     81875     81877     81876     81880     81881
     81878     81876     81880     81881     81879     81876     81880     81881
     81883     81882     81886     81887     81884     81882     81886     81887
     81885     81882     81886     81887     81889     81888     81892     81893
     81890     81888     81892     81893     81891     81888     81892     81893
     81895     81894     81898     81899     81896     81894     81898     81899
     81897     81894     81898     81899     81901     81900     81904     81905
     81902     81900     81904     81905     81903     81900     81904     81905
     81907     81906     81910     81911     81908     81906     81910     81911
     81909     81906     81910     81911     81913     81912     81916     81917
     81914     81912     81916     81917     81915     81912     81916     81917
     81919     81918     81922     81923     81920     81918     81922     81923
     81921     81918     81922     81923     81925     81924     81928     81929
     81926     81924     81928     81929     81927     81924     81928     81929
     81931     81930     81934     81935     81932     81930     81934     81935
     81933     81930     81934     81935     81937     81936     81940     81941
     81938     81936     81940     81941     81939     81936     81940     81941
     81943     81942     81946     81947     81944     81942     81946     81947
     81945     81942     81946     81947     81949     81948     81952     81953
     81950     81948     81952     81953     81951     81948     81952     81953
     81955     81954     81958     81959     81956     81954     81958     81959
     81957     81954     81958     81959     81961     81960     81964     81965
     81962     81960     81964     81965     81963     81960     81964     81965
     81967     81966     81970     81971     81968     81966     81970     81971
     81969     81966     81970     81971     81973     81972     81976     81977
     81974     81972     81976     81977     81975     81972     81976     81977
     81979     81978     81982     81983     81980     81978     81982     81983
     81981     81978     81982     81983     81985     81984     81988     81989
     81986     81984     81988     81989     81987     81984     81988     81989
     81991     81990     81994     81995     81992     81990     81994     81995
     81993     81990     81994     81995     81997     81996     82000     82001
     81998     81996     82000     82001     81999     81996     82000     82001
     82003     82002     82006     82007     82004     82002     82006     82007
     82005     82002     82006     82007     82009     82008     82012     82013
     82010     82008     82012     82013     82011     82008     82012     82013
     82015     82014     82018     82019     82016     82014     82018     82019
     82017     82014     82018     82019     82021     82020     82024     82025
     82022     82020     82024     82025     82023     82020     82024     82025
     82027     82026     82030     82031     82028     82026     82030     82031
     82029     82026     82030     82031     82033     82032     82036     82037
     82034     82032     82036     82037     82035     82032     82036     82037
     82039     82038     82042     82043     82040     82038     82042     82043
     82041     82038     82042     82043     82045     82044     82048     82049
     82046     82044     82048     82049     82047     82044     82048     82049
     82051     82050     82054     82055     82052     82050     82054     82055
     82053     82050     82054     82055     82057     82056     82060     82061
     82058     82056     82060     82061     82059     82056     82060     82061
     82063     82062     82066     82067     82064     82062     82066     82067
     82065     82062     82066     82067     82069     82068     82072     82073
     82070     82068     82072     82073     82071     82068     82072     82073
     82075     82074     82078     82079     82076     82074     82078     82079
     82077     82074     82078     82079     82081     82080     82084     82085
     82082     82080     82084     82085     82083     82080     82084     82085
     82087     82086     82090     82091     82088     82086     82090     82091
     82089     82086     82090     82091     82093     82092     82096     82097
     82094     82092     82096     82097     82095     82092     82096     82097
     82099     82098     82102     82103     82100     82098     82102     82103
     82101     82098     82102     82103     82105     82104     82108     82109
     82106     82104     82108     82109     82107     82104     82108     82109
     82111     82110     82114     82115     82112     82110     82114     82115
     82113     82110     82114     82115     82117     82116     82120     82121
     82118     82116     82120     82121     82119     82116     82120     82121
     82123     82122     82126     82127     82124     82122     82126     82127
     82125     82122     82126     82127     82129     82128     82132     82133
     82130     82128     82132     82133     82131     82128     82132     82133
     82135     82134     82138     82139     82136     82134     82138     82139
     82137     82134     82138     82139     82141     82140     82144     82145
     82142     82140     82144     82145     82143     82140     82144     82145
     82147     82146     82150     82151     82148     82146     82150     82151
     82149     82146     82150     82151     82153     82152     82156     82157
     82154     82152     82156     82157     82155     82152     82156     82157
     82159     82158     82162     82163     82160     82158     82162     82163
     82161     82158     82162     82163     82165     82164     82168     82169
     82166     82164     82168     82169     82167     82164     82168     82169
     82171     82170     82174     82175     82172     82170     82174     82175
     82173     82170     82174     82175     82177     82176     82180     82181
     82178     82176     82180     82181     82179     82176     82180     82181
     82183     82182     82186     82187     82184     82182     82186     82187
     82185     82182     82186     82187     82189     82188     82192     82193
     82190     82188     82192     82193     82191     82188     82192     82193
     82195     82194     82198     82199     82196     82194     82198     82199
     82197     82194     82198     82199     82201     82200     82204     82205
     82202     82200     82204     82205     82203     82200     82204     82205
     82207     82206     82210     82211     82208     82206     82210     82211
     82209     82206     82210     82211     82213     82212     82216     82217
     82214     82212     82216     82217     82215     82212     82216     82217
     82219     82218     82222     82223     82220     82218     82222     82223
     82221     82218     82222     82223     82225     82224     82228     82229
     82226     82224     82228     82229     82227     82224     82228     82229
     82231     82230     82234     82235     82232     82230     82234     82235
     82233     82230     82234     82235     82237     82236     82240     82241
     82238     82236     82240     82241     82239     82236     82240     82241
     82243     82242     82246     82247     82244     82242     82246     82247
     82245     82242     82246     82247     82249     82248     82252     82253
     82250     82248     82252     82253     82251     82248     82252     82253
     82255     82254     82258     82259     82256     82254     82258     82259
     82257     82254     82258     82259     82261     82260     82264     82265
     82262     82260     82264     82265     82263     82260     82264     82265
     82267     82266     82270     82271     82268     82266     82270     82271
     82269     82266     82270     82271     82273     82272     82276     82277
     82274     82272     82276     82277     82275     82272     82276     82277
     82279     82278     82282     82283     82280     82278     82282     82283
     82281     82278     82282     82283     82285     82284     82288     82289
     82286     82284     82288     82289     82287     82284     82288     82289
     82291     82290     82294     82295     82292     82290     82294     82295
     82293     82290     82294     82295     82297     82296     82300     82301
     82298     82296     82300     82301     82299     82296     82300     82301
     82303     82302     82306     82307     82304     82302     82306     82307
     82305     82302     82306     82307     82309     82308     82312     82313
     82310     82308     82312     82313     82311     82308     82312     82313
     82315     82314     82318     82319     82316     82314     82318     82319
     82317     82314     82318     82319     82321     82320     82324     82325
     82322     82320     82324     82325     82323     82320     82324     82325
     82327     82326     82330     82331     82328     82326     82330     82331
     82329     82326     82330     82331     82333     82332     82336     82337
     82334     82332     82336     82337     82335     82332     82336     82337
     82339     82338     82342     82343     82340     82338     82342     82343
     82341     82338     82342     82343     82345     82344     82348     82349
     82346     82344     82348     82349     82347     82344     82348     82349
     82351     82350     82354     82355     82352     82350     82354     82355
     82353     82350     82354     82355     82357     82356     82360     82361
     82358     82356     82360     82361     82359     82356     82360     82361
     82363     82362     82366     82367     82364     82362     82366     82367
     82365     82362     82366     82367     82369     82368     82372     82373
     82370     82368     82372     82373     82371     82368     82372     82373
     82375     82374     82378     82379     82376     82374     82378     82379
     82377     82374     82378     82379     82381     82380     82384     82385
     82382     82380     82384     82385     82383     82380     82384     82385
     82387     82386     82390     82391     82388     82386     82390     82391
     82389     82386     82390     82391     82393     82392     82396     82397
     82394     82392     82396     82397     82395     82392     82396     82397
     82399     82398     82402     82403     82400     82398     82402     82403
     82401     82398     82402     82403     82405     82404     82408     82409
     82406     82404     82408     82409     82407     82404     82408     82409
     82411     82410     82414     82415     82412     82410     82414     82415
     82413     82410     82414     82415     82417     82416     82420     82421
     82418     82416     82420     82421     82419     82416     82420     82421
     82423     82422     82426     82427     82424     82422     82426     82427
     82425     82422     82426     82427     82429     82428     82432     82433
     82430     82428     82432     82433     82431     82428     82432     82433
     82435     82434     82438     82439     82436     82434     82438     82439
     82437     82434     82438     82439     82441     82440     82444     82445
     82442     82440     82444     82445     82443     82440     82444     82445
     82447     82446     82450     82451     82448     82446     82450     82451
     82449     82446     82450     82451     82453     82452     82456     82457
     82454     82452     82456     82457     82455     82452     82456     82457
     82459     82458     82462     82463     82460     82458     82462     82463
     82461     82458     82462     82463     82465     82464     82468     82469
     82466     82464     82468     82469     82467     82464     82468     82469
     82471     82470     82474     82475     82472     82470     82474     82475
     82473     82470     82474     82475     82477     82476     82480     82481
     82478     82476     82480     82481     82479     82476     82480     82481
     82483     82482     82486     82487     82484     82482     82486     82487
     82485     82482     82486     82487     82489     82488     82492     82493
     82490     82488     82492     82493     82491     82488     82492     82493
     82495     82494     82498     82499     82496     82494     82498     82499
     82497     82494     82498     82499     82501     82500     82504     82505
     82502     82500     82504     82505     82503     82500     82504     82505
     82507     82506     82510     82511     82508     82506     82510     82511
     82509     82506     82510     82511     82513     82512     82516     82517
     82514     82512     82516     82517     82515     82512     82516     82517
     82519     82518     82522     82523     82520     82518     82522     82523
     82521     82518     82522     82523     82525     82524     82528     82529
     82526     82524     82528     82529     82527     82524     82528     82529
     82531     82530     82534     82535     82532     82530     82534     82535
     82533     82530     82534     82535     82537     82536     82540     82541
     82538     82536     82540     82541     82539     82536     82540     82541
     82543     82542     82546     82547     82544     82542     82546     82547
     82545     82542     82546     82547     82549     82548     82552     82553
     82550     82548     82552     82553     82551     82548     82552     82553
     82555     82554     82558     82559     82556     82554     82558     82559
     82557     82554     82558     82559     82561     82560     82564     82565
     82562     82560     82564     82565     82563     82560     82564     82565
     82567     82566     82570     82571     82568     82566     82570     82571
     82569     82566     82570     82571     82573     82572     82576     82577
     82574     82572     82576     82577     82575     82572     82576     82577
     82579     82578     82582     82583     82580     82578     82582     82583
     82581     82578     82582     82583     82585     82584     82588     82589
     82586     82584     82588     82589     82587     82584     82588     82589
     82591     82590     82594     82595     82592     82590     82594     82595
     82593     82590     82594     82595     82597     82596     82600     82601
     82598     82596     82600     82601     82599     82596     82600     82601
     82603     82602     82606     82607     82604     82602     82606     82607
     82605     82602     82606     82607     82609     82608     82612     82613
     82610     82608     82612     82613     82611     82608     82612     82613
     82615     82614     82618     82619     82616     82614     82618     82619
     82617     82614     82618     82619     82621     82620     82624     82625
     82622     82620     82624     82625     82623     82620     82624     82625
     82627     82626     82630     82631     82628     82626     82630     82631
     82629     82626     82630     82631     82633     82632     82636     82637
     82634     82632     82636     82637     82635     82632     82636     82637
     82639     82638     82642     82643     82640     82638     82642     82643
     82641     82638     82642     82643     82645     82644     82648     82649
     82646     82644     82648     82649     82647     82644     82648     82649
     82651     82650     82654     82655     82652     82650     82654     82655
     82653     82650     82654     82655     82657     82656     82660     82661
     82658     82656     82660     82661     82659     82656     82660     82661
     82663     82662     82666     82667     82664     82662     82666     82667
     82665     82662     82666     82667     82669     82668     82672     82673
     82670     82668     82672     82673     82671     82668     82672     82673
     82675     82674     82678     82679     82676     82674     82678     82679
     82677     82674     82678     82679     82681     82680     82684     82685
     82682     82680     82684     82685     82683     82680     82684     82685
     82687     82686     82690     82691     82688     82686     82690     82691
     82689     82686     82690     82691     82693     82692     82696     82697
     82694     82692     82696     82697     82695     82692     82696     82697
     82699     82698     82702     82703     82700     82698     82702     82703
     82701     82698     82702     82703     82705     82704     82708     82709
     82706     82704     82708     82709     82707     82704     82708     82709
     82711     82710     82714     82715     82712     82710     82714     82715
     82713     82710     82714     82715     82717     82716     82720     82721
     82718     82716     82720     82721     82719     82716     82720     82721
     82723     82722     82726     82727     82724     82722     82726     82727
     82725     82722     82726     82727     82729     82728     82732     82733
     82730     82728     82732     82733     82731     82728     82732     82733
     82735     82734     82738     82739     82736     82734     82738     82739
     82737     82734     82738     82739     82741     82740     82744     82745
     82742     82740     82744     82745     82743     82740     82744     82745
     82747     82746     82750     82751     82748     82746     82750     82751
     82749     82746     82750     82751     82753     82752     82756     82757
     82754     82752     82756     82757     82755     82752     82756     82757
     82759     82758     82762     82763     82760     82758     82762     82763
     82761     82758     82762     82763     82765     82764     82768     82769
     82766     82764     82768     82769     82767     82764     82768     82769
     82771     82770     82774     82775     82772     82770     82774     82775
     82773     82770     82774     82775     82777     82776     82780     82781
     82778     82776     82780     82781     82779     82776     82780     82781
     82783     82782     82786     82787     82784     82782     82786     82787
     82785     82782     82786     82787     82789     82788     82792     82793
     82790     82788     82792     82793     82791     82788     82792     82793
     82795     82794     82798     82799     82796     82794     82798     82799
     82797     82794     82798     82799     82801     82800     82804     82805
     82802     82800     82804     82805     82803     82800     82804     82805
     82807     82806     82810     82811     82808     82806     82810     82811
     82809     82806     82810     82811     82813     82812     82816     82817
     82814     82812     82816     82817     82815     82812     82816     82817
     82819     82818     82822     82823     82820     82818     82822     82823
     82821     82818     82822     82823     82825     82824     82828     82829
     82826     82824     82828     82829     82827     82824     82828     82829
     82831     82830     82834     82835     82832     82830     82834     82835
     82833     82830     82834     82835     82837     82836     82840     82841
     82838     82836     82840     82841     82839     82836     82840     82841
     82843     82842     82846     82847     82844     82842     82846     82847
     82845     82842     82846     82847     82849     82848     82852     82853
     82850     82848     82852     82853     82851     82848     82852     82853
     82855     82854     82858     82859     82856     82854     82858     82859
     82857     82854     82858     82859     82861     82860     82864     82865
     82862     82860     82864     82865     82863     82860     82864     82865
     82867     82866     82870     82871     82868     82866     82870     82871
     82869     82866     82870     82871     82873     82872     82876     82877
     82874     82872     82876     82877     82875     82872     82876     82877
     82879     82878     82882     82883     82880     82878     82882     82883
     82881     82878     82882     82883     82885     82884     82888     82889
     82886     82884     82888     82889     82887     82884     82888     82889
     82891     82890     82894     82895     82892     82890     82894     82895
     82893     82890     82894     82895     82897     82896     82900     82901
     82898     82896     82900     82901     82899     82896     82900     82901
     82903     82902     82906     82907     82904     82902     82906     82907
     82905     82902     82906     82907     82909     82908     82912     82913
     82910     82908     82912     82913     82911     82908     82912     82913
     82915     82914     82918     82919     82916     82914     82918     82919
     82917     82914     82918     82919     82921     82920     82924     82925
     82922     82920     82924     82925     82923     82920     82924     82925
     82927     82926     82930     82931     82928     82926     82930     82931
     82929     82926     82930     82931     82933     82932     82936     82937
     82934     82932     82936     82937     82935     82932     82936     82937
     82939     82938     82942     82943     82940     82938     82942     82943
     82941     82938     82942     82943     82945     82944     82948     82949
     82946     82944     82948     82949     82947     82944     82948     82949
     82951     82950     82954     82955     82952     82950     82954     82955
     82953     82950     82954     82955     82957     82956     82960     82961
     82958     82956     82960     82961     82959     82956     82960     82961
     82963     82962     82966     82967     82964     82962     82966     82967
     82965     82962     82966     82967     82969     82968     82972     82973
     82970     82968     82972     82973     82971     82968     82972     82973
     82975     82974     82978     82979     82976     82974     82978     82979
     82977     82974     82978     82979     82981     82980     82984     82985
     82982     82980     82984     82985     82983     82980     82984     82985
     82987     82986     82990     82991     82988     82986     82990     82991
     82989     82986     82990     82991     82993     82992     82996     82997
     82994     82992     82996     82997     82995     82992     82996     82997
     82999     82998     83002     83003     83000     82998     83002     83003
     83001     82998     83002     83003     83005     83004     83008     83009
     83006     83004     83008     83009     83007     83004     83008     83009
     83011     83010     83014     83015     83012     83010     83014     83015
     83013     83010     83014     83015     83017     83016     83020     83021
     83018     83016     83020     83021     83019     83016     83020     83021
     83023     83022     83026     83027     83024     83022     83026     83027
     83025     83022     83026     83027     83029     83028     83032     83033
     83030     83028     83032     83033     83031     83028     83032     83033
     83035     83034     83038     83039     83036     83034     83038     83039
     83037     83034     83038     83039     83041     83040     83044     83045
     83042     83040     83044     83045     83043     83040     83044     83045
     83047     83046     83050     83051     83048     83046     83050     83051
     83049     83046     83050     83051     83053     83052     83056     83057
     83054     83052     83056     83057     83055     83052     83056     83057
     83059     83058     83062     83063     83060     83058     83062     83063
     83061     83058     83062     83063     83065     83064     83068     83069
     83066     83064     83068     83069     83067     83064     83068     83069
     83071     83070     83074     83075     83072     83070     83074     83075
     83073     83070     83074     83075     83077     83076     83080     83081
     83078     83076     83080     83081     83079     83076     83080     83081
     83083     83082     83086     83087     83084     83082     83086     83087
     83085     83082     83086     83087     83089     83088     83092     83093
     83090     83088     83092     83093     83091     83088     83092     83093
     83095     83094     83098     83099     83096     83094     83098     83099
     83097     83094     83098     83099     83101     83100     83104     83105
     83102     83100     83104     83105     83103     83100     83104     83105
     83107     83106     83110     83111     83108     83106     83110     83111
     83109     83106     83110     83111     83113     83112     83116     83117
     83114     83112     83116     83117     83115     83112     83116     83117
     83119     83118     83122     83123     83120     83118     83122     83123
     83121     83118     83122     83123     83125     83124     83128     83129
     83126     83124     83128     83129     83127     83124     83128     83129
     83131     83130     83134     83135     83132     83130     83134     83135
     83133     83130     83134     83135     83137     83136     83140     83141
     83138     83136     83140     83141     83139     83136     83140     83141
     83143     83142     83146     83147     83144     83142     83146     83147
     83145     83142     83146     83147     83149     83148     83152     83153
     83150     83148     83152     83153     83151     83148     83152     83153
     83155     83154     83158     83159     83156     83154     83158     83159
     83157     83154     83158     83159     83161     83160     83164     83165
     83162     83160     83164     83165     83163     83160     83164     83165
     83167     83166     83170     83171     83168     83166     83170     83171
     83169     83166     83170     83171     83173     83172     83176     83177
     83174     83172     83176     83177     83175     83172     83176     83177
     83179     83178     83182     83183     83180     83178     83182     83183
     83181     83178     83182     83183     83185     83184     83188     83189
     83186     83184     83188     83189     83187     83184     83188     83189
     83191     83190     83194     83195     83192     83190     83194     83195
     83193     83190     83194     83195     83197     83196     83200     83201
     83198     83196     83200     83201     83199     83196     83200     83201
     83203     83202     83206     83207     83204     83202     83206     83207
     83205     83202     83206     83207     83209     83208     83212     83213
     83210     83208     83212     83213     83211     83208     83212     83213
     83215     83214     83218     83219     83216     83214     83218     83219
     83217     83214     83218     83219     83221     83220     83224     83225
     83222     83220     83224     83225     83223     83220     83224     83225
     83227     83226     83230     83231     83228     83226     83230     83231
     83229     83226     83230     83231     83233     83232     83236     83237
     83234     83232     83236     83237     83235     83232     83236     83237
     83239     83238     83242     83243     83240     83238     83242     83243
     83241     83238     83242     83243     83245     83244     83248     83249
     83246     83244     83248     83249     83247     83244     83248     83249
     83251     83250     83254     83255     83252     83250     83254     83255
     83253     83250     83254     83255     83257     83256     83260     83261
     83258     83256     83260     83261     83259     83256     83260     83261
     83263     83262     83266     83267     83264     83262     83266     83267
     83265     83262     83266     83267     83269     83268     83272     83273
     83270     83268     83272     83273     83271     83268     83272     83273
     83275     83274     83278     83279     83276     83274     83278     83279
     83277     83274     83278     83279     83281     83280     83284     83285
     83282     83280     83284     83285     83283     83280     83284     83285
     83287     83286     83290     83291     83288     83286     83290     83291
     83289     83286     83290     83291     83293     83292     83296     83297
     83294     83292     83296     83297     83295     83292     83296     83297
     83299     83298     83302     83303     83300     83298     83302     83303
     83301     83298     83302     83303     83305     83304     83308     83309
     83306     83304     83308     83309     83307     83304     83308     83309
     83311     83310     83314     83315     83312     83310     83314     83315
     83313     83310     83314     83315     83317     83316     83320     83321
     83318     83316     83320     83321     83319     83316     83320     83321
     83323     83322     83326     83327     83324     83322     83326     83327
     83325     83322     83326     83327     83329     83328     83332     83333
     83330     83328     83332     83333     83331     83328     83332     83333
     83335     83334     83338     83339     83336     83334     83338     83339
     83337     83334     83338     83339     83341     83340     83344     83345
     83342     83340     83344     83345     83343     83340     83344     83345
     83347     83346     83350     83351     83348     83346     83350     83351
     83349     83346     83350     83351     83353     83352     83356     83357
     83354     83352     83356     83357     83355     83352     83356     83357
     83359     83358     83362     83363     83360     83358     83362     83363
     83361     83358     83362     83363     83365     83364     83368     83369
     83366     83364     83368     83369     83367     83364     83368     83369
     83371     83370     83374     83375     83372     83370     83374     83375
     83373     83370     83374     83375     83377     83376     83380     83381
     83378     83376     83380     83381     83379     83376     83380     83381
     83383     83382     83386     83387     83384     83382     83386     83387
     83385     83382     83386     83387     83389     83388     83392     83393
     83390     83388     83392     83393     83391     83388     83392     83393
     83395     83394     83398     83399     83396     83394     83398     83399
     83397     83394     83398     83399     83401     83400     83404     83405
     83402     83400     83404     83405     83403     83400     83404     83405
     83407     83406     83410     83411     83408     83406     83410     83411
     83409     83406     83410     83411     83413     83412     83416     83417
     83414     83412     83416     83417     83415     83412     83416     83417
     83419     83418     83422     83423     83420     83418     83422     83423
     83421     83418     83422     83423     83425     83424     83428     83429
     83426     83424     83428     83429     83427     83424     83428     83429
     83431     83430     83434     83435     83432     83430     83434     83435
     83433     83430     83434     83435     83437     83436     83440     83441
     83438     83436     83440     83441     83439     83436     83440     83441
     83443     83442     83446     83447     83444     83442     83446     83447
     83445     83442     83446     83447     83449     83448     83452     83453
     83450     83448     83452     83453     83451     83448     83452     83453
     83455     83454     83458     83459     83456     83454     83458     83459
     83457     83454     83458     83459     83461     83460     83464     83465
     83462     83460     83464     83465     83463     83460     83464     83465
     83467     83466     83470     83471     83468     83466     83470     83471
     83469     83466     83470     83471

       0 !NIMPHI: impropers


       0 !NDON: donors


       0 !NACC: acceptors


       0 !NNB

         0         0         0         0         0         0         0         0
         0         0         0         0         0         0         0         0
         0         0         0         0         0         0         0         0
         0         0         0         0         0         0         0         0
         0         0         0         0         0         0         0         0
         0         0         0         0         0         0         0         0
         0         0         0         0         0         0         0         0
         0         0         0         0         0         0         0         0
         0         0         0         0         0         0         0         0
         0         0         0         0         0         0         0         0
         0         0         0         0         0         0         0         0
         0         0         0         0         0         0         0         0
         0         0         0         0         0         0         0         0
         0         0         0         0         0         0         0         0
         0         0         0         0         0         0         0         0
         0         0         0         0         0         0         0         0
         0         0         0         0         0         0         0         0
         0         0         0         0         0         0         0         0
         0         0         0         0         0         0         0         0
         0         0         0         0         0         0         0         0
         0         0         0         0         0         0         0         0
         0         0         0         0         0         0         0         0
         0         0         0         0         0         0         0         0
         0         0         0         0         0         0         0         0
         0         0         0         0         0         0         0         0
         0         0         0         0         0         0         0         0
         0         0         0         0         0         0         0         0
         0         0         0         0         0         0         0         0
         0         0         0         0         0         0         0         0
         0         0         0         0         0         0         0         0
         0         0         0         0         0         0         0         0
         0         0         0         0         0         0         0         0
         0         0         0         0         0         0         0         0
         0         0         0         0         0         0         0         0
         0         0         0         0         0         0         0         0
         0         0         0         0         0         0         0         0
         0         0         0         0         0         0         0         0
         0         0         0         0         0         0         0         0
         0         0         0         0         0         0         0         0
         0         0         0         0         0         0         0         0
         0         0         0         0         0         0         0         0
         0         0         0         0         0         0         0         0
         0         0         0         0         0         0         0         0
         0         0         0         0         0         0         0         0
         0         0         0         0         0         0         0         0
         0         0         0         0         0         0         0         0
         0         0         0         0         0         0         0         0
         0         0         0         0         0         0         0         0
         0         0         0         0         0         0         0         0
         0         0         0         0         0         0         0         0
         0         0         0         0         0         0         0         0
         0         0         0         0         0         0         0         0
         0         0         0         0         0         0         0         0
         0         0         0         0         0         0         0         0
         0         0         0         0         0         0         0         0
         0         0         0         0         0         0         0         0
         0         0         0         0         0         0         0         0
         0         0         0         0         0         0         0         0
         0         0         0         0         0         0         0         0
         0         0         0         0         0         0         0         0
         0         0         0         0         0         0         0         0
         0         0         0         0         0         0         0         0
         0         0         0         0         0         0         0         0
         0         0         0         0         0         0         0         0
         0         0         0         0         0         0         0         0
         0         0         0         0         0         0         0         0
         0         0         0         0         0         0         0         0
         0         0         0         0         0         0         0         0
         0         0         0         0         0         0         0         0
         0         0         0         0         0         0         0         0
         0         0         0         0         0         0         0         0
         0         0         0         0         0         0         0         0
         0         0         0         0         0         0         0         0
         0         0         0         0         0         0         0         0
         0         0         0         0         0         0         0         0
         0         0         0         0         0         0         0         0
         0         0         0         0         0         0         0         0
         0         0         0         0         0         0         0         0
         0         0         0         0         0         0         0         0
         0         0         0         0         0         0         0         0
         0         0         0         0         0         0         0         0
         0         0         0         0         0         0         0         0
         0         0         0         0         0         0         0         0
         0         0         0         0         0         0         0         0
         0         0         0         0         0         0         0         0
         0         0         0         0         0         0         0         0
         0         0         0         0         0         0         0         0
         0         0         0         0         0         0         0         0
         0         0         0         0         0         0         0         0
         0         0         0         0         0         0         0         0
         0         0         0         0         0         0         0         0
         0         0         0         0         0         0         0         0
         0         0         0         0         0         0         0         0
         0         0         0         0         0         0         0         0
         0         0         0         0         0         0         0         0
         0         0         0         0         0         0         0         0
         0         0         0         0         0         0         0         0
         0         0         0         0         0         0         0         0
         0         0         0         0         0         0         0         0
         0         0         0         0         0         0         0         0
         0         0         0         0         0         0         0         0
         0         0         0         0         0         0         0         0
         0         0         0         0         0         0         0         0
         0         0         0         0         0         0         0         0
         0         0         0         0         0         0         0         0
         0         0         0         0         0         0         0         0
         0         0         0         0         0         0         0         0
         0         0         0         0         0         0         0         0
         0         0         0         0         0         0         0         0
         0         0         0         0         0         0         0         0
         0         0         0         0         0         0         0         0
         0         0         0         0         0         0         0         0
         0         0         0         0         0         0         0         0
         0         0         0         0         0         0         0         0
         0         0         0         0         0         0         0         0
         0         0         0         0         0         0         0         0
         0         0         0         0         0         0         0         0
         0         0         0         0         0         0         0         0
         0         0         0         0         0         0         0         0
         0         0         0         0         0         0         0         0
         0         0         0         0         0         0         0         0
         0         0         0         0         0         0         0         0
         0         0         0         0         0         0         0         0
         0         0         0         0         0         0         0         0
         0         0         0         0         0         0         0         0
         0         0         0         0         0         0         0         0
         0         0         0         0         0         0         0         0
         0         0         0         0         0         0         0         0
         0         0         0         0         0         0         0         0
         0         0         0         0         0         0         0         0
         0         0         0         0         0         0         0         0
         0         0         0         0         0         0         0         0
         0         0         0         0         0         0         0         0
         0         0         0         0         0         0         0         0
         0         0         0         0         0         0         0         0
         0         0         0         0         0         0         0         0
         0         0         0         0         0         0         0         0
         0         0         0         0         0         0         0         0
         0         0         0         0         0         0         0         0
         0         0         0         0         0         0         0         0
         0         0         0         0         0         0         0         0
         0         0         0         0         0         0         0         0
         0         0         0         0         0         0         0         0
         0         0         0         0         0         0         0         0
         0         0         0         0         0         0         0         0
         0         0         0         0         0         0         0         0
         0         0         0         0         0         0         0         0
         0         0         0         0         0         0         0         0
         0         0         0         0         0         0         0         0
         0         0         0         0         0         0         0         0
         0         0         0         0         0         0         0         0
         0         0         0         0         0         0         0         0
         0         0         0         0         0         0         0         0
         0         0         0         0         0         0         0         0
         0         0         0         0         0         0         0         0
         0         0         0         0         0         0         0         0
         0         0         0         0         0         0         0         0
         0         0         0         0         0         0         0         0
         0         0         0         0         0         0         0         0
         0         0         0         0         0         0         0         0
         0         0         0         0         0         0         0         0
         0         0         0         0         0         0         0         0
         0         0         0         0         0         0         0         0
         0         0         0         0         0         0         0         0
         0         0         0         0         0         0         0         0
         0         0         0         0         0         0         0         0
         0         0         0         0         0         0         0         0
         0         0         0         0         0         0         0         0
         0         0         0         0         0         0         0         0
         0         0         0         0         0         0         0         0
         0         0         0         0         0         0         0         0
         0         0         0         0         0         0         0         0
         0         0         0         0         0         0         0         0
         0         0         0         0         0         0         0         0
         0         0         0         0         0         0         0         0
         0         0         0         0         0         0         0         0
         0         0         0         0         0         0         0         0
         0         0         0         0         0         0         0         0
         0         0         0         0         0         0         0         0
         0         0         0         0         0         0         0         0
         0         0         0         0         0         0         0         0
         0         0         0         0         0         0         0         0
         0         0         0         0         0         0         0         0
         0         0         0         0         0         0         0         0
         0         0         0         0         0         0         0         0
         0         0         0         0         0         0         0         0
         0         0         0         0         0         0         0         0
         0         0         0         0         0         0         0         0
         0         0         0         0         0         0         0         0
         0         0         0         0         0         0         0         0
         0         0         0         0         0         0         0         0
         0         0         0         0         0         0         0         0
         0         0         0         0         0         0         0         0
         0         0         0         0         0         0         0         0
         0         0         0         0         0         0         0         0
         0         0         0         0         0         0         0         0
         0         0         0         0         0         0         0         0
         0         0         0         0         0         0         0         0
         0         0         0         0         0         0         0         0
         0         0         0         0         0         0         0         0
         0         0         0         0         0         0         0         0
         0         0         0         0         0         0         0         0
         0         0         0         0         0         0         0         0
         0         0         0         0         0         0         0         0
         0         0         0         0         0         0         0         0
         0         0         0         0         0         0         0         0
         0         0         0         0         0         0         0         0
         0         0         0         0         0         0         0         0
         0         0         0         0         0         0         0         0
         0         0         0         0         0         0         0         0
         0         0         0         0         0         0         0         0
         0         0         0         0         0         0         0         0
         0         0         0         0         0         0         0         0
         0         0         0         0         0         0         0         0
         0         0         0         0         0         0         0         0
         0         0         0         0         0         0         0         0
         0         0         0         0         0         0         0         0
         0         0         0         0         0         0         0         0
         0         0         0         0         0         0         0         0
         0         0         0         0         0         0         0         0
         0         0         0         0         0         0         0         0
         0         0         0         0         0         0         0         0
         0         0         0         0         0         0         0         0
         0         0         0         0         0         0         0         0
         0         0         0         0         0         0         0         0
         0         0         0         0         0         0         0         0
         0         0         0         0         0         0         0         0
         0         0         0         0         0         0         0         0
         0         0         0         0         0         0         0         0
         0         0         0         0         0         0         0         0
         0         0         0         0         0         0         0         0
         0         0         0         0         0         0         0         0
         0         0         0         0         0         0         0         0
         0         0         0         0         0         0         0         0
         0         0         0         0         0         0         0         0
         0         0         0         0         0         0         0         0
         0         0         0         0         0         0         0         0
         0         0         0         0         0         0         0         0
         0         0         0         0         0         0         0         0
         0         0         0         0         0         0         0         0
         0         0         0         0         0         0         0         0
         0         0         0         0         0         0         0         0
         0         0         0         0         0         0         0         0
         0         0         0         0         0         0         0         0
         0         0         0         0         0         0         0         0
         0         0         0         0         0         0         0         0
         0         0         0         0         0         0         0         0
         0         0         0         0         0         0         0         0
         0         0         0         0         0         0         0         0
         0         0         0         0         0         0         0         0
         0         0         0         0         0         0         0         0
         0         0         0         0         0         0         0         0
         0         0         0         0         0         0         0         0
         0         0         0         0         0         0         0         0
         0         0         0         0         0         0         0         0
         0         0         0         0         0         0         0         0
         0         0         0         0         0         0         0         0
         0         0         0         0         0         0         0         0
         0         0         0         0         0         0         0         0
         0         0         0         0         0         0         0         0
         0         0         0         0         0         0         0         0
         0         0         0         0         0         0         0         0
         0         0         0         0         0         0         0         0
         0         0         0         0         0         0         0         0
         0         0         0         0         0         0         0         0
         0         0         0         0         0         0         0         0
         0         0         0         0         0         0         0         0
         0         0         0         0         0         0         0         0
         0         0         0         0         0         0         0         0
         0         0         0         0         0         0         0         0
         0         0         0         0         0         0         0         0
         0         0         0         0         0         0         0         0
         0         0         0         0         0         0         0         0
         0         0         0         0         0         0         0         0
         0         0         0         0         0         0         0         0
         0         0         0         0         0         0         0         0
         0         0         0         0         0         0         0         0
         0         0         0         0         0         0         0         0
         0         0         0         0         0         0         0         0
         0         0         0         0         0         0         0         0
         0         0         0         0         0         0         0         0
         0         0         0         0         0         0         0         0
         0         0         0         0         0         0         0         0
         0         0         0         0         0         0         0         0
         0         0         0         0         0         0         0         0
         0         0         0         0         0         0         0         0
         0         0         0         0         0         0         0         0
         0         0         0         0         0         0         0         0
         0         0         0         0         0         0         0         0
         0         0         0         0         0         0         0         0
         0         0         0         0         0         0         0         0
         0         0         0         0         0         0         0         0
         0         0         0         0         0         0         0         0
         0         0         0         0         0         0         0         0
         0         0         0         0         0         0         0         0
         0         0         0         0         0         0         0         0
         0         0         0         0         0         0         0         0
         0         0         0         0         0         0         0         0
         0         0         0         0         0         0         0         0
         0         0         0         0         0         0         0         0
         0         0         0         0         0         0         0         0
         0         0         0         0         0         0         0         0
         0         0         0         0         0         0         0         0
         0         0         0         0         0         0         0         0
         0         0         0         0         0         0         0         0
         0         0         0         0         0         0         0         0
         0         0         0         0         0         0         0         0
         0         0         0         0         0         0         0         0
         0         0         0         0         0         0         0         0
         0         0         0         0         0         0         0         0
         0         0         0         0         0         0         0         0
         0         0         0         0         0         0         0         0
         0         0         0         0         0         0         0         0
         0         0         0         0         0         0         0         0
         0         0         0         0         0         0         0         0
         0         0         0         0         0         0         0         0
         0         0         0         0         0         0         0         0
         0         0         0         0         0         0         0         0
         0         0         0         0         0         0         0         0
         0         0         0         0         0         0         0         0
         0         0         0         0         0         0         0         0
         0         0         0         0         0         0         0         0
         0         0         0         0         0         0         0         0
         0         0         0         0         0         0         0         0
         0         0         0         0         0         0         0         0
         0         0         0         0         0         0         0         0
         0         0         0         0         0         0         0         0
         0         0         0         0         0         0         0         0
         0         0         0         0         0         0         0         0
         0         0         0         0         0         0         0         0
         0         0         0         0         0         0         0         0
         0         0         0         0         0         0         0         0
         0         0         0         0         0         0         0         0
         0         0         0         0         0         0         0         0
         0         0         0         0         0         0         0         0
         0         0         0         0         0         0         0         0
         0         0         0         0         0         0         0         0
         0         0         0         0         0         0         0         0
         0         0         0         0         0         0         0         0
         0         0         0         0         0         0         0         0
         0         0         0         0         0         0         0         0
         0         0         0         0         0         0         0         0
         0         0         0         0         0         0         0         0
         0         0         0         0         0         0         0         0
         0         0         0         0         0         0         0         0
         0         0         0         0         0         0         0         0
         0         0         0         0         0         0         0         0
         0         0         0         0         0         0         0         0
         0         0         0         0         0         0         0         0
         0         0         0         0         0         0         0         0
         0         0         0         0         0         0         0         0
         0         0         0         0         0         0         0         0
         0         0         0         0         0         0         0         0
         0         0         0         0         0         0         0         0
         0         0         0         0         0         0         0         0
         0         0         0         0         0         0         0         0
         0         0         0         0         0         0         0         0
         0         0         0         0         0         0         0         0
         0         0         0         0         0         0         0         0
         0         0         0         0         0         0         0         0
         0         0         0         0         0         0         0         0
         0         0         0         0         0         0         0         0
         0         0         0         0         0         0         0         0
         0         0         0         0         0         0         0         0
         0         0         0         0         0         0         0         0
         0         0         0         0         0         0         0         0
         0         0         0         0         0         0         0         0
         0         0         0         0         0         0         0         0
         0         0         0         0         0         0         0         0
         0         0         0         0         0         0         0         0
         0         0         0         0         0         0         0         0
         0         0         0         0         0         0         0         0
         0         0         0         0         0         0         0         0
         0         0         0         0         0         0         0         0
         0         0         0         0         0         0         0         0
         0         0         0         0         0         0         0         0
         0         0         0         0         0         0         0         0
         0         0         0         0         0         0         0         0
         0         0         0         0         0         0         0         0
         0         0         0         0         0         0         0         0
         0         0         0         0         0         0         0         0
         0         0         0         0         0         0         0         0
         0         0         0         0         0         0         0         0
         0         0         0         0         0         0         0         0
         0         0         0         0         0         0         0         0
         0         0         0         0         0         0         0         0
         0         0         0         0         0         0         0         0
         0         0         0         0         0         0         0         0
         0         0         0         0         0         0         0         0
         0         0         0         0         0         0         0         0
         0         0         0         0         0         0         0         0
         0         0         0         0         0         0         0         0
         0         0         0         0         0         0         0         0
         0         0         0         0         0         0         0         0
         0         0         0         0         0         0         0         0
         0         0         0         0         0         0         0         0
         0         0         0         0         0         0         0         0
         0         0         0         0         0         0         0         0
         0         0         0         0         0         0         0         0
         0         0         0         0         0         0         0         0
         0         0         0         0         0         0         0         0
         0         0         0         0         0         0         0         0
         0         0         0         0         0         0         0         0
         0         0         0         0         0         0         0         0
         0         0         0         0         0         0         0         0
         0         0         0         0         0         0         0         0
         0         0         0         0         0         0         0         0
         0         0         0         0         0         0         0         0
         0         0         0         0         0         0         0         0
         0         0         0         0         0         0         0         0
         0         0         0         0         0         0         0         0
         0         0         0         0         0         0         0         0
         0         0         0         0         0         0         0         0
         0         0         0         0         0         0         0         0
         0         0         0         0         0         0         0         0
         0         0         0         0         0         0         0         0
         0         0         0         0         0         0         0         0
         0         0         0         0         0         0         0         0
         0         0         0         0         0         0         0         0
         0         0         0         0         0         0         0         0
         0         0         0         0         0         0         0         0
         0         0         0         0         0         0         0         0
         0         0         0         0         0         0         0         0
         0         0         0         0         0         0         0         0
         0         0         0         0         0         0         0         0
         0         0         0         0         0         0         0         0
         0         0         0         0         0         0         0         0
         0         0         0         0         0         0         0         0
         0         0         0         0         0         0         0         0
         0         0         0         0         0         0         0         0
         0         0         0         0         0         0         0         0
         0         0         0         0         0         0         0         0
         0         0         0         0         0         0         0         0
         0         0         0         0         0         0         0         0
         0         0         0         0         0         0         0         0
         0         0         0         0         0         0         0         0
         0         0         0         0         0         0         0         0
         0         0         0         0         0         0         0         0
         0         0         0         0         0         0         0         0
         0         0         0         0         0         0         0         0
         0         0         0         0         0         0         0         0
         0         0         0         0         0         0         0         0
         0         0         0         0         0         0         0         0
         0         0         0         0         0         0         0         0
         0         0         0         0         0         0         0         0
         0         0         0         0         0         0         0         0
         0         0         0         0         0         0         0         0
         0         0         0         0         0         0         0         0
         0         0         0         0         0         0         0         0
         0         0         0         0         0         0         0         0
         0         0         0         0         0         0         0         0
         0         0         0         0         0         0         0         0
         0         0         0         0         0         0         0         0
         0         0         0         0         0         0         0         0
         0         0         0         0         0         0         0         0
         0         0         0         0         0         0         0         0
         0         0         0         0         0         0         0         0
         0         0         0         0         0         0         0         0
         0         0         0         0         0         0         0         0
         0         0         0         0         0         0         0         0
         0         0         0         0         0         0         0         0
         0         0         0         0         0         0         0         0
         0         0         0         0         0         0         0         0
         0         0         0         0         0         0         0         0
         0         0         0         0         0         0         0         0
         0         0         0         0         0         0         0         0
         0         0         0         0         0         0         0         0
         0         0         0         0         0         0         0         0
         0         0         0         0         0         0         0         0
         0         0         0         0         0         0         0         0
         0         0         0         0         0         0         0         0
         0         0         0         0         0         0         0         0
         0         0         0         0         0         0         0         0
         0         0         0         0         0         0         0         0
         0         0         0         0         0         0         0         0
         0         0         0         0         0         0         0         0
         0         0         0         0         0         0         0         0
         0         0         0         0         0         0         0         0
         0         0         0         0         0         0         0         0
         0         0         0         0         0         0         0         0
         0         0         0         0         0         0         0         0
         0         0         0         0         0         0         0         0
         0         0         0         0         0         0         0         0
         0         0         0         0         0         0         0         0
         0         0         0         0         0         0         0         0
         0         0         0         0         0         0         0         0
         0         0         0         0         0         0         0         0
         0         0         0         0         0         0         0         0
         0         0         0         0         0         0         0         0
         0         0         0         0         0         0         0         0
         0         0         0         0         0         0         0         0
         0         0         0         0         0         0         0         0
         0         0         0         0         0         0         0         0
         0         0         0         0         0         0         0         0
         0         0         0         0         0         0         0         0
         0         0         0         0         0         0         0         0
         0         0         0         0         0         0         0         0
         0         0         0         0         0         0         0         0
         0         0         0         0         0         0         0         0
         0         0         0         0         0         0         0         0
         0         0         0         0         0         0         0         0
         0         0         0         0         0         0         0         0
         0         0         0         0         0         0         0         0
         0         0         0         0         0         0         0         0
         0         0         0         0         0         0         0         0
         0         0         0         0         0         0         0         0
         0         0         0         0         0         0         0         0
         0         0         0         0         0         0         0         0
         0         0         0         0         0         0         0         0
         0         0         0         0         0         0         0         0
         0         0         0         0         0         0         0         0
         0         0         0         0         0         0         0         0
         0         0         0         0         0         0         0         0
         0         0         0         0         0         0         0         0
         0         0         0         0         0         0         0         0
         0         0         0         0         0         0         0         0
         0         0         0         0         0         0         0         0
         0         0         0         0         0         0         0         0
         0         0         0         0         0         0         0         0
         0         0         0         0         0         0         0         0
         0         0         0         0         0         0         0         0
         0         0         0         0         0         0         0         0
         0         0         0         0         0         0         0         0
         0         0         0         0         0         0         0         0
         0         0         0         0         0         0         0         0
         0         0         0         0         0         0         0         0
         0         0         0         0         0         0         0         0
         0         0         0         0         0         0         0         0
         0         0         0         0         0         0         0         0
         0         0         0         0         0         0         0         0
         0         0         0         0         0         0         0         0
         0         0         0         0         0         0         0         0
         0         0         0         0         0         0         0         0
         0         0         0         0         0         0         0         0
         0         0         0         0         0         0         0         0
         0         0         0         0         0         0         0         0
         0         0         0         0         0         0         0         0
         0         0         0         0         0         0         0         0
         0         0         0         0         0         0         0         0
         0         0         0         0         0         0         0         0
         0         0         0         0         0         0         0         0
         0         0         0         0         0         0         0         0
         0         0         0         0         0         0         0         0
         0         0         0         0         0         0         0         0
         0         0         0         0         0         0         0         0
         0         0         0         0         0         0         0         0
         0         0         0         0         0         0         0         0
         0         0         0         0         0         0         0         0
         0         0         0         0         0         0         0         0
         0         0         0         0         0         0         0         0
         0         0         0         0         0         0         0         0
         0         0         0         0         0         0         0         0
         0         0         0         0         0         0         0         0
         0         0         0         0         0         0         0         0
         0         0         0         0         0         0         0         0
         0         0         0         0         0         0         0         0
         0         0         0         0         0         0         0         0
         0         0         0         0         0         0         0         0
         0         0         0         0         0         0         0         0
         0         0         0         0         0         0         0         0
         0         0         0         0         0         0         0         0
         0         0         0         0         0         0         0         0
         0         0         0         0         0         0         0         0
         0         0         0         0         0         0         0         0
         0         0         0         0         0         0         0         0
         0         0         0         0         0         0         0         0
         0         0         0         0         0         0         0         0
         0         0         0         0         0         0         0         0
         0         0         0         0         0         0         0         0
         0         0         0         0         0         0         0         0
         0         0         0         0         0         0         0         0
         0         0         0         0         0         0         0         0
         0         0         0         0         0         0         0         0
         0         0         0         0         0         0         0         0
         0         0         0         0         0         0         0         0
         0         0         0         0         0         0         0         0
         0         0         0         0         0         0         0         0
         0         0         0         0         0         0         0         0
         0         0         0         0         0         0         0         0
         0         0         0         0         0         0         0         0
         0         0         0         0         0         0         0         0
         0         0         0         0         0         0         0         0
         0         0         0         0         0         0         0         0
         0         0         0         0         0         0         0         0
         0         0         0         0         0         0         0         0
         0         0         0         0         0         0         0         0
         0         0         0         0         0         0         0         0
         0         0         0         0         0         0         0         0
         0         0         0         0         0         0         0         0
         0         0         0         0         0         0         0         0
         0         0         0         0         0         0         0         0
         0         0         0         0         0         0         0         0
         0         0         0         0         0         0         0         0
         0         0         0         0         0         0         0         0
         0         0         0         0         0         0         0         0
         0         0         0         0         0         0         0         0
         0         0         0         0         0         0         0         0
         0         0         0         0         0         0         0         0
         0         0         0         0         0         0         0         0
         0         0         0         0         0         0         0         0
         0         0         0         0         0         0         0         0
         0         0         0         0         0         0         0         0
         0         0         0         0         0         0         0         0
         0         0         0         0         0         0         0         0
         0         0         0         0         0         0         0         0
         0         0         0         0         0         0         0         0
         0         0         0         0         0         0         0         0
         0         0         0         0         0         0         0         0
         0         0         0         0         0         0         0         0
         0         0         0         0         0         0         0         0
         0         0         0         0         0         0         0         0
         0         0         0         0         0         0         0         0
         0         0         0         0         0         0         0         0
         0         0         0         0         0         0         0         0
         0         0         0         0         0         0         0         0
         0         0         0         0         0         0         0         0
         0         0         0         0         0         0         0         0
         0         0         0         0         0         0         0         0
         0         0         0         0         0         0         0         0
         0         0         0         0         0         0         0         0
         0         0         0         0         0         0         0         0
         0         0         0         0         0         0         0         0
         0         0         0         0         0         0         0         0
         0         0         0         0         0         0         0         0
         0         0         0         0         0         0         0         0
         0         0         0         0         0         0         0         0
         0         0         0         0         0         0         0         0
         0         0         0         0         0         0         0         0
         0         0         0         0         0         0         0         0
         0         0         0         0         0         0         0         0
         0         0         0         0         0         0         0         0
         0         0         0         0         0         0         0         0
         0         0         0         0         0         0         0         0
         0         0         0         0         0         0         0         0
         0         0         0         0         0         0         0         0
         0         0         0         0         0         0         0         0
         0         0         0         0         0         0         0         0
         0         0         0         0         0         0         0         0
         0         0         0         0         0         0         0         0
         0         0         0         0         0         0         0         0
         0         0         0         0         0         0         0         0
         0         0         0         0         0         0         0         0
         0         0         0         0         0         0         0         0
         0         0         0         0         0         0         0         0
         0         0         0         0         0         0         0         0
         0         0         0         0         0         0         0         0
         0         0         0         0         0         0         0         0
         0         0         0         0         0         0         0         0
         0         0         0         0         0         0         0         0
         0         0         0         0         0         0         0         0
         0         0         0         0         0         0         0         0
         0         0         0         0         0         0         0         0
         0         0         0         0         0         0         0         0
         0         0         0         0         0         0         0         0
         0         0         0         0         0         0         0         0
         0         0         0         0         0         0         0         0
         0         0         0         0         0         0         0         0
         0         0         0         0         0         0         0         0
         0         0         0         0         0         0         0         0
         0         0         0         0         0         0         0         0
         0         0         0         0         0         0         0         0
         0         0         0         0         0         0         0         0
         0         0         0         0         0         0         0         0
         0         0         0         0         0         0         0         0
         0         0         0         0         0         0         0         0
         0         0         0         0         0         0         0         0
         0         0         0         0         0         0         0         0
         0         0         0         0         0         0         0         0
         0         0         0         0         0         0         0         0
         0         0         0         0         0         0         0         0
         0         0         0         0         0         0         0         0
         0         0         0         0         0         0         0         0
         0         0         0         0         0         0         0         0
         0         0         0         0         0         0         0         0
         0         0         0         0         0         0         0         0
         0         0         0         0         0         0         0         0
         0         0         0         0         0         0         0         0
         0         0         0         0         0         0         0         0
         0         0         0         0         0         0         0         0
         0         0         0         0         0         0         0         0
         0         0         0         0         0         0         0         0
         0         0         0         0         0         0         0         0
         0         0         0         0         0         0         0         0
         0         0         0         0         0         0         0         0
         0         0         0         0         0         0         0         0
         0         0         0         0         0         0         0         0
         0         0         0         0         0         0         0         0
         0         0         0         0         0         0         0         0
         0         0         0         0         0         0         0         0
         0         0         0         0         0         0         0         0
         0         0         0         0         0         0         0         0
         0         0         0         0         0         0         0         0
         0         0         0         0         0         0         0         0
         0         0         0         0         0         0         0         0
         0         0         0         0         0         0         0         0
         0         0         0         0         0         0         0         0
         0         0         0         0         0         0         0         0
         0         0         0         0         0         0         0         0
         0         0         0         0         0         0         0         0
         0         0         0         0         0         0         0         0
         0         0         0         0         0         0         0         0
         0         0         0         0         0         0         0         0
         0         0         0         0         0         0         0         0
         0         0         0         0         0         0         0         0
         0         0         0         0         0         0         0         0
         0         0         0         0         0         0         0         0
         0         0         0         0         0         0         0         0
         0         0         0         0         0         0         0         0
         0         0         0         0         0         0         0         0
         0         0         0         0         0         0         0         0
         0         0         0         0         0         0         0         0
         0         0         0         0         0         0         0         0
         0         0         0         0         0         0         0         0
         0         0         0         0         0         0         0         0
         0         0         0         0         0         0         0         0
         0         0         0         0         0         0         0         0
         0         0         0         0         0         0         0         0
         0         0         0         0         0         0         0         0
         0         0         0         0         0         0         0         0
         0         0         0         0         0         0         0         0
         0         0         0         0         0         0         0         0
         0         0         0         0         0         0         0         0
         0         0         0         0         0         0         0         0
         0         0         0         0         0         0         0         0
         0         0         0         0         0         0         0         0
         0         0         0         0         0         0         0         0
         0         0         0         0         0         0         0         0
         0         0         0         0         0         0         0         0
         0         0         0         0         0         0         0         0
         0         0         0         0         0         0         0         0
         0         0         0         0         0         0         0         0
         0         0         0         0         0         0         0         0
         0         0         0         0         0         0         0         0
         0         0         0         0         0         0         0         0
         0         0         0         0         0         0         0         0
         0         0         0         0         0         0         0         0
         0         0         0         0         0         0         0         0
         0         0         0         0         0         0         0         0
         0         0         0         0         0         0         0         0
         0         0         0         0         0         0         0         0
         0         0         0         0         0         0         0         0
         0         0         0         0         0         0         0         0
         0         0         0         0         0         0         0         0
         0         0         0         0         0         0         0         0
         0         0         0         0         0         0         0         0
         0         0         0         0         0         0         0         0
         0         0         0         0         0         0         0         0
         0         0         0         0         0         0         0         0
         0         0         0         0         0         0         0         0
         0         0         0         0         0         0         0         0
         0         0         0         0         0         0         0         0
         0         0         0         0         0         0         0         0
         0         0         0         0         0         0         0         0
         0         0         0         0         0         0         0         0
         0         0         0         0         0         0         0         0
         0         0         0         0         0         0         0         0
         0         0         0         0         0         0         0         0
         0         0         0         0         0         0         0         0
         0         0         0         0         0         0         0         0
         0         0         0         0         0         0         0         0
         0         0         0         0         0         0         0         0
         0         0         0         0         0         0         0         0
         0         0         0         0         0         0         0         0
         0         0         0         0         0         0         0         0
         0         0         0         0         0         0         0         0
         0         0         0         0         0         0         0         0
         0         0         0         0         0         0         0         0
         0         0         0         0         0         0         0         0
         0         0         0         0         0         0         0         0
         0         0         0         0         0         0         0         0
         0         0         0         0         0         0         0         0
         0         0         0         0         0         0         0         0
         0         0         0         0         0         0         0         0
         0         0         0         0         0         0         0         0
         0         0         0         0         0         0         0         0
         0         0         0         0         0         0         0         0
         0         0         0         0         0         0         0         0
         0         0         0         0         0         0         0         0
         0         0         0         0         0         0         0         0
         0         0         0         0         0         0         0         0
         0         0         0         0         0         0         0         0
         0         0         0         0         0         0         0         0
         0         0         0         0         0         0         0         0
         0         0         0         0         0         0         0         0
         0         0         0         0         0         0         0         0
         0         0         0         0         0         0         0         0
         0         0         0         0         0         0         0         0
         0         0         0         0         0         0         0         0
         0         0         0         0         0         0         0         0
         0         0         0         0         0         0         0         0
         0         0         0         0         0         0         0         0
         0         0         0         0         0         0         0         0
         0         0         0         0         0         0         0         0
         0         0         0         0         0         0         0         0
         0         0         0         0         0         0         0         0
         0         0         0         0         0         0         0         0
         0         0         0         0         0         0         0         0
         0         0         0         0         0         0         0         0
         0         0         0         0         0         0         0         0
         0         0         0         0         0         0         0         0
         0         0         0         0         0         0         0         0
         0         0         0         0         0         0         0         0
         0         0         0         0         0         0         0         0
         0         0         0         0         0         0         0         0
         0         0         0         0         0         0         0         0
         0         0         0         0         0         0         0         0
         0         0         0         0         0         0         0         0
         0         0         0         0         0         0         0         0
         0         0         0         0         0         0         0         0
         0         0         0         0         0         0         0         0
         0         0         0         0         0         0         0         0
         0         0         0         0         0         0         0         0
         0         0         0         0         0         0         0         0
         0         0         0         0         0         0         0         0
         0         0         0         0         0         0         0         0
         0         0         0         0         0         0         0         0
         0         0         0         0         0         0         0         0
         0         0         0         0         0         0         0         0
         0         0         0         0         0         0         0         0
         0         0         0         0         0         0         0         0
         0         0         0         0         0         0         0         0
         0         0         0         0         0         0         0         0
         0         0         0         0         0         0         0         0
         0         0         0         0         0         0         0         0
         0         0         0         0         0         0         0         0
         0         0         0         0         0         0         0         0
         0         0         0         0         0         0         0         0
         0         0         0         0         0         0         0         0
         0         0         0         0         0         0         0         0
         0         0         0         0         0         0         0         0
         0         0         0         0         0         0         0         0
         0         0         0         0         0         0         0         0
         0         0         0         0         0         0         0         0
         0         0         0         0         0         0         0         0
         0         0         0         0         0         0         0         0
         0         0         0         0         0         0         0         0
         0         0         0         0         0         0         0         0
         0         0         0         0         0         0         0         0
         0         0         0         0         0         0         0         0
         0         0         0         0         0         0         0         0
         0         0         0         0         0         0         0         0
         0         0         0         0         0         0         0         0
         0         0         0         0         0         0         0         0
         0         0         0         0         0         0         0         0
         0         0         0         0         0         0         0         0
         0         0         0         0         0         0         0         0
         0         0         0         0         0         0         0         0
         0         0         0         0         0         0         0         0
         0         0         0         0         0         0         0         0
         0         0         0         0         0         0         0         0
         0         0         0         0         0         0         0         0
         0         0         0         0         0         0         0         0
         0         0         0         0         0         0         0         0
         0         0         0         0         0         0         0         0
         0         0         0         0         0         0         0         0
         0         0         0         0         0         0         0         0
         0         0         0         0         0         0         0         0
         0         0         0         0         0         0         0         0
         0         0         0         0         0         0         0         0
         0         0         0         0         0         0         0         0
         0         0         0         0         0         0         0         0
         0         0         0         0         0         0         0         0
         0         0         0         0         0         0         0         0
         0         0         0         0         0         0         0         0
         0         0         0         0         0         0         0         0
         0         0         0         0         0         0         0         0
         0         0         0         0         0         0         0         0
         0         0         0         0         0         0         0         0
         0         0         0         0         0         0         0         0
         0         0         0         0         0         0         0         0
         0         0         0         0         0         0         0         0
         0         0         0         0         0         0         0         0
         0         0         0         0         0         0         0         0
         0         0         0         0         0         0         0         0
         0         0         0         0         0         0         0         0
         0         0         0         0         0         0         0         0
         0         0         0         0         0         0         0         0
         0         0         0         0         0         0         0         0
         0         0         0         0         0         0         0         0
         0         0         0         0         0         0         0         0
         0         0         0         0         0         0         0         0
         0         0         0         0         0         0         0         0
         0         0         0         0         0         0         0         0
         0         0         0         0         0         0         0         0
         0         0         0         0         0         0         0         0
         0         0         0         0         0         0         0         0
         0         0         0         0         0         0         0         0
         0         0         0         0         0         0         0         0
         0         0         0         0         0         0         0         0
         0         0         0         0         0         0         0         0
         0         0         0         0         0         0         0         0
         0         0         0         0         0         0         0         0
         0         0         0         0         0         0         0         0
         0         0         0         0         0         0         0         0
         0         0         0         0         0         0         0         0
         0         0         0         0         0         0         0         0
         0         0         0         0         0         0         0         0
         0         0         0         0         0         0         0         0
         0         0         0         0         0         0         0         0
         0         0         0         0         0         0         0         0
         0         0         0         0         0         0         0         0
         0         0         0         0         0         0         0         0
         0         0         0         0         0         0         0         0
         0         0         0         0         0         0         0         0
         0         0         0         0         0         0         0         0
         0         0         0         0         0         0         0         0
         0         0         0         0         0         0         0         0
         0         0         0         0         0         0         0         0
         0         0         0         0         0         0         0         0
         0         0         0         0         0         0         0         0
         0         0         0         0         0         0         0         0
         0         0         0         0         0         0         0         0
         0         0         0         0         0         0         0         0
         0         0         0         0         0         0         0         0
         0         0         0         0         0         0         0         0
         0         0         0         0         0         0         0         0
         0         0         0         0         0         0         0         0
         0         0         0         0         0         0         0         0
         0         0         0         0         0         0         0         0
         0         0         0         0         0         0         0         0
         0         0         0         0         0         0         0         0
         0         0         0         0         0         0         0         0
         0         0         0         0         0         0         0         0
         0         0         0         0         0         0         0         0
         0         0         0         0         0         0         0         0
         0         0         0         0         0         0         0         0
         0         0         0         0         0         0         0         0
         0         0         0         0         0         0         0         0
         0         0         0         0         0         0         0         0
         0         0         0         0         0         0         0         0
         0         0         0         0         0         0         0         0
         0         0         0         0         0         0         0         0
         0         0         0         0         0         0         0         0
         0         0         0         0         0         0         0         0
         0         0         0         0         0         0         0         0
         0         0         0         0         0         0         0         0
         0         0         0         0         0         0         0         0
         0         0         0         0         0         0         0         0
         0         0         0         0         0         0         0         0
         0         0         0         0         0         0         0         0
         0         0         0         0         0         0         0         0
         0         0         0         0         0         0         0         0
         0         0         0         0         0         0         0         0
         0         0         0         0         0         0         0         0
         0         0         0         0         0         0         0         0
         0         0         0         0         0         0         0         0
         0         0         0         0         0         0         0         0
         0         0         0         0         0         0         0         0
         0         0         0         0         0         0         0         0
         0         0         0         0         0         0         0         0
         0         0         0         0         0         0         0         0
         0         0         0         0         0         0         0         0
         0         0         0         0         0         0         0         0
         0         0         0         0         0         0         0         0
         0         0         0         0         0         0         0         0
         0         0         0         0         0         0         0         0
         0         0         0         0         0         0         0         0
         0         0         0         0         0         0         0         0
         0         0         0         0         0         0         0         0
         0         0         0         0         0         0         0         0
         0         0         0         0         0         0         0         0
         0         0         0         0         0         0         0         0
         0         0         0         0         0         0         0         0
         0         0         0         0         0         0         0         0
         0         0         0         0         0         0         0         0
         0         0         0         0         0         0         0         0
         0         0         0         0         0         0         0         0
         0         0         0         0         0         0         0         0
         0         0         0         0         0         0         0         0
         0         0         0         0         0         0         0         0
         0         0         0         0         0         0         0         0
         0         0         0         0         0         0         0         0
         0         0         0         0         0         0         0         0
         0         0         0         0         0         0         0         0
         0         0         0         0         0         0         0         0
         0         0         0         0         0         0         0         0
         0         0         0         0         0         0         0         0
         0         0         0         0         0         0         0         0
         0         0         0         0         0         0         0         0
         0         0         0         0         0         0         0         0
         0         0         0         0         0         0         0         0
         0         0         0         0         0         0         0         0
         0         0         0         0         0         0         0         0
         0         0         0         0         0         0         0         0
         0         0         0         0         0         0         0         0
         0         0         0         0         0         0         0         0
         0         0         0         0         0         0         0         0
         0         0         0         0         0         0         0         0
         0         0         0         0         0         0         0         0
         0         0         0         0         0         0         0         0
         0         0         0         0         0         0         0         0
         0         0         0         0         0         0         0         0
         0         0         0         0         0         0         0         0
         0         0         0         0         0         0         0         0
         0         0         0         0         0         0         0         0
         0         0         0         0         0         0         0         0
         0         0         0         0         0         0         0         0
         0         0         0         0         0         0         0         0
         0         0         0         0         0         0         0         0
         0         0         0         0         0         0         0         0
         0         0         0         0         0         0         0         0
         0         0         0         0         0         0         0         0
         0         0         0         0         0         0         0         0
         0         0         0         0         0         0         0         0
         0         0         0         0         0         0         0         0
         0         0         0         0         0         0         0         0
         0         0         0         0         0         0         0         0
         0         0         0         0         0         0         0         0
         0         0         0         0         0         0         0         0
         0         0         0         0         0         0         0         0
         0         0         0         0         0         0         0         0
         0         0         0         0         0         0         0         0
         0         0         0         0         0         0         0         0
         0         0         0         0         0         0         0         0
         0         0         0         0         0         0         0         0
         0         0         0         0         0         0         0         0
         0         0         0         0         0         0         0         0
         0         0         0         0         0         0         0         0
         0         0         0         0         0         0         0         0
         0         0         0         0         0         0         0         0
         0         0         0         0         0         0         0         0
         0         0         0         0         0         0         0         0
         0         0         0         0         0         0         0         0
         0         0         0         0         0         0         0         0
         0         0         0         0         0         0         0         0
         0         0         0         0         0         0         0         0
         0         0         0         0         0         0         0         0
         0         0         0         0         0         0         0         0
         0         0         0         0         0         0         0         0
         0         0         0         0         0         0         0         0
         0         0         0         0         0         0         0         0
         0         0         0         0         0         0         0         0
         0         0         0         0         0         0         0         0
         0         0         0         0         0         0         0         0
         0         0         0         0         0         0         0         0
         0         0         0         0         0         0         0         0
         0         0         0         0         0         0         0         0
         0         0         0         0         0         0         0         0
         0         0         0         0         0         0         0         0
         0         0         0         0         0         0         0         0
         0         0         0         0         0         0         0         0
         0         0         0         0         0         0         0         0
         0         0         0         0         0         0         0         0
         0         0         0         0         0         0         0         0
         0         0         0         0         0         0         0         0
         0         0         0         0         0         0         0         0
         0         0         0         0         0         0         0         0
         0         0         0         0         0         0         0         0
         0         0         0         0         0         0         0         0
         0         0         0         0         0         0         0         0
         0         0         0         0         0         0         0         0
         0         0         0         0         0         0         0         0
         0         0         0         0         0         0         0         0
         0         0         0         0         0         0         0         0
         0         0         0         0         0         0         0         0
         0         0         0         0         0         0         0         0
         0         0         0         0         0         0         0         0
         0         0         0         0         0         0         0         0
         0         0         0         0         0         0         0         0
         0         0         0         0         0         0         0         0
         0         0         0         0         0         0         0         0
         0         0         0         0         0         0         0         0
         0         0         0         0         0         0         0         0
         0         0         0         0         0         0         0         0
         0         0         0         0         0         0         0         0
         0         0         0         0         0         0         0         0
         0         0         0         0         0         0         0         0
         0         0         0         0         0         0         0         0
         0         0         0         0         0         0         0         0
         0         0         0         0         0         0         0         0
         0         0         0         0         0         0         0         0
         0         0         0         0         0         0         0         0
         0         0         0         0         0         0         0         0
         0         0         0         0         0         0         0         0
         0         0         0         0         0         0         0         0
         0         0         0         0         0         0         0         0
         0         0         0         0         0         0         0         0
         0         0         0         0         0         0         0         0
         0         0         0         0         0         0         0         0
         0         0         0         0         0         0         0         0
         0         0         0         0         0         0         0         0
         0         0         0         0         0         0         0         0
         0         0         0         0         0         0         0         0
         0         0         0         0         0         0         0         0
         0         0         0         0         0         0         0         0
         0         0         0         0         0         0         0         0
         0         0         0         0         0         0         0         0
         0         0         0         0         0         0         0         0
         0         0         0         0         0         0         0         0
         0         0         0         0         0         0         0         0
         0         0         0         0         0         0         0         0
         0         0         0         0         0         0         0         0
         0         0         0         0         0         0         0         0
         0         0         0         0         0         0         0         0
         0         0         0         0         0         0         0         0
         0         0         0         0         0         0         0         0
         0         0         0         0         0         0         0         0
         0         0         0         0         0         0         0         0
         0         0         0         0         0         0         0         0
         0         0         0         0         0         0         0         0
         0         0         0         0         0         0         0         0
         0         0         0         0         0         0         0         0
         0         0         0         0         0         0         0         0
         0         0         0         0         0         0         0         0
         0         0         0         0         0         0         0         0
         0         0         0         0         0         0         0         0
         0         0         0         0         0         0         0         0
         0         0         0         0         0         0         0         0
         0         0         0         0         0         0         0         0
         0         0         0         0         0         0         0         0
         0         0         0         0         0         0         0         0
         0         0         0         0         0         0         0         0
         0         0         0         0         0         0         0         0
         0         0         0         0         0         0         0         0
         0         0         0         0         0         0         0         0
         0         0         0         0         0         0         0         0
         0         0         0         0         0         0         0         0
         0         0         0         0         0         0         0         0
         0         0         0         0         0         0         0         0
         0         0         0         0         0         0         0         0
         0         0         0         0         0         0         0         0
         0         0         0         0         0         0         0         0
         0         0         0         0         0         0         0         0
         0         0         0         0         0         0         0         0
         0         0         0         0         0         0         0         0
         0         0         0         0         0         0         0         0
         0         0         0         0         0         0         0         0
         0         0         0         0         0         0         0         0
         0         0         0         0         0         0         0         0
         0         0         0         0         0         0         0         0
         0         0         0         0         0         0         0         0
         0         0         0         0         0         0         0         0
         0         0         0         0         0         0         0         0
         0         0         0         0         0         0         0         0
         0         0         0         0         0         0         0         0
         0         0         0         0         0         0         0         0
         0         0         0         0         0         0         0         0
         0         0         0         0         0         0         0         0
         0         0         0         0         0         0         0         0
         0         0         0         0         0         0         0         0
         0         0         0         0         0         0         0         0
         0         0         0         0         0         0         0         0
         0         0         0         0         0         0         0         0
         0         0         0         0         0         0         0         0
         0         0         0         0         0         0         0         0
         0         0         0         0         0         0         0         0
         0         0         0         0         0         0         0         0
         0         0         0         0         0         0         0         0
         0         0         0         0         0         0         0         0
         0         0         0         0         0         0         0         0
         0         0         0         0         0         0         0         0
         0         0         0         0         0         0         0         0
         0         0         0         0         0         0         0         0
         0         0         0         0         0         0         0         0
         0         0         0         0         0         0         0         0
         0         0         0         0         0         0         0         0
         0         0         0         0         0         0         0         0
         0         0         0         0         0         0         0         0
         0         0         0         0         0         0         0         0
         0         0         0         0         0         0         0         0
         0         0         0         0         0         0         0         0
         0         0         0         0         0         0         0         0
         0         0         0         0         0         0         0         0
         0         0         0         0         0         0         0         0
         0         0         0         0         0         0         0         0
         0         0         0         0         0         0         0         0
         0         0         0         0         0         0         0         0
         0         0         0         0         0         0         0         0
         0         0         0         0         0         0         0         0
         0         0         0         0         0         0         0         0
         0         0         0         0         0         0         0         0
         0         0         0         0         0         0         0         0
         0         0         0         0         0         0         0         0
         0         0         0         0         0         0         0         0
         0         0         0         0         0         0         0         0
         0         0         0         0         0         0         0         0
         0         0         0         0         0         0         0         0
         0         0         0         0         0         0         0         0
         0         0         0         0         0         0         0         0
         0         0         0         0         0         0         0         0
         0         0         0         0         0         0         0         0
         0         0         0         0         0         0         0         0
         0         0         0         0         0         0         0         0
         0         0         0         0         0         0         0         0
         0         0         0         0         0         0         0         0
         0         0         0         0         0         0         0         0
         0         0         0         0         0         0         0         0
         0         0         0         0         0         0         0         0
         0         0         0         0         0         0         0         0
         0         0         0         0         0         0         0         0
         0         0         0         0         0         0         0         0
         0         0         0         0         0         0         0         0
         0         0         0         0         0         0         0         0
         0         0         0         0         0         0         0         0
         0         0         0         0         0         0         0         0
         0         0         0         0         0         0         0         0
         0         0         0         0         0         0         0         0
         0         0         0         0         0         0         0         0
         0         0         0         0         0         0         0         0
         0         0         0         0         0         0         0         0
         0         0         0         0         0         0         0         0
         0         0         0         0         0         0         0         0
         0         0         0         0         0         0         0         0
         0         0         0         0         0         0         0         0
         0         0         0         0         0         0         0         0
         0         0         0         0         0         0         0         0
         0         0         0         0         0         0         0         0
         0         0         0         0         0         0         0         0
         0         0         0         0         0         0         0         0
         0         0         0         0         0         0         0         0
         0         0         0         0         0         0         0         0
         0         0         0         0         0         0         0         0
         0         0         0         0         0         0         0         0
         0         0         0         0         0         0         0         0
         0         0         0         0         0         0         0         0
         0         0         0         0         0         0         0         0
         0         0         0         0         0         0         0         0
         0         0         0         0         0         0         0         0
         0         0         0         0         0         0         0         0
         0         0         0         0         0         0         0         0
         0         0         0         0         0         0         0         0
         0         0         0         0         0         0         0         0
         0         0         0         0         0         0         0         0
         0         0         0         0         0         0         0         0
         0         0         0         0         0         0         0         0
         0         0         0         0         0         0         0         0
         0         0         0         0         0         0         0         0
         0         0         0         0         0         0         0         0
         0         0         0         0         0         0         0         0
         0         0         0         0         0         0         0         0
         0         0         0         0         0         0         0         0
         0         0         0         0         0         0         0         0
         0         0         0         0         0         0         0         0
         0         0         0         0         0         0         0         0
         0         0         0         0         0         0         0         0
         0         0         0         0         0         0         0         0
         0         0         0         0         0         0         0         0
         0         0         0         0         0         0         0         0
         0         0         0         0         0         0         0         0
         0         0         0         0         0         0         0         0
         0         0         0         0         0         0         0         0
         0         0         0         0         0         0         0         0
         0         0         0         0         0         0         0         0
         0         0         0         0         0         0         0         0
         0         0         0         0         0         0         0         0
         0         0         0         0         0         0         0         0
         0         0         0         0         0         0         0         0
         0         0         0         0         0         0         0         0
         0         0         0         0         0         0         0         0
         0         0         0         0         0         0         0         0
         0         0         0         0         0         0         0         0
         0         0         0         0         0         0         0         0
         0         0         0         0         0         0         0         0
         0         0         0         0         0         0         0         0
         0         0         0         0         0         0         0         0
         0         0         0         0         0         0         0         0
         0         0         0         0         0         0         0         0
         0         0         0         0         0         0         0         0
         0         0         0         0         0         0         0         0
         0         0         0         0         0         0         0         0
         0         0         0         0         0         0         0         0
         0         0         0         0         0         0         0         0
         0         0         0         0         0         0         0         0
         0         0         0         0         0         0         0         0
         0         0         0         0         0         0         0         0
         0         0         0         0         0         0         0         0
         0         0         0         0         0         0         0         0
         0         0         0         0         0         0         0         0
         0         0         0         0         0         0         0         0
         0         0         0         0         0         0         0         0
         0         0         0         0         0         0         0         0
         0         0         0         0         0         0         0         0
         0         0         0         0         0         0         0         0
         0         0         0         0         0         0         0         0
         0         0         0         0         0         0         0         0
         0         0         0         0         0         0         0         0
         0         0         0         0         0         0         0         0
         0         0         0         0         0         0         0         0
         0         0         0         0         0         0         0         0
         0         0         0         0         0         0         0         0
         0         0         0         0         0         0         0         0
         0         0         0         0         0         0         0         0
         0         0         0         0         0         0         0         0
         0         0         0         0         0         0         0         0
         0         0         0         0         0         0         0         0
         0         0         0         0         0         0         0         0
         0         0         0         0         0         0         0         0
         0         0         0         0         0         0         0         0
         0         0         0         0         0         0         0         0
         0         0         0         0         0         0         0         0
         0         0         0         0         0         0         0         0
         0         0         0         0         0         0         0         0
         0         0         0         0         0         0         0         0
         0         0         0         0         0         0         0         0
         0         0         0         0         0         0         0         0
         0         0         0         0         0         0         0         0
         0         0         0         0         0         0         0         0
         0         0         0         0         0         0         0         0
         0         0         0         0         0         0         0         0
         0         0         0         0         0         0         0         0
         0         0         0         0         0         0         0         0
         0         0         0         0         0         0         0         0
         0         0         0         0         0         0         0         0
         0         0         0         0         0         0         0         0
         0         0         0         0         0         0         0         0
         0         0         0         0         0         0         0         0
         0         0         0         0         0         0         0         0
         0         0         0         0         0         0         0         0
         0         0         0         0         0         0         0         0
         0         0         0         0         0         0         0         0
         0         0         0         0         0         0         0         0
         0         0         0         0         0         0         0         0
         0         0         0         0         0         0         0         0
         0         0         0         0         0         0         0         0
         0         0         0         0         0         0         0         0
         0         0         0         0         0         0         0         0
         0         0         0         0         0         0         0         0
         0         0         0         0         0         0         0         0
         0         0         0         0         0         0         0         0
         0         0         0         0         0         0         0         0
         0         0         0         0         0         0         0         0
         0         0         0         0         0         0         0         0
         0         0         0         0         0         0         0         0
         0         0         0         0         0         0         0         0
         0         0         0         0         0         0         0         0
         0         0         0         0         0         0         0         0
         0         0         0         0         0         0         0         0
         0         0         0         0         0         0         0         0
         0         0         0         0         0         0         0         0
         0         0         0         0         0         0         0         0
         0         0         0         0         0         0         0         0
         0         0         0         0         0         0         0         0
         0         0         0         0         0         0         0         0
         0         0         0         0         0         0         0         0
         0         0         0         0         0         0         0         0
         0         0         0         0         0         0         0         0
         0         0         0         0         0         0         0         0
         0         0         0         0         0         0         0         0
         0         0         0         0         0         0         0         0
         0         0         0         0         0         0         0         0
         0         0         0         0         0         0         0         0
         0         0         0         0         0         0         0         0
         0         0         0         0         0         0         0         0
         0         0         0         0         0         0         0         0
         0         0         0         0         0         0         0         0
         0         0         0         0         0         0         0         0
         0         0         0         0         0         0         0         0
         0         0         0         0         0         0         0         0
         0         0         0         0         0         0         0         0
         0         0         0         0         0         0         0         0
         0         0         0         0         0         0         0         0
         0         0         0         0         0         0         0         0
         0         0         0         0         0         0         0         0
         0         0         0         0         0         0         0         0
         0         0         0         0         0         0         0         0
         0         0         0         0         0         0         0         0
         0         0         0         0         0         0         0         0
         0         0         0         0         0         0         0         0
         0         0         0         0         0         0         0         0
         0         0         0         0         0         0         0         0
         0         0         0         0         0         0         0         0
         0         0         0         0         0         0         0         0
         0         0         0         0         0         0         0         0
         0         0         0         0         0         0         0         0
         0         0         0         0         0         0         0         0
         0         0         0         0         0         0         0         0
         0         0         0         0         0         0         0         0
         0         0         0         0         0         0         0         0
         0         0         0         0         0         0         0         0
         0         0         0         0         0         0         0         0
         0         0         0         0         0         0         0         0
         0         0         0         0         0         0         0         0
         0         0         0         0         0         0         0         0
         0         0         0         0         0         0         0         0
         0         0         0         0         0         0         0         0
         0         0         0         0         0         0         0         0
         0         0         0         0         0         0         0         0
         0         0         0         0         0         0         0         0
         0         0         0         0         0         0         0         0
         0         0         0         0         0         0         0         0
         0         0         0         0         0         0         0         0
         0         0         0         0         0         0         0         0
         0         0         0         0         0         0         0         0
         0         0         0         0         0         0         0         0
         0         0         0         0         0         0         0         0
         0         0         0         0         0         0         0         0
         0         0         0         0         0         0         0         0
         0         0         0         0         0         0         0         0
         0         0         0         0         0         0         0         0
         0         0         0         0         0         0         0         0
         0         0         0         0         0         0         0         0
         0         0         0         0         0         0         0         0
         0         0         0         0         0         0         0         0
         0         0         0         0         0         0         0         0
         0         0         0         0         0         0         0         0
         0         0         0         0         0         0         0         0
         0         0         0         0         0         0         0         0
         0         0         0         0         0         0         0         0
         0         0         0         0         0         0         0         0
         0         0         0         0         0         0         0         0
         0         0         0         0         0         0         0         0
         0         0         0         0         0         0         0         0
         0         0         0         0         0         0         0         0
         0         0         0         0         0         0         0         0
         0         0         0         0         0         0         0         0
         0         0         0         0         0         0         0         0
         0         0         0         0         0         0         0         0
         0         0         0         0         0         0         0         0
         0         0         0         0         0         0         0         0
         0         0         0         0         0         0         0         0
         0         0         0         0         0         0         0         0
         0         0         0         0         0         0         0         0
         0         0         0         0         0         0         0         0
         0         0         0         0         0         0         0         0
         0         0         0         0         0         0         0         0
         0         0         0         0         0         0         0         0
         0         0         0         0         0         0         0         0
         0         0         0         0         0         0         0         0
         0         0         0         0         0         0         0         0
         0         0         0         0         0         0         0         0
         0         0         0         0         0         0         0         0
         0         0         0         0         0         0         0         0
         0         0         0         0         0         0         0         0
         0         0         0         0         0         0         0         0
         0         0         0         0         0         0         0         0
         0         0         0         0         0         0         0         0
         0         0         0         0         0         0         0         0
         0         0         0         0         0         0         0         0
         0         0         0         0         0         0         0         0
         0         0         0         0         0         0         0         0
         0         0         0         0         0         0         0         0
         0         0         0         0         0         0         0         0
         0         0         0         0         0         0         0         0
         0         0         0         0         0         0         0         0
         0         0         0         0         0         0         0         0
         0         0         0         0         0         0         0         0
         0         0         0         0         0         0         0         0
         0         0         0         0         0         0         0         0
         0         0         0         0         0         0         0         0
         0         0         0         0         0         0         0         0
         0         0         0         0         0         0         0         0
         0         0         0         0         0         0         0         0
         0         0         0         0         0         0         0         0
         0         0         0         0         0         0         0         0
         0         0         0         0         0         0         0         0
         0         0         0         0         0         0         0         0
         0         0         0         0         0         0         0         0
         0         0         0         0         0         0         0         0
         0         0         0         0         0         0         0         0
         0         0         0         0         0         0         0         0
         0         0         0         0         0         0         0         0
         0         0         0         0         0         0         0         0
         0         0         0         0         0         0         0         0
         0         0         0         0         0         0         0         0
         0         0         0         0         0         0         0         0
         0         0         0         0         0         0         0         0
         0         0         0         0         0         0         0         0
         0         0         0         0         0         0         0         0
         0         0         0         0         0         0         0         0
         0         0         0         0         0         0         0         0
         0         0         0         0         0         0         0         0
         0         0         0         0         0         0         0         0
         0         0         0         0         0         0         0         0
         0         0         0         0         0         0         0         0
         0         0         0         0         0         0         0         0
         0         0         0         0         0         0         0         0
         0         0         0         0         0         0         0         0
         0         0         0         0         0         0         0         0
         0         0         0         0         0         0         0         0
         0         0         0         0         0         0         0         0
         0         0         0         0         0         0         0         0
         0         0         0         0         0         0         0         0
         0         0         0         0         0         0         0         0
         0         0         0         0         0         0         0         0
         0         0         0         0         0         0         0         0
         0         0         0         0         0         0         0         0
         0         0         0         0         0         0         0         0
         0         0         0         0         0         0         0         0
         0         0         0         0         0         0         0         0
         0         0         0         0         0         0         0         0
         0         0         0         0         0         0         0         0
         0         0         0         0         0         0         0         0
         0         0         0         0         0         0         0         0
         0         0         0         0         0         0         0         0
         0         0         0         0         0         0         0         0
         0         0         0         0         0         0         0         0
         0         0         0         0         0         0         0         0
         0         0         0         0         0         0         0         0
         0         0         0         0         0         0         0         0
         0         0         0         0         0         0         0         0
         0         0         0         0         0         0         0         0
         0         0         0         0         0         0         0         0
         0         0         0         0         0         0         0         0
         0         0         0         0         0         0         0         0
         0         0         0         0         0         0         0         0
         0         0         0         0         0         0         0         0
         0         0         0         0         0         0         0         0
         0         0         0         0         0         0         0         0
         0         0         0         0         0         0         0         0
         0         0         0         0         0         0         0         0
         0         0         0         0         0         0         0         0
         0         0         0         0         0         0         0         0
         0         0         0         0         0         0         0         0
         0         0         0         0         0         0         0         0
         0         0         0         0         0         0         0         0
         0         0         0         0         0         0         0         0
         0         0         0         0         0         0         0         0
         0         0         0         0         0         0         0         0
         0         0         0         0         0         0         0         0
         0         0         0         0         0         0         0         0
         0         0         0         0         0         0         0         0
         0         0         0         0         0         0         0         0
         0         0         0         0         0         0         0         0
         0         0         0         0         0         0         0         0
         0         0         0         0         0         0         0         0
         0         0         0         0         0         0         0         0
         0         0         0         0         0         0         0         0
         0         0         0         0         0         0         0         0
         0         0         0         0         0         0         0         0
         0         0         0         0         0         0         0         0
         0         0         0         0         0         0         0         0
         0         0         0         0         0         0         0         0
         0         0         0         0         0         0         0         0
         0         0         0         0         0         0         0         0
         0         0         0         0         0         0         0         0
         0         0         0         0         0         0         0         0
         0         0         0         0         0         0         0         0
         0         0         0         0         0         0         0         0
         0         0         0         0         0         0         0         0
         0         0         0         0         0         0         0         0
         0         0         0         0         0         0         0         0
         0         0         0         0         0         0         0         0
         0         0         0         0         0         0         0         0
         0         0         0         0         0         0         0         0
         0         0         0         0         0         0         0         0
         0         0         0         0         0         0         0         0
         0         0         0         0         0         0         0         0
         0         0         0         0         0         0         0         0
         0         0         0         0         0         0         0         0
         0         0         0         0         0         0         0         0
         0         0         0         0         0         0         0         0
         0         0         0         0         0         0         0         0
         0         0         0         0         0         0         0         0
         0         0         0         0         0         0         0         0
         0         0         0         0         0         0         0         0
         0         0         0         0         0         0         0         0
         0         0         0         0         0         0         0         0
         0         0         0         0         0         0         0         0
         0         0         0         0         0         0         0         0
         0         0         0         0         0         0         0         0
         0         0         0         0         0         0         0         0
         0         0         0         0         0         0         0         0
         0         0         0         0         0         0         0         0
         0         0         0         0         0         0         0         0
         0         0         0         0         0         0         0         0
         0         0         0         0         0         0         0         0
         0         0         0         0         0         0         0         0
         0         0         0         0         0         0         0         0
         0         0         0         0         0         0         0         0
         0         0         0         0         0         0         0         0
         0         0         0         0         0         0         0         0
         0         0         0         0         0         0         0         0
         0         0         0         0         0         0         0         0
         0         0         0         0         0         0         0         0
         0         0         0         0         0         0         0         0
         0         0         0         0         0         0         0         0
         0         0         0         0         0         0         0         0
         0         0         0         0         0         0         0         0
         0         0         0         0         0         0         0         0
         0         0         0         0         0         0         0         0
         0         0         0         0         0         0         0         0
         0         0         0         0         0         0         0         0
         0         0         0         0         0         0         0         0
         0         0         0         0         0         0         0         0
         0         0         0         0         0         0         0         0
         0         0         0         0         0         0         0         0
         0         0         0         0         0         0         0         0
         0         0         0         0         0         0         0         0
         0         0         0         0         0         0         0         0
         0         0         0         0         0         0         0         0
         0         0         0         0         0         0         0         0
         0         0         0         0         0         0         0         0
         0         0         0         0         0         0         0         0
         0         0         0         0         0         0         0         0
         0         0         0         0         0         0         0         0
         0         0         0         0         0         0         0         0
         0         0         0         0         0         0         0         0
         0         0         0         0         0         0         0         0
         0         0         0         0         0         0         0         0
         0         0         0         0         0         0         0         0
         0         0         0         0         0         0         0         0
         0         0         0         0         0         0         0         0
         0         0         0         0         0         0         0         0
         0         0         0         0         0         0         0         0
         0         0         0         0         0         0         0         0
         0         0         0         0         0         0         0         0
         0         0         0         0         0         0         0         0
         0         0         0         0         0         0         0         0
         0         0         0         0         0         0         0         0
         0         0         0         0         0         0         0         0
         0         0         0         0         0         0         0         0
         0         0         0         0         0         0         0         0
         0         0         0         0         0         0         0         0
         0         0         0         0         0         0         0         0
         0         0         0         0         0         0         0         0
         0         0         0         0         0         0         0         0
         0         0         0         0         0         0         0         0
         0         0         0         0         0         0         0         0
         0         0         0         0         0         0         0         0
         0         0         0         0         0         0         0         0
         0         0         0         0         0         0         0         0
         0         0         0         0         0         0         0         0
         0         0         0         0         0         0         0         0
         0         0         0         0         0         0         0         0
         0         0         0         0         0         0         0         0
         0         0         0         0         0         0         0         0
         0         0         0         0         0         0         0         0
         0         0         0         0         0         0         0         0
         0         0         0         0         0         0         0         0
         0         0         0         0         0         0         0         0
         0         0         0         0         0         0         0         0
         0         0         0         0         0         0         0         0
         0         0         0         0         0         0         0         0
         0         0         0         0         0         0         0         0
         0         0         0         0         0         0         0         0
         0         0         0         0         0         0         0         0
         0         0         0         0         0         0         0         0
         0         0         0         0         0         0         0         0
         0         0         0         0         0         0         0         0
         0         0         0         0         0         0         0         0
         0         0         0         0         0         0         0         0
         0         0         0         0         0         0         0         0
         0         0         0         0         0         0         0         0
         0         0         0         0         0         0         0         0
         0         0         0         0         0         0         0         0
         0         0         0         0         0         0         0         0
         0         0         0         0         0         0         0         0
         0         0         0         0         0         0         0         0
         0         0         0         0         0         0         0         0
         0         0         0         0         0         0         0         0
         0         0         0         0         0         0         0         0
         0         0         0         0         0         0         0         0
         0         0         0         0         0         0         0         0
         0         0         0         0         0         0         0         0
         0         0         0         0         0         0         0         0
         0         0         0         0         0         0         0         0
         0         0         0         0         0         0         0         0
         0         0         0         0         0         0         0         0
         0         0         0         0         0         0         0         0
         0         0         0         0         0         0         0         0
         0         0         0         0         0         0         0         0
         0         0         0         0         0         0         0         0
         0         0         0         0         0         0         0         0
         0         0         0         0         0         0         0         0
         0         0         0         0         0         0         0         0
         0         0         0         0         0         0         0         0
         0         0         0         0         0         0         0         0
         0         0         0         0         0         0         0         0
         0         0         0         0         0         0         0         0
         0         0         0         0         0         0         0         0
         0         0         0         0         0         0         0         0
         0         0         0         0         0         0         0         0
         0         0         0         0         0         0         0         0
         0         0         0         0         0         0         0         0
         0         0         0         0         0         0         0         0
         0         0         0         0         0         0         0         0
         0         0         0         0         0         0         0         0
         0         0         0         0         0         0         0         0
         0         0         0         0         0         0         0         0
         0         0         0         0         0         0         0         0
         0         0         0         0         0         0         0         0
         0         0         0         0         0         0         0         0
         0         0         0         0         0         0         0         0
         0         0         0         0         0         0         0         0
         0         0         0         0         0         0         0         0
         0         0         0         0         0         0         0         0
         0         0         0         0         0         0         0         0
         0         0         0         0         0         0         0         0
         0         0         0         0         0         0         0         0
         0         0         0         0         0         0         0         0
         0         0         0         0         0         0         0         0
         0         0         0         0         0         0         0         0
         0         0         0         0         0         0         0         0
         0         0         0         0         0         0         0         0
         0         0         0         0         0         0         0         0
         0         0         0         0         0         0         0         0
         0         0         0         0         0         0         0         0
         0         0         0         0         0         0         0         0
         0         0         0         0         0         0         0         0
         0         0         0         0         0         0         0         0
         0         0         0         0         0         0         0         0
         0         0         0         0         0         0         0         0
         0         0         0         0         0         0         0         0
         0         0         0         0         0         0         0         0
         0         0         0         0         0         0         0         0
         0         0         0         0         0         0         0         0
         0         0         0         0         0         0         0         0
         0         0         0         0         0         0         0         0
         0         0         0         0         0         0         0         0
         0         0         0         0         0         0         0         0
         0         0         0         0         0         0         0         0
         0         0         0         0         0         0         0         0
         0         0         0         0         0         0         0         0
         0         0         0         0         0         0         0         0
         0         0         0         0         0         0         0         0
         0         0         0         0         0         0         0         0
         0         0         0         0         0         0         0         0
         0         0         0         0         0         0         0         0
         0         0         0         0         0         0         0         0
         0         0         0         0         0         0         0         0
         0         0         0         0         0         0         0         0
         0         0         0         0         0         0         0         0
         0         0         0         0         0         0         0         0
         0         0         0         0         0         0         0         0
         0         0         0         0         0         0         0         0
         0         0         0         0         0         0         0         0
         0         0         0         0         0         0         0         0
         0         0         0         0         0         0         0         0
         0         0         0         0         0         0         0         0
         0         0         0         0         0         0         0         0
         0         0         0         0         0         0         0         0
         0         0         0         0         0         0         0         0
         0         0         0         0         0         0         0         0
         0         0         0         0         0         0         0         0
         0         0         0         0         0         0         0         0
         0         0         0         0         0         0         0         0
         0         0         0         0         0         0         0         0
         0         0         0         0         0         0         0         0
         0         0         0         0         0         0         0         0
         0         0         0         0         0         0         0         0
         0         0         0         0         0         0         0         0
         0         0         0         0         0         0         0         0
         0         0         0         0         0         0         0         0
         0         0         0         0         0         0         0         0
         0         0         0         0         0         0         0         0
         0         0         0         0         0         0         0         0
         0         0         0         0         0         0         0         0
         0         0         0         0         0         0         0         0
         0         0         0         0         0         0         0         0
         0         0         0         0         0         0         0         0
         0         0         0         0         0         0         0         0
         0         0         0         0         0         0         0         0
         0         0         0         0         0         0         0         0
         0         0         0         0         0         0         0         0
         0         0         0         0         0         0         0         0
         0         0         0         0         0         0         0         0
         0         0         0         0         0         0         0         0
         0         0         0         0         0         0         0         0
         0         0         0         0         0         0         0         0
         0         0         0         0         0         0         0         0
         0         0         0         0         0         0         0         0
         0         0         0         0         0         0         0         0
         0         0         0         0         0         0         0         0
         0         0         0         0         0         0         0         0
         0         0         0         0         0         0         0         0
         0         0         0         0         0         0         0         0
         0         0         0         0         0         0         0         0
         0         0         0         0         0         0         0         0
         0         0         0         0         0         0         0         0
         0         0         0         0         0         0         0         0
         0         0         0         0         0         0         0         0
         0         0         0         0         0         0         0         0
         0         0         0         0         0         0         0         0
         0         0         0         0         0         0         0         0
         0         0         0         0         0         0         0         0
         0         0         0         0         0         0         0         0
         0         0         0         0         0         0         0         0
         0         0         0         0         0         0         0         0
         0         0         0         0         0         0         0         0
         0         0         0         0         0         0         0         0
         0         0         0         0         0         0         0         0
         0         0         0         0         0         0         0         0
         0         0         0         0         0         0         0         0
         0         0         0         0         0         0         0         0
         0         0         0         0         0         0         0         0
         0         0         0         0         0         0         0         0
         0         0         0         0         0         0         0         0
         0         0         0         0         0         0         0         0
         0         0         0         0         0         0         0         0
         0         0         0         0         0         0         0         0
         0         0         0         0         0         0         0         0
         0         0         0         0         0         0         0         0
         0         0         0         0         0         0         0         0
         0         0         0         0         0         0         0         0
         0         0         0         0         0         0         0         0
         0         0         0         0         0         0         0         0
         0         0         0         0         0         0         0         0
         0         0         0         0         0         0         0         0
         0         0         0         0         0         0         0         0
         0         0         0         0         0         0         0         0
         0         0         0         0         0         0         0         0
         0         0         0         0         0         0         0         0
         0         0         0         0         0         0         0         0
         0         0         0         0         0         0         0         0
         0         0         0         0         0         0         0         0
         0         0         0         0         0         0         0         0
         0         0         0         0         0         0         0         0
         0         0         0         0         0         0         0         0
         0         0         0         0         0         0         0         0
         0         0         0         0         0         0         0         0
         0         0         0         0         0         0         0         0
         0         0         0         0         0         0         0         0
         0         0         0         0         0         0         0         0
         0         0         0         0         0         0         0         0
         0         0         0         0         0         0         0         0
         0         0         0         0         0         0         0         0
         0         0         0         0         0         0         0         0
         0         0         0         0         0         0         0         0
         0         0         0         0         0         0         0         0
         0         0         0         0         0         0         0         0
         0         0         0         0         0         0         0         0
         0         0         0         0         0         0         0         0
         0         0         0         0         0         0         0         0
         0         0         0         0         0         0         0         0
         0         0         0         0         0         0         0         0
         0         0         0         0         0         0         0         0
         0         0         0         0         0         0         0         0
         0         0         0         0         0         0         0         0
         0         0         0         0         0         0         0         0
         0         0         0         0         0         0         0         0
         0         0         0         0         0         0         0         0
         0         0         0         0         0         0         0         0
         0         0         0         0         0         0         0         0
         0         0         0         0         0         0         0         0
         0         0         0         0         0         0         0         0
         0         0         0         0         0         0         0         0
         0         0         0         0         0         0         0         0
         0         0         0         0         0         0         0         0
         0         0         0         0         0         0         0         0
         0         0         0         0         0         0         0         0
         0         0         0         0         0         0         0         0
         0         0         0         0         0         0         0         0
         0         0         0         0         0         0         0         0
         0         0         0         0         0         0         0         0
         0         0         0         0         0         0         0         0
         0         0         0         0         0         0         0         0
         0         0         0         0         0         0         0         0
         0         0         0         0         0         0         0         0
         0         0         0         0         0         0         0         0
         0         0         0         0         0         0         0         0
         0         0         0         0         0         0         0         0
         0         0         0         0         0         0         0         0
         0         0         0         0         0         0         0         0
         0         0         0         0         0         0         0         0
         0         0         0         0         0         0         0         0
         0         0         0         0         0         0         0         0
         0         0         0         0         0         0         0         0
         0         0         0         0         0         0         0         0
         0         0         0         0         0         0         0         0
         0         0         0         0         0         0         0         0
         0         0         0         0         0         0         0         0
         0         0         0         0         0         0         0         0
         0         0         0         0         0         0         0         0
         0         0         0         0         0         0         0         0
         0         0         0         0         0         0         0         0
         0         0         0         0         0         0         0         0
         0         0         0         0         0         0         0         0
         0         0         0         0         0         0         0         0
         0         0         0         0         0         0         0         0
         0         0         0         0         0         0         0         0
         0         0         0         0         0         0         0         0
         0         0         0         0         0         0         0         0
         0         0         0         0         0         0         0         0
         0         0         0         0         0         0         0         0
         0         0         0         0         0         0         0         0
         0         0         0         0         0         0         0         0
         0         0         0         0         0         0         0         0
         0         0         0         0         0         0         0         0
         0         0         0         0         0         0         0         0
         0         0         0         0         0         0         0         0
         0         0         0         0         0         0         0         0
         0         0         0         0         0         0         0         0
         0         0         0         0         0         0         0         0
         0         0         0         0         0         0         0         0
         0         0         0         0         0         0         0         0
         0         0         0         0         0         0         0         0
         0         0         0         0         0         0         0         0
         0         0         0         0         0         0         0         0
         0         0         0         0         0         0         0         0
         0         0         0         0         0         0         0         0
         0         0         0         0         0         0         0         0
         0         0         0         0         0         0         0         0
         0         0         0         0         0         0         0         0
         0         0         0         0         0         0         0         0
         0         0         0         0         0         0         0         0
         0         0         0         0         0         0         0         0
         0         0         0         0         0         0         0         0
         0         0         0         0         0         0         0         0
         0         0         0         0         0         0         0         0
         0         0         0         0         0         0         0         0
         0         0         0         0         0         0         0         0
         0         0         0         0         0         0         0         0
         0         0         0         0         0         0         0         0
         0         0         0         0         0         0         0         0
         0         0         0         0         0         0         0         0
         0         0         0         0         0         0         0         0
         0         0         0         0         0         0         0         0
         0         0         0         0         0         0         0         0
         0         0         0         0         0         0         0         0
         0         0         0         0         0         0         0         0
         0         0         0         0         0         0         0         0
         0         0         0         0         0         0         0         0
         0         0         0         0         0         0         0         0
         0         0         0         0         0         0         0         0
         0         0         0         0         0         0         0         0
         0         0         0         0         0         0         0         0
         0         0         0         0         0         0         0         0
         0         0         0         0         0         0         0         0
         0         0         0         0         0         0         0         0
         0         0         0         0         0         0         0         0
         0         0         0         0         0         0         0         0
         0         0         0         0         0         0         0         0
         0         0         0         0         0         0         0         0
         0         0         0         0         0         0         0         0
         0         0         0         0         0         0         0         0
         0         0         0         0         0         0         0         0
         0         0         0         0         0         0         0         0
         0         0         0         0         0         0         0         0
         0         0         0         0         0         0         0         0
         0         0         0         0         0         0         0         0
         0         0         0         0         0         0         0         0
         0         0         0         0         0         0         0         0
         0         0         0         0         0         0         0         0
         0         0         0         0         0         0         0         0
         0         0         0         0         0         0         0         0
         0         0         0         0         0         0         0         0
         0         0         0         0         0         0         0         0
         0         0         0         0         0         0         0         0
         0         0         0         0         0         0         0         0
         0         0         0         0         0         0         0         0
         0         0         0         0         0         0         0         0
         0         0         0         0         0         0         0         0
         0         0         0         0         0         0         0         0
         0         0         0         0         0         0         0         0
         0         0         0         0         0         0         0         0
         0         0         0         0         0         0         0         0
         0         0         0         0         0         0         0         0
         0         0         0         0         0         0         0         0
         0         0         0         0         0         0         0         0
         0         0         0         0         0         0         0         0
         0         0         0         0         0         0         0         0
         0         0         0         0         0         0         0         0
         0         0         0         0         0         0         0         0
         0         0         0         0         0         0         0         0
         0         0         0         0         0         0         0         0
         0         0         0         0         0         0         0         0
         0         0         0         0         0         0         0         0
         0         0         0         0         0         0         0         0
         0         0         0         0         0         0         0         0
         0         0         0         0         0         0         0         0
         0         0         0         0         0         0         0         0
         0         0         0         0         0         0         0         0
         0         0         0         0         0         0         0         0
         0         0         0         0         0         0         0         0
         0         0         0         0         0         0         0         0
         0         0         0         0         0         0         0         0
         0         0         0         0         0         0         0         0
         0         0         0         0         0         0         0         0
         0         0         0         0         0         0         0         0
         0         0         0         0         0         0         0         0
         0         0         0         0         0         0         0         0
         0         0         0         0         0         0         0         0
         0         0         0         0         0         0         0         0
         0         0         0         0         0         0         0         0
         0         0         0         0         0         0         0         0
         0         0         0         0         0         0         0         0
         0         0         0         0         0         0         0         0
         0         0         0         0         0         0         0         0
         0         0         0         0         0         0         0         0
         0         0         0         0         0         0         0         0
         0         0         0         0         0         0         0         0
         0         0         0         0         0         0         0         0
         0         0         0         0         0         0         0         0
         0         0         0         0         0         0         0         0
         0         0         0         0         0         0         0         0
         0         0         0         0         0         0         0         0
         0         0         0         0         0         0         0         0
         0         0         0         0         0         0         0         0
         0         0         0         0         0         0         0         0
         0         0         0         0         0         0         0         0
         0         0         0         0         0         0         0         0
         0         0         0         0         0         0         0         0
         0         0         0         0         0         0         0         0
         0         0         0         0         0         0         0         0
         0         0         0         0         0         0         0         0
         0         0         0         0         0         0         0         0
         0         0         0         0         0         0         0         0
         0         0         0         0         0         0         0         0
         0         0         0         0         0         0         0         0
         0         0         0         0         0         0         0         0
         0         0         0         0         0         0         0         0
         0         0         0         0         0         0         0         0
         0         0         0         0         0         0         0         0
         0         0         0         0         0         0         0         0
         0         0         0         0         0         0         0         0
         0         0         0         0         0         0         0         0
         0         0         0         0         0         0         0         0
         0         0         0         0         0         0         0         0
         0         0         0         0         0         0         0         0
         0         0         0         0         0         0         0         0
         0         0         0         0         0         0         0         0
         0         0         0         0         0         0         0         0
         0         0         0         0         0         0         0         0
         0         0         0         0         0         0         0         0
         0         0         0         0         0         0         0         0
         0         0         0         0         0         0         0         0
         0         0         0         0         0         0         0         0
         0         0         0         0         0         0         0         0
         0         0         0         0         0         0         0         0
         0         0         0         0         0         0         0         0
         0         0         0         0         0         0         0         0
         0         0         0         0         0         0         0         0
         0         0         0         0         0         0         0         0
         0         0         0         0         0         0         0         0
         0         0         0         0         0         0         0         0
         0         0         0         0         0         0         0         0
         0         0         0         0         0         0         0         0
         0         0         0         0         0         0         0         0
         0         0         0         0         0         0         0         0
         0         0         0         0         0         0         0         0
         0         0         0         0         0         0         0         0
         0         0         0         0         0         0         0         0
         0         0         0         0         0         0         0         0
         0         0         0         0         0         0         0         0
         0         0         0         0         0         0         0         0
         0         0         0         0         0         0         0         0
         0         0         0         0         0         0         0         0
         0         0         0         0         0         0         0         0
         0         0         0         0         0         0         0         0
         0         0         0         0         0         0         0         0
         0         0         0         0         0         0         0         0
         0         0         0         0         0         0         0         0
         0         0         0         0         0         0         0         0
         0         0         0         0         0         0         0         0
         0         0         0         0         0         0         0         0
         0         0         0         0         0         0         0         0
         0         0         0         0         0         0         0         0
         0         0         0         0         0         0         0         0
         0         0         0         0         0         0         0         0
         0         0         0         0         0         0         0         0
         0         0         0         0         0         0         0         0
         0         0         0         0         0         0         0         0
         0         0         0         0         0         0         0         0
         0         0         0         0         0         0         0         0
         0         0         0         0         0         0         0         0
         0         0         0         0         0         0         0         0
         0         0         0         0         0         0         0         0
         0         0         0         0         0         0         0         0
         0         0         0         0         0         0         0         0
         0         0         0         0         0         0         0         0
         0         0         0         0         0         0         0         0
         0         0         0         0         0         0         0         0
         0         0         0         0         0         0         0         0
         0         0         0         0         0         0         0         0
         0         0         0         0         0         0         0         0
         0         0         0         0         0         0         0         0
         0         0         0         0         0         0         0         0
         0         0         0         0         0         0         0         0
         0         0         0         0         0         0         0         0
         0         0         0         0         0         0         0         0
         0         0         0         0         0         0         0         0
         0         0         0         0         0         0         0         0
         0         0         0         0         0         0         0         0
         0         0         0         0         0         0         0         0
         0         0         0         0         0         0         0         0
         0         0         0         0         0         0         0         0
         0         0         0         0         0         0         0         0
         0         0         0         0         0         0         0         0
         0         0         0         0         0         0         0         0
         0         0         0         0         0         0         0         0
         0         0         0         0         0         0         0         0
         0         0         0         0         0         0         0         0
         0         0         0         0         0         0         0         0
         0         0         0         0         0         0         0         0
         0         0         0         0         0         0         0         0
         0         0         0         0         0         0         0         0
         0         0         0         0         0         0         0         0
         0         0         0         0         0         0         0         0
         0         0         0         0         0         0         0         0
         0         0         0         0         0         0         0         0
         0         0         0         0         0         0         0         0
         0         0         0         0         0         0         0         0
         0         0         0         0         0         0         0         0
         0         0         0         0         0         0         0         0
         0         0         0         0         0         0         0         0
         0         0         0         0         0         0         0         0
         0         0         0         0         0         0         0         0
         0         0         0         0         0         0         0         0
         0         0         0         0         0         0         0         0
         0         0         0         0         0         0         0         0
         0         0         0         0         0         0         0         0
         0         0         0         0         0         0         0         0
         0         0         0         0         0         0         0         0
         0         0         0         0         0         0         0         0
         0         0         0         0         0         0         0         0
         0         0         0         0         0         0         0         0
         0         0         0         0         0         0         0         0
         0         0         0         0         0         0         0         0
         0         0         0         0         0         0         0         0
         0         0         0         0         0         0         0         0
         0         0         0         0         0         0         0         0
         0         0         0         0         0         0         0         0
         0         0         0         0         0         0         0         0
         0         0         0         0         0         0         0         0
         0         0         0         0         0         0         0         0
         0         0         0         0         0         0         0         0
         0         0         0         0         0         0         0         0
         0         0         0         0         0         0         0         0
         0         0         0         0         0         0         0         0
         0         0         0         0         0         0         0         0
         0         0         0         0         0         0         0         0
         0         0         0         0         0         0         0         0
         0         0         0         0         0         0         0         0
         0         0         0         0         0         0         0         0
         0         0         0         0         0         0         0         0
         0         0         0         0         0         0         0         0
         0         0         0         0         0         0         0         0
         0         0         0         0         0         0         0         0
         0         0         0         0         0         0         0         0
         0         0         0         0         0         0         0         0
         0         0         0         0         0         0         0         0
         0         0         0         0         0         0         0         0
         0         0         0         0         0         0         0         0
         0         0         0         0         0         0         0         0
         0         0         0         0         0         0         0         0
         0         0         0         0         0         0         0         0
         0         0         0         0         0         0         0         0
         0         0         0         0         0         0         0         0
         0         0         0         0         0         0         0         0
         0         0         0         0         0         0         0         0
         0         0         0         0         0         0         0         0
         0         0         0         0         0         0         0         0
         0         0         0         0         0         0         0         0
         0         0         0         0         0         0         0         0
         0         0         0         0         0         0         0         0
         0         0         0         0         0         0         0         0
         0         0         0         0         0         0         0         0
         0         0         0         0         0         0         0         0
         0         0         0         0         0         0         0         0
         0         0         0         0         0         0         0         0
         0         0         0         0         0         0         0         0
         0         0         0         0         0         0         0         0
         0         0         0         0         0         0         0         0
         0         0         0         0         0         0         0         0
         0         0         0         0         0         0         0         0
         0         0         0         0         0         0         0         0
         0         0         0         0         0         0         0         0
         0         0         0         0         0         0         0         0
         0         0         0         0         0         0         0         0
         0         0         0         0         0         0         0         0
         0         0         0         0         0         0         0         0
         0         0         0         0         0         0         0         0
         0         0         0         0         0         0         0         0
         0         0         0         0         0         0         0         0
         0         0         0         0         0         0         0         0
         0         0         0         0         0         0         0         0
         0         0         0         0         0         0         0         0
         0         0         0         0         0         0         0         0
         0         0         0         0         0         0         0         0
         0         0         0         0         0         0         0         0
         0         0         0         0         0         0         0         0
         0         0         0         0         0         0         0         0
         0         0         0         0         0         0         0         0
         0         0         0         0         0         0         0         0
         0         0         0         0         0         0         0         0
         0         0         0         0         0         0         0         0
         0         0         0         0         0         0         0         0
         0         0         0         0         0         0         0         0
         0         0         0         0         0         0         0         0
         0         0         0         0         0         0         0         0
         0         0         0         0         0         0         0         0
         0         0         0         0         0         0         0         0
         0         0         0         0         0         0         0         0
         0         0         0         0         0         0         0         0
         0         0         0         0         0         0         0         0
         0         0         0         0         0         0         0         0
         0         0         0         0         0         0         0         0
         0         0         0         0         0         0         0         0
         0         0         0         0         0         0         0         0
         0         0         0         0         0         0         0         0
         0         0         0         0         0         0         0         0
         0         0         0         0         0         0         0         0
         0         0         0         0         0         0         0         0
         0         0         0         0         0         0         0         0
         0         0         0         0         0         0         0         0
         0         0         0         0         0         0         0         0
         0         0         0         0         0         0         0         0
         0         0         0         0         0         0         0         0
         0         0         0         0         0         0         0         0
         0         0         0         0         0         0         0         0
         0         0         0         0         0         0         0         0
         0         0         0         0         0         0         0         0
         0         0         0         0         0         0         0         0
         0         0         0         0         0         0         0         0
         0         0         0         0         0         0         0         0
         0         0         0         0         0         0         0         0
         0         0         0         0         0         0         0         0
         0         0         0         0         0         0         0         0
         0         0         0         0         0         0         0         0
         0         0         0         0         0         0         0         0
         0         0         0         0         0         0         0         0
         0         0         0         0         0         0         0         0
         0         0         0         0         0         0         0         0
         0         0         0         0         0         0         0         0
         0         0         0         0         0         0         0         0
         0         0         0         0         0         0         0         0
         0         0         0         0         0         0         0         0
         0         0         0         0         0         0         0         0
         0         0         0         0         0         0         0         0
         0         0         0         0         0         0         0         0
         0         0         0         0         0         0         0         0
         0         0         0         0         0         0         0         0
         0         0         0         0         0         0         0         0
         0         0         0         0         0         0         0         0
         0         0         0         0         0         0         0         0
         0         0         0         0         0         0         0         0
         0         0         0         0         0         0         0         0
         0         0         0         0         0         0         0         0
         0         0         0         0         0         0         0         0
         0         0         0         0         0         0         0         0
         0         0         0         0         0         0         0         0
         0         0         0         0         0         0         0         0
         0         0         0         0         0         0         0         0
         0         0         0         0         0         0         0         0
         0         0         0         0         0         0         0         0
         0         0         0         0         0         0         0         0
         0         0         0         0         0         0         0         0
         0         0         0         0         0         0         0         0
         0         0         0         0         0         0         0         0
         0         0         0         0         0         0         0         0
         0         0         0         0         0         0         0         0
         0         0         0         0         0         0         0         0
         0         0         0         0         0         0         0         0
         0         0         0         0         0         0         0         0
         0         0         0         0         0         0         0         0
         0         0         0         0         0         0         0         0
         0         0         0         0         0         0         0         0
         0         0         0         0         0         0         0         0
         0         0         0         0         0         0         0         0
         0         0         0         0         0         0         0         0
         0         0         0         0         0         0         0         0
         0         0         0         0         0         0         0         0
         0         0         0         0         0         0         0         0
         0         0         0         0         0         0         0         0
         0         0         0         0         0         0         0         0
         0         0         0         0         0         0         0         0
         0         0         0         0         0         0         0         0
         0         0         0         0         0         0         0         0
         0         0         0         0         0         0         0         0
         0         0         0         0         0         0         0         0
         0         0         0         0         0         0         0         0
         0         0         0         0         0         0         0         0
         0         0         0         0         0         0         0         0
         0         0         0         0         0         0         0         0
         0         0         0         0         0         0         0         0
         0         0         0         0         0         0         0         0
         0         0         0         0         0         0         0         0
         0         0         0         0         0         0         0         0
         0         0         0         0         0         0         0         0
         0         0         0         0         0         0         0         0
         0         0         0         0         0         0         0         0
         0         0         0         0         0         0         0         0
         0         0         0         0         0         0         0         0
         0         0         0         0         0         0         0         0
         0         0         0         0         0         0         0         0
         0         0         0         0         0         0         0         0
         0         0         0         0         0         0         0         0
         0         0         0         0         0         0         0         0
         0         0         0         0         0         0         0         0
         0         0         0         0         0         0         0         0
         0         0         0         0         0         0         0         0
         0         0         0         0         0         0         0         0
         0         0         0         0         0         0         0         0
         0         0         0         0         0         0         0         0
         0         0         0         0         0         0         0         0
         0         0         0         0         0         0         0         0
         0         0         0         0         0         0         0         0
         0         0         0         0         0         0         0         0
         0         0         0         0         0         0         0         0
         0         0         0         0         0         0         0         0
         0         0         0         0         0         0         0         0
         0         0         0         0         0         0         0         0
         0         0         0         0         0         0         0         0
         0         0         0         0         0         0         0         0
         0         0         0         0         0         0         0         0
         0         0         0         0         0         0         0         0
         0         0         0         0         0         0         0         0
         0         0         0         0         0         0         0         0
         0         0         0         0         0         0         0         0
         0         0         0         0         0         0         0         0
         0         0         0         0         0         0         0         0
         0         0         0         0         0         0         0         0
         0         0         0         0         0         0         0         0
         0         0         0         0         0         0         0         0
         0         0         0         0         0         0         0         0
         0         0         0         0         0         0         0         0
         0         0         0         0         0         0         0         0
         0         0         0         0         0         0         0         0
         0         0         0         0         0         0         0         0
         0         0         0         0         0         0         0         0
         0         0         0         0         0         0         0         0
         0         0         0         0         0         0         0         0
         0         0         0         0         0         0         0         0
         0         0         0         0         0         0         0         0
         0         0         0         0         0         0         0         0
         0         0         0         0         0         0         0         0
         0         0         0         0         0         0         0         0
         0         0         0         0         0         0         0         0
         0         0         0         0         0         0         0         0
         0         0         0         0         0         0         0         0
         0         0         0         0         0         0         0         0
         0         0         0         0         0         0         0         0
         0         0         0         0         0         0         0         0
         0         0         0         0         0         0         0         0
         0         0         0         0         0         0         0         0
         0         0         0         0         0         0         0         0
         0         0         0         0         0         0         0         0
         0         0         0         0         0         0         0         0
         0         0         0         0         0         0         0         0
         0         0         0         0         0         0         0         0
         0         0         0         0         0         0         0         0
         0         0         0         0         0         0         0         0
         0         0         0         0         0         0         0         0
         0         0         0         0         0         0         0         0
         0         0         0         0         0         0         0         0
         0         0         0         0         0         0         0         0
         0         0         0         0         0         0         0         0
         0         0         0         0         0         0         0         0
         0         0         0         0         0         0         0         0
         0         0         0         0         0         0         0         0
         0         0         0         0         0         0         0         0
         0         0         0         0         0         0         0         0
         0         0         0         0         0         0         0         0
         0         0         0         0         0         0         0         0
         0         0         0         0         0         0         0         0
         0         0         0         0         0         0         0         0
         0         0         0         0         0         0         0         0
         0         0         0         0         0         0         0         0
         0         0         0         0         0         0         0         0
         0         0         0         0         0         0         0         0
         0         0         0         0         0         0         0         0
         0         0         0         0         0         0         0         0
         0         0         0         0         0         0         0         0
         0         0         0         0         0         0         0         0
         0         0         0         0         0         0         0         0
         0         0         0         0         0         0         0         0
         0         0         0         0         0         0         0         0
         0         0         0         0         0         0         0         0
         0         0         0         0         0         0         0         0
         0         0         0         0         0         0         0         0
         0         0         0         0         0         0         0         0
         0         0         0         0         0         0         0         0
         0         0         0         0         0         0         0         0
         0         0         0         0         0         0         0         0
         0         0         0         0         0         0         0         0
         0         0         0         0         0         0         0         0
         0         0         0         0         0         0         0         0
         0         0         0         0         0         0         0         0
         0         0         0         0         0         0         0         0
         0         0         0         0         0         0         0         0
         0         0         0         0         0         0         0         0
         0         0         0         0         0         0         0         0
         0         0         0         0         0         0         0         0
         0         0         0         0         0         0         0         0
         0         0         0         0         0         0         0         0
         0         0         0         0         0         0         0         0
         0         0         0         0         0         0         0         0
         0         0         0         0         0         0         0         0
         0         0         0         0         0         0         0         0
         0         0         0         0         0         0         0         0
         0         0         0         0         0         0         0         0
         0         0         0         0         0         0         0         0
         0         0         0         0         0         0         0         0
         0         0         0         0         0         0         0         0
         0         0         0         0         0         0         0         0
         0         0         0         0         0         0         0         0
         0         0         0         0         0         0         0         0
         0         0         0         0         0         0         0         0
         0         0         0         0         0         0         0         0
         0         0         0         0         0         0         0         0
         0         0         0         0         0         0         0         0
         0         0         0         0         0         0         0         0
         0         0         0         0         0         0         0         0
         0         0         0         0         0         0         0         0
         0         0         0         0         0         0         0         0
         0         0         0         0         0         0         0         0
         0         0         0         0         0         0         0         0
         0         0         0         0         0         0         0         0
         0         0         0         0         0         0         0         0
         0         0         0         0         0         0         0         0
         0         0         0         0         0         0         0         0
         0         0         0         0         0         0         0         0
         0         0         0         0         0         0         0         0
         0         0         0         0         0         0         0         0
         0         0         0         0         0         0         0         0
         0         0         0         0         0         0         0         0
         0         0         0         0         0         0         0         0
         0         0         0         0         0         0         0         0
         0         0         0         0         0         0         0         0
         0         0         0         0         0         0         0         0
         0         0         0         0         0         0         0         0
         0         0         0         0         0         0         0         0
         0         0         0         0         0         0         0         0
         0         0         0         0         0         0         0         0
         0         0         0         0         0         0         0         0
         0         0         0         0         0         0         0         0
         0         0         0         0         0         0         0         0
         0         0         0         0         0         0         0         0
         0         0         0         0         0         0         0         0
         0         0         0         0         0         0         0         0
         0         0         0         0         0         0         0         0
         0         0         0         0         0         0         0         0
         0         0         0         0         0         0         0         0
         0         0         0         0         0         0         0         0
         0         0         0         0         0         0         0         0
         0         0         0         0         0         0         0         0
         0         0         0         0         0         0         0         0
         0         0         0         0         0         0         0         0
         0         0         0         0         0         0         0         0
         0         0         0         0         0         0         0         0
         0         0         0         0         0         0         0         0
         0         0         0         0         0         0         0         0
         0         0         0         0         0         0         0         0
         0         0         0         0         0         0         0         0
         0         0         0         0         0         0         0         0
         0         0         0         0         0         0         0         0
         0         0         0         0         0         0         0         0
         0         0         0         0         0         0         0         0
         0         0         0         0         0         0         0         0
         0         0         0         0         0         0         0         0
         0         0         0         0         0         0         0         0
         0         0         0         0         0         0         0         0
         0         0         0         0         0         0         0         0
         0         0         0         0         0         0         0         0
         0         0         0         0         0         0         0         0
         0         0         0         0         0         0         0         0
         0         0         0         0         0         0         0         0
         0         0         0         0         0         0         0         0
         0         0         0         0         0         0         0         0
         0         0         0         0         0         0         0         0
         0         0         0         0         0         0         0         0
         0         0         0         0         0         0         0         0
         0         0         0         0         0         0         0         0
         0         0         0         0         0         0         0         0
         0         0         0         0         0         0         0         0
         0         0         0         0         0         0         0         0
         0         0         0         0         0         0         0         0
         0         0         0         0         0         0         0         0
         0         0         0         0         0         0         0         0
         0         0         0         0         0         0         0         0
         0         0         0         0         0         0         0         0
         0         0         0         0         0         0         0         0
         0         0         0         0         0         0         0         0
         0         0         0         0         0         0         0         0
         0         0         0         0         0         0         0         0
         0         0         0         0         0         0         0         0
         0         0         0         0         0         0         0         0
         0         0         0         0         0         0         0         0
         0         0         0         0         0         0         0         0
         0         0         0         0         0         0         0         0
         0         0         0         0         0         0         0         0
         0         0         0         0         0         0         0         0
         0         0         0         0         0         0         0         0
         0         0         0         0         0         0         0         0
         0         0         0         0         0         0         0         0
         0         0         0         0         0         0         0         0
         0         0         0         0         0         0         0         0
         0         0         0         0         0         0         0         0
         0         0         0         0         0         0         0         0
         0         0         0         0         0         0         0         0
         0         0         0         0         0         0         0         0
         0         0         0         0         0         0         0         0
         0         0         0         0         0         0         0         0
         0         0         0         0         0         0         0         0
         0         0         0         0         0         0         0         0
         0         0         0         0         0         0         0         0
         0         0         0         0         0         0         0         0
         0         0         0         0         0         0         0         0
         0         0         0         0         0         0         0         0
         0         0         0         0         0         0         0         0
         0         0         0         0         0         0         0         0
         0         0         0         0         0         0         0         0
         0         0         0         0         0         0         0         0
         0         0         0         0         0         0         0         0
         0         0         0         0         0         0         0         0
         0         0         0         0         0         0         0         0
         0         0         0         0         0         0         0         0
         0         0         0         0         0         0         0         0
         0         0         0         0         0         0         0         0
         0         0         0         0         0         0         0         0
         0         0         0         0         0         0         0         0
         0         0         0         0         0         0         0         0
         0         0         0         0         0         0         0         0
         0         0         0         0         0         0         0         0
         0         0         0         0         0         0         0         0
         0         0         0         0         0         0         0         0
         0         0         0         0         0         0         0         0
         0         0         0         0         0         0         0         0
         0         0         0         0         0         0         0         0
         0         0         0         0         0         0         0         0
         0         0         0         0         0         0         0         0
         0         0         0         0         0         0         0         0
         0         0         0         0         0         0         0         0
         0         0         0         0         0         0         0         0
         0         0         0         0         0         0         0         0
         0         0         0         0         0         0         0         0
         0         0         0         0         0         0         0         0
         0         0         0         0         0         0         0         0
         0         0         0         0         0         0         0         0
         0         0         0         0         0         0         0         0
         0         0         0         0         0         0         0         0
         0         0         0         0         0         0         0         0
         0         0         0         0         0         0         0         0
         0         0         0         0         0         0         0         0
         0         0         0         0         0         0         0         0
         0         0         0         0         0         0         0         0
         0         0         0         0         0         0         0         0
         0         0         0         0         0         0         0         0
         0         0         0         0         0         0         0         0
         0         0         0         0         0         0         0         0
         0         0         0         0         0         0         0         0
         0         0         0         0         0         0         0         0
         0         0         0         0         0         0         0         0
         0         0         0         0         0         0         0         0
         0         0         0         0         0         0         0         0
         0         0         0         0         0         0         0         0
         0         0         0         0         0         0         0         0
         0         0         0         0         0         0         0         0
         0         0         0         0         0         0         0         0
         0         0         0         0         0         0         0         0
         0         0         0         0         0         0         0         0
         0         0         0         0         0         0         0         0
         0         0         0         0         0         0         0         0
         0         0         0         0         0         0         0         0
         0         0         0         0         0         0         0         0
         0         0         0         0         0         0         0         0
         0         0         0         0         0         0         0         0
         0         0         0         0         0         0         0         0
         0         0         0         0         0         0         0         0
         0         0         0         0         0         0         0         0
         0         0         0         0         0         0         0         0
         0         0         0         0         0         0         0         0
         0         0         0         0         0         0         0         0
         0         0         0         0         0         0         0         0
         0         0         0         0         0         0         0         0
         0         0         0         0         0         0         0         0
         0         0         0         0         0         0         0         0
         0         0         0         0         0         0         0         0
         0         0         0         0         0         0         0         0
         0         0         0         0         0         0         0         0
         0         0         0         0         0         0         0         0
         0         0         0         0         0         0         0         0
         0         0         0         0         0         0         0         0
         0         0         0         0         0         0         0         0
         0         0         0         0         0         0         0         0
         0         0         0         0         0         0         0         0
         0         0         0         0         0         0         0         0
         0         0         0         0         0         0         0         0
         0         0         0         0         0         0         0         0
         0         0         0         0         0         0         0         0
         0         0         0         0         0         0         0         0
         0         0         0         0         0         0         0         0
         0         0         0         0         0         0         0         0
         0         0         0         0         0         0         0         0
         0         0         0         0         0         0         0         0
         0         0         0         0         0         0         0         0
         0         0         0         0         0         0         0         0
         0         0         0         0         0         0         0         0
         0         0         0         0         0         0         0         0
         0         0         0         0         0         0         0         0
         0         0         0         0         0         0         0         0
         0         0         0         0         0         0         0         0
         0         0         0         0         0         0         0         0
         0         0         0         0         0         0         0         0
         0         0         0         0         0         0         0         0
         0         0         0         0         0         0         0         0
         0         0         0         0         0         0         0         0
         0         0         0         0         0         0         0         0
         0         0         0         0         0         0         0         0
         0         0         0         0         0         0         0         0
         0         0         0         0         0         0         0         0
         0         0         0         0         0         0         0         0
         0         0         0         0         0         0         0         0
         0         0         0         0         0         0         0         0
         0         0         0         0         0         0         0         0
         0         0         0         0         0         0         0         0
         0         0         0         0         0         0         0         0
         0         0         0         0         0         0         0         0
         0         0         0         0         0         0         0         0
         0         0         0         0         0         0         0         0
         0         0         0         0         0         0         0         0
         0         0         0         0         0         0         0         0
         0         0         0         0         0         0         0         0
         0         0         0         0         0         0         0         0
         0         0         0         0         0         0         0         0
         0         0         0         0         0         0         0         0
         0         0         0         0         0         0         0         0
         0         0         0         0         0         0         0         0
         0         0         0         0         0         0         0         0
         0         0         0         0         0         0         0         0
         0         0         0         0         0         0         0         0
         0         0         0         0         0         0         0         0
         0         0         0         0         0         0         0         0
         0         0         0         0         0         0         0         0
         0         0         0         0         0         0         0         0
         0         0         0         0         0         0         0         0
         0         0         0         0         0         0         0         0
         0         0         0         0         0         0         0         0
         0         0         0         0         0         0         0         0
         0         0         0         0         0         0         0         0
         0         0         0         0         0         0         0         0
         0         0         0         0         0         0         0         0
         0         0         0         0         0         0         0         0
         0         0         0         0         0         0         0         0
         0         0         0         0         0         0         0         0
         0         0         0         0         0         0         0         0
         0         0         0         0         0         0         0         0
         0         0         0         0         0         0         0         0
         0         0         0         0         0         0         0         0
         0         0         0         0         0         0         0         0
         0         0         0         0         0         0         0         0
         0         0         0         0         0         0         0         0
         0         0         0         0         0         0         0         0
         0         0         0         0         0         0         0         0
         0         0         0         0         0         0         0         0
         0         0         0         0         0         0         0         0
         0         0         0         0         0         0         0         0
         0         0         0         0         0         0         0         0
         0         0         0         0         0         0         0         0
         0         0         0         0         0         0         0         0
         0         0         0         0         0         0         0         0
         0         0         0         0         0         0         0         0
         0         0         0         0         0         0         0         0
         0         0         0         0         0         0         0         0
         0         0         0         0         0         0         0         0
         0         0         0         0         0         0         0         0
         0         0         0         0         0         0         0         0
         0         0         0         0         0         0         0         0
         0         0         0         0         0         0         0         0
         0         0         0         0         0         0         0         0
         0         0         0         0         0         0         0         0
         0         0         0         0         0         0         0         0
         0         0         0         0         0         0         0         0
         0         0         0         0         0         0         0         0
         0         0         0         0         0         0         0         0
         0         0         0         0         0         0         0         0
         0         0         0         0         0         0         0         0
         0         0         0         0         0         0         0         0
         0         0         0         0         0         0         0         0
         0         0         0         0         0         0         0         0
         0         0         0         0         0         0         0         0
         0         0         0         0         0         0         0         0
         0         0         0         0         0         0         0         0
         0         0         0         0         0         0         0         0
         0         0         0         0         0         0         0         0
         0         0         0         0         0         0         0         0
         0         0         0         0         0         0         0         0
         0         0         0         0         0         0         0         0
         0         0         0         0         0         0         0         0
         0         0         0         0         0         0         0         0
         0         0         0         0         0         0         0         0
         0         0         0         0         0         0         0         0
         0         0         0         0         0         0         0         0
         0         0         0         0         0         0         0         0
         0         0         0         0         0         0         0         0
         0         0         0         0         0         0         0         0
         0         0         0         0         0         0         0         0
         0         0         0         0         0         0         0         0
         0         0         0         0         0         0         0         0
         0         0         0         0         0         0         0         0
         0         0         0         0         0         0         0         0
         0         0         0         0         0         0         0         0
         0         0         0         0         0         0         0         0
         0         0         0         0         0         0         0         0
         0         0         0         0         0         0         0         0
         0         0         0         0         0         0         0         0
         0         0         0         0         0         0         0         0
         0         0         0         0         0         0         0         0
         0         0         0         0         0         0         0         0
         0         0         0         0         0         0         0         0
         0         0         0         0         0         0         0         0
         0         0         0         0         0         0         0         0
         0         0         0         0         0         0         0         0
         0         0         0         0         0         0         0         0
         0         0         0         0         0         0         0         0
         0         0         0         0         0         0         0         0
         0         0         0         0         0         0         0         0
         0         0         0         0         0         0         0         0
         0         0         0         0         0         0         0         0
         0         0         0         0         0         0         0         0
         0         0         0         0         0         0         0         0
         0         0         0         0         0         0         0         0
         0         0         0         0         0         0         0         0
         0         0         0         0         0         0         0         0
         0         0         0         0         0         0         0         0
         0         0         0         0         0         0         0         0
         0         0         0         0         0         0         0         0
         0         0         0         0         0         0         0         0
         0         0         0         0         0         0         0         0
         0         0         0         0         0         0         0         0
         0         0         0         0         0         0         0         0
         0         0         0         0         0         0         0         0
         0         0         0         0         0         0         0         0
         0         0         0         0         0         0         0         0
         0         0         0         0         0         0         0         0
         0         0         0         0         0         0         0         0
         0         0         0         0         0         0         0         0
         0         0         0         0         0         0         0         0
         0         0         0         0         0         0         0         0
         0         0         0         0         0         0         0         0
         0         0         0         0         0         0         0         0
         0         0         0         0         0         0         0         0
         0         0         0         0         0         0         0         0
         0         0         0         0         0         0         0         0
         0         0         0         0         0         0         0         0
         0         0         0         0         0         0         0         0
         0         0         0         0         0         0         0         0
         0         0         0         0         0         0         0         0
         0         0         0         0         0         0         0         0
         0         0         0         0         0         0         0         0
         0         0         0         0         0         0         0         0
         0         0         0         0         0         0         0         0
         0         0         0         0         0         0         0         0
         0         0         0         0         0         0         0         0
         0         0         0         0         0         0         0         0
         0         0         0         0         0         0         0         0
         0         0         0         0         0         0         0         0
         0         0         0         0         0         0         0         0
         0         0         0         0         0         0         0         0
         0         0         0         0         0         0         0         0
         0         0         0         0         0         0         0         0
         0         0         0         0         0         0         0         0
         0         0         0         0         0         0         0         0
         0         0         0         0         0         0         0         0
         0         0         0         0         0         0         0         0
         0         0         0         0         0         0         0         0
         0         0         0         0         0         0         0         0
         0         0         0         0         0         0         0         0
         0         0         0         0         0         0         0         0
         0         0         0         0         0         0         0         0
         0         0         0         0         0         0         0         0
         0         0         0         0         0         0         0         0
         0         0         0         0         0         0         0         0
         0         0         0         0         0         0         0         0
         0         0         0         0         0         0         0         0
         0         0         0         0         0         0         0         0
         0         0         0         0         0         0         0         0
         0         0         0         0         0         0         0         0
         0         0         0         0         0         0         0         0
         0         0         0         0         0         0         0         0
         0         0         0         0         0         0         0         0
         0         0         0         0         0         0         0         0
         0         0         0         0         0         0         0         0
         0         0         0         0         0         0         0         0
         0         0         0         0         0         0         0         0
         0         0         0         0         0         0         0         0
         0         0         0         0         0         0         0         0
         0         0         0         0         0         0         0         0
         0         0         0         0         0         0         0         0
         0         0         0         0         0         0         0         0
         0         0         0         0         0         0         0         0
         0         0         0         0         0         0         0         0
         0         0         0         0         0         0         0         0
         0         0         0         0         0         0         0         0
         0         0         0         0         0         0         0         0
         0         0         0         0         0         0         0         0
         0         0         0         0         0         0         0         0
         0         0         0         0         0         0         0         0
         0         0         0         0         0         0         0         0
         0         0         0         0         0         0         0         0
         0         0         0         0         0         0         0         0
         0         0         0         0         0         0         0         0
         0         0         0         0         0         0         0         0
         0         0         0         0         0         0         0         0
         0         0         0         0         0         0         0         0
         0         0         0         0         0         0         0         0
         0         0         0         0         0         0         0         0
         0         0         0         0         0         0         0         0
         0         0         0         0         0         0         0         0
         0         0         0         0         0         0         0         0
         0         0         0         0         0         0         0         0
         0         0         0         0         0         0         0         0
         0         0         0         0         0         0         0         0
         0         0         0         0         0         0         0         0
         0         0         0         0         0         0         0         0
         0         0         0         0         0         0         0         0
         0         0         0         0         0         0         0         0
         0         0         0         0         0         0         0         0
         0         0         0         0         0         0         0         0
         0         0         0         0         0         0         0         0
         0         0         0         0         0         0         0         0
         0         0         0         0         0         0         0         0
         0         0         0         0         0         0         0         0
         0         0         0         0         0         0         0         0
         0         0         0         0         0         0         0         0
         0         0         0         0         0         0         0         0
         0         0         0         0         0         0         0         0
         0         0         0         0         0         0         0         0
         0         0         0         0         0         0         0         0
         0         0         0         0         0         0         0         0
         0         0         0         0         0         0         0         0
         0         0         0         0         0         0         0         0
         0         0         0         0         0         0         0         0
         0         0         0         0         0         0         0         0
         0         0         0         0         0         0         0         0
         0         0         0         0         0         0         0         0
         0         0         0         0         0         0         0         0
         0         0         0         0         0         0         0         0
         0         0         0         0         0         0         0         0
         0         0         0         0         0         0         0         0
         0         0         0         0         0         0         0         0
         0         0         0         0         0         0         0         0
         0         0         0         0         0         0         0         0
         0         0         0         0         0         0         0         0
         0         0         0         0         0         0         0         0
         0         0         0         0         0         0         0         0
         0         0         0         0         0         0         0         0
         0         0         0         0         0         0         0         0
         0         0         0         0         0         0         0         0
         0         0         0         0         0         0         0         0
         0         0         0         0         0         0         0         0
         0         0         0         0         0         0         0         0
         0         0         0         0         0         0         0         0
         0         0         0         0         0         0         0         0
         0         0         0         0         0         0         0         0
         0         0         0         0         0         0         0         0
         0         0         0         0         0         0         0         0
         0         0         0         0         0         0         0         0
         0         0         0         0         0         0         0         0
         0         0         0         0         0         0         0         0
         0         0         0         0         0         0         0         0
         0         0         0         0         0         0         0         0
         0         0         0         0         0         0         0         0
         0         0         0         0         0         0         0         0
         0         0         0         0         0         0         0         0
         0         0         0         0         0         0         0         0
         0         0         0         0         0         0         0         0
         0         0         0         0         0         0         0         0
         0         0         0         0         0         0         0         0
         0         0         0         0         0         0         0         0
         0         0         0         0         0         0         0         0
         0         0         0         0         0         0         0         0
         0         0         0         0         0         0         0         0
         0         0         0         0         0         0         0         0
         0         0         0         0         0         0         0         0
         0         0         0         0         0         0         0         0
         0         0         0         0         0         0         0         0
         0         0         0         0         0         0         0         0
         0         0         0         0         0         0         0         0
         0         0         0         0         0         0         0         0
         0         0         0         0         0         0         0         0
         0         0         0         0         0         0         0         0
         0         0         0         0         0         0         0         0
         0         0         0         0         0         0         0         0
         0         0         0         0         0         0         0         0
         0         0         0         0         0         0         0         0
         0         0         0         0         0         0         0         0
         0         0         0         0         0         0         0         0
         0         0         0         0         0         0         0         0
         0         0         0         0         0         0         0         0
         0         0         0         0         0         0         0         0
         0         0         0         0         0         0         0         0
         0         0         0         0         0         0         0         0
         0         0         0         0         0         0         0         0
         0         0         0         0         0         0         0         0
         0         0         0         0         0         0         0         0
         0         0         0         0         0         0         0         0
         0         0         0         0         0         0         0         0
         0         0         0         0         0         0         0         0
         0         0         0         0         0         0         0         0
         0         0         0         0         0         0         0         0
         0         0         0         0         0         0         0         0
         0         0         0         0         0         0         0         0
         0         0         0         0         0         0         0         0
         0         0         0         0         0         0         0         0
         0         0         0         0         0         0         0         0
         0         0         0         0         0         0         0         0
         0         0         0         0         0         0         0         0
         0         0         0         0         0         0         0         0
         0         0         0         0         0         0         0         0
         0         0         0         0         0         0         0         0
         0         0         0         0         0         0         0         0
         0         0         0         0         0         0         0         0
         0         0         0         0         0         0         0         0
         0         0         0         0         0         0         0         0
         0         0         0         0         0         0         0         0
         0         0         0         0         0         0         0         0
         0         0         0         0         0         0         0         0
         0         0         0         0         0         0         0         0
         0         0         0         0         0         0         0         0
         0         0         0         0         0         0         0         0
         0         0         0         0         0         0         0         0
         0         0         0         0         0         0         0         0
         0         0         0         0         0         0         0         0
         0         0         0         0         0         0         0         0
         0         0         0         0         0         0         0         0
         0         0         0         0         0         0         0         0
         0         0         0         0         0         0         0         0
         0         0         0         0         0         0         0         0
         0         0         0         0         0         0         0         0
         0         0         0         0         0         0         0         0
         0         0         0         0         0         0         0         0
         0         0         0         0         0         0         0         0
         0         0         0         0         0         0         0         0
         0         0         0         0         0         0         0         0
         0         0         0         0         0         0         0         0
         0         0         0         0         0         0         0         0
         0         0         0         0         0         0         0         0
         0         0         0         0         0         0         0         0
         0         0         0         0         0         0         0         0
         0         0         0         0         0         0         0         0
         0         0         0         0         0         0         0         0
         0         0         0         0         0         0         0         0
         0         0         0         0         0         0         0         0
         0         0         0         0         0         0         0         0
         0         0         0         0         0         0         0         0
         0         0         0         0         0         0         0         0
         0         0         0         0         0         0         0         0
         0         0         0         0         0         0         0         0
         0         0         0         0         0         0         0         0
         0         0         0         0         0         0         0         0
         0         0         0         0         0         0         0         0
         0         0         0         0         0         0         0         0
         0         0         0         0         0         0         0         0
         0         0         0         0         0         0         0         0
         0         0         0         0         0         0         0         0
         0         0         0         0         0         0         0         0
         0         0         0         0         0         0         0         0
         0         0         0         0         0         0         0         0
         0         0         0         0         0         0         0         0
         0         0         0         0         0         0         0         0
         0         0         0         0         0         0         0         0
         0         0         0         0         0         0         0         0
         0         0         0         0         0         0         0         0
         0         0         0         0         0         0         0         0
         0         0         0         0         0         0         0         0
         0         0         0         0         0         0         0         0
         0         0         0         0         0         0         0         0
         0         0         0         0         0         0         0         0
         0         0         0         0         0         0         0         0
         0         0         0         0         0         0         0         0
         0         0         0         0         0         0         0         0
         0         0         0         0         0         0         0         0
         0         0         0         0         0         0         0         0
         0         0         0         0         0         0         0         0
         0         0         0         0         0         0         0         0
         0         0         0         0         0         0         0         0
         0         0         0         0         0         0         0         0
         0         0         0         0         0         0         0         0
         0         0         0         0         0         0         0         0
         0         0         0         0         0         0         0         0
         0         0         0         0         0         0         0         0
         0         0         0         0         0         0         0         0
         0         0         0         0         0         0         0         0
         0         0         0         0         0         0         0         0
         0         0         0         0         0         0         0         0
         0         0         0         0         0         0         0         0
         0         0         0         0         0         0         0         0
         0         0         0         0         0         0         0         0
         0         0         0         0         0         0         0         0
         0         0         0         0         0         0         0         0
         0         0         0         0         0         0         0         0
         0         0         0         0         0         0         0         0
         0         0         0         0         0         0         0         0
         0         0         0         0         0         0         0         0
         0         0         0         0         0         0         0         0
         0         0         0         0         0         0         0         0
         0         0         0         0         0         0         0         0
         0         0         0         0         0         0         0         0
         0         0         0         0         0         0         0         0
         0         0         0         0         0         0         0         0
         0         0         0         0         0         0         0         0
         0         0         0         0         0         0         0         0
         0         0         0         0         0         0         0         0
         0         0         0         0         0         0         0         0
         0         0         0         0         0         0         0         0
         0         0         0         0         0         0         0         0
         0         0         0         0         0         0         0         0
         0         0         0         0         0         0         0         0
         0         0         0         0         0         0         0         0
         0         0         0         0         0         0         0         0
         0         0         0         0         0         0         0         0
         0         0         0         0         0         0         0         0
         0         0         0         0         0         0         0         0
         0         0         0         0         0         0         0         0
         0         0         0         0         0         0         0         0
         0         0         0         0         0         0         0         0
         0         0         0         0         0         0         0         0
         0         0         0         0         0         0         0         0
         0         0         0         0         0         0         0         0
         0         0         0         0         0         0         0         0
         0         0         0         0         0         0         0         0
         0         0         0         0         0         0         0         0
         0         0         0         0         0         0         0         0
         0         0         0         0         0         0         0         0
         0         0         0         0         0         0         0         0
         0         0         0         0         0         0         0         0
         0         0         0         0         0         0         0         0
         0         0         0         0         0         0         0         0
         0         0         0         0         0         0         0         0
         0         0         0         0         0         0         0         0
         0         0         0         0         0         0         0         0
         0         0         0         0         0         0         0         0
         0         0         0         0         0         0         0         0
         0         0         0         0         0         0         0         0
         0         0         0         0         0         0         0         0
         0         0         0         0         0         0         0         0
         0         0         0         0         0         0         0         0
         0         0         0         0         0         0         0         0
         0         0         0         0         0         0         0         0
         0         0         0         0         0         0         0         0
         0         0         0         0         0         0         0         0
         0         0         0         0         0         0         0         0
         0         0         0         0         0         0         0         0
         0         0         0         0         0         0         0         0
         0         0         0         0         0         0         0         0
         0         0         0         0         0         0         0         0
         0         0         0         0         0         0         0         0
         0         0         0         0         0         0         0         0
         0         0         0         0         0         0         0         0
         0         0         0         0         0         0         0         0
         0         0         0         0         0         0         0         0
         0         0         0         0         0         0         0         0
         0         0         0         0         0         0         0         0
         0         0         0         0         0         0         0         0
         0         0         0         0         0         0         0         0
         0         0         0         0         0         0         0         0
         0         0         0         0         0         0         0         0
         0         0         0         0         0         0         0         0
         0         0         0         0         0         0         0         0
         0         0         0         0         0         0         0         0
         0         0         0         0         0         0         0         0
         0         0         0         0         0         0         0         0
         0         0         0         0         0         0         0         0
         0         0         0         0         0         0         0         0
         0         0         0         0         0         0         0         0
         0         0         0         0         0         0         0         0
         0         0         0         0         0         0         0         0
         0         0         0         0         0         0         0         0
         0         0         0         0         0         0         0         0
         0         0         0         0         0         0         0         0
         0         0         0         0         0         0         0         0
         0         0         0         0         0         0         0         0
         0         0         0         0         0         0         0         0
         0         0         0         0         0         0         0         0
         0         0         0         0         0         0         0         0
         0         0         0         0         0         0         0         0
         0         0         0         0         0         0         0         0
         0         0         0         0         0         0         0         0
         0         0         0         0         0         0         0         0
         0         0         0         0         0         0         0         0
         0         0         0         0         0         0         0         0
         0         0         0         0         0         0         0         0
         0         0         0         0         0         0         0         0
         0         0         0         0         0         0         0         0
         0         0         0         0         0         0         0         0
         0         0         0         0         0         0         0         0
         0         0         0         0         0         0         0         0
         0         0         0         0         0         0         0         0
         0         0         0         0         0         0         0         0
         0         0         0         0         0         0         0         0
         0         0         0         0         0         0         0         0
         0         0         0         0         0         0         0         0
         0         0         0         0         0         0         0         0
         0         0         0         0         0         0         0         0
         0         0         0         0         0         0         0         0
         0         0         0         0         0         0         0         0
         0         0         0         0         0         0         0         0
         0         0         0         0         0         0         0         0
         0         0         0         0         0         0         0         0
         0         0         0         0         0         0         0         0
         0         0         0         0         0         0         0         0
         0         0         0         0         0         0         0         0
         0         0         0         0         0         0         0         0
         0         0         0         0         0         0         0         0
         0         0         0         0         0         0         0         0
         0         0         0         0         0         0         0         0
         0         0         0         0         0         0         0         0
         0         0         0         0         0         0         0         0
         0         0         0         0         0         0         0         0
         0         0         0         0         0         0         0         0
         0         0         0         0         0         0         0         0
         0         0         0         0         0         0         0         0
         0         0         0         0         0         0         0         0
         0         0         0         0         0         0         0         0
         0         0         0         0         0         0         0         0
         0         0         0         0         0         0         0         0
         0         0         0         0         0         0         0         0
         0         0         0         0         0         0         0         0
         0         0         0         0         0         0         0         0
         0         0         0         0         0         0         0         0
         0         0         0         0         0         0         0         0
         0         0         0         0         0         0         0         0
         0         0         0         0         0         0         0         0
         0         0         0         0         0         0         0         0
         0         0         0         0         0         0         0         0
         0         0         0         0         0         0         0         0
         0         0         0         0         0         0         0         0
         0         0         0         0         0         0         0         0
         0         0         0         0         0         0         0         0
         0         0         0         0         0         0         0         0
         0         0         0         0         0         0         0         0
         0         0         0         0         0         0         0         0
         0         0         0         0         0         0         0         0
         0         0         0         0         0         0         0         0
         0         0         0         0         0         0         0         0
         0         0         0         0         0         0         0         0
         0         0         0         0         0         0         0         0
         0         0         0         0         0         0         0         0
         0         0         0         0         0         0         0         0
         0         0         0         0         0         0         0         0
         0         0         0         0         0         0         0         0
         0         0         0         0         0         0         0         0
         0         0         0         0         0         0         0         0
         0         0         0         0         0         0         0         0
         0         0         0         0         0         0         0         0
         0         0         0         0         0         0         0         0
         0         0         0         0         0         0         0         0
         0         0         0         0         0         0         0         0
         0         0         0         0         0         0         0         0
         0         0         0         0         0         0         0         0
         0         0         0         0         0         0         0         0
         0         0         0         0         0         0         0         0
         0         0         0         0         0         0         0         0
         0         0         0         0         0         0         0         0
         0         0         0         0         0         0         0         0
         0         0         0         0         0         0         0         0
         0         0         0         0         0         0         0         0
         0         0         0         0         0         0         0         0
         0         0         0         0         0         0         0         0
         0         0         0         0         0         0         0         0
         0         0         0         0         0         0         0         0
         0         0         0         0         0         0         0         0
         0         0         0         0         0         0         0         0
         0         0         0         0         0         0         0         0
         0         0         0         0         0         0         0         0
         0         0         0         0         0         0         0         0
         0         0         0         0         0         0         0         0
         0         0         0         0         0         0         0         0
         0         0         0         0         0         0         0         0
         0         0         0         0         0         0         0         0
         0         0         0         0         0         0         0         0
         0         0         0         0         0         0         0         0
         0         0         0         0         0         0         0         0
         0         0         0         0         0         0         0         0
         0         0         0         0         0         0         0         0
         0         0         0         0         0         0         0         0
         0         0         0         0         0         0         0         0
         0         0         0         0         0         0         0         0
         0         0         0         0         0         0         0         0
         0         0         0         0         0         0         0         0
         0         0         0         0         0         0         0         0
         0         0         0         0         0         0         0         0
         0         0         0         0         0         0         0         0
         0         0         0         0         0         0         0         0
         0         0         0         0         0         0         0         0
         0         0         0         0         0         0         0         0
         0         0         0         0         0         0         0         0
         0         0         0         0         0         0         0         0
         0         0         0         0         0         0         0         0
         0         0         0         0         0         0         0         0
         0         0         0         0         0         0         0         0
         0         0         0         0         0         0         0         0
         0         0         0         0         0         0         0         0
         0         0         0         0         0         0         0         0
         0         0         0         0         0         0         0         0
         0         0         0         0         0         0         0         0
         0         0         0         0         0         0         0         0
         0         0         0         0         0         0         0         0
         0         0         0         0         0         0         0         0
         0         0         0         0         0         0         0         0
         0         0         0         0         0         0         0         0
         0         0         0         0         0         0         0         0
         0         0         0         0         0         0         0         0
         0         0         0         0         0         0         0         0
         0         0         0         0         0         0         0         0
         0         0         0         0         0         0         0         0
         0         0         0         0         0         0         0         0
         0         0         0         0         0         0         0         0
         0         0         0         0         0         0         0         0
         0         0         0         0         0         0         0         0
         0         0         0         0         0         0         0         0
         0         0         0         0         0         0         0         0
         0         0         0         0         0         0         0         0
         0         0         0         0         0         0         0         0
         0         0         0         0         0         0         0         0
         0         0         0         0         0         0         0         0
         0         0         0         0         0         0         0         0
         0         0         0         0         0         0         0         0
         0         0         0         0         0         0         0         0
         0         0         0         0         0         0         0         0
         0         0         0         0         0         0         0         0
         0         0         0         0         0         0         0         0
         0         0         0         0         0         0         0         0
         0         0         0         0         0         0         0         0
         0         0         0         0         0         0         0         0
         0         0         0         0         0         0         0         0
         0         0         0         0         0         0         0         0
         0         0         0         0         0         0         0         0
         0         0         0         0         0         0         0         0
         0         0         0         0         0         0         0         0
         0         0         0         0         0         0         0         0
         0         0         0         0         0         0         0         0
         0         0         0         0         0         0         0         0
         0         0         0         0         0         0         0         0
         0         0         0         0         0         0         0         0
         0         0         0         0         0         0         0         0
         0         0         0         0         0         0         0         0
         0         0         0         0         0         0         0         0
         0         0         0         0         0         0         0         0
         0         0         0         0         0         0         0         0
         0         0         0         0         0         0         0         0
         0         0         0         0         0         0         0         0
         0         0         0         0         0         0         0         0
         0         0         0         0         0         0         0         0
         0         0         0         0         0         0         0         0
         0         0         0         0         0         0         0         0
         0         0         0         0         0         0         0         0
         0         0         0         0         0         0         0         0
         0         0         0         0         0         0         0         0
         0         0         0         0         0         0         0         0
         0         0         0         0         0         0         0         0
         0         0         0         0         0         0         0         0
         0         0         0         0         0         0         0         0
         0         0         0         0         0         0         0         0
         0         0         0         0         0         0         0         0
         0         0         0         0         0         0         0         0
         0         0         0         0         0         0         0         0
         0         0         0         0         0         0         0         0
         0         0         0         0         0         0         0         0
         0         0         0         0         0         0         0         0
         0         0         0         0         0         0         0         0
         0         0         0         0         0         0         0         0
         0         0         0         0         0         0         0         0
         0         0         0         0         0         0         0         0
         0         0         0         0         0         0         0         0
         0         0         0         0         0         0         0         0
         0         0         0         0         0         0         0         0
         0         0         0         0         0         0         0         0
         0         0         0         0         0         0         0         0
         0         0         0         0         0         0         0         0
         0         0         0         0         0         0         0         0
         0         0         0         0         0         0         0         0
         0         0         0         0         0         0         0         0
         0         0         0         0         0         0         0         0
         0         0         0         0         0         0         0         0
         0         0         0         0         0         0         0         0
         0         0         0         0         0         0         0         0
         0         0         0         0         0         0         0         0
         0         0         0         0         0         0         0         0
         0         0         0         0         0         0         0         0
         0         0         0         0         0         0         0         0
         0         0         0         0         0         0         0         0
         0         0         0         0         0         0         0         0
         0         0         0         0         0         0         0         0
         0         0         0         0         0         0         0         0
         0         0         0         0         0         0         0         0
         0         0         0         0         0         0         0         0
         0         0         0         0         0         0         0         0
         0         0         0         0         0         0         0         0
         0         0         0         0         0         0         0         0
         0         0         0         0         0         0         0         0
         0         0         0         0         0         0         0         0
         0         0         0         0         0         0         0         0
         0         0         0         0         0         0         0         0
         0         0         0         0         0         0         0         0
         0         0         0         0         0         0         0         0
         0         0         0         0         0         0         0         0
         0         0         0         0         0         0         0         0
         0         0         0         0         0         0         0         0
         0         0         0         0         0         0         0         0
         0         0         0         0         0         0         0         0
         0         0         0         0         0         0         0         0
         0         0         0         0         0         0         0         0
         0         0         0         0         0         0         0         0
         0         0         0         0         0         0         0         0
         0         0         0         0         0         0         0         0
         0         0         0         0         0         0         0         0
         0         0         0         0         0         0         0         0
         0         0         0         0         0         0         0         0
         0         0         0         0         0         0         0         0
         0         0         0         0         0         0         0         0
         0         0         0         0         0         0         0         0
         0         0         0         0         0         0         0         0
         0         0         0         0         0         0         0         0
         0         0         0         0         0         0         0         0
         0         0         0         0         0         0         0         0
         0         0         0         0         0         0         0         0
         0         0         0         0         0         0         0         0
         0         0         0         0         0         0         0         0
         0         0         0         0         0         0         0         0
         0         0         0         0         0         0         0         0
         0         0         0         0         0         0         0         0
         0         0         0         0         0         0         0         0
         0         0         0         0         0         0         0         0
         0         0         0         0         0         0         0         0
         0         0         0         0         0         0         0         0
         0         0         0         0         0         0         0         0
         0         0         0         0         0         0         0         0
         0         0         0         0         0         0         0         0
         0         0         0         0         0         0         0         0
         0         0         0         0         0         0         0         0
         0         0         0         0         0         0         0         0
         0         0         0         0         0         0         0         0
         0         0         0         0         0         0         0         0
         0         0         0         0         0         0         0         0
         0         0         0         0         0         0         0         0
         0         0         0         0         0         0         0         0
         0         0         0         0         0         0         0         0
         0         0         0         0         0         0         0         0
         0         0         0         0         0         0         0         0
         0         0         0         0         0         0         0         0
         0         0         0         0         0         0         0         0
         0         0         0         0         0         0         0         0
         0         0         0         0         0         0         0         0
         0         0         0         0         0         0         0         0
         0         0         0         0         0         0         0         0
         0         0         0         0         0         0         0         0
         0         0         0         0         0         0         0         0
         0         0         0         0         0         0         0         0
         0         0         0         0         0         0         0         0
         0         0         0         0         0         0         0         0
         0         0         0         0         0         0         0         0
         0         0         0         0         0         0         0         0
         0         0         0         0         0         0         0         0
         0         0         0         0         0         0         0         0
         0         0         0         0         0         0         0         0
         0         0         0         0         0         0         0         0
         0         0         0         0         0         0         0         0
         0         0         0         0         0         0         0         0
         0         0         0         0         0         0         0         0
         0         0         0         0         0         0         0         0
         0         0         0         0         0         0         0         0
         0         0         0         0         0         0         0         0
         0         0         0         0         0         0         0         0
         0         0         0         0         0         0         0         0
         0         0         0         0         0         0         0         0
         0         0         0         0         0         0         0         0
         0         0         0         0         0         0         0         0
         0         0         0         0         0         0         0         0
         0         0         0         0         0         0         0         0
         0         0         0         0         0         0         0         0
         0         0         0         0         0         0         0         0
         0         0         0         0         0         0         0         0
         0         0         0         0         0         0         0         0
         0         0         0         0         0         0         0         0
         0         0         0         0         0         0         0         0
         0         0         0         0         0         0         0         0
         0         0         0         0         0         0         0         0
         0         0         0         0         0         0         0         0
         0         0         0         0         0         0         0         0
         0         0         0         0         0         0         0         0
         0         0         0         0         0         0         0         0
         0         0         0         0         0         0         0         0
         0         0         0         0         0         0         0         0
         0         0         0         0         0         0         0         0
         0         0         0         0         0         0         0         0
         0         0         0         0         0         0         0         0
         0         0         0         0         0         0         0         0
         0         0         0         0         0         0         0         0
         0         0         0         0         0         0         0         0
         0         0         0         0         0         0         0         0
         0         0         0         0         0         0         0         0
         0         0         0         0         0         0         0         0
         0         0         0         0         0         0         0         0
         0         0         0         0         0         0         0         0
         0         0         0         0         0         0         0         0
         0         0         0         0         0         0         0         0
         0         0         0         0         0         0         0         0
         0         0         0         0         0         0         0         0
         0         0         0         0         0         0         0         0
         0         0         0         0         0         0         0         0
         0         0         0         0         0         0         0         0
         0         0         0         0         0         0         0         0
         0         0         0         0         0         0         0         0
         0         0         0         0         0         0         0         0
         0         0         0         0         0         0         0         0
         0         0         0         0         0         0         0         0
         0         0         0         0         0         0         0         0
         0         0         0         0         0         0         0         0
         0         0         0         0         0         0         0         0
         0         0         0         0         0         0         0         0
         0         0         0         0         0         0         0         0
         0         0         0         0         0         0         0         0
         0         0         0         0         0         0         0         0
         0         0         0         0         0         0         0         0
         0         0         0         0         0         0         0         0
         0         0         0         0         0         0         0         0
         0         0         0         0         0         0         0         0
         0         0         0         0         0         0         0         0
         0         0         0         0         0         0         0         0
         0         0         0         0         0         0         0         0
         0         0         0         0         0         0         0         0
         0         0         0         0         0         0         0         0
         0         0         0         0         0         0         0         0
         0         0         0         0         0         0         0         0
         0         0         0         0         0         0         0         0
         0         0         0         0         0         0         0         0
         0         0         0         0         0         0         0         0
         0         0         0         0         0         0         0         0
         0         0         0         0         0         0         0         0
         0         0         0         0         0         0         0         0
         0         0         0         0         0         0         0         0
         0         0         0         0         0         0         0         0
         0         0         0         0         0         0         0         0
         0         0         0         0         0         0         0         0
         0         0         0         0         0         0         0         0
         0         0         0         0         0         0         0         0
         0         0         0         0         0         0         0         0
         0         0         0         0         0         0         0         0
         0         0         0         0         0         0         0         0
         0         0         0         0         0         0         0         0
         0         0         0         0         0         0         0         0
         0         0         0         0         0         0         0         0
         0         0         0         0         0         0         0         0
         0         0         0         0         0         0         0         0
         0         0         0         0         0         0         0         0
         0         0         0         0         0         0         0         0
         0         0         0         0         0         0         0         0
         0         0         0         0         0         0         0         0
         0         0         0         0         0         0         0         0
         0         0         0         0         0         0         0         0
         0         0         0         0         0         0         0         0
         0         0         0         0         0         0         0         0
         0         0         0         0         0         0         0         0
         0         0         0         0         0         0         0         0
         0         0         0         0         0         0         0         0
         0         0         0         0         0         0         0         0
         0         0         0         0         0         0         0         0
         0         0         0         0         0         0         0         0
         0         0         0         0         0         0         0         0
         0         0         0         0         0         0         0         0
         0         0         0         0         0         0         0         0
         0         0         0         0         0         0         0         0
         0         0         0         0         0         0         0         0
         0         0         0         0         0         0         0         0
         0         0         0         0         0         0         0         0
         0         0         0         0         0         0         0         0
         0         0         0         0         0         0         0         0
         0         0         0         0         0         0         0         0
         0         0         0         0         0         0         0         0
         0         0         0         0         0         0         0         0
         0         0         0         0         0         0         0         0
         0         0         0         0         0         0         0         0
         0         0         0         0         0         0         0         0
         0         0         0         0         0         0         0         0
         0         0         0         0         0         0         0         0
         0         0         0         0         0         0         0         0
         0         0         0         0         0         0         0         0
         0         0         0         0         0         0         0         0
         0         0         0         0         0         0         0         0
         0         0         0         0         0         0         0         0
         0         0         0         0         0         0         0         0
         0         0         0         0         0         0         0         0
         0         0         0         0         0         0         0         0
         0         0         0         0         0         0         0         0
         0         0         0         0         0         0         0         0
         0         0         0         0         0         0         0         0
         0         0         0         0         0         0         0         0
         0         0         0         0         0         0         0         0
         0         0         0         0         0         0         0         0
         0         0         0         0         0         0         0         0
         0         0         0         0         0         0         0         0
         0         0         0         0         0         0         0         0
         0         0         0         0         0         0         0         0
         0         0         0         0         0         0         0         0
         0         0         0         0         0         0         0         0
         0         0         0         0         0         0         0         0
         0         0         0         0         0         0         0         0
         0         0         0         0         0         0         0         0
         0         0         0         0         0         0         0         0
         0         0         0         0         0         0         0         0
         0         0         0         0         0         0         0         0
         0         0         0         0         0         0         0         0
         0         0         0         0         0         0         0         0
         0         0         0         0         0         0         0         0
         0         0         0         0         0         0         0         0
         0         0         0         0         0         0         0         0
         0         0         0         0         0         0         0         0
         0         0         0         0         0         0         0         0
         0         0         0         0         0         0         0         0
         0         0         0         0         0         0         0         0
         0         0         0         0         0         0         0         0
         0         0         0         0         0         0         0         0
         0         0         0         0         0         0         0         0
         0         0         0         0         0         0         0         0
         0         0         0         0         0         0         0         0
         0         0         0         0         0         0         0         0
         0         0         0         0         0         0         0         0
         0         0         0         0         0         0         0         0
         0         0         0         0         0         0         0         0
         0         0         0         0         0         0         0         0
         0         0         0         0         0         0         0         0
         0         0         0         0         0         0         0         0
         0         0         0         0         0         0         0         0
         0         0         0         0         0         0         0         0
         0         0         0         0         0         0         0         0
         0         0         0         0         0         0         0         0
         0         0         0         0         0         0         0         0
         0         0         0         0         0         0         0         0
         0         0         0         0         0         0         0         0
         0         0         0         0         0         0         0         0
         0         0         0         0         0         0         0         0
         0         0         0         0         0         0         0         0
         0         0         0         0         0         0         0         0
         0         0         0         0         0         0         0         0
         0         0         0         0         0         0         0         0
         0         0         0         0         0         0         0         0
         0         0         0         0         0         0         0         0
         0         0         0         0         0         0         0         0
         0         0         0         0         0         0         0         0
         0         0         0         0         0         0         0         0
         0         0         0         0         0         0         0         0
         0         0         0         0         0         0         0         0
         0         0         0         0         0         0         0         0
         0         0         0         0         0         0         0         0
         0         0         0         0         0         0         0         0
         0         0         0         0         0         0         0         0
         0         0         0         0         0         0         0         0
         0         0         0         0         0         0         0         0
         0         0         0         0         0         0         0         0
         0         0         0         0         0         0         0         0
         0         0         0         0         0         0         0         0
         0         0         0         0         0         0         0         0
         0         0         0         0         0         0         0         0
         0         0         0         0         0         0         0         0
         0         0         0         0         0         0         0         0
         0         0         0         0         0         0         0         0
         0         0         0         0         0         0         0         0
         0         0         0         0         0         0         0         0
         0         0         0         0         0         0         0         0
         0         0         0         0         0         0         0         0
         0         0         0         0         0         0         0         0
         0         0         0         0         0         0         0         0
         0         0         0         0         0         0         0         0
         0         0         0         0         0         0         0         0
         0         0         0         0         0         0         0         0
         0         0         0         0         0         0         0         0
         0         0         0         0         0         0         0         0
         0         0         0         0         0         0         0         0
         0         0         0         0         0         0         0         0
         0         0         0         0         0         0         0         0
         0         0         0         0         0         0         0         0
         0         0         0         0         0         0         0         0
         0         0         0         0         0         0         0         0
         0         0         0         0         0         0         0         0
         0         0         0         0         0         0         0         0
         0         0         0         0         0         0         0         0
         0         0         0         0         0         0         0         0
         0         0         0         0         0         0         0         0
         0         0         0         0         0         0         0         0
         0         0         0         0         0         0         0         0
         0         0         0         0         0         0         0         0
         0         0         0         0         0         0         0         0
         0         0         0         0         0         0         0         0
         0         0         0         0         0         0         0         0
         0         0         0         0         0         0         0         0
         0         0         0         0         0         0         0         0
         0         0         0         0         0         0         0         0
         0         0         0         0         0         0         0         0
         0         0         0         0         0         0         0         0
         0         0         0         0         0         0         0         0
         0         0         0         0         0         0         0         0
         0         0         0         0         0         0         0         0
         0         0         0         0         0         0         0         0
         0         0         0         0         0         0         0         0
         0         0         0         0         0         0         0         0
         0         0         0         0         0         0         0         0
         0         0         0         0         0         0         0         0
         0         0         0         0         0         0         0         0
         0         0         0         0         0         0         0         0
         0         0         0         0         0         0         0         0
         0         0         0         0         0         0         0         0
         0         0         0         0         0         0         0         0
         0         0         0         0         0         0         0         0
         0         0         0         0         0         0         0         0
         0         0         0         0         0         0         0         0
         0         0         0         0         0         0         0         0
         0         0         0         0         0         0         0         0
         0         0         0         0         0         0         0         0
         0         0         0         0         0         0         0         0
         0         0         0         0         0         0         0         0
         0         0         0         0         0         0         0         0
         0         0         0         0         0         0         0         0
         0         0         0         0         0         0         0         0
         0         0         0         0         0         0         0         0
         0         0         0         0         0         0         0         0
         0         0         0         0         0         0         0         0
         0         0         0         0         0         0         0         0
         0         0         0         0         0         0         0         0
         0         0         0         0         0         0         0         0
         0         0         0         0         0         0         0         0
         0         0         0         0         0         0         0         0
         0         0         0         0         0         0         0         0
         0         0         0         0         0         0         0         0
         0         0         0         0         0         0         0         0
         0         0         0         0         0         0         0         0
         0         0         0         0         0         0         0         0
         0         0         0         0         0         0         0         0
         0         0         0         0         0         0         0         0
         0         0         0         0         0         0         0         0
         0         0         0         0         0         0         0         0
         0         0         0         0         0         0         0         0
         0         0         0         0         0         0         0         0
         0         0         0         0         0         0         0         0
         0         0         0         0         0         0         0         0
         0         0         0         0         0         0         0         0
         0         0         0         0         0         0         0         0
         0         0         0         0         0         0         0         0
         0         0         0         0         0         0         0         0
         0         0         0         0         0         0         0         0
         0         0         0         0         0         0         0         0
         0         0         0         0         0         0         0         0
         0         0         0         0         0         0         0         0
         0         0         0         0         0         0         0         0
         0         0         0         0         0         0         0         0
         0         0         0         0         0         0         0         0
         0         0         0         0         0         0         0         0
         0         0         0         0         0         0         0         0
         0         0         0         0         0         0         0         0
         0         0         0         0         0         0         0         0
         0         0         0         0         0         0         0         0
         0         0         0         0         0         0         0         0
         0         0         0         0         0         0         0         0
         0         0         0         0         0         0         0         0
         0         0         0         0         0         0         0         0
         0         0         0         0         0         0         0         0
         0         0         0         0         0         0         0         0
         0         0         0         0         0         0         0         0
         0         0         0         0         0         0         0         0
         0         0         0         0         0         0         0         0
         0         0         0         0         0         0         0         0
         0         0         0         0         0         0         0         0
         0         0         0         0         0         0         0         0
         0         0         0         0         0         0         0         0
         0         0         0         0         0         0         0         0
         0         0         0         0         0         0         0         0
         0         0         0         0         0         0         0         0
         0         0         0         0         0         0         0         0
         0         0         0         0         0         0         0         0
         0         0         0         0         0         0         0         0
         0         0         0         0         0         0         0         0
         0         0         0         0         0         0         0         0
         0         0         0         0         0         0         0         0
         0         0         0         0         0         0         0         0
         0         0         0         0         0         0         0         0
         0         0         0         0         0         0         0         0
         0         0         0         0         0         0         0         0
         0         0         0         0         0         0         0         0
         0         0         0         0         0         0         0         0
         0         0         0         0         0         0         0         0
         0         0         0         0         0         0         0         0
         0         0         0         0         0         0         0         0
         0         0         0         0         0         0         0         0
         0         0         0         0         0         0         0         0
         0         0         0         0         0         0         0         0
         0         0         0         0         0         0         0         0
         0         0         0         0         0         0         0         0
         0         0         0         0         0         0         0         0
         0         0         0         0         0         0         0         0
         0         0         0         0         0         0         0         0
         0         0         0         0         0         0         0         0
         0         0         0         0         0         0         0         0
         0         0         0         0         0         0         0         0
         0         0         0         0         0         0         0         0
         0         0         0         0         0         0         0         0
         0         0         0         0         0         0         0         0
         0         0         0         0         0         0         0         0
         0         0         0         0         0         0         0         0
         0         0         0         0         0         0         0         0
         0         0         0         0         0         0         0         0
         0         0         0         0         0         0         0         0
         0         0         0         0         0         0         0         0
         0         0         0         0         0         0         0         0
         0         0         0         0         0         0         0         0
         0         0         0         0         0         0         0         0
         0         0         0         0         0         0         0         0
         0         0         0         0         0         0         0         0
         0         0         0         0         0         0         0         0
         0         0         0         0         0         0         0         0
         0         0         0         0         0         0         0         0
         0         0         0         0         0         0         0         0
         0         0         0         0         0         0         0         0
         0         0         0         0         0         0         0         0
         0         0         0         0         0         0         0         0
         0         0         0         0         0         0         0         0
         0         0         0         0         0         0         0         0
         0         0         0         0         0         0         0         0
         0         0         0         0         0         0         0         0
         0         0         0         0         0         0         0         0
         0         0         0         0         0         0         0         0
         0         0         0         0         0         0         0         0
         0         0         0         0         0         0         0         0
         0         0         0         0         0         0         0         0
         0         0         0         0         0         0         0         0
         0         0         0         0         0         0         0         0
         0         0         0         0         0         0         0         0
         0         0         0         0         0         0         0         0
         0         0         0         0         0         0         0         0
         0         0         0         0         0         0         0         0
         0         0         0         0         0         0         0         0
         0         0         0         0         0         0         0         0
         0         0         0         0         0         0         0         0
         0         0         0         0         0         0         0         0
         0         0         0         0         0         0         0         0
         0         0         0         0         0         0         0         0
         0         0         0         0         0         0         0         0
         0         0         0         0         0         0         0         0
         0         0         0         0         0         0         0         0
         0         0         0         0         0         0         0         0
         0         0         0         0         0         0         0         0
         0         0         0         0         0         0         0         0
         0         0         0         0         0         0         0         0
         0         0         0         0         0         0         0         0
         0         0         0         0         0         0         0         0
         0         0         0         0         0         0         0         0
         0         0         0         0         0         0         0         0
         0         0         0         0         0         0         0         0
         0         0         0         0         0         0         0         0
         0         0         0         0         0         0         0         0
         0         0         0         0         0         0         0         0
         0         0         0         0         0         0         0         0
         0         0         0         0         0         0         0         0
         0         0         0         0         0         0         0         0
         0         0         0         0         0         0         0         0
         0         0         0         0         0         0         0         0
         0         0         0         0         0         0         0         0
         0         0         0         0         0         0         0         0
         0         0         0         0         0         0         0         0
         0         0         0         0         0         0         0         0
         0         0         0         0         0         0         0         0
         0         0         0         0         0         0         0         0
         0         0         0         0         0         0         0         0
         0         0         0         0         0         0         0         0
         0         0         0         0         0         0         0         0
         0         0         0         0         0         0         0         0
         0         0         0         0         0         0         0         0
         0         0         0         0         0         0         0         0
         0         0         0         0         0         0         0         0
         0         0         0         0         0         0         0         0
         0         0         0         0         0         0         0         0
         0         0         0         0         0         0         0         0
         0         0         0         0         0         0         0         0
         0         0         0         0         0         0         0         0
         0         0         0         0         0         0         0         0
         0         0         0         0         0         0         0         0
         0         0         0         0         0         0         0         0
         0         0         0         0         0         0         0         0
         0         0         0         0         0         0         0         0
         0         0         0         0         0         0         0         0
         0         0         0         0         0         0         0         0
         0         0         0         0         0         0         0         0
         0         0         0         0         0         0         0         0
         0         0         0         0         0         0         0         0
         0         0         0         0         0         0         0         0
         0         0         0         0         0         0         0         0
         0         0         0         0         0         0         0         0
         0         0         0         0         0         0         0         0
         0         0         0         0         0         0         0         0
         0         0         0         0         0         0         0         0
         0         0         0         0         0         0         0         0
         0         0         0         0         0         0         0         0
         0         0         0         0         0         0         0         0
         0         0         0         0         0         0         0         0
         0         0         0         0         0         0         0         0
         0         0         0         0         0         0         0         0
         0         0         0         0         0         0         0         0
         0         0         0         0         0         0         0         0
         0         0         0         0         0         0         0         0
         0         0         0         0         0         0         0         0
         0         0         0         0         0         0         0         0
         0         0         0         0         0         0         0         0
         0         0         0         0         0         0         0         0
         0         0         0         0         0         0         0         0
         0         0         0         0         0         0         0         0
         0         0         0         0         0         0         0         0
         0         0         0         0         0         0         0         0
         0         0         0         0         0         0         0         0
         0         0         0         0         0         0         0         0
         0         0         0         0         0         0         0         0
         0         0         0         0         0         0         0         0
         0         0         0         0         0         0         0         0
         0         0         0         0         0         0         0         0
         0         0         0         0         0         0         0         0
         0         0         0         0         0         0         0         0
         0         0         0         0         0         0         0         0
         0         0         0         0         0         0         0         0
         0         0         0         0         0         0         0         0
         0         0         0         0         0         0         0         0
         0         0         0         0         0         0         0         0
         0         0         0         0         0         0         0         0
         0         0         0         0         0         0         0         0
         0         0         0         0         0         0         0         0
         0         0         0         0         0         0         0         0
         0         0         0         0         0         0         0         0
         0         0         0         0         0         0         0         0
         0         0         0         0         0         0         0         0
         0         0         0         0         0         0         0         0
         0         0         0         0         0         0         0         0
         0         0         0         0         0         0         0         0
         0         0         0         0         0         0         0         0
         0         0         0         0         0         0         0         0
         0         0         0         0         0         0         0         0
         0         0         0         0         0         0         0         0
         0         0         0         0         0         0         0         0
         0         0         0         0         0         0         0         0
         0         0         0         0         0         0         0         0
         0         0         0         0         0         0         0         0
         0         0         0         0         0         0         0         0
         0         0         0         0         0         0         0         0
         0         0         0         0         0         0         0         0
         0         0         0         0         0         0         0         0
         0         0         0         0         0         0         0         0
         0         0         0         0         0         0         0         0
         0         0         0         0         0         0         0         0
         0         0         0         0         0         0         0         0
         0         0         0         0         0         0         0         0
         0         0         0         0         0         0         0         0
         0         0         0         0         0         0         0         0
         0         0         0         0         0         0         0         0
         0         0         0         0         0         0         0         0
         0         0         0         0         0         0         0         0
         0         0         0         0         0         0         0         0
         0         0         0         0         0         0         0         0
         0         0         0         0         0         0         0         0
         0         0         0         0         0         0         0         0
         0         0         0         0         0         0         0         0
         0         0         0         0         0         0         0         0
         0         0         0         0         0         0         0         0
         0         0         0         0         0         0         0         0
         0         0         0         0         0         0         0         0
         0         0         0         0         0         0         0         0
         0         0         0         0         0         0         0         0
         0         0         0         0         0         0         0         0
         0         0         0         0         0         0         0         0
         0         0         0         0         0         0         0         0
         0         0         0         0         0         0         0         0
         0         0         0         0         0         0         0         0
         0         0         0         0         0         0         0         0
         0         0         0         0         0         0         0         0
         0         0         0         0         0         0         0         0
         0         0         0         0         0         0         0         0
         0         0         0         0         0         0         0         0
         0         0         0         0         0         0         0         0
         0         0         0         0         0         0         0         0
         0         0         0         0         0         0         0         0
         0         0         0         0         0         0         0         0
         0         0         0         0         0         0         0         0
         0         0         0         0         0         0         0         0
         0         0         0         0         0         0         0         0
         0         0         0         0         0         0         0         0
         0         0         0         0         0         0         0         0
         0         0         0         0         0         0         0         0
         0         0         0         0         0         0         0         0
         0         0         0         0         0         0         0         0
         0         0         0         0         0         0         0         0
         0         0         0         0         0         0         0         0
         0         0         0         0         0         0         0         0
         0         0         0         0         0         0         0         0
         0         0         0         0         0         0         0         0
         0         0         0         0         0         0         0         0
         0         0         0         0         0         0         0         0
         0         0         0         0         0         0         0         0
         0         0         0         0         0         0         0         0
         0         0         0         0         0         0         0         0
         0         0         0         0         0         0         0         0
         0         0         0         0         0         0         0         0
         0         0         0         0         0         0         0         0
         0         0         0         0         0         0         0         0
         0         0         0         0         0         0         0         0
         0         0         0         0         0         0         0         0
         0         0         0         0         0         0         0         0
         0         0         0         0         0         0         0         0
         0         0         0         0         0         0         0         0
         0         0         0         0         0         0         0         0
         0         0         0         0         0         0         0         0
         0         0         0         0         0         0         0         0
         0         0         0         0         0         0         0         0
         0         0         0         0         0         0         0         0
         0         0         0         0         0         0         0         0
         0         0         0         0         0         0         0         0
         0         0         0         0         0         0         0         0
         0         0         0         0         0         0         0         0
         0         0         0         0         0         0         0         0
         0         0         0         0         0         0         0         0
         0         0         0         0         0         0         0         0
         0         0         0         0         0         0         0         0
         0         0         0         0         0         0         0         0
         0         0         0         0         0         0         0         0
         0         0         0         0         0         0         0         0
         0         0         0         0         0         0         0         0
         0         0         0         0         0         0         0         0
         0         0         0         0         0         0         0         0
         0         0         0         0         0         0         0         0
         0         0         0         0         0         0         0         0
         0         0         0         0         0         0         0         0
         0         0         0         0         0         0         0         0
         0         0         0         0         0         0         0         0
         0         0         0         0         0         0         0         0
         0         0         0         0         0         0         0         0
         0         0         0         0         0         0         0         0
         0         0         0         0         0         0         0         0
         0         0         0         0         0         0         0         0
         0         0         0         0         0         0         0         0
         0         0         0         0         0         0         0         0
         0         0         0         0         0         0         0         0
         0         0         0         0         0         0         0         0
         0         0         0         0         0         0         0         0
         0         0         0         0         0         0         0         0
         0         0         0         0         0         0         0         0
         0         0         0         0         0         0         0         0
         0         0         0         0         0         0         0         0
         0         0         0         0         0         0         0         0
         0         0         0         0         0         0         0         0
         0         0         0         0         0         0         0         0
         0         0         0         0         0         0         0         0
         0         0         0         0         0         0         0         0
         0         0         0         0         0         0         0         0
         0         0         0         0         0         0         0         0
         0         0         0         0         0         0         0         0
         0         0         0         0         0         0         0         0
         0         0         0         0         0         0         0         0
         0         0         0         0         0         0         0         0
         0         0         0         0         0         0         0         0
         0         0         0         0         0         0         0         0
         0         0         0         0         0         0         0         0
         0         0         0         0         0         0         0         0
         0         0         0         0         0         0         0         0
         0         0         0         0         0         0         0         0
         0         0         0         0         0         0         0         0
         0         0         0         0         0         0         0         0
         0         0         0         0         0         0         0         0
         0         0         0         0         0         0         0         0
         0         0         0         0         0         0         0         0
         0         0         0         0         0         0         0         0
         0         0         0         0         0         0         0         0
         0         0         0         0         0         0         0         0
         0         0         0         0         0         0         0         0
         0         0         0         0         0         0         0         0
         0         0         0         0         0         0         0         0
         0         0         0         0         0         0         0         0
         0         0         0         0         0         0         0         0
         0         0         0         0         0         0         0         0
         0         0         0         0         0         0         0         0
         0         0         0         0         0         0         0         0
         0         0         0         0         0         0         0         0
         0         0         0         0         0         0         0         0
         0         0         0         0         0         0         0         0
         0         0         0         0         0         0         0         0
         0         0         0         0         0         0         0         0
         0         0         0         0         0         0         0         0
         0         0         0         0         0         0         0         0
         0         0         0         0         0         0         0         0
         0         0         0         0         0         0         0         0
         0         0         0         0         0         0         0         0
         0         0         0         0         0         0         0         0
         0         0         0         0         0         0         0         0
         0         0         0         0         0         0         0         0
         0         0         0         0         0         0         0         0
         0         0         0         0         0         0         0         0
         0         0         0         0         0         0         0         0
         0         0         0         0         0         0         0         0
         0         0         0         0         0         0         0         0
         0         0         0         0         0         0         0         0
         0         0         0         0         0         0         0         0
         0         0         0         0         0         0         0         0
         0         0         0         0         0         0         0         0
         0         0         0         0         0         0         0         0
         0         0         0         0         0         0         0         0
         0         0         0         0         0         0         0         0
         0         0         0         0         0         0         0         0
         0         0         0         0         0         0         0         0
         0         0         0         0         0         0         0         0
         0         0         0         0         0         0         0         0
         0         0         0         0         0         0         0         0
         0         0         0         0         0         0         0         0
         0         0         0         0         0         0         0         0
         0         0         0         0         0         0         0         0
         0         0         0         0         0         0         0         0
         0         0         0         0         0         0         0         0
         0         0         0         0         0         0         0         0
         0         0         0         0         0         0         0         0
         0         0         0         0         0         0         0         0
         0         0         0         0         0         0         0         0
         0         0         0         0         0         0         0         0
         0         0         0         0         0         0         0         0
         0         0         0         0         0         0         0         0
         0         0         0         0         0         0         0         0
         0         0         0         0         0         0         0         0
         0         0         0         0         0         0         0         0
         0         0         0         0         0         0         0         0
         0         0         0         0         0         0         0         0
         0         0         0         0         0         0         0         0
         0         0         0         0         0         0         0         0
         0         0         0         0         0         0         0         0
         0         0         0         0         0         0         0         0
         0         0         0         0         0         0         0         0
         0         0         0         0         0         0         0         0
         0         0         0         0         0         0         0         0
         0         0         0         0         0         0         0         0
         0         0         0         0         0         0         0         0
         0         0         0         0         0         0         0         0
         0         0         0         0         0         0         0         0
         0         0         0         0         0         0         0         0
         0         0         0         0         0         0         0         0
         0         0         0         0         0         0         0         0
         0         0         0         0         0         0         0         0
         0         0         0         0         0         0         0         0
         0         0         0         0         0         0         0         0
         0         0         0         0         0         0         0         0
         0         0         0         0         0         0         0         0
         0         0         0         0         0         0         0         0
         0         0         0         0         0         0         0         0
         0         0         0         0         0         0         0         0
         0         0         0         0         0         0         0         0
         0         0         0         0         0         0         0         0
         0         0         0         0         0         0         0         0
         0         0         0         0         0         0         0         0
         0         0         0         0         0         0         0         0
         0         0         0         0         0         0         0         0
         0         0         0         0         0         0         0         0
         0         0         0         0         0         0         0         0
         0         0         0         0         0         0         0         0
         0         0         0         0         0         0         0         0
         0         0         0         0         0         0         0         0
         0         0         0         0         0         0         0         0
         0         0         0         0         0         0         0         0
         0         0         0         0         0         0         0         0
         0         0         0         0         0         0         0         0
         0         0         0         0         0         0         0         0
         0         0         0         0         0         0         0         0
         0         0         0         0         0         0         0         0
         0         0         0         0         0         0         0         0
         0         0         0         0         0         0         0         0
         0         0         0         0         0         0         0         0
         0         0         0         0         0         0         0         0
         0         0         0         0         0         0         0         0
         0         0         0         0         0         0         0         0
         0         0         0         0         0         0         0         0
         0         0         0         0         0         0         0         0
         0         0         0         0         0         0         0         0
         0         0         0         0         0         0         0         0
         0         0         0         0         0         0         0         0
         0         0         0         0         0         0         0         0
         0         0         0         0         0         0         0         0
         0         0         0         0         0         0         0         0
         0         0         0         0         0         0         0         0
         0         0         0         0         0         0         0         0
         0         0         0         0         0         0         0         0
         0         0         0         0         0         0         0         0
         0         0         0         0         0         0         0         0
         0         0         0         0         0         0         0         0
         0         0         0         0         0         0         0         0
         0         0         0         0         0         0         0         0
         0         0         0         0         0         0         0         0
         0         0         0         0         0         0         0         0
         0         0         0         0         0         0         0         0
         0         0         0         0         0         0         0         0
         0         0         0         0         0         0         0         0
         0         0         0         0         0         0         0         0
         0         0         0         0         0         0         0         0
         0         0         0         0         0         0         0         0
         0         0         0         0         0         0         0         0
         0         0         0         0         0         0         0         0
         0         0         0         0         0         0         0         0
         0         0         0         0         0         0         0         0
         0         0         0         0         0         0         0         0
         0         0         0         0         0         0         0         0
         0         0         0         0         0         0         0         0
         0         0         0         0         0         0         0         0
         0         0         0         0         0         0         0         0
         0         0         0         0         0         0         0         0
         0         0         0         0         0         0         0         0
         0         0         0         0         0         0         0         0
         0         0         0         0         0         0         0         0
         0         0         0         0         0         0         0         0
         0         0         0         0         0         0         0         0
         0         0         0         0         0         0         0         0
         0         0         0         0         0         0         0         0
         0         0         0         0         0         0         0         0
         0         0         0         0         0         0         0         0
         0         0         0         0         0         0         0         0
         0         0         0         0         0         0         0         0
         0         0         0         0         0         0         0         0
         0         0         0         0         0         0         0         0
         0         0         0         0         0         0         0         0
         0         0         0         0         0         0         0         0
         0         0         0         0         0         0         0         0
         0         0         0         0         0         0         0         0
         0         0         0         0         0         0         0         0
         0         0         0         0         0         0         0         0
         0         0         0         0         0         0         0         0
         0         0         0         0         0         0         0         0
         0         0         0         0         0         0         0         0
         0         0         0         0         0         0         0         0
         0         0         0         0         0         0         0         0
         0         0         0         0         0         0         0         0
         0         0         0         0         0         0         0         0
         0         0         0         0         0         0         0         0
         0         0         0         0         0         0         0         0
         0         0         0         0         0         0         0         0
         0         0         0         0         0         0         0         0
         0         0         0         0         0         0         0         0
         0         0         0         0         0         0         0         0
         0         0         0         0         0         0         0         0
         0         0         0         0         0         0         0         0
         0         0         0         0         0         0         0         0
         0         0         0         0         0         0         0         0
         0         0         0         0         0         0         0         0
         0         0         0         0         0         0         0         0
         0         0         0         0         0         0         0         0
         0         0         0         0         0         0         0         0
         0         0         0         0         0         0         0         0
         0         0         0         0         0         0         0         0
         0         0         0         0         0         0         0         0
         0         0         0         0         0         0         0         0
         0         0         0         0         0         0         0         0
         0         0         0         0         0         0         0         0
         0         0         0         0         0         0         0         0
         0         0         0         0         0         0         0         0
         0         0         0         0         0         0         0         0
         0         0         0         0         0         0         0         0
         0         0         0         0         0         0         0         0
         0         0         0         0         0         0         0         0
         0         0         0         0         0         0         0         0
         0         0         0         0         0         0         0         0
         0         0         0         0         0         0         0         0
         0         0         0         0         0         0         0         0
         0         0         0         0         0         0         0         0
         0         0         0         0         0         0         0         0
         0         0         0         0         0         0         0         0
         0         0         0         0         0         0         0         0
         0         0         0         0         0         0         0         0
         0         0         0         0         0         0         0         0
         0         0         0         0         0         0         0         0
         0         0         0         0         0         0         0         0
         0         0         0         0         0         0         0         0
         0         0         0         0         0         0         0         0
         0         0         0         0         0         0         0         0
         0         0         0         0         0         0         0         0
         0         0         0         0         0         0         0         0
         0         0         0         0         0         0         0         0
         0         0         0         0         0         0         0         0
         0         0         0         0         0         0         0         0
         0         0         0         0         0         0         0         0
         0         0         0         0         0         0         0         0
         0         0         0         0         0         0         0         0
         0         0         0         0         0         0         0         0
         0         0         0         0         0         0         0         0
         0         0         0         0         0         0         0         0
         0         0         0         0         0         0         0         0
         0         0         0         0         0         0         0         0
         0         0         0         0         0         0         0         0
         0         0         0         0         0         0         0         0
         0         0         0         0         0         0         0         0
         0         0         0         0         0         0         0         0
         0         0         0         0         0         0         0         0
         0         0         0         0         0         0         0         0
         0         0         0         0         0         0         0         0
         0         0         0         0         0         0         0         0
         0         0         0         0         0         0         0         0
         0         0         0         0         0         0         0         0
         0         0         0         0         0         0         0         0
         0         0         0         0         0         0         0         0
         0         0         0         0         0         0         0         0
         0         0         0         0         0         0         0         0
         0         0         0         0         0         0         0         0
         0         0         0         0         0         0         0         0
         0         0         0         0         0         0         0         0
         0         0         0         0         0         0         0         0
         0         0         0         0         0         0         0         0
         0         0         0         0         0         0         0         0
         0         0         0         0         0         0         0         0
         0         0         0         0         0         0         0         0
         0         0         0         0         0         0         0         0
         0         0         0         0         0         0         0         0
         0         0         0         0         0         0         0         0
         0         0         0         0         0         0         0         0
         0         0         0         0         0         0         0         0
         0         0         0         0         0         0         0         0
         0         0         0         0         0         0         0         0
         0         0         0         0         0         0         0         0
         0         0         0         0         0         0         0         0
         0         0         0         0         0         0         0         0
         0         0         0         0         0         0         0         0
         0         0         0         0         0         0         0         0
         0         0         0         0         0         0         0         0
         0         0         0         0         0         0         0         0
         0         0         0         0         0         0         0         0
         0         0         0         0         0         0         0         0
         0         0         0         0         0         0         0         0
         0         0         0         0         0         0         0         0
         0         0         0         0         0         0         0         0
         0         0         0         0         0         0         0         0
         0         0         0         0         0         0         0         0
         0         0         0         0         0         0         0         0
         0         0         0         0         0         0         0         0
         0         0         0         0         0         0         0         0
         0         0         0         0         0         0         0         0
         0         0         0         0         0         0         0         0
         0         0         0         0         0         0         0         0
         0         0         0         0         0         0         0         0
         0         0         0         0         0         0         0         0
         0         0         0         0         0         0         0         0
         0         0         0         0         0         0         0         0
         0         0         0         0         0         0         0         0
         0         0         0         0         0         0         0         0
         0         0         0         0         0         0         0         0
         0         0         0         0         0         0         0         0
         0         0         0         0         0         0         0         0
         0         0         0         0         0         0         0         0
         0         0         0         0         0         0         0         0
         0         0         0         0         0         0         0         0
         0         0         0         0         0         0         0         0
         0         0         0         0         0         0         0         0
         0         0         0         0         0         0         0         0
         0         0         0         0         0         0         0         0
         0         0         0         0         0         0         0         0
         0         0         0         0         0         0         0         0
         0         0         0         0         0         0         0         0
         0         0         0         0         0         0         0         0
         0         0         0         0         0         0         0         0
         0         0         0         0         0         0         0         0
         0         0         0         0         0         0         0         0
         0         0         0         0         0         0         0         0
         0         0         0         0         0         0         0         0
         0         0         0         0         0         0         0         0
         0         0         0         0         0         0         0         0
         0         0         0         0         0         0         0         0
         0         0         0         0         0         0         0         0
         0         0         0         0         0         0         0         0
         0         0         0         0         0         0         0         0
         0         0         0         0         0         0         0         0
         0         0         0         0         0         0         0         0
         0         0         0         0         0         0         0         0
         0         0         0         0         0         0         0         0
         0         0         0         0         0         0         0         0
         0         0         0         0         0         0         0         0
         0         0         0         0         0         0         0         0
         0         0         0         0         0         0         0         0
         0         0         0         0         0         0         0         0
         0         0         0         0         0         0         0         0
         0         0         0         0         0         0         0         0
         0         0         0         0         0         0         0         0
         0         0         0         0         0         0         0         0
         0         0         0         0         0         0         0         0
         0         0         0         0         0         0         0         0
         0         0         0         0         0         0         0         0
         0         0         0         0         0         0         0         0
         0         0         0         0         0         0         0         0
         0         0         0         0         0         0         0         0
         0         0         0         0         0         0         0         0
         0         0         0         0         0         0         0         0
         0         0         0         0         0         0         0         0
         0         0         0         0         0         0         0         0
         0         0         0         0         0         0         0         0
         0         0         0         0         0         0         0         0
         0         0         0         0         0         0         0         0
         0         0         0         0         0         0         0         0
         0         0         0         0         0         0         0         0
         0         0         0         0         0         0         0         0
         0         0         0         0         0         0         0         0
         0         0         0         0         0         0         0         0
         0         0         0         0         0         0         0         0
         0         0         0         0         0         0         0         0
         0         0         0         0         0         0         0         0
         0         0         0         0         0         0         0         0
         0         0         0         0         0         0         0         0
         0         0         0         0         0         0         0         0
         0         0         0         0         0         0         0         0
         0         0         0         0         0         0         0         0
         0         0         0         0         0         0         0         0
         0         0         0         0         0         0         0         0
         0         0         0         0         0         0         0         0
         0         0         0         0         0         0         0         0
         0         0         0         0         0         0         0         0
         0         0         0         0         0         0         0         0
         0         0         0         0         0         0         0         0
         0         0         0         0         0         0         0         0
         0         0         0         0         0         0         0         0
         0         0         0         0         0         0         0         0
         0         0         0         0         0         0         0         0
         0         0         0         0         0         0         0         0
         0         0         0         0         0         0         0         0
         0         0         0         0         0         0         0         0
         0         0         0         0         0         0         0         0
         0         0         0         0         0         0         0         0
         0         0         0         0         0         0         0         0
         0         0         0         0         0         0         0         0
         0         0         0         0         0         0         0         0
         0         0         0         0         0         0         0         0
         0         0         0         0         0         0         0         0
         0         0         0         0         0         0         0         0
         0         0         0         0         0         0         0         0
         0         0         0         0         0         0         0         0
         0         0         0         0         0         0         0         0
         0         0         0         0         0         0         0         0
         0         0         0         0         0         0         0         0
         0         0         0         0         0         0         0         0
         0         0         0         0         0         0         0         0
         0         0         0         0         0         0         0         0
         0         0         0         0         0         0         0         0
         0         0         0         0         0         0         0         0
         0         0         0         0         0         0         0         0
         0         0         0         0         0         0         0         0
         0         0         0         0         0         0         0         0
         0         0         0         0         0         0         0         0
         0         0         0         0         0         0         0         0
         0         0         0         0         0         0         0         0
         0         0         0         0         0         0         0         0
         0         0         0         0         0         0         0         0
         0         0         0         0         0         0         0         0
         0         0         0         0         0         0         0         0
         0         0         0         0         0         0         0         0
         0         0         0         0         0         0         0         0
         0         0         0         0         0         0         0         0
         0         0         0         0         0         0         0         0
         0         0         0         0         0         0         0         0
         0         0         0         0         0         0         0         0
         0         0         0         0         0         0         0         0
         0         0         0         0         0         0         0         0
         0         0         0         0         0         0         0         0
         0         0         0         0         0         0         0         0
         0         0         0         0         0         0         0         0
         0         0         0         0         0         0         0         0
         0         0         0         0         0         0         0         0
         0         0         0         0         0         0         0         0
         0         0         0         0         0         0         0         0
         0         0         0         0         0         0         0         0
         0         0         0         0         0         0         0         0
         0         0         0         0         0         0         0         0
         0         0         0         0         0         0         0         0
         0         0         0         0         0         0         0         0
         0         0         0         0         0         0         0         0
         0         0         0         0         0         0         0         0
         0         0         0         0         0         0         0         0
         0         0         0         0         0         0         0         0
         0         0         0         0         0         0         0         0
         0         0         0         0         0         0         0         0
         0         0         0         0         0         0         0         0
         0         0         0         0         0         0         0         0
         0         0         0         0         0         0         0         0
         0         0         0         0         0         0         0         0
         0         0         0         0         0         0         0         0
         0         0         0         0         0         0         0         0
         0         0         0         0         0         0         0         0
         0         0         0         0         0         0         0         0
         0         0         0         0         0         0         0         0
         0         0         0         0         0         0         0         0
         0         0         0         0         0         0         0         0
         0         0         0         0         0         0         0         0
         0         0         0         0         0         0         0         0
         0         0         0         0         0         0         0         0
         0         0         0         0         0         0         0         0
         0         0         0         0         0         0         0         0
         0         0         0         0         0         0         0         0
         0         0         0         0         0         0         0         0
         0         0         0         0         0         0         0         0
         0         0         0         0         0         0         0         0
         0         0         0         0         0         0         0         0
         0         0         0         0         0         0         0         0
         0         0         0         0         0         0         0         0
         0         0         0         0         0         0         0         0
         0         0         0         0         0         0         0         0
         0         0         0         0         0         0         0         0
         0         0         0         0         0         0         0         0
         0         0         0         0         0         0         0         0
         0         0         0         0         0         0         0         0
         0         0         0         0         0         0         0         0
         0         0         0         0         0         0         0         0
         0         0         0         0         0         0         0         0
         0         0         0         0         0         0         0         0
         0         0         0         0         0         0         0         0
         0         0         0         0         0         0         0         0
         0         0         0         0         0         0         0         0
         0         0         0         0         0         0         0         0
         0         0         0         0         0         0         0         0
         0         0         0         0         0         0         0         0
         0         0         0         0         0         0         0         0
         0         0         0         0         0         0         0         0
         0         0         0         0         0         0         0         0
         0         0         0         0         0         0         0         0
         0         0         0         0         0         0         0         0
         0         0         0         0         0         0         0         0
         0         0         0         0         0         0         0         0
         0         0         0         0         0         0         0         0
         0         0         0         0         0         0         0         0
         0         0         0         0         0         0         0         0
         0         0         0         0         0         0         0         0
         0         0         0         0         0         0         0         0
         0         0         0         0         0         0         0         0
         0         0         0         0         0         0         0         0
         0         0         0         0         0         0         0         0
         0         0         0         0         0         0         0         0
         0         0         0         0         0         0         0         0
         0         0         0         0         0         0         0         0
         0         0         0         0         0         0         0         0
         0         0         0         0         0         0         0         0
         0         0         0         0         0         0         0         0
         0         0         0         0         0         0         0         0
         0         0         0         0         0         0         0         0
         0         0         0         0         0         0         0         0
         0         0         0         0         0         0         0         0
         0         0         0         0         0         0         0         0
         0         0         0         0         0         0         0         0
         0         0         0         0         0         0         0         0
         0         0         0         0         0         0         0         0
         0         0         0         0         0         0         0         0
         0         0         0         0         0         0         0         0
         0         0         0         0         0         0         0         0
         0         0         0         0         0         0         0         0
         0         0         0         0         0         0         0         0
         0         0         0         0         0         0         0         0
         0         0         0         0         0         0         0         0
         0         0         0         0         0         0         0         0
         0         0         0         0         0         0         0         0
         0         0         0         0         0         0         0         0
         0         0         0         0         0         0         0         0
         0         0         0         0         0         0         0         0
         0         0         0         0         0         0         0         0
         0         0         0         0         0         0         0         0
         0         0         0         0         0         0         0         0
         0         0         0         0         0         0         0         0
         0         0         0         0         0         0         0         0
         0         0         0         0         0         0         0         0
         0         0         0         0         0         0         0         0
         0         0         0         0         0         0         0         0
         0         0         0         0         0         0         0         0
         0         0         0         0         0         0         0         0
         0         0         0         0         0         0         0         0
         0         0         0         0         0         0         0         0
         0         0         0         0         0         0         0         0
         0         0         0         0         0         0         0         0
         0         0         0         0         0         0         0         0
         0         0         0         0         0         0         0         0
         0         0         0         0         0         0         0         0
         0         0         0         0         0         0         0         0
         0         0         0         0         0         0         0         0
         0         0         0         0         0         0         0         0
         0         0         0         0         0         0         0         0
         0         0         0         0         0         0         0         0
         0         0         0         0         0         0         0         0
         0         0         0         0         0         0         0         0
         0         0         0         0         0         0         0         0
         0         0         0         0         0         0         0         0
         0         0         0         0         0         0         0         0
         0         0         0         0         0         0         0         0
         0         0         0         0         0         0         0         0
         0         0         0         0         0         0         0         0
         0         0         0         0         0         0         0         0
         0         0         0         0         0         0         0         0
         0         0         0         0         0         0         0         0
         0         0         0         0         0         0         0         0
         0         0         0         0         0         0         0         0
         0         0         0         0         0         0         0         0
         0         0         0         0         0         0         0         0
         0         0         0         0         0         0         0         0
         0         0         0         0         0         0         0         0
         0         0         0         0         0         0         0         0
         0         0         0         0         0         0         0         0
         0         0         0         0         0         0         0         0
         0         0         0         0         0         0         0         0
         0         0         0         0         0         0         0         0
         0         0         0         0         0         0         0         0
         0         0         0         0         0         0         0         0
         0         0         0         0         0         0         0         0
         0         0         0         0         0         0         0         0
         0         0         0         0         0         0         0         0
         0         0         0         0         0         0         0         0
         0         0         0         0         0         0         0         0
         0         0         0         0         0         0         0         0
         0         0         0         0         0         0         0         0
         0         0         0         0         0         0         0         0
         0         0         0         0         0         0         0         0
         0         0         0         0         0         0         0         0
         0         0         0         0         0         0         0         0
         0         0         0         0         0         0         0         0
         0         0         0         0         0         0         0         0
         0         0         0         0         0         0         0         0
         0         0         0         0         0         0         0         0
         0         0         0         0         0         0         0         0
         0         0         0         0         0         0         0         0
         0         0         0         0         0         0         0         0
         0         0         0         0         0         0         0         0
         0         0         0         0         0         0         0         0
         0         0         0         0         0         0         0         0
         0         0         0         0         0         0         0         0
         0         0         0         0         0         0         0         0
         0         0         0         0         0         0         0         0
         0         0         0         0         0         0         0         0
         0         0         0         0         0         0         0         0
         0         0         0         0         0         0         0         0
         0         0         0         0         0         0         0         0
         0         0         0         0         0         0         0         0
         0         0         0         0         0         0         0         0
         0         0         0         0         0         0         0         0
         0         0         0         0         0         0         0         0
         0         0         0         0         0         0         0         0
         0         0         0         0         0         0         0         0
         0         0         0         0         0         0         0         0
         0         0         0         0         0         0         0         0
         0         0         0         0         0         0         0         0
         0         0         0         0         0         0         0         0
         0         0         0         0         0         0         0         0
         0         0         0         0         0         0         0         0
         0         0         0         0         0         0         0         0
         0         0         0         0         0         0         0         0
         0         0         0         0         0         0         0         0
         0         0         0         0         0         0         0         0
         0         0         0         0         0         0         0         0
         0         0         0         0         0         0         0         0
         0         0         0         0         0         0         0         0
         0         0         0         0         0         0         0         0
         0         0         0         0         0         0         0         0
         0         0         0         0         0         0         0         0
         0         0         0         0         0         0         0         0
         0         0         0         0         0         0         0         0
         0         0         0         0         0         0         0         0
         0         0         0         0         0         0         0         0
         0         0         0         0         0         0         0         0
         0         0         0         0         0         0         0         0
         0         0         0         0         0         0         0         0
         0         0         0         0         0         0         0         0
         0         0         0         0         0         0         0         0
         0         0         0         0         0         0         0         0
         0         0         0         0         0         0         0         0
         0         0         0         0         0         0         0         0
         0         0         0         0         0         0         0         0
         0         0         0         0         0         0         0         0
         0         0         0         0         0         0         0         0
         0         0         0         0         0         0         0         0
         0         0         0         0         0         0         0         0
         0         0         0         0         0         0         0         0
         0         0         0         0         0         0         0         0
         0         0         0         0         0         0         0         0
         0         0         0         0         0         0         0         0
         0         0         0         0         0         0         0         0
         0         0         0         0         0         0         0         0
         0         0         0         0         0         0         0         0
         0         0         0         0         0         0         0         0
         0         0         0         0         0         0         0         0
         0         0         0         0         0         0         0         0
         0         0         0         0         0         0         0         0
         0         0         0         0         0         0         0         0
         0         0         0         0         0         0         0         0
         0         0         0         0         0         0         0         0
         0         0         0         0         0         0         0         0
         0         0         0         0         0         0         0         0
         0         0         0         0         0         0         0         0
         0         0         0         0         0         0         0         0
         0         0         0         0         0         0         0         0
         0         0         0         0         0         0         0         0
         0         0         0         0         0         0         0         0
         0         0         0         0         0         0         0         0
         0         0         0         0         0         0         0         0
         0         0         0         0         0         0         0         0
         0         0         0         0         0         0         0         0
         0         0         0         0         0         0         0         0
         0         0         0         0         0         0         0         0
         0         0         0         0         0         0         0         0
         0         0         0         0         0         0         0         0
         0         0         0         0         0         0         0         0
         0         0         0         0         0         0         0         0
         0         0         0         0         0         0         0         0
         0         0         0         0         0         0         0         0
         0         0         0         0         0         0         0         0
         0         0         0         0         0         0         0         0
         0         0         0         0         0         0         0         0
         0         0         0         0         0         0         0         0
         0         0         0         0         0         0         0         0
         0         0         0         0         0         0         0         0
         0         0         0         0         0         0         0         0
         0         0         0         0         0         0         0         0
         0         0         0         0         0         0         0         0
         0         0         0         0         0         0         0         0
         0         0         0         0         0         0         0         0
         0         0         0         0         0         0         0         0
         0         0         0         0         0         0         0         0
         0         0         0         0         0         0         0         0
         0         0         0         0         0         0         0         0
         0         0         0         0         0         0         0         0
         0         0         0         0         0         0         0         0
         0         0         0         0         0         0         0         0
         0         0         0         0         0         0         0         0
         0         0         0         0         0         0         0         0
         0         0         0         0         0         0         0         0
         0         0         0         0         0         0         0         0
         0         0         0         0         0         0         0         0
         0         0         0         0         0         0         0         0
         0         0         0         0         0         0         0         0
         0         0         0         0         0         0         0         0
         0         0         0         0         0         0         0         0
         0         0         0         0         0         0         0         0
         0         0         0         0         0         0         0         0
         0         0         0         0         0         0         0         0
         0         0         0         0         0         0         0         0
         0         0         0         0         0         0         0         0
         0         0         0         0         0         0         0         0
         0         0         0         0         0         0         0         0
         0         0         0         0         0         0         0         0
         0         0         0         0         0         0         0         0
         0         0         0         0         0         0         0         0
         0         0         0         0         0         0         0         0
         0         0         0         0         0         0         0         0
         0         0         0         0         0         0         0         0
         0         0         0         0         0         0         0         0
         0         0         0         0         0         0         0         0
         0         0         0         0         0         0         0         0
         0         0         0         0         0         0         0         0
         0         0         0         0         0         0         0         0
         0         0         0         0         0         0         0         0
         0         0         0         0         0         0         0         0
         0         0         0         0         0         0         0         0
         0         0         0         0         0         0         0         0
         0         0         0         0         0         0         0         0
         0         0         0         0         0         0         0         0
         0         0         0         0         0         0         0         0
         0         0         0         0         0         0         0         0
         0         0         0         0         0         0         0         0
         0         0         0         0         0         0         0         0
         0         0         0         0         0         0         0         0
         0         0         0         0         0         0         0         0
         0         0         0         0         0         0         0         0
         0         0         0         0         0         0         0         0
         0         0         0         0         0         0         0         0
         0         0         0         0         0         0         0         0
         0         0         0         0         0         0         0         0
         0         0         0         0         0         0         0         0
         0         0         0         0         0         0         0         0
         0         0         0         0         0         0         0         0
         0         0         0         0         0         0         0         0
         0         0         0         0         0         0         0         0
         0         0         0         0         0         0         0         0
         0         0         0         0         0         0         0         0
         0         0         0         0         0         0         0         0
         0         0         0         0         0         0         0         0
         0         0         0         0         0         0         0         0
         0         0         0         0         0         0         0         0
         0         0         0         0         0         0         0         0
         0         0         0         0         0         0         0         0
         0         0         0         0         0         0         0         0
         0         0         0         0         0         0         0         0
         0         0         0         0         0         0         0         0
         0         0         0         0         0         0         0         0
         0         0         0         0         0         0         0         0
         0         0         0         0         0         0         0         0
         0         0         0         0         0         0         0         0
         0         0         0         0         0         0         0         0
         0         0         0         0         0         0         0         0
         0         0         0         0         0         0         0         0
         0         0         0         0         0         0         0         0
         0         0         0         0         0         0         0         0
         0         0         0         0         0         0         0         0
         0         0         0         0         0         0         0         0
         0         0         0         0         0         0         0         0
         0         0         0         0         0         0         0         0
         0         0         0         0         0         0         0         0
         0         0         0         0         0         0         0         0
         0         0         0         0         0         0         0         0
         0         0         0         0         0         0         0         0
         0         0         0         0         0         0         0         0
         0         0         0         0         0         0         0         0
         0         0         0         0         0         0         0         0
         0         0         0         0         0         0         0         0
         0         0         0         0         0         0         0         0
         0         0         0         0         0         0         0         0
         0         0         0         0         0         0         0         0
         0         0         0         0         0         0         0         0
         0         0         0         0         0         0         0         0
         0         0         0         0         0         0         0         0
         0         0         0         0         0         0         0         0
         0         0         0         0         0         0         0         0
         0         0         0         0         0         0         0         0
         0         0         0         0         0         0         0         0
         0         0         0         0         0         0         0         0
         0         0         0         0         0         0         0         0
         0         0         0         0         0         0         0         0
         0         0         0         0         0         0         0         0
         0         0         0         0         0         0         0         0
         0         0         0         0         0         0         0         0
         0         0         0         0         0         0         0         0
         0         0         0         0         0         0         0         0
         0         0         0         0         0         0         0         0
         0         0         0         0         0         0         0         0
         0         0         0         0         0         0         0         0
         0         0         0         0         0         0         0         0
         0         0         0         0         0         0         0         0
         0         0         0         0         0         0         0         0
         0         0         0         0         0         0         0         0
         0         0         0         0         0         0         0         0
         0         0         0         0         0         0         0         0
         0         0         0         0         0         0         0         0
         0         0         0         0         0         0         0         0
         0         0         0         0         0         0         0         0
         0         0         0         0         0         0         0         0
         0         0         0         0         0         0         0         0
         0         0         0         0         0         0         0         0
         0         0         0         0         0         0         0         0
         0         0         0         0         0         0         0         0
         0         0         0         0         0         0         0         0
         0         0         0         0         0         0         0         0
         0         0         0         0         0         0         0         0
         0         0         0         0         0         0         0         0
         0         0         0         0         0         0         0         0
         0         0         0         0         0         0         0         0
         0         0         0         0         0         0         0         0
         0         0         0         0         0         0         0         0
         0         0         0         0         0         0         0         0
         0         0         0         0         0         0         0         0
         0         0         0         0         0         0         0         0
         0         0         0         0         0         0         0         0
         0         0         0         0         0         0         0         0
         0         0         0         0         0         0         0         0
         0         0         0         0         0         0         0         0
         0         0         0         0         0         0         0         0
         0         0         0         0         0         0         0         0
         0         0         0         0         0         0         0         0
         0         0         0         0         0         0         0         0
         0         0         0         0         0         0         0         0
         0         0         0         0         0         0         0         0
         0         0         0         0         0         0         0         0
         0         0         0         0         0         0         0         0
         0         0         0         0         0         0         0         0
         0         0         0         0         0         0         0         0
         0         0         0         0         0         0         0         0
         0         0         0         0         0         0         0         0
         0         0         0         0         0         0         0         0
         0         0         0         0         0         0         0         0
         0         0         0         0         0         0         0         0
         0         0         0         0         0         0         0         0
         0         0         0         0         0         0         0         0
         0         0         0         0         0         0         0         0
         0         0         0         0         0         0         0         0
         0         0         0         0         0         0         0         0
         0         0         0         0         0         0         0         0
         0         0         0         0         0         0         0         0
         0         0         0         0         0         0         0         0
         0         0         0         0         0         0         0         0
         0         0         0         0         0         0         0         0
         0         0         0         0         0         0         0         0
         0         0         0         0         0         0         0         0
         0         0         0         0         0         0         0         0
         0         0         0         0         0         0         0         0
         0         0         0         0         0         0         0         0
         0         0         0         0         0         0         0         0
         0         0         0         0         0         0         0         0
         0         0         0         0         0         0         0         0
         0         0         0         0         0         0         0         0
         0         0         0         0         0         0         0         0
         0         0         0         0         0         0         0         0
         0         0         0         0         0         0         0         0
         0         0         0         0         0         0         0         0
         0         0         0         0         0         0         0         0
         0         0         0         0         0         0         0         0
         0         0         0         0         0         0         0         0
         0         0         0         0         0         0         0         0
         0         0         0         0         0         0         0         0
         0         0         0         0         0         0         0         0
         0         0         0         0         0         0         0         0
         0         0         0         0         0         0         0         0
         0         0         0         0         0         0         0         0
         0         0         0         0         0         0         0         0
         0         0         0         0         0         0         0         0
         0         0         0         0         0         0         0         0
         0         0         0         0         0         0         0         0
         0         0         0         0         0         0         0         0
         0         0         0         0         0         0         0         0
         0         0         0         0         0         0         0         0
         0         0         0         0         0         0         0         0
         0         0         0         0         0         0         0         0
         0         0         0         0         0         0         0         0
         0         0         0         0         0         0         0         0
         0         0         0         0         0         0         0         0
         0         0         0         0         0         0         0         0
         0         0         0         0         0         0         0         0
         0         0         0         0         0         0         0         0
         0         0         0         0         0         0         0         0
         0         0         0         0         0         0         0         0
         0         0         0         0         0         0         0         0
         0         0         0         0         0         0         0         0
         0         0         0         0         0         0         0         0
         0         0         0         0         0         0         0         0
         0         0         0         0         0         0         0         0
         0         0         0         0         0         0         0         0
         0         0         0         0         0         0         0         0
         0         0         0         0         0         0         0         0
         0         0         0         0         0         0         0         0
         0         0         0         0         0         0         0         0
         0         0         0         0         0         0         0         0
         0         0         0         0         0         0         0         0
         0         0         0         0         0         0         0         0
         0         0         0         0         0         0         0         0
         0         0         0         0         0         0         0         0
         0         0         0         0         0         0         0         0
         0         0         0         0         0         0         0         0
         0         0         0         0         0         0         0         0
         0         0         0         0         0         0         0         0
         0         0         0         0         0         0         0         0
         0         0         0         0         0         0         0         0
         0         0         0         0         0         0         0         0
         0         0         0         0         0         0         0         0
         0         0         0         0         0         0         0         0
         0         0         0         0         0         0         0         0
         0         0         0         0         0         0         0         0
         0         0         0         0         0         0         0         0
         0         0         0         0         0         0         0         0
         0         0         0         0         0         0         0         0
         0         0         0         0         0         0         0         0
         0         0         0         0         0         0         0         0
         0         0         0         0         0         0         0         0
         0         0         0         0         0         0         0         0
         0         0         0         0         0         0         0         0
         0         0         0         0         0         0         0         0
         0         0         0         0         0         0         0         0
         0         0         0         0         0         0         0         0
         0         0         0         0         0         0         0         0
         0         0         0         0         0         0         0         0
         0         0         0         0         0         0         0         0
         0         0         0         0         0         0         0         0
         0         0         0         0         0         0         0         0
         0         0         0         0         0         0         0         0
         0         0         0         0         0         0         0         0
         0         0         0         0         0         0         0         0
         0         0         0         0         0         0         0         0
         0         0         0         0         0         0         0         0
         0         0         0         0         0         0         0         0
         0         0         0         0         0         0         0         0
         0         0         0         0         0         0         0         0
         0         0         0         0         0         0         0         0
         0         0         0         0         0         0         0         0
         0         0         0         0         0         0         0         0
         0         0         0         0         0         0         0         0
         0         0         0         0         0         0         0         0
         0         0         0         0         0         0         0         0
         0         0         0         0         0         0         0         0
         0         0         0         0         0         0         0         0
         0         0         0         0         0         0         0         0
         0         0         0         0         0         0         0         0
         0         0         0         0         0         0         0         0
         0         0         0         0         0         0         0         0
         0         0         0         0         0         0         0         0
         0         0         0         0         0         0         0         0
         0         0         0         0         0         0         0         0
         0         0         0         0         0         0         0         0
         0         0         0         0         0         0         0         0
         0         0         0         0         0         0         0         0
         0         0         0         0         0         0         0         0
         0         0         0         0         0         0         0         0
         0         0         0         0         0         0         0         0
         0         0         0         0         0         0         0         0
         0         0         0         0         0         0         0         0
         0         0         0         0         0         0         0         0
         0         0         0         0         0         0         0         0
         0         0         0         0         0         0         0         0
         0         0         0         0         0         0         0         0
         0         0         0         0         0         0         0         0
         0         0         0         0         0         0         0         0
         0         0         0         0         0         0         0         0
         0         0         0         0         0         0         0         0
         0         0         0         0         0         0         0         0
         0         0         0         0         0         0         0         0
         0         0         0         0         0         0         0         0
         0         0         0         0         0         0         0         0
         0         0         0         0         0         0         0         0
         0         0         0         0         0         0         0         0
         0         0         0         0         0         0         0         0
         0         0         0         0         0         0         0         0
         0         0         0         0         0         0         0         0
         0         0         0         0         0         0         0         0
         0         0         0         0         0         0         0         0
         0         0         0         0         0         0         0         0
         0         0         0         0         0         0         0         0
         0         0         0         0         0         0         0         0
         0         0         0         0         0         0         0         0
         0         0         0         0         0         0         0         0
         0         0         0         0         0         0         0         0
         0         0         0         0         0         0         0         0
         0         0         0         0         0         0         0         0
         0         0         0         0         0         0         0         0
         0         0         0         0         0         0         0         0
         0         0         0         0         0         0         0         0
         0         0         0         0         0         0         0         0
         0         0         0         0         0         0         0         0
         0         0         0         0         0         0         0         0
         0         0         0         0         0         0         0         0
         0         0         0         0         0         0         0         0
         0         0         0         0         0         0         0         0
         0         0         0         0         0         0         0         0
         0         0         0         0         0         0         0         0
         0         0         0         0         0         0         0         0
         0         0         0         0         0         0         0         0
         0         0         0         0         0         0         0         0
         0         0         0         0         0         0         0         0
         0         0         0         0         0         0         0         0
         0         0         0         0         0         0         0         0
         0         0         0         0         0         0         0         0
         0         0         0         0         0         0         0         0
         0         0         0         0         0         0         0         0
         0         0         0         0         0         0         0         0
         0         0         0         0         0         0         0         0
         0         0         0         0         0         0         0         0
         0         0         0         0         0         0         0         0
         0         0         0         0         0         0         0         0
         0         0         0         0         0         0         0         0
         0         0         0         0         0         0         0         0
         0         0         0         0         0         0         0         0
         0         0         0         0         0         0         0         0
         0         0         0         0         0         0         0         0
         0         0         0         0         0         0         0         0
         0         0         0         0         0         0         0         0
         0         0         0         0         0         0         0         0
         0         0         0         0         0         0         0         0
         0         0         0         0         0         0         0         0
         0         0         0         0         0         0         0         0
         0         0         0         0         0         0         0         0
         0         0         0         0         0         0         0         0
         0         0         0         0         0         0         0         0
         0         0         0         0         0         0         0         0
         0         0         0         0         0         0         0         0
         0         0         0         0         0         0         0         0
         0         0         0         0         0         0         0         0
         0         0         0         0         0         0         0         0
         0         0         0         0         0         0         0         0
         0         0         0         0         0         0         0         0
         0         0         0         0         0         0         0         0
         0         0         0         0         0         0         0         0
         0         0         0         0         0         0         0         0
         0         0         0         0         0         0         0         0
         0         0         0         0         0         0         0         0
         0         0         0         0         0         0         0         0
         0         0         0         0         0         0         0         0
         0         0         0         0         0         0         0         0
         0         0         0         0         0         0         0         0
         0         0         0         0         0         0         0         0
         0         0         0         0         0         0         0         0
         0         0         0         0         0         0         0         0
         0         0         0         0         0         0         0         0
         0         0         0         0         0         0         0         0
         0         0         0         0         0         0         0         0
         0         0         0         0         0         0         0         0
         0         0         0         0         0         0         0         0
         0         0         0         0         0         0         0         0
         0         0         0         0         0         0         0         0
         0         0         0         0         0         0         0         0
         0         0         0         0         0         0         0         0
         0         0         0         0         0         0         0         0
         0         0         0         0         0         0         0         0
         0         0         0         0         0         0         0         0
         0         0         0         0         0         0         0         0
         0         0         0         0         0         0         0         0
         0         0         0         0         0         0         0         0
         0         0         0         0         0         0         0         0
         0         0         0         0         0         0         0         0
         0         0         0         0         0         0         0         0
         0         0         0         0         0         0         0         0
         0         0         0         0         0         0         0         0
         0         0         0         0         0         0         0         0
         0         0         0         0         0         0         0         0
         0         0         0         0         0         0         0         0
         0         0         0         0         0         0         0         0
         0         0         0         0         0         0         0         0
         0         0         0         0         0         0         0         0
         0         0         0         0         0         0         0         0
         0         0         0         0         0         0         0         0
         0         0         0         0         0         0         0         0
         0         0         0         0         0         0         0         0
         0         0         0         0         0         0         0         0
         0         0         0         0         0         0         0         0
         0         0         0         0         0         0         0         0
         0         0         0         0         0         0         0         0
         0         0         0         0         0         0         0         0
         0         0         0         0         0         0         0         0
         0         0         0         0         0         0         0         0
         0         0         0         0         0         0         0         0
         0         0         0         0         0         0         0         0
         0         0         0         0         0         0         0         0
         0         0         0         0         0         0         0         0
         0         0         0         0         0         0         0         0
         0         0         0         0         0         0         0         0
         0         0         0         0         0         0         0         0
         0         0         0         0         0         0         0         0
         0         0         0         0         0         0         0         0
         0         0         0         0         0         0         0         0
         0         0         0         0         0         0         0         0
         0         0         0         0         0         0         0         0
         0         0         0         0         0         0         0         0
         0         0         0         0         0         0         0         0
         0         0         0         0         0         0         0         0
         0         0         0         0         0         0         0         0
         0         0         0         0         0         0         0         0
         0         0         0         0         0         0         0         0
         0         0         0         0         0         0         0         0
         0         0         0         0         0         0         0         0
         0         0         0         0         0         0         0         0
         0         0         0         0         0         0         0         0
         0         0         0         0         0         0         0         0
         0         0         0         0         0         0         0         0
         0         0         0         0         0         0         0         0
         0         0         0         0         0         0         0         0
         0         0         0         0         0         0         0         0
         0         0         0         0         0         0         0         0
         0         0         0         0         0         0         0         0
         0         0         0         0         0         0         0         0
         0         0         0         0         0         0         0         0
         0         0         0         0         0         0         0         0
         0         0         0         0         0         0         0         0
         0         0         0         0         0         0         0         0
         0         0         0         0         0         0         0         0
         0         0         0         0         0         0         0         0
         0         0         0         0         0         0         0         0
         0         0         0         0         0         0         0         0
         0         0         0         0         0         0         0         0
         0         0         0         0         0         0         0         0
         0         0         0         0         0         0         0         0
         0         0         0         0         0         0         0         0
         0         0         0         0         0         0         0         0
         0         0         0         0         0         0         0         0
         0         0         0         0         0         0         0         0
         0         0         0         0         0         0         0         0
         0         0         0         0         0         0         0         0
         0         0         0         0         0         0         0         0
         0         0         0         0         0         0         0         0
         0         0         0         0         0         0         0         0
         0         0         0         0         0         0         0         0
         0         0         0         0         0         0         0         0
         0         0         0         0         0         0         0         0
         0         0         0         0         0         0         0         0
         0         0         0         0         0         0         0         0
         0         0         0         0         0         0         0         0
         0         0         0         0         0         0         0         0
         0         0         0         0         0         0         0         0
         0         0         0         0         0         0         0         0
         0         0         0         0         0         0         0         0
         0         0         0         0         0         0         0         0
         0         0         0         0         0         0         0         0
         0         0         0         0         0         0         0         0
         0         0         0         0         0         0         0         0
         0         0         0         0         0         0         0         0
         0         0         0         0         0         0         0         0
         0         0         0         0         0         0         0         0
         0         0         0         0         0         0         0         0
         0         0         0         0         0         0         0         0
         0         0         0         0         0         0         0         0
         0         0         0         0         0         0         0         0
         0         0         0         0         0         0         0         0
         0         0         0         0         0         0         0         0
         0         0         0         0         0         0         0         0
         0         0         0         0         0         0         0         0
         0         0         0         0         0         0         0         0
         0         0         0         0         0         0         0         0
         0         0         0         0         0         0         0         0
         0         0         0         0         0         0         0         0
         0         0         0         0         0         0         0         0
         0         0         0         0         0         0         0         0
         0         0         0         0         0         0         0         0
         0         0         0         0         0         0         0         0
         0         0         0         0         0         0         0         0
         0         0         0         0         0         0         0         0
         0         0         0         0         0         0         0         0
         0         0         0         0         0         0         0         0
         0         0         0         0         0         0         0         0
         0         0         0         0         0         0         0         0
         0         0         0         0         0         0         0         0
         0         0         0         0         0         0         0         0
         0         0         0         0         0         0         0         0
         0         0         0         0         0         0         0         0
         0         0         0         0         0         0         0         0
         0         0         0         0         0         0         0         0
         0         0         0         0         0         0         0         0
         0         0         0         0         0         0         0         0
         0         0         0         0         0         0         0         0
         0         0         0         0         0         0         0         0
         0         0         0         0         0         0         0         0
         0         0         0         0         0         0         0         0
         0         0         0         0         0         0         0         0
         0         0         0         0         0         0         0         0
         0         0         0         0         0         0         0         0
         0         0         0         0         0         0         0         0
         0         0         0         0         0         0         0         0
         0         0         0         0         0         0         0         0
         0         0         0         0         0         0         0         0
         0         0         0         0         0         0         0         0
         0         0         0         0         0         0         0         0
         0         0         0         0         0         0         0         0
         0         0         0         0         0         0         0         0
         0         0         0         0         0         0         0         0
         0         0         0         0         0         0         0         0
         0         0         0         0         0         0         0         0
         0         0         0         0         0         0         0         0
         0         0         0         0         0         0         0         0
         0         0         0         0         0         0         0         0
         0         0         0         0         0         0         0         0
         0         0         0         0         0         0         0         0
         0         0         0         0         0         0         0         0
         0         0         0         0         0         0         0         0
         0         0         0         0         0         0         0         0
         0         0         0         0         0         0         0         0
         0         0         0         0         0         0         0         0
         0         0         0         0         0         0         0         0
         0         0         0         0         0         0         0         0
         0         0         0         0         0         0         0         0
         0         0         0         0         0         0         0         0
         0         0         0         0         0         0         0         0
         0         0         0         0         0         0         0         0
         0         0         0         0         0         0         0         0
         0         0         0         0         0         0         0         0
         0         0         0         0         0         0         0         0
         0         0         0         0         0         0         0         0
         0         0         0         0         0         0         0         0
         0         0         0         0         0         0         0         0
         0         0         0         0         0         0         0         0
         0         0         0         0         0         0         0         0
         0         0         0         0         0         0         0         0
         0         0         0         0         0         0         0         0
         0         0         0         0         0         0         0         0
         0         0         0         0         0         0         0         0
         0         0         0         0         0         0         0         0
         0         0         0         0         0         0         0         0
         0         0         0         0         0         0         0         0
         0         0         0         0         0         0         0         0
         0         0         0         0         0         0         0         0
         0         0         0         0         0         0         0         0
         0         0         0         0         0         0         0         0
         0         0         0         0         0         0         0         0
         0         0         0         0         0         0         0         0
         0         0         0         0         0         0         0         0
         0         0         0         0         0         0         0         0
         0         0         0         0         0         0         0         0
         0         0         0         0         0         0         0         0
         0         0         0         0         0         0         0         0
         0         0         0         0         0         0         0         0
         0         0         0         0         0         0         0         0
         0         0         0         0         0         0         0         0
         0         0         0         0         0         0         0         0
         0         0         0         0         0         0         0         0
         0         0         0         0         0         0         0         0
         0         0         0         0         0         0         0         0
         0         0         0         0         0         0         0         0
         0         0         0         0         0         0         0         0
         0         0         0         0         0         0         0         0
         0         0         0         0         0         0         0         0
         0         0         0         0         0         0         0         0
         0         0         0         0         0         0         0         0
         0         0         0         0         0         0         0         0
         0         0         0         0         0         0         0         0
         0         0         0         0         0         0         0         0
         0         0         0         0         0         0         0         0
         0         0         0         0         0         0         0         0
         0         0         0         0         0         0         0         0
         0         0         0         0         0         0         0         0
         0         0         0         0         0         0         0         0
         0         0         0         0         0         0         0         0
         0         0         0         0         0         0         0         0
         0         0         0         0         0         0         0         0
         0         0         0         0         0         0         0         0
         0         0         0         0         0         0         0         0
         0         0         0         0         0         0         0         0
         0         0         0         0         0         0         0         0
         0         0         0         0         0         0         0         0
         0         0         0         0         0         0         0         0
         0         0         0         0         0         0         0         0
         0         0         0         0         0         0         0         0
         0         0         0         0         0         0         0         0
         0         0         0         0         0         0         0         0
         0         0         0         0         0         0         0         0
         0         0         0         0         0         0         0         0
         0         0         0         0         0         0         0         0
         0         0         0         0         0         0         0         0
         0         0         0         0         0         0         0         0
         0         0         0         0         0         0         0         0
         0         0         0         0         0         0         0         0
         0         0         0         0         0         0         0         0
         0         0         0         0         0         0         0         0
         0         0         0         0         0         0         0         0
         0         0         0         0         0         0         0         0
         0         0         0         0         0         0         0         0
         0         0         0         0         0         0         0         0
         0         0         0         0         0         0         0         0
         0         0         0         0         0         0         0         0
         0         0         0         0         0         0         0         0
         0         0         0         0         0         0         0         0
         0         0         0         0         0         0         0         0
         0         0         0         0         0         0         0         0
         0         0         0         0         0         0         0         0
         0         0         0         0         0         0         0         0
         0         0         0         0         0         0         0         0
         0         0         0         0         0         0         0         0
         0         0         0         0         0         0         0         0
         0         0         0         0         0         0         0         0
         0         0         0         0         0         0         0         0
         0         0         0         0         0         0         0         0
         0         0         0         0         0         0         0         0
         0         0         0         0         0         0         0         0
         0         0         0         0         0         0         0         0
         0         0         0         0         0         0         0         0
         0         0         0         0         0         0         0         0
         0         0         0         0         0         0         0         0
         0         0         0         0         0         0         0         0
         0         0         0         0         0         0         0         0
         0         0         0         0         0         0         0         0
         0         0         0         0         0         0         0         0
         0         0         0         0         0         0         0         0
         0         0         0         0         0         0         0         0
         0         0         0         0         0         0         0         0
         0         0         0         0         0         0         0         0
         0         0         0         0         0         0         0         0
         0         0         0         0         0         0         0         0
         0         0         0         0         0         0         0         0
         0         0         0         0         0         0         0         0
         0         0         0         0         0         0         0         0
         0         0         0         0         0         0         0         0
         0         0         0         0         0         0         0         0
         0         0         0         0         0         0         0         0
         0         0         0         0         0         0         0         0
         0         0         0         0         0         0         0         0
         0         0         0         0         0         0         0         0
         0         0         0         0         0         0         0         0
         0         0         0         0         0         0         0         0
         0         0         0         0         0         0         0         0
         0         0         0         0         0         0         0         0
         0         0         0         0         0         0         0         0
         0         0         0         0         0         0         0         0
         0         0         0         0         0         0         0         0
         0         0         0         0         0         0         0         0
         0         0         0         0         0         0         0         0
         0         0         0         0         0         0         0         0
         0         0         0         0         0         0         0         0
         0         0         0         0         0         0         0         0
         0         0         0         0         0         0         0         0
         0         0         0         0         0         0         0         0
         0         0         0         0         0         0         0         0
         0         0         0         0         0         0         0         0
         0         0         0         0         0         0         0         0
         0         0         0         0         0         0         0         0
         0         0         0         0         0         0         0         0
         0         0         0         0         0         0         0         0
         0         0         0         0         0         0         0         0
         0         0         0         0         0         0         0         0
         0         0         0         0         0         0         0         0
         0         0         0         0         0         0         0         0
         0         0         0         0         0         0         0         0
         0         0         0         0         0         0         0         0
         0         0         0         0         0         0         0         0
         0         0         0         0         0         0         0         0
         0         0         0         0         0         0         0         0
         0         0         0         0         0         0         0         0
         0         0         0         0         0         0         0         0
         0         0         0         0         0         0         0         0
         0         0         0         0         0         0         0         0
         0         0         0         0         0         0         0         0
         0         0         0         0         0         0         0         0
         0         0         0         0         0         0         0         0
         0         0         0         0         0         0         0         0
         0         0         0         0         0         0         0         0
         0         0         0         0         0         0         0         0
         0         0         0         0         0         0         0         0
         0         0         0         0         0         0         0         0
         0         0         0         0         0         0         0         0
         0         0         0         0         0         0         0         0
         0         0         0         0         0         0         0         0
         0         0         0         0         0         0         0         0
         0         0         0         0         0         0         0         0
         0         0         0         0         0         0         0         0
         0         0         0         0         0         0         0         0
         0         0         0         0         0         0         0         0
         0         0         0         0         0         0         0         0
         0         0         0         0         0         0         0         0
         0         0         0         0         0         0         0         0
         0         0         0         0         0         0         0         0
         0         0         0         0         0         0         0         0
         0         0         0         0         0         0         0         0
         0         0         0         0         0         0         0         0
         0         0         0         0         0         0         0         0
         0         0         0         0         0         0         0         0
         0         0         0         0         0         0         0         0
         0         0         0         0         0         0         0         0
         0         0         0         0         0         0         0         0
         0         0         0         0         0         0         0         0
         0         0         0         0         0         0         0         0
         0         0         0         0         0         0         0         0
         0         0         0         0         0         0         0         0
         0         0         0         0         0         0         0         0
         0         0         0         0         0         0         0         0
         0         0         0         0         0         0         0         0
         0         0         0         0         0         0         0         0
         0         0         0         0         0         0         0         0
         0         0         0         0         0         0         0         0
         0         0         0         0         0         0         0         0
         0         0         0         0         0         0         0         0
         0         0         0         0         0         0         0         0
         0         0         0         0         0         0         0         0
         0         0         0         0         0         0         0         0
         0         0         0         0         0         0         0         0
         0         0         0         0         0         0         0         0
         0         0         0         0         0         0         0         0
         0         0         0         0         0         0         0         0
         0         0         0         0         0         0         0         0
         0         0         0         0         0         0         0         0
         0         0         0         0         0         0         0         0
         0         0         0         0         0         0         0         0
         0         0         0         0         0         0         0         0
         0         0         0         0         0         0         0         0
         0         0         0         0         0         0         0         0
         0         0         0         0         0         0         0         0
         0         0         0         0         0         0         0         0
         0         0         0         0         0         0         0         0
         0         0         0         0         0         0         0         0
         0         0         0         0         0         0         0         0
         0         0         0         0         0         0         0         0
         0         0         0         0         0         0         0         0
         0         0         0         0         0         0         0         0
         0         0         0         0         0         0         0         0
         0         0         0         0         0         0         0         0
         0         0         0         0         0         0         0         0
         0         0         0         0         0         0         0         0
         0         0         0         0         0         0         0         0
         0         0         0         0         0         0         0         0
         0         0         0         0         0         0         0         0
         0         0         0         0         0         0         0         0
         0         0         0         0         0         0         0         0
         0         0         0         0         0         0         0         0
         0         0         0         0         0         0         0         0
         0         0         0         0         0         0         0         0
         0         0         0         0         0         0         0         0
         0         0         0         0         0         0         0         0
         0         0         0         0         0         0         0         0
         0         0         0         0         0         0         0         0
         0         0         0         0         0         0         0         0
         0         0         0         0         0         0         0         0
         0         0         0         0         0         0         0         0
         0         0         0         0         0         0         0         0
         0         0         0         0         0         0         0         0
         0         0         0         0         0         0         0         0
         0         0         0         0         0         0         0         0
         0         0         0         0         0         0         0         0
         0         0         0         0         0         0         0         0
         0         0         0         0         0         0         0         0
         0         0         0         0         0         0         0         0
         0         0         0         0         0         0         0         0
         0         0         0         0         0         0         0         0
         0         0         0         0         0         0         0         0
         0         0         0         0         0         0         0         0
         0         0         0         0         0         0         0         0
         0         0         0         0         0         0         0         0
         0         0         0         0         0         0         0         0
         0         0         0         0         0         0         0         0
         0         0         0         0         0         0         0         0
         0         0         0         0         0         0         0         0
         0         0         0         0         0         0         0         0
         0         0         0         0         0         0         0         0
         0         0         0         0         0         0         0         0
         0         0         0         0         0         0         0         0
         0         0         0         0         0         0         0         0
         0         0         0         0         0         0         0         0
         0         0         0         0         0         0         0         0
         0         0         0         0         0         0         0         0
         0         0         0         0         0         0         0         0
         0         0         0         0         0         0         0         0
         0         0         0         0         0         0         0         0
         0         0         0         0         0         0         0         0
         0         0         0         0         0         0         0         0
         0         0         0         0         0         0         0         0
         0         0         0         0         0         0         0         0
         0         0         0         0         0         0         0         0
         0         0         0         0         0         0         0         0
         0         0         0         0         0         0         0         0
         0         0         0         0         0         0         0         0
         0         0         0         0         0         0         0         0
         0         0         0         0         0         0         0         0
         0         0         0         0         0         0         0         0
         0         0         0         0         0         0         0         0
         0         0         0         0         0         0         0         0
         0         0         0         0         0         0         0         0
         0         0         0         0         0         0         0         0
         0         0         0         0         0         0         0         0
         0         0         0         0         0         0         0         0
         0         0         0         0         0         0         0         0
         0         0         0         0         0         0         0         0
         0         0         0         0         0         0         0         0
         0         0         0         0         0         0         0         0
         0         0         0         0         0         0         0         0
         0         0         0         0         0         0         0         0
         0         0         0         0         0         0         0         0
         0         0         0         0         0         0         0         0
         0         0         0         0         0         0         0         0
         0         0         0         0         0         0         0         0
         0         0         0         0         0         0         0         0
         0         0         0         0         0         0         0         0
         0         0         0         0         0         0         0         0
         0         0         0         0         0         0         0         0
         0         0         0         0         0         0         0         0
         0         0         0         0         0         0         0         0
         0         0         0         0         0         0         0         0
         0         0         0         0         0         0         0         0
         0         0         0         0         0         0         0         0
         0         0         0         0         0         0         0         0
         0         0         0         0         0         0         0         0
         0         0         0         0         0         0         0         0
         0         0         0         0         0         0         0         0
         0         0         0         0         0         0         0         0
         0         0         0         0         0         0         0         0
         0         0         0         0         0         0         0         0
         0         0         0         0         0         0         0         0
         0         0         0         0         0         0         0         0
         0         0         0         0         0         0         0         0
         0         0         0         0         0         0         0         0
         0         0         0         0         0         0         0         0
         0         0         0         0         0         0         0         0
         0         0         0         0         0         0         0         0
         0         0         0         0         0         0         0         0
         0         0         0         0         0         0         0         0
         0         0         0         0         0         0         0         0
         0         0         0         0         0         0         0         0
         0         0         0         0         0         0         0         0
         0         0         0         0         0         0         0         0
         0         0         0         0         0         0         0         0
         0         0         0         0         0         0         0         0
         0         0         0         0         0         0         0         0
         0         0         0         0         0         0         0         0
         0         0         0         0         0         0         0         0
         0         0         0         0         0         0         0         0
         0         0         0         0         0         0         0         0
         0         0         0         0         0         0         0         0
         0         0         0         0         0         0         0         0
         0         0         0         0         0         0         0         0
         0         0         0         0         0         0         0         0
         0         0         0         0         0         0         0         0
         0         0         0         0         0         0         0         0
         0         0         0         0         0         0         0         0
         0         0         0         0         0         0         0         0
         0         0         0         0         0         0         0         0
         0         0         0         0         0         0         0         0
         0         0         0         0         0         0         0         0
         0         0         0         0         0         0         0         0
         0         0         0         0         0         0         0         0
         0         0         0         0         0         0         0         0
         0         0         0         0         0         0         0         0
         0         0         0         0         0         0         0         0
         0         0         0         0         0         0         0         0
         0         0         0         0         0         0         0         0
         0         0         0         0         0         0         0         0
         0         0         0         0         0         0         0         0
         0         0         0         0         0         0         0         0
         0         0         0         0         0         0         0         0
         0         0         0         0         0         0         0         0
         0         0         0         0         0         0         0         0
         0         0         0         0         0         0         0         0
         0         0         0         0         0         0         0         0
         0         0         0         0         0         0         0         0
         0         0         0         0         0         0         0         0
         0         0         0         0         0         0         0         0
         0         0         0         0         0         0         0         0
         0         0         0         0         0         0         0         0
         0         0         0         0         0         0         0         0
         0         0         0         0         0         0         0         0
         0         0         0         0         0         0         0         0
         0         0         0         0         0         0         0         0
         0         0         0         0         0         0         0         0
         0         0         0         0         0         0         0         0
         0         0         0         0         0         0         0         0
         0         0         0         0         0         0         0         0
         0         0         0         0         0         0         0         0
         0         0         0         0         0         0         0         0
         0         0         0         0         0         0         0         0
         0         0         0         0         0         0         0         0
         0         0         0         0         0         0         0         0
         0         0         0         0         0         0         0         0
         0         0         0         0         0         0         0         0
         0         0         0         0         0         0         0         0
         0         0         0         0         0         0         0         0
         0         0         0         0         0         0         0         0
         0         0         0         0         0         0         0         0
         0         0         0         0         0         0         0         0
         0         0         0         0         0         0         0         0
         0         0         0         0         0         0         0         0
         0         0         0         0         0         0         0         0
         0         0         0         0         0         0         0         0
         0         0         0         0         0         0         0         0
         0         0         0         0         0         0         0         0
         0         0         0         0         0         0         0         0
         0         0         0         0         0         0         0         0
         0         0         0         0         0         0         0         0
         0         0         0         0         0         0         0         0
         0         0         0         0         0         0         0         0
         0         0         0         0         0         0         0         0
         0         0         0         0         0         0         0         0
         0         0         0         0         0         0         0         0
         0         0         0         0         0         0         0         0
         0         0         0         0         0         0         0         0
         0         0         0         0         0         0         0         0
         0         0         0         0         0         0         0         0
         0         0         0         0         0         0         0         0
         0         0         0         0         0         0         0         0
         0         0         0         0         0         0         0         0
         0         0         0         0         0         0         0         0
         0         0         0         0         0         0         0         0
         0         0         0         0         0         0         0         0
         0         0         0         0         0         0         0         0
         0         0         0         0         0         0         0         0
         0         0         0         0         0         0         0         0
         0         0         0         0         0         0         0         0
         0         0         0         0         0         0         0         0
         0         0         0         0         0         0         0         0
         0         0         0         0         0         0         0         0
         0         0         0         0         0         0         0         0
         0         0         0         0         0         0         0         0
         0         0         0         0         0         0         0         0
         0         0         0         0         0         0         0         0
         0         0         0         0         0         0         0         0
         0         0         0         0         0         0         0         0
         0         0         0         0         0         0         0         0
         0         0         0         0         0         0         0         0
         0         0         0         0         0         0         0         0
         0         0         0         0         0         0         0         0
         0         0         0         0         0         0         0         0
         0         0         0         0         0         0         0         0
         0         0         0         0         0         0         0         0
         0         0         0         0         0         0         0         0
         0         0         0         0         0         0         0         0
         0         0         0         0         0         0         0         0
         0         0         0         0         0         0         0         0
         0         0         0         0         0         0         0         0
         0         0         0         0         0         0         0         0
         0         0         0         0         0         0         0         0
         0         0         0         0         0         0         0         0
         0         0         0         0         0         0         0         0
         0         0         0         0         0         0         0         0
         0         0         0         0         0         0         0         0
         0         0         0         0         0         0         0         0
         0         0         0         0         0         0         0         0
         0         0         0         0         0         0         0         0
         0         0         0         0         0         0         0         0
         0         0         0         0         0         0         0         0
         0         0         0         0         0         0         0         0
         0         0         0         0         0         0         0         0
         0         0         0         0         0         0         0         0
         0         0         0         0         0         0         0         0
         0         0         0         0         0         0         0         0
         0         0         0         0         0         0         0         0
         0         0         0         0         0         0         0         0
         0         0         0         0         0         0         0         0
         0         0         0         0         0         0         0         0
         0         0         0         0         0         0         0         0
         0         0         0         0         0         0         0         0
         0         0         0         0         0         0         0         0
         0         0         0         0         0         0         0         0
         0         0         0         0         0         0         0         0
         0         0         0         0         0         0         0         0
         0         0         0         0         0         0         0         0
         0         0         0         0         0         0         0         0
         0         0         0         0         0         0         0         0
         0         0         0         0         0         0         0         0
         0         0         0         0         0         0         0         0
         0         0         0         0         0         0         0         0
         0         0         0         0         0         0         0         0
         0         0         0         0         0         0         0         0
         0         0         0         0         0         0         0         0
         0         0         0         0         0         0         0         0
         0         0         0         0         0         0         0         0
         0         0         0         0         0         0         0         0
         0         0         0         0         0         0         0         0
         0         0         0         0         0         0         0         0
         0         0         0         0         0         0         0         0
         0         0         0         0         0         0         0         0
         0         0         0         0         0         0         0         0
         0         0         0         0         0         0         0         0
         0         0         0         0         0         0         0         0
         0         0         0         0         0         0         0         0
         0         0         0         0         0         0         0         0
         0         0         0         0         0         0         0         0
         0         0         0         0         0         0         0         0
         0         0         0         0         0         0         0         0
         0         0         0         0         0         0         0         0
         0         0         0         0         0         0         0         0
         0         0         0         0         0         0         0         0
         0         0         0         0         0         0         0         0
         0         0         0         0         0         0         0         0
         0         0         0         0         0         0         0         0
         0         0         0         0         0         0         0         0
         0         0         0         0         0         0         0         0
         0         0         0         0         0         0         0         0
         0         0         0         0         0         0         0         0
         0         0         0         0         0         0         0         0
         0         0         0         0         0         0         0         0
         0         0         0         0         0         0         0         0
         0         0         0         0         0         0         0         0
         0         0         0         0         0         0         0         0
         0         0         0         0         0         0         0         0
         0         0         0         0         0         0         0         0
         0         0         0         0         0         0         0         0
         0         0         0         0         0         0         0         0
         0         0         0         0         0         0         0         0
         0         0         0         0         0         0         0         0
         0         0         0         0         0         0         0         0
         0         0         0         0         0         0         0         0
         0         0         0         0         0         0         0         0
         0         0         0         0         0         0         0         0
         0         0         0         0         0         0         0         0
         0         0         0         0         0         0         0         0
         0         0         0         0         0         0         0         0
         0         0         0         0         0         0         0         0
         0         0         0         0         0         0         0         0
         0         0         0         0         0         0         0         0
         0         0         0         0         0         0         0         0
         0         0         0         0         0         0         0         0
         0         0         0         0         0         0         0         0
         0         0         0         0         0         0         0         0
         0         0         0         0         0         0         0         0
         0         0         0         0         0         0         0         0
         0         0         0         0         0         0         0         0
         0         0         0         0         0         0         0         0
         0         0         0         0         0         0         0         0
         0         0         0         0         0         0         0         0
         0         0         0         0         0         0         0         0
         0         0         0         0         0         0         0         0
         0         0         0         0         0         0         0         0
         0         0         0         0         0         0         0         0
         0         0         0         0         0         0         0         0
         0         0         0         0         0         0         0         0
         0         0         0         0         0         0         0         0
         0         0         0         0         0         0         0         0
         0         0         0         0         0         0         0         0
         0         0         0         0         0         0         0         0
         0         0         0         0         0         0         0         0
         0         0         0         0         0         0         0         0
         0         0         0         0         0         0         0         0
         0         0         0         0         0         0         0         0
         0         0         0         0         0         0         0         0
         0         0         0         0         0         0         0         0
         0         0         0         0         0         0         0         0
         0         0         0         0         0         0         0         0
         0         0         0         0         0         0         0         0
         0         0         0         0         0         0         0         0
         0         0         0         0         0         0         0         0
         0         0         0         0         0         0         0         0
         0         0         0         0         0         0         0         0
         0         0         0         0         0         0         0         0
         0         0         0         0         0         0         0         0
         0         0         0         0         0         0         0         0
         0         0         0         0         0         0         0         0
         0         0         0         0         0         0         0         0
         0         0         0         0         0         0         0         0
         0         0         0         0         0         0         0         0
         0         0         0         0         0         0         0         0
         0         0         0         0         0         0         0         0
         0         0         0         0         0         0         0         0
         0         0         0         0         0         0         0         0
         0         0         0         0         0         0         0         0
         0         0         0         0         0         0         0         0
         0         0         0         0         0         0         0         0
         0         0         0         0         0         0         0         0
         0         0         0         0         0         0         0         0
         0         0         0         0         0         0         0         0
         0         0         0         0         0         0         0         0
         0         0         0         0         0         0         0         0
         0         0         0         0         0         0         0         0
         0         0         0         0         0         0         0         0
         0         0         0         0         0         0         0         0
         0         0         0         0         0         0         0         0
         0         0         0         0         0         0         0         0
         0         0         0         0         0         0         0         0
         0         0         0         0         0         0         0         0
         0         0         0         0         0         0         0         0
         0         0         0         0         0         0         0         0
         0         0         0         0         0         0         0         0
         0         0         0         0         0         0         0         0
         0         0         0         0         0         0         0         0
         0         0         0         0         0         0         0         0
         0         0         0         0         0         0         0         0
         0         0         0         0         0         0         0         0
         0         0         0         0         0         0         0         0
         0         0         0         0         0         0         0         0
         0         0         0         0         0         0         0         0
         0         0         0         0         0         0         0         0
         0         0         0         0         0         0         0         0
         0         0         0         0         0         0         0         0
         0         0         0         0         0         0         0         0
         0         0         0         0         0         0         0         0
         0         0         0         0         0         0         0         0
         0         0         0         0         0         0         0         0
         0         0         0         0         0         0         0         0
         0         0         0         0         0         0         0         0
         0         0         0         0         0         0         0         0
         0         0         0         0         0         0         0         0
         0         0         0         0         0         0         0         0
         0         0         0         0         0         0         0         0
         0         0         0         0         0         0         0         0
         0         0         0         0         0         0         0         0
         0         0         0         0         0         0         0         0
         0         0         0         0         0         0         0         0
         0         0         0         0         0         0         0         0
         0         0         0         0         0         0         0         0
         0         0         0         0         0         0         0         0
         0         0         0         0         0         0         0         0
         0         0         0         0         0         0         0         0
         0         0         0         0         0         0         0         0
         0         0         0         0         0         0         0         0
         0         0         0         0         0         0         0         0
         0         0         0         0         0         0         0         0
         0         0         0         0         0         0         0         0
         0         0         0         0         0         0         0         0
         0         0         0         0         0         0         0         0
         0         0         0         0         0         0         0         0
         0         0         0         0         0         0         0         0
         0         0         0         0         0         0         0         0
         0         0         0         0         0         0         0         0
         0         0         0         0         0         0         0         0
         0         0         0         0         0         0         0         0
         0         0         0         0         0         0         0         0
         0         0         0         0         0         0         0         0
         0         0         0         0         0         0         0         0
         0         0         0         0         0         0         0         0
         0         0         0         0         0         0         0         0
         0         0         0         0         0         0         0         0
         0         0         0         0         0         0         0         0
         0         0         0         0         0         0         0         0
         0         0         0         0         0         0         0         0
         0         0         0         0         0         0         0         0
         0         0         0         0         0         0         0         0
         0         0         0         0         0         0         0         0
         0         0         0         0         0         0         0         0
         0         0         0         0         0         0         0         0
         0         0         0         0         0         0         0         0
         0         0         0         0         0         0         0         0
         0         0         0         0         0         0         0         0
         0         0         0         0         0         0         0         0
         0         0         0         0         0         0         0         0
         0         0         0         0         0         0         0         0
         0         0         0         0         0         0         0         0
         0         0         0         0         0         0         0         0
         0         0         0         0         0         0         0         0
         0         0         0         0         0         0         0         0
         0         0         0         0         0         0         0         0
         0         0         0         0         0         0         0         0
         0         0         0         0         0         0         0         0
         0         0         0         0         0         0         0         0
         0         0         0         0         0         0         0         0
         0         0         0         0         0         0         0         0
         0         0         0         0         0         0         0         0
         0         0         0         0         0         0         0         0
         0         0         0         0         0         0         0         0
         0         0         0         0         0         0         0         0
         0         0         0         0         0         0         0         0
         0         0         0         0         0         0         0         0
         0         0         0         0         0         0         0         0
         0         0         0         0         0         0         0         0
         0         0         0         0         0         0         0         0
         0         0         0         0         0         0         0         0
         0         0         0         0         0         0         0         0
         0         0         0         0         0         0         0         0
         0         0         0         0         0         0         0         0
         0         0         0         0         0         0         0         0
         0         0         0         0         0         0         0         0
         0         0         0         0         0         0         0         0
         0         0         0         0         0         0         0         0
         0         0         0         0         0         0         0         0
         0         0         0         0         0         0         0         0
         0         0         0         0         0         0         0         0
         0         0         0         0         0         0         0         0
         0         0         0         0         0         0         0         0
         0         0         0         0         0         0         0         0
         0         0         0         0         0         0         0         0
         0         0         0         0         0         0         0         0
         0         0         0         0         0         0         0         0
         0         0         0         0         0         0         0         0
         0         0         0         0         0         0         0         0
         0         0         0         0         0         0         0         0
         0         0         0         0         0         0         0         0
         0         0         0         0         0         0         0         0
         0         0         0         0         0         0         0         0
         0         0         0         0         0         0         0         0
         0         0         0         0         0         0         0         0
         0         0         0         0         0         0         0         0
         0         0         0         0         0         0         0         0
         0         0         0         0         0         0         0         0
         0         0         0         0         0         0         0         0
         0         0         0         0         0         0         0         0
         0         0         0         0         0         0         0         0
         0         0         0         0         0         0         0         0
         0         0         0         0         0         0         0         0
         0         0         0         0         0         0         0         0
         0         0         0         0         0         0         0         0
         0         0         0         0         0         0         0         0
         0         0         0         0         0         0         0         0
         0         0         0         0         0         0         0         0
         0         0         0         0         0         0         0         0
         0         0         0         0         0         0         0         0
         0         0         0         0         0         0         0         0
         0         0         0         0         0         0         0         0
         0         0         0         0         0         0         0         0
         0         0         0         0         0         0         0         0
         0         0         0         0         0         0         0         0
         0         0         0         0         0         0         0         0
         0         0         0         0         0         0         0         0
         0         0         0         0         0         0         0         0
         0         0         0         0         0         0         0         0
         0         0         0         0         0         0         0         0
         0         0         0         0         0         0         0         0
         0         0         0         0         0         0         0         0
         0         0         0         0         0         0         0         0
         0         0         0         0         0         0         0         0
         0         0         0         0         0         0         0         0
         0         0         0         0         0         0         0         0
         0         0         0         0         0         0         0         0
         0         0         0         0         0         0         0         0
         0         0         0         0         0         0         0         0
         0         0         0         0         0         0         0         0
         0         0         0         0         0         0         0         0
         0         0         0         0         0         0         0         0
         0         0         0         0         0         0         0         0
         0         0         0         0         0         0         0         0
         0         0         0         0         0         0         0         0
         0         0         0         0         0         0         0         0
         0         0         0         0         0         0         0         0
         0         0         0         0         0         0         0         0
         0         0         0         0         0         0         0         0
         0         0         0         0         0         0         0         0
         0         0         0         0         0         0         0         0
         0         0         0         0         0         0         0         0
         0         0         0         0         0         0         0         0
         0         0         0         0         0         0         0         0
         0         0         0         0         0         0         0         0
         0         0         0         0         0         0         0         0
         0         0         0         0         0         0         0         0
         0         0         0         0         0         0         0         0
         0         0         0         0         0         0         0         0
         0         0         0         0         0         0         0         0
         0         0         0         0         0         0         0         0
         0         0         0         0         0         0         0         0
         0         0         0         0         0         0         0         0
         0         0         0         0         0         0         0         0
         0         0         0         0         0         0         0         0
         0         0         0         0         0         0         0         0
         0         0         0         0         0         0         0         0
         0         0         0         0         0         0         0         0
         0         0         0         0         0         0         0         0
         0         0         0         0         0         0         0         0
         0         0         0         0         0         0         0         0
         0         0         0         0         0         0         0         0
         0         0         0         0         0         0         0         0
         0         0         0         0         0         0         0         0
         0         0         0         0         0         0         0         0
         0         0         0         0         0         0         0         0
         0         0         0         0         0         0         0         0
         0         0         0         0         0         0         0         0
         0         0         0         0         0         0         0         0
         0         0         0         0         0         0         0         0
         0         0         0         0         0         0         0         0
         0         0         0         0         0         0         0         0
         0         0         0         0         0         0         0         0
         0         0         0         0         0         0         0         0
         0         0         0         0         0         0         0         0
         0         0         0         0         0         0         0         0
         0         0         0         0         0         0         0         0
         0         0         0         0         0         0         0         0
         0         0         0         0         0         0         0         0
         0         0         0         0         0         0         0         0
         0         0         0         0         0         0         0         0
         0         0         0         0         0         0         0         0
         0         0         0         0         0         0         0         0
         0         0         0         0         0         0         0         0
         0         0         0         0         0         0         0         0
         0         0         0         0         0         0         0         0
         0         0         0         0         0         0         0         0
         0         0         0         0         0         0         0         0
         0         0         0         0         0         0         0         0
         0         0         0         0         0         0         0         0
         0         0         0         0         0         0         0         0
         0         0         0         0         0         0         0         0
         0         0         0         0         0         0         0         0
         0         0         0         0         0         0         0         0
         0         0         0         0         0         0         0         0
         0         0         0         0         0         0         0         0
         0         0         0         0         0         0         0         0
         0         0         0         0         0         0         0         0
         0         0         0         0         0         0         0         0
         0         0         0         0         0         0         0         0
         0         0         0         0         0         0         0         0
         0         0         0         0         0         0         0         0
         0         0         0         0         0         0         0         0
         0         0         0         0         0         0         0         0
         0         0         0         0         0         0         0         0
         0         0         0         0         0         0         0         0
         0         0         0         0         0         0         0         0
         0         0         0         0         0         0         0         0
         0         0         0         0         0         0         0         0
         0         0         0         0         0         0         0         0
         0         0         0         0         0         0         0         0
         0         0         0         0         0         0         0         0
         0         0         0         0         0         0         0         0
         0         0         0         0         0         0         0         0
         0         0         0         0         0         0         0         0
         0         0         0         0         0         0         0         0
         0         0         0         0         0         0         0         0
         0         0         0         0         0         0         0         0
         0         0         0         0         0         0         0         0
         0         0         0         0         0         0         0         0
         0         0         0         0         0         0         0         0
         0         0         0         0         0         0         0         0
         0         0         0         0         0         0         0         0
         0         0         0         0         0         0         0         0
         0         0         0         0         0         0         0         0
         0         0         0         0         0         0         0         0
         0         0         0         0         0         0         0         0
         0         0         0         0         0         0         0         0
         0         0         0         0         0         0         0         0
         0         0         0         0         0         0         0         0
         0         0         0         0         0         0         0         0
         0         0         0         0         0         0         0         0
         0         0         0         0         0         0         0         0
         0         0         0         0         0         0         0         0
         0         0         0         0         0         0         0         0
         0         0         0         0         0         0         0         0
         0         0         0         0         0         0         0         0
         0         0         0         0         0         0         0         0
         0         0         0         0         0         0         0         0
         0         0         0         0         0         0         0         0
         0         0         0         0         0         0         0         0
         0         0         0         0         0         0         0         0
         0         0         0         0         0         0         0         0
         0         0         0         0         0         0         0         0
         0         0         0         0         0         0         0         0
         0         0         0         0         0         0         0         0
         0         0         0         0         0         0         0         0
         0         0         0         0         0         0         0         0
         0         0         0         0         0         0         0         0
         0         0         0         0         0         0         0         0
         0         0         0         0         0         0         0         0
         0         0         0         0         0         0         0         0
         0         0         0         0         0         0         0         0
         0         0         0         0         0         0         0         0
         0         0         0         0         0         0         0         0
         0         0         0         0         0         0         0         0
         0         0         0         0         0         0         0         0
         0         0         0         0         0         0         0         0
         0         0         0         0         0         0         0         0
         0         0         0         0         0         0         0         0
         0         0         0         0         0         0         0         0
         0         0         0         0         0         0         0         0
         0         0         0         0         0         0         0         0
         0         0         0         0         0         0         0         0
         0         0         0         0         0         0         0         0
         0         0         0         0         0         0         0         0
         0         0         0         0         0         0         0         0
         0         0         0         0         0         0         0         0
         0         0         0         0         0         0         0         0
         0         0         0         0         0         0         0         0
         0         0         0         0         0         0         0         0
         0         0         0         0         0         0         0         0
         0         0         0         0         0         0         0         0
         0         0         0         0         0         0         0         0
         0         0         0         0         0         0         0         0
         0         0         0         0         0         0         0         0
         0         0         0         0         0         0         0         0
         0         0         0         0         0         0         0         0
         0         0         0         0         0         0         0         0
         0         0         0         0         0         0         0         0
         0         0         0         0         0         0         0         0
         0         0         0         0         0         0         0         0
         0         0         0         0         0         0         0         0
         0         0         0         0         0         0         0         0
         0         0         0         0         0         0         0         0
         0         0         0         0         0         0         0         0
         0         0         0         0         0         0         0         0
         0         0         0         0         0         0         0         0
         0         0         0         0         0         0         0         0
         0         0         0         0         0         0         0         0
         0         0         0         0         0         0         0         0
         0         0         0         0         0         0         0         0
         0         0         0         0         0         0         0         0
         0         0         0         0         0         0         0         0
         0         0         0         0         0         0         0         0
         0         0         0         0         0         0         0         0
         0         0         0         0         0         0         0         0
         0         0         0         0         0         0         0         0
         0         0         0         0         0         0         0         0
         0         0         0         0         0         0         0         0
         0         0         0         0         0         0         0         0
         0         0         0         0         0         0         0         0
         0         0         0         0         0         0         0         0
         0         0         0         0         0         0         0         0
         0         0         0         0         0         0         0         0
         0         0         0         0         0         0         0         0
         0         0         0         0         0         0         0         0
         0         0         0         0         0         0         0         0
         0         0         0         0         0         0         0         0
         0         0         0         0         0         0         0         0
         0         0         0         0         0         0         0         0
         0         0         0         0         0         0         0         0
         0         0         0         0         0         0         0         0
         0         0         0         0         0         0         0         0
         0         0         0         0         0         0         0         0
         0         0         0         0         0         0         0         0
         0         0         0         0         0         0         0         0
         0         0         0         0         0         0         0         0
         0         0         0         0         0         0         0         0
         0         0         0         0         0         0         0         0
         0         0         0         0         0         0         0         0
         0         0         0         0         0         0         0         0
         0         0         0         0         0         0         0         0
         0         0         0         0         0         0         0         0
         0         0         0         0         0         0         0         0
         0         0         0         0         0         0         0         0
         0         0         0         0         0         0         0         0
         0         0         0         0         0         0         0         0
         0         0         0         0         0         0         0         0
         0         0         0         0         0         0         0         0
         0         0         0         0         0         0         0         0
         0         0         0         0         0         0         0         0
         0         0         0         0         0         0         0         0
         0         0         0         0         0         0         0         0
         0         0         0         0         0         0         0         0
         0         0         0         0         0         0         0         0
         0         0         0         0         0         0         0         0
         0         0         0         0         0         0         0         0
         0         0         0         0         0         0         0         0
         0         0         0         0         0         0         0         0
         0         0         0         0         0         0         0         0
         0         0         0         0         0         0         0         0
         0         0         0         0         0         0         0         0
         0         0         0         0         0         0         0         0
         0         0         0         0         0         0         0         0
         0         0         0         0         0         0         0         0
         0         0         0         0         0         0         0         0
         0         0         0         0         0         0         0         0
         0         0         0         0         0         0         0         0
         0         0         0         0         0         0         0         0
         0         0         0         0         0         0         0         0
         0         0         0         0         0         0         0         0
         0         0         0         0         0         0         0         0
         0         0         0         0         0         0         0         0
         0         0         0         0         0         0         0         0
         0         0         0         0         0         0         0         0
         0         0         0         0         0         0         0         0
         0         0         0         0         0         0         0         0
         0         0         0         0         0         0         0         0
         0         0         0         0         0         0         0         0
         0         0         0         0         0         0         0         0
         0         0         0         0         0         0         0         0
         0         0         0         0         0         0         0         0
         0         0         0         0         0         0         0         0
         0         0         0         0         0         0         0         0
         0         0         0         0         0         0         0         0
         0         0         0         0         0         0         0         0
         0         0         0         0         0         0         0         0
         0         0         0         0         0         0         0         0
         0         0         0         0         0         0         0         0
         0         0         0         0         0         0         0         0
         0         0         0         0         0         0         0         0
         0         0         0         0         0         0         0         0
         0         0         0         0         0         0         0         0
         0         0         0         0         0         0         0         0
         0         0         0         0         0         0         0         0
         0         0         0         0         0         0         0         0
         0         0         0         0         0         0         0         0
         0         0         0         0         0         0         0         0
         0         0         0         0         0         0         0         0
         0         0         0         0         0         0         0         0
         0         0         0         0         0         0         0         0
         0         0         0         0         0         0         0         0
         0         0         0         0         0         0         0         0
         0         0         0         0         0         0         0         0
         0         0         0         0         0         0         0         0
         0         0         0         0         0         0         0         0
         0         0         0         0         0         0         0         0
         0         0         0         0         0         0         0         0
         0         0         0         0         0         0         0         0
         0         0         0         0         0         0         0         0
         0         0         0         0         0         0         0         0
         0         0         0         0         0         0         0         0
         0         0         0         0         0         0         0         0
         0         0         0         0         0         0         0         0
         0         0         0         0         0         0         0         0
         0         0         0         0         0         0         0         0
         0         0         0         0         0         0         0         0
         0         0         0         0         0         0         0         0
         0         0         0         0         0         0         0         0
         0         0         0         0         0         0         0         0
         0         0         0         0         0         0         0         0
         0         0         0         0         0         0         0         0
         0         0         0         0         0         0         0         0
         0         0         0         0         0         0         0         0
         0         0         0         0         0         0         0         0
         0         0         0         0         0         0         0         0
         0         0         0         0         0         0         0         0
         0         0         0         0         0         0         0         0
         0         0         0         0         0         0         0         0
         0         0         0         0         0         0         0         0
         0         0         0         0         0         0         0         0
         0         0         0         0         0         0         0         0
         0         0         0         0         0         0         0         0
         0         0         0         0         0         0         0         0
         0         0         0         0         0         0         0         0
         0         0         0         0         0         0         0         0
         0         0         0         0         0         0         0         0
         0         0         0         0         0         0         0         0
         0         0         0         0         0         0         0         0
         0         0         0         0         0         0         0         0
         0         0         0         0         0         0         0         0
         0         0         0         0         0         0         0         0
         0         0         0         0         0         0         0         0
         0         0         0         0         0         0         0         0
         0         0         0         0         0         0         0         0
         0         0         0         0         0         0         0         0
         0         0         0         0         0         0         0         0
         0         0         0         0         0         0         0         0
         0         0         0         0         0         0         0         0
         0         0         0         0         0         0         0         0
         0         0         0         0         0         0         0         0
         0         0         0         0         0         0         0         0
         0         0         0         0         0         0         0         0
         0         0         0         0         0         0         0         0
         0         0         0         0         0         0         0         0
         0         0         0         0         0         0         0         0
         0         0         0         0         0         0         0         0
         0         0         0         0         0         0         0         0
         0         0         0         0         0         0         0         0
         0         0         0         0         0         0         0         0
         0         0         0         0         0         0         0         0
         0         0         0         0         0         0         0         0
         0         0         0         0         0         0         0         0
         0         0         0         0         0         0         0         0
         0         0         0         0         0         0         0         0
         0         0         0         0         0         0         0         0
         0         0         0         0         0         0         0         0
         0         0         0         0         0         0         0         0
         0         0         0         0         0         0         0         0
         0         0         0         0         0         0         0         0
         0         0         0         0         0         0         0         0
         0         0         0         0         0         0         0         0
         0         0         0         0         0         0         0         0
         0         0         0         0         0         0         0         0
         0         0         0         0         0         0         0         0
         0         0         0         0         0         0         0         0
         0         0         0         0         0         0         0         0
         0         0         0         0         0         0         0         0
         0         0         0         0         0         0         0         0
         0         0         0         0         0         0         0         0
         0         0         0         0         0         0         0         0
         0         0         0         0         0         0         0         0
         0         0         0         0         0         0         0         0
         0         0         0         0         0         0         0         0
         0         0         0         0         0         0         0         0
         0         0         0         0         0         0         0         0
         0         0         0         0         0         0         0         0
         0         0         0         0         0         0         0         0
         0         0         0         0         0         0         0         0
         0         0         0         0         0         0         0         0
         0         0         0         0         0         0         0         0
         0         0         0         0         0         0         0         0
         0         0         0         0         0         0         0         0
         0         0         0         0         0         0         0         0
         0         0         0         0         0         0         0         0
         0         0         0         0         0         0         0         0
         0         0         0         0         0         0         0         0
         0         0         0         0         0         0         0         0
         0         0         0         0         0         0         0         0
         0         0         0         0         0         0         0         0
         0         0         0         0         0         0         0         0
         0         0         0         0         0         0         0         0
         0         0         0         0         0         0         0         0
         0         0         0         0         0         0         0         0
         0         0         0         0         0         0         0         0
         0         0         0         0         0         0         0         0
         0         0         0         0         0         0         0         0
         0         0         0         0         0         0         0         0
         0         0         0         0         0         0         0         0
         0         0         0         0         0         0         0         0
         0         0         0         0         0         0         0         0
         0         0         0         0         0         0         0         0
         0         0         0         0         0         0         0         0
         0         0         0         0         0         0         0         0
         0         0         0         0         0         0         0         0
         0         0         0         0         0         0         0         0
         0         0         0         0         0         0         0         0
         0         0         0         0         0         0         0         0
         0         0         0         0         0         0         0         0
         0         0         0         0         0         0         0         0
         0         0         0         0         0         0         0         0
         0         0         0         0         0         0         0         0
         0         0         0         0         0         0         0         0
         0         0         0         0         0         0         0         0
         0         0         0         0         0         0         0         0
         0         0         0         0         0         0         0         0
         0         0         0         0         0         0         0         0
         0         0         0         0         0         0         0         0
         0         0         0         0         0         0         0         0
         0         0         0         0         0         0         0         0
         0         0         0         0         0         0         0         0
         0         0         0         0         0         0         0         0
         0         0         0         0         0         0         0         0
         0         0         0         0         0         0         0         0
         0         0         0         0         0         0         0         0
         0         0         0         0         0         0         0         0
         0         0         0         0         0         0         0         0
         0         0         0         0         0         0         0         0
         0         0         0         0         0         0         0         0
         0         0         0         0         0         0         0         0
         0         0         0         0         0         0         0         0
         0         0         0         0         0         0         0         0
         0         0         0         0         0         0         0         0
         0         0         0         0         0         0         0         0
         0         0         0         0         0         0         0         0
         0         0         0         0         0         0         0         0
         0         0         0         0         0         0         0         0
         0         0         0         0         0         0         0         0
         0         0         0         0         0         0         0         0
         0         0         0         0         0         0         0         0
         0         0         0         0         0         0         0         0
         0         0         0         0         0         0         0         0
         0         0         0         0         0         0         0         0
         0         0         0         0         0         0         0         0
         0         0         0         0         0         0         0         0
         0         0         0         0         0         0         0         0
         0         0         0         0         0         0         0         0
         0         0         0         0         0         0         0         0
         0         0         0         0         0         0         0         0
         0         0         0         0         0         0         0         0
         0         0         0         0         0         0         0         0
         0         0         0         0         0         0         0         0
         0         0         0         0         0         0         0         0
         0         0         0         0         0         0         0         0
         0         0         0         0         0         0         0         0
         0         0         0         0         0         0         0         0
         0         0         0         0         0         0         0         0
         0         0         0         0         0         0         0         0
         0         0         0         0         0         0         0         0
         0         0         0         0         0         0         0         0
         0         0         0         0         0         0         0         0
         0         0         0         0         0         0         0         0
         0         0         0         0         0         0         0         0
         0         0         0         0         0         0         0         0
         0         0         0         0         0         0         0         0
         0         0         0         0         0         0         0         0
         0         0         0         0         0         0         0         0
         0         0         0         0         0         0         0         0
         0         0         0         0         0         0         0         0
         0         0         0         0         0         0         0         0
         0         0         0         0         0         0         0         0
         0         0         0         0         0         0         0         0
         0         0         0         0         0         0         0         0
         0         0         0         0         0         0         0         0
         0         0         0         0         0         0         0         0
         0         0         0         0         0         0         0         0
         0         0         0         0         0         0         0         0
         0         0         0         0         0         0         0         0
         0         0         0         0         0         0         0         0
         0         0         0         0         0         0         0         0
         0         0         0         0         0         0         0         0
         0         0         0         0         0         0         0         0
         0         0         0         0         0         0         0         0
         0         0         0         0         0         0         0         0
         0         0         0         0         0         0         0         0
         0         0         0         0         0         0         0         0
         0         0         0         0         0         0         0         0
         0         0         0         0         0         0         0         0
         0         0         0         0         0         0         0         0
         0         0         0         0         0         0         0         0
         0         0         0         0         0         0         0         0
         0         0         0         0         0         0         0         0
         0         0         0         0         0         0         0         0
         0         0         0         0         0         0         0         0
         0         0         0         0         0         0         0         0
         0         0         0         0         0         0         0         0
         0         0         0         0         0         0         0         0
         0         0         0         0         0         0         0         0
         0         0         0         0         0         0         0         0
         0         0         0         0         0         0         0         0
         0         0         0         0         0         0         0         0
         0         0         0         0         0         0         0         0
         0         0         0         0         0         0         0         0
         0         0         0         0         0         0         0         0
         0         0         0         0         0         0         0         0
         0         0         0         0         0         0         0         0
         0         0         0         0         0         0         0         0
         0         0         0         0         0         0         0         0
         0         0         0         0         0         0         0         0
         0         0         0         0         0         0         0         0
         0         0         0         0         0         0         0         0
         0         0         0         0         0         0         0         0
         0         0         0         0         0         0         0         0
         0         0         0         0         0         0         0         0
         0         0         0         0         0         0         0         0
         0         0         0         0         0         0         0         0
         0         0         0         0         0         0         0         0
         0         0         0         0         0         0         0         0
         0         0         0         0         0         0         0         0
         0         0         0         0         0         0         0         0
         0         0         0         0         0         0         0         0
         0         0         0         0         0         0         0         0
         0         0         0         0         0         0         0         0
         0         0         0         0         0         0         0         0
         0         0         0         0         0         0         0         0
         0         0         0         0         0         0         0         0
         0         0         0         0         0         0         0         0
         0         0         0         0         0         0         0         0
         0         0         0         0         0         0         0         0
         0         0         0         0         0         0         0         0
         0         0         0         0         0         0         0         0
         0         0         0         0         0         0         0         0
         0         0         0         0         0         0         0         0
         0         0         0         0         0         0         0         0
         0         0         0         0         0         0         0         0
         0         0         0         0         0         0         0         0
         0         0         0         0         0         0         0         0
         0         0         0         0         0         0         0         0
         0         0         0         0         0         0         0         0
         0         0         0         0         0         0         0         0
         0         0         0         0         0         0         0         0
         0         0         0         0         0         0         0         0
         0         0         0         0         0         0         0         0
         0         0         0         0         0         0         0         0
         0         0         0         0         0         0         0         0
         0         0         0         0         0         0         0         0
         0         0         0         0         0         0         0         0
         0         0         0         0         0         0         0         0
         0         0         0         0         0         0         0         0
         0         0         0         0         0         0         0         0
         0         0         0         0         0         0         0         0
         0         0         0         0         0         0         0         0
         0         0         0         0         0         0         0         0
         0         0         0         0         0         0         0         0
         0         0         0         0         0         0         0         0
         0         0         0         0         0         0         0         0
         0         0         0         0         0         0         0         0
         0         0         0         0         0         0         0         0
         0         0         0         0         0         0         0         0
         0         0         0         0         0         0         0         0
         0         0         0         0         0         0         0         0
         0         0         0         0         0         0         0         0
         0         0         0         0         0         0         0         0
         0         0         0         0         0         0         0         0
         0         0         0         0         0         0         0         0
         0         0         0         0         0         0         0         0
         0         0         0         0         0         0         0         0
         0         0         0         0         0         0         0         0
         0         0         0         0         0         0         0         0
         0         0         0         0         0         0         0         0
         0         0         0         0         0         0         0         0
         0         0         0         0         0         0         0         0
         0         0         0         0         0         0         0         0
         0         0         0         0         0         0         0         0
         0         0         0         0         0         0         0         0
         0         0         0         0         0         0         0         0
         0         0         0         0         0         0         0         0
         0         0         0         0         0         0         0         0
         0         0         0         0         0         0         0         0
         0         0         0         0         0         0         0         0
         0         0         0         0         0         0         0         0
         0         0         0         0         0         0         0         0
         0         0         0         0         0         0         0         0
         0         0         0         0         0         0         0         0
         0         0         0         0         0         0         0         0
         0         0         0         0         0         0         0         0
         0         0         0         0         0         0         0         0
         0         0         0         0         0         0         0         0
         0         0         0         0         0         0         0         0
         0         0         0         0         0         0         0         0
         0         0         0         0         0         0         0         0
         0         0         0         0         0         0         0         0
         0         0         0         0         0         0         0         0
         0         0         0         0         0         0         0         0
         0         0         0         0         0         0         0         0
         0         0         0         0         0         0         0         0
         0         0         0         0         0         0         0         0
         0         0         0         0         0         0         0         0
         0         0         0         0         0         0         0         0
         0         0         0         0         0         0         0         0
         0         0         0         0         0         0         0         0
         0         0         0         0         0         0         0         0
         0         0         0         0         0         0         0         0
         0         0         0         0         0         0         0         0
         0         0         0         0         0         0         0         0
         0         0         0         0         0         0         0         0
         0         0         0         0         0         0         0         0
         0         0         0         0         0         0         0         0
         0         0         0         0         0         0         0         0
         0         0         0         0         0         0         0         0
         0         0         0         0         0         0         0         0
         0         0         0         0         0         0         0         0
         0         0         0         0         0         0         0         0
         0         0         0         0         0         0         0         0
         0         0         0         0         0         0         0         0
         0         0         0         0         0         0         0         0
         0         0         0         0         0         0         0         0
         0         0         0         0         0         0         0         0
         0         0         0         0         0         0         0         0
         0         0         0         0         0         0         0         0
         0         0         0         0         0         0         0         0
         0         0         0         0         0         0         0         0
         0         0         0         0         0         0         0         0
         0         0         0         0         0         0         0         0
         0         0         0         0         0         0         0         0
         0         0         0         0         0         0         0         0
         0         0         0         0         0         0         0         0
         0         0         0         0         0         0         0         0
         0         0         0         0         0         0         0         0
         0         0         0         0         0         0         0         0
         0         0         0         0         0         0         0         0
         0         0         0         0         0         0         0         0
         0         0         0         0         0         0         0         0
         0         0         0         0         0         0         0         0
         0         0         0         0         0         0         0         0
         0         0         0         0         0         0         0         0
         0         0         0         0         0         0         0         0
         0         0         0         0         0         0         0         0
         0         0         0         0         0         0         0         0
         0         0         0         0         0         0         0         0
         0         0         0         0         0         0         0         0
         0         0         0         0         0         0         0         0
         0         0         0         0         0         0         0         0
         0         0         0         0         0         0         0         0
         0         0         0         0         0         0         0         0
         0         0         0         0         0         0         0         0
         0         0         0         0         0         0         0         0
         0         0         0         0         0         0         0         0
         0         0         0         0         0         0         0         0
         0         0         0         0         0         0         0         0
         0         0         0         0         0         0         0         0
         0         0         0         0         0         0         0         0
         0         0         0         0         0         0         0         0
         0         0         0         0         0         0         0         0
         0         0         0         0         0         0         0         0
         0         0         0         0         0         0         0         0
         0         0         0         0         0         0         0         0
         0         0         0         0         0         0         0         0
         0         0         0         0         0         0         0         0
         0         0         0         0         0         0         0         0
         0         0         0         0         0         0         0         0
         0         0         0         0         0         0         0         0
         0         0         0         0         0         0         0         0
         0         0         0         0         0         0         0         0
         0         0         0         0         0         0         0         0
         0         0         0         0         0         0         0         0
         0         0         0         0         0         0         0         0
         0         0         0         0         0         0         0         0
         0         0         0         0         0         0         0         0
         0         0         0         0         0         0         0         0
         0         0         0         0         0         0         0         0
         0         0         0         0         0         0         0         0
         0         0         0         0         0         0         0         0
         0         0         0         0         0         0         0         0
         0         0         0         0         0         0         0         0
         0         0         0         0         0         0         0         0
         0         0         0         0         0         0         0         0
         0         0         0         0         0         0         0         0
         0         0         0         0         0         0         0         0
         0         0         0         0         0         0         0         0
         0         0         0         0         0         0         0         0
         0         0         0         0         0         0         0         0
         0         0         0         0         0         0         0         0
         0         0         0         0         0         0         0         0
         0         0         0         0         0         0         0         0
         0         0         0         0         0         0         0         0
         0         0         0         0         0         0         0         0
         0         0         0         0         0         0         0         0
         0         0         0         0         0         0         0         0
         0         0         0         0         0         0         0         0
         0         0         0         0         0         0         0         0
         0         0         0         0         0         0         0         0
         0         0         0         0         0         0         0         0
         0         0         0         0         0         0         0         0
         0         0         0         0         0         0         0         0
         0         0         0         0         0         0         0         0
         0         0         0         0         0         0         0         0
         0         0         0         0         0         0         0         0
         0         0         0         0         0         0         0         0
         0         0         0         0         0         0         0         0
         0         0         0         0         0         0         0         0
         0         0         0         0         0         0         0         0
         0         0         0         0         0         0         0         0
         0         0         0         0         0         0         0         0
         0         0         0         0         0         0         0         0
         0         0         0         0         0         0         0         0
         0         0         0         0         0         0         0         0
         0         0         0         0         0         0         0         0
         0         0         0         0         0         0         0         0
         0         0         0         0         0         0         0         0
         0         0         0         0         0         0         0         0
         0         0         0         0         0         0         0         0
         0         0         0         0         0         0         0         0
         0         0         0         0         0         0         0         0
         0         0         0         0         0         0         0         0
         0         0         0         0         0         0         0         0
         0         0         0         0         0         0         0         0
         0         0         0         0         0         0         0         0
         0         0         0         0         0         0         0         0
         0         0         0         0         0         0         0         0
         0         0         0         0         0         0         0         0
         0         0         0         0         0         0         0         0
         0         0         0         0         0         0         0         0
         0         0         0         0         0         0         0         0
         0         0         0         0         0         0         0         0
         0         0         0         0         0         0         0         0
         0         0         0         0         0         0         0         0
         0         0         0         0         0         0         0         0
         0         0         0         0         0         0         0         0
         0         0         0         0         0         0         0         0
         0         0         0         0         0         0         0         0
         0         0         0         0         0         0         0         0
         0         0         0         0         0         0         0         0
         0         0         0         0         0         0         0         0
         0         0         0         0         0         0         0         0
         0         0         0         0         0         0         0         0
         0         0         0         0         0         0         0         0
         0         0         0         0         0         0         0         0
         0         0         0         0         0         0         0         0
         0         0         0         0         0         0         0         0
         0         0         0         0         0         0         0         0
         0         0         0         0         0         0         0         0
         0         0         0         0         0         0         0         0
         0         0         0         0         0         0         0         0
         0         0         0         0         0         0         0         0
         0         0         0         0         0         0         0         0
         0         0         0         0         0         0         0         0
         0         0         0         0         0         0         0         0
         0         0         0         0         0         0         0         0
         0         0         0         0         0         0         0         0
         0         0         0         0         0         0         0         0
         0         0         0         0         0         0         0         0
         0         0         0         0         0         0         0         0
         0         0         0         0         0         0         0         0
         0         0         0         0         0         0         0         0
         0         0         0         0         0         0         0         0
         0         0         0         0         0         0         0         0
         0         0         0         0         0         0         0         0
         0         0         0         0         0         0         0         0
         0         0         0         0         0         0         0         0
         0         0         0         0         0         0         0         0
         0         0         0         0         0         0         0         0
         0         0         0         0         0         0         0         0
         0         0         0         0         0         0         0         0
         0         0         0         0         0         0         0         0
         0         0         0         0         0         0         0         0
         0         0         0         0         0         0         0         0
         0         0         0         0         0         0         0         0
         0         0         0         0         0         0         0         0
         0         0         0         0         0         0         0         0
         0         0         0         0         0         0         0         0
         0         0         0         0         0         0         0         0
         0         0         0         0         0         0         0         0
         0         0         0         0         0         0         0         0
         0         0         0         0         0         0         0         0
         0         0         0         0         0         0         0         0
         0         0         0         0         0         0         0         0
         0         0         0         0         0         0         0         0
         0         0         0         0         0         0         0         0
         0         0         0         0         0         0         0         0
         0         0         0         0         0         0         0         0
         0         0         0         0         0         0         0         0
         0         0         0         0         0         0         0         0
         0         0         0         0         0         0         0         0
         0         0         0         0         0         0         0         0
         0         0         0         0         0         0         0         0
         0         0         0         0         0         0         0         0
         0         0         0         0         0         0         0         0
         0         0         0         0         0         0         0         0
         0         0         0         0         0         0         0         0
         0         0         0         0         0         0         0         0
         0         0         0         0         0         0         0         0
         0         0         0         0         0         0         0         0
         0         0         0         0         0         0         0         0
         0         0         0         0         0         0         0         0
         0         0         0         0         0         0         0         0
         0         0         0         0         0         0         0         0
         0         0         0         0         0         0         0         0
         0         0         0         0         0         0         0         0
         0         0         0         0         0         0         0         0
         0         0         0         0         0         0         0         0
         0         0         0         0         0         0         0         0
         0         0         0         0         0         0         0         0
         0         0         0         0         0         0         0         0
         0         0         0         0         0         0         0         0
         0         0         0         0         0         0         0         0
         0         0         0         0         0         0         0         0
         0         0         0         0         0         0         0         0
         0         0         0         0         0         0         0         0
         0         0         0         0         0         0         0         0
         0         0         0         0         0         0         0         0
         0         0         0         0         0         0         0         0
         0         0         0         0         0         0         0         0
         0         0         0         0         0         0         0         0
         0         0         0         0         0         0         0         0
         0         0         0         0         0         0         0         0
         0         0         0         0         0         0         0         0
         0         0         0         0         0         0         0         0
         0         0         0         0         0         0         0         0
         0         0         0         0         0         0         0         0
         0         0         0         0         0         0         0         0
         0         0         0         0         0         0         0         0
         0         0         0         0         0         0         0         0
         0         0         0         0         0         0         0         0
         0         0         0         0         0         0         0         0
         0         0         0         0         0         0         0         0
         0         0         0         0         0         0         0         0
         0         0         0         0         0         0         0         0
         0         0         0         0         0         0         0         0
         0         0         0         0         0         0         0         0
         0         0         0         0         0         0         0         0
         0         0         0         0         0         0         0         0
         0         0         0         0         0         0         0         0
         0         0         0         0         0         0         0         0
         0         0         0         0         0         0         0         0
         0         0         0         0         0         0         0         0
         0         0         0         0         0         0         0         0
         0         0         0         0         0         0         0         0
         0         0         0         0         0         0         0         0
         0         0         0         0         0         0         0         0
         0         0         0         0         0         0         0         0
         0         0         0         0         0         0         0         0
         0         0         0         0         0         0         0         0
         0         0         0         0         0         0         0         0
         0         0         0         0         0         0         0         0
         0         0         0         0         0         0         0         0
         0         0         0         0         0         0         0         0
         0         0         0         0         0         0         0         0
         0         0         0         0         0         0         0         0
         0         0         0         0         0         0         0         0
         0         0         0         0         0         0         0         0
         0         0         0         0         0         0         0         0
         0         0         0         0         0         0         0         0
         0         0         0         0         0         0         0         0
         0         0         0         0         0         0         0         0
         0         0         0         0         0         0         0         0
         0         0         0         0         0         0         0         0
         0         0         0         0         0         0         0         0
         0         0         0         0         0         0         0         0
         0         0         0         0         0         0         0         0
         0         0         0         0         0         0         0         0
         0         0         0         0         0         0         0         0
         0         0         0         0         0         0         0         0
         0         0         0         0         0         0         0         0
         0         0         0         0         0         0         0         0
         0         0         0         0         0         0         0         0
         0         0         0         0         0         0         0         0
         0         0         0         0         0         0         0         0
         0         0         0         0         0         0         0         0
         0         0         0         0         0         0         0         0
         0         0         0         0         0         0         0         0
         0         0         0         0         0         0         0         0
         0         0         0         0         0         0         0         0
         0         0         0         0         0         0         0         0
         0         0         0         0         0         0         0         0
         0         0         0         0         0         0         0         0
         0         0         0         0         0         0         0         0
         0         0         0         0         0         0         0         0
         0         0         0         0         0         0         0         0
         0         0         0         0         0         0         0         0
         0         0         0         0         0         0         0         0
         0         0         0         0         0         0         0         0
         0         0         0         0         0         0         0         0
         0         0         0         0         0         0         0         0
         0         0         0         0         0         0         0         0
         0         0         0         0         0         0         0         0
         0         0         0         0         0         0         0         0
         0         0         0         0         0         0         0         0
         0         0         0         0         0         0         0         0
         0         0         0         0         0         0         0         0
         0         0         0         0         0         0         0         0
         0         0         0         0         0         0         0         0
         0         0         0         0         0         0         0         0
         0         0         0         0         0         0         0         0
         0         0         0         0         0         0         0         0
         0         0         0         0         0         0         0         0
         0         0         0         0         0         0         0         0
         0         0         0         0         0         0         0         0
         0         0         0         0         0         0         0         0
         0         0         0         0         0         0         0         0
         0         0         0         0         0         0         0         0
         0         0         0         0         0         0         0         0
         0         0         0         0         0         0         0         0
         0         0         0         0         0         0         0         0
         0         0         0         0         0         0         0         0
         0         0         0         0         0         0         0         0
         0         0         0         0         0         0         0         0
         0         0         0         0         0         0         0         0
         0         0         0         0         0         0         0         0
         0         0         0         0         0         0         0         0
         0         0         0         0         0         0         0         0
         0         0         0         0         0         0         0         0
         0         0         0         0         0         0         0         0
         0         0         0         0         0         0         0         0
         0         0         0         0         0         0         0         0
         0         0         0         0         0         0         0         0
         0         0         0         0         0         0         0         0
         0         0         0         0         0         0         0         0
         0         0         0         0         0         0         0         0
         0         0         0         0         0         0         0         0
         0         0         0         0         0         0         0         0
         0         0         0         0         0         0         0         0
         0         0         0         0         0         0         0         0
         0         0         0         0         0         0         0         0
         0         0         0         0         0         0         0         0
         0         0         0         0         0         0         0         0
         0         0         0         0         0         0         0         0
         0         0         0         0         0         0         0         0
         0         0         0         0         0         0         0         0
         0         0         0         0         0         0         0         0
         0         0         0         0         0         0         0         0
         0         0         0         0         0         0         0         0
         0         0         0         0         0         0         0         0
         0         0         0         0         0         0         0         0
         0         0         0         0         0         0         0         0
         0         0         0         0         0         0         0         0
         0         0         0         0         0         0         0         0
         0         0         0         0         0         0         0         0
         0         0         0         0         0         0         0         0
         0         0         0         0         0         0         0         0
         0         0         0         0         0         0         0         0
         0         0         0         0         0         0         0         0
         0         0         0         0         0         0         0         0
         0         0         0         0         0         0         0         0
         0         0         0         0         0         0         0         0
         0         0         0         0         0         0         0         0
         0         0         0         0         0         0         0         0
         0         0         0         0         0         0         0         0
         0         0         0         0         0         0         0         0
         0         0         0         0         0         0         0         0
         0         0         0         0         0         0         0         0
         0         0         0         0         0         0         0         0
         0         0         0         0         0         0         0         0
         0         0         0         0         0         0         0         0
         0         0         0         0         0         0         0         0
         0         0         0         0         0         0         0         0
         0         0         0         0         0         0         0         0
         0         0         0         0         0         0         0         0
         0         0         0         0         0         0         0         0
         0         0         0         0         0         0         0         0
         0         0         0         0         0         0         0         0
         0         0         0         0         0         0         0         0
         0         0         0         0         0         0         0         0
         0         0         0         0         0         0         0         0
         0         0         0         0         0         0         0         0
         0         0         0         0         0         0         0         0
         0         0         0         0         0         0         0         0
         0         0         0         0         0         0         0         0
         0         0         0         0         0         0         0         0
         0         0         0         0         0         0         0         0
         0         0         0         0         0         0         0         0
         0         0         0         0         0         0         0         0
         0         0         0         0         0         0         0         0
         0         0         0         0         0         0         0         0
         0         0         0         0         0         0         0         0
         0         0         0         0         0         0         0         0
         0         0         0         0         0         0         0         0
         0         0         0         0         0         0         0         0
         0         0         0         0         0         0         0         0
         0         0         0         0         0         0         0         0
         0         0         0         0         0         0         0         0
         0         0         0         0         0         0         0         0
         0         0         0         0         0         0         0         0
         0         0         0         0         0         0         0         0
         0         0         0         0         0         0         0         0
         0         0         0         0         0         0         0         0
         0         0         0         0         0         0         0         0
         0         0         0         0         0         0         0         0
         0         0         0         0         0         0         0         0
         0         0         0         0         0         0         0         0
         0         0         0         0         0         0         0         0
         0         0         0         0         0         0         0         0
         0         0         0         0         0         0         0         0
         0         0         0         0         0         0         0         0
         0         0         0         0         0         0         0         0
         0         0         0         0         0         0         0         0
         0         0         0         0         0         0         0         0
         0         0         0         0         0         0         0         0
         0         0         0         0         0         0         0         0
         0         0         0         0         0         0         0         0
         0         0         0         0         0         0         0         0
         0         0         0         0         0         0         0         0
         0         0         0         0         0         0         0         0
         0         0         0         0         0         0         0         0
         0         0         0         0         0         0         0         0
         0         0         0         0         0         0         0         0
         0         0         0         0         0         0         0         0
         0         0         0         0         0         0         0         0
         0         0         0         0         0         0         0         0
         0         0         0         0         0         0         0         0
         0         0         0         0         0         0         0         0
         0         0         0         0         0         0         0         0
         0         0         0         0         0         0         0         0
         0         0         0         0         0         0         0         0
         0         0         0         0         0         0         0         0
         0         0         0         0         0         0         0         0
         0         0         0         0         0         0         0         0
         0         0         0         0         0         0         0         0
         0         0         0         0         0         0         0         0
         0         0         0         0         0         0         0         0
         0         0         0         0         0         0         0         0
         0         0         0         0         0         0         0         0
         0         0         0         0         0         0         0         0
         0         0         0         0         0         0         0         0
         0         0         0         0         0         0         0         0
         0         0         0         0         0         0         0         0
         0         0         0         0         0         0         0         0
         0         0         0         0         0         0         0         0
         0         0         0         0         0         0         0         0
         0         0         0         0         0         0         0         0
         0         0         0         0         0         0         0         0
         0         0         0         0         0         0         0         0
         0         0         0         0         0         0         0         0
         0         0         0         0         0         0         0         0
         0         0         0         0         0         0         0         0
         0         0         0         0         0         0         0         0
         0         0         0         0         0         0         0         0
         0         0         0         0         0         0         0         0
         0         0         0         0         0         0         0         0
         0         0         0         0         0         0         0         0
         0         0         0         0         0         0         0         0
         0         0         0         0         0         0         0         0
         0         0         0         0         0         0         0         0
         0         0         0         0         0         0         0         0
         0         0         0         0         0         0         0         0
         0         0         0         0         0         0         0         0
         0         0         0         0         0         0         0         0
         0         0         0         0         0         0         0         0
         0         0         0         0         0         0         0         0
         0         0         0         0         0         0         0         0
         0         0         0         0         0         0         0         0
         0         0         0         0         0         0         0         0
         0         0         0         0         0         0         0         0
         0         0         0         0         0         0         0         0
         0         0         0         0         0         0         0         0
         0         0         0         0         0         0         0         0
         0         0         0         0         0         0         0         0
         0         0         0         0         0         0         0         0
         0         0         0         0         0         0         0         0
         0         0         0         0         0         0         0         0
         0         0         0         0         0         0         0         0
         0         0         0         0         0         0         0         0
         0         0         0         0         0         0         0         0
         0         0         0         0         0         0         0         0
         0         0         0         0         0         0         0         0
         0         0         0         0         0         0         0         0
         0         0         0         0         0         0         0         0
         0         0         0         0         0         0         0         0
         0         0         0         0         0         0         0         0
         0         0         0         0         0         0         0         0
         0         0         0         0         0         0         0         0
         0         0         0         0         0         0         0         0
         0         0         0         0         0         0         0         0
         0         0         0         0         0         0         0         0
         0         0         0         0         0         0         0         0
         0         0         0         0         0         0         0         0
         0         0         0         0         0         0         0         0
         0         0         0         0         0         0         0         0
         0         0         0         0         0         0         0         0
         0         0         0         0         0         0         0         0
         0         0         0         0         0         0         0         0
         0         0         0         0         0         0         0         0
         0         0         0         0         0         0         0         0
         0         0         0         0         0         0         0         0
         0         0         0         0         0         0         0         0
         0         0         0         0         0         0         0         0
         0         0         0         0         0         0         0         0
         0         0         0         0         0         0         0         0
         0         0         0         0         0         0         0         0
         0         0         0         0         0         0         0         0
         0         0         0         0         0         0         0         0
         0         0         0         0         0         0         0         0
         0         0         0         0         0         0         0         0
         0         0         0         0         0         0         0         0
         0         0         0         0         0         0         0         0
         0         0         0         0         0         0         0         0
         0         0         0         0         0         0         0         0
         0         0         0         0         0         0         0         0
         0         0         0         0         0         0         0         0
         0         0         0         0         0         0         0         0
         0         0         0         0         0         0         0         0
         0         0         0         0         0         0         0         0
         0         0         0         0         0         0         0         0
         0         0         0         0         0         0         0         0
         0         0         0         0         0         0         0         0
         0         0         0         0         0         0         0         0
         0         0         0         0         0         0         0         0
         0         0         0         0         0         0         0         0
         0         0         0         0         0         0         0         0
         0         0         0         0         0         0         0         0
         0         0         0         0         0         0         0         0
         0         0         0         0         0         0         0         0
         0         0         0         0         0         0         0         0
         0         0         0         0         0         0         0         0
         0         0         0         0         0         0         0         0
         0         0         0         0         0         0         0         0
         0         0         0         0         0         0         0         0
         0         0         0         0         0         0         0         0
         0         0         0         0         0         0         0         0
         0         0         0         0         0         0         0         0
         0         0         0         0         0         0         0         0
         0         0         0         0         0         0         0         0
         0         0         0         0         0         0         0         0
         0         0         0         0         0         0         0         0
         0         0         0         0         0         0         0         0
         0         0         0         0         0         0         0         0
         0         0         0         0         0         0         0         0
         0         0         0         0         0         0         0         0
         0         0         0         0         0         0         0         0
         0         0         0         0         0         0         0         0
         0         0         0         0         0         0         0         0
         0         0         0         0         0         0         0         0
         0         0         0         0         0         0         0         0
         0         0         0         0         0         0         0         0
         0         0         0         0         0         0         0         0
         0         0         0         0         0         0         0         0
         0         0         0         0         0         0         0         0
         0         0         0         0         0         0         0         0
         0         0         0         0         0         0         0         0
         0         0         0         0         0         0         0         0
         0         0         0         0         0         0         0         0
         0         0         0         0         0         0         0         0
         0         0         0         0         0         0         0         0
         0         0         0         0         0         0         0         0
         0         0         0         0         0         0         0         0
         0         0         0         0         0         0         0         0
         0         0         0         0         0         0         0         0
         0         0         0         0         0         0         0         0
         0         0         0         0         0         0         0         0
         0         0         0         0         0         0         0         0
         0         0         0         0         0         0         0         0
         0         0         0         0         0         0         0         0
         0         0         0         0         0         0         0         0
         0         0         0         0         0         0         0         0
         0         0         0         0         0         0         0         0
         0         0         0         0         0         0         0         0
         0         0         0         0         0         0         0         0
         0         0         0         0         0         0         0         0
         0         0         0         0         0         0         0         0
         0         0         0         0         0         0         0         0
         0         0         0         0         0         0         0         0
         0         0         0         0         0         0         0         0
         0         0         0         0         0         0         0         0
         0         0         0         0         0         0         0         0
         0         0         0         0         0         0         0         0
         0         0         0         0         0         0         0         0
         0         0         0         0         0         0         0         0
         0         0         0         0         0         0         0         0
         0         0         0         0         0         0         0         0
         0         0         0         0         0         0         0         0
         0         0         0         0         0         0         0         0
         0         0         0         0         0         0         0         0
         0         0         0         0         0         0         0         0
         0         0         0         0         0         0         0         0
         0         0         0         0         0         0         0         0
         0         0         0         0         0         0         0         0
         0         0         0         0         0         0         0         0
         0         0         0         0         0         0         0         0
         0         0         0         0         0         0         0         0
         0         0         0         0         0         0         0         0
         0         0         0         0         0         0         0         0
         0         0         0         0         0         0         0         0
         0         0         0         0         0         0         0         0
         0         0         0         0         0         0         0         0
         0         0         0         0         0         0         0         0
         0         0         0         0         0         0         0         0
         0         0         0         0         0         0         0         0
         0         0         0         0         0         0         0         0
         0         0         0         0         0         0         0         0
         0         0         0         0         0         0         0         0
         0         0         0         0         0         0         0         0
         0         0         0         0         0         0         0         0
         0         0         0         0         0         0         0         0
         0         0         0         0         0         0         0         0
         0         0         0         0         0         0         0         0
         0         0         0         0         0         0         0         0
         0         0         0         0         0         0         0         0
         0         0         0         0         0         0         0         0
         0         0         0         0         0         0         0         0
         0         0         0         0         0         0         0         0
         0         0         0         0         0         0         0         0
         0         0         0         0         0         0         0         0
         0         0         0         0         0         0         0         0
         0         0         0         0         0         0         0         0
         0         0         0         0         0         0         0         0
         0         0         0         0         0         0         0         0
         0         0         0         0         0         0         0         0
         0         0         0         0         0         0         0         0
         0         0         0         0         0         0         0         0
         0         0         0         0         0         0         0         0
         0         0         0         0         0         0         0         0
         0         0         0         0         0         0         0         0
         0         0         0         0         0         0         0         0
         0         0         0         0         0         0         0         0
         0         0         0         0         0         0         0         0
         0         0         0         0         0         0         0         0
         0         0         0         0         0         0         0         0
         0         0         0         0         0         0         0         0
         0         0         0         0         0         0         0         0
         0         0         0         0         0         0         0         0
         0         0         0         0         0         0         0         0
         0         0         0         0         0         0         0         0
         0         0         0         0         0         0         0         0
         0         0         0         0         0         0         0         0
         0         0         0         0         0         0         0         0
         0         0         0         0         0         0         0         0
         0         0         0         0         0         0         0         0
         0         0         0         0         0         0         0         0
         0         0         0         0         0         0         0         0
         0         0         0         0         0         0         0         0
         0         0         0         0         0         0         0         0
         0         0         0         0         0         0         0         0
         0         0         0         0         0         0         0         0
         0         0         0         0         0         0         0         0
         0         0         0         0         0         0         0         0
         0         0         0         0         0         0         0         0
         0         0         0         0         0         0         0         0
         0         0         0         0         0         0         0         0
         0         0         0         0         0         0         0         0
         0         0         0         0         0         0         0         0
         0         0         0         0         0         0         0         0
         0         0         0         0         0         0         0         0
         0         0         0         0         0         0         0         0
         0         0         0         0         0         0         0         0
         0         0         0         0         0         0         0         0
         0         0         0         0         0         0         0         0
         0         0         0         0         0         0         0         0
         0         0         0         0         0         0         0         0
         0         0         0         0         0         0         0         0
         0         0         0         0         0         0         0         0
         0         0         0         0         0         0         0         0
         0         0         0         0         0         0         0         0
         0         0         0         0         0         0         0         0
         0         0         0         0         0         0         0         0
         0         0         0         0         0         0         0         0
         0         0         0         0         0         0         0         0
         0         0         0         0         0         0         0         0
         0         0         0         0         0         0         0         0
         0         0         0         0         0         0         0         0
         0         0         0         0         0         0         0         0
         0         0         0         0         0         0         0         0
         0         0         0         0         0         0         0         0
         0         0         0         0         0         0         0         0
         0         0         0         0         0         0         0         0
         0         0         0         0         0         0         0         0
         0         0         0         0         0         0         0         0
         0         0         0         0         0         0         0         0
         0         0         0         0         0         0         0         0
         0         0         0         0         0         0         0         0
         0         0         0         0         0         0         0         0
         0         0         0         0         0         0         0         0
         0         0         0         0         0         0         0         0
         0         0         0         0         0         0         0         0
         0         0         0         0         0         0         0         0
         0         0         0         0         0         0         0         0
         0         0         0         0         0         0         0         0
         0         0         0         0         0         0         0         0
         0         0         0         0         0         0         0         0
         0         0         0         0         0         0         0         0
         0         0         0         0         0         0         0         0
         0         0         0         0         0         0         0         0
         0         0         0         0         0         0         0         0
         0         0         0         0         0         0         0         0
         0         0         0         0         0         0         0         0
         0         0         0         0         0         0         0         0
         0         0         0         0         0         0         0         0
         0         0         0         0         0         0         0         0
         0         0         0         0         0         0         0         0
         0         0         0         0         0         0         0         0
         0         0         0         0         0         0         0         0
         0         0         0         0         0         0         0         0
         0         0         0         0         0         0         0         0
         0         0         0         0         0         0         0         0
         0         0         0         0         0         0         0         0
         0         0         0         0         0         0         0         0
         0         0         0         0         0         0         0         0
         0         0         0         0         0         0         0         0
         0         0         0         0         0         0         0         0
         0         0         0         0         0         0         0         0
         0         0         0         0         0         0         0         0
         0         0         0         0         0         0         0         0
         0         0         0         0         0         0         0         0
         0         0         0         0         0         0         0         0
         0         0         0         0         0         0         0         0
         0         0         0         0         0         0         0         0
         0         0         0         0         0         0         0         0
         0         0         0         0         0         0         0         0
         0         0         0         0         0         0         0         0
         0         0         0         0         0         0         0         0
         0         0         0         0         0         0         0         0
         0         0         0         0         0         0         0         0
         0         0         0         0         0         0         0         0
         0         0         0         0         0         0         0         0
         0         0         0         0         0         0         0         0
         0         0         0         0         0         0         0         0
         0         0         0         0         0         0         0         0
         0         0         0         0         0         0         0         0
         0         0         0         0         0         0         0         0
         0         0         0         0         0         0         0         0
         0         0         0         0         0         0         0         0
         0         0         0         0         0         0         0         0
         0         0         0         0         0         0         0         0
         0         0         0         0         0         0         0         0
         0         0         0         0         0         0         0         0
         0         0         0         0         0         0         0         0
         0         0         0         0         0         0         0         0
         0         0         0         0         0         0         0         0
         0         0         0         0         0         0         0         0
         0         0         0         0         0         0         0         0
         0         0         0         0         0         0         0         0
         0         0         0         0         0         0         0         0
         0         0         0         0         0         0         0         0
         0         0         0         0         0         0         0         0
         0         0         0         0         0         0         0         0
         0         0         0         0         0         0         0         0
         0         0         0         0         0         0         0         0
         0         0         0         0         0         0         0         0
         0         0         0         0         0         0         0         0
         0         0         0         0         0         0         0         0
         0         0         0         0         0         0         0         0
         0         0         0         0         0         0         0         0
         0         0         0         0         0         0         0         0
         0         0         0         0         0         0         0         0
         0         0         0         0         0         0         0         0
         0         0         0         0         0         0         0         0
         0         0         0         0         0         0         0         0
         0         0         0         0         0         0         0         0
         0         0         0         0         0         0         0         0
         0         0         0         0         0         0         0         0
         0         0         0         0         0         0         0         0
         0         0         0         0         0         0         0         0
         0         0         0         0         0         0         0         0
         0         0         0         0         0         0         0         0
         0         0         0         0         0         0         0         0
         0         0         0         0         0         0         0         0
         0         0         0         0         0         0         0         0
         0         0         0         0         0         0         0         0
         0         0         0         0         0         0         0         0
         0         0         0         0         0         0         0         0
         0         0         0         0         0         0         0         0
         0         0         0         0         0         0         0         0
         0         0         0         0         0         0         0         0
         0         0         0         0         0         0         0         0
         0         0         0         0         0         0         0         0
         0         0         0         0         0         0         0         0
         0         0         0         0         0         0         0         0
         0         0         0         0         0         0         0         0
         0         0         0         0         0         0         0         0
         0         0         0         0         0         0         0         0
         0         0         0         0         0         0         0         0
         0         0         0         0         0         0         0         0
         0         0         0         0         0         0         0         0
         0         0         0         0         0         0         0         0
         0         0         0         0         0         0         0         0
         0         0         0         0         0         0         0         0
         0         0         0         0         0         0         0         0
         0         0         0         0         0         0         0         0
         0         0         0         0         0         0         0         0
         0         0         0         0         0         0         0         0
         0         0         0         0         0         0         0         0
         0         0         0         0         0         0         0         0
         0         0         0         0         0         0         0         0
         0         0         0         0         0         0         0         0
         0         0         0         0         0         0         0         0
         0         0         0         0         0         0         0         0
         0         0         0         0         0         0         0         0
         0         0         0         0         0         0         0         0
         0         0         0         0         0         0         0         0
         0         0         0         0         0         0         0         0
         0         0         0         0         0         0         0         0
         0         0         0         0         0         0         0         0
         0         0         0         0         0         0         0         0
         0         0         0         0         0         0         0         0
         0         0         0         0         0         0         0         0
         0         0         0         0         0         0         0         0
         0         0         0         0         0         0         0         0
         0         0         0         0         0         0         0         0
         0         0         0         0         0         0         0         0
         0         0         0         0         0         0         0         0
         0         0         0         0         0         0         0         0
         0         0         0         0         0         0         0         0
         0         0         0         0         0         0         0         0
         0         0         0         0         0         0         0         0
         0         0         0         0         0         0         0         0
         0         0         0         0         0         0         0         0
         0         0         0         0         0         0         0         0
         0         0         0         0         0         0         0         0
         0         0         0         0         0         0         0         0
         0         0         0         0         0         0         0         0
         0         0         0         0         0         0         0         0
         0         0         0         0         0         0         0         0
         0         0         0         0         0         0         0         0
         0         0         0         0         0         0         0         0
         0         0         0         0         0         0         0         0
         0         0         0         0         0         0         0         0
         0         0         0         0         0         0         0         0
         0         0         0         0         0         0         0         0
         0         0         0         0         0         0         0         0
         0         0         0         0         0         0         0         0
         0         0         0         0         0         0         0         0
         0         0         0         0         0         0         0         0
         0         0         0         0         0         0         0         0
         0         0         0         0         0         0         0         0
         0         0         0         0         0         0         0         0
         0         0         0         0         0         0         0         0
         0         0         0         0         0         0         0         0
         0         0         0         0         0         0         0         0
         0         0         0         0         0         0         0         0
         0         0         0         0         0         0         0         0
         0         0         0         0         0         0         0         0
         0         0         0         0         0         0         0         0
         0         0         0         0         0         0         0         0
         0         0         0         0         0         0         0         0
         0         0         0         0         0         0         0         0
         0         0         0         0         0         0         0         0
         0         0         0         0         0         0         0         0
         0         0         0         0         0         0         0         0
         0         0         0         0         0         0         0         0
         0         0         0         0         0         0         0         0
         0         0         0         0         0         0         0         0
         0         0         0         0         0         0         0         0
         0         0         0         0         0         0         0         0
         0         0         0         0         0         0         0         0
         0         0         0         0         0         0         0         0
         0         0         0         0         0         0         0         0
         0         0         0         0         0         0         0         0
         0         0         0         0         0         0         0         0
         0         0         0         0         0         0         0         0
         0         0         0         0         0         0         0         0
         0         0         0         0         0         0         0         0
         0         0         0         0         0         0         0         0
         0         0         0         0         0         0         0         0
         0         0         0         0         0         0         0         0
         0         0         0         0         0         0         0         0
         0         0         0         0         0         0         0         0
         0         0         0         0         0         0         0         0
         0         0         0         0         0         0         0         0
         0         0         0         0         0         0         0         0
         0         0         0         0         0         0         0         0
         0         0         0         0         0         0         0         0
         0         0         0         0         0         0         0         0
         0         0         0         0         0         0         0         0
         0         0         0         0         0         0         0         0
         0         0         0         0         0         0         0         0
         0         0         0         0         0         0         0         0
         0         0         0         0         0         0         0         0
         0         0         0         0         0         0         0         0
         0         0         0         0         0         0         0         0
         0         0         0         0         0         0         0         0
         0         0         0         0         0         0         0         0
         0         0         0         0         0         0         0         0
         0         0         0         0         0         0         0         0
         0         0         0         0         0         0         0         0
         0         0         0         0         0         0         0         0
         0         0         0         0         0         0         0         0
         0         0         0         0         0         0         0         0
         0         0         0         0         0         0         0         0
         0         0         0         0         0         0         0         0
         0         0         0         0         0         0         0         0
         0         0         0         0         0         0         0         0
         0         0         0         0         0         0         0         0
         0         0         0         0         0         0         0         0
         0         0         0         0         0         0         0         0
         0         0         0         0         0         0         0         0
         0         0         0         0         0         0         0         0
         0         0         0         0         0         0         0         0
         0         0         0         0         0         0         0         0
         0         0         0         0         0         0         0         0
         0         0         0         0         0         0         0         0
         0         0         0         0         0         0         0         0
         0         0         0         0         0         0         0         0
         0         0         0         0         0         0         0         0
         0         0         0         0         0         0         0         0
         0         0         0         0         0         0         0         0
         0         0         0         0         0         0         0         0
         0         0         0         0         0         0         0         0
         0         0         0         0         0         0         0         0
         0         0         0         0         0         0         0         0
         0         0         0         0         0         0         0         0
         0         0         0         0         0         0         0         0
         0         0         0         0         0         0         0         0
         0         0         0         0         0         0         0         0
         0         0         0         0         0         0         0         0
         0         0         0         0         0         0         0         0
         0         0         0         0         0         0         0         0
         0         0         0         0         0         0         0         0
         0         0         0         0         0         0         0         0
         0         0         0         0         0         0         0         0
         0         0         0         0         0         0         0         0
         0         0         0         0         0         0         0         0
         0         0         0         0         0         0         0         0
         0         0         0         0         0         0         0         0
         0         0         0         0         0         0         0         0
         0         0         0         0         0         0         0         0
         0         0         0         0         0         0         0         0
         0         0         0         0         0         0         0         0
         0         0         0         0         0         0         0         0
         0         0         0         0         0         0         0         0
         0         0         0         0         0         0         0         0
         0         0         0         0         0         0         0         0
         0         0         0         0         0         0         0         0
         0         0         0         0         0         0         0         0
         0         0         0         0         0         0         0         0
         0         0         0         0         0         0         0         0
         0         0         0         0         0         0         0         0
         0         0         0         0         0         0         0         0
         0         0         0         0         0         0         0         0
         0         0         0         0         0         0         0         0
         0         0         0         0         0         0         0         0
         0         0         0         0         0         0         0         0
         0         0         0         0         0         0         0         0
         0         0         0         0         0         0         0         0
         0         0         0         0         0         0         0         0
         0         0         0         0         0         0         0         0
         0         0         0         0         0         0         0         0
         0         0         0         0         0         0         0         0
         0         0         0         0         0         0         0         0
         0         0         0         0         0         0         0         0
         0         0         0         0         0         0         0         0
         0         0         0         0         0         0         0         0
         0         0         0         0         0         0         0         0
         0         0         0         0         0         0         0         0
         0         0         0         0         0         0         0         0
         0         0         0         0         0         0         0         0
         0         0         0         0         0         0         0         0
         0         0         0         0         0         0         0         0
         0         0         0         0         0         0         0         0
         0         0         0         0         0         0         0         0
         0         0         0         0         0         0         0         0
         0         0         0         0         0         0         0         0
         0         0         0         0         0         0         0         0
         0         0         0         0         0         0         0         0
         0         0         0         0         0         0         0         0
         0         0         0         0         0         0         0         0
         0         0         0         0         0         0         0         0
         0         0         0         0         0         0         0         0
         0         0         0         0         0         0         0         0
         0         0         0         0         0         0         0         0
         0         0         0         0         0         0         0         0
         0         0         0         0         0         0         0         0
         0         0         0         0         0         0         0         0
         0         0         0         0         0         0         0         0
         0         0         0         0         0         0         0         0
         0         0         0         0         0         0         0         0
         0         0         0         0         0         0         0         0
         0         0         0         0         0         0         0         0
         0         0         0         0         0         0         0         0
         0         0         0         0         0         0         0         0
         0         0         0         0         0         0         0         0
         0         0         0         0         0         0         0         0
         0         0         0         0         0         0         0         0
         0         0         0         0         0         0         0         0
         0         0         0         0         0         0         0         0
         0         0         0         0         0         0         0         0
         0         0         0         0         0         0         0         0
         0         0         0         0         0         0         0         0
         0         0         0         0         0         0         0         0
         0         0         0         0         0         0         0         0
         0         0         0         0         0         0         0         0
         0         0         0         0         0         0         0         0
         0         0         0         0         0         0         0         0
         0         0         0         0         0         0         0         0
         0         0         0         0         0         0         0         0
         0         0         0         0         0         0         0         0
         0         0         0         0         0         0         0         0
         0         0         0         0         0         0         0         0
         0         0         0         0         0         0         0         0
         0         0         0         0         0         0         0         0
         0         0         0         0         0         0         0         0
         0         0         0         0         0         0         0         0
         0         0         0         0         0         0         0         0
         0         0         0         0         0         0         0         0
         0         0         0         0         0         0         0         0
         0         0         0         0         0         0         0         0
         0         0         0         0         0         0         0         0
         0         0         0         0         0         0         0         0
         0         0         0         0         0         0         0         0
         0         0         0         0         0         0         0         0
         0         0         0         0         0         0         0         0
         0         0         0         0         0         0         0         0
         0         0         0         0         0         0         0         0
         0         0         0         0         0         0         0         0
         0         0         0         0         0         0         0         0
         0         0         0         0         0         0         0         0
         0         0         0         0         0         0         0         0
         0         0         0         0         0         0         0         0
         0         0         0         0         0         0         0         0
         0         0         0         0         0         0         0         0
         0         0         0         0         0         0         0         0
         0         0         0         0         0         0         0         0
         0         0         0         0         0         0         0         0
         0         0         0         0         0         0         0         0
         0         0         0         0         0         0         0         0
         0         0         0         0         0         0         0         0
         0         0         0         0         0         0         0         0
         0         0         0         0         0         0         0         0
         0         0         0         0         0         0         0         0
         0         0         0         0         0         0         0         0
         0         0         0         0         0         0         0         0
         0         0         0         0         0         0         0         0
         0         0         0         0         0         0         0         0
         0         0         0         0         0         0         0         0
         0         0         0         0         0         0         0         0
         0         0         0         0         0         0         0         0
         0         0         0         0         0         0         0         0
         0         0         0         0         0         0         0         0
         0         0         0         0         0         0         0         0
         0         0         0         0         0         0         0         0
         0         0         0         0         0         0         0         0
         0         0         0         0         0         0         0         0
         0         0         0         0         0         0         0         0
         0         0         0         0         0         0         0         0
         0         0         0         0         0         0         0         0
         0         0         0         0         0         0         0         0
         0         0         0         0         0         0         0         0
         0         0         0         0         0         0         0         0
         0         0         0         0         0         0         0         0
         0         0         0         0         0         0         0         0
         0         0         0         0         0         0         0         0
         0         0         0         0         0         0         0         0
         0         0         0         0         0         0         0         0
         0         0         0         0         0         0         0         0
         0         0         0         0         0         0         0         0
         0         0         0         0         0         0         0         0
         0         0         0         0         0         0         0         0
         0         0         0         0         0         0         0         0
         0         0         0         0         0         0         0         0
         0         0         0         0         0         0         0         0
         0         0         0         0         0         0         0         0
         0         0         0         0         0         0         0         0
         0         0         0         0         0         0         0         0
         0         0         0         0         0         0         0         0
         0         0         0         0         0         0         0         0
         0         0         0         0         0         0         0         0
         0         0         0         0         0         0         0         0
         0         0         0         0         0         0         0         0
         0         0         0         0         0         0         0         0
         0         0         0         0         0         0         0         0
         0         0         0         0         0         0         0         0
         0         0         0         0         0         0         0         0
         0         0         0         0         0         0         0         0
         0         0         0         0         0         0         0         0
         0         0         0         0         0         0         0         0
         0         0         0         0         0         0         0         0
         0         0         0         0         0         0         0         0
         0         0         0         0         0         0         0         0
         0         0         0         0         0         0         0         0
         0         0         0         0         0         0         0         0
         0         0         0         0         0         0         0         0
         0         0         0         0         0         0         0         0
         0         0         0         0         0         0         0         0
         0         0         0         0         0         0         0         0
         0         0         0         0         0         0         0         0
         0         0         0         0         0         0         0         0
         0         0         0         0         0         0         0         0
         0         0         0         0         0         0         0         0
         0         0         0         0         0         0         0         0
         0         0         0         0         0         0         0         0
         0         0         0         0         0         0         0         0
         0         0         0         0         0         0         0         0
         0         0         0         0         0         0         0         0
         0         0         0         0         0         0         0         0
         0         0         0         0         0         0         0         0
         0         0         0         0         0         0         0         0
         0         0         0         0         0         0         0         0
         0         0         0         0         0         0         0         0
         0         0         0         0         0         0         0         0
         0         0         0         0         0         0         0         0
         0         0         0         0         0         0         0         0
         0         0         0         0         0         0         0         0
         0         0         0         0         0         0         0         0
         0         0         0         0         0         0         0         0
         0         0         0         0         0         0         0         0
         0         0         0         0         0         0         0         0
         0         0         0         0         0         0         0         0
         0         0         0         0         0         0         0         0
         0         0         0         0         0         0         0         0
         0         0         0         0         0         0         0         0
         0         0         0         0         0         0         0         0
         0         0         0         0         0         0         0         0
         0         0         0         0         0         0         0         0
         0         0         0         0         0         0         0         0
         0         0         0         0         0         0         0         0
         0         0         0         0         0         0         0         0
         0         0         0         0         0         0         0         0
         0         0         0         0         0         0         0         0
         0         0         0         0         0         0         0         0
         0         0         0         0         0         0         0         0
         0         0         0         0         0         0         0         0
         0         0         0         0         0         0         0         0
         0         0         0         0         0         0         0         0
         0         0         0         0         0         0         0         0
         0         0         0         0         0         0         0         0
         0         0         0         0         0         0         0         0
         0         0         0         0         0         0         0         0
         0         0         0         0         0         0         0         0
         0         0         0         0         0         0         0         0
         0         0         0         0         0         0         0         0
         0         0         0         0         0         0         0         0
         0         0         0         0         0         0         0         0
         0         0         0         0         0         0         0         0
         0         0         0         0         0         0         0         0
         0         0         0         0         0         0         0         0
         0         0         0         0         0         0         0         0
         0         0         0         0         0         0         0         0
         0         0         0         0         0         0         0         0
         0         0         0         0         0         0         0         0
         0         0         0         0         0         0         0         0
         0         0         0         0         0         0         0         0
         0         0         0         0         0         0         0         0
         0         0         0         0         0         0         0         0
         0         0         0         0         0         0         0         0
         0         0         0         0         0         0         0         0
         0         0         0         0         0         0         0         0
         0         0         0         0         0         0         0         0
         0         0         0         0         0         0         0         0
         0         0         0         0         0         0         0         0
         0         0         0         0         0         0         0         0
         0         0         0         0         0         0         0         0
         0         0         0         0         0         0         0         0
         0         0         0         0         0         0         0         0
         0         0         0         0         0         0         0         0
         0         0         0         0         0         0         0         0
         0         0         0         0         0         0         0         0
         0         0         0         0         0         0         0         0
         0         0         0         0         0         0         0         0
         0         0         0         0         0         0         0         0
         0         0         0         0         0         0         0         0
         0         0         0         0         0         0         0         0
         0         0         0         0         0         0         0         0
         0         0         0         0         0         0         0         0
         0         0         0         0         0         0         0         0
         0         0         0         0         0         0         0         0
         0         0         0         0         0         0         0         0
         0         0         0         0         0         0         0         0
         0         0         0         0         0         0         0         0
         0         0         0         0         0         0         0         0
         0         0         0         0         0         0         0         0
         0         0         0         0         0         0         0         0
         0         0         0         0         0         0         0         0
         0         0         0         0         0         0         0         0
         0         0         0         0         0         0         0         0
         0         0         0         0         0         0         0         0
         0         0         0         0         0         0         0         0
         0         0         0         0         0         0         0         0
         0         0         0         0         0         0         0         0
         0         0         0         0         0         0         0         0
         0         0         0         0         0         0         0         0
         0         0         0         0         0         0         0         0
         0         0         0         0         0         0         0         0
         0         0         0         0         0         0         0         0
         0         0         0         0         0         0         0         0
         0         0         0         0         0         0         0         0
         0         0         0         0         0         0         0         0
         0         0         0         0         0         0         0         0
         0         0         0         0         0         0         0         0
         0         0         0         0         0         0         0         0
         0         0         0         0         0         0         0         0
         0         0         0         0         0         0         0         0
         0         0         0         0         0         0         0         0
         0         0         0         0         0         0         0         0
         0         0         0         0         0         0         0         0
         0         0         0         0         0         0         0         0
         0         0         0         0         0         0         0         0
         0         0         0         0         0         0         0         0
         0         0         0         0         0         0         0         0
         0         0         0         0         0         0         0         0
         0         0         0         0         0         0         0         0
         0         0         0         0         0         0         0         0
         0         0         0         0         0         0         0         0
         0         0         0         0         0         0         0         0
         0         0         0         0         0         0         0         0
         0         0         0         0         0         0         0         0
         0         0         0         0         0         0         0         0
         0         0         0         0         0         0         0         0
         0         0         0         0         0         0         0         0
         0         0         0         0         0         0         0         0
         0         0         0         0         0         0         0         0
         0         0         0         0         0         0         0         0
         0         0         0         0         0         0         0         0
         0         0         0         0         0         0         0         0
         0         0         0         0         0         0         0         0
         0         0         0         0         0         0         0         0
         0         0         0         0         0         0         0         0
         0         0         0         0         0         0         0         0
         0         0         0         0         0         0         0         0
         0         0         0         0         0         0         0         0
         0         0         0         0         0         0         0         0
         0         0         0         0         0         0         0         0
         0         0         0         0         0         0         0         0
         0         0         0         0         0         0         0         0
         0         0         0         0         0         0         0         0
         0         0         0         0         0         0         0         0
         0         0         0         0         0         0         0         0
         0         0         0         0         0         0         0         0
         0         0         0         0         0         0         0         0
         0         0         0         0         0         0         0         0
         0         0         0         0         0         0         0         0
         0         0         0         0         0         0         0         0
         0         0         0         0         0         0         0         0
         0         0         0         0         0         0         0         0
         0         0         0         0         0         0         0         0
         0         0         0         0         0         0         0         0
         0         0         0         0         0         0         0         0
         0         0         0         0         0         0         0         0
         0         0         0         0         0         0         0         0
         0         0         0         0         0         0         0         0
         0         0         0         0         0         0         0         0
         0         0         0         0         0         0         0         0
         0         0         0         0         0         0         0         0
         0         0         0         0         0         0         0         0
         0         0         0         0         0         0         0         0
         0         0         0         0         0         0         0         0
         0         0         0         0         0         0         0         0
         0         0         0         0         0         0         0         0
         0         0         0         0         0         0         0         0
         0         0         0         0         0         0         0         0
         0         0         0         0         0         0         0         0
         0         0         0         0         0         0         0         0
         0         0         0         0         0         0         0         0
         0         0         0         0         0         0         0         0
         0         0         0         0         0         0         0         0
         0         0         0         0         0         0         0         0
         0         0         0         0         0         0         0         0
         0         0         0         0         0         0         0         0
         0         0         0         0         0         0         0         0
         0         0         0         0         0         0         0         0
         0         0         0         0         0         0         0         0
         0         0         0         0         0         0         0         0
         0         0         0         0         0         0         0         0
         0         0         0         0         0         0         0         0
         0         0         0         0         0         0         0         0
         0         0         0         0         0         0         0         0
         0         0         0         0         0         0         0         0
         0         0         0         0         0         0         0         0
         0         0         0         0         0         0         0         0
         0         0         0         0         0         0         0         0
         0         0         0         0         0         0         0         0
         0         0         0         0         0         0         0         0
         0         0         0         0         0         0         0         0
         0         0         0         0         0         0         0         0
         0         0         0         0         0         0         0         0
         0         0         0         0         0         0         0         0
         0         0         0         0         0         0         0         0
         0         0         0         0         0         0         0         0
         0         0         0         0         0         0         0         0
         0         0         0         0         0         0         0         0
         0         0         0         0         0         0         0         0
         0         0         0         0         0         0         0         0
         0         0         0         0         0         0         0         0
         0         0         0         0         0         0         0         0
         0         0         0         0         0         0         0         0
         0         0         0         0         0         0         0         0
         0         0         0         0         0         0         0         0
         0         0         0         0         0         0         0         0
         0         0         0         0         0         0         0         0
         0         0         0         0         0         0         0         0
         0         0         0         0         0         0         0         0
         0         0         0         0         0         0         0         0
         0         0         0         0         0         0         0         0
         0         0         0         0         0         0         0         0
         0         0         0         0         0         0         0         0
         0         0         0         0         0         0         0         0
         0         0         0         0         0         0         0         0
         0         0         0         0         0         0         0         0
         0         0         0         0         0         0         0         0
         0         0         0         0         0         0         0         0
         0         0         0         0         0         0         0         0
         0         0         0         0         0         0         0         0
         0         0         0         0         0         0         0         0
         0         0         0         0         0         0         0         0
         0         0         0         0         0         0         0         0
         0         0         0         0         0         0         0         0
         0         0         0         0         0         0         0         0
         0         0         0         0         0         0         0         0
         0         0         0         0         0         0         0         0
         0         0         0         0         0         0         0         0
         0         0         0         0         0         0         0         0
         0         0         0         0         0         0         0         0
         0         0         0         0         0         0         0         0
         0         0         0         0         0         0         0         0
         0         0         0         0         0         0         0         0
         0         0         0         0         0         0         0         0
         0         0         0         0         0         0         0         0
         0         0         0         0         0         0         0         0
         0         0         0         0         0         0         0         0
         0         0         0         0         0         0         0         0
         0         0         0         0         0         0         0         0
         0         0         0         0         0         0         0         0
         0         0         0         0         0         0         0         0
         0         0         0         0         0         0         0         0
         0         0         0         0         0         0         0         0
         0         0         0         0         0         0         0         0
         0         0         0         0         0         0         0         0
         0         0         0         0         0         0         0         0
         0         0         0         0         0         0         0         0
         0         0         0         0         0         0         0         0
         0         0         0         0         0         0         0         0
         0         0         0         0         0         0         0         0
         0         0         0         0         0         0         0         0
         0         0         0         0         0         0         0         0
         0         0         0         0         0         0         0         0
         0         0         0         0         0         0         0         0
         0         0         0         0         0         0         0         0
         0         0         0         0         0         0         0         0
         0         0         0         0         0         0         0         0
         0         0         0         0         0         0         0         0
         0         0         0         0         0         0         0         0
         0         0         0         0         0         0         0         0
         0         0         0         0         0         0         0         0
         0         0         0         0         0         0         0         0
         0         0         0         0         0         0         0         0
         0         0         0         0         0         0         0         0
         0         0         0         0         0         0         0         0
         0         0         0         0         0         0         0         0
         0         0         0         0         0         0         0         0
         0         0         0         0         0         0         0         0
         0         0         0         0         0         0         0         0
         0         0         0         0         0         0         0         0
         0         0         0         0         0         0         0         0
         0         0         0         0         0         0         0         0
         0         0         0         0         0         0         0         0
         0         0         0         0         0         0         0         0
         0         0         0         0         0         0         0         0
         0         0         0         0         0         0         0         0
         0         0         0         0         0         0         0         0
         0         0         0         0         0         0         0         0
         0         0         0         0         0         0         0         0
         0         0         0         0         0         0         0         0
         0         0         0         0         0         0         0         0
         0         0         0         0         0         0         0         0
         0         0         0         0         0         0         0         0
         0         0         0         0         0         0         0         0
         0         0         0         0         0         0         0         0
         0         0         0         0         0         0         0         0
         0         0         0         0         0         0         0         0
         0         0         0         0         0         0         0         0
         0         0         0         0         0         0         0         0
         0         0         0         0         0         0         0         0
         0         0         0         0         0         0         0         0
         0         0         0         0         0         0         0         0
         0         0         0         0         0         0         0         0
         0         0         0         0         0         0         0         0
         0         0         0         0         0         0         0         0
         0         0         0         0         0         0         0         0
         0         0         0         0         0         0         0         0
         0         0         0         0         0         0         0         0
         0         0         0         0         0         0         0         0
         0         0         0         0         0         0         0         0
         0         0         0         0         0         0         0         0
         0         0         0         0         0         0         0         0
         0         0         0         0         0         0         0         0
         0         0         0         0         0         0         0         0
         0         0         0         0         0         0         0         0
         0         0         0         0         0         0         0         0
         0         0         0         0         0         0         0         0
         0         0         0         0         0         0         0         0
         0         0         0         0         0         0         0         0
         0         0         0         0         0         0         0         0
         0         0         0         0         0         0         0         0
         0         0         0         0         0         0         0         0
         0         0         0         0         0         0         0         0
         0         0         0         0         0         0         0         0
         0         0         0         0         0         0         0         0
         0         0         0         0         0         0         0         0
         0         0         0         0         0         0         0         0
         0         0         0         0         0         0         0         0
         0         0         0         0         0         0         0         0
         0         0         0         0         0         0         0         0
         0         0         0         0         0         0         0         0
         0         0         0         0         0         0         0         0
         0         0         0         0         0         0         0         0
         0         0         0         0         0         0         0         0
         0         0         0         0         0         0         0         0
         0         0         0         0         0         0         0         0
         0         0         0         0         0         0         0         0
         0         0         0         0         0         0         0         0
         0         0         0         0         0         0         0         0
         0         0         0         0         0         0         0         0
         0         0         0         0         0         0         0         0
         0         0         0         0         0         0         0         0
         0         0         0         0         0         0         0         0
         0         0         0         0         0         0         0         0
         0         0         0         0         0         0         0         0
         0         0         0         0         0         0         0         0
         0         0         0         0         0         0         0         0
         0         0         0         0         0         0         0         0
         0         0         0         0         0         0         0         0
         0         0         0         0         0         0         0         0
         0         0         0         0         0         0         0         0
         0         0         0         0         0         0         0         0
         0         0         0         0         0         0         0         0
         0         0         0         0         0         0         0         0
         0         0         0         0         0         0         0         0
         0         0         0         0         0         0         0         0
         0         0         0         0         0         0         0         0
         0         0         0         0         0         0         0         0
         0         0         0         0         0         0         0         0
         0         0         0         0         0         0         0         0
         0         0         0         0         0         0         0         0
         0         0         0         0         0         0         0         0
         0         0         0         0         0         0         0         0
         0         0         0         0         0         0         0         0
         0         0         0         0         0         0         0         0
         0         0         0         0         0         0         0         0
         0         0         0         0         0         0         0         0
         0         0         0         0         0         0         0         0
         0         0         0         0         0         0         0         0
         0         0         0         0         0         0         0         0
         0         0         0         0         0         0         0         0
         0         0         0         0         0         0         0         0
         0         0         0         0         0         0         0         0
         0         0         0         0         0         0         0         0
         0         0         0         0         0         0         0         0
         0         0         0         0         0         0         0         0
         0         0         0         0         0         0         0         0
         0         0         0         0         0         0         0         0
         0         0         0         0         0         0         0         0
         0         0         0         0         0         0         0         0
         0         0         0         0         0         0         0         0
         0         0         0         0         0         0         0         0
         0         0         0         0         0         0         0         0
         0         0         0         0         0         0         0         0
         0         0         0         0         0         0         0         0
         0         0         0         0         0         0         0         0
         0         0         0         0         0         0         0         0
         0         0         0         0         0         0         0         0
         0         0         0         0         0         0         0         0
         0         0         0         0         0         0         0         0
         0         0         0         0         0         0         0         0
         0         0         0         0         0         0         0         0
         0         0         0         0         0         0         0         0
         0         0         0         0         0         0         0         0
         0         0         0         0         0         0         0         0
         0         0         0         0         0         0         0         0
         0         0         0         0         0         0         0         0
         0         0         0         0         0         0         0         0
         0         0         0         0         0         0         0         0
         0         0         0         0         0         0         0         0
         0         0         0         0         0         0         0         0
         0         0         0         0         0         0         0         0
         0         0         0         0         0         0         0         0
         0         0         0         0         0         0         0         0
         0         0         0         0         0         0         0         0
         0         0         0         0         0         0         0         0
         0         0         0         0         0         0         0         0
         0         0         0         0         0         0         0         0
         0         0         0         0         0         0         0         0
         0         0         0         0         0         0         0         0
         0         0         0         0         0         0         0         0
         0         0         0         0         0         0         0         0
         0         0         0         0         0         0         0         0
         0         0         0         0         0         0         0         0
         0         0         0         0         0         0         0         0
         0         0         0         0         0         0         0         0
         0         0         0         0         0         0         0         0
         0         0         0         0         0         0         0         0
         0         0         0         0         0         0         0         0
         0         0         0         0         0         0         0         0
         0         0         0         0         0         0         0         0
         0         0         0         0         0         0         0         0
         0         0         0         0         0         0         0         0
         0         0         0         0         0         0         0         0
         0         0         0         0         0         0         0         0
         0         0         0         0         0         0         0         0
         0         0         0         0         0         0         0         0
         0         0         0         0         0         0         0         0
         0         0         0         0         0         0         0         0
         0         0         0         0         0         0         0         0
         0         0         0         0         0         0         0         0
         0         0         0         0         0         0         0         0
         0         0         0         0         0         0         0         0
         0         0         0         0         0         0         0         0
         0         0         0         0         0         0         0         0
         0         0         0         0         0         0         0         0
         0         0         0         0         0         0         0         0
         0         0         0         0         0         0         0         0
         0         0         0         0         0         0         0         0
         0         0         0         0         0         0         0         0
         0         0         0         0         0         0         0         0
         0         0         0         0         0         0         0         0
         0         0         0         0         0         0         0         0
         0         0         0         0         0         0         0         0
         0         0         0         0         0         0         0         0
         0         0         0         0         0         0         0         0
         0         0         0         0         0         0         0         0
         0         0         0         0         0         0         0         0
         0         0         0         0         0         0         0         0
         0         0         0         0         0         0         0         0
         0         0         0         0         0         0         0         0
         0         0         0         0         0         0         0         0
         0         0         0         0         0         0         0         0
         0         0         0         0         0         0         0         0
         0         0         0         0         0         0         0         0
         0         0         0         0         0         0         0         0
         0         0         0         0         0         0         0         0
         0         0         0         0         0         0         0         0
         0         0         0         0         0         0         0         0
         0         0         0         0         0         0         0         0
         0         0         0         0         0         0         0         0
         0         0         0         0         0         0         0         0
         0         0         0         0         0         0         0         0
         0         0         0         0         0         0         0         0
         0         0         0         0         0         0         0         0
         0         0         0         0         0         0         0         0
         0         0         0         0         0         0         0         0
         0         0         0         0         0         0         0         0
         0         0         0         0         0         0         0         0
         0         0         0         0         0         0         0         0
         0         0         0         0         0         0         0         0
         0         0         0         0         0         0         0         0
         0         0         0         0         0         0         0         0
         0         0         0         0         0         0         0         0
         0         0         0         0         0         0         0         0
         0         0         0         0         0         0         0         0
         0         0         0         0         0         0         0         0
         0         0         0         0         0         0         0         0
         0         0         0         0         0         0         0         0
         0         0         0         0         0         0         0         0
         0         0         0         0         0         0         0         0
         0         0         0         0         0         0         0         0
         0         0         0         0         0         0         0         0
         0         0         0         0         0         0         0         0
         0         0         0         0         0         0         0         0
         0         0         0         0         0         0         0         0
         0         0         0         0         0         0         0         0
         0         0         0         0         0         0         0         0
         0         0         0         0         0         0         0         0
         0         0         0         0         0         0         0         0
         0         0         0         0         0         0         0         0
         0         0         0         0         0         0         0         0
         0         0         0         0         0         0         0         0
         0         0         0         0         0         0         0         0
         0         0         0         0         0         0         0         0
         0         0         0         0         0         0         0         0
         0         0         0         0         0         0         0         0
         0         0         0         0         0         0         0         0
         0         0         0         0         0         0         0         0
         0         0         0         0         0         0         0         0
         0         0         0         0         0         0         0         0
         0         0         0         0         0         0         0         0
         0         0         0         0         0         0         0         0
         0         0         0         0         0         0         0         0
         0         0         0         0         0         0         0         0
         0         0         0         0         0         0         0         0
         0         0         0         0         0         0         0         0
         0         0         0         0         0         0         0         0
         0         0         0         0         0         0         0         0
         0         0         0         0         0         0         0         0
         0         0         0         0         0         0         0         0
         0         0         0         0         0         0         0         0
         0         0         0         0         0         0         0         0
         0         0         0         0         0         0         0         0
         0         0         0         0         0         0         0         0
         0         0         0         0         0         0         0         0
         0         0         0         0         0         0         0         0
         0         0         0         0         0         0         0         0
         0         0         0         0         0         0         0         0
         0         0         0         0         0         0         0         0
         0         0         0         0         0         0         0         0
         0         0         0         0         0         0         0         0
         0         0         0         0         0         0         0         0
         0         0         0         0         0         0         0         0
         0         0         0         0         0         0         0         0
         0         0         0         0         0         0         0         0
         0         0         0         0         0         0         0         0
         0         0         0         0         0         0         0         0
         0         0         0         0         0         0         0         0
         0         0         0         0         0         0         0         0
         0         0         0         0         0         0         0         0
         0         0         0         0         0         0         0         0
         0         0         0         0         0         0         0         0
         0         0         0         0         0         0         0         0
         0         0         0         0         0         0         0         0
         0         0         0         0         0         0         0         0
         0         0         0         0         0         0         0         0
         0         0         0         0         0         0         0         0
         0         0         0         0         0         0         0         0
         0         0         0         0         0         0         0         0
         0         0         0         0         0         0         0         0
         0         0         0         0         0         0         0         0
         0         0         0         0         0         0         0         0
         0         0         0         0         0         0         0         0
         0         0         0         0         0         0         0         0
         0         0         0         0         0         0         0         0
         0         0         0         0         0         0         0         0
         0         0         0         0         0         0         0         0
         0         0         0         0         0         0         0         0
         0         0         0         0         0         0         0         0
         0         0         0         0         0         0         0         0
         0         0         0         0         0         0         0         0
         0         0         0         0         0         0         0         0
         0         0         0         0         0         0         0         0
         0         0         0         0         0         0         0         0
         0         0         0         0         0         0         0         0
         0         0         0         0         0         0         0         0
         0         0         0         0         0         0         0         0
         0         0         0         0         0         0         0         0
         0         0         0         0         0         0         0         0
         0         0         0         0         0         0         0         0
         0         0         0         0         0         0         0         0
         0         0         0         0         0         0         0         0
         0         0         0         0         0         0         0         0
         0         0         0         0         0         0         0         0
         0         0         0         0         0         0         0         0
         0         0         0         0         0         0         0         0
         0         0         0         0         0         0         0         0
         0         0         0         0         0         0         0         0
         0         0         0         0         0         0         0         0
         0         0         0         0         0         0         0         0
         0         0         0         0         0         0         0         0
         0         0         0         0         0         0         0         0
         0         0         0         0         0         0         0         0
         0         0         0         0         0         0         0         0
         0         0         0         0         0         0         0         0
         0         0         0         0         0         0         0         0
         0         0         0         0         0         0         0         0
         0         0         0         0         0         0         0         0
         0         0         0         0         0         0         0         0
         0         0         0         0         0         0         0         0
         0         0         0         0         0         0         0         0
         0         0         0         0         0         0         0         0
         0         0         0         0         0         0         0         0
         0         0         0         0         0         0         0         0
         0         0         0         0         0         0         0         0
         0         0         0         0         0         0         0         0
         0         0         0         0         0         0         0         0
         0         0         0         0         0         0         0         0
         0         0         0         0         0         0         0         0
         0         0         0         0         0         0         0         0
         0         0         0         0         0         0         0         0
         0         0         0         0         0         0         0         0
         0         0         0         0         0         0         0         0
         0         0         0         0         0         0         0         0
         0         0         0         0         0         0         0         0
         0         0         0         0         0         0         0         0
         0         0         0         0         0         0         0         0
         0         0         0         0         0         0         0         0
         0         0         0         0         0         0         0         0
         0         0         0         0         0         0         0         0
         0         0         0         0         0         0         0         0
         0         0         0         0         0         0         0         0
         0         0         0         0         0         0         0         0
         0         0         0         0         0         0         0         0
         0         0         0         0         0         0         0         0
         0         0         0         0         0         0         0         0
         0         0         0         0         0         0         0         0
         0         0         0         0         0         0         0         0
         0         0         0         0         0         0         0         0
         0         0         0         0         0         0         0         0
         0         0         0         0         0         0         0         0
         0         0         0         0         0         0         0         0
         0         0         0         0         0         0         0         0
         0         0         0         0         0         0         0         0
         0         0         0         0         0         0         0         0
         0         0         0         0         0         0         0         0
         0         0         0         0         0         0         0         0
         0         0         0         0         0         0         0         0
         0         0         0         0         0         0         0         0
         0         0         0         0         0         0         0         0
         0         0         0         0         0         0         0         0
         0         0         0         0         0         0         0         0
         0         0         0         0         0         0         0         0
         0         0         0         0         0         0         0         0
         0         0         0         0         0         0         0         0
         0         0         0         0         0         0         0         0
         0         0         0         0         0         0         0         0
         0         0         0         0         0         0         0         0
         0         0         0         0         0         0         0         0
         0         0         0         0         0         0         0         0
         0         0         0         0         0         0         0         0
         0         0         0         0         0         0         0         0
         0         0         0         0         0         0         0         0
         0         0         0         0         0         0         0         0
         0         0         0         0         0         0         0         0
         0         0         0         0         0         0         0         0
         0         0         0         0         0         0         0         0
         0         0         0         0         0         0         0         0
         0         0         0         0         0         0         0         0
         0         0         0         0         0         0         0         0
         0         0         0         0         0         0         0         0
         0         0         0         0         0         0         0         0
         0         0         0         0         0         0         0         0
         0         0         0         0         0         0         0         0
         0         0         0         0         0         0         0         0
         0         0         0         0         0         0         0         0
         0         0         0         0         0         0         0         0
         0         0         0         0         0         0         0         0
         0         0         0         0         0         0         0         0
         0         0         0         0         0         0         0         0
         0         0         0         0         0         0         0         0
         0         0         0         0         0         0         0         0
         0         0         0         0         0         0         0         0
         0         0         0         0         0         0         0         0
         0         0         0         0         0         0         0         0
         0         0         0         0         0         0         0         0
         0         0         0         0         0         0         0         0
         0         0         0         0         0         0         0         0
         0         0         0         0         0         0         0         0
         0         0         0         0         0         0         0         0
         0         0         0         0         0         0         0         0
         0         0         0         0         0         0         0         0
         0         0         0         0         0         0         0         0
         0         0         0         0         0         0         0         0
         0         0         0         0         0         0         0         0
         0         0         0         0         0         0         0         0
         0         0         0         0         0         0         0         0
         0         0         0         0         0         0         0         0
         0         0         0         0         0         0         0         0
         0         0         0         0         0         0         0         0
         0         0         0         0         0         0         0         0
         0         0         0         0         0         0         0         0
         0         0         0         0         0         0         0         0
         0         0         0         0         0         0         0         0
         0         0         0         0         0         0         0         0
         0         0         0         0         0         0         0         0
         0         0         0         0         0         0         0         0
         0         0         0         0         0         0         0         0
         0         0         0         0         0         0         0         0
         0         0         0         0         0         0         0         0
         0         0         0         0         0         0         0         0
         0         0         0         0         0         0         0         0
         0         0         0         0         0         0         0         0
         0         0         0         0         0         0         0         0
         0         0         0         0         0         0         0         0
         0         0         0         0         0         0         0         0
         0         0         0         0         0         0         0         0
         0         0         0         0         0         0         0         0
         0         0         0         0         0         0         0         0
         0         0         0         0         0         0         0         0
         0         0         0         0         0         0         0         0
         0         0         0         0         0         0         0         0
         0         0         0         0         0         0         0         0
         0         0         0         0         0         0         0         0
         0         0         0         0         0         0         0         0
         0         0         0         0         0         0         0         0
         0         0         0         0         0         0         0         0
         0         0         0         0         0         0         0         0
         0         0         0         0         0         0         0         0
         0         0         0         0         0         0         0         0
         0         0         0         0         0         0         0         0
         0         0         0         0         0         0         0         0
         0         0         0         0         0         0         0         0
         0         0         0         0         0         0         0         0
         0         0         0         0         0         0         0         0
         0         0         0         0         0         0         0         0
         0         0         0         0         0         0         0         0
         0         0         0         0         0         0         0         0
         0         0         0         0         0         0         0         0
         0         0         0         0         0         0         0         0
         0         0         0         0         0         0         0         0
         0         0         0         0         0         0         0         0
         0         0         0         0         0         0         0         0
         0         0         0         0         0         0         0         0
         0         0         0         0         0         0         0         0
         0         0         0         0         0         0         0         0
         0         0         0         0         0         0         0         0
         0         0         0         0         0         0         0         0
         0         0         0         0         0         0         0         0
         0         0         0         0         0         0         0         0
         0         0         0         0         0         0         0         0
         0         0         0         0         0         0         0         0
         0         0         0         0         0         0         0         0
         0         0         0         0         0         0         0         0
         0         0         0         0         0         0         0         0
         0         0         0         0         0         0         0         0
         0         0         0         0         0         0         0         0
         0         0         0         0         0         0         0         0
         0         0         0         0         0         0         0         0
         0         0         0         0         0         0         0         0
         0         0         0         0         0         0         0         0
         0         0         0         0         0         0         0         0
         0         0         0         0         0         0         0         0
         0         0         0         0         0         0         0         0
         0         0         0         0         0         0         0         0
         0         0         0         0         0         0         0         0
         0         0         0         0         0         0         0         0
         0         0         0         0         0         0         0         0
         0         0         0         0         0         0         0         0
         0         0         0         0         0         0         0         0
         0         0         0         0         0         0         0         0
         0         0         0         0         0         0         0         0
         0         0         0         0         0         0         0         0
         0         0         0         0         0         0         0         0
         0         0         0         0         0         0         0         0
         0         0         0         0         0         0         0         0
         0         0         0         0         0         0         0         0
         0         0         0         0         0         0         0         0
         0         0         0         0         0         0         0         0
         0         0         0         0         0         0         0         0
         0         0         0         0         0         0         0         0
         0         0         0         0         0         0         0         0
         0         0         0         0         0         0         0         0
         0         0         0         0         0         0         0         0
         0         0         0         0         0         0         0         0
         0         0         0         0         0         0         0         0
         0         0         0         0         0         0         0         0
         0         0         0         0         0         0         0         0
         0         0         0         0         0         0         0         0
         0         0         0         0         0         0         0         0
         0         0         0         0         0         0         0         0
         0         0         0         0         0         0         0         0
         0         0         0         0         0         0         0         0
         0         0         0         0         0         0         0         0
         0         0         0         0         0         0         0         0
         0         0         0         0         0         0         0         0
         0         0         0         0         0         0         0         0
         0         0         0         0         0         0         0         0
         0         0         0         0         0         0         0         0
         0         0         0         0         0         0         0         0
         0         0         0         0         0         0         0         0
         0         0         0         0         0         0         0         0
         0         0         0         0         0         0         0         0
         0         0         0         0         0         0         0         0
         0         0         0         0         0         0         0         0
         0         0         0         0         0         0         0         0
         0         0         0         0         0         0         0         0
         0         0         0         0         0         0         0         0
         0         0         0         0         0         0         0         0
         0         0         0         0         0         0         0         0
         0         0         0         0         0         0         0         0
         0         0         0         0         0         0         0         0
         0         0         0         0         0         0         0         0
         0         0         0         0         0         0         0         0
         0         0         0         0         0         0         0         0
         0         0         0         0         0         0         0         0
         0         0         0         0         0         0         0         0
         0         0         0         0         0         0         0         0
         0         0         0         0         0         0         0         0
         0         0         0         0         0         0         0         0
         0         0         0         0         0         0         0         0
         0         0         0         0         0         0         0         0
         0         0         0         0         0         0         0         0
         0         0         0         0         0         0         0         0
         0         0         0         0         0         0         0         0
         0         0         0         0         0         0         0         0
         0         0         0         0         0         0         0         0
         0         0         0         0         0         0         0         0
         0         0         0         0         0         0         0         0
         0         0         0         0         0         0         0         0
         0         0         0         0         0         0         0         0
         0         0         0         0         0         0         0         0
         0         0         0         0         0         0         0         0
         0         0         0         0         0         0         0         0
         0         0         0         0         0         0         0         0
         0         0         0         0         0         0         0         0
         0         0         0         0         0         0         0         0
         0         0         0         0         0         0         0         0
         0         0         0         0         0         0         0         0
         0         0         0         0         0         0         0         0
         0         0         0         0         0         0         0         0
         0         0         0         0         0         0         0         0
         0         0         0         0         0         0         0         0
         0         0         0         0         0         0         0         0
         0         0         0         0         0         0         0         0
         0         0         0         0         0         0         0         0
         0         0         0         0         0         0         0         0
         0         0         0         0         0         0         0         0
         0         0         0         0         0         0         0         0
         0         0         0         0         0         0         0         0
         0         0         0         0         0         0         0         0
         0         0         0         0         0         0         0         0
         0         0         0         0         0         0         0         0
         0         0         0         0         0         0         0         0
         0         0         0         0         0         0         0         0
         0         0         0         0         0         0         0         0
         0         0         0         0         0         0         0         0
         0         0         0         0         0         0         0         0
         0         0         0         0         0         0         0         0
         0         0         0         0         0         0         0         0
         0         0         0         0         0         0         0         0
         0         0         0         0         0         0         0         0
         0         0         0         0         0         0         0         0
         0         0         0         0         0         0         0         0
         0         0         0         0         0         0         0         0
         0         0         0         0         0         0         0         0
         0         0         0         0         0         0         0         0
         0         0         0         0         0         0         0         0
         0         0         0         0         0         0         0         0
         0         0         0         0         0         0         0         0
         0         0         0         0         0         0         0         0
         0         0         0         0         0         0         0         0
         0         0         0         0         0         0         0         0
         0         0         0         0         0         0         0         0
         0         0         0         0         0         0         0         0
         0         0         0         0         0         0         0         0
         0         0         0         0         0         0         0         0
         0         0         0         0         0         0         0         0
         0         0         0         0         0         0         0         0
         0         0         0         0         0         0         0         0
         0         0         0         0         0         0         0         0
         0         0         0         0         0         0         0         0
         0         0         0         0         0         0         0         0
         0         0         0         0         0         0         0         0
         0         0         0         0         0         0         0         0
         0         0         0         0         0         0         0         0
         0         0         0         0         0         0         0         0
         0         0         0         0         0         0         0         0
         0         0         0         0         0         0         0         0
         0         0         0         0         0         0         0         0
         0         0         0         0         0         0         0         0
         0         0         0         0         0         0         0         0
         0         0         0         0         0         0         0         0
         0         0         0         0         0         0         0         0
         0         0         0         0         0         0         0         0
         0         0         0         0         0         0         0         0
         0         0         0         0         0         0         0         0
         0         0         0         0         0         0         0         0
         0         0         0         0         0         0         0         0
         0         0         0         0         0         0         0         0
         0         0         0         0         0         0         0         0
         0         0         0         0         0         0         0         0
         0         0         0         0         0         0         0         0
         0         0         0         0         0         0         0         0
         0         0         0         0         0         0         0         0
         0         0         0         0         0         0         0         0
         0         0         0         0         0         0         0         0
         0         0         0         0         0         0         0         0
         0         0         0         0         0         0         0         0
         0         0         0         0         0         0         0         0
         0         0         0         0         0         0         0         0
         0         0         0         0         0         0         0         0
         0         0         0         0         0         0         0         0
         0         0         0         0         0         0         0         0
         0         0         0         0         0         0         0         0
         0         0         0         0         0         0         0         0
         0         0         0         0         0         0         0         0
         0         0         0         0         0         0         0         0
         0         0         0         0         0         0         0         0
         0         0         0         0         0         0         0         0
         0         0         0         0         0         0         0         0
         0         0         0         0         0         0         0         0
         0         0         0         0         0         0         0         0
         0         0         0         0         0         0         0         0
         0         0         0         0         0         0         0         0
         0         0         0         0         0         0         0         0
         0         0         0         0         0         0         0         0
         0         0         0         0         0         0         0         0
         0         0         0         0         0         0         0         0
         0         0         0         0         0         0         0         0
         0         0         0         0         0         0         0         0
         0         0         0         0         0         0         0         0
         0         0         0         0         0         0         0         0
         0         0         0         0         0         0         0         0
         0         0         0         0         0         0         0         0
         0         0         0         0         0         0         0         0
         0         0         0         0         0         0         0         0
         0         0         0         0         0         0         0         0
         0         0         0         0         0         0         0         0
         0         0         0         0         0         0         0         0
         0         0         0         0         0         0         0         0
         0         0         0         0         0         0         0         0
         0         0         0         0         0         0         0         0
         0         0         0         0         0         0         0         0
         0         0         0         0         0         0         0         0
         0         0         0         0         0         0         0         0
         0         0         0         0         0         0         0         0
         0         0         0         0         0         0         0         0
         0         0         0         0         0         0         0         0
         0         0         0         0         0         0         0         0
         0         0         0         0         0         0         0         0
         0         0         0         0         0         0         0         0
         0         0         0         0         0         0         0         0
         0         0         0         0         0         0         0         0
         0         0         0         0         0         0         0         0
         0         0         0         0         0         0         0         0
         0         0         0         0         0         0         0         0
         0         0         0         0         0         0         0         0
         0         0         0         0         0         0         0         0
         0         0         0         0         0         0         0         0
         0         0         0         0         0         0         0         0
         0         0         0         0         0         0         0         0
         0         0         0         0         0         0         0         0
         0         0         0         0         0         0         0         0
         0         0         0         0         0         0         0         0
         0         0         0         0         0         0         0         0
         0         0         0         0         0         0         0         0
         0         0         0         0         0         0         0         0
         0         0         0         0         0         0         0         0
         0         0         0         0         0         0         0         0
         0         0         0         0         0         0         0         0
         0         0         0         0         0         0         0         0
         0         0         0         0         0         0         0         0
         0         0         0         0         0         0         0         0
         0         0         0         0         0         0         0         0
         0         0         0         0         0         0         0         0
         0         0         0         0         0         0         0         0
         0         0         0         0         0         0         0         0
         0         0         0         0         0         0         0         0
         0         0         0         0         0         0         0         0
         0         0         0         0         0         0         0         0
         0         0         0         0         0         0         0         0
         0         0         0         0         0         0         0         0
         0         0         0         0         0         0         0         0
         0         0         0         0         0         0         0         0
         0         0         0         0         0         0         0         0
         0         0         0         0         0         0         0         0
         0         0         0         0         0         0         0         0
         0         0         0         0         0         0         0         0
         0         0         0         0         0         0         0         0
         0         0         0         0         0         0         0         0
         0         0         0         0         0         0         0         0
         0         0         0         0         0         0         0         0
         0         0         0         0         0         0         0         0
         0         0         0         0         0         0         0         0
         0         0         0         0         0         0         0         0
         0         0         0         0         0         0         0         0
         0         0         0         0         0         0         0         0
         0         0         0         0         0         0         0         0
         0         0         0         0         0         0         0         0
         0         0         0         0         0         0         0         0
         0         0         0         0         0         0         0         0
         0         0         0         0         0         0         0         0
         0         0         0         0         0         0         0         0
         0         0         0         0         0         0         0         0
         0         0         0         0         0         0         0         0
         0         0         0         0         0         0         0         0
         0         0         0         0         0         0         0         0
         0         0         0         0         0         0         0         0
         0         0         0         0         0         0         0         0
         0         0         0         0         0         0         0         0
         0         0         0         0         0         0         0         0
         0         0         0         0         0         0         0         0
         0         0         0         0         0         0         0         0
         0         0         0         0         0         0         0         0
         0         0         0         0         0         0         0         0
         0         0         0         0         0         0         0         0
         0         0         0         0         0         0         0         0
         0         0         0         0         0         0         0         0
         0         0         0         0         0         0         0         0
         0         0         0         0         0         0         0         0
         0         0         0         0         0         0         0         0
         0         0         0         0         0         0         0         0
         0         0         0         0         0         0         0         0
         0         0         0         0         0         0         0         0
         0         0         0         0         0         0         0         0
         0         0         0         0         0         0         0         0
         0         0         0         0         0         0         0         0
         0         0         0         0         0         0         0         0
         0         0         0         0         0         0         0         0
         0         0         0         0         0         0         0         0
         0         0         0         0         0         0         0         0
         0         0         0         0         0         0         0         0
         0         0         0         0         0         0         0         0
         0         0         0         0         0         0         0         0
         0         0         0         0         0         0         0         0
         0         0         0         0         0         0         0         0
         0         0         0         0         0         0         0         0
         0         0         0         0         0         0         0         0
         0         0         0         0         0         0         0         0
         0         0         0         0         0         0         0         0
         0         0         0         0         0         0         0         0
         0         0         0         0         0         0         0         0
         0         0         0         0         0         0         0         0
         0         0         0         0         0         0         0         0
         0         0         0         0         0         0         0         0
         0         0         0         0         0         0         0         0
         0         0         0         0         0         0         0         0
         0         0         0         0         0         0         0         0
         0         0         0         0         0         0         0         0
         0         0         0         0         0         0         0         0
         0         0         0         0         0         0         0         0
         0         0         0         0         0         0         0         0
         0         0         0         0         0         0         0         0
         0         0         0         0         0         0         0         0
         0         0         0         0         0         0         0         0
         0         0         0         0         0         0         0         0
         0         0         0         0         0         0         0         0
         0         0         0         0         0         0         0         0
         0         0         0         0         0         0         0         0
         0         0         0         0         0         0         0         0
         0         0         0         0         0         0         0         0
         0         0         0         0         0         0         0         0
         0         0         0         0         0         0         0         0
         0         0         0         0         0         0         0         0
         0         0         0         0         0         0         0         0
         0         0         0         0         0         0         0         0
         0         0         0         0         0         0         0         0
         0         0         0         0         0         0         0         0
         0         0         0         0         0         0         0         0
         0         0         0         0         0         0         0         0
         0         0         0         0         0         0         0         0
         0         0         0         0         0         0         0         0
         0         0         0         0         0         0         0         0
         0         0         0         0         0         0         0         0
         0         0         0         0         0         0         0         0
         0         0         0         0         0         0         0         0
         0         0         0         0         0         0         0         0
         0         0         0         0         0         0         0         0
         0         0         0         0         0         0         0         0
         0         0         0         0         0         0         0         0
         0         0         0         0         0         0         0         0
         0         0         0         0         0         0         0         0
         0         0         0         0         0         0         0         0
         0         0         0         0         0         0         0         0
         0         0         0         0         0         0         0         0
         0         0         0         0         0         0         0         0
         0         0         0         0         0         0         0         0
         0         0         0         0         0         0         0         0
         0         0         0         0         0         0         0         0
         0         0         0         0         0         0         0         0
         0         0         0         0         0         0         0         0
         0         0         0         0         0         0         0         0
         0         0         0         0         0         0         0         0
         0         0         0         0         0         0         0         0
         0         0         0         0         0         0         0         0
         0         0         0         0         0         0         0         0
         0         0         0         0         0         0         0         0
         0         0         0         0         0         0         0         0
         0         0         0         0         0         0         0         0
         0         0         0         0         0         0         0         0
         0         0         0         0         0         0         0         0
         0         0         0         0         0         0         0         0
         0         0         0         0         0         0         0         0
         0         0         0         0         0         0         0         0
         0         0         0         0         0         0         0         0
         0         0         0         0         0         0         0         0
         0         0         0         0         0         0         0         0
         0         0         0         0         0         0         0         0
         0         0         0         0         0         0         0         0
         0         0         0         0         0         0         0         0
         0         0         0         0         0         0         0         0
         0         0         0         0         0         0         0         0
         0         0         0         0         0         0         0         0
         0         0         0         0         0         0         0         0
         0         0         0         0         0         0         0         0
         0         0         0         0         0         0         0         0
         0         0         0         0         0         0         0         0
         0         0         0         0         0         0         0         0
         0         0         0         0         0         0         0         0
         0         0         0         0         0         0         0         0
         0         0         0         0         0         0         0         0
         0         0         0         0         0         0         0         0
         0         0         0         0         0         0         0         0
         0         0         0         0         0         0         0         0
         0         0         0         0         0         0         0         0
         0         0         0         0         0         0         0         0
         0         0         0         0         0         0         0         0
         0         0         0         0         0         0         0         0
         0         0         0         0         0         0         0         0
         0         0         0         0         0         0         0         0
         0         0         0         0         0         0         0         0
         0         0         0         0         0         0         0         0
         0         0         0         0         0         0         0         0
         0         0         0         0         0         0         0         0
         0         0         0         0         0         0         0         0
         0         0         0         0         0         0         0         0
         0         0         0         0         0         0         0         0
         0         0         0         0         0         0         0         0
         0         0         0         0         0         0         0         0
         0         0         0         0         0         0         0         0
         0         0         0         0         0         0         0         0
         0         0         0         0         0         0         0         0
         0         0         0         0         0         0         0         0
         0         0         0         0         0         0         0         0
         0         0         0         0         0         0         0         0
         0         0         0         0         0         0         0         0
         0         0         0         0         0         0         0         0
         0         0         0         0         0         0         0         0
         0         0         0         0         0         0         0         0
         0         0         0         0         0         0         0         0
         0         0         0         0         0         0         0         0
         0         0         0         0         0         0         0         0
         0         0         0         0         0         0         0         0
         0         0         0         0         0         0         0         0
         0         0         0         0         0         0         0         0
         0         0         0         0         0         0         0         0
         0         0         0         0         0         0         0         0
         0         0         0         0         0         0         0         0
         0         0         0         0         0         0         0         0
         0         0         0         0         0         0         0         0
         0         0         0         0         0         0         0         0
         0         0         0         0         0         0         0         0
         0         0         0         0         0         0         0         0
         0         0         0         0         0         0         0         0
         0         0         0         0         0         0         0         0
         0         0         0         0         0         0         0         0
         0         0         0         0         0         0         0         0
         0         0         0         0         0         0         0         0
         0         0         0         0         0         0         0         0
         0         0         0         0         0         0         0         0
         0         0         0         0         0         0         0         0
         0         0         0         0         0         0         0         0
         0         0         0         0         0         0         0         0
         0         0         0         0         0         0         0         0
         0         0         0         0         0         0         0         0
         0         0         0         0         0         0         0         0
         0         0         0         0         0         0         0         0
         0         0         0         0         0         0         0         0
         0         0         0         0         0         0         0         0
         0         0         0         0         0         0         0         0
         0         0         0         0         0         0         0         0
         0         0         0         0         0         0         0         0
         0         0         0         0         0         0         0         0
         0         0         0         0         0         0         0         0
         0         0         0         0         0         0         0         0
         0         0         0         0         0         0         0         0
         0         0         0         0         0         0         0         0
         0         0         0         0         0         0         0         0
         0         0         0         0         0         0         0         0
         0         0         0         0         0         0         0         0
         0         0         0         0         0         0         0         0
         0         0         0         0         0         0         0         0
         0         0         0         0         0         0         0         0
         0         0         0         0         0         0         0         0
         0         0         0         0         0         0         0         0
         0         0         0         0         0         0         0         0
         0         0         0         0         0         0         0         0
         0         0         0         0         0         0         0         0
         0         0         0         0         0         0         0         0
         0         0         0         0         0         0         0         0
         0         0         0         0         0         0         0         0
         0         0         0         0         0         0         0         0
         0         0         0         0         0         0         0         0
         0         0         0         0         0         0         0         0
         0         0         0         0         0         0         0         0
         0         0         0         0         0         0         0         0
         0         0         0         0         0         0         0         0
         0         0         0         0         0         0         0         0
         0         0         0         0         0         0         0         0
         0         0         0         0         0         0         0         0
         0         0         0         0         0         0         0         0
         0         0         0         0         0         0         0         0
         0         0         0         0         0         0         0         0
         0         0         0         0         0         0         0         0
         0         0         0         0         0         0         0         0
         0         0         0         0         0         0         0         0
         0         0         0         0         0         0         0         0
         0         0         0         0         0         0         0         0
         0         0         0         0         0         0         0         0
         0         0         0         0         0         0         0         0
         0         0         0         0         0         0         0         0
         0         0         0         0         0         0         0         0
         0         0         0         0         0         0         0         0
         0         0         0         0         0         0         0         0
         0         0         0         0         0         0         0         0
         0         0         0         0         0         0         0         0
         0         0         0         0         0         0         0         0
         0         0         0         0         0         0         0         0
         0         0         0         0         0         0         0         0
         0         0         0         0         0         0         0         0
         0         0         0         0         0         0         0         0
         0         0         0         0         0         0         0         0
         0         0         0         0         0         0         0         0
         0         0         0         0         0         0         0         0
         0         0         0         0         0         0         0         0
         0         0         0         0         0         0         0         0
         0         0         0         0         0         0         0         0
         0         0         0         0         0         0         0         0
         0         0         0         0         0         0         0         0
         0         0         0         0         0         0         0         0
         0         0         0         0         0         0         0         0
         0         0         0         0         0         0         0         0
         0         0         0         0         0         0         0         0
         0         0         0         0         0         0         0         0
         0         0         0         0         0         0         0         0
         0         0         0         0         0         0         0         0
         0         0         0         0         0         0         0         0
         0         0         0         0         0         0         0         0
         0         0         0         0         0         0         0         0
         0         0         0         0         0         0         0         0
         0         0         0         0         0         0         0         0
         0         0         0         0         0         0         0         0
         0         0         0         0         0         0         0         0
         0         0         0         0         0         0         0         0
         0         0         0         0         0         0         0         0
         0         0         0         0         0         0         0         0
         0         0         0         0         0         0         0         0
         0         0         0         0         0         0         0         0
         0         0         0         0         0         0         0         0
         0         0         0         0         0         0         0         0
         0         0         0         0         0         0         0         0
         0         0         0         0         0         0         0         0
         0         0         0         0         0         0         0         0
         0         0         0         0         0         0         0         0
         0         0         0         0         0         0         0         0
         0         0         0         0         0         0         0         0
         0         0         0         0         0         0         0         0
         0         0         0         0         0         0         0         0
         0         0         0         0         0         0         0         0
         0         0         0         0         0         0         0         0
         0         0         0         0         0         0         0         0
         0         0         0         0         0         0         0         0
         0         0         0         0         0         0         0         0
         0         0         0         0         0         0         0         0
         0         0         0         0         0         0         0         0
         0         0         0         0         0         0         0         0
         0         0         0         0         0         0         0         0
         0         0         0         0         0         0         0         0
         0         0         0         0         0         0         0         0
         0         0         0         0         0         0         0         0
         0         0         0         0         0         0         0         0
         0         0         0         0         0         0         0         0
         0         0         0         0         0         0         0         0
         0         0         0         0         0         0         0         0
         0         0         0         0         0         0         0         0
         0         0         0         0         0         0         0         0
         0         0         0         0         0         0         0         0
         0         0         0         0         0         0         0         0
         0         0         0         0         0         0         0         0
         0         0         0         0         0         0         0         0
         0         0         0         0         0         0         0         0
         0         0         0         0         0         0         0         0
         0         0         0         0         0         0         0         0
         0         0         0         0         0         0         0         0
         0         0         0         0         0         0         0         0
         0         0         0         0         0         0         0         0
         0         0         0         0         0         0         0         0
         0         0         0         0         0         0         0         0
         0         0         0         0         0         0         0         0
         0         0         0         0         0         0         0         0
         0         0         0         0         0         0         0         0
         0         0         0         0         0         0         0         0
         0         0         0         0         0         0         0         0
         0         0         0         0         0         0         0         0
         0         0         0         0         0         0         0         0
         0         0         0         0         0         0         0         0
         0         0         0         0         0         0         0         0
         0         0         0         0         0         0         0         0
         0         0         0         0         0         0         0         0
         0         0         0         0         0         0         0         0
         0         0         0         0         0         0         0         0
         0         0         0         0         0         0         0         0
         0         0         0         0         0         0         0         0
         0         0         0         0         0         0         0         0
         0         0         0         0         0         0         0         0
         0         0         0         0         0         0         0         0
         0         0         0         0         0         0         0         0
         0         0         0         0         0         0         0         0
         0         0         0         0         0         0         0         0
         0         0         0         0         0         0         0         0
         0         0         0         0         0         0         0         0
         0         0         0         0         0         0         0         0
         0         0         0         0         0         0         0         0
         0         0         0         0         0         0         0         0
         0         0         0         0         0         0         0         0
         0         0         0         0         0         0         0         0
         0         0         0         0         0         0         0         0
         0         0         0         0         0         0         0         0
         0         0         0         0         0         0         0         0
         0         0         0         0         0         0         0         0
         0         0         0         0         0         0         0         0
         0         0         0         0         0         0         0         0
         0         0         0         0         0         0         0         0
         0         0         0         0         0         0         0         0
         0         0         0         0         0         0         0         0
         0         0         0         0         0         0         0         0
         0         0         0         0         0         0         0         0
         0         0         0         0         0         0         0         0
         0         0         0         0         0         0         0         0
         0         0         0         0         0         0         0         0
         0         0         0         0         0         0         0         0
         0         0         0         0         0         0         0         0
         0         0         0         0         0         0         0         0
         0         0         0         0         0         0         0         0
         0         0         0         0         0         0         0         0
         0         0         0         0         0         0         0         0
         0         0         0         0         0         0         0         0
         0         0         0         0         0         0         0         0
         0         0         0         0         0         0         0         0
         0         0         0         0         0         0         0         0
         0         0         0         0         0         0         0         0
         0         0         0         0         0         0         0         0
         0         0         0         0         0         0         0         0
         0         0         0         0         0         0         0         0
         0         0         0         0         0         0         0         0
         0         0         0         0         0         0         0         0
         0         0         0         0         0         0         0         0
         0         0         0         0         0         0         0         0
         0         0         0         0         0         0         0         0
         0         0         0         0         0         0         0         0
         0         0         0         0         0         0         0         0
         0         0         0         0         0         0         0         0
         0         0         0         0         0         0         0         0
         0         0         0         0         0         0         0         0
         0         0         0         0         0         0         0         0
         0         0         0         0         0         0         0         0
         0         0         0         0         0         0         0         0
         0         0         0         0         0         0         0         0
         0         0         0         0         0         0         0         0
         0         0         0         0         0         0         0         0
         0         0         0         0         0         0         0         0
         0         0         0         0         0         0         0         0
         0         0         0         0         0         0         0         0
         0         0         0         0         0         0         0         0
         0         0         0         0         0         0         0         0
         0         0         0         0         0         0         0         0
         0         0         0         0         0         0         0         0
         0         0         0         0         0         0         0         0
         0         0         0         0         0         0         0         0
         0         0         0         0         0         0         0         0
         0         0         0         0         0         0         0         0
         0         0         0         0         0         0         0         0
         0         0         0         0         0         0         0         0
         0         0         0         0         0         0         0         0
         0         0         0         0         0         0         0         0
         0         0         0         0         0         0         0         0
         0         0         0         0         0         0         0         0
         0         0         0         0         0         0         0         0
         0         0         0         0         0         0         0         0
         0         0         0         0         0         0         0         0
         0         0         0         0         0         0         0         0
         0         0         0         0         0         0         0         0
         0         0         0         0         0         0         0         0
         0         0         0         0         0         0         0         0
         0         0         0         0         0         0         0         0
         0         0         0         0         0         0         0         0
         0         0         0         0         0         0         0         0
         0         0         0         0         0         0         0         0
         0         0         0         0         0         0         0         0
         0         0         0         0         0         0         0         0
         0         0         0         0         0         0         0         0
         0         0         0         0         0         0         0         0
         0         0         0         0         0         0         0         0
         0         0         0         0         0         0         0         0
         0         0         0         0         0         0         0         0
         0         0         0         0         0         0         0         0
         0         0         0         0         0         0         0         0
         0         0         0         0         0         0         0         0
         0         0         0         0         0         0         0         0
         0         0         0         0         0         0         0         0
         0         0         0         0         0         0         0         0
         0         0         0         0         0         0         0         0
         0         0         0         0         0         0         0         0
         0         0         0         0         0         0         0         0
         0         0         0         0         0         0         0         0
         0         0         0         0         0         0         0         0
         0         0         0         0         0         0         0         0
         0         0         0         0         0         0         0         0
         0         0         0         0         0         0         0         0
         0         0         0         0         0         0         0         0
         0         0         0         0         0         0         0         0
         0         0         0         0         0         0         0         0
         0         0         0         0         0         0         0         0
         0         0         0         0         0         0         0         0
         0         0         0         0         0         0         0         0
         0         0         0         0         0         0         0         0
         0         0         0         0         0         0         0         0
         0         0         0         0         0         0         0         0
         0         0         0         0         0         0         0         0
         0         0         0         0         0         0         0         0
         0         0         0         0         0         0         0         0
         0         0         0         0         0         0         0         0
         0         0         0         0         0         0         0         0
         0         0         0         0         0         0         0         0
         0         0         0         0         0         0         0         0
         0         0         0         0         0         0         0         0
         0         0         0         0         0         0         0         0
         0         0         0         0         0         0         0         0
         0         0         0         0         0         0         0         0
         0         0         0         0         0         0         0         0
         0         0         0         0         0         0         0         0
         0         0         0         0         0         0         0         0
         0         0         0         0         0         0         0         0
         0         0         0         0         0         0         0         0
         0         0         0         0         0         0         0         0
         0         0         0         0         0         0         0         0
         0         0         0         0         0         0         0         0
         0         0         0         0         0         0         0         0
         0         0         0         0         0         0         0         0
         0         0         0         0         0         0         0         0
         0         0         0         0         0         0         0         0
         0         0         0         0         0         0         0         0
         0         0         0         0         0         0         0         0
         0         0         0         0         0         0         0         0
         0         0         0         0         0         0         0         0
         0         0         0         0         0         0         0         0
         0         0         0         0         0         0         0         0
         0         0         0         0         0         0         0         0
         0         0         0         0         0         0         0         0
         0         0         0         0         0         0         0         0
         0         0         0         0         0         0         0         0
         0         0         0         0         0         0         0         0
         0         0         0         0         0         0         0         0
         0         0         0         0         0         0         0         0
         0         0         0         0         0         0         0         0
         0         0         0         0         0         0         0         0
         0         0         0         0         0         0         0         0
         0         0         0         0         0         0         0         0
         0         0         0         0         0         0         0         0
         0         0         0         0         0         0         0         0
         0         0         0         0         0         0         0         0
         0         0         0         0         0         0         0         0
         0         0         0         0         0         0         0         0
         0         0         0         0         0         0         0         0
         0         0         0         0         0         0         0         0
         0         0         0         0         0         0         0         0
         0         0         0         0         0         0         0         0
         0         0         0         0         0         0         0         0
         0         0         0         0         0         0         0         0
         0         0         0         0         0         0         0         0
         0         0         0         0         0         0         0         0
         0         0         0         0         0         0         0         0
         0         0         0         0         0         0         0         0
         0         0         0         0         0         0         0         0
         0         0         0         0         0         0         0         0
         0         0         0         0         0         0         0         0
         0         0         0         0         0         0         0         0
         0         0         0         0         0         0         0         0
         0         0         0         0         0         0         0         0
         0         0         0         0         0         0         0         0
         0         0         0         0         0         0         0         0
         0         0         0         0         0         0         0         0
         0         0         0         0         0         0         0         0
         0         0         0         0         0         0         0         0
         0         0         0         0         0         0         0         0
         0         0         0         0         0         0         0         0
         0         0         0         0         0         0         0         0
         0         0         0         0         0         0         0         0
         0         0         0         0         0         0         0         0
         0         0         0         0         0         0         0         0
         0         0         0         0         0         0         0         0
         0         0         0         0         0         0         0         0
         0         0         0         0         0         0         0         0
         0         0         0         0         0         0         0         0
         0         0         0         0         0         0         0         0
         0         0         0         0         0         0         0         0
         0         0         0         0         0         0         0         0
         0         0         0         0         0         0         0         0
         0         0         0         0         0         0         0         0
         0         0         0         0         0         0         0         0
         0         0         0         0         0         0         0         0
         0         0         0         0         0         0         0         0
         0         0         0         0         0         0         0         0
         0         0         0         0         0         0         0         0
         0         0         0         0         0         0         0         0
         0         0         0         0         0         0         0         0
         0         0         0         0         0         0         0         0
         0         0         0         0         0         0         0         0
         0         0         0         0         0         0         0         0
         0         0         0         0         0         0         0         0
         0         0         0         0         0         0         0         0
         0         0         0         0         0         0         0         0
         0         0         0         0         0         0         0         0
         0         0         0         0         0         0         0         0
         0         0         0         0         0         0         0         0
         0         0         0         0         0         0         0         0
         0         0         0         0         0         0         0         0
         0         0         0         0         0         0         0         0
         0         0         0         0         0         0         0         0
         0         0         0         0         0         0         0         0
         0         0         0         0         0         0         0         0
         0         0         0         0         0         0         0         0
         0         0         0         0         0         0         0         0
         0         0         0         0         0         0         0         0
         0         0         0         0         0         0         0         0
         0         0         0         0         0         0         0         0
         0         0         0         0         0         0         0         0
         0         0         0         0         0         0         0         0
         0         0         0         0         0         0         0         0
         0         0         0         0         0         0         0         0
         0         0         0         0         0         0         0         0
         0         0         0         0         0         0         0         0
         0         0         0         0         0         0         0         0
         0         0         0         0         0         0         0         0
         0         0         0         0         0         0         0         0
         0         0         0         0         0         0         0         0
         0         0         0         0         0         0         0         0
         0         0         0         0         0         0         0         0
         0         0         0         0         0         0         0         0
         0         0         0         0         0         0         0         0
         0         0         0         0         0         0         0         0
         0         0         0         0         0         0         0         0
         0         0         0         0         0         0         0         0
         0         0         0         0         0         0         0         0
         0         0         0         0         0         0         0         0
         0         0         0         0         0         0         0         0
         0         0         0         0         0         0         0         0
         0         0         0         0         0         0         0         0
         0         0         0         0         0         0         0         0
         0         0         0         0         0         0         0         0
         0         0         0         0         0         0         0         0
         0         0         0         0         0         0         0         0
         0         0         0         0         0         0         0         0
         0         0         0         0         0         0         0         0
         0         0         0         0         0         0         0         0
         0         0         0         0         0         0         0         0
         0         0         0         0         0         0         0         0
         0         0         0         0         0         0         0         0
         0         0         0         0         0         0         0         0
         0         0         0         0         0         0         0         0
         0         0         0         0         0         0         0         0
         0         0         0         0         0         0         0         0
         0         0         0         0         0         0         0         0
         0         0         0         0         0         0         0         0
         0         0         0         0         0         0         0         0
         0         0         0         0         0         0         0         0
         0         0         0         0         0         0         0         0
         0         0         0         0         0         0         0         0
         0         0         0         0         0         0         0         0
         0         0         0         0         0         0         0         0
         0         0         0         0         0         0         0         0
         0         0         0         0         0         0         0         0
         0         0         0         0         0         0         0         0
         0         0         0         0         0         0         0         0
         0         0         0         0         0         0         0         0
         0         0         0         0         0         0         0         0
         0         0         0         0         0         0         0         0
         0         0         0         0         0         0         0         0
         0         0         0         0         0         0         0         0
         0         0         0         0         0         0         0         0
         0         0         0         0         0         0         0         0
         0         0         0         0         0         0         0         0
         0         0         0         0         0         0         0         0
         0         0         0         0         0         0         0         0
         0         0         0         0         0         0         0         0
         0         0         0         0         0         0         0         0
         0         0         0         0         0         0         0         0
         0         0         0         0         0         0         0         0
         0         0         0         0         0         0         0         0
         0         0         0         0         0         0         0         0
         0         0         0         0         0         0         0         0
         0         0         0         0         0         0         0         0
         0         0         0         0         0         0         0         0
         0         0         0         0         0         0         0         0
         0         0         0         0         0         0         0         0
         0         0         0         0         0         0         0         0
         0         0         0         0         0         0         0         0
         0         0         0         0         0         0         0         0
         0         0         0         0         0         0         0         0
         0         0         0         0         0         0         0         0
         0         0         0         0         0         0         0         0
         0         0         0         0         0         0         0         0
         0         0         0         0         0         0         0         0
         0         0         0         0         0         0         0         0
         0         0         0         0         0         0         0         0
         0         0         0         0         0         0         0         0
         0         0         0         0         0         0         0         0
         0         0         0         0         0         0         0         0
         0         0         0         0         0         0         0         0
         0         0         0         0         0         0         0         0
         0         0         0         0         0         0         0         0
         0         0         0         0         0         0         0         0
         0         0         0         0         0         0         0         0
         0         0         0         0         0         0         0         0
         0         0         0         0         0         0         0         0
         0         0         0         0         0         0         0         0
         0         0         0         0         0         0         0         0
         0         0         0         0         0         0         0         0
         0         0         0         0         0         0         0         0
         0         0         0         0         0         0         0         0
         0         0         0         0         0         0         0         0
         0         0         0         0         0         0         0         0
         0         0         0         0         0         0         0         0
         0         0         0         0         0         0         0         0
         0         0         0         0         0         0         0         0
         0         0         0         0         0         0         0         0
         0         0         0         0         0         0         0         0
         0         0         0         0         0         0         0         0
         0         0         0         0         0         0         0         0
         0         0         0         0         0         0         0         0
         0         0         0         0         0         0         0         0
         0         0         0         0         0         0         0         0
         0         0         0         0         0         0         0         0
         0         0         0         0         0         0         0         0
         0         0         0         0         0         0         0         0
         0         0         0         0         0         0         0         0
         0         0         0         0         0         0         0         0
         0         0         0         0         0         0         0         0
         0         0         0         0         0         0         0         0
         0         0         0         0         0         0         0         0
         0         0         0         0         0         0         0         0
         0         0         0         0         0         0         0         0
         0         0         0         0         0         0         0         0
         0         0         0         0         0         0         0         0
         0         0         0         0         0         0         0         0
         0         0         0         0         0         0         0         0
         0         0         0         0         0         0         0         0
         0         0         0         0         0         0         0         0
         0         0         0         0         0         0         0         0
         0         0         0         0         0         0         0         0
         0         0         0         0         0         0         0         0
         0         0         0         0         0         0         0         0
         0         0         0         0         0         0         0         0
         0         0         0         0         0         0         0         0
         0         0         0         0         0         0         0         0
         0         0         0         0         0         0         0         0
         0         0         0         0         0         0         0         0
         0         0         0         0         0         0         0         0
         0         0         0         0         0         0         0         0
         0         0         0         0         0         0         0         0
         0         0         0         0         0         0         0         0
         0         0         0         0         0         0         0         0
         0         0         0         0         0         0         0         0
         0         0         0         0         0         0         0         0
         0         0         0         0         0         0         0         0
         0         0         0         0         0         0         0         0
         0         0         0         0         0         0         0         0
         0         0         0         0         0         0         0         0
         0         0         0         0         0         0         0         0
         0         0         0         0         0         0         0         0
         0         0         0         0         0         0         0         0
         0         0         0         0         0         0         0         0
         0         0         0         0         0         0         0         0
         0         0         0         0         0         0         0         0
         0         0         0         0         0         0         0         0
         0         0         0         0         0         0         0         0
         0         0         0         0         0         0         0         0
         0         0         0         0         0         0         0         0
         0         0         0         0         0         0         0         0
         0         0         0         0         0         0         0         0
         0         0         0         0         0         0         0         0
         0         0         0         0         0         0         0         0
         0         0         0         0         0         0         0         0
         0         0         0         0         0         0         0         0
         0         0         0         0         0         0         0         0
         0         0         0         0         0         0         0         0
         0         0         0         0         0         0         0         0
         0         0         0         0         0         0         0         0
         0         0         0         0         0         0         0         0
         0         0         0         0         0         0         0         0
         0         0         0         0         0         0         0         0
         0         0         0         0         0         0         0         0
         0         0         0         0         0         0         0         0
         0         0         0         0         0         0         0         0
         0         0         0         0         0         0         0         0
         0         0         0         0         0         0         0         0
         0         0         0         0         0         0         0         0
         0         0         0         0         0         0         0         0
         0         0         0         0         0         0         0         0
         0         0         0         0         0         0         0         0
         0         0         0         0         0         0         0         0
         0         0         0         0         0         0         0         0
         0         0         0         0         0         0         0         0
         0         0         0         0         0         0         0         0
         0         0         0         0         0         0         0         0
         0         0         0         0         0         0         0         0
         0         0         0         0         0         0         0         0
         0         0         0         0         0         0         0         0
         0         0         0         0         0         0         0         0
         0         0         0         0         0         0         0         0
         0         0         0         0         0         0         0         0
         0         0         0         0         0         0         0         0
         0         0         0         0         0         0         0         0
         0         0         0         0         0         0         0         0
         0         0         0         0         0         0         0         0
         0         0         0         0         0         0         0         0
         0         0         0         0         0         0         0         0
         0         0         0         0         0         0         0         0
         0         0         0         0         0         0         0         0
         0         0         0         0         0         0         0         0
         0         0         0         0         0         0         0         0
         0         0         0         0         0         0         0         0
         0         0         0         0         0         0         0         0
         0         0         0         0         0         0         0         0
         0         0         0         0         0         0         0         0
         0         0         0         0         0         0         0         0
         0         0         0         0         0         0         0         0
         0         0         0         0         0         0         0         0
         0         0         0         0         0         0         0         0
         0         0         0         0         0         0         0         0
         0         0         0         0         0         0         0         0
         0         0         0         0         0         0         0         0
         0         0         0         0         0         0         0         0
         0         0         0         0         0         0         0         0
         0         0         0         0         0         0         0         0
         0         0         0         0         0         0         0         0
         0         0         0         0         0         0         0         0
         0         0         0         0         0         0         0         0
         0         0         0         0         0         0         0         0
         0         0         0         0         0         0         0         0
         0         0         0         0         0         0         0         0
         0         0         0         0         0         0         0         0
         0         0         0         0         0         0         0         0
         0         0         0         0         0         0         0         0
         0         0         0         0         0         0         0         0
         0         0         0         0         0         0         0         0
         0         0         0         0         0         0         0         0
         0         0         0         0         0         0         0         0
         0         0         0         0         0         0         0         0
         0         0         0         0         0         0         0         0
         0         0         0         0         0         0         0         0
         0         0         0         0         0         0         0         0
         0         0         0         0         0         0         0         0
         0         0         0         0         0         0         0         0
         0         0         0         0         0         0         0         0
         0         0         0         0         0         0         0         0
         0         0         0         0         0         0         0         0
         0         0         0         0         0         0         0         0
         0         0         0         0         0         0         0         0
         0         0         0         0         0         0         0         0
         0         0         0         0         0         0         0         0
         0         0         0         0         0         0         0         0
         0         0         0         0         0         0         0         0
         0         0         0         0         0         0         0         0
         0         0         0         0         0         0         0         0
         0         0         0         0         0         0         0         0
         0         0         0         0         0         0         0         0
         0         0         0         0         0         0         0         0
         0         0         0         0         0         0         0         0
         0         0         0         0         0         0         0         0
         0         0         0         0         0         0         0         0
         0         0         0         0         0         0         0         0
         0         0         0         0         0         0         0         0
         0         0         0         0         0         0         0         0
         0         0         0         0         0         0         0         0
         0         0         0         0         0         0         0         0
         0         0         0         0         0         0         0         0
         0         0         0         0         0         0         0         0
         0         0         0         0         0         0         0         0
         0         0         0         0         0         0         0         0
         0         0         0         0         0         0         0         0
         0         0         0         0         0         0         0         0
         0         0         0         0         0         0         0         0
         0         0         0         0         0         0         0         0
         0         0         0         0         0         0         0         0
         0         0         0         0         0         0         0         0
         0         0         0         0         0         0         0         0
         0         0         0         0         0         0         0         0
         0         0         0         0         0         0         0         0
         0         0         0         0         0         0         0         0
         0         0         0         0         0         0         0         0
         0         0         0         0         0         0         0         0
         0         0         0         0         0         0         0         0
         0         0         0         0         0         0         0         0
         0         0         0         0         0         0         0         0
         0         0         0         0         0         0         0         0
         0         0         0         0         0         0         0         0
         0         0         0         0         0         0         0         0
         0         0         0         0         0         0         0         0
         0         0         0         0         0         0         0         0
         0         0         0         0         0         0         0         0
         0         0         0         0         0         0         0         0
         0         0         0         0         0         0         0         0
         0         0         0         0         0         0         0         0
         0         0         0         0         0         0         0         0
         0         0         0         0         0         0         0         0
         0         0         0         0         0         0         0         0
         0         0         0         0         0         0         0         0
         0         0         0         0         0         0         0         0
         0         0         0         0         0         0         0         0
         0         0         0         0         0         0         0         0
         0         0         0         0         0         0         0         0
         0         0         0         0         0         0         0         0
         0         0         0         0         0         0         0         0
         0         0         0         0         0         0         0         0
         0         0         0         0         0         0         0         0
         0         0         0         0         0         0         0         0
         0         0         0         0         0         0         0         0
         0         0         0         0         0         0         0         0
         0         0         0         0         0         0         0         0
         0         0         0         0         0         0         0         0
         0         0         0         0         0         0         0         0
         0         0         0         0         0         0         0         0
         0         0         0         0         0         0         0         0
         0         0         0         0         0         0         0         0
         0         0         0         0         0         0         0         0
         0         0         0         0         0         0         0         0
         0         0         0         0         0         0         0         0
         0         0         0         0         0         0         0         0
         0         0         0         0         0         0         0         0
         0         0         0         0         0         0         0         0
         0         0         0         0         0         0         0         0
         0         0         0         0         0         0         0         0
         0         0         0         0         0         0         0         0
         0         0         0         0         0         0         0         0
         0         0         0         0         0         0         0         0
         0         0         0         0         0         0         0         0
         0         0         0         0         0         0         0         0
         0         0         0         0         0         0         0         0
         0         0         0         0         0         0         0         0
         0         0         0         0         0         0         0         0
         0         0         0         0         0         0         0         0
         0         0         0         0         0         0         0         0
         0         0         0         0         0         0         0         0
         0         0         0         0         0         0         0         0
         0         0         0         0         0         0         0         0
         0         0         0         0         0         0         0         0
         0         0         0         0         0         0         0         0
         0         0         0         0         0         0         0         0
         0         0         0         0         0         0         0         0
         0         0         0         0         0         0         0         0
         0         0         0         0         0         0         0         0
         0         0         0         0         0         0         0         0
         0         0         0         0         0         0         0         0
         0         0         0         0         0         0         0         0
         0         0         0         0         0         0         0         0
         0         0         0         0         0         0         0         0
         0         0         0         0         0         0         0         0
         0         0         0         0         0         0         0         0
         0         0         0         0         0         0         0         0
         0         0         0         0         0         0         0         0
         0         0         0         0         0         0         0         0
         0         0         0         0         0         0         0         0
         0         0         0         0         0         0         0         0
         0         0         0         0         0         0         0         0
         0         0         0         0         0         0         0         0
         0         0         0         0         0         0         0         0
         0         0         0         0         0         0         0         0
         0         0         0         0         0         0         0         0
         0         0         0         0         0         0         0         0
         0         0         0         0         0         0         0         0
         0         0         0         0         0         0         0         0
         0         0         0         0         0         0         0         0
         0         0         0         0         0         0         0         0
         0         0         0         0         0         0         0         0
         0         0         0         0         0         0         0         0
         0         0         0         0         0         0         0         0
         0         0         0         0         0         0         0         0
         0         0         0         0         0         0         0         0
         0         0         0         0         0         0         0         0
         0         0         0         0         0         0         0         0
         0         0         0         0         0         0         0         0
         0         0         0         0         0         0         0         0
         0         0         0         0         0         0         0         0
         0         0         0         0         0         0         0         0
         0         0         0         0         0         0         0         0
         0         0         0         0         0         0         0         0
         0         0         0         0         0         0         0         0
         0         0         0         0         0         0         0         0
         0         0         0         0         0         0         0         0
         0         0         0         0         0         0         0         0
         0         0         0         0         0         0         0         0
         0         0         0         0         0         0         0         0
         0         0         0         0         0         0         0         0
         0         0         0         0         0         0         0         0
         0         0         0         0         0         0         0         0
         0         0         0         0         0         0         0         0
         0         0         0         0         0         0         0         0
         0         0         0         0         0         0         0         0
         0         0         0         0         0         0         0         0
         0         0         0         0         0         0         0         0
         0         0         0         0         0         0         0         0
         0         0         0         0         0         0         0         0
         0         0         0         0         0         0         0         0
         0         0         0         0         0         0         0         0
         0         0         0         0         0         0         0         0
         0         0         0         0         0         0         0         0
         0         0         0         0         0         0         0         0
         0         0         0         0         0         0         0         0
         0         0         0         0         0         0         0         0
         0         0         0         0         0         0         0         0
         0         0         0         0         0         0         0         0
         0         0         0         0         0         0         0         0
         0         0         0         0         0         0         0         0
         0         0         0         0         0         0         0         0
         0         0         0         0         0         0         0         0
         0         0         0         0         0         0         0         0
         0         0         0         0         0         0         0         0
         0         0         0         0         0         0         0         0
         0         0         0         0         0         0         0         0
         0         0         0         0         0         0         0         0
         0         0         0         0         0         0         0         0
         0         0         0         0         0         0         0         0
         0         0         0         0         0         0         0         0
         0         0         0         0         0         0         0         0
         0         0         0         0         0         0         0         0
         0         0         0         0         0         0         0         0
         0         0         0         0         0         0         0         0
         0         0         0         0         0         0         0         0
         0         0         0         0         0         0         0         0
         0         0         0         0         0         0         0         0
         0         0         0         0         0         0         0         0
         0         0         0         0         0         0         0         0
         0         0         0         0         0         0         0         0
         0         0         0         0         0         0         0         0
         0         0         0         0         0         0         0         0
         0         0         0         0         0         0         0         0
         0         0         0         0         0         0         0         0
         0         0         0         0         0         0         0         0
         0         0         0         0         0         0         0         0
         0         0         0         0         0         0         0         0
         0         0         0         0         0         0         0         0
         0         0         0         0         0         0         0         0
         0         0         0         0         0         0         0         0
         0         0         0         0         0         0         0         0
         0         0         0         0         0         0         0         0
         0         0         0         0         0         0         0         0
         0         0         0         0         0         0         0         0
         0         0         0         0         0         0         0         0
         0         0         0         0         0         0         0         0
         0         0         0         0         0         0         0         0
         0         0         0         0         0         0         0         0
         0         0         0         0         0         0         0         0
         0         0         0         0         0         0         0         0
         0         0         0         0         0         0         0         0
         0         0         0         0         0         0         0         0
         0         0         0         0         0         0         0         0
         0         0         0         0         0         0         0         0
         0         0         0         0         0         0         0         0
         0         0         0         0         0         0         0         0
         0         0         0         0         0         0         0         0
         0         0         0         0         0         0         0         0
         0         0         0         0         0         0         0         0
         0         0         0         0         0         0         0         0
         0         0         0         0         0         0         0         0
         0         0         0         0         0         0         0         0
         0         0         0         0         0         0         0         0
         0         0         0         0         0         0         0         0
         0         0         0         0         0         0         0         0
         0         0         0         0         0         0         0         0
         0         0         0         0         0         0         0         0
         0         0         0         0         0         0         0         0
         0         0         0         0         0         0         0         0
         0         0         0         0         0         0         0         0
         0         0         0         0         0         0         0         0
         0         0         0         0         0         0         0         0
         0         0         0         0         0         0         0         0
         0         0         0         0         0         0         0         0
         0         0         0         0         0         0         0         0
         0         0         0         0         0         0         0         0
         0         0         0         0         0         0         0         0
         0         0         0         0         0         0         0         0
         0         0         0         0         0         0         0         0
         0         0         0         0         0         0         0         0
         0         0         0         0         0         0         0         0
         0         0         0         0         0         0         0         0
         0         0         0         0         0         0         0         0
         0         0         0         0         0         0         0         0
         0         0         0         0         0         0         0         0
         0         0         0         0         0         0         0         0
         0         0         0         0         0         0         0         0
         0         0         0         0         0         0         0         0
         0         0         0         0         0         0         0         0
         0         0         0         0         0         0         0         0
         0         0         0         0         0         0         0         0
         0         0         0         0         0         0         0         0
         0         0         0         0         0         0         0         0
         0         0         0         0         0         0         0         0
         0         0         0         0         0         0         0         0
         0         0         0         0         0         0         0         0
         0         0         0         0         0         0         0         0
         0         0         0         0         0         0         0         0
         0         0         0         0         0         0         0         0
         0         0         0         0         0         0         0         0
         0         0         0         0         0         0         0         0
         0         0         0         0         0         0         0         0
         0         0         0         0         0         0         0         0
         0         0         0         0         0         0         0         0
         0         0         0         0         0         0         0         0
         0         0         0         0         0         0         0         0
         0         0         0         0         0         0         0         0
         0         0         0         0         0         0         0         0
         0         0         0         0         0         0         0         0
         0         0         0         0         0         0         0         0
         0         0         0         0         0         0         0         0
         0         0         0         0         0         0         0         0
         0         0         0         0         0         0         0         0
         0         0         0         0         0         0         0         0
         0         0         0         0         0         0         0         0
         0         0         0         0         0         0         0         0
         0         0         0         0         0         0         0         0
         0         0         0         0         0         0         0         0
         0         0         0         0         0         0         0         0
         0         0         0         0         0         0         0         0
         0         0         0         0         0         0         0         0
         0         0         0         0         0         0         0         0
         0         0         0         0         0         0         0         0
         0         0         0         0         0         0         0         0
         0         0         0         0         0         0         0         0
         0         0         0         0         0         0         0         0
         0         0         0         0         0         0         0         0
         0         0         0         0         0         0         0         0
         0         0         0         0         0         0         0         0
         0         0         0         0         0         0         0         0
         0         0         0         0         0         0         0         0
         0         0         0         0         0         0         0         0
         0         0         0         0         0         0         0         0
         0         0         0         0         0         0         0         0
         0         0         0         0         0         0         0         0
         0         0         0         0         0         0         0         0
         0         0         0         0         0         0         0         0
         0         0         0         0         0         0         0         0
         0         0         0         0         0         0         0         0
         0         0         0         0         0         0         0         0
         0         0         0         0         0         0         0         0
         0         0         0         0         0         0         0         0
         0         0         0         0         0         0         0         0
         0         0         0         0         0         0         0         0
         0         0         0         0         0         0         0         0
         0         0         0         0         0         0         0         0
         0         0         0         0         0         0         0         0
         0         0         0         0         0         0         0         0
         0         0         0         0         0         0         0         0
         0         0         0         0         0         0         0         0
         0         0         0         0         0         0         0         0
         0         0         0         0         0         0         0         0
         0         0         0         0         0         0         0         0
         0         0         0         0         0         0         0         0
         0         0         0         0         0         0         0         0
         0         0         0         0         0         0         0         0
         0         0         0         0         0         0         0         0
         0         0         0         0         0         0         0         0
         0         0         0         0         0         0         0         0
         0         0         0         0         0         0         0         0
         0         0         0         0         0         0         0         0
         0         0         0         0         0         0         0         0
         0         0         0         0         0         0         0         0
         0         0         0         0         0         0         0         0
         0         0         0         0         0         0         0         0
         0         0         0         0         0         0         0         0
         0         0         0         0         0         0         0         0
         0         0         0         0         0         0         0         0
         0         0         0         0         0         0         0         0
         0         0         0         0         0         0         0         0
         0         0         0         0         0         0         0         0
         0         0         0         0         0         0         0         0
         0         0         0         0         0         0         0         0
         0         0         0         0         0         0         0         0
         0         0         0         0         0         0         0         0
         0         0         0         0         0         0         0         0
         0         0         0         0         0         0         0         0
         0         0         0         0         0         0         0         0
         0         0         0         0         0         0         0         0
         0         0         0         0         0         0         0         0
         0         0         0         0         0         0         0         0
         0         0         0         0         0         0         0         0
         0         0         0         0         0         0         0         0
         0         0         0         0         0         0         0         0
         0         0         0         0         0         0         0         0
         0         0         0         0         0         0         0         0
         0         0         0         0         0         0         0         0
         0         0         0         0         0         0         0         0
         0         0         0         0         0         0         0         0
         0         0         0         0         0         0         0         0
         0         0         0         0         0         0         0         0
         0         0         0         0         0         0         0         0
         0         0         0         0         0         0         0         0
         0         0         0         0         0         0         0         0
         0         0         0         0         0         0         0         0
         0         0         0         0         0         0         0         0
         0         0         0         0         0         0         0         0
         0         0         0         0         0         0         0         0
         0         0         0         0         0         0         0         0
         0         0         0         0         0         0         0         0
         0         0         0         0         0         0         0         0
         0         0         0         0         0         0         0         0
         0         0         0         0         0         0         0         0
         0         0         0         0         0         0         0         0
         0         0         0         0         0         0         0         0
         0         0         0         0         0         0         0         0
         0         0         0         0         0         0         0         0
         0         0         0         0         0         0         0         0
         0         0         0         0         0         0         0         0
         0         0         0         0         0         0         0         0
         0         0         0         0         0         0         0         0
         0         0         0         0         0         0         0         0
         0         0         0         0         0         0         0         0
         0         0         0         0         0         0         0         0
         0         0         0         0         0         0         0         0
         0         0         0         0         0         0         0         0
         0         0         0         0         0         0         0         0
         0         0         0         0         0         0         0         0
         0         0         0         0         0         0         0         0
         0         0         0         0         0         0         0         0
         0         0         0         0         0         0         0         0
         0         0         0         0         0         0         0         0
         0         0         0         0         0         0         0         0
         0         0         0         0         0         0         0         0
         0         0         0         0         0         0         0         0
         0         0         0         0         0         0         0         0
         0         0         0         0         0         0         0         0
         0         0         0         0         0         0         0         0
         0         0         0         0         0         0         0         0
         0         0         0         0         0         0         0         0
         0         0         0         0         0         0         0         0
         0         0         0         0         0         0         0         0
         0         0         0         0         0         0         0         0
         0         0         0         0         0         0         0         0
         0         0         0         0         0         0         0         0
         0         0         0         0         0         0         0         0
         0         0         0         0         0         0         0         0
         0         0         0         0         0         0         0         0
         0         0         0         0         0         0         0         0
         0         0         0         0         0         0         0         0
         0         0         0         0         0         0         0         0
         0         0         0         0         0         0         0         0
         0         0         0         0         0         0         0         0
         0         0         0         0         0         0         0         0
         0         0         0         0         0         0         0         0
         0         0         0         0         0         0         0         0
         0         0         0         0         0         0         0         0
         0         0         0         0         0         0         0         0
         0         0         0         0         0         0         0         0
         0         0         0         0         0         0         0         0
         0         0         0         0         0         0         0         0
         0         0         0         0         0         0         0         0
         0         0         0         0         0         0         0         0
         0         0         0         0         0         0         0         0
         0         0         0         0         0         0         0         0
         0         0         0         0         0         0         0         0
         0         0         0         0         0         0         0         0
         0         0         0         0         0         0         0         0
         0         0         0         0         0         0         0         0
         0         0         0         0         0         0         0         0
         0         0         0         0         0         0         0         0
         0         0         0         0         0         0         0         0
         0         0         0         0         0         0         0         0
         0         0         0         0         0         0         0         0
         0         0         0         0         0         0         0         0
         0         0         0         0         0         0         0         0
         0         0         0         0         0         0         0         0
         0         0         0         0         0         0         0         0
         0         0         0         0         0         0         0         0
         0         0         0         0         0         0         0         0
         0         0         0         0         0         0         0         0
         0         0         0         0         0         0         0         0
         0         0         0         0         0         0         0         0
         0         0         0         0         0         0         0         0
         0         0         0         0         0         0         0         0
         0         0         0         0         0         0         0         0
         0         0         0         0         0         0         0         0
         0         0         0         0         0         0         0         0
         0         0         0         0         0         0         0         0
         0         0         0         0         0         0         0         0
         0         0         0         0         0         0         0         0
         0         0         0         0         0         0         0         0
         0         0         0         0         0         0         0         0
         0         0         0         0         0         0         0         0
         0         0         0         0         0         0         0         0
         0         0         0         0         0         0         0         0
         0         0         0         0         0         0         0         0
         0         0         0         0         0         0         0         0
         0         0         0         0         0         0         0         0
         0         0         0         0         0         0         0         0
         0         0         0         0         0         0         0         0
         0         0         0         0         0         0         0         0
         0         0         0         0         0         0         0         0
         0         0         0         0         0         0         0         0
         0         0         0         0         0         0         0         0
         0         0         0         0         0         0         0         0
         0         0         0         0         0         0         0         0
         0         0         0         0         0         0         0         0
         0         0         0         0         0         0         0         0
         0         0         0         0         0         0         0         0
         0         0         0         0         0         0         0         0
         0         0         0         0         0         0         0         0
         0         0         0         0         0         0         0         0
         0         0         0         0         0         0         0         0
         0         0         0         0         0         0         0         0
         0         0         0         0         0         0         0         0
         0         0         0         0         0         0         0         0
         0         0         0         0         0         0         0         0
         0         0         0         0         0         0         0         0
         0         0         0         0         0         0         0         0
         0         0         0         0         0         0         0         0
         0         0         0         0         0         0         0         0
         0         0         0         0         0         0         0         0
         0         0         0         0         0         0         0         0
         0         0         0         0         0         0         0         0
         0         0         0         0         0         0         0         0
         0         0         0         0         0         0         0         0
         0         0         0         0         0         0         0         0
         0         0         0         0         0         0         0         0
         0         0         0         0         0         0         0         0
         0         0         0         0         0         0         0         0
         0         0         0         0         0         0         0         0
         0         0         0         0         0         0         0         0
         0         0         0         0         0         0         0         0
         0         0         0         0         0         0         0         0
         0         0         0         0         0         0         0         0
         0         0         0         0         0         0         0         0
         0         0         0         0         0         0         0         0
         0         0         0         0         0         0         0         0
         0         0         0         0         0         0         0         0
         0         0         0         0         0         0         0         0
         0         0         0         0         0         0         0         0
         0         0         0         0         0         0         0         0
         0         0         0         0         0         0         0         0
         0         0         0         0         0         0         0         0
         0         0         0         0         0         0         0         0
         0         0         0         0         0         0         0         0
         0         0         0         0         0         0         0         0
         0         0         0         0         0         0         0         0
         0         0         0         0         0         0         0         0
         0         0         0         0         0         0         0         0
         0         0         0         0         0         0         0         0
         0         0         0         0         0         0         0         0
         0         0         0         0         0         0         0         0
         0         0         0         0         0         0         0         0
         0         0         0         0         0         0         0         0
         0         0         0         0         0         0         0         0
         0         0         0         0         0         0         0         0
         0         0         0         0         0         0         0         0
         0         0         0         0         0         0         0         0
         0         0         0         0         0         0         0         0
         0         0         0         0         0         0         0         0
         0         0         0         0         0         0         0         0
         0         0         0         0         0         0         0         0
         0         0         0         0         0         0         0         0
         0         0         0         0         0         0         0         0
         0         0         0         0         0         0         0         0
         0         0         0         0         0         0         0         0
         0         0         0         0         0         0         0         0
         0         0         0         0         0         0         0         0
         0         0         0         0         0         0         0         0
         0         0         0         0         0         0         0         0
         0         0         0         0         0         0         0         0
         0         0         0         0         0         0         0         0
         0         0         0         0         0         0         0         0
         0         0         0         0         0         0         0         0
         0         0         0         0         0         0         0         0
         0         0         0         0         0         0         0         0
         0         0         0         0         0         0         0         0
         0         0         0         0         0         0         0         0
         0         0         0         0         0         0         0         0
         0         0         0         0         0         0         0         0
         0         0         0         0         0         0         0         0
         0         0         0         0         0         0         0         0
         0         0         0         0         0         0         0         0
         0         0         0         0         0         0         0         0
         0         0         0         0         0         0         0         0
         0         0         0         0         0         0         0         0
         0         0         0         0         0         0         0         0
         0         0         0         0         0         0         0         0
         0         0         0         0         0         0         0         0
         0         0         0         0         0         0         0         0
         0         0         0         0         0         0         0         0
         0         0         0         0         0         0         0         0
         0         0         0         0         0         0         0         0
         0         0         0         0         0         0         0         0
         0         0         0         0         0         0         0         0
         0         0         0         0         0         0         0         0
         0         0         0         0         0         0         0         0
         0         0         0         0         0         0         0         0
         0         0         0         0         0         0         0         0
         0         0         0         0         0         0         0         0
         0         0         0         0         0         0         0         0
         0         0         0         0         0         0         0         0
         0         0         0         0         0         0         0         0
         0         0         0         0         0         0         0         0
         0         0         0         0         0         0         0         0
         0         0         0         0         0         0         0         0
         0         0         0         0         0         0         0         0
         0         0         0         0         0         0         0         0
         0         0         0         0         0         0         0         0
         0         0         0         0         0         0         0         0
         0         0         0         0         0         0         0         0
         0         0         0         0         0         0         0         0
         0         0         0         0         0         0         0         0
         0         0         0         0         0         0         0         0
         0         0         0         0         0         0         0         0
         0         0         0         0         0         0         0         0
         0         0         0         0         0         0         0         0
         0         0         0         0         0         0         0         0
         0         0         0         0         0         0         0         0
         0         0         0         0         0         0         0         0
         0         0         0         0         0         0         0         0
         0         0         0         0         0         0         0         0
         0         0         0         0         0         0         0         0
         0         0         0         0         0         0         0         0
         0         0         0         0         0         0         0         0
         0         0         0         0         0         0         0         0
         0         0         0         0         0         0         0         0
         0         0         0         0         0         0         0         0
         0         0         0         0         0         0         0         0
         0         0         0         0         0         0         0         0
         0         0         0         0         0         0         0         0
         0         0         0         0         0         0         0         0
         0         0         0         0         0         0         0         0
         0         0         0         0         0         0         0         0
         0         0         0         0         0         0         0         0
         0         0         0         0         0         0         0         0
         0         0         0         0         0         0         0         0
         0         0         0         0         0         0         0         0
         0         0         0         0         0         0         0         0
         0         0         0         0         0         0         0         0
         0         0         0         0         0         0         0         0
         0         0         0         0         0         0         0         0
         0         0         0         0         0         0         0         0
         0         0         0         0         0         0         0         0
         0         0         0         0         0         0         0         0
         0         0         0         0         0         0         0         0
         0         0         0         0         0         0         0         0
         0         0         0         0         0         0         0         0
         0         0         0         0         0         0         0         0
         0         0         0         0         0         0         0         0
         0         0         0         0         0         0         0         0
         0         0         0         0         0         0         0         0
         0         0         0         0         0         0         0         0
         0         0         0         0         0         0         0         0
         0         0         0         0         0         0         0         0
         0         0         0         0         0         0         0         0
         0         0         0         0         0         0         0         0
         0         0         0         0         0         0         0         0
         0         0         0         0         0         0         0         0
         0         0         0         0         0         0         0         0
         0         0         0         0         0         0         0         0
         0         0         0         0         0         0         0         0
         0         0         0         0         0         0         0         0
         0         0         0         0         0         0         0         0
         0         0         0         0         0         0         0         0
         0         0         0         0         0         0         0         0
         0         0         0         0         0         0         0         0
         0         0         0         0         0         0         0         0
         0         0         0         0         0         0         0         0
         0         0         0         0         0         0         0         0
         0         0         0         0         0         0         0         0
         0         0         0         0         0         0         0         0
         0         0         0         0         0         0         0         0
         0         0         0         0         0         0         0         0
         0         0         0         0         0         0         0         0
         0         0         0         0         0         0         0         0
         0         0         0         0         0         0         0         0
         0         0         0         0         0         0         0         0
         0         0         0         0         0         0         0         0
         0         0         0         0         0         0         0         0
         0         0         0         0         0         0         0         0
         0         0         0         0         0         0         0         0
         0         0         0         0         0         0         0         0
         0         0         0         0         0         0         0         0
         0         0         0         0         0         0         0         0
         0         0         0         0         0         0         0         0
         0         0         0         0         0         0         0         0
         0         0         0         0         0         0         0         0
         0         0         0         0         0         0         0         0
         0         0         0         0         0         0         0         0
         0         0         0         0         0         0         0         0
         0         0         0         0         0         0         0         0
         0         0         0         0         0         0         0         0
         0         0         0         0         0         0         0         0
         0         0         0         0         0         0         0         0
         0         0         0         0         0         0         0         0
         0         0         0         0         0         0         0         0
         0         0         0         0         0         0         0         0
         0         0         0         0         0         0         0         0
         0         0         0         0         0         0         0         0
         0         0         0         0         0         0         0         0
         0         0         0         0         0         0         0         0
         0         0         0         0         0         0         0         0
         0         0         0         0         0         0         0         0
         0         0         0         0         0         0         0         0
         0         0         0         0         0         0         0         0
         0         0         0         0         0         0         0         0
         0         0         0         0         0         0         0         0
         0         0         0         0         0         0         0         0
         0         0         0         0         0         0         0         0
         0         0         0         0         0         0         0         0
         0         0         0         0         0         0         0         0
         0         0         0         0         0         0         0         0
         0         0         0         0         0         0         0         0
         0         0         0         0         0         0         0         0
         0         0         0         0         0         0         0         0
         0         0         0         0         0         0         0         0
         0         0         0         0         0         0         0         0
         0         0         0         0         0         0         0         0
         0         0         0         0         0         0         0         0
         0         0         0         0         0         0         0         0
         0         0         0         0         0         0         0         0
         0         0         0         0         0         0         0         0
         0         0         0         0         0         0         0         0
         0         0         0         0         0         0         0         0
         0         0         0         0         0         0         0         0
         0         0         0         0         0         0         0         0
         0         0         0         0         0         0         0         0
         0         0         0         0         0         0         0         0
         0         0         0         0         0         0         0         0
         0         0         0         0         0         0         0         0
         0         0         0         0         0         0         0         0
         0         0         0         0         0         0         0         0
         0         0         0         0         0         0         0         0
         0         0         0         0         0         0         0         0
         0         0         0         0         0         0         0         0
         0         0         0         0         0         0         0         0
         0         0         0         0         0         0         0         0
         0         0         0         0         0         0         0         0
         0         0         0         0         0         0         0         0
         0         0         0         0         0         0         0         0
         0         0         0         0         0         0         0         0
         0         0         0         0         0         0         0         0
         0         0         0         0         0         0         0         0
         0         0         0         0         0         0         0         0
         0         0         0         0         0         0         0         0
         0         0         0         0         0         0         0         0
         0         0         0         0         0         0         0         0
         0         0         0         0         0         0         0         0
         0         0         0         0         0         0         0         0
         0         0         0         0         0         0         0         0
         0         0         0         0         0         0         0         0
         0         0         0         0         0         0         0         0
         0         0         0         0         0         0         0         0
         0         0         0         0         0         0         0         0
         0         0         0         0         0         0         0         0
         0         0         0         0         0         0         0         0
         0         0         0         0         0         0         0         0
         0         0         0         0         0         0         0         0
         0         0         0         0         0         0         0         0
         0         0         0         0         0         0         0         0
         0         0         0         0         0         0         0         0
         0         0         0         0         0         0         0         0
         0         0         0         0         0         0         0         0
         0         0         0         0         0         0         0         0
         0         0         0         0         0         0         0         0
         0         0         0         0         0         0         0         0
         0         0         0         0         0         0         0         0
         0         0         0         0         0         0         0         0
         0         0         0         0         0         0         0         0
         0         0         0         0         0         0         0         0
         0         0         0         0         0         0         0         0
         0         0         0         0         0         0         0         0
         0         0         0         0         0         0         0         0
         0         0         0         0         0         0         0         0
         0         0         0         0         0         0         0         0
         0         0         0         0         0         0         0         0
         0         0         0         0         0         0         0         0
         0         0         0         0         0         0         0         0
         0         0         0         0         0         0         0         0
         0         0         0         0         0         0         0         0
         0         0         0         0         0         0         0         0
         0         0         0         0         0         0         0         0
         0         0         0         0         0         0         0         0
         0         0         0         0         0         0         0         0
         0         0         0         0         0         0         0         0
         0         0         0         0         0         0         0         0
         0         0         0         0         0         0         0         0
         0         0         0         0         0         0         0         0
         0         0         0         0         0         0         0         0
         0         0         0         0         0         0         0         0
         0         0         0         0         0         0         0         0
         0         0         0         0         0         0         0         0
         0         0         0         0         0         0         0         0
         0         0         0         0         0         0         0         0
         0         0         0         0         0         0         0         0
         0         0         0         0         0         0         0         0
         0         0         0         0         0         0         0         0
         0         0         0         0         0         0         0         0
         0         0         0         0         0         0         0         0
         0         0         0         0         0         0         0         0
         0         0         0         0         0         0         0         0
         0         0         0         0         0         0         0         0
         0         0         0         0         0         0         0         0
         0         0         0         0         0         0         0         0
         0         0         0         0         0         0         0         0
         0         0         0         0         0         0         0         0
         0         0         0         0         0         0         0         0
         0         0         0         0         0         0         0         0
         0         0         0         0         0         0         0         0
         0         0         0         0         0         0         0         0
         0         0         0         0         0         0         0         0
         0         0         0         0         0         0         0         0
         0         0         0         0         0         0         0         0
         0         0         0         0         0         0         0         0
         0         0         0         0         0         0         0         0
         0         0         0         0         0         0         0         0
         0         0         0         0         0         0         0         0
         0         0         0         0         0         0         0         0
         0         0         0         0         0         0         0         0
         0         0         0         0         0         0         0         0
         0         0         0         0         0         0         0         0
         0         0         0         0         0         0         0         0
         0         0         0         0         0         0         0         0
         0         0         0         0         0         0         0         0
         0         0         0         0         0         0         0         0
         0         0         0         0         0         0         0         0
         0         0         0         0         0         0         0         0
         0         0         0         0         0         0         0         0
         0         0         0         0         0         0         0         0
         0         0         0         0         0         0         0         0
         0         0         0         0         0         0         0         0
         0         0         0         0         0         0         0         0
         0         0         0         0         0         0         0         0
         0         0         0         0         0         0         0         0
         0         0         0         0         0         0         0         0
         0         0         0         0         0         0         0         0
         0         0         0         0         0         0         0         0
         0         0         0         0         0         0         0         0
         0         0         0         0         0         0         0         0
         0         0         0         0         0         0         0         0
         0         0         0         0         0         0         0         0
         0         0         0         0         0         0         0         0
         0         0         0         0         0         0         0         0
         0         0         0         0         0         0         0         0
         0         0         0         0         0         0         0         0
         0         0         0         0         0         0         0         0
         0         0         0         0         0         0         0         0
         0         0         0         0         0         0         0         0
         0         0         0         0         0         0         0         0
         0         0         0         0         0         0         0         0
         0         0         0         0         0         0         0         0
         0         0         0         0         0         0         0         0
         0         0         0         0         0         0         0         0
         0         0         0         0         0         0         0         0
         0         0         0         0         0         0         0         0
         0         0         0         0         0         0         0         0
         0         0         0         0         0         0         0         0
         0         0         0         0         0         0         0         0
         0         0         0         0         0         0         0         0
         0         0         0         0         0         0         0         0
         0         0         0         0         0         0         0         0
         0         0         0         0         0         0         0         0
         0         0         0         0         0         0         0         0
         0         0         0         0         0         0         0         0
         0         0         0         0         0         0         0         0
         0         0         0         0         0         0         0         0
         0         0         0         0         0         0         0         0
         0         0         0         0         0         0         0         0
         0         0         0         0         0         0         0         0
         0         0         0         0         0         0         0         0
         0         0         0         0         0         0         0         0
         0         0         0         0         0         0         0         0
         0         0         0         0         0         0         0         0
         0         0         0         0         0         0         0         0
         0         0         0         0         0         0         0         0
         0         0         0         0         0         0         0         0
         0         0         0         0         0         0         0         0
         0         0         0         0         0         0         0         0
         0         0         0         0         0         0         0         0
         0         0         0         0         0         0         0         0
         0         0         0         0         0         0         0         0
         0         0         0         0         0         0         0         0
         0         0         0         0         0         0         0         0
         0         0         0         0         0         0         0         0
         0         0         0         0         0         0         0         0
         0         0         0         0         0         0         0         0
         0         0         0         0         0         0         0         0
         0         0         0         0         0         0         0         0
         0         0         0         0         0         0         0         0
         0         0         0         0         0         0         0         0
         0         0         0         0         0         0         0         0
         0         0         0         0         0         0         0         0
         0         0         0         0         0         0         0         0
         0         0         0         0         0         0         0         0
         0         0         0         0         0         0         0         0
         0         0         0         0         0         0         0         0
         0         0         0         0         0         0         0         0
         0         0         0         0         0         0         0         0
         0         0         0         0         0         0         0         0
         0         0         0         0         0         0         0         0
         0         0         0         0         0         0         0         0
         0         0         0         0         0         0         0         0
         0         0         0         0         0         0         0         0
         0         0         0         0         0         0         0         0
         0         0         0         0         0         0         0         0
         0         0         0         0         0         0         0         0
         0         0         0         0         0         0         0         0
         0         0         0         0         0         0         0         0
         0         0         0         0         0         0         0         0
         0         0         0         0         0         0         0         0
         0         0         0         0         0         0         0         0
         0         0         0         0         0         0         0         0
         0         0         0         0         0         0         0         0
         0         0         0         0         0         0         0         0
         0         0         0         0         0         0         0         0
         0         0         0         0         0         0         0         0
         0         0         0         0         0         0         0         0
         0         0         0         0         0         0         0         0
         0         0         0         0         0         0         0         0
         0         0         0         0         0         0         0         0
         0         0         0         0         0         0         0         0
         0         0         0         0         0         0         0         0
         0         0         0         0         0         0         0         0
         0         0         0         0         0         0         0         0
         0         0         0         0         0         0         0         0
         0         0         0         0         0         0         0         0
         0         0         0         0         0         0         0         0
         0         0         0         0         0         0         0         0
         0         0         0         0         0         0         0         0
         0         0         0         0         0         0         0         0
         0         0         0         0         0         0         0         0
         0         0         0         0         0         0         0         0
         0         0         0         0         0         0         0         0
         0         0         0         0         0         0         0         0
         0         0         0         0         0         0         0         0
         0         0         0         0         0         0         0         0
         0         0         0         0         0         0         0         0
         0         0         0         0         0         0         0         0
         0         0         0         0         0         0         0         0
         0         0         0         0         0         0         0         0
         0         0         0         0         0         0         0         0
         0         0         0         0         0         0         0         0
         0         0         0         0         0         0         0         0
         0         0         0         0         0         0         0         0
         0         0         0         0         0         0         0         0
         0         0         0         0         0         0         0         0
         0         0         0         0         0         0         0         0
         0         0         0         0         0         0         0         0
         0         0         0         0         0         0         0         0
         0         0         0         0         0         0         0         0
         0         0         0         0         0         0         0         0
         0         0         0         0         0         0         0         0
         0         0         0         0         0         0         0         0
         0         0         0         0         0         0         0         0
         0         0         0         0         0         0         0         0
         0         0         0         0         0         0         0         0
         0         0         0         0         0         0         0         0
         0         0         0         0         0         0         0         0
         0         0         0         0         0         0         0         0
         0         0         0         0         0         0         0         0
         0         0         0         0         0         0         0         0
         0         0         0         0         0         0         0         0
         0         0         0         0         0         0         0         0
         0         0         0         0         0         0         0         0
         0         0         0         0         0         0         0         0
         0         0         0         0         0         0         0         0
         0         0         0         0         0         0         0         0
         0         0         0         0         0         0         0         0
         0         0         0         0         0         0         0         0
         0         0         0         0         0         0         0         0
         0         0         0         0         0         0         0         0
         0         0         0         0         0         0         0         0
         0         0         0         0         0         0         0         0
         0         0         0         0         0         0         0         0
         0         0         0         0         0         0         0         0
         0         0         0         0         0         0         0         0
         0         0         0         0         0         0         0         0
         0         0         0         0         0         0         0         0
         0         0         0         0         0         0         0         0
         0         0         0         0         0         0         0         0
         0         0         0         0         0         0         0         0
         0         0         0         0         0         0         0         0
         0         0         0         0         0         0         0         0
         0         0         0         0         0         0         0         0
         0         0         0         0         0         0         0         0
         0         0         0         0         0         0         0         0
         0         0         0         0         0         0         0         0
         0         0         0         0         0         0         0         0
         0         0         0         0         0         0         0         0
         0         0         0         0         0         0         0         0
         0         0         0         0         0         0         0         0
         0         0         0         0         0         0         0         0
         0         0         0         0         0         0         0         0
         0         0         0         0         0         0         0         0
         0         0         0         0         0         0         0         0
         0         0         0         0         0         0         0         0
         0         0         0         0         0         0         0         0
         0         0         0         0         0         0         0         0
         0         0         0         0         0         0         0         0
         0         0         0         0         0         0         0         0
         0         0         0         0         0         0         0         0
         0         0         0         0         0         0         0         0
         0         0         0         0         0         0         0         0
         0         0         0         0         0         0         0         0
         0         0         0         0         0         0         0         0
         0         0         0         0         0         0         0         0
         0         0         0         0         0         0         0         0
         0         0         0         0         0         0         0         0
         0         0         0         0         0         0         0         0
         0         0         0         0         0         0         0         0
         0         0         0         0         0         0         0         0
         0         0         0         0         0         0         0         0
         0         0         0         0         0         0         0         0
         0         0         0         0         0         0         0         0
         0         0         0         0         0         0         0         0
         0         0         0         0         0         0         0         0
         0         0         0         0         0         0         0         0
         0         0         0         0         0         0         0         0
         0         0         0         0         0         0         0         0
         0         0         0         0         0         0         0         0
         0         0         0         0         0         0         0         0
         0         0         0         0         0         0         0         0
         0         0         0         0         0         0         0         0
         0         0         0         0         0         0         0         0
         0         0         0         0         0         0         0         0
         0         0         0         0         0         0         0         0
         0         0         0         0         0         0         0         0
         0         0         0         0         0         0         0         0
         0         0         0         0         0         0         0         0
         0         0         0         0         0         0         0         0
         0         0         0         0         0         0         0         0
         0         0         0         0         0         0         0         0
         0         0         0         0         0         0         0         0
         0         0         0         0         0         0         0         0
         0         0         0         0         0         0         0         0
         0         0         0         0         0         0         0         0
         0         0         0         0         0         0         0         0
         0         0         0         0         0         0         0         0
         0         0         0         0         0         0         0         0
         0         0         0         0         0         0         0         0
         0         0         0         0         0         0         0         0
         0         0         0         0         0         0         0         0
         0         0         0         0         0         0         0         0
         0         0         0         0         0         0         0         0
         0         0         0         0         0         0         0         0
         0         0         0         0         0         0         0         0
         0         0         0         0         0         0         0         0
         0         0         0         0         0         0         0         0
         0         0         0         0         0         0         0         0
         0         0         0         0         0         0         0         0
         0         0         0         0         0         0         0         0
         0         0         0         0         0         0         0         0
         0         0         0         0         0         0         0         0
         0         0         0         0         0         0         0         0
         0         0         0         0         0         0         0         0
         0         0         0         0         0         0         0         0
         0         0         0         0         0         0         0         0
         0         0         0         0         0         0         0         0
         0         0         0         0         0         0         0         0
         0         0         0         0         0         0         0         0
         0         0         0         0         0         0         0         0
         0         0         0         0         0         0         0         0
         0         0         0         0         0         0         0         0
         0         0         0         0         0         0         0         0
         0         0         0         0         0         0         0         0
         0         0         0         0         0         0         0         0
         0         0         0         0         0         0         0         0
         0         0         0         0         0         0         0         0
         0         0         0         0         0         0         0         0
         0         0         0         0         0         0         0         0
         0         0         0         0         0         0         0         0
         0         0         0         0         0         0         0         0
         0         0         0         0         0         0         0         0
         0         0         0         0         0         0         0         0
         0         0         0         0         0         0         0         0
         0         0         0         0         0         0         0         0
         0         0         0         0         0         0         0         0
         0         0         0         0         0         0         0         0
         0         0         0         0         0         0         0         0
         0         0         0         0         0         0         0         0
         0         0         0         0         0         0         0         0
         0         0         0         0         0         0         0         0
         0         0         0         0         0         0         0         0
         0         0         0         0         0         0         0         0
         0         0         0         0         0         0         0         0
         0         0         0         0         0         0         0         0
         0         0         0         0         0         0         0         0
         0         0         0         0         0         0         0         0
         0         0         0         0         0         0         0         0
         0         0         0         0         0         0         0         0
         0         0         0         0         0         0         0         0
         0         0         0         0         0         0         0         0
         0         0         0         0         0         0         0         0
         0         0         0         0         0         0         0         0
         0         0         0         0         0         0         0         0
         0         0         0         0         0         0         0         0
         0         0         0         0         0         0         0         0
         0         0         0         0         0         0         0         0
         0         0         0         0         0         0         0         0
         0         0         0         0         0         0         0         0
         0         0         0         0         0         0         0         0
         0         0         0         0         0         0         0         0
         0         0         0         0         0         0         0         0
         0         0         0         0         0         0         0         0
         0         0         0         0         0         0         0         0
         0         0         0         0         0         0         0         0
         0         0         0         0         0         0         0         0
         0         0         0         0         0         0         0         0
         0         0         0         0         0         0         0         0
         0         0         0         0         0         0         0         0
         0         0         0         0         0         0         0         0
         0         0         0         0         0         0         0         0
         0         0         0         0         0         0         0         0
         0         0         0         0         0         0         0         0
         0         0         0         0         0         0         0         0
         0         0         0         0         0         0         0         0
         0         0         0         0         0         0         0         0
         0         0         0         0         0         0         0         0
         0         0         0         0         0         0         0         0
         0         0         0         0         0         0         0         0
         0         0         0         0         0         0         0         0
         0         0         0         0         0         0         0         0
         0         0         0         0         0         0         0         0
         0         0         0         0         0         0         0         0
         0         0         0         0         0         0         0         0
         0         0         0         0         0         0         0         0
         0         0         0         0         0         0         0         0
         0         0         0         0         0         0         0         0
         0         0         0         0         0         0         0         0
         0         0         0         0         0         0         0         0
         0         0         0         0         0         0         0         0
         0         0         0         0         0         0         0         0
         0         0         0         0         0         0         0         0
         0         0         0         0         0         0         0         0
         0         0         0         0         0         0         0         0
         0         0         0         0         0         0         0         0
         0         0         0         0         0         0         0         0
         0         0         0         0         0         0         0         0
         0         0         0         0         0         0         0         0
         0         0         0         0         0         0         0         0
         0         0         0         0         0         0         0         0
         0         0         0         0         0         0         0         0
         0         0         0         0         0         0         0         0
         0         0         0         0         0         0         0         0
         0         0         0         0         0         0         0         0
         0         0         0         0         0         0         0         0
         0         0         0         0         0         0         0         0
         0         0         0         0         0         0         0         0
         0         0         0         0         0         0         0         0
         0         0         0         0         0         0         0         0
         0         0         0         0         0         0         0         0
         0         0         0         0         0         0         0         0
         0         0         0         0         0         0         0         0
         0         0         0         0         0         0         0         0
         0         0         0         0         0         0         0         0
         0         0         0         0         0         0         0         0
         0         0         0         0         0         0         0         0
         0         0         0         0         0         0         0         0
         0         0         0         0         0         0         0         0
         0         0         0         0         0         0         0         0
         0         0         0         0         0         0         0         0
         0         0         0         0         0         0         0         0
         0         0         0         0         0         0         0         0
         0         0         0         0         0         0         0         0
         0         0         0         0         0         0         0         0
         0         0         0         0         0         0         0         0
         0         0         0         0         0         0         0         0
         0         0         0         0         0         0         0         0
         0         0         0         0         0         0         0         0
         0         0         0         0         0         0         0         0
         0         0         0         0         0         0         0         0
         0         0         0         0         0         0         0         0
         0         0         0         0         0         0         0         0
         0         0         0         0         0         0         0         0
         0         0         0         0         0         0         0         0
         0         0         0         0         0         0         0         0
         0         0         0         0         0         0         0         0
         0         0         0         0         0         0         0         0
         0         0         0         0         0         0         0         0
         0         0         0         0         0         0         0         0
         0         0         0         0         0         0         0         0
         0         0         0         0         0         0         0         0
         0         0         0         0         0         0         0         0
         0         0         0         0         0         0         0         0
         0         0         0         0         0         0         0         0
         0         0         0         0         0         0         0         0
         0         0         0         0         0         0         0         0
         0         0         0         0         0         0         0         0
         0         0         0         0         0         0         0         0
         0         0         0         0         0         0         0         0
         0         0         0         0         0         0         0         0
         0         0         0         0         0         0         0         0
         0         0         0         0         0         0         0         0
         0         0         0         0         0         0         0         0
         0         0         0         0         0         0         0         0
         0         0         0         0         0         0         0         0
         0         0         0         0         0         0         0         0
         0         0         0         0         0         0         0         0
         0         0         0         0         0         0         0         0
         0         0         0         0         0         0         0         0
         0         0         0         0         0         0         0         0
         0         0         0         0         0         0         0         0
         0         0         0         0         0         0         0         0
         0         0         0         0         0         0         0         0
         0         0         0         0         0         0         0         0
         0         0         0         0         0         0         0         0
         0         0         0         0         0         0         0         0
         0         0         0         0         0         0         0         0
         0         0         0         0         0         0         0         0
         0         0         0         0         0         0         0         0
         0         0         0         0         0         0         0         0
         0         0         0         0         0         0         0         0
         0         0         0         0         0         0         0         0
         0         0         0         0         0         0         0         0
         0         0         0         0         0         0         0         0
         0         0         0         0         0         0         0         0
         0         0         0         0         0         0         0         0
         0         0         0         0         0         0         0         0
         0         0         0         0         0         0         0         0
         0         0         0         0         0         0         0         0
         0         0         0         0         0         0         0         0
         0         0         0         0         0         0         0         0
         0         0         0         0         0         0         0         0
         0         0         0         0         0         0         0         0
         0         0         0         0         0         0         0         0
         0         0         0         0         0         0         0         0
         0         0         0         0         0         0         0         0
         0         0         0         0         0         0         0         0
         0         0         0         0         0         0         0         0
         0         0         0         0         0         0         0         0
         0         0         0         0         0         0         0         0
         0         0         0         0         0         0         0         0
         0         0         0         0         0         0         0         0
         0         0         0         0         0         0         0         0
         0         0         0         0         0         0         0         0
         0         0         0         0         0         0         0         0
         0         0         0         0         0         0         0         0
         0         0         0         0         0         0         0         0
         0         0         0         0         0         0         0         0
         0         0         0         0         0         0         0         0
         0         0         0         0         0         0         0         0
         0         0         0         0         0         0         0         0
         0         0         0         0         0         0         0         0
         0         0         0         0         0         0         0         0
         0         0         0         0         0         0         0         0
         0         0         0         0         0         0         0         0
         0         0         0         0         0         0         0         0
         0         0         0         0         0         0         0         0
         0         0         0         0         0         0         0         0
         0         0         0         0         0         0         0         0
         0         0         0         0         0         0         0         0
         0         0         0         0         0         0         0         0
         0         0         0         0         0         0         0         0
         0         0         0         0         0         0         0         0
         0         0         0         0         0         0         0         0
         0         0         0         0         0         0         0         0
         0         0         0         0         0         0         0         0
         0         0         0         0         0         0         0         0
         0         0         0         0         0         0         0         0
         0         0         0         0         0         0         0         0
         0         0         0         0         0         0         0         0
         0         0         0         0         0         0         0         0
         0         0         0         0         0         0         0         0
         0         0         0         0         0         0         0         0
         0         0         0         0         0         0         0         0
         0         0         0         0         0         0         0         0
         0         0         0         0         0         0         0         0
         0         0         0         0         0         0         0         0
         0         0         0         0         0         0         0         0
         0         0         0         0         0         0         0         0
         0         0         0         0         0         0         0         0
         0         0         0         0         0         0         0         0
         0         0         0         0         0         0         0         0
         0         0         0         0         0         0         0         0
         0         0         0         0         0         0         0         0
         0         0         0         0         0         0         0         0
         0         0         0         0         0         0         0         0
         0         0         0         0         0         0         0         0
         0         0         0         0         0         0         0         0
         0         0         0         0         0         0         0         0
         0         0         0         0         0         0         0         0
         0         0         0         0         0         0         0         0
         0         0         0         0         0         0         0         0
         0         0         0         0         0         0         0         0
         0         0         0         0         0         0         0         0
         0         0         0         0         0         0         0         0
         0         0         0         0         0         0         0         0
         0         0         0         0         0         0         0         0
         0         0         0         0         0         0         0         0
         0         0         0         0         0         0         0         0
         0         0         0         0         0         0         0         0
         0         0         0         0         0         0         0         0
         0         0         0         0         0         0         0         0
         0         0         0         0         0         0         0         0
         0         0         0         0         0         0         0         0
         0         0         0         0         0         0         0         0
         0         0         0         0         0         0         0         0
         0         0         0         0         0         0         0         0
         0         0         0         0         0         0         0         0
         0         0         0         0         0         0         0         0
         0         0         0         0         0         0         0         0
         0         0         0         0         0         0         0         0
         0         0         0         0         0         0         0         0
         0         0         0         0         0         0         0         0
         0         0         0         0         0         0         0         0
         0         0         0         0         0         0         0         0
         0         0         0         0         0         0         0         0
         0         0         0         0         0         0         0         0
         0         0         0         0         0         0         0         0
         0         0         0         0         0         0         0         0
         0         0         0         0         0         0         0         0
         0         0         0         0         0         0         0         0
         0         0         0         0         0         0         0         0
         0         0         0         0         0         0         0         0
         0         0         0         0         0         0         0         0
         0         0         0         0         0         0         0         0
         0         0         0         0         0         0         0         0
         0         0         0         0         0         0         0         0
         0         0         0         0         0         0         0         0
         0         0         0         0         0         0         0         0
         0         0         0         0         0         0         0         0
         0         0         0         0         0         0         0         0
         0         0         0         0         0         0         0         0
         0         0         0         0         0         0         0         0
         0         0         0         0         0         0         0         0
         0         0         0         0         0         0         0         0
         0         0         0         0         0         0         0         0
         0         0         0         0         0         0         0

       1       0 !NGRP
         0         0         0

